Protein in INSANE! Membrane UpperLeaflet>POPC=1.0 LowerLeaflet>POPC=1.0
241418
    1AU     AUC    1  10.026  33.238   7.510
    1AU     AUC    2  10.290  33.247   7.339
    1AU     AUC    3  10.287  33.230   7.676
    1AU     AUC    4   9.748  33.234   7.348
    1AU     AUC    5   9.782  33.275   7.700
    1AU     AUC    6   9.857  33.512   7.513
    1AU     AUC    7  10.202  33.512   7.494
    1AU     AUC    8   9.844  32.979   7.517
    1AU     AUC    9  10.192  32.953   7.509
    1AU     AUC   10  10.036  33.068   7.784
    1AU     AUC   11  10.027  33.426   7.770
    1AU     AUC   12  10.012  33.069   7.242
    1AU     AUC   13  10.036  33.389   7.231
    1AU     AUC   14  10.610  33.246   7.177
    1AU     AUC   15  10.635  33.221   7.512
    1AU     AUC   16  10.590  33.208   7.865
    1AU     AUC   17   9.431  33.223   7.181
    1AU     AUC   18   9.423  33.277   7.543
    1AU     AUC   19   9.486  33.304   7.898
    1AU     AUC   20   9.695  33.825   7.498
    1AU     AUC   21  10.049  33.859   7.447
    1AU     AUC   22  10.379  33.800   7.477
    1AU     AUC   23   9.633  32.691   7.530
    1AU     AUC   24   9.994  32.639   7.497
    1AU     AUC   25  10.363  32.649   7.490
    1AU     AUC   26  10.020  32.888   8.083
    1AU     AUC   27  10.046  33.243   8.115
    1AU     AUC   28  10.066  33.598   8.063
    1AU     AUC   29  10.035  32.887   6.961
    1AU     AUC   30  10.001  33.221   6.898
    1AU     AUC   31  10.006  33.552   6.916
    1AU     AUC   32  10.315  33.011   8.000
    1AU     AUC   33  10.345  33.399   7.993
    1AU     AUC   34  10.337  33.075   7.015
    1AU     AUC   35  10.320  33.426   7.032
    1AU     AUC   36   9.732  33.111   8.028
    1AU     AUC   37   9.766  33.477   8.016
    1AU     AUC   38   9.709  33.035   7.056
    1AU     AUC   39   9.680  33.364   7.011
    1AU     AUC   40  10.548  33.522   7.329
    1AU     AUC   41  10.504  33.502   7.690
    1AU     AUC   42   9.540  33.532   7.345
    1AU     AUC   43   9.566  33.596   7.709
    1AU     AUC   44  10.511  32.936   7.345
    1AU     AUC   45  10.480  32.889   7.689
    1AU     AUC   46   9.510  32.923   7.364
    1AU     AUC   47   9.568  32.988   7.719
    1AU     AUC   48   9.880  33.767   7.775
    1AU     AUC   49  10.225  33.721   7.770
    1AU     AUC   50   9.821  32.777   7.806
    1AU     AUC   51  10.162  32.720   7.782
    1AU     AUC   52   9.843  33.668   7.190
    1AU     AUC   53  10.219  33.704   7.173
    1AU     AUC   54   9.831  32.759   7.222
    1AU     AUC   55  10.228  32.784   7.217
    1AU    AUSL   56  10.602  33.144   8.233
    1AU    AUSL   57  10.333  32.711   8.180
    1AU     AUL   58  10.647  32.740   8.320
    1AU       S   59  10.658  32.325   8.122
    1AU     LIG   60  10.549  32.146   8.479
    1AU     LIG   61  10.677  31.895   8.829
    1AU     LIG   62  10.913  31.547   9.002
    1AU     LIG   63  11.107  31.290   9.339
    1AU     LIG   64  11.003  31.079   9.765
    1AU       S   65  10.846  33.148   8.392
    1AU     LIG   66  10.783  33.255   8.838
    1AU     LIG   67  10.782  33.002   9.243
    1AU     LIG   68  10.997  32.797   9.627
    1AU     LIG   69  11.408  32.756   9.892
    1AU     LIG   70  11.804  32.704  10.170
    1AU    AUSL   71  10.206  33.050   8.420
    1AU    AUSL   72   9.933  33.417   8.458
    1AU     AUL   73  10.152  33.331   8.744
    1AU       S   74  10.421  32.975   8.637
    1AU     LIG   75  10.259  32.859   9.031
    1AU     LIG   76  10.443  32.642   9.418
    1AU     LIG   77  10.651  32.415   9.793
    1AU     LIG   78  10.688  32.265  10.253
    1AU     LIG   79  10.767  32.355  10.725
    1AU       S   80   9.737  33.156   8.683
    1AU     LIG   81   9.774  33.038   9.137
    1AU     LIG   82   9.473  33.062   9.487
    1AU     LIG   83   9.281  33.091   9.909
    1AU     LIG   84   9.190  33.221  10.345
    1AU     LIG   85   9.179  33.567  10.673
    1AU    AUSL   86  10.246  33.428   8.167
    1AU    AUSL   87  10.689  33.551   8.102
    1AU     AUL   88  10.499  33.448   8.442
    1AU       S   89  10.162  33.791   8.604
    1AU     LIG   90  10.495  33.695   8.927
    1AU     LIG   91  10.625  33.806   9.396
    1AU     LIG   92  10.637  34.014   9.857
    1AU     LIG   93  10.689  34.125  10.335
    1AU     LIG   94  10.713  34.079  10.813
    1AU       S   95  10.843  33.701   8.249
    1AU     LIG   96  11.199  33.517   8.388
    1AU     LIG   97  11.516  33.721   8.635
    1AU     LIG   98  11.772  33.936   8.955
    1AU     LIG   99  11.983  34.120   9.328
    1AU     LIG  100  12.338  34.245   9.621
    1AU    AUSL  101  10.459  33.291   6.886
    1AU    AUSL  102  10.373  33.722   6.870
    1AU     AUL  103  10.547  33.633   6.618
    1AU       S  104  10.427  33.357   6.282
    1AU     LIG  105  10.849  33.259   6.071
    1AU     LIG  106  10.954  32.961   5.733
    1AU     LIG  107  11.002  32.776   5.319
    1AU     LIG  108  11.189  32.723   4.903
    1AU     LIG  109  11.596  32.720   4.658
    1AU       S  110  10.795  33.950   6.872
    1AU     LIG  111  10.880  34.143   6.482
    1AU     LIG  112  11.151  34.250   6.105
    1AU     LIG  113  11.322  34.335   5.666
    1AU     LIG  114  11.530  34.614   5.345
    1AU     LIG  115  11.391  34.967   5.037
    1AU    AUSL  116  10.293  33.022   6.579
    1AU    AUSL  117  10.757  32.984   6.913
    1AU     AUL  118  10.675  33.169   6.654
    1AU       S  119  10.857  32.723   6.671
    1AU     LIG  120  10.957  32.334   6.361
    1AU     LIG  121  11.181  31.925   6.257
    1AU     LIG  122  11.420  31.652   5.948
    1AU     LIG  123  11.785  31.564   5.653
    1AU     LIG  124  12.239  31.520   5.495
    1AU       S  125  10.421  33.136   6.265
    1AU     LIG  126  10.505  32.838   5.964
    1AU     LIG  127  10.569  32.617   5.557
    1AU     LIG  128  10.664  32.421   5.140
    1AU     LIG  129  10.767  32.479   4.692
    1AU     LIG  130  10.838  32.441   4.226
    1AU    AUSL  131  10.106  33.434   6.669
    1AU    AUSL  132   9.899  33.029   6.765
    1AU     AUL  133  10.009  33.069   6.444
    1AU       S  134   9.575  33.048   6.301
    1AU     LIG  135   9.712  32.882   5.915
    1AU     LIG  136   9.476  32.615   5.609
    1AU     LIG  137   9.265  32.584   5.199
    1AU     LIG  138   9.061  32.480   4.793
    1AU     LIG  139   9.092  32.436   4.323
    1AU       S  140  10.179  33.488   6.343
    1AU     LIG  141  10.163  33.272   5.865
    1AU     LIG  142  10.496  33.133   5.519
    1AU     LIG  143  10.713  33.133   5.083
    1AU     LIG  144  10.727  33.356   4.653
    1AU     LIG  145  10.740  33.760   4.388
    1AU    AUSL  146   9.521  33.368   8.299
    1AU    AUSL  147   9.808  33.725   8.177
    1AU     AUL  148   9.692  33.651   8.503
    1AU       S  149   9.553  33.276   8.750
    1AU     LIG  150   9.290  32.978   8.953
    1AU     LIG  151   9.028  32.854   9.319
    1AU     LIG  152   8.835  32.882   9.741
    1AU     LIG  153   8.523  32.867  10.088
    1AU     LIG  154   8.089  32.981  10.257
    1AU       S  155   9.425  33.959   8.277
    1AU     LIG  156   9.367  34.165   8.685
    1AU     LIG  157   9.208  34.375   9.089
    1AU     LIG  158   9.012  34.501   9.498
    1AU     LIG  159   8.920  34.726   9.907
    1AU     LIG  160   8.713  34.898  10.296
    1AU    AUSL  161   9.833  33.069   8.195
    1AU    AUSL  162   9.371  32.996   8.118
    1AU     AUL  163   9.389  33.076   8.370
    1AU       S  164   9.201  32.642   8.251
    1AU     LIG  165   8.792  32.458   8.151
    1AU     LIG  166   8.449  32.190   8.285
    1AU     LIG  167   8.291  31.958   8.661
    1AU     LIG  168   8.110  31.697   9.000
    1AU     LIG  169   7.716  31.635   9.246
    1AU       S  170   9.782  32.980   8.601
    1AU     LIG  171   9.656  32.636   8.833
    1AU     LIG  172   9.484  32.593   9.267
    1AU     LIG  173   9.289  32.613   9.703
    1AU     LIG  174   9.091  32.657  10.138
    1AU     LIG  175   9.041  32.490  10.579
    1AU    AUSL  176   9.458  33.070   6.785
    1AU    AUSL  177   9.675  32.709   6.951
    1AU     AUL  178   9.706  32.744   6.634
    1AU       S  179   9.401  32.981   6.367
    1AU     LIG  180   9.195  32.893   5.960
    1AU     LIG  181   8.999  32.872   5.539
    1AU     LIG  182   8.784  32.808   5.131
    1AU     LIG  183   8.365  32.819   4.903
    1AU     LIG  184   8.010  33.013   4.656
    1AU       S  185   9.318  32.550   6.804
    1AU     LIG  186   9.171  32.107   6.748
    1AU     LIG  187   8.837  31.919   6.476
    1AU     LIG  188   8.614  31.685   6.123
    1AU     LIG  189   8.675  31.509   5.670
    1AU     LIG  190   8.712  31.415   5.192
    1AU    AUSL  191   9.682  33.397   6.599
    1AU    AUSL  192   9.334  33.478   6.926
    1AU     AUL  193   9.249  33.278   6.679
    1AU       S  194   9.333  33.725   6.681
    1AU     LIG  195   8.958  33.860   6.530
    1AU     LIG  196   8.828  34.101   6.158
    1AU     LIG  197   8.640  34.311   5.770
    1AU     LIG  198   8.232  34.378   5.490
    1AU     LIG  199   7.822  34.518   5.254
    1AU       S  200   9.608  33.338   6.361
    1AU     LIG  201   9.460  33.345   5.913
    1AU     LIG  202   9.446  33.117   5.500
    1AU     LIG  203   9.254  33.088   5.060
    1AU     LIG  204   9.229  33.322   4.631
    1AU     LIG  205   9.106  33.592   4.242
    1AU    AUSL  206  10.832  33.738   7.502
    1AU    AUSL  207  10.752  33.539   7.084
    1AU     AUL  208  11.091  33.840   7.268
    1AU       S  209  10.852  33.632   6.953
    1AU     LIG  210  11.081  33.639   6.569
    1AU     LIG  211  11.422  33.882   6.371
    1AU     LIG  212  11.645  34.091   6.010
    1AU     LIG  213  11.840  34.263   5.609
    1AU     LIG  214  12.222  34.403   5.370
    1AU       S  215  11.209  33.625   7.674
    1AU     LIG  216  11.647  33.848   7.654
    1AU     LIG  217  12.125  33.824   7.508
    1AU     LIG  218  12.595  33.937   7.530
    1AU     LIG  219  12.951  34.267   7.464
    1AU     LIG  220  13.054  34.740   7.493
    1AU    AUSL  221  11.007  33.326   7.366
    1AU    AUSL  222  10.961  33.006   7.698
    1AU     AUL  223  11.317  33.114   7.691
    1AU       S  224  11.139  33.397   7.393
    1AU     LIG  225  11.623  33.394   7.446
    1AU     LIG  226  12.058  33.352   7.300
    1AU     LIG  227  12.519  33.483   7.283
    1AU     LIG  228  12.977  33.671   7.300
    1AU     LIG  229  13.395  33.787   7.087
    1AU       S  230  11.211  32.666   7.594
    1AU     LIG  231  11.667  32.571   7.644
    1AU     LIG  232  12.020  32.297   7.662
    1AU     LIG  233  12.471  32.251   7.670
    1AU     LIG  234  12.919  32.257   7.786
    1AU     LIG  235  13.369  32.403   7.775
    1AU    AUSL  236  10.730  33.369   7.718
    1AU    AUSL  237  10.486  33.764   7.771
    1AU     AUL  238  10.805  33.828   7.800
    1AU       S  239  10.813  34.005   8.224
    1AU     LIG  240  11.249  34.029   8.324
    1AU     LIG  241  11.500  34.279   8.624
    1AU     LIG  242  11.480  34.746   8.720
    1AU     LIG  243  11.658  35.144   8.864
    1AU     LIG  244  11.913  35.515   8.958
    1AU       S  245  11.062  33.454   7.839
    1AU     LIG  246  11.538  33.473   8.002
    1AU     LIG  247  11.977  33.484   7.853
    1AU     LIG  248  12.460  33.508   7.822
    1AU     LIG  249  12.929  33.501   7.914
    1AU     LIG  250  13.384  33.617   7.976
    1AU    AUSL  251   9.373  33.824   7.548
    1AU    AUSL  252   9.465  33.582   7.928
    1AU     AUL  253   9.148  33.922   7.791
    1AU       S  254   9.303  33.753   8.188
    1AU     LIG  255   9.161  33.688   8.617
    1AU     LIG  256   8.919  33.990   8.897
    1AU     LIG  257   8.667  34.304   9.155
    1AU     LIG  258   8.280  34.344   9.453
    1AU     LIG  259   7.843  34.341   9.673
    1AU       S  260   9.379  34.195   7.467
    1AU     LIG  261   8.903  34.201   7.350
    1AU     LIG  262   8.481  34.504   7.369
    1AU     LIG  263   8.149  34.907   7.435
    1AU     LIG  264   7.720  35.187   7.477
    1AU     LIG  265   7.236  35.099   7.538
    1AU    AUSL  266   9.320  33.438   7.349
    1AU    AUSL  267   9.439  33.872   7.125
    1AU     AUL  268   9.152  33.745   7.195
    1AU       S  269   8.897  33.358   7.020
    1AU     LIG  270   8.692  33.797   6.989
    1AU     LIG  271   8.258  34.028   6.941
    1AU     LIG  272   7.834  34.187   6.757
    1AU     LIG  273   7.370  34.264   6.853
    1AU     LIG  274   6.964  34.362   6.649
    1AU       S  275   9.248  34.126   6.908
    1AU     LIG  276   9.226  34.298   6.468
    1AU     LIG  277   9.003  34.590   6.159
    1AU     LIG  278   8.754  34.992   6.088
    1AU     LIG  279   8.483  35.387   6.011
    1AU     LIG  280   8.293  35.641   5.666
    1AU    AUSL  281   9.093  33.471   7.751
    1AU    AUSL  282   9.047  33.112   7.394
    1AU     AUL  283   8.939  33.436   7.481
    1AU       S  284   8.759  32.991   7.596
    1AU     LIG  285   8.358  32.732   7.509
    1AU     LIG  286   7.917  32.745   7.608
    1AU     LIG  287   7.584  32.892   7.332
    1AU     LIG  288   7.140  32.796   7.267
    1AU     LIG  289   6.947  32.368   7.204
    1AU       S  290   9.003  33.406   7.988
    1AU     LIG  291   8.582  33.543   7.838
    1AU     LIG  292   8.122  33.665   7.906
    1AU     LIG  293   7.774  33.968   8.058
    1AU     LIG  294   7.393  34.215   8.194
    1AU     LIG  295   6.931  34.204   8.103
    1AU    AUSL  296  10.737  32.655   7.538
    1AU    AUSL  297  10.570  32.925   7.869
    1AU     AUL  298  10.903  32.822   7.919
    1AU       S  299  10.971  32.519   7.525
    1AU     LIG  300  11.309  32.182   7.589
    1AU     LIG  301  11.704  31.967   7.442
    1AU     LIG  302  12.170  31.818   7.480
    1AU     LIG  303  12.442  31.420   7.506
    1AU     LIG  304  12.866  31.349   7.333
    1AU       S  305  10.802  32.385   7.980
    1AU     LIG  306  11.061  32.099   8.282
    1AU     LIG  307  11.173  31.890   8.682
    1AU     LIG  308  11.422  31.602   8.959
    1AU     LIG  309  11.813  31.496   9.188
    1AU     LIG  310  12.214  31.594   9.423
    1AU    AUSL  311  10.692  33.041   7.332
    1AU    AUSL  312  10.645  32.602   7.117
    1AU     AUL  313  10.908  32.819   7.156
    1AU       S  314  11.260  32.753   7.407
    1AU     LIG  315  11.483  32.446   7.176
    1AU     LIG  316  11.931  32.322   7.149
    1AU     LIG  317  12.381  32.185   7.173
    1AU     LIG  318  12.841  32.161   7.140
    1AU     LIG  319  13.240  32.360   7.033
    1AU       S  320  10.835  32.488   6.819
    1AU     LIG  321  10.791  32.037   6.783
    1AU     LIG  322  10.948  31.630   6.617
    1AU     LIG  323  11.209  31.380   6.333
    1AU     LIG  324  11.423  31.014   6.141
    1AU     LIG  325  11.674  30.619   6.243
    1AU    AUSL  326   9.222  32.740   7.577
    1AU    AUSL  327   9.397  32.960   7.192
    1AU     AUL  328   9.038  32.850   7.244
    1AU       S  329   9.199  32.685   6.853
    1AU     LIG  330   8.792  32.447   6.752
    1AU     LIG  331   8.419  32.228   6.534
    1AU     LIG  332   8.184  31.974   6.206
    1AU     LIG  333   7.785  31.742   6.068
    1AU     LIG  334   7.480  31.576   5.758
    1AU       S  335   8.837  32.703   7.653
    1AU     LIG  336   8.586  32.314   7.702
    1AU     LIG  337   8.118  32.250   7.655
    1AU     LIG  338   7.724  32.060   7.452
    1AU     LIG  339   7.277  31.924   7.335
    1AU     LIG  340   6.991  31.518   7.380
    1AU    AUSL  341   9.358  33.143   7.716
    1AU    AUSL  342   9.572  32.747   7.825
    1AU     AUL  343   9.157  32.935   7.894
    1AU       S  344   9.275  32.511   8.018
    1AU     LIG  345   9.093  32.192   7.817
    1AU     LIG  346   8.799  31.910   8.027
    1AU     LIG  347   8.477  31.659   8.284
    1AU     LIG  348   8.219  31.401   8.584
    1AU     LIG  349   8.008  30.987   8.703
    1AU       S  350   8.743  33.048   7.750
    1AU     LIG  351   8.237  33.159   7.764
    1AU     LIG  352   7.723  33.182   7.775
    1AU     LIG  353   7.283  32.935   7.756
    1AU     LIG  354   6.971  32.568   7.731
    1AU     LIG  355   6.749  32.305   8.052
    1AU    AUSL  356  10.070  33.921   7.895
    1AU    AUSL  357   9.626  33.984   7.863
    1AU     AUL  358   9.894  34.047   8.193
    1AU       S  359   9.498  34.185   7.978
    1AU     LIG  360   9.131  34.355   8.248
    1AU     LIG  361   8.930  34.468   8.667
    1AU     LIG  362   8.761  34.802   8.961
    1AU     LIG  363   8.531  35.242   8.964
    1AU     LIG  364   8.216  35.615   8.915
    1AU       S  365  10.093  34.402   7.964
    1AU     LIG  366  10.347  34.529   8.302
    1AU     LIG  367  10.460  34.933   8.525
    1AU     LIG  368  10.502  35.411   8.606
    1AU     LIG  369  10.480  35.756   8.929
    1AU     LIG  370  10.408  35.817   9.402
    1AU    AUSL  371   9.884  34.192   7.592
    1AU    AUSL  372  10.187  34.143   7.199
    1AU     AUL  373   9.889  34.394   7.339
    1AU       S  374   9.949  34.405   7.808
    1AU     LIG  375  10.091  34.886   7.985
    1AU     LIG  376  10.127  35.263   8.276
    1AU     LIG  377  10.015  35.712   8.399
    1AU     LIG  378   9.662  36.056   8.331
    1AU     LIG  379   9.454  36.482   8.305
    1AU       S  380  10.168  34.446   6.970
    1AU     LIG  381  10.578  34.612   6.934
    1AU     LIG  382  10.798  35.012   6.863
    1AU     LIG  383  10.803  35.427   6.668
    1AU     LIG  384  10.766  35.823   6.460
    1AU     LIG  385  10.765  36.264   6.315
    1AU    AUSL  386  10.338  34.131   7.607
    1AU    AUSL  387  10.358  33.840   8.198
    1AU     AUL  388  10.428  34.092   7.962
    1AU       S  389  10.595  33.929   8.395
    1AU     LIG  390  10.945  33.841   8.714
    1AU     LIG  391  11.261  34.008   8.994
    1AU     LIG  392  11.517  34.343   9.197
    1AU     LIG  393  11.554  34.591   9.606
    1AU     LIG  394  11.435  34.961   9.893
    1AU       S  395  10.287  34.436   7.659
    1AU     LIG  396  10.572  34.732   7.884
    1AU     LIG  397  10.598  35.153   8.093
    1AU     LIG  398  10.885  35.490   8.270
    1AU     LIG  399  10.878  35.844   8.531
    1AU     LIG  400  10.603  36.209   8.536
    1AU    AUSL  401   9.984  32.589   7.947
    1AU    AUSL  402  10.405  32.528   7.784
    1AU     AUL  403  10.205  32.420   8.161
    1AU       S  404   9.999  32.033   8.019
    1AU     LIG  405   9.794  31.838   8.352
    1AU     LIG  406   9.609  31.436   8.428
    1AU     LIG  407   9.657  30.983   8.491
    1AU     LIG  408   9.814  30.592   8.692
    1AU     LIG  409   9.785  30.409   9.131
    1AU       S  410  10.551  32.317   7.832
    1AU     LIG  411  10.508  31.871   8.029
    1AU     LIG  412  10.783  31.667   8.373
    1AU     LIG  413  11.133  31.394   8.560
    1AU     LIG  414  11.443  31.108   8.781
    1AU     LIG  415  11.690  30.694   8.730
    1AU    AUSL  416   9.655  32.355   7.693
    1AU    AUSL  417   9.690  32.674   8.253
    1AU     AUL  418   9.713  32.398   8.043
    1AU       S  419   9.767  31.972   7.860
    1AU     LIG  420   9.399  31.776   8.020
    1AU     LIG  421   9.342  31.317   8.009
    1AU     LIG  422   9.477  30.875   8.024
    1AU     LIG  423   9.531  30.487   8.273
    1AU     LIG  424   9.583  30.026   8.354
    1AU       S  425   9.418  32.569   8.369
    1AU     LIG  426   9.178  32.139   8.346
    1AU     LIG  427   8.818  31.924   8.559
    1AU     LIG  428   8.616  31.606   8.857
    1AU     LIG  429   8.577  31.369   9.279
    1AU     LIG  430   8.649  31.161   9.718
    1AU    AUSL  431  10.088  32.287   7.632
    1AU    AUSL  432   9.852  32.536   7.340
    1AU     AUL  433   9.749  32.190   7.450
    1AU       S  434  10.103  32.100   7.182
    1AU     LIG  435   9.707  31.828   7.129
    1AU     LIG  436   9.529  31.450   6.954
    1AU     LIG  437   9.513  30.991   6.876
    1AU     LIG  438   9.534  30.531   6.786
    1AU     LIG  439   9.459  30.058   6.862
    1AU       S  440  10.101  32.082   7.771
    1AU     LIG  441  10.086  31.583   7.826
    1AU     LIG  442   9.890  31.202   8.048
    1AU     LIG  443   9.972  30.741   8.169
    1AU     LIG  444  10.026  30.276   8.254
    1AU     LIG  445  10.215  29.830   8.185
    1AU    AUSL  446   9.996  33.935   6.851
    1AU    AUSL  447  10.485  33.841   7.270
    1AU     AUL  448  10.341  34.036   6.876
    1AU       S  449   9.968  34.224   6.662
    1AU     LIG  450  10.381  34.417   6.504
    1AU     LIG  451  10.586  34.858   6.424
    1AU     LIG  452  10.612  35.287   6.199
    1AU     LIG  453  10.505  35.513   5.783
    1AU     LIG  454  10.407  35.876   5.493
    1AU       S  455  10.695  34.042   7.158
    1AU     LIG  456  11.034  34.364   6.960
    1AU     LIG  457  11.293  34.454   6.570
    1AU     LIG  458  11.463  34.801   6.285
    1AU     LIG  459  11.636  35.261   6.241
    1AU     LIG  460  12.009  35.536   6.087
    1AU    AUSL  461   9.834  33.903   7.288
    1AU    AUSL  462   9.753  33.608   6.961
    1AU     AUL  463   9.695  34.061   7.024
    1AU       S  464   9.943  34.415   6.871
    1AU     LIG  465  10.139  34.846   6.688
    1AU     LIG  466  10.299  35.293   6.631
    1AU     LIG  467  10.127  35.756   6.645
    1AU     LIG  468   9.775  36.115   6.700
    1AU     LIG  469   9.474  36.513   6.724
    1AU       S  470   9.533  33.849   6.647
    1AU     LIG  471   9.371  33.887   6.195
    1AU     LIG  472   9.237  34.219   5.868
    1AU     LIG  473   9.160  34.451   5.453
    1AU     LIG  474   9.161  34.763   5.086
    1AU     LIG  475   8.889  35.083   4.855
    1AU    AUSL  476  10.051  32.496   6.935
    1AU    AUSL  477   9.432  32.514   7.269
    1AU     AUL  478   9.711  32.358   7.006
    1AU       S  479   9.258  32.465   7.094
    1AU     LIG  480   8.902  32.248   7.221
    1AU     LIG  481   8.622  31.978   6.949
    1AU     LIG  482   8.378  31.719   6.620
    1AU     LIG  483   8.154  31.458   6.298
    1AU     LIG  484   7.830  31.132   6.157
    1AU       S  485  10.112  32.091   6.975
    1AU     LIG  486  10.048  31.660   6.788
    1AU     LIG  487   9.859  31.261   6.598
    1AU     LIG  488   9.749  30.842   6.403
    1AU     LIG  489   9.834  30.580   6.005
    1AU     LIG  490  10.037  30.400   5.604
    1AU    AUSL  491  10.287  32.512   7.323
    1AU    AUSL  492  10.308  32.841   6.965
    1AU     AUL  493  10.383  32.463   6.930
    1AU       S  494  10.347  32.140   7.270
    1AU     LIG  495  10.179  31.641   7.306
    1AU     LIG  496   9.984  31.241   7.103
    1AU     LIG  497   9.994  30.813   6.864
    1AU     LIG  498  10.012  30.338   6.758
    1AU     LIG  499  10.145  29.869   6.775
    1AU       S  500  10.603  32.670   6.587
    1AU     LIG  501  10.454  32.263   6.472
    1AU     LIG  502  10.657  31.890   6.281
    1AU     LIG  503  10.885  31.594   5.991
    1AU     LIG  504  11.108  31.355   5.656
    1AU     LIG  505  11.220  31.329   5.202
    2AU     AUC  506   6.496  24.723   7.510
    2AU     AUC  507   6.790  24.725   7.341
    2AU     AUC  508   6.741  24.711   7.682
    2AU     AUC  509   6.227  24.719   7.346
    2AU     AUC  510   6.232  24.761   7.691
    2AU     AUC  511   6.334  25.001   7.513
    2AU     AUC  512   6.674  24.987   7.509
    2AU     AUC  513   6.307  24.457   7.507
    2AU     AUC  514   6.664  24.448   7.513
    2AU     AUC  515   6.496  24.544   7.774
    2AU     AUC  516   6.488  24.909   7.773
    2AU     AUC  517   6.500  24.563   7.239
    2AU     AUC  518   6.529  24.877   7.238
    2AU     AUC  519   7.128  24.728   7.195
    2AU     AUC  520   7.108  24.712   7.535
    2AU     AUC  521   7.040  24.688   7.890
    2AU     AUC  522   5.911  24.735   7.183
    2AU     AUC  523   5.891  24.768   7.544
    2AU     AUC  524   5.943  24.802   7.875
    2AU     AUC  525   6.189  25.325   7.490
    2AU     AUC  526   6.528  25.348   7.474
    2AU     AUC  527   6.846  25.283   7.488
    2AU     AUC  528   6.108  24.176   7.501
    2AU     AUC  529   6.442  24.115   7.465
    2AU     AUC  530   6.835  24.135   7.493
    2AU     AUC  531   6.477  24.361   8.066
    2AU     AUC  532   6.491  24.719   8.111
    2AU     AUC  533   6.529  25.080   8.068
    2AU     AUC  534   6.531  24.403   6.955
    2AU     AUC  535   6.517  24.704   6.897
    2AU     AUC  536   6.531  25.027   6.927
    2AU     AUC  537   6.759  24.476   8.007
    2AU     AUC  538   6.794  24.860   8.012
    2AU     AUC  539   6.855  24.551   7.037
    2AU     AUC  540   6.847  24.880   7.031
    2AU     AUC  541   6.193  24.601   8.023
    2AU     AUC  542   6.222  24.977   7.999
    2AU     AUC  543   6.197  24.555   7.053
    2AU     AUC  544   6.187  24.868   7.009
    2AU     AUC  545   7.022  25.012   7.324
    2AU     AUC  546   6.952  24.991   7.702
    2AU     AUC  547   6.019  25.037   7.346
    2AU     AUC  548   6.043  25.096   7.698
    2AU     AUC  549   7.010  24.414   7.378
    2AU     AUC  550   6.951  24.381   7.700
    2AU     AUC  551   5.963  24.440   7.376
    2AU     AUC  552   6.020  24.485   7.721
    2AU     AUC  553   6.364  25.264   7.776
    2AU     AUC  554   6.688  25.204   7.791
    2AU     AUC  555   6.295  24.260   7.789
    2AU     AUC  556   6.621  24.196   7.766
    2AU     AUC  557   6.338  25.160   7.202
    2AU     AUC  558   6.712  25.171   7.167
    2AU     AUC  559   6.293  24.252   7.217
    2AU     AUC  560   6.686  24.274   7.225
    2AU    AUSL  561   7.024  24.586   8.279
    2AU    AUSL  562   6.775  24.169   8.165
    2AU     AUL  563   7.043  24.179   8.396
    2AU       S  564   7.122  23.845   8.093
    2AU     LIG  565   6.992  23.648   8.454
    2AU     LIG  566   7.186  23.320   8.708
    2AU     LIG  567   7.443  23.070   9.007
    2AU     LIG  568   7.745  23.013   9.359
    2AU     LIG  569   8.036  22.855   9.694
    2AU       S  570   7.244  24.584   8.413
    2AU     LIG  571   7.085  24.552   8.849
    2AU     LIG  572   7.276  24.471   9.287
    2AU     LIG  573   7.635  24.493   9.616
    2AU     LIG  574   8.072  24.607   9.809
    2AU     LIG  575   8.433  24.654  10.118
    2AU    AUSL  576   6.607  24.496   8.414
    2AU    AUSL  577   6.363  24.897   8.454
    2AU     AUL  578   6.551  24.794   8.759
    2AU       S  579   6.685  24.411   8.561
    2AU     LIG  580   6.615  24.335   8.987
    2AU     LIG  581   6.842  24.192   9.371
    2AU     LIG  582   7.110  24.092   9.752
    2AU     LIG  583   7.210  23.881  10.172
    2AU     LIG  584   7.183  23.836  10.645
    2AU       S  585   6.139  24.633   8.642
    2AU     LIG  586   6.191  24.626   9.124
    2AU     LIG  587   5.924  24.609   9.523
    2AU     LIG  588   5.737  24.741   9.944
    2AU     LIG  589   5.777  24.989  10.359
    2AU     LIG  590   5.722  25.225  10.774
    2AU    AUSL  591   6.689  24.885   8.179
    2AU    AUSL  592   7.140  24.979   8.127
    2AU     AUL  593   6.915  24.891   8.472
    2AU       S  594   6.598  25.257   8.628
    2AU     LIG  595   6.980  25.233   8.906
    2AU     LIG  596   7.102  25.278   9.366
    2AU     LIG  597   7.030  25.436   9.812
    2AU     LIG  598   7.124  25.553  10.256
    2AU     LIG  599   7.191  25.443  10.704
    2AU       S  600   7.290  25.138   8.331
    2AU     LIG  601   7.715  25.165   8.417
    2AU     LIG  602   7.950  25.341   8.763
    2AU     LIG  603   8.219  25.659   8.975
    2AU     LIG  604   8.428  25.776   9.390
    2AU     LIG  605   8.793  25.756   9.703
    2AU    AUSL  606   7.040  24.750   6.884
    2AU    AUSL  607   6.948  25.183   6.803
    2AU     AUL  608   7.294  24.885   6.673
    2AU       S  609   6.938  24.945   6.392
    2AU     LIG  610   7.280  24.876   6.041
    2AU     LIG  611   7.456  24.552   5.780
    2AU     LIG  612   7.521  24.425   5.346
    2AU     LIG  613   7.769  24.249   4.981
    2AU     LIG  614   8.182  24.133   4.758
    2AU       S  615   7.185  25.336   6.665
    2AU     LIG  616   7.405  25.307   6.278
    2AU     LIG  617   7.601  25.634   5.993
    2AU     LIG  618   7.869  25.981   5.797
    2AU     LIG  619   8.037  26.140   5.390
    2AU     LIG  620   7.969  26.369   4.977
    2AU    AUSL  621   6.810  24.500   6.592
    2AU    AUSL  622   7.280  24.405   6.965
    2AU     AUL  623   7.151  24.432   6.643
    2AU       S  624   7.474  24.086   6.794
    2AU     LIG  625   7.591  23.686   6.503
    2AU     LIG  626   7.742  23.319   6.265
    2AU     LIG  627   7.930  23.116   5.874
    2AU     LIG  628   8.261  23.021   5.529
    2AU     LIG  629   8.623  22.928   5.218
    2AU       S  630   6.944  24.752   6.369
    2AU     LIG  631   6.990  24.442   6.027
    2AU     LIG  632   7.087  24.225   5.602
    2AU     LIG  633   7.141  24.155   5.131
    2AU     LIG  634   7.249  23.981   4.701
    2AU     LIG  635   7.257  23.759   4.273
    2AU    AUSL  636   6.636  24.879   6.766
    2AU    AUSL  637   6.390  24.506   6.702
    2AU     AUL  638   6.538  24.555   6.431
    2AU       S  639   6.071  24.578   6.313
    2AU     LIG  640   6.212  24.276   6.051
    2AU     LIG  641   6.008  24.141   5.657
    2AU     LIG  642   5.785  24.099   5.233
    2AU     LIG  643   5.823  24.051   4.757
    2AU     LIG  644   5.801  24.010   4.272
    2AU       S  645   6.720  24.997   6.435
    2AU     LIG  646   6.755  24.899   5.929
    2AU     LIG  647   7.025  24.734   5.558
    2AU     LIG  648   7.152  24.703   5.091
    2AU     LIG  649   7.257  24.992   4.713
    2AU     LIG  650   7.408  25.228   4.322
    2AU    AUSL  651   5.960  24.863   8.264
    2AU    AUSL  652   6.287  25.200   8.150
    2AU     AUL  653   6.130  25.134   8.476
    2AU       S  654   5.949  24.746   8.695
    2AU     LIG  655   5.712  24.480   8.987
    2AU     LIG  656   5.476  24.386   9.396
    2AU     LIG  657   5.331  24.430   9.850
    2AU     LIG  658   5.035  24.364  10.214
    2AU     LIG  659   4.637  24.564  10.388
    2AU       S  660   5.882  25.466   8.243
    2AU     LIG  661   5.946  25.591   8.662
    2AU     LIG  662   5.762  25.875   8.978
    2AU     LIG  663   5.509  26.022   9.335
    2AU     LIG  664   5.430  26.282   9.717
    2AU     LIG  665   5.280  26.495  10.113
    2AU    AUSL  666   6.265  24.569   8.163
    2AU    AUSL  667   5.838  24.440   8.149
    2AU     AUL  668   5.758  24.672   8.282
    2AU       S  669   5.745  24.214   8.396
    2AU     LIG  670   5.305  24.148   8.263
    2AU     LIG  671   5.064  23.757   8.403
    2AU     LIG  672   4.849  23.353   8.563
    2AU     LIG  673   4.649  23.048   8.864
    2AU     LIG  674   4.469  22.944   9.292
    2AU       S  675   6.137  24.497   8.554
    2AU     LIG  676   6.122  24.181   8.895
    2AU     LIG  677   5.939  24.136   9.321
    2AU     LIG  678   5.724  24.098   9.752
    2AU     LIG  679   5.578  23.886  10.164
    2AU     LIG  680   5.677  23.734  10.617
    2AU    AUSL  681   5.994  24.661   6.799
    2AU    AUSL  682   6.187  24.275   6.999
    2AU     AUL  683   6.165  24.280   6.646
    2AU       S  684   5.843  24.558   6.454
    2AU     LIG  685   5.690  24.304   6.092
    2AU     LIG  686   5.539  24.350   5.650
    2AU     LIG  687   5.340  24.401   5.230
    2AU     LIG  688   4.944  24.512   4.984
    2AU     LIG  689   4.590  24.463   4.672
    2AU       S  690   5.761  24.127   6.801
    2AU     LIG  691   5.570  23.749   6.634
    2AU     LIG  692   5.352  23.375   6.463
    2AU     LIG  693   5.155  23.090   6.152
    2AU     LIG  694   4.958  22.888   5.790
    2AU     LIG  695   4.840  22.815   5.339
    2AU    AUSL  696   6.264  24.936   6.561
    2AU    AUSL  697   5.780  25.021   6.931
    2AU     AUL  698   5.911  24.987   6.608
    2AU       S  699   5.521  25.204   6.767
    2AU     LIG  700   5.394  25.402   6.340
    2AU     LIG  701   5.259  25.674   5.979
    2AU     LIG  702   5.034  25.768   5.568
    2AU     LIG  703   4.669  25.784   5.275
    2AU     LIG  704   4.305  26.032   5.118
    2AU       S  705   6.156  24.791   6.259
    2AU     LIG  706   5.951  24.669   5.830
    2AU     LIG  707   5.911  24.578   5.375
    2AU     LIG  708   5.750  24.548   4.938
    2AU     LIG  709   5.649  24.805   4.551
    2AU     LIG  710   5.636  25.026   4.124
    2AU    AUSL  711   7.250  25.261   7.513
    2AU    AUSL  712   7.257  25.060   7.106
    2AU     AUL  713   7.285  25.516   7.309
    2AU       S  714   7.411  25.209   6.984
    2AU     LIG  715   7.726  25.175   6.661
    2AU     LIG  716   7.927  25.337   6.272
    2AU     LIG  717   8.112  25.541   5.894
    2AU     LIG  718   8.365  25.792   5.589
    2AU     LIG  719   8.742  25.860   5.304
    2AU       S  720   7.667  25.303   7.461
    2AU     LIG  721   8.174  25.337   7.436
    2AU     LIG  722   8.657  25.377   7.546
    2AU     LIG  723   9.113  25.570   7.536
    2AU     LIG  724   9.355  25.968   7.403
    2AU     LIG  725   9.490  26.430   7.312
    2AU    AUSL  726   7.482  24.858   7.413
    2AU    AUSL  727   7.416  24.528   7.784
    2AU     AUL  728   7.631  24.786   7.812
    2AU       S  729   7.674  25.003   7.375
    2AU     LIG  730   8.112  24.821   7.392
    2AU     LIG  731   8.599  24.899   7.336
    2AU     LIG  732   9.033  25.134   7.278
    2AU     LIG  733   9.480  25.080   7.085
    2AU     LIG  734   9.966  25.165   7.078
    2AU       S  735   7.695  24.333   7.668
    2AU     LIG  736   8.056  24.037   7.717
    2AU     LIG  737   8.494  23.957   7.624
    2AU     LIG  738   8.874  23.758   7.751
    2AU     LIG  739   9.252  23.861   8.008
    2AU     LIG  740   9.712  23.930   8.012
    2AU    AUSL  741   7.168  24.867   7.714
    2AU    AUSL  742   6.945  25.235   7.818
    2AU     AUL  743   7.327  25.190   7.860
    2AU       S  744   7.284  25.424   8.259
    2AU     LIG  745   7.640  25.646   8.255
    2AU     LIG  746   7.943  25.796   8.527
    2AU     LIG  747   8.027  26.143   8.794
    2AU     LIG  748   8.259  26.531   8.952
    2AU     LIG  749   8.394  26.996   9.028
    2AU       S  750   7.725  25.200   7.632
    2AU     LIG  751   8.111  25.042   7.856
    2AU     LIG  752   8.596  24.960   7.850
    2AU     LIG  753   9.032  25.159   7.872
    2AU     LIG  754   9.439  25.230   8.095
    2AU     LIG  755   9.896  25.307   7.982
    2AU    AUSL  756   5.876  25.323   7.523
    2AU    AUSL  757   5.925  25.100   7.911
    2AU     AUL  758   5.641  25.444   7.752
    2AU       S  759   5.773  25.266   8.158
    2AU     LIG  760   5.641  25.167   8.595
    2AU     LIG  761   5.505  25.415   8.986
    2AU     LIG  762   5.213  25.574   9.343
    2AU     LIG  763   4.830  25.647   9.628
    2AU     LIG  764   4.449  25.810   9.859
    2AU       S  765   5.899  25.713   7.456
    2AU     LIG  766   5.458  25.820   7.407
    2AU     LIG  767   5.155  26.208   7.397
    2AU     LIG  768   4.852  26.581   7.324
    2AU     LIG  769   4.389  26.647   7.352
    2AU     LIG  770   3.932  26.573   7.410
    2AU    AUSL  771   5.819  24.921   7.340
    2AU    AUSL  772   5.950  25.394   7.104
    2AU     AUL  773   5.649  25.286   7.221
    2AU       S  774   5.439  24.719   6.964
    2AU     LIG  775   5.089  25.052   7.017
    2AU     LIG  776   4.657  25.291   6.934
    2AU     LIG  777   4.192  25.477   6.857
    2AU     LIG  778   3.756  25.695   6.749
    2AU     LIG  779   3.327  25.933   6.791
    2AU       S  780   5.788  25.640   6.917
    2AU     LIG  781   5.577  25.866   6.508
    2AU     LIG  782   5.386  26.155   6.159
    2AU     LIG  783   5.174  26.574   6.014
    2AU     LIG  784   5.054  27.046   5.987
    2AU     LIG  785   4.763  27.330   6.210
    2AU    AUSL  786   5.570  24.991   7.702
    2AU    AUSL  787   5.521  24.619   7.416
    2AU     AUL  788   5.413  24.929   7.399
    2AU       S  789   5.312  24.546   7.681
    2AU     LIG  790   4.854  24.408   7.471
    2AU     LIG  791   4.367  24.260   7.427
    2AU     LIG  792   3.911  24.130   7.265
    2AU     LIG  793   3.473  23.895   7.230
    2AU     LIG  794   3.028  23.751   7.053
    2AU       S  795   5.433  25.023   7.899
    2AU     LIG  796   5.028  25.208   7.800
    2AU     LIG  797   4.544  25.192   7.871
    2AU     LIG  798   4.080  25.370   7.927
    2AU     LIG  799   3.724  25.653   8.118
    2AU     LIG  800   3.307  25.899   8.243
    2AU    AUSL  801   7.248  24.156   7.597
    2AU    AUSL  802   7.014  24.413   7.889
    2AU     AUL  803   7.332  24.301   8.001
    2AU       S  804   7.559  24.080   7.643
    2AU     LIG  805   7.738  23.861   7.317
    2AU     LIG  806   8.152  23.671   7.332
    2AU     LIG  807   8.573  23.480   7.421
    2AU     LIG  808   8.996  23.278   7.534
    2AU     LIG  809   9.277  22.899   7.678
    2AU       S  810   7.239  23.855   7.974
    2AU     LIG  811   7.463  23.527   8.268
    2AU     LIG  812   7.686  23.255   8.577
    2AU     LIG  813   7.939  22.996   8.874
    2AU     LIG  814   8.245  22.915   9.216
    2AU     LIG  815   8.686  22.879   9.380
    2AU    AUSL  816   7.208  24.532   7.367
    2AU    AUSL  817   7.108  24.060   7.193
    2AU     AUL  818   7.406  24.232   7.234
    2AU       S  819   7.738  24.448   7.449
    2AU     LIG  820   8.108  24.222   7.248
    2AU     LIG  821   8.501  23.978   7.114
    2AU     LIG  822   8.918  23.790   7.204
    2AU     LIG  823   9.363  23.643   7.155
    2AU     LIG  824   9.820  23.644   7.030
    2AU       S  825   7.291  23.831   7.003
    2AU     LIG  826   7.397  23.368   6.854
    2AU     LIG  827   7.547  22.958   6.607
    2AU     LIG  828   7.655  22.485   6.482
    2AU     LIG  829   7.970  22.103   6.463
    2AU     LIG  830   8.383  21.873   6.326
    2AU    AUSL  831   5.705  24.242   7.571
    2AU    AUSL  832   5.829  24.475   7.153
    2AU     AUL  833   5.474  24.319   7.287
    2AU       S  834   5.706  24.300   6.887
    2AU     LIG  835   5.269  24.185   6.781
    2AU     LIG  836   5.053  23.802   6.608
    2AU     LIG  837   4.838  23.422   6.423
    2AU     LIG  838   4.644  23.186   6.066
    2AU     LIG  839   4.567  23.176   5.595
    2AU       S  840   5.293  24.317   7.735
    2AU     LIG  841   5.078  23.951   7.542
    2AU     LIG  842   4.619  23.809   7.468
    2AU     LIG  843   4.137  23.782   7.563
    2AU     LIG  844   3.668  23.692   7.669
    2AU     LIG  845   3.376  23.466   7.974
    2AU    AUSL  846   5.797  24.630   7.769
    2AU    AUSL  847   6.050  24.231   7.831
    2AU     AUL  848   5.710  24.206   7.903
    2AU       S  849   5.771  23.980   8.294
    2AU     LIG  850   5.479  23.691   8.094
    2AU     LIG  851   5.181  23.318   8.142
    2AU     LIG  852   5.075  22.913   8.373
    2AU     LIG  853   4.875  22.605   8.669
    2AU     LIG  854   4.657  22.313   8.965
    2AU       S  855   5.398  24.552   7.881
    2AU     LIG  856   4.893  24.719   7.872
    2AU     LIG  857   4.421  24.707   7.691
    2AU     LIG  858   3.952  24.539   7.609
    2AU     LIG  859   3.569  24.227   7.630
    2AU     LIG  860   3.261  23.970   7.872
    2AU    AUSL  861   6.562  25.458   7.929
    2AU    AUSL  862   6.122  25.485   7.846
    2AU     AUL  863   6.352  25.520   8.220
    2AU       S  864   5.994  25.680   7.961
    2AU     LIG  865   6.012  25.982   8.319
    2AU     LIG  866   5.808  26.285   8.651
    2AU     LIG  867   5.479  26.556   8.877
    2AU     LIG  868   5.282  26.985   8.788
    2AU     LIG  869   4.928  27.295   8.695
    2AU       S  870   6.592  25.841   7.989
    2AU     LIG  871   6.524  25.984   8.401
    2AU     LIG  872   6.784  26.290   8.626
    2AU     LIG  873   6.773  26.762   8.730
    2AU     LIG  874   6.633  27.196   8.884
    2AU     LIG  875   6.331  27.551   9.030
    2AU    AUSL  876   6.393  25.688   7.577
    2AU    AUSL  877   6.685  25.641   7.207
    2AU     AUL  878   6.593  25.965   7.377
    2AU       S  879   6.408  25.903   7.808
    2AU     LIG  880   6.337  26.299   8.029
    2AU     LIG  881   6.523  26.645   8.281
    2AU     LIG  882   6.555  27.100   8.378
    2AU     LIG  883   6.483  27.546   8.514
    2AU     LIG  884   6.397  28.021   8.516
    2AU       S  885   6.457  25.806   6.964
    2AU     LIG  886   6.815  26.101   6.955
    2AU     LIG  887   7.157  26.425   6.873
    2AU     LIG  888   7.342  26.870   6.827
    2AU     LIG  889   7.461  27.353   6.802
    2AU     LIG  890   7.476  27.820   6.665
    2AU    AUSL  891   6.842  25.589   7.607
    2AU    AUSL  892   6.815  25.291   8.233
    2AU     AUL  893   6.954  25.541   7.965
    2AU       S  894   7.048  25.364   8.417
    2AU     LIG  895   7.416  25.480   8.728
    2AU     LIG  896   7.701  25.743   8.981
    2AU     LIG  897   7.955  25.982   9.277
    2AU     LIG  898   8.015  26.276   9.615
    2AU     LIG  899   7.824  26.593   9.909
    2AU       S  900   6.770  25.935   7.807
    2AU     LIG  901   6.852  26.271   8.097
    2AU     LIG  902   7.060  26.603   8.313
    2AU     LIG  903   7.077  27.060   8.415
    2AU     LIG  904   7.294  27.479   8.351
    2AU     LIG  905   7.542  27.887   8.355
    2AU    AUSL  906   6.445  24.034   7.913
    2AU    AUSL  907   6.862  24.023   7.747
    2AU     AUL  908   6.661  23.874   8.121
    2AU       S  909   6.405  23.521   7.973
    2AU     LIG  910   6.333  23.114   8.181
    2AU     LIG  911   6.068  22.762   8.313
    2AU     LIG  912   6.124  22.367   8.547
    2AU     LIG  913   6.170  22.108   8.928
    2AU     LIG  914   6.268  22.053   9.387
    2AU       S  915   7.015  23.787   7.804
    2AU     LIG  916   7.013  23.355   8.022
    2AU     LIG  917   7.287  23.031   8.291
    2AU     LIG  918   7.544  22.751   8.601
    2AU     LIG  919   7.894  22.482   8.795
    2AU     LIG  920   8.223  22.148   8.932
    2AU    AUSL  921   6.126  23.861   7.637
    2AU    AUSL  922   6.217  24.158   8.252
    2AU     AUL  923   6.112  23.895   7.999
    2AU       S  924   6.224  23.474   7.833
    2AU     LIG  925   6.013  23.078   7.759
    2AU     LIG  926   5.804  22.683   7.862
    2AU     LIG  927   5.854  22.322   8.120
    2AU     LIG  928   5.620  21.957   8.296
    2AU     LIG  929   5.650  21.496   8.220
    2AU       S  930   5.980  24.042   8.444
    2AU     LIG  931   5.559  23.782   8.666
    2AU     LIG  932   5.356  23.359   8.629
    2AU     LIG  933   5.165  22.997   8.869
    2AU     LIG  934   4.930  22.733   9.177
    2AU     LIG  935   4.754  22.617   9.604
    2AU    AUSL  936   6.562  23.756   7.590
    2AU    AUSL  937   6.307  23.895   7.237
    2AU     AUL  938   6.190  23.635   7.403
    2AU       S  939   6.546  23.615   7.109
    2AU     LIG  940   6.285  23.202   7.187
    2AU     LIG  941   6.071  22.762   7.132
    2AU     LIG  942   5.760  22.401   7.003
    2AU     LIG  943   5.520  21.980   6.963
    2AU     LIG  944   5.513  21.580   6.679
    2AU       S  945   6.557  23.560   7.726
    2AU     LIG  946   6.519  23.079   7.693
    2AU     LIG  947   6.349  22.667   7.890
    2AU     LIG  948   6.495  22.269   8.146
    2AU     LIG  949   6.880  21.937   8.228
    2AU     LIG  950   7.060  21.479   8.351
    2AU    AUSL  951   6.551  25.348   6.885
    2AU    AUSL  952   6.905  25.275   7.236
    2AU     AUL  953   6.889  25.546   6.958
    2AU       S  954   6.498  25.716   6.744
    2AU     LIG  955   6.750  25.981   6.464
    2AU     LIG  956   7.026  26.245   6.183
    2AU     LIG  957   7.022  26.525   5.792
    2AU     LIG  958   6.842  26.937   5.583
    2AU     LIG  959   6.849  27.395   5.433
    2AU       S  960   7.339  25.457   6.848
    2AU     LIG  961   7.636  25.683   6.549
    2AU     LIG  962   7.978  25.860   6.289
    2AU     LIG  963   8.150  26.277   6.137
    2AU     LIG  964   8.423  26.694   6.112
    2AU     LIG  965   8.672  27.124   6.046
    2AU    AUSL  966   6.334  25.388   7.279
    2AU    AUSL  967   6.225  25.073   6.963
    2AU     AUL  968   6.193  25.381   6.831
    2AU       S  969   6.246  25.770   7.096
    2AU     LIG  970   6.288  26.279   7.096
    2AU     LIG  971   6.195  26.788   7.069
    2AU     LIG  972   6.198  27.270   6.885
    2AU     LIG  973   6.238  27.718   6.661
    2AU     LIG  974   6.029  28.082   6.402
    2AU       S  975   5.757  25.424   6.683
    2AU     LIG  976   5.912  25.527   6.298
    2AU     LIG  977   5.755  25.822   5.982
    2AU     LIG  978   5.509  25.960   5.606
    2AU     LIG  979   5.306  26.177   5.235
    2AU     LIG  980   5.254  26.623   5.064
    2AU    AUSL  981   6.530  24.042   6.875
    2AU    AUSL  982   5.907  24.043   7.248
    2AU     AUL  983   6.164  23.890   6.936
    2AU       S  984   5.725  23.997   7.060
    2AU     LIG  985   5.316  23.773   7.085
    2AU     LIG  986   5.090  23.383   6.908
    2AU     LIG  987   5.016  22.985   6.640
    2AU     LIG  988   4.809  22.728   6.295
    2AU     LIG  989   4.595  22.311   6.231
    2AU       S  990   6.594  23.658   6.892
    2AU     LIG  991   6.629  23.199   6.798
    2AU     LIG  992   6.386  22.799   6.701
    2AU     LIG  993   6.369  22.386   6.436
    2AU     LIG  994   6.427  22.151   5.997
    2AU     LIG  995   6.629  21.921   5.607
    2AU    AUSL  996   6.703  24.043   7.300
    2AU    AUSL  997   6.823  24.343   6.988
    2AU     AUL  998   6.868  24.035   6.884
    2AU       S  999   6.786  23.687   7.187
    2AU     LIG 1000   6.796  23.225   7.291
    2AU     LIG 1001   6.598  22.795   7.189
    2AU     LIG 1002   6.520  22.373   6.963
    2AU     LIG 1003   6.639  21.929   6.817
    2AU     LIG 1004   6.752  21.468   6.672
    2AU       S 1005   7.283  23.983   6.736
    2AU     LIG 1006   7.042  23.627   6.594
    2AU     LIG 1007   7.219  23.266   6.353
    2AU     LIG 1008   7.450  22.940   6.077
    2AU     LIG 1009   7.577  22.807   5.635
    2AU     LIG 1010   7.800  22.667   5.243
    3AU     AUC 1011  38.790  17.849   7.503
    3AU     AUC 1012  39.051  17.874   7.323
    3AU     AUC 1013  39.048  17.847   7.670
    3AU     AUC 1014  38.511  17.834   7.340
    3AU     AUC 1015  38.539  17.874   7.689
    3AU     AUC 1016  38.615  18.118   7.502
    3AU     AUC 1017  38.964  18.133   7.482
    3AU     AUC 1018  38.615  17.581   7.513
    3AU     AUC 1019  38.962  17.567   7.504
    3AU     AUC 1020  38.802  17.677   7.777
    3AU     AUC 1021  38.787  18.039   7.760
    3AU     AUC 1022  38.783  17.680   7.234
    3AU     AUC 1023  38.792  17.996   7.228
    3AU     AUC 1024  39.368  17.875   7.166
    3AU     AUC 1025  39.394  17.839   7.510
    3AU     AUC 1026  39.346  17.826   7.859
    3AU     AUC 1027  38.196  17.808   7.176
    3AU     AUC 1028  38.185  17.859   7.538
    3AU     AUC 1029  38.247  17.894   7.883
    3AU     AUC 1030  38.445  18.426   7.484
    3AU     AUC 1031  38.809  18.471   7.438
    3AU     AUC 1032  39.142  18.423   7.461
    3AU     AUC 1033  38.423  17.288   7.520
    3AU     AUC 1034  38.782  17.249   7.487
    3AU     AUC 1035  39.142  17.262   7.490
    3AU     AUC 1036  38.788  17.497   8.074
    3AU     AUC 1037  38.806  17.860   8.107
    3AU     AUC 1038  38.824  18.215   8.051
    3AU     AUC 1039  38.817  17.507   6.950
    3AU     AUC 1040  38.774  17.835   6.886
    3AU     AUC 1041  38.749  18.158   6.914
    3AU     AUC 1042  39.072  17.630   7.997
    3AU     AUC 1043  39.105  18.017   7.984
    3AU     AUC 1044  39.116  17.711   7.000
    3AU     AUC 1045  39.075  18.033   7.023
    3AU     AUC 1046  38.502  17.714   8.023
    3AU     AUC 1047  38.524  18.089   7.999
    3AU     AUC 1048  38.481  17.637   7.049
    3AU     AUC 1049  38.439  17.966   7.006
    3AU     AUC 1050  39.306  18.150   7.325
    3AU     AUC 1051  39.262  18.121   7.680
    3AU     AUC 1052  38.293  18.124   7.333
    3AU     AUC 1053  38.321  18.189   7.691
    3AU     AUC 1054  39.285  17.563   7.349
    3AU     AUC 1055  39.239  17.493   7.699
    3AU     AUC 1056  38.285  17.516   7.364
    3AU     AUC 1057  38.340  17.585   7.716
    3AU     AUC 1058  38.639  18.377   7.761
    3AU     AUC 1059  38.983  18.340   7.759
    3AU     AUC 1060  38.607  17.377   7.802
    3AU     AUC 1061  38.932  17.320   7.777
    3AU     AUC 1062  38.593  18.275   7.184
    3AU     AUC 1063  38.966  18.332   7.184
    3AU     AUC 1064  38.614  17.369   7.210
    3AU     AUC 1065  39.013  17.412   7.210
    3AU    AUSL 1066  39.354  17.764   8.232
    3AU    AUSL 1067  39.070  17.339   8.175
    3AU     AUL 1068  39.366  17.376   8.335
    3AU       S 1069  39.412  16.937   8.176
    3AU     LIG 1070  39.284  16.759   8.519
    3AU     LIG 1071  39.520  16.577   8.845
    3AU     LIG 1072  39.606  16.164   8.979
    3AU     LIG 1073  39.736  15.753   9.103
    3AU     LIG 1074  39.984  15.604   9.468
    3AU       S 1075  39.616  17.770   8.395
    3AU     LIG 1076  39.629  17.972   8.820
    3AU     LIG 1077  39.654  17.745   9.229
    3AU     LIG 1078  39.950  17.626   9.584
    3AU     LIG 1079  40.201  17.736   9.971
    3AU     LIG 1080  40.556  17.762  10.275
    3AU    AUSL 1081  38.960  17.674   8.425
    3AU    AUSL 1082  38.685  18.042   8.446
    3AU     AUL 1083  38.899  17.943   8.720
    3AU       S 1084  39.268  17.654   8.692
    3AU     LIG 1085  38.929  17.487   8.959
    3AU     LIG 1086  39.048  17.259   9.366
    3AU     LIG 1087  39.231  17.009   9.745
    3AU     LIG 1088  39.378  16.893  10.188
    3AU     LIG 1089  39.432  16.860  10.660
    3AU       S 1090  38.476  17.773   8.673
    3AU     LIG 1091  38.460  17.694   9.162
    3AU     LIG 1092  38.213  17.659   9.575
    3AU     LIG 1093  38.109  17.854   9.992
    3AU     LIG 1094  38.039  18.237  10.274
    3AU     LIG 1095  37.974  18.505  10.659
    3AU    AUSL 1096  39.003  18.048   8.160
    3AU    AUSL 1097  39.451  18.165   8.089
    3AU     AUL 1098  39.260  18.070   8.431
    3AU       S 1099  38.913  18.415   8.586
    3AU     LIG 1100  39.236  18.301   8.890
    3AU     LIG 1101  39.508  18.417   9.266
    3AU     LIG 1102  39.476  18.505   9.756
    3AU     LIG 1103  39.508  18.605  10.232
    3AU     LIG 1104  39.567  18.643  10.699
    3AU       S 1105  39.617  18.325   8.267
    3AU     LIG 1106  39.958  18.171   8.478
    3AU     LIG 1107  40.260  18.378   8.752
    3AU     LIG 1108  40.510  18.635   9.055
    3AU     LIG 1109  40.707  18.919   9.367
    3AU     LIG 1110  41.000  18.895   9.741
    3AU    AUSL 1111  39.247  17.929   6.809
    3AU    AUSL 1112  39.060  18.306   6.946
    3AU     AUL 1113  39.259  18.286   6.623
    3AU       S 1114  39.215  17.986   6.280
    3AU     LIG 1115  39.640  17.876   6.113
    3AU     LIG 1116  39.751  17.602   5.763
    3AU     LIG 1117  39.814  17.510   5.324
    3AU     LIG 1118  40.140  17.468   4.993
    3AU     LIG 1119  40.598  17.413   4.850
    3AU       S 1120  39.541  18.572   6.846
    3AU     LIG 1121  39.683  18.741   6.449
    3AU     LIG 1122  39.909  18.897   6.059
    3AU     LIG 1123  40.142  18.954   5.657
    3AU     LIG 1124  40.389  19.228   5.367
    3AU     LIG 1125  40.375  19.659   5.165
    3AU    AUSL 1126  39.056  17.624   6.558
    3AU    AUSL 1127  39.553  17.654   6.940
    3AU     AUL 1128  39.457  17.790   6.633
    3AU       S 1129  39.713  17.386   6.719
    3AU     LIG 1130  39.827  16.922   6.486
    3AU     LIG 1131  39.966  16.480   6.349
    3AU     LIG 1132  40.152  16.180   6.048
    3AU     LIG 1133  40.357  16.060   5.648
    3AU     LIG 1134  40.715  16.196   5.360
    3AU       S 1135  39.185  17.757   6.252
    3AU     LIG 1136  39.276  17.491   5.925
    3AU     LIG 1137  39.370  17.295   5.514
    3AU     LIG 1138  39.432  17.273   5.054
    3AU     LIG 1139  39.601  16.982   4.735
    3AU     LIG 1140  39.790  16.747   4.376
    3AU    AUSL 1141  38.861  18.047   6.646
    3AU    AUSL 1142  38.672  17.644   6.762
    3AU     AUL 1143  38.770  17.694   6.427
    3AU       S 1144  38.330  17.647   6.302
    3AU     LIG 1145  38.491  17.474   5.935
    3AU     LIG 1146  38.271  17.245   5.600
    3AU     LIG 1147  38.068  17.260   5.187
    3AU     LIG 1148  37.824  17.161   4.792
    3AU     LIG 1149  37.872  16.912   4.382
    3AU       S 1150  38.955  18.100   6.303
    3AU     LIG 1151  39.006  17.940   5.822
    3AU     LIG 1152  39.334  17.803   5.486
    3AU     LIG 1153  39.496  17.800   5.032
    3AU     LIG 1154  39.573  17.975   4.594
    3AU     LIG 1155  39.569  18.076   4.129
    3AU    AUSL 1156  38.279  17.980   8.278
    3AU    AUSL 1157  38.559  18.338   8.155
    3AU     AUL 1158  38.439  18.271   8.483
    3AU       S 1159  38.304  17.889   8.727
    3AU     LIG 1160  38.023  17.580   8.881
    3AU     LIG 1161  37.792  17.548   9.298
    3AU     LIG 1162  37.651  17.456   9.739
    3AU     LIG 1163  37.376  17.382  10.117
    3AU     LIG 1164  37.096  17.608  10.405
    3AU       S 1165  38.168  18.577   8.239
    3AU     LIG 1166  38.181  18.737   8.655
    3AU     LIG 1167  37.976  18.984   9.010
    3AU     LIG 1168  37.965  19.347   9.311
    3AU     LIG 1169  37.884  19.497   9.755
    3AU     LIG 1170  37.719  19.567  10.198
    3AU    AUSL 1171  38.596  17.688   8.186
    3AU    AUSL 1172  38.156  17.574   8.137
    3AU     AUL 1173  38.112  17.766   8.327
    3AU       S 1174  38.031  17.308   8.380
    3AU     LIG 1175  37.600  17.299   8.244
    3AU     LIG 1176  37.330  16.952   8.376
    3AU     LIG 1177  37.088  16.660   8.639
    3AU     LIG 1178  36.835  16.363   8.879
    3AU     LIG 1179  36.623  16.181   9.244
    3AU       S 1180  38.501  17.619   8.568
    3AU     LIG 1181  38.449  17.283   8.870
    3AU     LIG 1182  38.204  17.236   9.257
    3AU     LIG 1183  38.069  17.160   9.701
    3AU     LIG 1184  37.864  17.175  10.130
    3AU     LIG 1185  37.601  17.076  10.514
    3AU    AUSL 1186  38.228  17.666   6.779
    3AU    AUSL 1187  38.457  17.312   6.935
    3AU     AUL 1188  38.499  17.351   6.622
    3AU       S 1189  38.151  17.554   6.384
    3AU     LIG 1190  37.968  17.457   5.977
    3AU     LIG 1191  37.820  17.543   5.552
    3AU     LIG 1192  37.586  17.454   5.163
    3AU     LIG 1193  37.308  17.408   4.795
    3AU     LIG 1194  37.117  17.654   4.445
    3AU       S 1195  38.109  17.157   6.785
    3AU     LIG 1196  37.903  16.768   6.626
    3AU     LIG 1197  37.528  16.510   6.474
    3AU     LIG 1198  37.278  16.294   6.128
    3AU     LIG 1199  37.259  16.124   5.675
    3AU     LIG 1200  37.389  15.831   5.300
    3AU    AUSL 1201  38.436  18.004   6.594
    3AU    AUSL 1202  38.096  18.069   6.921
    3AU     AUL 1203  38.018  17.886   6.668
    3AU       S 1204  38.078  18.339   6.636
    3AU     LIG 1205  37.871  18.683   6.368
    3AU     LIG 1206  37.633  18.799   5.961
    3AU     LIG 1207  37.295  18.763   5.610
    3AU     LIG 1208  36.942  18.904   5.319
    3AU     LIG 1209  36.588  18.998   5.018
    3AU       S 1210  38.357  17.928   6.337
    3AU     LIG 1211  38.217  17.909   5.885
    3AU     LIG 1212  38.279  17.737   5.458
    3AU     LIG 1213  38.065  17.754   5.038
    3AU     LIG 1214  38.043  18.020   4.636
    3AU     LIG 1215  37.944  18.340   4.286
    3AU    AUSL 1216  39.585  18.352   7.495
    3AU    AUSL 1217  39.476  18.166   7.087
    3AU     AUL 1218  39.816  18.475   7.269
    3AU       S 1219  39.592  18.274   6.933
    3AU     LIG 1220  39.751  18.218   6.516
    3AU     LIG 1221  40.074  18.443   6.262
    3AU     LIG 1222  40.397  18.693   6.035
    3AU     LIG 1223  40.657  18.930   5.718
    3AU     LIG 1224  40.953  19.083   5.382
    3AU       S 1225  39.986  18.223   7.643
    3AU     LIG 1226  40.431  18.081   7.573
    3AU     LIG 1227  40.886  18.215   7.507
    3AU     LIG 1228  41.266  18.475   7.464
    3AU     LIG 1229  41.509  18.854   7.573
    3AU     LIG 1230  41.866  19.146   7.680
    3AU    AUSL 1231  39.756  17.948   7.336
    3AU    AUSL 1232  39.721  17.613   7.701
    3AU     AUL 1233  40.037  17.662   7.549
    3AU       S 1234  39.909  18.042   7.364
    3AU     LIG 1235  40.288  17.874   7.136
    3AU     LIG 1236  40.781  17.893   7.104
    3AU     LIG 1237  41.239  18.099   7.087
    3AU     LIG 1238  41.679  18.294   7.191
    3AU     LIG 1239  42.146  18.393   7.065
    3AU       S 1240  39.949  17.209   7.693
    3AU     LIG 1241  40.264  16.941   7.819
    3AU     LIG 1242  40.651  16.884   7.647
    3AU     LIG 1243  41.068  16.795   7.734
    3AU     LIG 1244  41.402  16.910   8.023
    3AU     LIG 1245  41.828  17.100   7.925
    3AU    AUSL 1246  39.495  17.979   7.708
    3AU    AUSL 1247  39.244  18.383   7.761
    3AU     AUL 1248  39.586  18.417   7.806
    3AU       S 1249  39.579  18.622   8.218
    3AU     LIG 1250  40.006  18.683   8.398
    3AU     LIG 1251  40.257  18.927   8.721
    3AU     LIG 1252  40.553  19.245   8.948
    3AU     LIG 1253  40.739  19.705   8.958
    3AU     LIG 1254  40.956  20.152   8.872
    3AU       S 1255  39.852  18.041   7.804
    3AU     LIG 1256  40.244  18.064   8.056
    3AU     LIG 1257  40.712  18.135   8.006
    3AU     LIG 1258  41.167  18.265   7.959
    3AU     LIG 1259  41.612  18.371   7.831
    3AU     LIG 1260  42.068  18.276   7.914
    3AU    AUSL 1261  38.115  18.408   7.526
    3AU    AUSL 1262  38.226  18.179   7.903
    3AU     AUL 1263  37.899  18.505   7.769
    3AU       S 1264  38.062  18.368   8.174
    3AU     LIG 1265  37.947  18.263   8.604
    3AU     LIG 1266  37.759  18.507   8.968
    3AU     LIG 1267  37.418  18.702   9.256
    3AU     LIG 1268  37.010  18.838   9.489
    3AU     LIG 1269  36.613  19.018   9.699
    3AU       S 1270  38.116  18.790   7.443
    3AU     LIG 1271  37.707  19.069   7.485
    3AU     LIG 1272  37.263  19.346   7.492
    3AU     LIG 1273  36.816  19.584   7.576
    3AU     LIG 1274  36.397  19.838   7.641
    3AU     LIG 1275  36.010  20.030   7.892
    3AU    AUSL 1276  38.075  18.011   7.342
    3AU    AUSL 1277  38.179  18.466   7.105
    3AU     AUL 1278  37.897  18.316   7.175
    3AU       S 1279  37.680  17.883   7.014
    3AU     LIG 1280  37.373  18.227   7.062
    3AU     LIG 1281  36.909  18.349   6.977
    3AU     LIG 1282  36.437  18.354   6.874
    3AU     LIG 1283  36.028  18.494   6.664
    3AU     LIG 1284  35.596  18.642   6.493
    3AU       S 1285  37.987  18.715   6.903
    3AU     LIG 1286  38.173  19.034   6.620
    3AU     LIG 1287  37.944  19.277   6.283
    3AU     LIG 1288  37.675  19.619   6.071
    3AU     LIG 1289  37.429  20.024   6.023
    3AU     LIG 1290  37.006  20.206   6.142
    3AU    AUSL 1291  37.854  18.050   7.740
    3AU    AUSL 1292  37.819  17.675   7.403
    3AU     AUL 1293  37.692  18.011   7.470
    3AU       S 1294  37.598  17.574   7.645
    3AU     LIG 1295  37.197  17.455   7.395
    3AU     LIG 1296  36.744  17.310   7.391
    3AU     LIG 1297  36.333  17.297   7.163
    3AU     LIG 1298  35.950  17.097   7.075
    3AU     LIG 1299  35.732  16.695   7.035
    3AU       S 1300  37.772  18.020   7.990
    3AU     LIG 1301  37.403  18.284   7.879
    3AU     LIG 1302  36.902  18.278   7.849
    3AU     LIG 1303  36.465  18.458   7.984
    3AU     LIG 1304  36.216  18.714   8.305
    3AU     LIG 1305  35.793  18.638   8.505
    3AU    AUSL 1306  39.490  17.270   7.544
    3AU    AUSL 1307  39.326  17.541   7.871
    3AU     AUL 1308  39.653  17.461   7.940
    3AU       S 1309  39.659  17.117   7.549
    3AU     LIG 1310  39.912  16.706   7.543
    3AU     LIG 1311  40.343  16.518   7.464
    3AU     LIG 1312  40.822  16.482   7.383
    3AU     LIG 1313  41.298  16.415   7.447
    3AU     LIG 1314  41.696  16.134   7.476
    3AU       S 1315  39.576  17.031   8.048
    3AU     LIG 1316  39.812  16.781   8.427
    3AU     LIG 1317  39.990  16.417   8.700
    3AU     LIG 1318  40.138  16.067   8.963
    3AU     LIG 1319  40.509  16.059   9.261
    3AU     LIG 1320  40.887  16.195   9.525
    3AU    AUSL 1321  39.441  17.660   7.351
    3AU    AUSL 1322  39.443  17.252   7.112
    3AU     AUL 1323  39.715  17.479   7.209
    3AU       S 1324  39.940  17.198   7.473
    3AU     LIG 1325  40.271  16.992   7.275
    3AU     LIG 1326  40.700  16.934   7.129
    3AU     LIG 1327  41.147  16.843   7.178
    3AU     LIG 1328  41.603  16.744   7.158
    3AU     LIG 1329  41.969  17.017   7.272
    3AU       S 1330  39.645  17.152   6.874
    3AU     LIG 1331  39.573  16.701   6.908
    3AU     LIG 1332  39.821  16.314   6.823
    3AU     LIG 1333  39.992  15.966   6.517
    3AU     LIG 1334  40.173  15.678   6.167
    3AU     LIG 1335  40.367  15.293   5.977
    3AU    AUSL 1336  38.023  17.309   7.569
    3AU    AUSL 1337  38.167  17.543   7.183
    3AU     AUL 1338  37.814  17.393   7.263
    3AU       S 1339  37.977  17.283   6.852
    3AU     LIG 1340  37.603  17.191   6.622
    3AU     LIG 1341  37.232  16.911   6.597
    3AU     LIG 1342  36.949  16.631   6.342
    3AU     LIG 1343  36.738  16.311   6.051
    3AU     LIG 1344  36.358  16.198   5.772
    3AU       S 1345  37.592  17.312   7.680
    3AU     LIG 1346  37.362  16.971   7.479
    3AU     LIG 1347  36.955  16.843   7.268
    3AU     LIG 1348  36.468  16.832   7.346
    3AU     LIG 1349  36.009  16.791   7.484
    3AU     LIG 1350  35.658  16.457   7.492
    3AU    AUSL 1351  38.116  17.714   7.733
    3AU    AUSL 1352  38.361  17.335   7.834
    3AU     AUL 1353  37.985  17.389   7.908
    3AU       S 1354  38.054  17.077   8.226
    3AU     LIG 1355  37.698  16.847   8.019
    3AU     LIG 1356  37.369  16.504   8.124
    3AU     LIG 1357  37.137  16.198   8.418
    3AU     LIG 1358  36.928  15.881   8.724
    3AU     LIG 1359  36.604  15.510   8.779
    3AU       S 1360  37.595  17.614   7.812
    3AU     LIG 1361  37.194  17.864   7.695
    3AU     LIG 1362  36.753  17.816   7.563
    3AU     LIG 1363  36.331  17.613   7.551
    3AU     LIG 1364  35.944  17.332   7.553
    3AU     LIG 1365  35.728  17.083   7.882
    3AU    AUSL 1366  38.828  18.543   7.888
    3AU    AUSL 1367  38.380  18.580   7.828
    3AU     AUL 1368  38.636  18.654   8.179
    3AU       S 1369  38.260  18.777   7.926
    3AU     LIG 1370  38.389  19.093   8.240
    3AU     LIG 1371  38.172  19.262   8.629
    3AU     LIG 1372  37.835  19.507   8.831
    3AU     LIG 1373  37.424  19.740   8.833
    3AU     LIG 1374  37.127  20.065   8.998
    3AU       S 1375  38.850  18.996   7.956
    3AU     LIG 1376  38.915  19.049   8.362
    3AU     LIG 1377  38.937  19.449   8.569
    3AU     LIG 1378  38.804  19.845   8.749
    3AU     LIG 1379  38.824  20.135   9.122
    3AU     LIG 1380  38.814  20.510   9.402
    3AU    AUSL 1381  38.642  18.807   7.580
    3AU    AUSL 1382  38.918  18.748   7.195
    3AU     AUL 1383  38.648  19.012   7.338
    3AU       S 1384  38.696  19.030   7.810
    3AU     LIG 1385  38.839  19.466   8.051
    3AU     LIG 1386  38.831  19.893   8.223
    3AU     LIG 1387  38.777  20.334   8.297
    3AU     LIG 1388  38.406  20.611   8.272
    3AU     LIG 1389  38.035  20.900   8.336
    3AU       S 1390  38.857  19.056   6.926
    3AU     LIG 1391  39.264  19.174   6.842
    3AU     LIG 1392  39.351  19.618   6.711
    3AU     LIG 1393  39.286  20.082   6.601
    3AU     LIG 1394  39.289  20.554   6.709
    3AU     LIG 1395  39.467  21.006   6.807
    3AU    AUSL 1396  39.093  18.750   7.597
    3AU    AUSL 1397  39.121  18.459   8.186
    3AU     AUL 1398  39.205  18.705   7.941
    3AU       S 1399  39.354  18.548   8.384
    3AU     LIG 1400  39.673  18.509   8.745
    3AU     LIG 1401  39.964  18.657   9.068
    3AU     LIG 1402  40.206  19.009   9.250
    3AU     LIG 1403  40.386  19.380   9.472
    3AU     LIG 1404  40.266  19.702   9.816
    3AU       S 1405  39.035  19.061   7.670
    3AU     LIG 1406  39.290  19.233   8.035
    3AU     LIG 1407  39.293  19.661   8.257
    3AU     LIG 1408  39.284  20.144   8.330
    3AU     LIG 1409  39.509  20.589   8.328
    3AU     LIG 1410  39.780  21.008   8.341
    3AU    AUSL 1411  38.759  17.154   7.932
    3AU    AUSL 1412  39.186  17.122   7.808
    3AU     AUL 1413  38.961  17.030   8.174
    3AU       S 1414  38.767  16.655   7.986
    3AU     LIG 1415  38.758  16.483   8.371
    3AU     LIG 1416  38.829  16.044   8.350
    3AU     LIG 1417  38.780  15.649   8.524
    3AU     LIG 1418  38.863  15.399   8.895
    3AU     LIG 1419  38.633  15.183   9.261
    3AU       S 1420  39.340  16.924   7.876
    3AU     LIG 1421  39.675  16.556   7.984
    3AU     LIG 1422  39.645  16.293   8.362
    3AU     LIG 1423  39.763  15.907   8.583
    3AU     LIG 1424  40.054  15.578   8.727
    3AU     LIG 1425  40.367  15.305   8.923
    3AU    AUSL 1426  38.448  16.956   7.660
    3AU    AUSL 1427  38.507  17.279   8.257
    3AU     AUL 1428  38.448  17.001   8.017
    3AU       S 1429  38.568  16.583   7.839
    3AU     LIG 1430  38.428  16.209   8.072
    3AU     LIG 1431  38.419  15.738   8.153
    3AU     LIG 1432  38.169  15.308   8.199
    3AU     LIG 1433  37.894  14.880   8.206
    3AU     LIG 1434  37.801  14.404   8.286
    3AU       S 1435  38.255  17.179   8.427
    3AU     LIG 1436  37.826  16.893   8.600
    3AU     LIG 1437  37.571  16.502   8.602
    3AU     LIG 1438  37.327  16.222   8.891
    3AU     LIG 1439  37.146  15.972   9.245
    3AU     LIG 1440  37.281  15.671   9.604
    3AU    AUSL 1441  38.889  16.892   7.599
    3AU    AUSL 1442  38.648  17.148   7.318
    3AU     AUL 1443  38.567  16.783   7.417
    3AU       S 1444  38.925  16.729   7.141
    3AU     LIG 1445  38.610  16.367   7.061
    3AU     LIG 1446  38.401  15.950   6.938
    3AU     LIG 1447  38.300  15.522   6.758
    3AU     LIG 1448  38.200  15.052   6.790
    3AU     LIG 1449  38.001  14.611   6.746
    3AU       S 1450  38.909  16.675   7.755
    3AU     LIG 1451  38.862  16.175   7.797
    3AU     LIG 1452  38.918  15.742   7.944
    3AU     LIG 1453  39.135  15.443   8.224
    3AU     LIG 1454  39.342  15.059   8.392
    3AU     LIG 1455  39.489  14.658   8.188
    3AU    AUSL 1456  38.727  18.560   6.838
    3AU    AUSL 1457  39.285  18.533   7.244
    3AU     AUL 1458  39.076  18.656   6.873
    3AU       S 1459  38.684  18.826   6.660
    3AU     LIG 1460  38.941  19.127   6.432
    3AU     LIG 1461  39.014  19.564   6.318
    3AU     LIG 1462  39.058  19.857   5.965
    3AU     LIG 1463  38.984  20.229   5.698
    3AU     LIG 1464  38.917  20.667   5.563
    3AU       S 1465  39.459  18.700   7.112
    3AU     LIG 1466  39.902  18.888   6.909
    3AU     LIG 1467  40.184  18.918   6.501
    3AU     LIG 1468  40.475  19.176   6.198
    3AU     LIG 1469  40.824  19.511   6.104
    3AU     LIG 1470  41.105  19.813   5.844
    3AU    AUSL 1471  38.564  18.513   7.286
    3AU    AUSL 1472  38.513  18.216   6.956
    3AU     AUL 1473  38.429  18.666   7.031
    3AU       S 1474  38.630  19.034   6.869
    3AU     LIG 1475  38.625  19.457   6.689
    3AU     LIG 1476  38.853  19.841   6.723
    3AU     LIG 1477  38.789  20.297   6.681
    3AU     LIG 1478  38.370  20.559   6.705
    3AU     LIG 1479  38.022  20.902   6.618
    3AU       S 1480  38.289  18.452   6.643
    3AU     LIG 1481  38.372  18.697   6.272
    3AU     LIG 1482  38.137  18.945   5.953
    3AU     LIG 1483  37.918  19.302   5.719
    3AU     LIG 1484  37.812  19.486   5.272
    3AU     LIG 1485  37.615  19.614   4.839
    3AU    AUSL 1486  38.853  17.139   6.916
    3AU    AUSL 1487  38.229  17.099   7.249
    3AU     AUL 1488  38.516  16.968   6.981
    3AU       S 1489  38.046  17.037   7.054
    3AU     LIG 1490  37.605  16.880   7.031
    3AU     LIG 1491  37.290  16.534   6.939
    3AU     LIG 1492  37.077  16.231   6.628
    3AU     LIG 1493  36.663  16.015   6.475
    3AU     LIG 1494  36.384  15.628   6.424
    3AU       S 1495  38.941  16.733   6.948
    3AU     LIG 1496  39.083  16.315   6.793
    3AU     LIG 1497  38.839  15.939   6.671
    3AU     LIG 1498  38.742  15.546   6.445
    3AU     LIG 1499  38.760  15.333   6.026
    3AU     LIG 1500  38.769  15.171   5.586
    3AU    AUSL 1501  39.084  17.141   7.308
    3AU    AUSL 1502  39.106  17.488   6.957
    3AU     AUL 1503  39.181  17.121   6.904
    3AU       S 1504  39.175  16.793   7.241
    3AU     LIG 1505  39.055  16.299   7.310
    3AU     LIG 1506  38.862  15.912   7.174
    3AU     LIG 1507  38.767  15.512   6.959
    3AU     LIG 1508  38.995  15.143   6.786
    3AU     LIG 1509  39.350  14.826   6.833
    3AU       S 1510  39.448  17.320   6.598
    3AU     LIG 1511  39.310  16.871   6.507
    3AU     LIG 1512  39.464  16.443   6.431
    3AU     LIG 1513  39.653  16.084   6.150
    3AU     LIG 1514  39.840  15.856   5.784
    3AU     LIG 1515  39.962  15.897   5.322
    4AU     AUC 1516  11.825   1.090   7.506
    4AU     AUC 1517  12.096   1.097   7.338
    4AU     AUC 1518  12.085   1.083   7.673
    4AU     AUC 1519  11.544   1.084   7.343
    4AU     AUC 1520  11.578   1.128   7.693
    4AU     AUC 1521  11.653   1.361   7.507
    4AU     AUC 1522  12.001   1.362   7.491
    4AU     AUC 1523  11.641   0.831   7.515
    4AU     AUC 1524  11.992   0.806   7.506
    4AU     AUC 1525  11.835   0.921   7.780
    4AU     AUC 1526  11.821   1.282   7.763
    4AU     AUC 1527  11.813   0.922   7.238
    4AU     AUC 1528  11.841   1.239   7.229
    4AU     AUC 1529  12.420   1.096   7.177
    4AU     AUC 1530  12.436   1.073   7.513
    4AU     AUC 1531  12.384   1.062   7.866
    4AU     AUC 1532  11.228   1.076   7.177
    4AU     AUC 1533  11.218   1.124   7.538
    4AU     AUC 1534  11.282   1.156   7.890
    4AU     AUC 1535  11.490   1.679   7.489
    4AU     AUC 1536  11.848   1.711   7.440
    4AU     AUC 1537  12.177   1.653   7.474
    4AU     AUC 1538  11.431   0.544   7.527
    4AU     AUC 1539  11.790   0.492   7.494
    4AU     AUC 1540  12.161   0.500   7.487
    4AU     AUC 1541  11.818   0.742   8.080
    4AU     AUC 1542  11.839   1.100   8.109
    4AU     AUC 1543  11.856   1.456   8.055
    4AU     AUC 1544  11.838   0.742   6.959
    4AU     AUC 1545  11.810   1.075   6.896
    4AU     AUC 1546  11.816   1.404   6.914
    4AU     AUC 1547  12.110   0.864   7.997
    4AU     AUC 1548  12.135   1.254   7.990
    4AU     AUC 1549  12.142   0.925   7.014
    4AU     AUC 1550  12.131   1.277   7.032
    4AU     AUC 1551  11.531   0.968   8.025
    4AU     AUC 1552  11.559   1.337   8.006
    4AU     AUC 1553  11.509   0.892   7.054
    4AU     AUC 1554  11.484   1.219   7.006
    4AU     AUC 1555  12.353   1.373   7.331
    4AU     AUC 1556  12.299   1.357   7.691
    4AU     AUC 1557  11.334   1.387   7.340
    4AU     AUC 1558  11.357   1.447   7.697
    4AU     AUC 1559  12.314   0.788   7.342
    4AU     AUC 1560  12.280   0.744   7.683
    4AU     AUC 1561  11.304   0.775   7.362
    4AU     AUC 1562  11.368   0.840   7.717
    4AU     AUC 1563  11.674   1.623   7.765
    4AU     AUC 1564  12.016   1.577   7.764
    4AU     AUC 1565  11.623   0.630   7.805
    4AU     AUC 1566  11.959   0.572   7.778
    4AU     AUC 1567  11.648   1.515   7.186
    4AU     AUC 1568  12.029   1.550   7.165
    4AU     AUC 1569  11.626   0.614   7.218
    4AU     AUC 1570  12.025   0.637   7.215
    4AU    AUSL 1571  12.393   1.001   8.230
    4AU    AUSL 1572  12.128   0.565   8.177
    4AU     AUL 1573  12.448   0.604   8.326
    4AU       S 1574  12.461   0.198   8.116
    4AU     LIG 1575  12.355   0.082   8.494
    4AU     LIG 1576  12.524  44.784   8.780
    4AU     LIG 1577  12.752  44.437   8.976
    4AU     LIG 1578  13.013  44.254   9.320
    4AU     LIG 1579  13.248  44.175   9.717
    4AU       S 1580  12.634   1.018   8.392
    4AU     LIG 1581  12.533   1.072   8.845
    4AU     LIG 1582  12.651   0.907   9.274
    4AU     LIG 1583  12.998   0.833   9.616
    4AU     LIG 1584  13.387   0.872   9.924
    4AU     LIG 1585  13.694   0.933  10.298
    4AU    AUSL 1586  11.993   0.904   8.416
    4AU    AUSL 1587  11.725   1.281   8.451
    4AU     AUL 1588  11.931   1.191   8.743
    4AU       S 1589  12.170   0.825   8.608
    4AU     LIG 1590  12.074   0.774   9.033
    4AU     LIG 1591  12.272   0.553   9.399
    4AU     LIG 1592  12.393   0.327   9.804
    4AU     LIG 1593  12.532   0.278  10.256
    4AU     LIG 1594  12.760   0.232  10.672
    4AU       S 1595  11.518   1.015   8.675
    4AU     LIG 1596  11.570   0.936   9.146
    4AU     LIG 1597  11.280   0.970   9.525
    4AU     LIG 1598  11.070   1.031   9.951
    4AU     LIG 1599  11.113   1.321  10.350
    4AU     LIG 1600  11.244   1.613  10.727
    4AU    AUSL 1601  12.036   1.280   8.159
    4AU    AUSL 1602  12.474   1.412   8.106
    4AU     AUL 1603  12.280   1.305   8.441
    4AU       S 1604  11.950   1.653   8.608
    4AU     LIG 1605  12.285   1.528   8.915
    4AU     LIG 1606  12.514   1.607   9.338
    4AU     LIG 1607  12.587   1.675   9.829
    4AU     LIG 1608  12.631   1.764  10.310
    4AU     LIG 1609  12.700   1.767  10.788
    4AU       S 1610  12.625   1.571   8.266
    4AU     LIG 1611  13.007   1.471   8.400
    4AU     LIG 1612  13.294   1.695   8.692
    4AU     LIG 1613  13.532   1.939   9.020
    4AU     LIG 1614  13.803   2.038   9.395
    4AU     LIG 1615  14.224   2.007   9.625
    4AU    AUSL 1616  12.274   1.142   6.890
    4AU    AUSL 1617  12.198   1.576   6.858
    4AU     AUL 1618  12.376   1.475   6.620
    4AU       S 1619  12.212   1.225   6.285
    4AU     LIG 1620  12.642   1.186   6.066
    4AU     LIG 1621  12.802   0.936   5.712
    4AU     LIG 1622  12.944   0.712   5.322
    4AU     LIG 1623  13.301   0.591   5.024
    4AU     LIG 1624  13.728   0.653   4.814
    4AU       S 1625  12.602   1.806   6.879
    4AU     LIG 1626  12.653   2.063   6.508
    4AU     LIG 1627  12.911   2.195   6.120
    4AU     LIG 1628  13.033   2.267   5.665
    4AU     LIG 1629  13.068   2.555   5.288
    4AU     LIG 1630  13.223   2.880   4.970
    4AU    AUSL 1631  12.103   0.879   6.580
    4AU    AUSL 1632  12.557   0.821   6.908
    4AU     AUL 1633  12.478   1.009   6.645
    4AU       S 1634  12.649   0.563   6.665
    4AU     LIG 1635  12.737   0.217   6.318
    4AU     LIG 1636  12.976  44.817   6.232
    4AU     LIG 1637  13.238  44.550   5.936
    4AU     LIG 1638  13.640  44.473   5.695
    4AU     LIG 1639  14.090  44.573   5.569
    4AU       S 1640  12.225   1.013   6.251
    4AU     LIG 1641  12.449   0.682   6.037
    4AU     LIG 1642  12.492   0.553   5.574
    4AU     LIG 1643  12.509   0.516   5.102
    4AU     LIG 1644  12.548   0.421   4.636
    4AU     LIG 1645  12.807   0.472   4.245
    4AU    AUSL 1646  11.918   1.287   6.682
    4AU    AUSL 1647  11.706   0.883   6.760
    4AU     AUL 1648  11.822   0.922   6.442
    4AU       S 1649  11.385   0.904   6.299
    4AU     LIG 1650  11.500   0.714   5.919
    4AU     LIG 1651  11.258   0.453   5.615
    4AU     LIG 1652  11.061   0.472   5.200
    4AU     LIG 1653  10.906   0.301   4.803
    4AU     LIG 1654  10.883   0.253   4.338
    4AU       S 1655  11.969   1.361   6.390
    4AU     LIG 1656  11.859   1.152   5.945
    4AU     LIG 1657  12.267   1.026   5.681
    4AU     LIG 1658  12.516   1.030   5.258
    4AU     LIG 1659  12.537   1.271   4.820
    4AU     LIG 1660  12.573   1.409   4.353
    4AU    AUSL 1661  11.316   1.232   8.289
    4AU    AUSL 1662  11.599   1.584   8.164
    4AU     AUL 1663  11.483   1.514   8.493
    4AU       S 1664  11.344   1.138   8.745
    4AU     LIG 1665  11.064   0.905   9.022
    4AU     LIG 1666  10.812   0.779   9.405
    4AU     LIG 1667  10.607   0.730   9.832
    4AU     LIG 1668  10.213   0.713  10.113
    4AU     LIG 1669   9.898   0.613  10.447
    4AU       S 1670  11.210   1.811   8.254
    4AU     LIG 1671  11.221   1.965   8.672
    4AU     LIG 1672  11.085   2.184   9.058
    4AU     LIG 1673  10.787   2.475   9.252
    4AU     LIG 1674  10.596   2.643   9.645
    4AU     LIG 1675  10.433   2.857  10.041
    4AU    AUSL 1676  11.625   0.933   8.187
    4AU    AUSL 1677  11.174   0.844   8.126
    4AU     AUL 1678  11.165   0.983   8.351
    4AU       S 1679  11.023   0.533   8.303
    4AU     LIG 1680  10.596   0.525   8.204
    4AU     LIG 1681  10.340   0.168   8.337
    4AU     LIG 1682  10.109  44.893   8.640
    4AU     LIG 1683   9.859  44.606   8.916
    4AU     LIG 1684   9.650  44.371   9.270
    4AU       S 1685  11.553   0.854   8.586
    4AU     LIG 1686  11.399   0.541   8.867
    4AU     LIG 1687  11.254   0.503   9.311
    4AU     LIG 1688  11.093   0.530   9.763
    4AU     LIG 1689  10.856   0.395  10.158
    4AU     LIG 1690  10.786   0.237  10.608
    4AU    AUSL 1691  11.269   0.943   6.787
    4AU    AUSL 1692  11.474   0.572   6.948
    4AU     AUL 1693  11.512   0.603   6.633
    4AU       S 1694  11.203   0.830   6.366
    4AU     LIG 1695  10.985   0.719   5.978
    4AU     LIG 1696  10.781   0.720   5.557
    4AU     LIG 1697  10.576   0.716   5.128
    4AU     LIG 1698  10.167   0.841   4.884
    4AU     LIG 1699   9.852   1.110   4.643
    4AU       S 1700  11.110   0.436   6.793
    4AU     LIG 1701  10.826   0.107   6.611
    4AU     LIG 1702  10.541  44.774   6.424
    4AU     LIG 1703  10.259  44.528   6.126
    4AU     LIG 1704   9.975  44.290   5.824
    4AU     LIG 1705   9.931  44.037   5.420
    4AU    AUSL 1706  11.498   1.259   6.587
    4AU    AUSL 1707  11.131   1.349   6.916
    4AU     AUL 1708  11.070   1.156   6.654
    4AU       S 1709  11.159   1.601   6.671
    4AU     LIG 1710  10.783   1.679   6.500
    4AU     LIG 1711  10.621   1.944   6.155
    4AU     LIG 1712  10.435   2.192   5.798
    4AU     LIG 1713  10.116   2.260   5.444
    4AU     LIG 1714   9.802   2.437   5.124
    4AU       S 1715  11.428   1.188   6.337
    4AU     LIG 1716  11.250   1.168   5.897
    4AU     LIG 1717  11.237   0.947   5.479
    4AU     LIG 1718  11.136   0.964   5.012
    4AU     LIG 1719  11.195   1.232   4.607
    4AU     LIG 1720  11.207   1.449   4.174
    4AU    AUSL 1721  12.627   1.593   7.510
    4AU    AUSL 1722  12.565   1.392   7.088
    4AU     AUL 1723  12.893   1.697   7.288
    4AU       S 1724  12.674   1.489   6.959
    4AU     LIG 1725  12.883   1.577   6.534
    4AU     LIG 1726  13.208   1.810   6.280
    4AU     LIG 1727  13.442   2.025   5.919
    4AU     LIG 1728  13.813   2.019   5.592
    4AU     LIG 1729  14.255   2.078   5.398
    4AU       S 1730  12.995   1.476   7.698
    4AU     LIG 1731  13.401   1.645   7.597
    4AU     LIG 1732  13.861   1.730   7.530
    4AU     LIG 1733  14.309   1.855   7.456
    4AU     LIG 1734  14.672   2.168   7.508
    4AU     LIG 1735  14.899   2.602   7.571
    4AU    AUSL 1736  12.811   1.183   7.380
    4AU    AUSL 1737  12.757   0.859   7.702
    4AU     AUL 1738  13.112   0.973   7.726
    4AU       S 1739  12.948   1.254   7.416
    4AU     LIG 1740  13.435   1.176   7.399
    4AU     LIG 1741  13.928   1.269   7.308
    4AU     LIG 1742  14.424   1.384   7.241
    4AU     LIG 1743  14.872   1.550   7.101
    4AU     LIG 1744  15.325   1.731   7.232
    4AU       S 1745  13.004   0.554   7.554
    4AU     LIG 1746  13.381   0.528   7.787
    4AU     LIG 1747  13.747   0.239   7.738
    4AU     LIG 1748  14.191   0.045   7.678
    4AU     LIG 1749  14.607  44.982   7.920
    4AU     LIG 1750  14.979  44.909   8.214
    4AU    AUSL 1751  12.526   1.223   7.727
    4AU    AUSL 1752  12.275   1.622   7.771
    4AU     AUL 1753  12.594   1.686   7.810
    4AU       S 1754  12.592   1.867   8.232
    4AU     LIG 1755  12.998   1.996   8.389
    4AU     LIG 1756  13.279   2.236   8.677
    4AU     LIG 1757  13.506   2.623   8.829
    4AU     LIG 1758  13.663   3.074   8.719
    4AU     LIG 1759  13.912   3.484   8.702
    4AU       S 1760  12.849   1.311   7.854
    4AU     LIG 1761  13.331   1.316   8.012
    4AU     LIG 1762  13.755   1.302   7.808
    4AU     LIG 1763  14.219   1.388   7.721
    4AU     LIG 1764  14.654   1.558   7.690
    4AU     LIG 1765  15.023   1.828   7.698
    4AU    AUSL 1766  11.151   1.668   7.536
    4AU    AUSL 1767  11.259   1.435   7.914
    4AU     AUL 1768  10.934   1.768   7.784
    4AU       S 1769  11.095   1.614   8.182
    4AU     LIG 1770  10.978   1.507   8.606
    4AU     LIG 1771  10.777   1.792   8.928
    4AU     LIG 1772  10.509   2.035   9.243
    4AU     LIG 1773  10.156   2.117   9.564
    4AU     LIG 1774   9.736   2.270   9.723
    4AU       S 1775  11.161   2.047   7.463
    4AU     LIG 1776  10.681   2.063   7.426
    4AU     LIG 1777  10.250   2.334   7.445
    4AU     LIG 1778   9.838   2.639   7.429
    4AU     LIG 1779   9.462   2.974   7.407
    4AU     LIG 1780   9.038   3.098   7.599
    4AU    AUSL 1781  11.116   1.278   7.336
    4AU    AUSL 1782  11.251   1.732   7.123
    4AU     AUL 1783  10.949   1.596   7.173
    4AU       S 1784  10.722   1.149   7.004
    4AU     LIG 1785  10.357   1.439   6.908
    4AU     LIG 1786   9.864   1.476   6.833
    4AU     LIG 1787   9.358   1.530   6.775
    4AU     LIG 1788   8.931   1.808   6.730
    4AU     LIG 1789   8.596   2.185   6.708
    4AU       S 1790  11.066   1.992   6.910
    4AU     LIG 1791  11.021   2.137   6.460
    4AU     LIG 1792  10.789   2.435   6.157
    4AU     LIG 1793  10.652   2.840   5.947
    4AU     LIG 1794  10.510   3.312   5.952
    4AU     LIG 1795  10.199   3.677   5.920
    4AU    AUSL 1796  10.887   1.316   7.738
    4AU    AUSL 1797  10.843   0.955   7.406
    4AU     AUL 1798  10.733   1.293   7.459
    4AU       S 1799  10.572   0.865   7.615
    4AU     LIG 1800  10.204   0.664   7.366
    4AU     LIG 1801   9.768   0.465   7.275
    4AU     LIG 1802   9.296   0.555   7.244
    4AU     LIG 1803   8.850   0.428   7.202
    4AU     LIG 1804   8.409   0.335   7.172
    4AU       S 1805  10.812   1.254   7.997
    4AU     LIG 1806  10.425   1.442   7.861
    4AU     LIG 1807   9.991   1.551   7.939
    4AU     LIG 1808   9.632   1.818   8.070
    4AU     LIG 1809   9.177   1.918   8.177
    4AU     LIG 1810   8.741   1.930   8.049
    4AU    AUSL 1811  12.535   0.507   7.537
    4AU    AUSL 1812  12.366   0.776   7.869
    4AU     AUL 1813  12.701   0.670   7.917
    4AU       S 1814  12.812   0.378   7.535
    4AU     LIG 1815  13.205   0.081   7.589
    4AU     LIG 1816  13.595  44.788   7.535
    4AU     LIG 1817  14.035  44.578   7.519
    4AU     LIG 1818  14.441  44.319   7.588
    4AU     LIG 1819  14.819  44.069   7.614
    4AU       S 1820  12.597   0.233   7.974
    4AU     LIG 1821  12.831  44.931   8.285
    4AU     LIG 1822  13.028  44.732   8.646
    4AU     LIG 1823  13.275  44.506   8.956
    4AU     LIG 1824  13.507  44.459   9.354
    4AU     LIG 1825  13.915  44.566   9.557
    4AU    AUSL 1826  12.502   0.893   7.326
    4AU    AUSL 1827  12.441   0.444   7.117
    4AU     AUL 1828  12.695   0.629   7.152
    4AU       S 1829  13.074   0.691   7.365
    4AU     LIG 1830  13.472   0.414   7.296
    4AU     LIG 1831  13.868   0.120   7.251
    4AU     LIG 1832  14.274  44.877   7.167
    4AU     LIG 1833  14.697  44.839   6.944
    4AU     LIG 1834  15.130   0.018   6.775
    4AU       S 1835  12.627   0.319   6.796
    4AU     LIG 1836  12.659  44.867   6.710
    4AU     LIG 1837  12.768  44.447   6.524
    4AU     LIG 1838  13.048  44.184   6.259
    4AU     LIG 1839  13.340  43.838   6.139
    4AU     LIG 1840  13.771  43.697   6.205
    4AU    AUSL 1841  11.029   0.583   7.580
    4AU    AUSL 1842  11.183   0.809   7.184
    4AU     AUL 1843  10.827   0.671   7.271
    4AU       S 1844  10.994   0.580   6.858
    4AU     LIG 1845  10.575   0.558   6.747
    4AU     LIG 1846  10.302   0.208   6.614
    4AU     LIG 1847  10.023  44.862   6.452
    4AU     LIG 1848   9.735  44.614   6.162
    4AU     LIG 1849   9.457  44.516   5.784
    4AU       S 1850  10.597   0.590   7.680
    4AU     LIG 1851  10.398   0.217   7.554
    4AU     LIG 1852   9.972   0.056   7.522
    4AU     LIG 1853   9.501   0.092   7.567
    4AU     LIG 1854   9.140  44.769   7.623
    4AU     LIG 1855   9.007  44.357   7.408
    4AU    AUSL 1856  11.156   0.989   7.722
    4AU    AUSL 1857  11.376   0.598   7.831
    4AU     AUL 1858  10.966   0.756   7.897
    4AU       S 1859  11.063   0.349   8.079
    4AU     LIG 1860  10.712   0.092   7.956
    4AU     LIG 1861  10.411  44.746   8.054
    4AU     LIG 1862  10.173  44.467   8.356
    4AU     LIG 1863   9.947  44.169   8.649
    4AU     LIG 1864   9.632  43.823   8.740
    4AU       S 1865  10.557   0.912   7.776
    4AU     LIG 1866  10.112   1.064   7.699
    4AU     LIG 1867   9.730   0.878   7.551
    4AU     LIG 1868   9.394   0.624   7.731
    4AU     LIG 1869   9.042   0.307   7.661
    4AU     LIG 1870   8.581   0.411   7.660
    4AU    AUSL 1871  11.859   1.788   7.886
    4AU    AUSL 1872  11.415   1.836   7.841
    4AU     AUL 1873  11.677   1.908   8.179
    4AU       S 1874  11.281   2.041   7.964
    4AU     LIG 1875  11.013   2.271   8.298
    4AU     LIG 1876  10.839   2.470   8.704
    4AU     LIG 1877  10.666   2.871   8.923
    4AU     LIG 1878  10.446   3.312   8.945
    4AU     LIG 1879  10.084   3.658   8.904
    4AU       S 1880  11.878   2.258   7.944
    4AU     LIG 1881  12.015   2.313   8.332
    4AU     LIG 1882  12.064   2.750   8.485
    4AU     LIG 1883  12.107   3.198   8.643
    4AU     LIG 1884  12.003   3.464   9.023
    4AU     LIG 1885  12.077   3.627   9.467
    4AU    AUSL 1886  11.672   2.052   7.575
    4AU    AUSL 1887  11.999   1.993   7.181
    4AU     AUL 1888  11.735   2.251   7.320
    4AU       S 1889  11.716   2.264   7.796
    4AU     LIG 1890  11.769   2.725   8.030
    4AU     LIG 1891  11.850   3.163   8.199
    4AU     LIG 1892  11.849   3.601   8.375
    4AU     LIG 1893  11.530   3.966   8.317
    4AU     LIG 1894  11.290   4.395   8.312
    4AU       S 1895  11.962   2.296   6.916
    4AU     LIG 1896  12.313   2.570   6.847
    4AU     LIG 1897  12.445   3.021   6.780
    4AU     LIG 1898  12.486   3.495   6.725
    4AU     LIG 1899  12.789   3.893   6.778
    4AU     LIG 1900  12.743   4.378   6.795
    4AU    AUSL 1901  12.129   1.985   7.597
    4AU    AUSL 1902  12.136   1.695   8.196
    4AU     AUL 1903  12.215   1.948   7.960
    4AU       S 1904  12.374   1.790   8.397
    4AU     LIG 1905  12.712   1.747   8.738
    4AU     LIG 1906  13.002   1.968   9.025
    4AU     LIG 1907  13.247   2.334   9.204
    4AU     LIG 1908  13.258   2.672   9.542
    4AU     LIG 1909  13.251   3.055   9.833
    4AU       S 1910  12.074   2.302   7.676
    4AU     LIG 1911  12.270   2.608   7.993
    4AU     LIG 1912  12.354   3.048   8.182
    4AU     LIG 1913  12.390   3.520   8.296
    4AU     LIG 1914  12.671   3.945   8.258
    4AU     LIG 1915  12.944   4.367   8.178
    4AU    AUSL 1916  11.783   0.433   7.943
    4AU    AUSL 1917  12.200   0.381   7.779
    4AU     AUL 1918  12.002   0.269   8.156
    4AU       S 1919  11.790  44.885   8.012
    4AU     LIG 1920  11.754  44.579   8.319
    4AU     LIG 1921  11.507  44.207   8.423
    4AU     LIG 1922  11.430  43.751   8.414
    4AU     LIG 1923  11.541  43.331   8.589
    4AU     LIG 1924  11.519  43.029   8.957
    4AU       S 1925  12.349   0.162   7.831
    4AU     LIG 1926  12.343  44.726   8.098
    4AU     LIG 1927  12.651  44.458   8.400
    4AU     LIG 1928  13.021  44.191   8.607
    4AU     LIG 1929  13.257  43.760   8.717
    4AU     LIG 1930  13.439  43.285   8.746
    4AU    AUSL 1931  11.452   0.208   7.688
    4AU    AUSL 1932  11.505   0.532   8.257
    4AU     AUL 1933  11.504   0.254   8.041
    4AU       S 1934  11.566  44.828   7.857
    4AU     LIG 1935  11.340  44.489   8.014
    4AU     LIG 1936  11.220  44.051   8.013
    4AU     LIG 1937  11.322  43.613   7.930
    4AU     LIG 1938  11.307  43.204   8.138
    4AU     LIG 1939  11.276  42.897   8.500
    4AU       S 1940  11.238   0.437   8.394
    4AU     LIG 1941  10.863   0.098   8.469
    4AU     LIG 1942  10.592  44.736   8.544
    4AU     LIG 1943  10.354  44.463   8.841
    4AU     LIG 1944  10.120  44.198   9.145
    4AU     LIG 1945   9.977  43.981   9.537
    4AU    AUSL 1946  11.885   0.136   7.625
    4AU    AUSL 1947  11.646   0.390   7.336
    4AU     AUL 1948  11.547   0.042   7.443
    4AU       S 1949  11.898  44.949   7.174
    4AU     LIG 1950  11.524  44.658   7.134
    4AU     LIG 1951  11.464  44.205   7.130
    4AU     LIG 1952  11.384  43.764   6.969
    4AU     LIG 1953  11.202  43.363   6.745
    4AU     LIG 1954  11.005  42.915   6.710
    4AU       S 1955  11.898  44.922   7.768
    4AU     LIG 1956  11.845  44.409   7.832
    4AU     LIG 1957  11.732  43.958   8.023
    4AU     LIG 1958  11.788  43.472   8.145
    4AU     LIG 1959  12.085  43.093   8.273
    4AU     LIG 1960  12.238  42.618   8.302
    4AU    AUSL 1961  11.807   1.770   6.844
    4AU    AUSL 1962  12.283   1.683   7.269
    4AU     AUL 1963  12.147   1.883   6.869
    4AU       S 1964  11.766   2.039   6.640
    4AU     LIG 1965  12.081   2.342   6.437
    4AU     LIG 1966  12.174   2.807   6.394
    4AU     LIG 1967  12.090   3.263   6.303
    4AU     LIG 1968  12.002   3.647   6.046
    4AU     LIG 1969  11.933   3.980   5.720
    4AU       S 1970  12.499   1.890   7.157
    4AU     LIG 1971  12.886   2.177   6.990
    4AU     LIG 1972  13.143   2.238   6.589
    4AU     LIG 1973  13.356   2.553   6.296
    4AU     LIG 1974  13.549   3.016   6.263
    4AU     LIG 1975  13.831   3.351   6.073
    4AU    AUSL 1976  11.649   1.750   7.282
    4AU    AUSL 1977  11.553   1.454   6.961
    4AU     AUL 1978  11.509   1.913   7.029
    4AU       S 1979  11.742   2.254   6.845
    4AU     LIG 1980  11.814   2.742   6.756
    4AU     LIG 1981  11.961   3.196   6.791
    4AU     LIG 1982  11.908   3.636   6.626
    4AU     LIG 1983  11.487   3.878   6.599
    4AU     LIG 1984  11.178   4.195   6.403
    4AU       S 1985  11.350   1.708   6.649
    4AU     LIG 1986  11.280   1.762   6.204
    4AU     LIG 1987  11.067   2.066   5.919
    4AU     LIG 1988  10.878   2.400   5.644
    4AU     LIG 1989  10.648   2.609   5.296
    4AU     LIG 1990  10.576   2.993   5.023
    4AU    AUSL 1991  11.845   0.350   6.932
    4AU    AUSL 1992  11.227   0.365   7.257
    4AU     AUL 1993  11.500   0.216   7.000
    4AU       S 1994  11.037   0.316   7.046
    4AU     LIG 1995  10.602   0.158   7.072
    4AU     LIG 1996  10.343  44.790   6.909
    4AU     LIG 1997  10.210  44.421   6.636
    4AU     LIG 1998   9.947  44.163   6.343
    4AU     LIG 1999   9.717  43.752   6.309
    4AU       S 2000  11.899  44.950   6.958
    4AU     LIG 2001  11.818  44.561   6.718
    4AU     LIG 2002  11.602  44.148   6.637
    4AU     LIG 2003  11.551  43.703   6.489
    4AU     LIG 2004  11.407  43.424   6.135
    4AU     LIG 2005  11.453  43.332   5.659
    4AU    AUSL 2006  12.079   0.368   7.320
    4AU    AUSL 2007  12.109   0.690   6.962
    4AU     AUL 2008  12.180   0.315   6.930
    4AU       S 2009  12.131  44.980   7.255
    4AU     LIG 2010  11.999  44.458   7.191
    4AU     LIG 2011  11.920  43.971   7.011
    4AU     LIG 2012  12.045  43.467   6.922
    4AU     LIG 2013  12.247  42.989   6.876
    4AU     LIG 2014  12.536  42.635   6.661
    4AU       S 2015  12.394   0.513   6.579
    4AU     LIG 2016  12.256   0.093   6.482
    4AU     LIG 2017  12.455  44.749   6.239
    4AU     LIG 2018  12.715  44.450   5.972
    4AU     LIG 2019  12.971  44.205   5.640
    4AU     LIG 2020  13.027  44.090   5.170
    5AU     AUC 2021  32.320   3.231   7.501
    5AU     AUC 2022  32.618   3.226   7.340
    5AU     AUC 2023  32.575   3.220   7.677
    5AU     AUC 2024  32.043   3.225   7.334
    5AU     AUC 2025  32.063   3.275   7.677
    5AU     AUC 2026  32.156   3.509   7.494
    5AU     AUC 2027  32.504   3.495   7.492
    5AU     AUC 2028  32.121   2.963   7.502
    5AU     AUC 2029  32.481   2.958   7.513
    5AU     AUC 2030  32.315   3.064   7.771
    5AU     AUC 2031  32.312   3.426   7.754
    5AU     AUC 2032  32.323   3.064   7.236
    5AU     AUC 2033  32.357   3.378   7.232
    5AU     AUC 2034  32.957   3.219   7.197
    5AU     AUC 2035  32.939   3.207   7.531
    5AU     AUC 2036  32.867   3.195   7.884
    5AU     AUC 2037  31.735   3.233   7.165
    5AU     AUC 2038  31.712   3.277   7.523
    5AU     AUC 2039  31.767   3.320   7.862
    5AU     AUC 2040  32.002   3.832   7.457
    5AU     AUC 2041  32.357   3.850   7.440
    5AU     AUC 2042  32.680   3.786   7.479
    5AU     AUC 2043  31.915   2.685   7.501
    5AU     AUC 2044  32.249   2.622   7.467
    5AU     AUC 2045  32.641   2.633   7.497
    5AU     AUC 2046  32.288   2.890   8.067
    5AU     AUC 2047  32.310   3.243   8.100
    5AU     AUC 2048  32.342   3.604   8.045
    5AU     AUC 2049  32.359   2.891   6.953
    5AU     AUC 2050  32.354   3.202   6.895
    5AU     AUC 2051  32.360   3.522   6.924
    5AU     AUC 2052  32.584   2.994   8.000
    5AU     AUC 2053  32.612   3.381   8.000
    5AU     AUC 2054  32.677   3.043   7.033
    5AU     AUC 2055  32.683   3.393   7.044
    5AU     AUC 2056  32.008   3.118   8.008
    5AU     AUC 2057  32.045   3.494   7.980
    5AU     AUC 2058  32.028   3.048   7.039
    5AU     AUC 2059  32.014   3.352   6.993
    5AU     AUC 2060  32.868   3.507   7.342
    5AU     AUC 2061  32.788   3.491   7.704
    5AU     AUC 2062  31.834   3.537   7.328
    5AU     AUC 2063  31.864   3.613   7.676
    5AU     AUC 2064  32.823   2.907   7.363
    5AU     AUC 2065  32.772   2.885   7.690
    5AU     AUC 2066  31.782   2.944   7.355
    5AU     AUC 2067  31.843   2.991   7.706
    5AU     AUC 2068  32.186   3.781   7.744
    5AU     AUC 2069  32.509   3.720   7.769
    5AU     AUC 2070  32.096   2.782   7.787
    5AU     AUC 2071  32.436   2.717   7.773
    5AU     AUC 2072  32.159   3.656   7.180
    5AU     AUC 2073  32.544   3.676   7.168
    5AU     AUC 2074  32.108   2.752   7.214
    5AU     AUC 2075  32.498   2.773   7.222
    5AU    AUSL 2076  32.852   3.123   8.253
    5AU    AUSL 2077  32.591   2.697   8.174
    5AU     AUL 2078  32.899   2.720   8.339
    5AU       S 2079  32.908   2.318   8.115
    5AU     LIG 2080  32.786   2.164   8.479
    5AU     LIG 2081  32.995   1.888   8.774
    5AU     LIG 2082  33.229   1.558   9.008
    5AU     LIG 2083  33.477   1.365   9.365
    5AU     LIG 2084  33.446   1.219   9.823
    5AU       S 2085  33.091   3.131   8.405
    5AU     LIG 2086  33.007   3.203   8.846
    5AU     LIG 2087  33.059   3.118   9.296
    5AU     LIG 2088  33.290   2.867   9.628
    5AU     LIG 2089  33.630   2.788   9.960
    5AU     LIG 2090  34.005   2.788  10.259
    5AU    AUSL 2091  32.436   3.030   8.411
    5AU    AUSL 2092  32.185   3.436   8.435
    5AU     AUL 2093  32.361   3.302   8.727
    5AU       S 2094  32.634   2.946   8.631
    5AU     LIG 2095  32.601   2.927   9.068
    5AU     LIG 2096  32.793   2.696   9.426
    5AU     LIG 2097  32.937   2.544   9.841
    5AU     LIG 2098  33.020   2.347  10.258
    5AU     LIG 2099  33.121   2.436  10.704
    5AU       S 2100  31.925   3.184   8.653
    5AU     LIG 2101  31.825   3.116   9.139
    5AU     LIG 2102  31.630   3.035   9.558
    5AU     LIG 2103  31.445   3.038   9.990
    5AU     LIG 2104  31.418   3.330  10.381
    5AU     LIG 2105  31.400   3.649  10.748
    5AU    AUSL 2106  32.507   3.405   8.160
    5AU    AUSL 2107  32.948   3.533   8.131
    5AU     AUL 2108  32.736   3.422   8.457
    5AU       S 2109  32.430   3.772   8.631
    5AU     LIG 2110  32.760   3.641   8.921
    5AU     LIG 2111  32.992   3.643   9.338
    5AU     LIG 2112  32.988   3.786   9.808
    5AU     LIG 2113  32.911   3.842  10.287
    5AU     LIG 2114  32.866   3.785  10.766
    5AU       S 2115  33.094   3.678   8.298
    5AU     LIG 2116  33.519   3.643   8.352
    5AU     LIG 2117  33.819   3.837   8.647
    5AU     LIG 2118  34.050   4.083   8.983
    5AU     LIG 2119  34.262   4.346   9.312
    5AU     LIG 2120  34.615   4.333   9.637
    5AU    AUSL 2121  32.875   3.258   6.907
    5AU    AUSL 2122  32.770   3.692   6.830
    5AU     AUL 2123  33.065   3.504   6.647
    5AU       S 2124  32.721   3.437   6.365
    5AU     LIG 2125  33.077   3.440   6.008
    5AU     LIG 2126  33.260   3.126   5.719
    5AU     LIG 2127  33.402   2.862   5.365
    5AU     LIG 2128  33.730   2.782   5.044
    5AU     LIG 2129  34.127   2.823   4.792
    5AU       S 2130  33.089   3.947   6.835
    5AU     LIG 2131  33.216   4.143   6.473
    5AU     LIG 2132  33.430   4.332   6.115
    5AU     LIG 2133  33.645   4.529   5.764
    5AU     LIG 2134  33.703   4.620   5.322
    5AU     LIG 2135  33.811   4.983   5.052
    5AU    AUSL 2136  32.672   3.012   6.598
    5AU    AUSL 2137  33.068   2.871   6.945
    5AU     AUL 2138  33.047   3.035   6.672
    5AU       S 2139  33.136   2.572   6.713
    5AU     LIG 2140  33.280   2.257   6.375
    5AU     LIG 2141  33.526   1.872   6.242
    5AU     LIG 2142  33.766   1.634   5.906
    5AU     LIG 2143  34.074   1.691   5.544
    5AU     LIG 2144  34.420   1.841   5.254
    5AU       S 2145  32.794   3.240   6.341
    5AU     LIG 2146  32.871   2.924   6.036
    5AU     LIG 2147  32.932   2.746   5.586
    5AU     LIG 2148  32.984   2.647   5.117
    5AU     LIG 2149  33.043   2.576   4.650
    5AU     LIG 2150  33.122   2.419   4.197
    5AU    AUSL 2151  32.474   3.376   6.768
    5AU    AUSL 2152  32.246   2.989   6.703
    5AU     AUL 2153  32.404   3.030   6.446
    5AU       S 2154  31.968   3.042   6.268
    5AU     LIG 2155  31.778   2.886   5.879
    5AU     LIG 2156  31.489   2.723   5.544
    5AU     LIG 2157  31.376   2.607   5.110
    5AU     LIG 2158  31.436   2.497   4.660
    5AU     LIG 2159  31.512   2.570   4.199
    5AU       S 2160  32.562   3.486   6.457
    5AU     LIG 2161  32.457   3.289   5.982
    5AU     LIG 2162  32.753   3.234   5.633
    5AU     LIG 2163  32.986   3.156   5.238
    5AU     LIG 2164  33.052   3.235   4.772
    5AU     LIG 2165  33.108   3.553   4.404
    5AU    AUSL 2166  31.787   3.406   8.244
    5AU    AUSL 2167  32.103   3.732   8.123
    5AU     AUL 2168  31.964   3.686   8.450
    5AU       S 2169  31.770   3.334   8.694
    5AU     LIG 2170  31.430   3.064   8.772
    5AU     LIG 2171  31.340   2.836   9.167
    5AU     LIG 2172  31.183   2.759   9.616
    5AU     LIG 2173  30.893   2.715   9.995
    5AU     LIG 2174  30.571   2.881  10.303
    5AU       S 2175  31.694   3.977   8.202
    5AU     LIG 2176  31.516   4.121   8.580
    5AU     LIG 2177  31.369   4.331   8.985
    5AU     LIG 2178  31.188   4.568   9.361
    5AU     LIG 2179  31.258   4.845   9.758
    5AU     LIG 2180  31.181   5.129  10.139
    5AU    AUSL 2181  32.084   3.092   8.168
    5AU    AUSL 2182  31.648   2.998   8.129
    5AU     AUL 2183  31.594   3.206   8.290
    5AU       S 2184  31.515   2.735   8.332
    5AU     LIG 2185  31.069   2.672   8.167
    5AU     LIG 2186  30.802   2.310   8.293
    5AU     LIG 2187  30.578   2.039   8.627
    5AU     LIG 2188  30.356   1.706   8.885
    5AU     LIG 2189  30.195   1.519   9.290
    5AU       S 2190  31.959   3.031   8.546
    5AU     LIG 2191  31.799   2.707   8.852
    5AU     LIG 2192  31.772   2.600   9.313
    5AU     LIG 2193  31.635   2.559   9.769
    5AU     LIG 2194  31.634   2.428  10.217
    5AU     LIG 2195  31.568   2.240  10.646
    5AU    AUSL 2196  31.835   3.128   6.759
    5AU    AUSL 2197  32.014   2.767   6.990
    5AU     AUL 2198  32.006   2.761   6.635
    5AU       S 2199  31.728   3.033   6.380
    5AU     LIG 2200  31.358   3.082   6.126
    5AU     LIG 2201  31.150   3.079   5.720
    5AU     LIG 2202  31.015   2.928   5.306
    5AU     LIG 2203  30.862   3.037   4.879
    5AU     LIG 2204  30.568   3.039   4.504
    5AU       S 2205  31.597   2.616   6.799
    5AU     LIG 2206  31.521   2.145   6.771
    5AU     LIG 2207  31.221   1.862   6.578
    5AU     LIG 2208  30.982   1.742   6.196
    5AU     LIG 2209  30.750   1.567   5.824
    5AU     LIG 2210  30.748   1.312   5.422
    5AU    AUSL 2211  32.110   3.414   6.546
    5AU    AUSL 2212  31.610   3.474   6.908
    5AU     AUL 2213  31.747   3.442   6.584
    5AU       S 2214  31.370   3.689   6.695
    5AU     LIG 2215  31.094   3.996   6.463
    5AU     LIG 2216  30.994   4.025   6.030
    5AU     LIG 2217  30.725   4.077   5.665
    5AU     LIG 2218  30.449   4.118   5.283
    5AU     LIG 2219  30.122   4.318   5.023
    5AU       S 2220  32.042   3.287   6.262
    5AU     LIG 2221  31.718   3.399   5.949
    5AU     LIG 2222  31.603   3.224   5.517
    5AU     LIG 2223  31.431   3.130   5.076
    5AU     LIG 2224  31.253   3.355   4.684
    5AU     LIG 2225  31.242   3.642   4.287
    5AU    AUSL 2226  33.106   3.740   7.537
    5AU    AUSL 2227  33.115   3.554   7.115
    5AU     AUL 2228  33.385   3.858   7.373
    5AU       S 2229  33.203   3.792   6.974
    5AU     LIG 2230  33.528   3.770   6.653
    5AU     LIG 2231  33.653   3.885   6.223
    5AU     LIG 2232  33.938   4.150   5.963
    5AU     LIG 2233  34.339   4.274   5.719
    5AU     LIG 2234  34.786   4.246   5.519
    5AU       S 2235  33.510   3.611   7.758
    5AU     LIG 2236  33.970   3.684   7.587
    5AU     LIG 2237  34.452   3.801   7.540
    5AU     LIG 2238  34.913   3.937   7.532
    5AU     LIG 2239  35.130   4.358   7.590
    5AU     LIG 2240  35.375   4.681   7.840
    5AU    AUSL 2241  33.316   3.331   7.427
    5AU    AUSL 2242  33.248   3.000   7.742
    5AU     AUL 2243  33.611   3.100   7.754
    5AU       S 2244  33.443   3.414   7.482
    5AU     LIG 2245  33.856   3.262   7.324
    5AU     LIG 2246  34.312   3.373   7.300
    5AU     LIG 2247  34.817   3.474   7.313
    5AU     LIG 2248  35.225   3.691   7.126
    5AU     LIG 2249  35.683   3.635   6.924
    5AU       S 2250  33.504   2.710   7.542
    5AU     LIG 2251  33.912   2.541   7.636
    5AU     LIG 2252  34.197   2.221   7.797
    5AU     LIG 2253  34.662   2.170   7.839
    5AU     LIG 2254  35.091   2.210   8.039
    5AU     LIG 2255  35.569   2.231   8.107
    5AU    AUSL 2256  33.011   3.360   7.748
    5AU    AUSL 2257  32.756   3.750   7.795
    5AU     AUL 2258  33.090   3.803   7.844
    5AU       S 2259  33.070   3.977   8.270
    5AU     LIG 2260  33.456   4.152   8.428
    5AU     LIG 2261  33.799   4.369   8.641
    5AU     LIG 2262  34.077   4.622   8.903
    5AU     LIG 2263  34.093   5.039   9.103
    5AU     LIG 2264  34.149   5.506   9.073
    5AU       S 2265  33.353   3.438   7.906
    5AU     LIG 2266  33.887   3.409   8.011
    5AU     LIG 2267  34.369   3.406   7.852
    5AU     LIG 2268  34.855   3.407   7.839
    5AU     LIG 2269  35.253   3.570   8.045
    5AU     LIG 2270  35.560   3.899   7.903
    5AU    AUSL 2271  31.674   3.849   7.492
    5AU    AUSL 2272  31.757   3.612   7.869
    5AU     AUL 2273  31.444   3.941   7.723
    5AU       S 2274  31.585   3.796   8.132
    5AU     LIG 2275  31.345   3.636   8.466
    5AU     LIG 2276  31.152   3.861   8.826
    5AU     LIG 2277  30.874   4.201   8.994
    5AU     LIG 2278  30.663   4.422   9.358
    5AU     LIG 2279  30.269   4.502   9.639
    5AU       S 2280  31.683   4.203   7.407
    5AU     LIG 2281  31.222   4.332   7.528
    5AU     LIG 2282  30.735   4.373   7.514
    5AU     LIG 2283  30.332   4.674   7.557
    5AU     LIG 2284  29.975   5.032   7.603
    5AU     LIG 2285  29.682   5.401   7.746
    5AU    AUSL 2286  31.627   3.442   7.331
    5AU    AUSL 2287  31.759   3.864   7.069
    5AU     AUL 2288  31.455   3.758   7.169
    5AU       S 2289  31.185   3.351   7.003
    5AU     LIG 2290  31.018   3.895   6.948
    5AU     LIG 2291  30.539   3.993   6.974
    5AU     LIG 2292  30.043   3.938   6.851
    5AU     LIG 2293  29.582   3.994   6.690
    5AU     LIG 2294  29.145   4.216   6.605
    5AU       S 2295  31.609   4.112   6.884
    5AU     LIG 2296  31.493   4.343   6.486
    5AU     LIG 2297  31.177   4.494   6.187
    5AU     LIG 2298  30.955   4.903   6.050
    5AU     LIG 2299  30.702   5.325   6.027
    5AU     LIG 2300  30.393   5.710   5.990
    5AU    AUSL 2301  31.379   3.490   7.718
    5AU    AUSL 2302  31.340   3.131   7.387
    5AU     AUL 2303  31.243   3.454   7.452
    5AU       S 2304  31.057   3.033   7.596
    5AU     LIG 2305  30.757   2.797   7.292
    5AU     LIG 2306  30.324   2.613   7.375
    5AU     LIG 2307  29.839   2.555   7.402
    5AU     LIG 2308  29.381   2.664   7.261
    5AU     LIG 2309  29.016   2.488   7.019
    5AU       S 2310  31.287   3.442   7.956
    5AU     LIG 2311  30.897   3.591   8.124
    5AU     LIG 2312  30.481   3.857   8.138
    5AU     LIG 2313  29.974   4.025   8.157
    5AU     LIG 2314  29.455   4.079   8.220
    5AU     LIG 2315  28.984   4.130   8.377
    5AU    AUSL 2316  33.039   2.642   7.570
    5AU    AUSL 2317  32.847   2.912   7.883
    5AU     AUL 2318  33.184   2.811   7.954
    5AU       S 2319  33.346   2.536   7.597
    5AU     LIG 2320  33.591   2.207   7.404
    5AU     LIG 2321  33.944   1.914   7.468
    5AU     LIG 2322  34.418   1.885   7.467
    5AU     LIG 2323  34.819   1.669   7.609
    5AU     LIG 2324  35.133   1.338   7.770
    5AU       S 2325  33.053   2.378   7.996
    5AU     LIG 2326  33.285   2.083   8.322
    5AU     LIG 2327  33.500   1.833   8.651
    5AU     LIG 2328  33.747   1.578   8.965
    5AU     LIG 2329  34.021   1.566   9.361
    5AU     LIG 2330  34.349   1.636   9.718
    5AU    AUSL 2331  33.032   3.020   7.343
    5AU    AUSL 2332  32.897   2.523   7.174
    5AU     AUL 2333  33.165   2.656   7.189
    5AU       S 2334  33.504   2.899   7.342
    5AU     LIG 2335  33.799   2.600   7.135
    5AU     LIG 2336  34.161   2.313   7.241
    5AU     LIG 2337  34.617   2.295   7.201
    5AU     LIG 2338  35.071   2.314   7.071
    5AU     LIG 2339  35.527   2.316   6.931
    5AU       S 2340  33.100   2.347   6.839
    5AU     LIG 2341  33.162   1.905   6.741
    5AU     LIG 2342  33.300   1.512   6.531
    5AU     LIG 2343  33.594   1.273   6.267
    5AU     LIG 2344  33.878   0.895   6.206
    5AU     LIG 2345  34.325   0.863   6.046
    5AU    AUSL 2346  31.497   2.755   7.563
    5AU    AUSL 2347  31.656   2.992   7.128
    5AU     AUL 2348  31.299   2.865   7.231
    5AU       S 2349  31.533   2.779   6.848
    5AU     LIG 2350  31.121   2.488   6.754
    5AU     LIG 2351  30.841   2.201   6.479
    5AU     LIG 2352  30.516   1.955   6.220
    5AU     LIG 2353  30.153   1.706   6.035
    5AU     LIG 2354  29.673   1.718   5.912
    5AU       S 2355  31.095   2.753   7.647
    5AU     LIG 2356  30.831   2.415   7.657
    5AU     LIG 2357  30.573   2.160   7.389
    5AU     LIG 2358  30.102   2.106   7.396
    5AU     LIG 2359  29.676   2.042   7.621
    5AU     LIG 2360  29.392   1.707   7.853
    5AU    AUSL 2361  31.633   3.151   7.725
    5AU    AUSL 2362  31.835   2.747   7.829
    5AU     AUL 2363  31.445   2.910   7.898
    5AU       S 2364  31.540   2.514   8.100
    5AU     LIG 2365  31.232   2.238   7.934
    5AU     LIG 2366  30.932   1.891   8.030
    5AU     LIG 2367  30.673   1.624   8.336
    5AU     LIG 2368  30.507   1.269   8.619
    5AU     LIG 2369  30.379   0.800   8.704
    5AU       S 2370  31.046   3.064   7.754
    5AU     LIG 2371  30.590   2.878   7.770
    5AU     LIG 2372  30.106   2.955   7.688
    5AU     LIG 2373  29.620   2.944   7.638
    5AU     LIG 2374  29.225   2.695   7.760
    5AU     LIG 2375  28.839   2.405   7.816
    5AU    AUSL 2376  32.371   3.982   7.889
    5AU    AUSL 2377  31.934   4.007   7.806
    5AU     AUL 2378  32.160   4.062   8.168
    5AU       S 2379  31.787   4.208   7.915
    5AU     LIG 2380  31.341   4.313   8.111
    5AU     LIG 2381  31.134   4.468   8.543
    5AU     LIG 2382  30.978   4.737   8.909
    5AU     LIG 2383  30.757   5.171   9.013
    5AU     LIG 2384  30.444   5.554   9.074
    5AU       S 2385  32.378   4.393   7.925
    5AU     LIG 2386  32.465   4.460   8.334
    5AU     LIG 2387  32.513   4.887   8.518
    5AU     LIG 2388  32.538   5.255   8.817
    5AU     LIG 2389  32.551   5.445   9.272
    5AU     LIG 2390  32.538   5.759   9.638
    5AU    AUSL 2391  32.211   4.194   7.530
    5AU    AUSL 2392  32.507   4.116   7.175
    5AU     AUL 2393  32.433   4.456   7.321
    5AU       S 2394  32.212   4.433   7.747
    5AU     LIG 2395  32.279   4.870   8.032
    5AU     LIG 2396  32.274   5.315   8.268
    5AU     LIG 2397  32.074   5.786   8.330
    5AU     LIG 2398  31.970   6.270   8.437
    5AU     LIG 2399  32.087   6.722   8.312
    5AU       S 2400  32.236   4.279   6.947
    5AU     LIG 2401  32.646   4.541   6.886
    5AU     LIG 2402  32.760   4.995   6.765
    5AU     LIG 2403  32.987   5.443   6.762
    5AU     LIG 2404  33.249   5.878   6.801
    5AU     LIG 2405  33.463   6.314   6.702
    5AU    AUSL 2406  32.666   4.112   7.586
    5AU    AUSL 2407  32.604   3.818   8.211
    5AU     AUL 2408  32.721   4.080   7.976
    5AU       S 2409  32.849   3.908   8.421
    5AU     LIG 2410  33.204   3.844   8.757
    5AU     LIG 2411  33.518   4.095   8.983
    5AU     LIG 2412  33.742   4.421   9.230
    5AU     LIG 2413  33.865   4.779   9.506
    5AU     LIG 2414  33.760   4.996   9.921
    5AU       S 2415  32.582   4.465   7.760
    5AU     LIG 2416  32.781   4.755   8.061
    5AU     LIG 2417  32.816   5.194   8.229
    5AU     LIG 2418  33.130   5.554   8.283
    5AU     LIG 2419  33.305   5.995   8.256
    5AU     LIG 2420  33.382   6.457   8.226
    5AU    AUSL 2421  32.254   2.591   7.915
    5AU    AUSL 2422  32.672   2.527   7.768
    5AU     AUL 2423  32.457   2.416   8.144
    5AU       S 2424  32.253   2.029   8.007
    5AU     LIG 2425  32.193   1.742   8.320
    5AU     LIG 2426  31.975   1.354   8.413
    5AU     LIG 2427  31.894   0.905   8.399
    5AU     LIG 2428  31.985   0.478   8.535
    5AU     LIG 2429  32.129   0.152   8.846
    5AU       S 2430  32.815   2.298   7.835
    5AU     LIG 2431  32.789   1.849   8.055
    5AU     LIG 2432  33.097   1.602   8.356
    5AU     LIG 2433  33.425   1.326   8.587
    5AU     LIG 2434  33.623   0.921   8.738
    5AU     LIG 2435  33.938   0.689   8.983
    5AU    AUSL 2436  31.933   2.377   7.653
    5AU    AUSL 2437  31.996   2.683   8.246
    5AU     AUL 2438  31.970   2.403   8.011
    5AU       S 2439  32.045   1.968   7.862
    5AU     LIG 2440  31.852   1.574   7.954
    5AU     LIG 2441  31.636   1.174   8.043
    5AU     LIG 2442  31.582   0.705   7.998
    5AU     LIG 2443  31.667   0.248   8.091
    5AU     LIG 2444  31.844  44.990   8.429
    5AU       S 2445  31.722   2.582   8.377
    5AU     LIG 2446  31.317   2.288   8.472
    5AU     LIG 2447  31.070   1.913   8.534
    5AU     LIG 2448  30.860   1.618   8.820
    5AU     LIG 2449  30.652   1.332   9.120
    5AU     LIG 2450  30.527   1.192   9.550
    5AU    AUSL 2451  32.361   2.272   7.620
    5AU    AUSL 2452  32.114   2.386   7.250
    5AU     AUL 2453  31.989   2.141   7.437
    5AU       S 2454  32.344   2.110   7.144
    5AU     LIG 2455  31.939   1.863   7.035
    5AU     LIG 2456  31.777   1.423   7.032
    5AU     LIG 2457  31.763   0.948   6.936
    5AU     LIG 2458  31.601   0.482   6.838
    5AU     LIG 2459  31.489   0.042   6.665
    5AU       S 2460  32.363   2.071   7.757
    5AU     LIG 2461  32.361   1.567   7.837
    5AU     LIG 2462  32.153   1.131   7.971
    5AU     LIG 2463  32.097   0.635   8.015
    5AU     LIG 2464  32.244   0.220   8.183
    5AU     LIG 2465  32.542   0.115   8.509
    5AU    AUSL 2466  32.355   3.835   6.849
    5AU    AUSL 2467  32.779   3.798   7.256
    5AU     AUL 2468  32.643   4.023   6.876
    5AU       S 2469  32.250   4.245   6.723
    5AU     LIG 2470  32.328   4.676   6.519
    5AU     LIG 2471  32.496   5.065   6.304
    5AU     LIG 2472  32.493   5.340   5.899
    5AU     LIG 2473  32.460   5.771   5.679
    5AU     LIG 2474  32.527   6.154   5.396
    5AU       S 2475  33.012   4.041   7.156
    5AU     LIG 2476  33.469   4.216   6.979
    5AU     LIG 2477  33.708   4.275   6.569
    5AU     LIG 2478  33.867   4.581   6.247
    5AU     LIG 2479  34.063   4.992   6.114
    5AU     LIG 2480  34.191   5.459   6.137
    5AU    AUSL 2481  32.143   3.885   7.244
    5AU    AUSL 2482  32.047   3.549   6.947
    5AU     AUL 2483  32.009   3.854   6.799
    5AU       S 2484  32.055   4.247   7.073
    5AU     LIG 2485  32.158   4.753   6.999
    5AU     LIG 2486  32.263   5.174   6.796
    5AU     LIG 2487  32.134   5.649   6.839
    5AU     LIG 2488  32.185   6.099   6.707
    5AU     LIG 2489  31.917   6.468   6.625
    5AU       S 2490  31.580   3.876   6.635
    5AU     LIG 2491  31.502   3.910   6.169
    5AU     LIG 2492  31.422   4.220   5.804
    5AU     LIG 2493  31.451   4.517   5.411
    5AU     LIG 2494  31.395   4.839   5.042
    5AU     LIG 2495  31.159   5.223   4.873
    5AU    AUSL 2496  32.344   2.509   6.886
    5AU    AUSL 2497  31.727   2.565   7.254
    5AU     AUL 2498  31.981   2.381   6.946
    5AU       S 2499  31.561   2.509   7.095
    5AU     LIG 2500  31.169   2.341   7.242
    5AU     LIG 2501  30.906   2.041   6.977
    5AU     LIG 2502  30.721   1.725   6.652
    5AU     LIG 2503  30.555   1.444   6.299
    5AU     LIG 2504  30.392   1.038   6.119
    5AU       S 2505  32.375   2.096   6.908
    5AU     LIG 2506  32.328   1.653   6.779
    5AU     LIG 2507  32.060   1.291   6.620
    5AU     LIG 2508  31.940   0.871   6.455
    5AU     LIG 2509  31.898   0.517   6.151
    5AU     LIG 2510  31.988   0.151   5.870
    5AU    AUSL 2511  32.505   2.548   7.322
    5AU    AUSL 2512  32.623   2.823   6.977
    5AU     AUL 2513  32.663   2.457   6.947
    5AU       S 2514  32.565   2.111   7.237
    5AU     LIG 2515  32.352   1.652   7.308
    5AU     LIG 2516  32.252   1.225   7.093
    5AU     LIG 2517  32.256   0.793   6.866
    5AU     LIG 2518  32.379   0.316   6.808
    5AU     LIG 2519  32.542  44.878   6.667
    5AU       S 2520  32.893   2.587   6.581
    5AU     LIG 2521  32.774   2.155   6.499
    5AU     LIG 2522  32.999   1.821   6.245
    5AU     LIG 2523  33.255   1.529   5.957
    5AU     LIG 2524  33.457   1.362   5.541
    5AU     LIG 2525  33.579   1.098   5.146
    6AU     AUC 2526  27.198   9.037   7.508
    6AU     AUC 2527  27.459   9.052   7.333
    6AU     AUC 2528  27.458   9.032   7.673
    6AU     AUC 2529  26.919   9.030   7.345
    6AU     AUC 2530  26.954   9.072   7.698
    6AU     AUC 2531  27.026   9.309   7.510
    6AU     AUC 2532  27.371   9.312   7.489
    6AU     AUC 2533  27.019   8.776   7.517
    6AU     AUC 2534  27.366   8.752   7.508
    6AU     AUC 2535  27.209   8.867   7.783
    6AU     AUC 2536  27.198   9.226   7.767
    6AU     AUC 2537  27.188   8.869   7.238
    6AU     AUC 2538  27.208   9.188   7.228
    6AU     AUC 2539  27.781   9.055   7.173
    6AU     AUC 2540  27.803   9.021   7.509
    6AU     AUC 2541  27.759   9.011   7.861
    6AU     AUC 2542  26.602   9.017   7.179
    6AU     AUC 2543  26.594   9.067   7.542
    6AU     AUC 2544  26.657   9.096   7.897
    6AU     AUC 2545  26.860   9.621   7.496
    6AU     AUC 2546  27.216   9.658   7.446
    6AU     AUC 2547  27.547   9.602   7.471
    6AU     AUC 2548  26.814   8.487   7.528
    6AU     AUC 2549  27.174   8.439   7.496
    6AU     AUC 2550  27.538   8.449   7.493
    6AU     AUC 2551  27.194   8.688   8.083
    6AU     AUC 2552  27.219   9.045   8.113
    6AU     AUC 2553  27.239   9.399   8.058
    6AU     AUC 2554  27.216   8.691   6.958
    6AU     AUC 2555  27.176   9.023   6.893
    6AU     AUC 2556  27.176   9.354   6.911
    6AU     AUC 2557  27.485   8.813   8.002
    6AU     AUC 2558  27.519   9.200   7.988
    6AU     AUC 2559  27.514   8.881   7.011
    6AU     AUC 2560  27.491   9.231   7.024
    6AU     AUC 2561  26.908   8.909   8.028
    6AU     AUC 2562  26.937   9.275   8.012
    6AU     AUC 2563  26.885   8.835   7.055
    6AU     AUC 2564  26.852   9.163   7.008
    6AU     AUC 2565  27.717   9.325   7.320
    6AU     AUC 2566  27.673   9.304   7.682
    6AU     AUC 2567  26.706   9.328   7.344
    6AU     AUC 2568  26.733   9.387   7.704
    6AU     AUC 2569  27.687   8.739   7.344
    6AU     AUC 2570  27.646   8.684   7.696
    6AU     AUC 2571  26.685   8.717   7.363
    6AU     AUC 2572  26.745   8.782   7.718
    6AU     AUC 2573  27.049   9.564   7.771
    6AU     AUC 2574  27.394   9.523   7.765
    6AU     AUC 2575  27.000   8.573   7.807
    6AU     AUC 2576  27.334   8.515   7.783
    6AU     AUC 2577  27.012   9.465   7.188
    6AU     AUC 2578  27.387   9.505   7.166
    6AU     AUC 2579  27.009   8.560   7.219
    6AU     AUC 2580  27.409   8.588   7.214
    6AU    AUSL 2581  27.774   8.946   8.235
    6AU    AUSL 2582  27.498   8.517   8.184
    6AU     AUL 2583  27.811   8.547   8.329
    6AU       S 2584  27.830   8.131   8.137
    6AU     LIG 2585  27.725   7.987   8.495
    6AU     LIG 2586  27.922   7.709   8.780
    6AU     LIG 2587  28.133   7.336   8.946
    6AU     LIG 2588  28.344   7.102   9.293
    6AU     LIG 2589  28.247   6.902   9.722
    6AU       S 2590  28.014   8.951   8.418
    6AU     LIG 2591  27.909   9.054   8.856
    6AU     LIG 2592  27.930   8.946   9.305
    6AU     LIG 2593  28.198   8.705   9.619
    6AU     LIG 2594  28.569   8.628   9.920
    6AU     LIG 2595  28.970   8.662  10.187
    6AU    AUSL 2596  27.377   8.857   8.423
    6AU    AUSL 2597  27.106   9.223   8.455
    6AU     AUL 2598  27.319   9.150   8.743
    6AU       S 2599  27.562   8.779   8.628
    6AU     LIG 2600  27.481   8.751   9.060
    6AU     LIG 2601  27.680   8.501   9.406
    6AU     LIG 2602  27.906   8.295   9.763
    6AU     LIG 2603  28.078   8.144  10.174
    6AU     LIG 2604  28.178   8.076  10.633
    6AU       S 2605  26.910   8.957   8.692
    6AU     LIG 2606  26.880   8.854   9.174
    6AU     LIG 2607  26.632   8.855   9.596
    6AU     LIG 2608  26.525   9.040  10.036
    6AU     LIG 2609  26.550   9.355  10.430
    6AU     LIG 2610  26.368   9.600  10.818
    6AU    AUSL 2611  27.419   9.231   8.163
    6AU    AUSL 2612  27.866   9.347   8.091
    6AU     AUL 2613  27.669   9.253   8.437
    6AU       S 2614  27.329   9.606   8.589
    6AU     LIG 2615  27.664   9.499   8.899
    6AU     LIG 2616  27.888   9.491   9.326
    6AU     LIG 2617  27.886   9.657   9.794
    6AU     LIG 2618  27.777   9.804  10.245
    6AU     LIG 2619  27.751   9.923  10.700
    6AU       S 2620  28.025   9.502   8.263
    6AU     LIG 2621  28.438   9.485   8.338
    6AU     LIG 2622  28.682   9.692   8.675
    6AU     LIG 2623  28.906   9.927   9.014
    6AU     LIG 2624  29.169  10.050   9.373
    6AU     LIG 2625  29.532  10.005   9.680
    6AU    AUSL 2626  27.634   9.097   6.878
    6AU    AUSL 2627  27.542   9.529   6.859
    6AU     AUL 2628  27.719   9.439   6.610
    6AU       S 2629  27.595   9.163   6.277
    6AU     LIG 2630  28.051   9.086   6.158
    6AU     LIG 2631  28.174   8.822   5.795
    6AU     LIG 2632  28.254   8.655   5.367
    6AU     LIG 2633  28.608   8.650   5.052
    6AU     LIG 2634  29.071   8.645   4.924
    6AU       S 2635  27.954   9.770   6.857
    6AU     LIG 2636  28.081   9.946   6.464
    6AU     LIG 2637  28.292  10.114   6.075
    6AU     LIG 2638  28.545  10.339   5.752
    6AU     LIG 2639  28.561  10.571   5.341
    6AU     LIG 2640  28.701  10.884   5.021
    6AU    AUSL 2641  27.470   8.824   6.573
    6AU    AUSL 2642  27.948   8.809   6.927
    6AU     AUL 2643  27.847   8.975   6.647
    6AU       S 2644  28.068   8.551   6.701
    6AU     LIG 2645  28.146   8.164   6.386
    6AU     LIG 2646  28.353   7.746   6.265
    6AU     LIG 2647  28.594   7.457   5.973
    6AU     LIG 2648  28.970   7.394   5.685
    6AU     LIG 2649  29.301   7.346   5.347
    6AU       S 2650  27.595   8.942   6.252
    6AU     LIG 2651  27.801   8.593   6.077
    6AU     LIG 2652  27.891   8.401   5.655
    6AU     LIG 2653  27.833   8.251   5.215
    6AU     LIG 2654  27.836   8.259   4.748
    6AU     LIG 2655  27.944   8.507   4.361
    6AU    AUSL 2656  27.279   9.236   6.663
    6AU    AUSL 2657  27.077   8.833   6.761
    6AU     AUL 2658  27.184   8.875   6.437
    6AU       S 2659  26.746   8.846   6.304
    6AU     LIG 2660  26.894   8.650   5.940
    6AU     LIG 2661  26.679   8.381   5.631
    6AU     LIG 2662  26.500   8.354   5.207
    6AU     LIG 2663  26.450   8.242   4.755
    6AU     LIG 2664  26.415   8.271   4.283
    6AU       S 2665  27.345   9.299   6.344
    6AU     LIG 2666  27.304   9.078   5.879
    6AU     LIG 2667  27.667   8.873   5.601
    6AU     LIG 2668  27.802   8.771   5.134
    6AU     LIG 2669  27.815   8.919   4.667
    6AU     LIG 2670  27.878   9.257   4.324
    6AU    AUSL 2671  26.695   9.167   8.299
    6AU    AUSL 2672  26.977   9.521   8.167
    6AU     AUL 2673  26.865   9.455   8.497
    6AU       S 2674  26.734   9.083   8.750
    6AU     LIG 2675  26.423   8.814   8.902
    6AU     LIG 2676  26.246   8.670   9.305
    6AU     LIG 2677  26.089   8.720   9.739
    6AU     LIG 2678  25.683   8.722   9.977
    6AU     LIG 2679  25.370   8.634  10.306
    6AU       S 2680  26.589   9.749   8.262
    6AU     LIG 2681  26.582   9.918   8.682
    6AU     LIG 2682  26.463  10.101   9.106
    6AU     LIG 2683  26.269  10.398   9.410
    6AU     LIG 2684  26.229  10.634   9.816
    6AU     LIG 2685  26.142  10.838  10.236
    6AU    AUSL 2686  27.007   8.870   8.195
    6AU    AUSL 2687  26.549   8.788   8.123
    6AU     AUL 2688  26.564   8.885   8.371
    6AU       S 2689  26.392   8.450   8.277
    6AU     LIG 2690  25.969   8.453   8.200
    6AU     LIG 2691  25.708   8.106   8.348
    6AU     LIG 2692  25.469   7.873   8.679
    6AU     LIG 2693  25.203   7.610   8.953
    6AU     LIG 2694  24.971   7.270   9.162
    6AU       S 2695  26.954   8.783   8.604
    6AU     LIG 2696  26.784   8.456   8.862
    6AU     LIG 2697  26.675   8.392   9.324
    6AU     LIG 2698  26.478   8.373   9.762
    6AU     LIG 2699  26.363   8.209  10.207
    6AU     LIG 2700  26.205   8.261  10.663
    6AU    AUSL 2701  26.639   8.876   6.787
    6AU    AUSL 2702  26.855   8.512   6.948
    6AU     AUL 2703  26.891   8.545   6.632
    6AU       S 2704  26.571   8.765   6.373
    6AU     LIG 2705  26.373   8.618   5.995
    6AU     LIG 2706  26.190   8.580   5.577
    6AU     LIG 2707  26.066   8.638   5.137
    6AU     LIG 2708  25.680   8.634   4.867
    6AU     LIG 2709  25.421   8.724   4.497
    6AU       S 2710  26.495   8.368   6.798
    6AU     LIG 2711  26.229   8.031   6.607
    6AU     LIG 2712  25.995   7.713   6.349
    6AU     LIG 2713  25.765   7.424   6.057
    6AU     LIG 2714  25.617   7.234   5.664
    6AU     LIG 2715  25.610   7.131   5.201
    6AU    AUSL 2716  26.855   9.203   6.592
    6AU    AUSL 2717  26.501   9.282   6.921
    6AU     AUL 2718  26.432   9.086   6.665
    6AU       S 2719  26.503   9.534   6.676
    6AU     LIG 2720  26.152   9.670   6.455
    6AU     LIG 2721  26.021   9.946   6.094
    6AU     LIG 2722  25.812  10.094   5.679
    6AU     LIG 2723  25.402  10.132   5.409
    6AU     LIG 2724  24.995  10.182   5.154
    6AU       S 2725  26.779   9.129   6.335
    6AU     LIG 2726  26.608   9.075   5.878
    6AU     LIG 2727  26.605   8.855   5.445
    6AU     LIG 2728  26.553   8.811   4.961
    6AU     LIG 2729  26.602   9.042   4.537
    6AU     LIG 2730  26.470   9.365   4.212
    6AU    AUSL 2731  27.998   9.542   7.491
    6AU    AUSL 2732  27.923   9.357   7.066
    6AU     AUL 2733  28.255   9.669   7.262
    6AU       S 2734  28.022   9.453   6.947
    6AU     LIG 2735  28.224   9.441   6.544
    6AU     LIG 2736  28.524   9.704   6.300
    6AU     LIG 2737  28.801   9.981   6.039
    6AU     LIG 2738  29.104  10.156   5.712
    6AU     LIG 2739  29.509  10.194   5.437
    6AU       S 2740  28.399   9.417   7.642
    6AU     LIG 2741  28.851   9.609   7.596
    6AU     LIG 2742  29.318   9.750   7.553
    6AU     LIG 2743  29.756   9.936   7.498
    6AU     LIG 2744  30.017  10.341   7.425
    6AU     LIG 2745  30.345  10.698   7.446
    6AU    AUSL 2746  28.165   9.128   7.342
    6AU    AUSL 2747  28.128   8.800   7.698
    6AU     AUL 2748  28.442   8.844   7.551
    6AU       S 2749  28.318   9.232   7.377
    6AU     LIG 2750  28.767   9.170   7.352
    6AU     LIG 2751  29.219   9.286   7.343
    6AU     LIG 2752  29.651   9.468   7.260
    6AU     LIG 2753  30.107   9.604   7.292
    6AU     LIG 2754  30.506   9.751   7.087
    6AU       S 2755  28.366   8.386   7.686
    6AU     LIG 2756  28.793   8.226   7.712
    6AU     LIG 2757  29.196   8.004   7.761
    6AU     LIG 2758  29.614   7.791   7.744
    6AU     LIG 2759  30.064   7.646   7.733
    6AU     LIG 2760  30.464   7.679   7.987
    6AU    AUSL 2761  27.904   9.168   7.706
    6AU    AUSL 2762  27.658   9.565   7.764
    6AU     AUL 2763  27.997   9.602   7.804
    6AU       S 2764  27.993   9.804   8.217
    6AU     LIG 2765  28.355  10.000   8.413
    6AU     LIG 2766  28.636  10.233   8.704
    6AU     LIG 2767  28.993  10.459   8.920
    6AU     LIG 2768  29.290  10.849   8.897
    6AU     LIG 2769  29.559  11.253   8.930
    6AU       S 2770  28.272   9.228   7.810
    6AU     LIG 2771  28.757   9.224   7.929
    6AU     LIG 2772  29.243   9.340   7.857
    6AU     LIG 2773  29.738   9.467   7.766
    6AU     LIG 2774  30.262   9.491   7.780
    6AU     LIG 2775  30.710   9.686   7.913
    6AU    AUSL 2776  26.528   9.610   7.545
    6AU    AUSL 2777  26.632   9.373   7.925
    6AU     AUL 2778  26.310   9.709   7.794
    6AU       S 2779  26.472   9.547   8.189
    6AU     LIG 2780  26.358   9.448   8.614
    6AU     LIG 2781  26.138   9.748   8.905
    6AU     LIG 2782  25.929  10.085   9.164
    6AU     LIG 2783  25.589  10.204   9.476
    6AU     LIG 2784  25.225  10.239   9.789
    6AU       S 2785  26.532   9.987   7.471
    6AU     LIG 2786  26.050  10.119   7.523
    6AU     LIG 2787  25.614  10.406   7.543
    6AU     LIG 2788  25.198  10.720   7.593
    6AU     LIG 2789  24.885  11.115   7.675
    6AU     LIG 2790  24.452  11.300   7.848
    6AU    AUSL 2791  26.489   9.223   7.343
    6AU    AUSL 2792  26.609   9.670   7.127
    6AU     AUL 2793  26.318   9.536   7.183
    6AU       S 2794  26.083   9.108   7.012
    6AU     LIG 2795  25.886   9.531   6.904
    6AU     LIG 2796  25.456   9.787   6.922
    6AU     LIG 2797  24.995  10.001   6.953
    6AU     LIG 2798  24.536  10.170   6.855
    6AU     LIG 2799  24.124  10.110   6.614
    6AU       S 2800  26.418   9.931   6.906
    6AU     LIG 2801  26.406  10.115   6.457
    6AU     LIG 2802  26.215  10.434   6.139
    6AU     LIG 2803  26.034  10.878   6.040
    6AU     LIG 2804  25.706  11.245   6.048
    6AU     LIG 2805  25.242  11.379   6.021
    6AU    AUSL 2806  26.261   9.256   7.745
    6AU    AUSL 2807  26.220   8.895   7.402
    6AU     AUL 2808  26.108   9.229   7.470
    6AU       S 2809  25.939   8.794   7.609
    6AU     LIG 2810  25.499   8.628   7.478
    6AU     LIG 2811  25.026   8.535   7.392
    6AU     LIG 2812  24.549   8.424   7.303
    6AU     LIG 2813  24.069   8.382   7.235
    6AU     LIG 2814  23.628   8.487   7.048
    6AU       S 2815  26.173   9.206   7.985
    6AU     LIG 2816  25.777   9.474   7.904
    6AU     LIG 2817  25.303   9.667   7.992
    6AU     LIG 2818  24.859   9.927   8.108
    6AU     LIG 2819  24.421  10.167   8.257
    6AU     LIG 2820  23.915  10.255   8.253
    6AU    AUSL 2821  27.899   8.454   7.544
    6AU    AUSL 2822  27.736   8.727   7.872
    6AU     AUL 2823  28.065   8.637   7.929
    6AU       S 2824  28.070   8.303   7.538
    6AU     LIG 2825  28.328   7.901   7.491
    6AU     LIG 2826  28.763   7.746   7.529
    6AU     LIG 2827  29.186   7.552   7.518
    6AU     LIG 2828  29.601   7.343   7.488
    6AU     LIG 2829  29.882   7.058   7.258
    6AU       S 2830  27.977   8.199   8.009
    6AU     LIG 2831  28.217   7.878   8.299
    6AU     LIG 2832  28.425   7.656   8.654
    6AU     LIG 2833  28.655   7.378   8.960
    6AU     LIG 2834  29.022   7.213   9.198
    6AU     LIG 2835  29.466   7.225   9.380
    6AU    AUSL 2836  27.852   8.839   7.342
    6AU    AUSL 2837  27.832   8.420   7.117
    6AU     AUL 2838  28.116   8.654   7.196
    6AU       S 2839  28.349   8.388   7.469
    6AU     LIG 2840  28.670   8.214   7.216
    6AU     LIG 2841  29.098   8.025   7.254
    6AU     LIG 2842  29.525   7.824   7.241
    6AU     LIG 2843  29.948   7.614   7.220
    6AU     LIG 2844  30.331   7.542   6.961
    6AU       S 2845  28.030   8.314   6.860
    6AU     LIG 2846  27.978   7.851   6.779
    6AU     LIG 2847  28.126   7.424   6.596
    6AU     LIG 2848  28.406   7.131   6.339
    6AU     LIG 2849  28.716   6.746   6.285
    6AU     LIG 2850  29.106   6.544   6.104
    6AU    AUSL 2851  26.405   8.525   7.579
    6AU    AUSL 2852  26.566   8.750   7.189
    6AU     AUL 2853  26.209   8.613   7.269
    6AU       S 2854  26.374   8.504   6.859
    6AU     LIG 2855  25.940   8.381   6.853
    6AU     LIG 2856  25.697   8.091   6.561
    6AU     LIG 2857  25.534   7.884   6.161
    6AU     LIG 2858  25.286   7.566   5.917
    6AU     LIG 2859  25.175   7.414   5.475
    6AU       S 2860  25.980   8.525   7.677
    6AU     LIG 2861  25.799   8.206   7.449
    6AU     LIG 2862  25.348   8.115   7.358
    6AU     LIG 2863  24.880   8.051   7.468
    6AU     LIG 2864  24.419   7.940   7.513
    6AU     LIG 2865  24.237   7.497   7.567
    6AU    AUSL 2866  26.532   8.932   7.719
    6AU    AUSL 2867  26.752   8.540   7.830
    6AU     AUL 2868  26.341   8.709   7.897
    6AU       S 2869  26.439   8.288   8.045
    6AU     LIG 2870  26.070   8.040   7.919
    6AU     LIG 2871  25.809   7.677   8.088
    6AU     LIG 2872  25.500   7.447   8.388
    6AU     LIG 2873  25.241   7.160   8.693
    6AU     LIG 2874  25.068   6.714   8.742
    6AU       S 2875  25.930   8.846   7.769
    6AU     LIG 2876  25.512   9.042   7.783
    6AU     LIG 2877  25.059   8.936   7.717
    6AU     LIG 2878  24.650   8.680   7.738
    6AU     LIG 2879  24.240   8.422   7.725
    6AU     LIG 2880  23.821   8.224   7.676
    6AU    AUSL 2881  27.242   9.726   7.894
    6AU    AUSL 2882  26.794   9.773   7.849
    6AU     AUL 2883  27.057   9.844   8.187
    6AU       S 2884  26.660   9.977   7.973
    6AU     LIG 2885  26.330  10.166   8.282
    6AU     LIG 2886  26.160  10.257   8.719
    6AU     LIG 2887  25.979  10.596   9.008
    6AU     LIG 2888  25.780  11.050   9.024
    6AU     LIG 2889  25.573  11.503   8.981
    6AU       S 2890  27.270  10.195   7.966
    6AU     LIG 2891  27.309  10.474   8.323
    6AU     LIG 2892  27.411  10.897   8.491
    6AU     LIG 2893  27.288  11.323   8.649
    6AU     LIG 2894  27.172  11.452   9.077
    6AU     LIG 2895  27.117  11.619   9.510
    6AU    AUSL 2896  27.050   9.994   7.589
    6AU    AUSL 2897  27.353   9.945   7.191
    6AU     AUL 2898  27.078  10.199   7.332
    6AU       S 2899  27.103  10.195   7.804
    6AU     LIG 2900  27.176  10.681   7.864
    6AU     LIG 2901  27.364  11.078   8.006
    6AU     LIG 2902  27.279  11.500   8.161
    6AU     LIG 2903  27.175  11.910   8.362
    6AU     LIG 2904  26.774  12.151   8.477
    6AU       S 2905  27.311  10.250   6.932
    6AU     LIG 2906  27.677  10.500   6.854
    6AU     LIG 2907  27.842  10.940   6.779
    6AU     LIG 2908  27.823  11.409   6.685
    6AU     LIG 2909  27.770  11.904   6.674
    6AU     LIG 2910  27.780  12.406   6.654
    6AU    AUSL 2911  27.504   9.930   7.600
    6AU    AUSL 2912  27.538   9.642   8.189
    6AU     AUL 2913  27.616   9.889   7.945
    6AU       S 2914  27.773   9.728   8.387
    6AU     LIG 2915  28.115   9.677   8.730
    6AU     LIG 2916  28.378   9.924   9.031
    6AU     LIG 2917  28.601  10.294   9.245
    6AU     LIG 2918  28.555  10.640   9.591
    6AU     LIG 2919  28.474  10.925   9.986
    6AU       S 2920  27.450  10.238   7.664
    6AU     LIG 2921  27.681  10.495   7.966
    6AU     LIG 2922  27.813  10.882   8.177
    6AU     LIG 2923  27.717  11.314   8.344
    6AU     LIG 2924  27.692  11.804   8.334
    6AU     LIG 2925  27.857  12.282   8.306
    6AU    AUSL 2926  27.158   8.376   7.945
    6AU    AUSL 2927  27.579   8.322   7.797
    6AU     AUL 2928  27.374   8.222   8.172
    6AU       S 2929  27.184   7.834   8.009
    6AU     LIG 2930  26.999   7.626   8.342
    6AU     LIG 2931  26.863   7.211   8.447
    6AU     LIG 2932  26.896   6.765   8.494
    6AU     LIG 2933  26.901   6.316   8.604
    6AU     LIG 2934  26.991   6.082   9.001
    6AU       S 2935  27.725   8.112   7.854
    6AU     LIG 2936  27.738   7.658   8.070
    6AU     LIG 2937  28.038   7.400   8.380
    6AU     LIG 2938  28.418   7.141   8.562
    6AU     LIG 2939  28.766   6.877   8.786
    6AU     LIG 2940  29.037   6.455   8.784
    6AU    AUSL 2941  26.835   8.153   7.683
    6AU    AUSL 2942  26.875   8.472   8.257
    6AU     AUL 2943  26.882   8.191   8.038
    6AU       S 2944  26.955   7.766   7.849
    6AU     LIG 2945  26.790   7.348   7.947
    6AU     LIG 2946  26.628   6.925   8.073
    6AU     LIG 2947  26.643   6.462   8.160
    6AU     LIG 2948  26.462   6.068   8.335
    6AU     LIG 2949  26.361   5.625   8.280
    6AU       S 2950  26.600   8.365   8.381
    6AU     LIG 2951  26.235   8.005   8.422
    6AU     LIG 2952  25.941   7.683   8.589
    6AU     LIG 2953  25.678   7.416   8.872
    6AU     LIG 2954  25.473   7.266   9.264
    6AU     LIG 2955  25.387   7.288   9.737
    6AU    AUSL 2956  27.269   8.086   7.623
    6AU    AUSL 2957  27.035   8.339   7.335
    6AU     AUL 2958  26.937   7.988   7.440
    6AU       S 2959  27.295   7.900   7.176
    6AU     LIG 2960  26.943   7.570   7.189
    6AU     LIG 2961  26.710   7.205   7.036
    6AU     LIG 2962  26.659   6.760   6.904
    6AU     LIG 2963  26.704   6.301   6.783
    6AU     LIG 2964  26.640   5.831   6.731
    6AU       S 2965  27.287   7.876   7.765
    6AU     LIG 2966  27.297   7.378   7.835
    6AU     LIG 2967  27.147   6.958   8.062
    6AU     LIG 2968  27.183   6.468   8.182
    6AU     LIG 2969  27.372   6.011   8.305
    6AU     LIG 2970  27.641   5.577   8.370
    6AU    AUSL 2971  27.158   9.733   6.849
    6AU    AUSL 2972  27.647   9.641   7.263
    6AU     AUL 2973  27.498   9.840   6.870
    6AU       S 2974  27.112  10.000   6.651
    6AU     LIG 2975  27.427  10.284   6.445
    6AU     LIG 2976  27.558  10.731   6.399
    6AU     LIG 2977  27.588  11.171   6.276
    6AU     LIG 2978  27.511  11.442   5.921
    6AU     LIG 2979  27.406  11.616   5.499
    6AU       S 2980  27.857   9.855   7.147
    6AU     LIG 2981  28.283  10.109   6.940
    6AU     LIG 2982  28.552  10.185   6.525
    6AU     LIG 2983  28.820  10.466   6.221
    6AU     LIG 2984  29.172  10.824   6.178
    6AU     LIG 2985  29.526  11.173   6.266
    6AU    AUSL 2986  27.004   9.700   7.289
    6AU    AUSL 2987  26.921   9.403   6.963
    6AU     AUL 2988  26.860   9.859   7.035
    6AU       S 2989  27.087  10.211   6.859
    6AU     LIG 2990  27.180  10.690   6.747
    6AU     LIG 2991  27.368  11.122   6.730
    6AU     LIG 2992  27.349  11.588   6.622
    6AU     LIG 2993  27.006  11.920   6.631
    6AU     LIG 2994  26.932  12.413   6.625
    6AU       S 2995  26.704   9.652   6.652
    6AU     LIG 2996  26.617   9.714   6.203
    6AU     LIG 2997  26.484  10.049   5.898
    6AU     LIG 2998  26.292  10.248   5.508
    6AU     LIG 2999  26.255  10.529   5.128
    6AU     LIG 3000  25.975  10.843   4.914
    6AU    AUSL 3001  27.234   8.303   6.932
    6AU    AUSL 3002  26.615   8.308   7.262
    6AU     AUL 3003  26.892   8.161   6.998
    6AU       S 3004  26.431   8.255   7.060
    6AU     LIG 3005  26.101   7.963   7.103
    6AU     LIG 3006  25.833   7.686   6.846
    6AU     LIG 3007  25.539   7.505   6.516
    6AU     LIG 3008  25.303   7.174   6.258
    6AU     LIG 3009  24.922   6.866   6.225
    6AU       S 3010  27.296   7.899   6.982
    6AU     LIG 3011  27.255   7.463   6.801
    6AU     LIG 3012  27.021   7.069   6.645
    6AU     LIG 3013  26.888   6.662   6.443
    6AU     LIG 3014  26.849   6.363   6.079
    6AU     LIG 3015  26.960   6.216   5.635
    6AU    AUSL 3016  27.473   8.315   7.320
    6AU    AUSL 3017  27.492   8.648   6.960
    6AU     AUL 3018  27.569   8.269   6.926
    6AU       S 3019  27.549   7.952   7.271
    6AU     LIG 3020  27.427   7.453   7.318
    6AU     LIG 3021  27.200   7.057   7.132
    6AU     LIG 3022  27.155   6.619   6.900
    6AU     LIG 3023  27.253   6.140   6.844
    6AU     LIG 3024  27.555   5.744   6.916
    6AU       S 3025  27.805   8.488   6.603
    6AU     LIG 3026  27.642   8.087   6.465
    6AU     LIG 3027  27.835   7.706   6.277
    6AU     LIG 3028  28.064   7.394   5.996
    6AU     LIG 3029  28.098   7.209   5.550
    6AU     LIG 3030  28.264   6.926   5.200
    7AU     AUC 3031  24.978  22.447   7.509
    7AU     AUC 3032  25.248  22.453   7.337
    7AU     AUC 3033  25.239  22.446   7.672
    7AU     AUC 3034  24.696  22.436   7.349
    7AU     AUC 3035  24.734  22.487   7.699
    7AU     AUC 3036  24.805  22.717   7.508
    7AU     AUC 3037  25.151  22.721   7.488
    7AU     AUC 3038  24.796  22.188   7.521
    7AU     AUC 3039  25.146  22.164   7.511
    7AU     AUC 3040  24.990  22.282   7.785
    7AU     AUC 3041  24.977  22.643   7.764
    7AU     AUC 3042  24.965  22.274   7.243
    7AU     AUC 3043  24.990  22.591   7.229
    7AU     AUC 3044  25.571  22.453   7.172
    7AU     AUC 3045  25.588  22.436   7.508
    7AU     AUC 3046  25.541  22.431   7.860
    7AU     AUC 3047  24.378  22.424   7.183
    7AU     AUC 3048  24.371  22.482   7.545
    7AU     AUC 3049  24.437  22.517   7.898
    7AU     AUC 3050  24.640  23.031   7.487
    7AU     AUC 3051  24.995  23.068   7.438
    7AU     AUC 3052  25.323  23.013   7.464
    7AU     AUC 3053  24.585  21.900   7.540
    7AU     AUC 3054  24.945  21.849   7.505
    7AU     AUC 3055  25.318  21.859   7.496
    7AU     AUC 3056  24.978  22.107   8.087
    7AU     AUC 3057  25.000  22.464   8.111
    7AU     AUC 3058  25.017  22.821   8.051
    7AU     AUC 3059  24.987  22.089   6.966
    7AU     AUC 3060  24.958  22.420   6.900
    7AU     AUC 3061  24.959  22.749   6.914
    7AU     AUC 3062  25.270  22.231   7.998
    7AU     AUC 3063  25.293  22.621   7.987
    7AU     AUC 3064  25.291  22.277   7.015
    7AU     AUC 3065  25.278  22.629   7.028
    7AU     AUC 3066  24.688  22.329   8.031
    7AU     AUC 3067  24.717  22.694   8.007
    7AU     AUC 3068  24.660  22.237   7.060
    7AU     AUC 3069  24.630  22.561   7.009
    7AU     AUC 3070  25.501  22.733   7.322
    7AU     AUC 3071  25.451  22.722   7.683
    7AU     AUC 3072  24.482  22.736   7.345
    7AU     AUC 3073  24.512  22.806   7.701
    7AU     AUC 3074  25.467  22.146   7.343
    7AU     AUC 3075  25.438  22.109   7.685
    7AU     AUC 3076  24.458  22.128   7.372
    7AU     AUC 3077  24.522  22.199   7.726
    7AU     AUC 3078  24.829  22.984   7.762
    7AU     AUC 3079  25.168  22.943   7.760
    7AU     AUC 3080  24.778  21.991   7.814
    7AU     AUC 3081  25.117  21.935   7.787
    7AU     AUC 3082  24.794  22.863   7.185
    7AU     AUC 3083  25.171  22.903   7.157
    7AU     AUC 3084  24.779  21.964   7.230
    7AU     AUC 3085  25.178  21.989   7.222
    7AU    AUSL 3086  25.559  22.373   8.225
    7AU    AUSL 3087  25.293  21.931   8.183
    7AU     AUL 3088  25.596  21.982   8.329
    7AU       S 3089  25.624  21.570   8.129
    7AU     LIG 3090  25.567  21.433   8.503
    7AU     LIG 3091  25.648  21.034   8.684
    7AU     LIG 3092  25.926  20.744   8.913
    7AU     LIG 3093  26.234  20.501   9.184
    7AU     LIG 3094  26.458  20.522   9.614
    7AU       S 3095  25.818  22.390   8.347
    7AU     LIG 3096  25.855  22.533   8.782
    7AU     LIG 3097  25.789  22.261   9.164
    7AU     LIG 3098  25.877  22.173   9.632
    7AU     LIG 3099  26.088  22.172  10.058
    7AU     LIG 3100  26.506  22.076  10.288
    7AU    AUSL 3101  25.165  22.273   8.417
    7AU    AUSL 3102  24.887  22.647   8.452
    7AU     AUL 3103  25.107  22.533   8.719
    7AU       S 3104  25.472  22.249   8.679
    7AU     LIG 3105  25.248  22.169   9.064
    7AU     LIG 3106  25.413  21.993   9.467
    7AU     LIG 3107  25.566  21.832   9.892
    7AU     LIG 3108  25.608  21.758  10.360
    7AU     LIG 3109  25.628  21.753  10.834
    7AU       S 3110  24.673  22.398   8.700
    7AU     LIG 3111  24.667  22.269   9.160
    7AU     LIG 3112  24.391  22.244   9.551
    7AU     LIG 3113  24.243  22.240  10.004
    7AU     LIG 3114  24.113  22.544  10.354
    7AU     LIG 3115  23.929  22.906  10.619
    7AU    AUSL 3116  25.198  22.647   8.160
    7AU    AUSL 3117  25.634  22.784   8.093
    7AU     AUL 3118  25.460  22.676   8.432
    7AU       S 3119  25.131  23.004   8.611
    7AU     LIG 3120  25.439  22.836   8.935
    7AU     LIG 3121  25.615  22.895   9.379
    7AU     LIG 3122  25.594  23.039   9.853
    7AU     LIG 3123  25.663  23.235  10.287
    7AU     LIG 3124  25.747  23.211  10.758
    7AU       S 3125  25.803  22.940   8.246
    7AU     LIG 3126  26.165  22.743   8.417
    7AU     LIG 3127  26.499  22.866   8.697
    7AU     LIG 3128  26.730  23.137   9.017
    7AU     LIG 3129  26.947  23.381   9.365
    7AU     LIG 3130  27.321  23.436   9.664
    7AU    AUSL 3131  25.423  22.494   6.888
    7AU    AUSL 3132  25.341  22.928   6.845
    7AU     AUL 3133  25.522  22.814   6.612
    7AU       S 3134  25.330  22.580   6.283
    7AU     LIG 3135  25.730  22.562   5.996
    7AU     LIG 3136  25.876  22.273   5.676
    7AU     LIG 3137  25.987  22.021   5.313
    7AU     LIG 3138  26.274  21.909   4.975
    7AU     LIG 3139  26.685  21.913   4.745
    7AU       S 3140  25.739  23.163   6.853
    7AU     LIG 3141  25.915  23.343   6.480
    7AU     LIG 3142  26.192  23.472   6.122
    7AU     LIG 3143  26.376  23.676   5.744
    7AU     LIG 3144  26.387  24.016   5.410
    7AU     LIG 3145  26.288  24.283   5.030
    7AU    AUSL 3146  25.249  22.226   6.583
    7AU    AUSL 3147  25.704  22.170   6.905
    7AU     AUL 3148  25.620  22.348   6.637
    7AU       S 3149  25.795  21.903   6.670
    7AU     LIG 3150  25.905  21.582   6.324
    7AU     LIG 3151  26.166  21.215   6.214
    7AU     LIG 3152  26.410  21.010   5.875
    7AU     LIG 3153  26.669  21.000   5.484
    7AU     LIG 3154  27.084  20.824   5.328
    7AU       S 3155  25.357  22.393   6.254
    7AU     LIG 3156  25.496  22.070   5.982
    7AU     LIG 3157  25.503  21.940   5.522
    7AU     LIG 3158  25.590  21.772   5.088
    7AU     LIG 3159  25.780  21.504   4.747
    7AU     LIG 3160  25.957  21.521   4.317
    7AU    AUSL 3161  25.058  22.630   6.689
    7AU    AUSL 3162  24.853  22.223   6.766
    7AU     AUL 3163  24.971  22.259   6.451
    7AU       S 3164  24.542  22.238   6.296
    7AU     LIG 3165  24.650  22.053   5.896
    7AU     LIG 3166  24.404  21.784   5.583
    7AU     LIG 3167  24.188  21.816   5.167
    7AU     LIG 3168  24.095  21.702   4.728
    7AU     LIG 3169  24.262  21.516   4.339
    7AU       S 3170  25.096  22.711   6.405
    7AU     LIG 3171  24.970  22.518   5.954
    7AU     LIG 3172  25.346  22.432   5.640
    7AU     LIG 3173  25.591  22.364   5.227
    7AU     LIG 3174  25.627  22.480   4.762
    7AU     LIG 3175  25.795  22.632   4.335
    7AU    AUSL 3176  24.476  22.593   8.294
    7AU    AUSL 3177  24.766  22.938   8.151
    7AU     AUL 3178  24.649  22.887   8.483
    7AU       S 3179  24.505  22.522   8.747
    7AU     LIG 3180  24.211  22.209   8.903
    7AU     LIG 3181  23.979  22.065   9.294
    7AU     LIG 3182  23.844  22.032   9.748
    7AU     LIG 3183  23.539  22.041  10.121
    7AU     LIG 3184  23.140  22.120  10.379
    7AU       S 3185  24.365  23.184   8.251
    7AU     LIG 3186  24.354  23.368   8.665
    7AU     LIG 3187  24.181  23.614   9.034
    7AU     LIG 3188  23.971  23.749   9.427
    7AU     LIG 3189  23.744  23.937   9.785
    7AU     LIG 3190  23.634  24.335  10.000
    7AU    AUSL 3191  24.788  22.292   8.199
    7AU    AUSL 3192  24.330  22.210   8.129
    7AU     AUL 3193  24.340  22.315   8.370
    7AU       S 3194  24.169  21.876   8.285
    7AU     LIG 3195  23.743  21.846   8.207
    7AU     LIG 3196  23.490  21.486   8.357
    7AU     LIG 3197  23.261  21.175   8.639
    7AU     LIG 3198  23.063  20.936   8.992
    7AU     LIG 3199  22.766  20.955   9.364
    7AU       S 3200  24.732  22.216   8.600
    7AU     LIG 3201  24.592  21.872   8.841
    7AU     LIG 3202  24.423  21.805   9.271
    7AU     LIG 3203  24.291  21.767   9.729
    7AU     LIG 3204  24.199  21.722  10.189
    7AU     LIG 3205  24.254  21.549  10.631
    7AU    AUSL 3206  24.414  22.273   6.790
    7AU    AUSL 3207  24.623  21.913   6.962
    7AU     AUL 3208  24.657  21.942   6.642
    7AU       S 3209  24.367  22.181   6.358
    7AU     LIG 3210  24.143  22.082   5.961
    7AU     LIG 3211  23.909  21.969   5.572
    7AU     LIG 3212  23.667  21.922   5.168
    7AU     LIG 3213  23.337  22.018   4.849
    7AU     LIG 3214  23.001  22.334   4.769
    7AU       S 3215  24.266  21.767   6.819
    7AU     LIG 3216  24.166  21.323   6.717
    7AU     LIG 3217  23.831  21.125   6.443
    7AU     LIG 3218  23.510  21.036   6.092
    7AU     LIG 3219  23.380  20.821   5.680
    7AU     LIG 3220  23.346  20.635   5.225
    7AU    AUSL 3221  24.639  22.594   6.593
    7AU    AUSL 3222  24.274  22.679   6.921
    7AU     AUL 3223  24.209  22.473   6.671
    7AU       S 3224  24.272  22.924   6.668
    7AU     LIG 3225  23.971  23.178   6.442
    7AU     LIG 3226  23.846  23.447   6.067
    7AU     LIG 3227  23.621  23.470   5.633
    7AU     LIG 3228  23.238  23.487   5.326
    7AU     LIG 3229  22.866  23.766   5.225
    7AU       S 3230  24.575  22.531   6.357
    7AU     LIG 3231  24.427  22.526   5.905
    7AU     LIG 3232  24.347  22.286   5.503
    7AU     LIG 3233  24.436  22.285   5.032
    7AU     LIG 3234  24.541  22.559   4.633
    7AU     LIG 3235  24.396  22.803   4.236
    7AU    AUSL 3236  25.773  22.960   7.495
    7AU    AUSL 3237  25.713  22.754   7.077
    7AU     AUL 3238  26.041  23.062   7.276
    7AU       S 3239  25.819  22.857   6.949
    7AU     LIG 3240  26.221  23.023   6.763
    7AU     LIG 3241  26.473  23.115   6.369
    7AU     LIG 3242  26.703  23.365   6.025
    7AU     LIG 3243  27.071  23.519   5.742
    7AU     LIG 3244  27.519  23.586   5.547
    7AU       S 3245  26.156  22.846   7.682
    7AU     LIG 3246  26.600  23.002   7.615
    7AU     LIG 3247  27.088  22.961   7.606
    7AU     LIG 3248  27.490  23.255   7.579
    7AU     LIG 3249  27.809  23.638   7.499
    7AU     LIG 3250  27.932  24.103   7.473
    7AU    AUSL 3251  25.961  22.549   7.370
    7AU    AUSL 3252  25.913  22.230   7.699
    7AU     AUL 3253  26.267  22.346   7.713
    7AU       S 3254  26.087  22.618   7.403
    7AU     LIG 3255  26.452  22.764   7.169
    7AU     LIG 3256  26.940  22.798   7.134
    7AU     LIG 3257  27.425  22.894   7.203
    7AU     LIG 3258  27.847  23.172   7.213
    7AU     LIG 3259  28.279  23.356   7.075
    7AU       S 3260  26.169  21.916   7.550
    7AU     LIG 3261  26.516  21.588   7.651
    7AU     LIG 3262  27.000  21.633   7.739
    7AU     LIG 3263  27.432  21.429   7.831
    7AU     LIG 3264  27.905  21.496   7.960
    7AU     LIG 3265  28.347  21.323   7.863
    7AU    AUSL 3266  25.678  22.591   7.716
    7AU    AUSL 3267  25.425  22.988   7.761
    7AU     AUL 3268  25.746  23.053   7.792
    7AU       S 3269  25.757  23.237   8.214
    7AU     LIG 3270  26.203  23.259   8.423
    7AU     LIG 3271  26.548  23.494   8.679
    7AU     LIG 3272  26.818  23.860   8.883
    7AU     LIG 3273  27.118  24.281   8.882
    7AU     LIG 3274  27.181  24.767   8.923
    7AU       S 3275  26.007  22.684   7.839
    7AU     LIG 3276  26.488  22.668   8.011
    7AU     LIG 3277  26.961  22.611   7.976
    7AU     LIG 3278  27.429  22.594   7.878
    7AU     LIG 3279  27.869  22.731   7.764
    7AU     LIG 3280  28.336  22.742   7.883
    7AU    AUSL 3281  24.307  23.029   7.538
    7AU    AUSL 3282  24.411  22.797   7.920
    7AU     AUL 3283  24.088  23.130   7.781
    7AU       S 3284  24.258  22.974   8.177
    7AU     LIG 3285  24.149  22.880   8.613
    7AU     LIG 3286  23.977  23.133   8.977
    7AU     LIG 3287  23.680  23.351   9.282
    7AU     LIG 3288  23.406  23.580   9.601
    7AU     LIG 3289  23.011  23.613   9.872
    7AU       S 3290  24.321  23.401   7.450
    7AU     LIG 3291  23.864  23.443   7.393
    7AU     LIG 3292  23.498  23.771   7.436
    7AU     LIG 3293  23.107  24.040   7.532
    7AU     LIG 3294  22.678  24.219   7.419
    7AU     LIG 3295  22.322  24.412   7.655
    7AU    AUSL 3296  24.269  22.637   7.345
    7AU    AUSL 3297  24.389  23.071   7.118
    7AU     AUL 3298  24.098  22.946   7.177
    7AU       S 3299  23.851  22.528   7.020
    7AU     LIG 3300  23.623  22.949   6.955
    7AU     LIG 3301  23.167  23.164   6.924
    7AU     LIG 3302  22.684  23.314   6.901
    7AU     LIG 3303  22.197  23.389   6.839
    7AU     LIG 3304  21.740  23.396   7.004
    7AU       S 3305  24.204  23.331   6.892
    7AU     LIG 3306  24.263  23.603   6.499
    7AU     LIG 3307  24.110  23.978   6.219
    7AU     LIG 3308  23.876  24.405   6.155
    7AU     LIG 3309  23.489  24.690   6.156
    7AU     LIG 3310  23.247  25.072   6.014
    7AU    AUSL 3311  24.040  22.676   7.748
    7AU    AUSL 3312  23.996  22.314   7.409
    7AU     AUL 3313  23.888  22.650   7.475
    7AU       S 3314  23.716  22.220   7.619
    7AU     LIG 3315  23.300  22.045   7.459
    7AU     LIG 3316  22.841  21.925   7.498
    7AU     LIG 3317  22.415  21.765   7.333
    7AU     LIG 3318  21.944  21.719   7.231
    7AU     LIG 3319  21.484  21.772   7.077
    7AU       S 3320  23.956  22.625   7.992
    7AU     LIG 3321  23.534  22.812   7.872
    7AU     LIG 3322  23.029  22.868   7.950
    7AU     LIG 3323  22.593  23.030   8.145
    7AU     LIG 3324  22.126  23.113   8.271
    7AU     LIG 3325  21.645  23.160   8.251
    7AU    AUSL 3326  25.694  21.872   7.543
    7AU    AUSL 3327  25.523  22.144   7.869
    7AU     AUL 3328  25.863  22.052   7.922
    7AU       S 3329  25.963  21.757   7.544
    7AU     LIG 3330  26.193  21.479   7.261
    7AU     LIG 3331  26.557  21.165   7.350
    7AU     LIG 3332  27.039  21.081   7.456
    7AU     LIG 3333  27.420  20.777   7.381
    7AU     LIG 3334  27.659  20.345   7.273
    7AU       S 3335  25.761  21.619   7.989
    7AU     LIG 3336  26.073  21.474   8.310
    7AU     LIG 3337  26.151  21.148   8.628
    7AU     LIG 3338  26.428  20.862   8.861
    7AU     LIG 3339  26.700  20.753   9.220
    7AU     LIG 3340  26.939  20.775   9.624
    7AU    AUSL 3341  25.656  22.253   7.323
    7AU    AUSL 3342  25.592  21.796   7.126
    7AU     AUL 3343  25.842  21.977   7.150
    7AU       S 3344  26.220  22.079   7.347
    7AU     LIG 3345  26.571  21.836   7.197
    7AU     LIG 3346  26.894  21.526   7.252
    7AU     LIG 3347  27.356  21.465   7.188
    7AU     LIG 3348  27.795  21.409   6.962
    7AU     LIG 3349  28.221  21.611   7.124
    7AU       S 3350  25.781  21.654   6.809
    7AU     LIG 3351  25.915  21.206   6.690
    7AU     LIG 3352  26.023  20.772   6.468
    7AU     LIG 3353  26.179  20.307   6.360
    7AU     LIG 3354  26.408  19.900   6.174
    7AU     LIG 3355  26.658  19.495   6.021
    7AU    AUSL 3356  24.177  21.946   7.593
    7AU    AUSL 3357  24.338  22.161   7.195
    7AU     AUL 3358  23.981  22.036   7.276
    7AU       S 3359  24.139  21.903   6.870
    7AU     LIG 3360  23.773  21.646   6.684
    7AU     LIG 3361  23.406  21.412   6.495
    7AU     LIG 3362  23.053  21.200   6.275
    7AU     LIG 3363  22.920  20.973   5.892
    7AU     LIG 3364  22.906  20.757   5.468
    7AU       S 3365  23.756  21.944   7.687
    7AU     LIG 3366  23.532  21.589   7.523
    7AU     LIG 3367  23.086  21.473   7.409
    7AU     LIG 3368  22.634  21.299   7.481
    7AU     LIG 3369  22.314  20.971   7.670
    7AU     LIG 3370  21.990  20.728   7.965
    7AU    AUSL 3371  24.311  22.352   7.724
    7AU    AUSL 3372  24.530  21.960   7.836
    7AU     AUL 3373  24.116  22.135   7.905
    7AU       S 3374  24.227  21.716   8.049
    7AU     LIG 3375  23.890  21.465   7.900
    7AU     LIG 3376  23.665  21.097   8.074
    7AU     LIG 3377  23.425  20.790   8.341
    7AU     LIG 3378  23.139  20.555   8.634
    7AU     LIG 3379  22.840  20.191   8.698
    7AU       S 3380  23.704  22.269   7.776
    7AU     LIG 3381  23.254  22.390   7.832
    7AU     LIG 3382  22.819  22.462   7.683
    7AU     LIG 3383  22.440  22.236   7.591
    7AU     LIG 3384  22.083  21.989   7.685
    7AU     LIG 3385  21.768  21.739   7.904
    7AU    AUSL 3386  25.017  23.169   7.884
    7AU    AUSL 3387  24.574  23.195   7.840
    7AU     AUL 3388  24.833  23.265   8.184
    7AU       S 3389  24.455  23.385   7.937
    7AU     LIG 3390  24.539  23.680   8.268
    7AU     LIG 3391  24.303  23.904   8.616
    7AU     LIG 3392  24.029  24.227   8.867
    7AU     LIG 3393  23.781  24.658   8.914
    7AU     LIG 3394  23.437  25.001   8.840
    7AU       S 3395  25.013  23.618   7.941
    7AU     LIG 3396  25.033  23.858   8.325
    7AU     LIG 3397  25.031  24.242   8.599
    7AU     LIG 3398  25.266  24.516   8.906
    7AU     LIG 3399  25.205  24.700   9.351
    7AU     LIG 3400  25.271  25.012   9.719
    7AU    AUSL 3401  24.821  23.410   7.561
    7AU    AUSL 3402  25.134  23.343   7.166
    7AU     AUL 3403  24.891  23.604   7.292
    7AU       S 3404  24.866  23.635   7.766
    7AU     LIG 3405  25.000  24.108   7.870
    7AU     LIG 3406  25.014  24.501   8.111
    7AU     LIG 3407  25.025  24.972   8.200
    7AU     LIG 3408  25.018  25.428   8.343
    7AU     LIG 3409  25.047  25.910   8.370
    7AU       S 3410  25.012  23.607   6.842
    7AU     LIG 3411  25.361  23.841   6.881
    7AU     LIG 3412  25.385  24.303   6.817
    7AU     LIG 3413  25.363  24.770   6.713
    7AU     LIG 3414  25.315  25.256   6.679
    7AU     LIG 3415  25.503  25.705   6.671
    7AU    AUSL 3416  25.279  23.348   7.578
    7AU    AUSL 3417  25.296  23.063   8.189
    7AU     AUL 3418  25.371  23.321   7.946
    7AU       S 3419  25.540  23.161   8.380
    7AU     LIG 3420  25.853  23.051   8.730
    7AU     LIG 3421  26.215  23.219   8.969
    7AU     LIG 3422  26.474  23.558   9.197
    7AU     LIG 3423  26.488  23.902   9.525
    7AU     LIG 3424  26.319  24.262   9.803
    7AU       S 3425  25.218  23.662   7.653
    7AU     LIG 3426  25.450  23.852   8.002
    7AU     LIG 3427  25.421  24.228   8.268
    7AU     LIG 3428  25.381  24.678   8.428
    7AU     LIG 3429  25.468  25.161   8.396
    7AU     LIG 3430  25.492  25.648   8.318
    7AU    AUSL 3431  24.942  21.804   7.955
    7AU    AUSL 3432  25.361  21.745   7.787
    7AU     AUL 3433  25.166  21.635   8.164
    7AU       S 3434  24.953  21.245   8.036
    7AU     LIG 3435  24.822  20.868   8.264
    7AU     LIG 3436  24.518  20.541   8.304
    7AU     LIG 3437  24.553  20.093   8.355
    7AU     LIG 3438  24.541  19.758   8.676
    7AU     LIG 3439  24.545  19.682   9.142
    7AU       S 3440  25.522  21.522   7.845
    7AU     LIG 3441  25.684  21.086   8.115
    7AU     LIG 3442  25.950  20.743   8.373
    7AU     LIG 3443  26.221  20.425   8.639
    7AU     LIG 3444  26.486  20.060   8.817
    7AU     LIG 3445  26.782  19.684   8.821
    7AU    AUSL 3446  24.610  21.566   7.709
    7AU    AUSL 3447  24.653  21.895   8.264
    7AU     AUL 3448  24.670  21.615   8.056
    7AU       S 3449  24.724  21.181   7.878
    7AU     LIG 3450  24.568  20.741   7.805
    7AU     LIG 3451  24.393  20.294   7.865
    7AU     LIG 3452  24.134  19.972   8.099
    7AU     LIG 3453  24.162  19.616   8.358
    7AU     LIG 3454  24.324  19.206   8.440
    7AU       S 3455  24.375  21.790   8.384
    7AU     LIG 3456  24.028  21.419   8.409
    7AU     LIG 3457  23.769  21.091   8.590
    7AU     LIG 3458  23.549  20.780   8.858
    7AU     LIG 3459  23.480  20.429   9.168
    7AU     LIG 3460  23.483  20.279   9.619
    7AU    AUSL 3461  25.043  21.497   7.646
    7AU    AUSL 3462  24.800  21.742   7.351
    7AU     AUL 3463  24.701  21.398   7.468
    7AU       S 3464  25.050  21.305   7.195
    7AU     LIG 3465  24.643  21.029   7.152
    7AU     LIG 3466  24.457  20.595   7.143
    7AU     LIG 3467  24.458  20.129   7.015
    7AU     LIG 3468  24.376  19.666   6.852
    7AU     LIG 3469  24.186  19.218   6.918
    7AU       S 3470  25.060  21.297   7.786
    7AU     LIG 3471  25.081  20.805   7.819
    7AU     LIG 3472  24.906  20.383   8.000
    7AU     LIG 3473  24.971  19.905   8.099
    7AU     LIG 3474  25.228  19.471   8.095
    7AU     LIG 3475  25.348  19.000   7.997
    7AU    AUSL 3476  24.944  23.110   6.836
    7AU    AUSL 3477  25.425  23.040   7.255
    7AU     AUL 3478  25.285  23.243   6.866
    7AU       S 3479  24.890  23.328   6.615
    7AU     LIG 3480  25.286  23.544   6.442
    7AU     LIG 3481  25.328  24.012   6.370
    7AU     LIG 3482  25.236  24.370   6.052
    7AU     LIG 3483  25.185  24.674   5.672
    7AU     LIG 3484  25.115  25.106   5.463
    7AU       S 3485  25.648  23.251   7.137
    7AU     LIG 3486  26.079  23.487   6.975
    7AU     LIG 3487  26.380  23.565   6.602
    7AU     LIG 3488  26.699  23.801   6.311
    7AU     LIG 3489  27.055  24.150   6.245
    7AU     LIG 3490  27.192  24.614   6.263
    7AU    AUSL 3491  24.787  23.101   7.275
    7AU    AUSL 3492  24.694  22.795   6.963
    7AU     AUL 3493  24.642  23.251   7.025
    7AU       S 3494  24.830  23.597   6.815
    7AU     LIG 3495  24.898  24.082   6.938
    7AU     LIG 3496  24.941  24.555   6.946
    7AU     LIG 3497  24.877  24.957   6.718
    7AU     LIG 3498  24.780  25.411   6.614
    7AU     LIG 3499  24.339  25.626   6.602
    7AU       S 3500  24.478  23.037   6.649
    7AU     LIG 3501  24.455  23.197   6.235
    7AU     LIG 3502  24.334  23.569   5.971
    7AU     LIG 3503  24.099  23.883   5.700
    7AU     LIG 3504  23.982  24.067   5.271
    7AU     LIG 3505  23.817  24.366   4.940
    7AU    AUSL 3506  24.997  21.698   6.945
    7AU    AUSL 3507  24.381  21.718   7.282
    7AU     AUL 3508  24.657  21.560   7.020
    7AU       S 3509  24.203  21.669   7.092
    7AU     LIG 3510  23.856  21.426   7.142
    7AU     LIG 3511  23.587  21.143   6.899
    7AU     LIG 3512  23.355  20.889   6.566
    7AU     LIG 3513  22.992  20.674   6.325
    7AU     LIG 3514  22.640  20.333   6.258
    7AU       S 3515  25.054  21.290   6.980
    7AU     LIG 3516  24.962  20.853   6.799
    7AU     LIG 3517  24.677  20.478   6.682
    7AU     LIG 3518  24.526  20.062   6.502
    7AU     LIG 3519  24.570  19.814   6.097
    7AU     LIG 3520  24.621  19.598   5.676
    7AU    AUSL 3521  25.233  21.723   7.333
    7AU    AUSL 3522  25.259  22.039   6.967
    7AU     AUL 3523  25.332  21.660   6.944
    7AU       S 3524  25.287  21.337   7.279
    7AU     LIG 3525  25.113  20.841   7.306
    7AU     LIG 3526  24.942  20.432   7.123
    7AU     LIG 3527  24.944  20.036   6.848
    7AU     LIG 3528  25.229  19.646   6.773
    7AU     LIG 3529  25.526  19.269   6.843
    7AU       S 3530  25.537  21.852   6.586
    7AU     LIG 3531  25.450  21.404   6.516
    7AU     LIG 3532  25.659  21.086   6.251
    7AU     LIG 3533  25.900  20.902   5.887
    7AU     LIG 3534  26.118  20.880   5.456
    7AU     LIG 3535  26.247  20.630   5.074
    8AU     AUC 3536  43.078   9.626   7.506
    8AU     AUC 3537  43.341   9.638   7.334
    8AU     AUC 3538  43.337   9.621   7.672
    8AU     AUC 3539  42.799   9.618   7.342
    8AU     AUC 3540  42.832   9.663   7.693
    8AU     AUC 3541  42.906   9.899   7.505
    8AU     AUC 3542  43.252   9.901   7.488
    8AU     AUC 3543  42.898   9.366   7.516
    8AU     AUC 3544  43.246   9.341   7.508
    8AU     AUC 3545  43.088   9.458   7.781
    8AU     AUC 3546  43.076   9.818   7.763
    8AU     AUC 3547  43.069   9.457   7.237
    8AU     AUC 3548  43.091   9.776   7.226
    8AU     AUC 3549  43.664   9.641   7.174
    8AU     AUC 3550  43.683   9.610   7.510
    8AU     AUC 3551  43.636   9.602   7.862
    8AU     AUC 3552  42.484   9.605   7.175
    8AU     AUC 3553  42.473   9.657   7.537
    8AU     AUC 3554  42.535   9.690   7.891
    8AU     AUC 3555  42.742  10.211   7.487
    8AU     AUC 3556  43.098  10.248   7.440
    8AU     AUC 3557  43.428  10.191   7.469
    8AU     AUC 3558  42.692   9.078   7.528
    8AU     AUC 3559  43.052   9.028   7.496
    8AU     AUC 3560  43.418   9.038   7.494
    8AU     AUC 3561  43.072   9.281   8.082
    8AU     AUC 3562  43.095   9.639   8.110
    8AU     AUC 3563  43.114   9.994   8.054
    8AU     AUC 3564  43.098   9.277   6.959
    8AU     AUC 3565  43.060   9.609   6.892
    8AU     AUC 3566  43.062   9.940   6.908
    8AU     AUC 3567  43.363   9.404   8.001
    8AU     AUC 3568  43.394   9.792   7.987
    8AU     AUC 3569  43.396   9.466   7.012
    8AU     AUC 3570  43.376   9.818   7.025
    8AU     AUC 3571  42.785   9.503   8.025
    8AU     AUC 3572  42.814   9.872   8.005
    8AU     AUC 3573  42.767   9.422   7.052
    8AU     AUC 3574  42.736   9.750   7.004
    8AU     AUC 3575  43.600   9.913   7.322
    8AU     AUC 3576  43.552   9.895   7.683
    8AU     AUC 3577  42.587   9.917   7.337
    8AU     AUC 3578  42.612   9.980   7.696
    8AU     AUC 3579  43.569   9.325   7.345
    8AU     AUC 3580  43.527   9.276   7.695
    8AU     AUC 3581  42.564   9.306   7.362
    8AU     AUC 3582  42.623   9.374   7.716
    8AU     AUC 3583  42.929  10.158   7.764
    8AU     AUC 3584  43.272  10.114   7.761
    8AU     AUC 3585  42.878   9.166   7.807
    8AU     AUC 3586  43.213   9.107   7.783
    8AU     AUC 3587  42.896  10.052   7.183
    8AU     AUC 3588  43.271  10.092   7.163
    8AU     AUC 3589  42.889   9.148   7.219
    8AU     AUC 3590  43.288   9.174   7.216
    8AU    AUSL 3591  43.648   9.540   8.235
    8AU    AUSL 3592  43.378   9.108   8.184
    8AU     AUL 3593  43.692   9.140   8.336
    8AU       S 3594  43.710   8.728   8.136
    8AU     LIG 3595  43.600   8.579   8.496
    8AU     LIG 3596  43.789   8.279   8.770
    8AU     LIG 3597  44.020   7.919   8.952
    8AU     LIG 3598  44.242   7.699   9.310
    8AU     LIG 3599  44.197   7.564   9.774
    8AU       S 3600  43.887   9.551   8.394
    8AU     LIG 3601  43.786   9.610   8.844
    8AU     LIG 3602  43.892   9.403   9.257
    8AU     LIG 3603  44.240   9.269   9.572
    8AU     LIG 3604  44.606   9.242   9.898
    8AU     LIG 3605  44.933   9.391  10.221
    8AU    AUSL 3606  43.249   9.449   8.420
    8AU    AUSL 3607  42.980   9.820   8.450
    8AU     AUL 3608  43.188   9.743   8.744
    8AU       S 3609  43.416   9.371   8.612
    8AU     LIG 3610  43.293   9.286   9.021
    8AU     LIG 3611  43.490   9.078   9.402
    8AU     LIG 3612  43.587   8.788   9.779
    8AU     LIG 3613  43.603   8.632  10.238
    8AU     LIG 3614  43.743   8.715  10.686
    8AU       S 3615  42.781   9.552   8.679
    8AU     LIG 3616  42.815   9.462   9.153
    8AU     LIG 3617  42.542   9.455   9.547
    8AU     LIG 3618  42.327   9.468   9.982
    8AU     LIG 3619  42.305   9.749  10.394
    8AU     LIG 3620  42.374  10.022  10.799
    8AU    AUSL 3621  43.294   9.822   8.160
    8AU    AUSL 3622  43.739   9.942   8.094
    8AU     AUL 3623  43.538   9.845   8.438
    8AU       S 3624  43.203  10.200   8.591
    8AU     LIG 3625  43.545  10.078   8.893
    8AU     LIG 3626  43.751  10.135   9.321
    8AU     LIG 3627  43.739  10.266   9.794
    8AU     LIG 3628  43.697  10.318  10.274
    8AU     LIG 3629  43.901  10.303  10.707
    8AU       S 3630  43.891  10.098   8.261
    8AU     LIG 3631  44.283  10.005   8.362
    8AU     LIG 3632  44.564  10.232   8.657
    8AU     LIG 3633  44.807  10.498   8.961
    8AU     LIG 3634   0.023  10.805   9.231
    8AU     LIG 3635   0.295  10.929   9.585
    8AU    AUSL 3636  43.518   9.683   6.885
    8AU    AUSL 3637  43.431  10.115   6.857
    8AU     AUL 3638  43.608  10.023   6.612
    8AU       S 3639  43.484   9.747   6.279
    8AU     LIG 3640  43.907   9.686   6.055
    8AU     LIG 3641  44.080   9.425   5.708
    8AU     LIG 3642  44.208   9.194   5.319
    8AU     LIG 3643  44.571   9.096   5.034
    8AU     LIG 3644  44.978   9.179   4.811
    8AU       S 3645  43.846  10.356   6.858
    8AU     LIG 3646  43.935  10.588   6.471
    8AU     LIG 3647  44.157  10.791   6.086
    8AU     LIG 3648  44.398  10.963   5.705
    8AU     LIG 3649  44.583  11.255   5.388
    8AU     LIG 3650  44.616  11.642   5.119
    8AU    AUSL 3651  43.357   9.411   6.577
    8AU    AUSL 3652  43.824   9.385   6.923
    8AU     AUL 3653  43.733   9.560   6.651
    8AU       S 3654  43.930   9.126   6.695
    8AU     LIG 3655  44.016   8.804   6.324
    8AU     LIG 3656  44.243   8.408   6.175
    8AU     LIG 3657  44.509   8.091   5.936
    8AU     LIG 3658  44.881   7.939   5.680
    8AU     LIG 3659   0.180   7.927   5.304
    8AU       S 3660  43.489   9.518   6.253
    8AU     LIG 3661  43.715   9.189   6.028
    8AU     LIG 3662  43.772   9.037   5.574
    8AU     LIG 3663  43.808   8.912   5.116
    8AU     LIG 3664  43.774   8.715   4.674
    8AU     LIG 3665  44.005   8.578   4.273
    8AU    AUSL 3666  43.166   9.821   6.665
    8AU    AUSL 3667  42.962   9.417   6.759
    8AU     AUL 3668  43.076   9.456   6.438
    8AU       S 3669  42.639   9.429   6.299
    8AU     LIG 3670  42.754   9.225   5.927
    8AU     LIG 3671  42.508   8.938   5.653
    8AU     LIG 3672  42.320   8.937   5.243
    8AU     LIG 3673  42.316   8.818   4.808
    8AU     LIG 3674  42.328   8.818   4.337
    8AU       S 3675  43.232   9.883   6.354
    8AU     LIG 3676  43.169   9.668   5.904
    8AU     LIG 3677  43.566   9.527   5.642
    8AU     LIG 3678  43.809   9.530   5.212
    8AU     LIG 3679  43.838   9.742   4.750
    8AU     LIG 3680  43.843   9.972   4.307
    8AU    AUSL 3681  42.570   9.766   8.291
    8AU    AUSL 3682  42.854  10.119   8.161
    8AU     AUL 3683  42.738  10.051   8.492
    8AU       S 3684  42.603   9.676   8.748
    8AU     LIG 3685  42.334   9.383   8.983
    8AU     LIG 3686  42.097   9.249   9.380
    8AU     LIG 3687  41.871   9.099   9.769
    8AU     LIG 3688  41.465   9.064  10.007
    8AU     LIG 3689  41.275   9.164  10.423
    8AU       S 3690  42.466  10.346   8.250
    8AU     LIG 3691  42.462  10.538   8.655
    8AU     LIG 3692  42.353  10.764   9.057
    8AU     LIG 3693  42.091  10.995   9.367
    8AU     LIG 3694  41.967  11.122   9.808
    8AU     LIG 3695  41.847  11.440  10.144
    8AU    AUSL 3696  42.881   9.468   8.190
    8AU    AUSL 3697  42.427   9.383   8.122
    8AU     AUL 3698  42.429   9.503   8.358
    8AU       S 3699  42.274   9.058   8.290
    8AU     LIG 3700  41.850   9.044   8.195
    8AU     LIG 3701  41.603   8.682   8.326
    8AU     LIG 3702  41.363   8.411   8.623
    8AU     LIG 3703  41.136   8.175   8.950
    8AU     LIG 3704  40.822   8.105   9.285
    8AU       S 3705  42.817   9.388   8.594
    8AU     LIG 3706  42.715   9.053   8.857
    8AU     LIG 3707  42.551   9.003   9.293
    8AU     LIG 3708  42.381   8.989   9.743
    8AU     LIG 3709  42.166   8.900  10.163
    8AU     LIG 3710  42.033   8.874  10.624
    8AU    AUSL 3711  42.523   9.463   6.782
    8AU    AUSL 3712  42.737   9.100   6.948
    8AU     AUL 3713  42.776   9.130   6.631
    8AU       S 3714  42.460   9.353   6.370
    8AU     LIG 3715  42.238   9.255   5.978
    8AU     LIG 3716  42.008   9.154   5.585
    8AU     LIG 3717  41.809   9.063   5.162
    8AU     LIG 3718  41.412   9.051   4.889
    8AU     LIG 3719  41.079   9.063   4.548
    8AU       S 3720  42.379   8.960   6.797
    8AU     LIG 3721  42.141   8.600   6.630
    8AU     LIG 3722  41.825   8.310   6.465
    8AU     LIG 3723  41.626   8.061   6.127
    8AU     LIG 3724  41.492   7.947   5.695
    8AU     LIG 3725  41.348   7.631   5.387
    8AU    AUSL 3726  42.744   9.787   6.588
    8AU    AUSL 3727  42.386   9.869   6.915
    8AU     AUL 3728  42.318   9.677   6.657
    8AU       S 3729  42.399  10.125   6.664
    8AU     LIG 3730  42.011  10.277   6.561
    8AU     LIG 3731  41.865  10.537   6.216
    8AU     LIG 3732  41.729  10.710   5.802
    8AU     LIG 3733  41.426  10.828   5.453
    8AU     LIG 3734  40.989  10.773   5.238
    8AU       S 3735  42.677   9.713   6.340
    8AU     LIG 3736  42.521   9.689   5.890
    8AU     LIG 3737  42.446   9.425   5.504
    8AU     LIG 3738  42.374   9.410   5.031
    8AU     LIG 3739  42.433   9.663   4.618
    8AU     LIG 3740  42.528   9.925   4.217
    8AU    AUSL 3741  43.880  10.131   7.495
    8AU    AUSL 3742  43.810   9.943   7.069
    8AU     AUL 3743  44.140  10.253   7.268
    8AU       S 3744  43.911  10.037   6.949
    8AU     LIG 3745  44.109  10.068   6.531
    8AU     LIG 3746  44.378  10.359   6.282
    8AU     LIG 3747  44.648  10.628   6.008
    8AU     LIG 3748  44.894  10.762   5.625
    8AU     LIG 3749   0.350  10.786   5.470
    8AU       S 3750  44.268  10.005   7.653
    8AU     LIG 3751  44.698  10.214   7.587
    8AU     LIG 3752   0.171  10.340   7.536
    8AU     LIG 3753   0.637  10.472   7.517
    8AU     LIG 3754   0.997  10.778   7.574
    8AU     LIG 3755   1.058  11.152   7.861
    8AU    AUSL 3756  44.048   9.716   7.351
    8AU    AUSL 3757  44.008   9.392   7.699
    8AU     AUL 3758  44.337   9.455   7.595
    8AU       S 3759  44.190   9.811   7.375
    8AU     LIG 3760  44.657   9.760   7.369
    8AU     LIG 3761   0.105   9.897   7.290
    8AU     LIG 3762   0.493  10.140   7.140
    8AU     LIG 3763   0.932  10.265   6.926
    8AU     LIG 3764   1.419  10.314   6.777
    8AU       S 3765  44.250   8.987   7.687
    8AU     LIG 3766  44.673   8.828   7.726
    8AU     LIG 3767   0.096   8.637   7.746
    8AU     LIG 3768   0.543   8.472   7.727
    8AU     LIG 3769   1.022   8.528   7.748
    8AU     LIG 3770   1.389   8.697   7.985
    8AU    AUSL 3771  43.782   9.759   7.712
    8AU    AUSL 3772  43.535  10.157   7.763
    8AU     AUL 3773  43.869  10.201   7.804
    8AU       S 3774  43.860  10.397   8.220
    8AU     LIG 3775  44.256  10.527   8.362
    8AU     LIG 3776  44.506  10.772   8.654
    8AU     LIG 3777  44.797  11.075   8.845
    8AU     LIG 3778  44.942  11.514   8.797
    8AU     LIG 3779   0.122  11.942   8.785
    8AU       S 3780  44.133   9.824   7.823
    8AU     LIG 3781  44.606   9.823   7.955
    8AU     LIG 3782   0.053   9.899   7.806
    8AU     LIG 3783   0.522  10.016   7.758
    8AU     LIG 3784   0.979  10.079   7.947
    8AU     LIG 3785   1.340  10.343   8.152
    8AU    AUSL 3786  42.407  10.201   7.534
    8AU    AUSL 3787  42.512   9.968   7.915
    8AU     AUL 3788  42.189  10.302   7.778
    8AU       S 3789  42.347  10.146   8.178
    8AU     LIG 3790  42.242  10.056   8.612
    8AU     LIG 3791  42.071  10.343   8.941
    8AU     LIG 3792  41.793  10.624   9.181
    8AU     LIG 3793  41.414  10.738   9.448
    8AU     LIG 3794  41.019  10.902   9.659
    8AU       S 3795  42.420  10.580   7.456
    8AU     LIG 3796  41.962  10.533   7.344
    8AU     LIG 3797  41.545  10.779   7.422
    8AU     LIG 3798  41.171  11.087   7.362
    8AU     LIG 3799  40.752  11.324   7.419
    8AU     LIG 3800  40.396  11.513   7.636
    8AU    AUSL 3801  42.370   9.811   7.337
    8AU    AUSL 3802  42.493  10.258   7.117
    8AU     AUL 3803  42.198  10.118   7.173
    8AU       S 3804  41.968   9.692   7.006
    8AU     LIG 3805  41.607   9.977   7.127
    8AU     LIG 3806  41.127  10.074   7.048
    8AU     LIG 3807  40.760  10.315   6.831
    8AU     LIG 3808  40.265  10.263   6.819
    8AU     LIG 3809  39.832  10.441   6.943
    8AU       S 3810  42.304  10.515   6.912
    8AU     LIG 3811  42.102  10.798   6.608
    8AU     LIG 3812  42.156  11.176   6.348
    8AU     LIG 3813  41.917  11.576   6.279
    8AU     LIG 3814  41.638  11.970   6.251
    8AU     LIG 3815  41.343  12.273   6.044
    8AU    AUSL 3816  42.141   9.849   7.737
    8AU    AUSL 3817  42.101   9.484   7.398
    8AU     AUL 3818  41.986   9.816   7.464
    8AU       S 3819  41.830   9.375   7.610
    8AU     LIG 3820  41.435   9.185   7.391
    8AU     LIG 3821  40.979   9.066   7.268
    8AU     LIG 3822  40.499   8.974   7.249
    8AU     LIG 3823  40.046   8.887   7.177
    8AU     LIG 3824  39.793   8.835   6.769
    8AU       S 3825  42.057   9.794   7.982
    8AU     LIG 3826  41.677  10.038   7.845
    8AU     LIG 3827  41.350  10.339   8.018
    8AU     LIG 3828  40.926  10.370   8.224
    8AU     LIG 3829  40.460  10.445   8.278
    8AU     LIG 3830  40.029  10.262   8.188
    8AU    AUSL 3831  43.782   9.043   7.547
    8AU    AUSL 3832  43.616   9.318   7.873
    8AU     AUL 3833  43.944   9.229   7.934
    8AU       S 3834  43.962   8.897   7.541
    8AU     LIG 3835  44.255   8.523   7.444
    8AU     LIG 3836  44.702   8.387   7.457
    8AU     LIG 3837   0.143   8.220   7.452
    8AU     LIG 3838   0.566   8.008   7.471
    8AU     LIG 3839   0.689   7.557   7.590
    8AU       S 3840  43.854   8.791   8.009
    8AU     LIG 3841  44.092   8.477   8.310
    8AU     LIG 3842  44.299   8.253   8.663
    8AU     LIG 3843  44.539   7.991   8.975
    8AU     LIG 3844  44.888   8.003   9.290
    8AU     LIG 3845   0.233   8.218   9.545
    8AU    AUSL 3846  43.736   9.426   7.339
    8AU    AUSL 3847  43.711   9.001   7.121
    8AU     AUL 3848  43.993   9.236   7.188
    8AU       S 3849  44.243   9.008   7.476
    8AU     LIG 3850  44.600   8.867   7.222
    8AU     LIG 3851   0.047   8.701   7.234
    8AU     LIG 3852   0.488   8.521   7.223
    8AU     LIG 3853   0.945   8.424   7.253
    8AU     LIG 3854   1.357   8.489   7.045
    8AU       S 3855  43.910   8.886   6.845
    8AU     LIG 3856  44.009   8.429   6.682
    8AU     LIG 3857  44.133   8.001   6.472
    8AU     LIG 3858  44.396   7.671   6.240
    8AU     LIG 3859  44.700   7.280   6.239
    8AU     LIG 3860   0.122   7.058   6.283
    8AU    AUSL 3861  42.286   9.115   7.577
    8AU    AUSL 3862  42.446   9.340   7.185
    8AU     AUL 3863  42.090   9.205   7.259
    8AU       S 3864  42.260   9.090   6.854
    8AU     LIG 3865  41.848   9.025   6.724
    8AU     LIG 3866  41.532   8.695   6.658
    8AU     LIG 3867  41.303   8.376   6.389
    8AU     LIG 3868  41.123   8.151   6.005
    8AU     LIG 3869  40.984   7.995   5.570
    8AU       S 3870  41.866   9.109   7.670
    8AU     LIG 3871  41.667   8.741   7.532
    8AU     LIG 3872  41.284   8.632   7.297
    8AU     LIG 3873  40.807   8.584   7.385
    8AU     LIG 3874  40.334   8.536   7.487
    8AU     LIG 3875  40.111   8.294   7.805
    8AU    AUSL 3876  42.410   9.523   7.717
    8AU    AUSL 3877  42.630   9.132   7.832
    8AU     AUL 3878  42.219   9.298   7.896
    8AU       S 3879  42.320   8.886   8.063
    8AU     LIG 3880  41.979   8.619   7.940
    8AU     LIG 3881  41.703   8.258   8.054
    8AU     LIG 3882  41.456   7.983   8.351
    8AU     LIG 3883  41.196   7.742   8.667
    8AU     LIG 3884  40.847   7.438   8.786
    8AU       S 3885  41.809   9.441   7.762
    8AU     LIG 3886  41.456   9.683   7.531
    8AU     LIG 3887  41.024   9.526   7.507
    8AU     LIG 3888  40.693   9.215   7.671
    8AU     LIG 3889  40.266   9.021   7.705
    8AU     LIG 3890  39.897   8.773   7.889
    8AU    AUSL 3891  43.119  10.322   7.887
    8AU    AUSL 3892  42.672  10.367   7.838
    8AU     AUL 3893  42.934  10.441   8.179
    8AU       S 3894  42.541  10.569   7.956
    8AU     LIG 3895  42.218  10.777   8.248
    8AU     LIG 3896  42.036  10.891   8.680
    8AU     LIG 3897  41.888  11.275   8.940
    8AU     LIG 3898  41.680  11.731   8.928
    8AU     LIG 3899  41.332  12.081   8.908
    8AU       S 3900  43.145  10.787   7.949
    8AU     LIG 3901  43.292  10.850   8.339
    8AU     LIG 3902  43.359  11.290   8.504
    8AU     LIG 3903  43.254  11.683   8.775
    8AU     LIG 3904  43.126  11.973   9.157
    8AU     LIG 3905  43.016  12.383   9.399
    8AU    AUSL 3906  42.931  10.587   7.578
    8AU    AUSL 3907  43.238  10.531   7.183
    8AU     AUL 3908  42.970  10.789   7.326
    8AU       S 3909  42.979  10.801   7.802
    8AU     LIG 3910  43.054  11.256   8.054
    8AU     LIG 3911  43.112  11.691   8.260
    8AU     LIG 3912  42.896  12.124   8.359
    8AU     LIG 3913  42.746  12.593   8.383
    8AU     LIG 3914  42.579  13.036   8.286
    8AU       S 3915  43.183  10.822   6.916
    8AU     LIG 3916  43.584  10.998   6.869
    8AU     LIG 3917  43.663  11.453   6.795
    8AU     LIG 3918  43.949  11.824   6.886
    8AU     LIG 3919  44.202  12.200   6.814
    8AU     LIG 3920  44.293  12.572   6.571
    8AU    AUSL 3921  43.385  10.521   7.594
    8AU    AUSL 3922  43.407  10.234   8.188
    8AU     AUL 3923  43.488  10.481   7.945
    8AU       S 3924  43.640  10.324   8.387
    8AU     LIG 3925  43.987  10.273   8.722
    8AU     LIG 3926  44.274  10.482   9.013
    8AU     LIG 3927  44.499  10.847   9.201
    8AU     LIG 3928  44.723  11.109   9.529
    8AU     LIG 3929  44.716  11.313   9.960
    8AU       S 3930  43.330  10.838   7.672
    8AU     LIG 3931  43.548  11.131   7.991
    8AU     LIG 3932  43.655  11.579   8.163
    8AU     LIG 3933  43.958  11.989   8.158
    8AU     LIG 3934  44.123  12.463   8.100
    8AU     LIG 3935  44.165  12.942   8.192
    8AU    AUSL 3936  43.037   8.970   7.946
    8AU    AUSL 3937  43.457   8.914   7.795
    8AU     AUL 3938  43.253   8.812   8.170
    8AU       S 3939  43.056   8.425   8.014
    8AU     LIG 3940  42.926   8.171   8.332
    8AU     LIG 3941  42.739   7.780   8.435
    8AU     LIG 3942  42.725   7.336   8.478
    8AU     LIG 3943  42.782   6.943   8.693
    8AU     LIG 3944  42.821   6.840   9.158
    8AU       S 3945  43.604   8.701   7.851
    8AU     LIG 3946  43.631   8.250   8.075
    8AU     LIG 3947  43.939   7.986   8.371
    8AU     LIG 3948  44.318   7.740   8.568
    8AU     LIG 3949  44.658   7.432   8.739
    8AU     LIG 3950   0.006   7.075   8.719
    8AU    AUSL 3951  42.712   8.744   7.686
    8AU    AUSL 3952  42.757   9.069   8.258
    8AU     AUL 3953  42.761   8.786   8.041
    8AU       S 3954  42.826   8.358   7.857
    8AU     LIG 3955  42.632   7.947   7.953
    8AU     LIG 3956  42.463   7.519   8.066
    8AU     LIG 3957  42.442   7.049   8.152
    8AU     LIG 3958  42.324   6.616   8.296
    8AU     LIG 3959  42.077   6.209   8.303
    8AU       S 3960  42.492   8.973   8.390
    8AU     LIG 3961  42.134   8.614   8.449
    8AU     LIG 3962  41.856   8.268   8.552
    8AU     LIG 3963  41.617   8.002   8.846
    8AU     LIG 3964  41.382   7.764   9.171
    8AU     LIG 3965  41.432   7.548   9.588
    8AU    AUSL 3966  43.146   8.674   7.627
    8AU    AUSL 3967  42.913   8.926   7.337
    8AU     AUL 3968  42.813   8.576   7.445
    8AU       S 3969  43.170   8.487   7.180
    8AU     LIG 3970  42.799   8.168   7.169
    8AU     LIG 3971  42.558   7.784   7.034
    8AU     LIG 3972  42.490   7.338   6.876
    8AU     LIG 3973  42.238   6.915   6.882
    8AU     LIG 3974  42.149   6.480   6.725
    8AU       S 3975  43.162   8.458   7.770
    8AU     LIG 3976  43.145   7.955   7.867
    8AU     LIG 3977  42.982   7.517   8.045
    8AU     LIG 3978  42.958   7.019   8.145
    8AU     LIG 3979  42.934   6.519   8.142
    8AU     LIG 3980  43.150   6.117   8.321
    8AU    AUSL 3981  43.046  10.316   6.842
    8AU    AUSL 3982  43.531  10.227   7.263
    8AU     AUL 3983  43.390  10.423   6.866
    8AU       S 3984  43.004  10.574   6.640
    8AU     LIG 3985  43.367  10.807   6.448
    8AU     LIG 3986  43.505  11.247   6.340
    8AU     LIG 3987  43.375  11.650   6.123
    8AU     LIG 3988  43.238  11.915   5.744
    8AU     LIG 3989  43.051  12.320   5.584
    8AU       S 3990  43.743  10.442   7.150
    8AU     LIG 3991  44.133  10.732   6.948
    8AU     LIG 3992  44.405  10.823   6.542
    8AU     LIG 3993  44.570  11.124   6.189
    8AU     LIG 3994  44.766  11.558   6.037
    8AU     LIG 3995   0.107  11.845   5.828
    8AU    AUSL 3996  42.887  10.289   7.281
    8AU    AUSL 3997  42.805   9.990   6.957
    8AU     AUL 3998  42.748  10.448   7.028
    8AU       S 3999  42.975  10.797   6.849
    8AU     LIG 4000  43.139  11.252   6.695
    8AU     LIG 4001  43.173  11.709   6.613
    8AU     LIG 4002  42.884  12.104   6.608
    8AU     LIG 4003  42.737  12.551   6.600
    8AU     LIG 4004  42.702  13.009   6.535
    8AU       S 4005  42.593  10.239   6.645
    8AU     LIG 4006  42.404  10.517   6.304
    8AU     LIG 4007  42.215  10.820   5.968
    8AU     LIG 4008  42.069  11.004   5.535
    8AU     LIG 4009  42.104  11.247   5.115
    8AU     LIG 4010  41.923  11.539   4.793
    8AU    AUSL 4011  43.113   8.886   6.935
    8AU    AUSL 4012  42.494   8.897   7.261
    8AU     AUL 4013  42.769   8.748   7.001
    8AU       S 4014  42.306   8.839   7.059
    8AU     LIG 4015  41.882   8.652   7.073
    8AU     LIG 4016  41.613   8.282   6.947
    8AU     LIG 4017  41.476   7.952   6.624
    8AU     LIG 4018  41.252   7.717   6.268
    8AU     LIG 4019  41.025   7.314   6.112
    8AU       S 4020  43.172   8.486   6.987
    8AU     LIG 4021  43.137   8.054   6.807
    8AU     LIG 4022  42.881   7.675   6.649
    8AU     LIG 4023  42.779   7.264   6.426
    8AU     LIG 4024  42.852   7.003   6.022
    8AU     LIG 4025  43.062   6.876   5.603
    8AU    AUSL 4026  43.350   8.902   7.323
    8AU    AUSL 4027  43.371   9.231   6.962
    8AU     AUL 4028  43.450   8.854   6.931
    8AU       S 4029  43.422   8.537   7.276
    8AU     LIG 4030  43.269   8.049   7.357
    8AU     LIG 4031  43.049   7.667   7.150
    8AU     LIG 4032  43.005   7.241   6.910
    8AU     LIG 4033  43.115   6.774   6.798
    8AU     LIG 4034  43.351   6.336   6.789
    8AU       S 4035  43.676   9.065   6.597
    8AU     LIG 4036  43.565   8.623   6.501
    8AU     LIG 4037  43.748   8.269   6.246
    8AU     LIG 4038  44.002   7.981   5.949
    8AU     LIG 4039  44.111   7.843   5.491
    8AU     LIG 4040  44.185   7.639   5.053
    9AU     AUC 4041  15.236  21.567   7.510
    9AU     AUC 4042  15.512  21.572   7.342
    9AU     AUC 4043  15.496  21.558   7.676
    9AU     AUC 4044  14.956  21.562   7.349
    9AU     AUC 4045  14.981  21.604   7.697
    9AU     AUC 4046  15.066  21.838   7.511
    9AU     AUC 4047  15.415  21.837   7.496
    9AU     AUC 4048  15.050  21.310   7.522
    9AU     AUC 4049  15.402  21.285   7.509
    9AU     AUC 4050  15.245  21.395   7.782
    9AU     AUC 4051  15.232  21.757   7.766
    9AU     AUC 4052  15.225  21.401   7.242
    9AU     AUC 4053  15.257  21.717   7.232
    9AU     AUC 4054  15.838  21.570   7.181
    9AU     AUC 4055  15.850  21.547   7.518
    9AU     AUC 4056  15.795  21.533   7.870
    9AU     AUC 4057  14.642  21.560   7.184
    9AU     AUC 4058  14.628  21.603   7.547
    9AU     AUC 4059  14.688  21.635   7.891
    9AU     AUC 4060  14.909  22.159   7.492
    9AU     AUC 4061  15.267  22.187   7.445
    9AU     AUC 4062  15.595  22.127   7.479
    9AU     AUC 4063  14.840  21.025   7.531
    9AU     AUC 4064  15.198  20.971   7.494
    9AU     AUC 4065  15.570  20.977   7.489
    9AU     AUC 4066  15.230  21.216   8.081
    9AU     AUC 4067  15.247  21.575   8.111
    9AU     AUC 4068  15.268  21.930   8.059
    9AU     AUC 4069  15.249  21.223   6.963
    9AU     AUC 4070  15.228  21.555   6.899
    9AU     AUC 4071  15.237  21.882   6.917
    9AU     AUC 4072  15.518  21.336   7.999
    9AU     AUC 4073  15.546  21.725   7.994
    9AU     AUC 4074  15.556  21.400   7.018
    9AU     AUC 4075  15.550  21.752   7.036
    9AU     AUC 4076  14.942  21.445   8.032
    9AU     AUC 4077  14.969  21.817   8.007
    9AU     AUC 4078  14.922  21.376   7.060
    9AU     AUC 4079  14.901  21.702   7.009
    9AU     AUC 4080  15.770  21.848   7.336
    9AU     AUC 4081  15.712  21.830   7.696
    9AU     AUC 4082  14.749  21.870   7.344
    9AU     AUC 4083  14.771  21.926   7.699
    9AU     AUC 4084  15.728  21.263   7.342
    9AU     AUC 4085  15.691  21.220   7.682
    9AU     AUC 4086  14.710  21.263   7.377
    9AU     AUC 4087  14.774  21.323   7.727
    9AU     AUC 4088  15.089  22.100   7.769
    9AU     AUC 4089  15.431  22.050   7.769
    9AU     AUC 4090  15.035  21.106   7.808
    9AU     AUC 4091  15.368  21.045   7.779
    9AU     AUC 4092  15.066  21.993   7.190
    9AU     AUC 4093  15.449  22.024   7.168
    9AU     AUC 4094  15.033  21.096   7.223
    9AU     AUC 4095  15.435  21.113   7.218
    9AU    AUSL 4096  15.797  21.467   8.236
    9AU    AUSL 4097  15.536  21.036   8.178
    9AU     AUL 4098  15.851  21.070   8.330
    9AU       S 4099  15.872  20.666   8.118
    9AU     LIG 4100  15.751  20.534   8.487
    9AU     LIG 4101  15.925  20.213   8.747
    9AU     LIG 4102  16.091  19.821   8.923
    9AU     LIG 4103  16.220  19.555   9.280
    9AU     LIG 4104  16.212  19.521   9.758
    9AU       S 4105  16.037  21.482   8.405
    9AU     LIG 4106  15.922  21.527   8.858
    9AU     LIG 4107  15.992  21.310   9.279
    9AU     LIG 4108  16.295  21.128   9.614
    9AU     LIG 4109  16.687  21.026   9.882
    9AU     LIG 4110  17.047  21.145  10.168
    9AU    AUSL 4111  15.393  21.372   8.417
    9AU    AUSL 4112  15.132  21.756   8.453
    9AU     AUL 4113  15.329  21.660   8.744
    9AU       S 4114  15.565  21.291   8.607
    9AU     LIG 4115  15.407  21.231   9.011
    9AU     LIG 4116  15.539  21.082   9.429
    9AU     LIG 4117  15.826  20.965   9.785
    9AU     LIG 4118  15.995  20.732  10.169
    9AU     LIG 4119  16.247  20.517  10.524
    9AU       S 4120  14.916  21.481   8.667
    9AU     LIG 4121  14.925  21.398   9.153
    9AU     LIG 4122  14.689  21.339   9.572
    9AU     LIG 4123  14.496  21.472   9.995
    9AU     LIG 4124  14.477  21.819  10.356
    9AU     LIG 4125  14.508  22.134  10.734
    9AU    AUSL 4126  15.445  21.751   8.163
    9AU    AUSL 4127  15.887  21.878   8.114
    9AU     AUL 4128  15.684  21.771   8.448
    9AU       S 4129  15.359  22.124   8.611
    9AU     LIG 4130  15.700  22.006   8.904
    9AU     LIG 4131  15.890  22.103   9.336
    9AU     LIG 4132  15.866  22.270   9.798
    9AU     LIG 4133  15.834  22.367  10.272
    9AU     LIG 4134  15.916  22.295  10.739
    9AU       S 4135  16.037  22.026   8.272
    9AU     LIG 4136  16.462  22.073   8.303
    9AU     LIG 4137  16.717  22.290   8.630
    9AU     LIG 4138  16.920  22.527   8.987
    9AU     LIG 4139  17.080  22.764   9.367
    9AU     LIG 4140  17.426  22.805   9.691
    9AU    AUSL 4141  15.695  21.617   6.898
    9AU    AUSL 4142  15.624  22.052   6.858
    9AU     AUL 4143  15.800  21.946   6.625
    9AU       S 4144  15.639  21.695   6.289
    9AU     LIG 4145  16.059  21.626   6.047
    9AU     LIG 4146  16.186  21.362   5.687
    9AU     LIG 4147  16.313  21.156   5.284
    9AU     LIG 4148  16.673  21.101   4.972
    9AU     LIG 4149  17.050  21.290   4.746
    9AU       S 4150  16.027  22.283   6.880
    9AU     LIG 4151  16.083  22.548   6.483
    9AU     LIG 4152  16.307  22.767   6.090
    9AU     LIG 4153  16.522  22.864   5.663
    9AU     LIG 4154  16.819  23.051   5.346
    9AU     LIG 4155  16.908  23.388   5.033
    9AU    AUSL 4156  15.524  21.355   6.586
    9AU    AUSL 4157  15.964  21.283   6.908
    9AU     AUL 4158  15.900  21.478   6.654
    9AU       S 4159  16.059  21.021   6.661
    9AU     LIG 4160  16.169  20.642   6.344
    9AU     LIG 4161  16.372  20.214   6.285
    9AU     LIG 4162  16.628  19.932   6.007
    9AU     LIG 4163  16.945  19.932   5.654
    9AU     LIG 4164  17.243  20.171   5.358
    9AU       S 4165  15.648  21.483   6.260
    9AU     LIG 4166  15.788  21.160   5.976
    9AU     LIG 4167  15.850  21.012   5.515
    9AU     LIG 4168  15.910  20.889   5.054
    9AU     LIG 4169  15.892  20.692   4.606
    9AU     LIG 4170  16.033  20.731   4.143
    9AU    AUSL 4171  15.340  21.764   6.687
    9AU    AUSL 4172  15.123  21.365   6.758
    9AU     AUL 4173  15.244  21.395   6.449
    9AU       S 4174  14.811  21.393   6.298
    9AU     LIG 4175  14.964  21.222   5.917
    9AU     LIG 4176  14.763  20.946   5.598
    9AU     LIG 4177  14.542  20.930   5.185
    9AU     LIG 4178  14.292  20.746   4.835
    9AU     LIG 4179  14.197  20.669   4.390
    9AU       S 4180  15.397  21.831   6.387
    9AU     LIG 4181  15.305  21.624   5.928
    9AU     LIG 4182  15.668  21.500   5.603
    9AU     LIG 4183  15.868  21.419   5.158
    9AU     LIG 4184  15.880  21.560   4.677
    9AU     LIG 4185  16.026  21.792   4.273
    9AU    AUSL 4186  14.723  21.710   8.287
    9AU    AUSL 4187  15.012  22.062   8.168
    9AU     AUL 4188  14.890  21.985   8.498
    9AU       S 4189  14.740  21.601   8.732
    9AU     LIG 4190  14.513  21.223   8.878
    9AU     LIG 4191  14.327  21.094   9.292
    9AU     LIG 4192  14.142  21.171   9.720
    9AU     LIG 4193  13.789  21.168  10.050
    9AU     LIG 4194  13.413  21.247  10.334
    9AU       S 4195  14.634  22.297   8.261
    9AU     LIG 4196  14.611  22.511   8.670
    9AU     LIG 4197  14.489  22.720   9.078
    9AU     LIG 4198  14.179  22.929   9.363
    9AU     LIG 4199  14.007  23.017   9.801
    9AU     LIG 4200  14.095  23.170  10.249
    9AU    AUSL 4201  15.029  21.412   8.184
    9AU    AUSL 4202  14.589  21.305   8.152
    9AU     AUL 4203  14.544  21.503   8.328
    9AU       S 4204  14.462  21.039   8.381
    9AU     LIG 4205  14.022  20.981   8.255
    9AU     LIG 4206  13.785  20.585   8.356
    9AU     LIG 4207  13.566  20.187   8.509
    9AU     LIG 4208  13.345  19.953   8.849
    9AU     LIG 4209  13.048  19.987   9.210
    9AU       S 4210  14.932  21.344   8.571
    9AU     LIG 4211  14.970  20.987   8.850
    9AU     LIG 4212  14.811  20.904   9.291
    9AU     LIG 4213  14.563  20.846   9.705
    9AU     LIG 4214  14.296  20.870  10.104
    9AU     LIG 4215  14.067  20.686  10.470
    9AU    AUSL 4216  14.690  21.438   6.797
    9AU    AUSL 4217  14.886  21.063   6.956
    9AU     AUL 4218  14.916  21.092   6.640
    9AU       S 4219  14.636  21.332   6.354
    9AU     LIG 4220  14.453  21.221   5.955
    9AU     LIG 4221  14.253  21.079   5.581
    9AU     LIG 4222  14.007  20.932   5.232
    9AU     LIG 4223  13.610  21.044   5.042
    9AU     LIG 4224  13.394  21.335   4.747
    9AU       S 4225  14.509  20.932   6.795
    9AU     LIG 4226  14.270  20.548   6.645
    9AU     LIG 4227  14.051  20.213   6.395
    9AU     LIG 4228  13.837  19.927   6.079
    9AU     LIG 4229  13.715  19.704   5.685
    9AU     LIG 4230  13.812  19.590   5.231
    9AU    AUSL 4231  14.921  21.746   6.587
    9AU    AUSL 4232  14.542  21.842   6.920
    9AU     AUL 4233  14.498  21.645   6.653
    9AU       S 4234  14.561  22.093   6.673
    9AU     LIG 4235  14.217  22.183   6.406
    9AU     LIG 4236  14.047  22.454   6.051
    9AU     LIG 4237  13.822  22.555   5.635
    9AU     LIG 4238  13.448  22.567   5.334
    9AU     LIG 4239  13.036  22.761   5.170
    9AU       S 4240  14.864  21.681   6.343
    9AU     LIG 4241  14.712  21.682   5.901
    9AU     LIG 4242  14.641  21.434   5.503
    9AU     LIG 4243  14.603  21.441   5.026
    9AU     LIG 4244  14.568  21.710   4.620
    9AU     LIG 4245  14.525  22.053   4.278
    9AU    AUSL 4246  16.042  22.069   7.518
    9AU    AUSL 4247  15.987  21.867   7.094
    9AU     AUL 4248  16.311  22.170   7.295
    9AU       S 4249  16.097  21.961   6.964
    9AU     LIG 4250  16.302  22.051   6.537
    9AU     LIG 4251  16.566  22.382   6.313
    9AU     LIG 4252  16.841  22.563   5.954
    9AU     LIG 4253  17.256  22.552   5.682
    9AU     LIG 4254  17.640  22.509   5.379
    9AU       S 4255  16.424  21.957   7.705
    9AU     LIG 4256  16.879  22.090   7.567
    9AU     LIG 4257  17.351  22.219   7.495
    9AU     LIG 4258  17.764  22.449   7.571
    9AU     LIG 4259  17.927  22.887   7.685
    9AU     LIG 4260  17.805  23.285   7.466
    9AU    AUSL 4261  16.228  21.660   7.393
    9AU    AUSL 4262  16.166  21.331   7.709
    9AU     AUL 4263  16.520  21.436   7.745
    9AU       S 4264  16.364  21.732   7.441
    9AU     LIG 4265  16.816  21.618   7.388
    9AU     LIG 4266  17.287  21.722   7.345
    9AU     LIG 4267  17.746  21.789   7.211
    9AU     LIG 4268  18.137  21.961   6.970
    9AU     LIG 4269  18.575  22.163   6.891
    9AU       S 4270  16.413  21.032   7.544
    9AU     LIG 4271  16.857  20.909   7.593
    9AU     LIG 4272  17.218  20.604   7.688
    9AU     LIG 4273  17.665  20.439   7.750
    9AU     LIG 4274  18.109  20.553   7.831
    9AU     LIG 4275  18.527  20.480   7.998
    9AU    AUSL 4276  15.937  21.696   7.732
    9AU    AUSL 4277  15.691  22.093   7.779
    9AU     AUL 4278  16.011  22.153   7.818
    9AU       S 4279  16.005  22.333   8.240
    9AU     LIG 4280  16.332  22.575   8.423
    9AU     LIG 4281  16.596  22.818   8.703
    9AU     LIG 4282  16.886  23.059   8.941
    9AU     LIG 4283  16.985  23.498   8.868
    9AU     LIG 4284  17.118  23.922   8.948
    9AU       S 4285  16.273  21.786   7.865
    9AU     LIG 4286  16.790  21.785   7.980
    9AU     LIG 4287  17.267  21.842   7.845
    9AU     LIG 4288  17.750  21.931   7.710
    9AU     LIG 4289  18.174  22.193   7.748
    9AU     LIG 4290  18.608  22.147   7.925
    9AU    AUSL 4291  14.574  22.149   7.535
    9AU    AUSL 4292  14.669  21.920   7.917
    9AU     AUL 4293  14.355  22.258   7.788
    9AU       S 4294  14.510  22.103   8.192
    9AU     LIG 4295  14.343  22.073   8.619
    9AU     LIG 4296  14.131  22.382   8.921
    9AU     LIG 4297  13.850  22.545   9.280
    9AU     LIG 4298  13.610  22.683   9.678
    9AU     LIG 4299  13.251  22.766   9.981
    9AU       S 4300  14.583  22.532   7.467
    9AU     LIG 4301  14.102  22.550   7.398
    9AU     LIG 4302  13.660  22.821   7.403
    9AU     LIG 4303  13.234  23.123   7.404
    9AU     LIG 4304  12.756  23.260   7.465
    9AU     LIG 4305  12.404  23.481   7.713
    9AU    AUSL 4306  14.533  21.756   7.337
    9AU    AUSL 4307  14.675  22.222   7.124
    9AU     AUL 4308  14.371  22.088   7.178
    9AU       S 4309  14.159  21.595   7.000
    9AU     LIG 4310  13.919  22.017   6.927
    9AU     LIG 4311  13.460  22.243   6.889
    9AU     LIG 4312  12.964  22.386   6.856
    9AU     LIG 4313  12.479  22.551   6.838
    9AU     LIG 4314  12.084  22.765   6.658
    9AU       S 4315  14.495  22.486   6.917
    9AU     LIG 4316  14.469  22.626   6.457
    9AU     LIG 4317  14.239  22.928   6.152
    9AU     LIG 4318  13.963  23.309   6.031
    9AU     LIG 4319  13.646  23.684   6.047
    9AU     LIG 4320  13.402  24.051   5.869
    9AU    AUSL 4321  14.302  21.807   7.728
    9AU    AUSL 4322  14.257  21.439   7.423
    9AU     AUL 4323  14.144  21.776   7.443
    9AU       S 4324  14.027  21.365   7.663
    9AU     LIG 4325  13.660  21.229   7.373
    9AU     LIG 4326  13.189  21.134   7.486
    9AU     LIG 4327  12.698  21.082   7.453
    9AU     LIG 4328  12.435  20.778   7.196
    9AU     LIG 4329  12.124  20.670   6.894
    9AU       S 4330  14.204  21.793   7.965
    9AU     LIG 4331  13.759  21.900   7.858
    9AU     LIG 4332  13.273  22.006   7.979
    9AU     LIG 4333  12.857  22.245   8.174
    9AU     LIG 4334  12.367  22.405   8.238
    9AU     LIG 4335  11.870  22.541   8.259
    9AU    AUSL 4336  15.942  20.984   7.534
    9AU    AUSL 4337  15.774  21.247   7.871
    9AU     AUL 4338  16.105  21.136   7.921
    9AU       S 4339  16.218  20.863   7.535
    9AU     LIG 4340  16.530  20.519   7.497
    9AU     LIG 4341  16.901  20.232   7.523
    9AU     LIG 4342  17.356  20.101   7.515
    9AU     LIG 4343  17.763  19.876   7.655
    9AU     LIG 4344  18.146  19.666   7.902
    9AU       S 4345  16.009  20.697   7.972
    9AU     LIG 4346  16.217  20.365   8.297
    9AU     LIG 4347  16.423  20.097   8.634
    9AU     LIG 4348  16.598  19.950   9.052
    9AU     LIG 4349  16.951  20.047   9.378
    9AU     LIG 4350  17.320  20.204   9.655
    9AU    AUSL 4351  15.921  21.370   7.325
    9AU    AUSL 4352  15.844  20.907   7.115
    9AU     AUL 4353  16.095  21.080   7.144
    9AU       S 4354  16.462  21.216   7.345
    9AU     LIG 4355  16.633  20.857   7.119
    9AU     LIG 4356  17.029  20.607   7.195
    9AU     LIG 4357  17.501  20.534   7.259
    9AU     LIG 4358  17.973  20.483   7.329
    9AU     LIG 4359  18.420  20.554   7.218
    9AU       S 4360  16.027  20.764   6.801
    9AU     LIG 4361  16.056  20.290   6.729
    9AU     LIG 4362  16.123  19.840   6.549
    9AU     LIG 4363  16.395  19.547   6.299
    9AU     LIG 4364  16.596  19.117   6.194
    9AU     LIG 4365  17.007  18.872   6.078
    9AU    AUSL 4366  14.448  21.064   7.584
    9AU    AUSL 4367  14.586  21.293   7.186
    9AU     AUL 4368  14.228  21.149   7.292
    9AU       S 4369  14.400  21.088   6.873
    9AU     LIG 4370  13.977  20.952   6.816
    9AU     LIG 4371  13.747  20.596   6.609
    9AU     LIG 4372  13.537  20.275   6.325
    9AU     LIG 4373  13.228  19.979   6.115
    9AU     LIG 4374  12.747  19.926   6.017
    9AU       S 4375  14.004  21.090   7.708
    9AU     LIG 4376  13.769  20.744   7.537
    9AU     LIG 4377  13.321  20.629   7.420
    9AU     LIG 4378  12.843  20.595   7.486
    9AU     LIG 4379  12.405  20.661   7.683
    9AU     LIG 4380  12.094  20.340   7.800
    9AU    AUSL 4381  14.553  21.464   7.754
    9AU    AUSL 4382  14.791  21.072   7.843
    9AU     AUL 4383  14.408  21.148   7.918
    9AU       S 4384  14.490  20.807   8.202
    9AU     LIG 4385  14.158  20.570   7.981
    9AU     LIG 4386  13.900  20.175   8.063
    9AU     LIG 4387  13.792  19.773   8.287
    9AU     LIG 4388  13.498  19.533   8.562
    9AU     LIG 4389  13.222  19.164   8.625
    9AU       S 4390  14.018  21.377   7.830
    9AU     LIG 4391  13.522  21.448   7.809
    9AU     LIG 4392  13.052  21.577   7.734
    9AU     LIG 4393  12.575  21.492   7.757
    9AU     LIG 4394  12.249  21.197   7.921
    9AU     LIG 4395  11.927  20.873   7.865
    9AU    AUSL 4396  15.277  22.263   7.891
    9AU    AUSL 4397  14.834  22.317   7.845
    9AU     AUL 4398  15.098  22.383   8.186
    9AU       S 4399  14.706  22.524   7.968
    9AU     LIG 4400  14.356  22.707   8.253
    9AU     LIG 4401  14.190  22.853   8.679
    9AU     LIG 4402  13.986  23.204   8.939
    9AU     LIG 4403  13.725  23.625   8.951
    9AU     LIG 4404  13.345  23.923   8.991
    9AU       S 4405  15.299  22.732   7.955
    9AU     LIG 4406  15.512  22.755   8.330
    9AU     LIG 4407  15.636  23.180   8.482
    9AU     LIG 4408  15.561  23.591   8.719
    9AU     LIG 4409  15.485  23.848   9.125
    9AU     LIG 4410  15.379  24.083   9.537
    9AU    AUSL 4411  15.095  22.530   7.579
    9AU    AUSL 4412  15.421  22.470   7.186
    9AU     AUL 4413  15.151  22.729   7.321
    9AU       S 4414  15.150  22.739   7.795
    9AU     LIG 4415  15.303  23.214   7.940
    9AU     LIG 4416  15.416  23.584   8.210
    9AU     LIG 4417  15.215  24.011   8.335
    9AU     LIG 4418  14.935  24.424   8.278
    9AU     LIG 4419  14.826  24.879   8.413
    9AU       S 4420  15.392  22.772   6.926
    9AU     LIG 4421  15.792  22.969   6.862
    9AU     LIG 4422  16.016  23.376   6.780
    9AU     LIG 4423  16.192  23.816   6.675
    9AU     LIG 4424  16.402  24.237   6.530
    9AU     LIG 4425  16.507  24.715   6.577
    9AU    AUSL 4426  15.550  22.457   7.602
    9AU    AUSL 4427  15.551  22.164   8.202
    9AU     AUL 4428  15.634  22.419   7.964
    9AU       S 4429  15.788  22.256   8.402
    9AU     LIG 4430  16.141  22.206   8.728
    9AU     LIG 4431  16.398  22.453   9.008
    9AU     LIG 4432  16.571  22.794   9.273
    9AU     LIG 4433  16.655  22.885   9.734
    9AU     LIG 4434  16.547  23.158  10.118
    9AU       S 4435  15.500  22.772   7.674
    9AU     LIG 4436  15.780  23.018   7.979
    9AU     LIG 4437  16.002  23.404   8.180
    9AU     LIG 4438  16.308  23.750   8.319
    9AU     LIG 4439  16.527  24.176   8.308
    9AU     LIG 4440  16.463  24.643   8.364
    9AU    AUSL 4441  15.195  20.902   7.940
    9AU    AUSL 4442  15.612  20.850   7.780
    9AU     AUL 4443  15.413  20.739   8.153
    9AU       S 4444  15.193  20.360   8.005
    9AU     LIG 4445  15.100  20.008   8.251
    9AU     LIG 4446  14.812  19.671   8.344
    9AU     LIG 4447  14.847  19.221   8.404
    9AU     LIG 4448  15.176  18.968   8.656
    9AU     LIG 4449  15.379  18.942   9.084
    9AU       S 4450  15.760  20.635   7.826
    9AU     LIG 4451  15.748  20.193   8.072
    9AU     LIG 4452  16.028  19.880   8.363
    9AU     LIG 4453  16.340  19.545   8.570
    9AU     LIG 4454  16.605  19.143   8.687
    9AU     LIG 4455  16.872  18.757   8.840
    9AU    AUSL 4456  14.857  20.686   7.685
    9AU    AUSL 4457  14.938  21.005   8.267
    9AU     AUL 4458  14.905  20.729   8.035
    9AU       S 4459  14.966  20.303   7.844
    9AU     LIG 4460  14.797  19.869   7.843
    9AU     LIG 4461  14.652  19.420   7.924
    9AU     LIG 4462  14.347  19.105   8.101
    9AU     LIG 4463  14.036  18.731   8.097
    9AU     LIG 4464  14.076  18.284   8.279
    9AU       S 4465  14.686  20.906   8.436
    9AU     LIG 4466  14.284  20.591   8.576
    9AU     LIG 4467  14.075  20.169   8.556
    9AU     LIG 4468  13.849  19.830   8.797
    9AU     LIG 4469  13.626  19.629   9.159
    9AU     LIG 4470  13.668  19.644   9.635
    9AU    AUSL 4471  15.291  20.612   7.621
    9AU    AUSL 4472  15.051  20.873   7.339
    9AU     AUL 4473  14.955  20.520   7.430
    9AU       S 4474  15.330  20.425   7.189
    9AU     LIG 4475  15.061  20.028   7.284
    9AU     LIG 4476  14.848  19.579   7.172
    9AU     LIG 4477  14.522  19.176   7.114
    9AU     LIG 4478  14.307  18.717   7.056
    9AU     LIG 4479  14.069  18.287   7.032
    9AU       S 4480  15.306  20.412   7.756
    9AU     LIG 4481  15.305  19.931   7.750
    9AU     LIG 4482  15.178  19.539   7.989
    9AU     LIG 4483  15.293  19.123   8.176
    9AU     LIG 4484  15.407  18.665   8.279
    9AU     LIG 4485  15.712  18.291   8.309
    9AU    AUSL 4486  15.231  22.242   6.850
    9AU    AUSL 4487  15.699  22.154   7.272
    9AU     AUL 4488  15.570  22.357   6.873
    9AU       S 4489  15.192  22.515   6.641
    9AU     LIG 4490  15.581  22.719   6.464
    9AU     LIG 4491  15.795  23.134   6.363
    9AU     LIG 4492  15.803  23.516   6.070
    9AU     LIG 4493  15.661  23.789   5.697
    9AU     LIG 4494  15.438  24.113   5.431
    9AU       S 4495  15.920  22.366   7.161
    9AU     LIG 4496  16.233  22.721   6.964
    9AU     LIG 4497  16.469  22.879   6.572
    9AU     LIG 4498  16.670  23.143   6.220
    9AU     LIG 4499  16.958  23.528   6.152
    9AU     LIG 4500  17.261  23.912   6.059
    9AU    AUSL 4501  15.072  22.226   7.287
    9AU    AUSL 4502  14.969  21.933   6.965
    9AU     AUL 4503  14.937  22.391   7.028
    9AU       S 4504  15.179  22.728   6.843
    9AU     LIG 4505  15.340  23.173   6.645
    9AU     LIG 4506  15.336  23.663   6.654
    9AU     LIG 4507  15.079  24.095   6.701
    9AU     LIG 4508  14.760  24.491   6.691
    9AU     LIG 4509  14.721  24.976   6.602
    9AU       S 4510  14.768  22.191   6.650
    9AU     LIG 4511  14.707  22.223   6.201
    9AU     LIG 4512  14.533  22.555   5.923
    9AU     LIG 4513  14.269  22.822   5.631
    9AU     LIG 4514  14.198  23.097   5.242
    9AU     LIG 4515  14.189  23.503   4.970
    9AU    AUSL 4516  15.248  20.827   6.937
    9AU    AUSL 4517  14.634  20.848   7.254
    9AU     AUL 4518  14.903  20.705   6.993
    9AU       S 4519  14.446  20.814   7.050
    9AU     LIG 4520  14.075  20.558   7.125
    9AU     LIG 4521  13.885  20.190   6.890
    9AU     LIG 4522  13.706  19.860   6.582
    9AU     LIG 4523  13.522  19.554   6.255
    9AU     LIG 4524  13.312  19.136   6.159
    9AU       S 4525  15.302  20.445   7.024
    9AU     LIG 4526  15.367  20.020   6.855
    9AU     LIG 4527  15.167  19.614   6.737
    9AU     LIG 4528  15.232  19.212   6.482
    9AU     LIG 4529  15.407  18.991   6.089
    9AU     LIG 4530  15.391  18.847   5.624
    9AU    AUSL 4531  15.483  20.854   7.324
    9AU    AUSL 4532  15.515  21.165   6.967
    9AU     AUL 4533  15.576  20.801   6.914
    9AU       S 4534  15.586  20.503   7.277
    9AU     LIG 4535  15.587  20.029   7.331
    9AU     LIG 4536  15.385  19.618   7.223
    9AU     LIG 4537  15.430  19.234   6.964
    9AU     LIG 4538  15.601  18.813   6.906
    9AU     LIG 4539  15.715  18.422   6.679
    9AU       S 4540  15.811  20.981   6.569
    9AU     LIG 4541  15.677  20.546   6.486
    9AU     LIG 4542  15.855  20.175   6.258
    9AU     LIG 4543  16.108  19.862   5.993
    9AU     LIG 4544  16.363  19.747   5.594
    9AU     LIG 4545  16.486  19.497   5.207
   10AU     AUC 4546  14.975  37.930   7.506
   10AU     AUC 4547  15.245  37.936   7.335
   10AU     AUC 4548  15.236  37.927   7.670
   10AU     AUC 4549  14.691  37.918   7.347
   10AU     AUC 4550  14.730  37.968   7.697
   10AU     AUC 4551  14.800  38.198   7.507
   10AU     AUC 4552  15.148  38.204   7.486
   10AU     AUC 4553  14.793  37.669   7.519
   10AU     AUC 4554  15.143  37.648   7.508
   10AU     AUC 4555  14.988  37.764   7.782
   10AU     AUC 4556  14.972  38.124   7.761
   10AU     AUC 4557  14.961  37.758   7.241
   10AU     AUC 4558  14.987  38.075   7.227
   10AU     AUC 4559  15.567  37.937   7.170
   10AU     AUC 4560  15.585  37.921   7.506
   10AU     AUC 4561  15.538  37.912   7.857
   10AU     AUC 4562  14.374  37.907   7.182
   10AU     AUC 4563  14.367  37.961   7.544
   10AU     AUC 4564  14.434  37.996   7.899
   10AU     AUC 4565  14.633  38.512   7.487
   10AU     AUC 4566  14.989  38.549   7.434
   10AU     AUC 4567  15.318  38.498   7.462
   10AU     AUC 4568  14.582  37.381   7.537
   10AU     AUC 4569  14.941  37.331   7.503
   10AU     AUC 4570  15.314  37.344   7.490
   10AU     AUC 4571  14.979  37.587   8.084
   10AU     AUC 4572  14.997  37.945   8.109
   10AU     AUC 4573  15.010  38.302   8.050
   10AU     AUC 4574  14.983  37.574   6.964
   10AU     AUC 4575  14.955  37.905   6.896
   10AU     AUC 4576  14.957  38.234   6.909
   10AU     AUC 4577  15.270  37.711   7.995
   10AU     AUC 4578  15.289  38.103   7.984
   10AU     AUC 4579  15.288  37.760   7.013
   10AU     AUC 4580  15.275  38.112   7.026
   10AU     AUC 4581  14.687  37.810   8.030
   10AU     AUC 4582  14.712  38.176   8.007
   10AU     AUC 4583  14.656  37.723   7.059
   10AU     AUC 4584  14.627  38.047   7.007
   10AU     AUC 4585  15.497  38.218   7.322
   10AU     AUC 4586  15.447  38.206   7.681
   10AU     AUC 4587  14.478  38.218   7.343
   10AU     AUC 4588  14.505  38.284   7.700
   10AU     AUC 4589  15.465  37.630   7.338
   10AU     AUC 4590  15.435  37.592   7.679
   10AU     AUC 4591  14.453  37.609   7.370
   10AU     AUC 4592  14.521  37.678   7.725
   10AU     AUC 4593  14.820  38.463   7.762
   10AU     AUC 4594  15.162  38.423   7.757
   10AU     AUC 4595  14.777  37.472   7.812
   10AU     AUC 4596  15.115  37.416   7.783
   10AU     AUC 4597  14.791  38.345   7.183
   10AU     AUC 4598  15.170  38.387   7.155
   10AU     AUC 4599  14.775  37.448   7.227
   10AU     AUC 4600  15.173  37.472   7.219
   10AU    AUSL 4601  15.557  37.855   8.219
   10AU    AUSL 4602  15.295  37.411   8.179
   10AU     AUL 4603  15.614  37.449   8.326
   10AU       S 4604  15.637  37.050   8.106
   10AU     LIG 4605  15.525  36.921   8.483
   10AU     LIG 4606  15.667  36.598   8.755
   10AU     LIG 4607  15.883  36.284   9.011
   10AU     LIG 4608  16.100  36.152   9.404
   10AU     LIG 4609  16.182  35.948   9.819
   10AU       S 4610  15.790  37.867   8.324
   10AU     LIG 4611  15.727  37.926   8.780
   10AU     LIG 4612  15.747  37.709   9.201
   10AU     LIG 4613  16.009  37.555   9.568
   10AU     LIG 4614  16.321  37.601   9.920
   10AU     LIG 4615  16.696  37.620  10.201
   10AU    AUSL 4616  15.162  37.755   8.412
   10AU    AUSL 4617  14.887  38.127   8.451
   10AU     AUL 4618  15.104  38.047   8.741
   10AU       S 4619  15.328  37.682   8.590
   10AU     LIG 4620  15.119  37.564   8.954
   10AU     LIG 4621  15.332  37.412   9.345
   10AU     LIG 4622  15.573  37.319   9.745
   10AU     LIG 4623  15.592  37.216  10.213
   10AU     LIG 4624  15.630  37.279  10.685
   10AU       S 4625  14.691  37.865   8.689
   10AU     LIG 4626  14.683  37.762   9.165
   10AU     LIG 4627  14.385  37.763   9.535
   10AU     LIG 4628  14.171  37.839   9.958
   10AU     LIG 4629  14.104  38.159  10.332
   10AU     LIG 4630  14.059  38.429  10.738
   10AU    AUSL 4631  15.193  38.129   8.154
   10AU    AUSL 4632  15.628  38.269   8.094
   10AU     AUL 4633  15.446  38.158   8.431
   10AU       S 4634  15.110  38.504   8.602
   10AU     LIG 4635  15.473  38.382   8.889
   10AU     LIG 4636  15.742  38.481   9.286
   10AU     LIG 4637  15.788  38.543   9.787
   10AU     LIG 4638  15.761  38.651  10.273
   10AU     LIG 4639  15.770  38.722  10.753
   10AU       S 4640  15.787  38.423   8.250
   10AU     LIG 4641  16.108  38.220   8.483
   10AU     LIG 4642  16.477  38.381   8.695
   10AU     LIG 4643  16.712  38.639   9.021
   10AU     LIG 4644  16.933  38.904   9.342
   10AU     LIG 4645  17.276  38.910   9.672
   10AU    AUSL 4646  15.420  37.976   6.885
   10AU    AUSL 4647  15.337  38.410   6.846
   10AU     AUL 4648  15.514  38.300   6.610
   10AU       S 4649  15.351  38.047   6.280
   10AU     LIG 4650  15.818  38.001   6.163
   10AU     LIG 4651  15.968  37.759   5.796
   10AU     LIG 4652  16.020  37.638   5.356
   10AU     LIG 4653  16.293  37.489   5.010
   10AU     LIG 4654  16.705  37.557   4.783
   10AU       S 4655  15.739  38.641   6.850
   10AU     LIG 4656  15.885  38.807   6.454
   10AU     LIG 4657  16.117  39.008   6.084
   10AU     LIG 4658  16.369  39.205   5.735
   10AU     LIG 4659  16.412  39.469   5.348
   10AU     LIG 4660  16.448  39.672   4.909
   10AU    AUSL 4661  15.249  37.705   6.581
   10AU    AUSL 4662  15.700  37.651   6.903
   10AU     AUL 4663  15.623  37.834   6.640
   10AU       S 4664  15.839  37.401   6.663
   10AU     LIG 4665  16.179  37.055   6.539
   10AU     LIG 4666  16.163  36.618   6.328
   10AU     LIG 4667  16.345  36.319   6.012
   10AU     LIG 4668  16.707  36.337   5.701
   10AU     LIG 4669  17.099  36.490   5.479
   10AU       S 4670  15.364  37.848   6.250
   10AU     LIG 4671  15.564  37.534   6.034
   10AU     LIG 4672  15.656  37.364   5.607
   10AU     LIG 4673  15.640  37.360   5.132
   10AU     LIG 4674  15.597  37.274   4.662
   10AU     LIG 4675  15.649  37.227   4.186
   10AU    AUSL 4676  15.060  38.113   6.678
   10AU    AUSL 4677  14.851  37.711   6.761
   10AU     AUL 4678  14.969  37.743   6.447
   10AU       S 4679  14.536  37.727   6.298
   10AU     LIG 4680  14.665  37.593   5.890
   10AU     LIG 4681  14.432  37.330   5.567
   10AU     LIG 4682  14.148  37.166   5.217
   10AU     LIG 4683  14.056  36.900   4.830
   10AU     LIG 4684  13.921  36.763   4.389
   10AU       S 4685  15.112  38.181   6.365
   10AU     LIG 4686  15.088  37.992   5.867
   10AU     LIG 4687  15.467  37.849   5.561
   10AU     LIG 4688  15.628  37.883   5.092
   10AU     LIG 4689  15.658  38.093   4.640
   10AU     LIG 4690  15.805  38.428   4.313
   10AU    AUSL 4691  14.474  38.069   8.298
   10AU    AUSL 4692  14.756  38.422   8.157
   10AU     AUL 4693  14.643  38.361   8.488
   10AU       S 4694  14.513  37.990   8.750
   10AU     LIG 4695  14.216  37.699   8.949
   10AU     LIG 4696  13.946  37.577   9.334
   10AU     LIG 4697  13.757  37.562   9.779
   10AU     LIG 4698  13.479  37.583  10.173
   10AU     LIG 4699  13.150  37.754  10.480
   10AU       S 4700  14.361  38.660   8.258
   10AU     LIG 4701  14.288  38.845   8.669
   10AU     LIG 4702  14.120  39.066   9.053
   10AU     LIG 4703  13.930  39.229   9.457
   10AU     LIG 4704  13.812  39.389   9.887
   10AU     LIG 4705  13.647  39.754  10.126
   10AU    AUSL 4706  14.787  37.774   8.194
   10AU    AUSL 4707  14.329  37.687   8.130
   10AU     AUL 4708  14.344  37.785   8.374
   10AU       S 4709  14.174  37.345   8.280
   10AU     LIG 4710  13.754  37.283   8.193
   10AU     LIG 4711  13.509  36.916   8.296
   10AU     LIG 4712  13.277  36.689   8.632
   10AU     LIG 4713  13.033  36.384   8.884
   10AU     LIG 4714  12.849  36.294   9.314
   10AU       S 4715  14.740  37.693   8.602
   10AU     LIG 4716  14.603  37.363   8.850
   10AU     LIG 4717  14.399  37.315   9.268
   10AU     LIG 4718  14.200  37.301   9.703
   10AU     LIG 4719  14.048  37.113  10.108
   10AU     LIG 4720  14.154  36.825  10.478
   10AU    AUSL 4721  14.415  37.768   6.791
   10AU    AUSL 4722  14.622  37.403   6.960
   10AU     AUL 4723  14.654  37.430   6.640
   10AU       S 4724  14.358  37.662   6.361
   10AU     LIG 4725  14.154  37.582   5.949
   10AU     LIG 4726  13.947  37.529   5.536
   10AU     LIG 4727  13.633  37.325   5.242
   10AU     LIG 4728  13.270  37.416   4.956
   10AU     LIG 4729  13.106  37.515   4.531
   10AU       S 4730  14.256  37.267   6.812
   10AU     LIG 4731  14.066  36.873   6.658
   10AU     LIG 4732  13.814  36.611   6.382
   10AU     LIG 4733  13.626  36.398   6.023
   10AU     LIG 4734  13.455  36.264   5.619
   10AU     LIG 4735  13.361  36.041   5.216
   10AU    AUSL 4736  14.639  38.084   6.587
   10AU    AUSL 4737  14.270  38.171   6.919
   10AU     AUL 4738  14.214  37.974   6.661
   10AU       S 4739  14.274  38.425   6.660
   10AU     LIG 4740  14.016  38.726   6.418
   10AU     LIG 4741  13.752  38.845   6.042
   10AU     LIG 4742  13.504  38.900   5.640
   10AU     LIG 4743  13.153  39.004   5.349
   10AU     LIG 4744  12.956  39.292   5.034
   10AU       S 4745  14.579  38.016   6.352
   10AU     LIG 4746  14.402  38.041   5.924
   10AU     LIG 4747  14.378  37.840   5.502
   10AU     LIG 4748  14.432  37.891   5.024
   10AU     LIG 4749  14.443  38.080   4.573
   10AU     LIG 4750  14.233  38.218   4.159
   10AU    AUSL 4751  15.768  38.445   7.495
   10AU    AUSL 4752  15.706  38.236   7.078
   10AU     AUL 4753  16.038  38.543   7.272
   10AU       S 4754  15.809  38.334   6.951
   10AU     LIG 4755  16.024  38.307   6.559
   10AU     LIG 4756  16.304  38.548   6.272
   10AU     LIG 4757  16.585  38.806   5.999
   10AU     LIG 4758  16.847  38.982   5.652
   10AU     LIG 4759  17.280  38.918   5.454
   10AU       S 4760  16.152  38.333   7.685
   10AU     LIG 4761  16.618  38.360   7.601
   10AU     LIG 4762  17.088  38.487   7.594
   10AU     LIG 4763  17.542  38.652   7.606
   10AU     LIG 4764  17.875  38.952   7.461
   10AU     LIG 4765  17.970  39.426   7.403
   10AU    AUSL 4766  15.958  38.038   7.372
   10AU    AUSL 4767  15.911  37.713   7.695
   10AU     AUL 4768  16.270  37.834   7.720
   10AU       S 4769  16.081  38.105   7.414
   10AU     LIG 4770  16.483  38.051   7.215
   10AU     LIG 4771  16.973  38.125   7.247
   10AU     LIG 4772  17.448  38.238   7.319
   10AU     LIG 4773  17.910  38.373   7.338
   10AU     LIG 4774  18.217  38.690   7.143
   10AU       S 4775  16.155  37.445   7.504
   10AU     LIG 4776  16.412  37.348   7.850
   10AU     LIG 4777  16.717  37.012   7.904
   10AU     LIG 4778  17.190  36.996   7.896
   10AU     LIG 4779  17.654  36.995   7.896
   10AU     LIG 4780  18.081  37.179   7.838
   10AU    AUSL 4781  15.675  38.075   7.717
   10AU    AUSL 4782  15.419  38.471   7.760
   10AU     AUL 4783  15.741  38.537   7.793
   10AU       S 4784  15.746  38.723   8.212
   10AU     LIG 4785  16.210  38.697   8.316
   10AU     LIG 4786  16.448  38.900   8.658
   10AU     LIG 4787  16.732  39.172   8.916
   10AU     LIG 4788  16.898  39.611   8.978
   10AU     LIG 4789  17.029  40.071   8.971
   10AU       S 4790  15.999  38.166   7.843
   10AU     LIG 4791  16.446  38.221   8.075
   10AU     LIG 4792  16.937  38.186   7.975
   10AU     LIG 4793  17.407  38.285   7.962
   10AU     LIG 4794  17.878  38.343   7.863
   10AU     LIG 4795  18.279  38.387   8.099
   10AU    AUSL 4796  14.299  38.502   7.539
   10AU    AUSL 4797  14.405  38.274   7.924
   10AU     AUL 4798  14.080  38.605   7.788
   10AU       S 4799  14.251  38.450   8.182
   10AU     LIG 4800  14.140  38.339   8.607
   10AU     LIG 4801  13.932  38.581   8.955
   10AU     LIG 4802  13.646  38.881   9.183
   10AU     LIG 4803  13.271  39.023   9.432
   10AU     LIG 4804  12.829  39.126   9.573
   10AU       S 4805  14.303  38.879   7.458
   10AU     LIG 4806  13.865  39.050   7.557
   10AU     LIG 4807  13.466  39.356   7.573
   10AU     LIG 4808  13.045  39.628   7.605
   10AU     LIG 4809  12.577  39.702   7.732
   10AU     LIG 4810  12.117  39.673   7.864
   10AU    AUSL 4811  14.263  38.112   7.340
   10AU    AUSL 4812  14.389  38.557   7.122
   10AU     AUL 4813  14.091  38.424   7.176
   10AU       S 4814  13.866  37.971   7.012
   10AU     LIG 4815  13.597  38.351   6.935
   10AU     LIG 4816  13.125  38.494   6.851
   10AU     LIG 4817  12.625  38.532   6.799
   10AU     LIG 4818  12.191  38.748   6.773
   10AU     LIG 4819  11.819  38.900   6.534
   10AU       S 4820  14.202  38.817   6.907
   10AU     LIG 4821  14.344  39.118   6.573
   10AU     LIG 4822  14.187  39.496   6.304
   10AU     LIG 4823  13.863  39.750   6.078
   10AU     LIG 4824  13.587  40.124   6.142
   10AU     LIG 4825  13.295  40.485   6.177
   10AU    AUSL 4826  14.036  38.153   7.743
   10AU    AUSL 4827  13.992  37.789   7.417
   10AU     AUL 4828  13.880  38.122   7.466
   10AU       S 4829  13.712  37.695   7.626
   10AU     LIG 4830  13.295  37.512   7.457
   10AU     LIG 4831  12.823  37.405   7.439
   10AU     LIG 4832  12.393  37.290   7.248
   10AU     LIG 4833  11.916  37.258   7.204
   10AU     LIG 4834  11.456  37.239   7.119
   10AU       S 4835  13.950  38.106   7.985
   10AU     LIG 4836  13.547  38.325   7.867
   10AU     LIG 4837  13.039  38.369   7.902
   10AU     LIG 4838  12.579  38.521   8.040
   10AU     LIG 4839  12.147  38.753   8.057
   10AU     LIG 4840  11.800  39.078   8.207
   10AU    AUSL 4841  15.690  37.356   7.532
   10AU    AUSL 4842  15.523  37.623   7.864
   10AU     AUL 4843  15.859  37.518   7.909
   10AU       S 4844  15.999  37.248   7.528
   10AU     LIG 4845  16.385  36.987   7.469
   10AU     LIG 4846  16.647  36.605   7.449
   10AU     LIG 4847  17.034  36.348   7.383
   10AU     LIG 4848  17.296  35.943   7.447
   10AU     LIG 4849  17.681  35.873   7.688
   10AU       S 4850  15.766  37.077   7.954
   10AU     LIG 4851  15.998  36.776   8.287
   10AU     LIG 4852  16.177  36.536   8.654
   10AU     LIG 4853  16.403  36.272   8.984
   10AU     LIG 4854  16.703  36.288   9.359
   10AU     LIG 4855  16.961  36.430   9.750
   10AU    AUSL 4856  15.656  37.740   7.318
   10AU    AUSL 4857  15.585  37.275   7.115
   10AU     AUL 4858  15.831  37.445   7.142
   10AU       S 4859  16.202  37.614   7.315
   10AU     LIG 4860  16.352  37.295   7.012
   10AU     LIG 4861  16.646  36.923   7.020
   10AU     LIG 4862  17.099  36.740   7.033
   10AU     LIG 4863  17.551  36.838   6.922
   10AU     LIG 4864  18.014  36.936   6.908
   10AU       S 4865  15.766  37.142   6.788
   10AU     LIG 4866  15.862  36.673   6.749
   10AU     LIG 4867  15.976  36.206   6.601
   10AU     LIG 4868  16.130  35.779   6.393
   10AU     LIG 4869  16.387  35.422   6.184
   10AU     LIG 4870  16.677  35.032   6.211
   10AU    AUSL 4871  14.180  37.422   7.595
   10AU    AUSL 4872  14.330  37.643   7.192
   10AU     AUL 4873  13.975  37.507   7.285
   10AU       S 4874  14.137  37.407   6.872
   10AU     LIG 4875  13.747  37.282   6.688
   10AU     LIG 4876  13.465  36.936   6.573
   10AU     LIG 4877  13.257  36.674   6.244
   10AU     LIG 4878  13.063  36.498   5.860
   10AU     LIG 4879  12.693  36.378   5.596
   10AU       S 4880  13.754  37.422   7.697
   10AU     LIG 4881  13.558  37.074   7.533
   10AU     LIG 4882  13.151  37.007   7.322
   10AU     LIG 4883  12.695  36.882   7.379
   10AU     LIG 4884  12.421  36.525   7.485
   10AU     LIG 4885  11.963  36.492   7.476
   10AU    AUSL 4886  14.310  37.830   7.726
   10AU    AUSL 4887  14.533  37.440   7.837
   10AU     AUL 4888  14.116  37.614   7.907
   10AU       S 4889  14.237  37.197   8.044
   10AU     LIG 4890  13.946  36.927   7.874
   10AU     LIG 4891  13.776  36.543   8.061
   10AU     LIG 4892  13.448  36.319   8.320
   10AU     LIG 4893  13.252  35.993   8.595
   10AU     LIG 4894  13.251  35.687   8.942
   10AU       S 4895  13.701  37.744   7.783
   10AU     LIG 4896  13.264  37.914   7.766
   10AU     LIG 4897  12.832  37.938   7.594
   10AU     LIG 4898  12.423  37.737   7.503
   10AU     LIG 4899  12.088  37.471   7.651
   10AU     LIG 4900  11.780  37.268   7.941
   10AU    AUSL 4901  15.006  38.640   7.880
   10AU    AUSL 4902  14.562  38.673   7.842
   10AU     AUL 4903  14.827  38.751   8.177
   10AU       S 4904  14.435  38.873   7.951
   10AU     LIG 4905  14.231  39.160   8.258
   10AU     LIG 4906  14.099  39.407   8.651
   10AU     LIG 4907  13.953  39.823   8.872
   10AU     LIG 4908  13.615  40.162   8.966
   10AU     LIG 4909  13.310  40.505   9.128
   10AU       S 4910  15.015  39.102   7.930
   10AU     LIG 4911  15.077  39.224   8.327
   10AU     LIG 4912  15.034  39.633   8.532
   10AU     LIG 4913  15.031  40.077   8.697
   10AU     LIG 4914  14.909  40.505   8.863
   10AU     LIG 4915  14.965  40.805   9.213
   10AU    AUSL 4916  14.809  38.889   7.564
   10AU    AUSL 4917  15.130  38.831   7.167
   10AU     AUL 4918  14.870  39.090   7.303
   10AU       S 4919  14.857  39.110   7.778
   10AU     LIG 4920  14.897  39.588   7.971
   10AU     LIG 4921  14.888  40.007   8.209
   10AU     LIG 4922  14.772  40.465   8.232
   10AU     LIG 4923  14.883  40.920   8.358
   10AU     LIG 4924  14.848  41.401   8.449
   10AU       S 4925  15.026  39.100   6.867
   10AU     LIG 4926  15.344  39.378   6.868
   10AU     LIG 4927  15.352  39.838   6.832
   10AU     LIG 4928  15.337  40.281   6.671
   10AU     LIG 4929  15.301  40.764   6.723
   10AU     LIG 4930  15.590  41.146   6.739
   10AU    AUSL 4931  15.268  38.829   7.580
   10AU    AUSL 4932  15.288  38.545   8.187
   10AU     AUL 4933  15.361  38.799   7.946
   10AU       S 4934  15.531  38.645   8.383
   10AU     LIG 4935  15.885  38.624   8.712
   10AU     LIG 4936  16.188  38.676   9.047
   10AU     LIG 4937  16.421  38.998   9.290
   10AU     LIG 4938  16.494  39.400   9.531
   10AU     LIG 4939  16.346  39.771   9.806
   10AU       S 4940  15.212  39.139   7.651
   10AU     LIG 4941  15.398  39.430   7.967
   10AU     LIG 4942  15.369  39.843   8.194
   10AU     LIG 4943  15.289  40.311   8.312
   10AU     LIG 4944  15.379  40.769   8.407
   10AU     LIG 4945  15.714  41.093   8.503
   10AU    AUSL 4946  14.944  37.283   7.953
   10AU    AUSL 4947  15.359  37.227   7.779
   10AU     AUL 4948  15.176  37.112   8.155
   10AU       S 4949  14.958  36.724   8.024
   10AU     LIG 4950  14.833  36.403   8.293
   10AU     LIG 4951  14.549  36.070   8.368
   10AU     LIG 4952  14.514  35.619   8.396
   10AU     LIG 4953  14.645  35.231   8.609
   10AU     LIG 4954  14.740  34.988   8.990
   10AU       S 4955  15.511  37.007   7.820
   10AU     LIG 4956  15.492  36.583   8.071
   10AU     LIG 4957  15.793  36.304   8.352
   10AU     LIG 4958  16.102  36.025   8.612
   10AU     LIG 4959  16.386  35.698   8.827
   10AU     LIG 4960  16.644  35.288   8.908
   10AU    AUSL 4961  14.608  37.046   7.706
   10AU    AUSL 4962  14.659  37.376   8.265
   10AU     AUL 4963  14.679  37.097   8.059
   10AU       S 4964  14.719  36.674   7.871
   10AU     LIG 4965  14.381  36.428   8.010
   10AU     LIG 4966  14.320  35.977   7.916
   10AU     LIG 4967  14.371  35.517   7.911
   10AU     LIG 4968  14.368  35.157   8.186
   10AU     LIG 4969  14.312  34.834   8.507
   10AU       S 4970  14.385  37.268   8.388
   10AU     LIG 4971  14.092  36.858   8.377
   10AU     LIG 4972  13.795  36.589   8.588
   10AU     LIG 4973  13.556  36.308   8.861
   10AU     LIG 4974  13.329  36.133   9.222
   10AU     LIG 4975  13.202  36.079   9.677
   10AU    AUSL 4976  15.040  36.980   7.639
   10AU    AUSL 4977  14.795  37.225   7.348
   10AU     AUL 4978  14.698  36.876   7.453
   10AU       S 4979  15.063  36.781   7.203
   10AU     LIG 4980  14.768  36.364   7.203
   10AU     LIG 4981  14.559  35.895   7.108
   10AU     LIG 4982  14.262  35.459   7.044
   10AU     LIG 4983  14.153  35.007   6.843
   10AU     LIG 4984  14.163  34.534   6.701
   10AU       S 4985  15.056  36.765   7.771
   10AU     LIG 4986  14.980  36.257   7.795
   10AU     LIG 4987  14.821  35.820   7.994
   10AU     LIG 4988  14.866  35.336   8.124
   10AU     LIG 4989  15.116  34.898   8.192
   10AU     LIG 4990  15.225  34.412   8.258
   10AU    AUSL 4991  14.942  38.596   6.837
   10AU    AUSL 4992  15.421  38.527   7.254
   10AU     AUL 4993  15.284  38.725   6.861
   10AU       S 4994  14.887  38.829   6.622
   10AU     LIG 4995  15.202  39.112   6.414
   10AU     LIG 4996  15.194  39.578   6.406
   10AU     LIG 4997  15.119  39.951   6.142
   10AU     LIG 4998  15.243  40.131   5.726
   10AU     LIG 4999  15.263  40.512   5.461
   10AU       S 5000  15.646  38.735   7.133
   10AU     LIG 5001  16.089  38.955   6.943
   10AU     LIG 5002  16.364  39.003   6.542
   10AU     LIG 5003  16.584  39.281   6.217
   10AU     LIG 5004  16.871  39.675   6.157
   10AU     LIG 5005  17.139  40.088   6.207
   10AU    AUSL 5006  14.788  38.582   7.276
   10AU    AUSL 5007  14.692  38.280   6.961
   10AU     AUL 5008  14.641  38.737   7.028
   10AU       S 5009  14.836  39.080   6.819
   10AU     LIG 5010  14.852  39.571   6.809
   10AU     LIG 5011  14.905  39.986   6.615
   10AU     LIG 5012  14.852  40.448   6.674
   10AU     LIG 5013  14.775  40.891   6.759
   10AU     LIG 5014  14.446  41.205   6.652
   10AU       S 5015  14.479  38.527   6.650
   10AU     LIG 5016  14.507  38.740   6.262
   10AU     LIG 5017  14.232  39.049   6.035
   10AU     LIG 5018  13.914  39.218   5.714
   10AU     LIG 5019  13.626  39.309   5.331
   10AU     LIG 5020  13.374  39.608   5.061
   10AU    AUSL 5021  14.992  37.179   6.945
   10AU    AUSL 5022  14.376  37.200   7.273
   10AU     AUL 5023  14.649  37.049   7.010
   10AU       S 5024  14.193  37.154   7.072
   10AU     LIG 5025  13.798  36.963   7.088
   10AU     LIG 5026  13.646  36.575   6.886
   10AU     LIG 5027  13.437  36.308   6.554
   10AU     LIG 5028  13.242  36.098   6.176
   10AU     LIG 5029  13.111  35.705   5.948
   10AU       S 5030  15.053  36.795   7.029
   10AU     LIG 5031  15.108  36.397   6.816
   10AU     LIG 5032  14.846  36.025   6.686
   10AU     LIG 5033  14.763  35.608   6.483
   10AU     LIG 5034  14.705  35.357   6.068
   10AU     LIG 5035  14.670  35.191   5.609
   10AU    AUSL 5036  15.228  37.212   7.329
   10AU    AUSL 5037  15.252  37.524   6.966
   10AU     AUL 5038  15.319  37.156   6.920
   10AU       S 5039  15.321  36.858   7.285
   10AU     LIG 5040  15.268  36.355   7.330
   10AU     LIG 5041  15.110  35.945   7.119
   10AU     LIG 5042  15.134  35.524   6.874
   10AU     LIG 5043  15.402  35.103   6.956
   10AU     LIG 5044  15.629  34.666   6.946
   10AU       S 5045  15.553  37.340   6.573
   10AU     LIG 5046  15.450  36.883   6.495
   10AU     LIG 5047  15.645  36.494   6.309
   10AU     LIG 5048  15.860  36.123   6.108
   10AU     LIG 5049  16.095  35.803   5.867
   10AU     LIG 5050  16.220  35.747   5.421
   11POPC   NC3 5051  24.049   6.598   9.465
   11POPC   PO4 5052  23.445   6.896   9.804
   11POPC   GL1 5053  23.600   6.769   9.296
   11POPC   GL2 5054  23.670   6.491   9.071
   11POPC   C1A 5055  23.802   6.915   8.861
   11POPC   D2A 5056  23.853   6.869   8.408
   11POPC   C3A 5057  23.676   7.011   7.989
   11POPC   C4A 5058  23.634   6.730   7.607
   11POPC   C1B 5059  24.067   6.443   8.813
   11POPC   C2B 5060  24.139   6.449   8.373
   11POPC   C3B 5061  23.947   6.570   7.993
   11POPC   C4B 5062  24.067   6.445   7.609
   12POPC   NC3 5063  17.502   9.476   9.430
   12POPC   PO4 5064  17.851  10.024   9.451
   12POPC   GL1 5065  17.547   9.893   9.160
   12POPC   GL2 5066  17.274  10.107   9.128
   12POPC   C1A 5067  17.592   9.605   8.795
   12POPC   D2A 5068  17.679   9.392   8.411
   12POPC   C3A 5069  17.477   9.637   8.079
   12POPC   C4A 5070  17.639   9.866   7.723
   12POPC   C1B 5071  17.202   9.942   8.777
   12POPC   C2B 5072  17.388   9.978   8.430
   12POPC   C3B 5073  17.316  10.134   8.018
   12POPC   C4B 5074  17.149   9.848   7.693
   13POPC   NC3 5075  14.554   7.213   9.392
   13POPC   PO4 5076  14.587   6.547   9.423
   13POPC   GL1 5077  14.412   6.756   9.140
   13POPC   GL2 5078  14.049   6.732   9.197
   13POPC   C1A 5079  14.590   6.699   8.746
   13POPC   D2A 5080  14.424   6.843   8.408
   13POPC   C3A 5081  14.537   6.644   8.058
   13POPC   C4A 5082  14.353   6.828   7.726
   13POPC   C1B 5083  14.082   6.661   8.722
   13POPC   C2B 5084  14.032   6.580   8.223
   13POPC   C3B 5085  14.054   6.401   7.771
   13POPC   C4B 5086  14.039   6.292   7.267
   14POPC   NC3 5087   8.466  39.549   9.482
   14POPC   PO4 5088   8.217  38.999   9.681
   14POPC   GL1 5089   8.262  39.099   9.252
   14POPC   GL2 5090   8.598  39.113   9.202
   14POPC   C1A 5091   8.110  39.176   8.818
   14POPC   D2A 5092   7.819  39.337   8.512
   14POPC   C3A 5093   7.990  39.209   8.129
   14POPC   C4A 5094   8.039  38.924   7.798
   14POPC   C1B 5095   8.608  39.249   8.750
   14POPC   C2B 5096   8.459  39.189   8.328
   14POPC   C3B 5097   8.455  39.255   7.874
   14POPC   C4B 5098   8.743  39.236   7.524
   15POPC   NC3 5099  29.812  37.862   9.530
   15POPC   PO4 5100  30.246  37.371   9.417
   15POPC   GL1 5101  30.080  37.371   9.045
   15POPC   GL2 5102  29.780  37.494   9.141
   15POPC   C1A 5103  30.023  37.741   8.777
   15POPC   D2A 5104  30.190  37.845   8.394
   15POPC   C3A 5105  30.076  37.636   8.019
   15POPC   C4A 5106  30.027  37.641   7.569
   15POPC   C1B 5107  29.539  37.546   8.760
   15POPC   C2B 5108  29.586  37.714   8.339
   15POPC   C3B 5109  29.470  37.481   7.963
   15POPC   C4B 5110  29.550  37.473   7.503
   16POPC   NC3 5111  41.820  36.001   9.720
   16POPC   PO4 5112  41.227  36.105   9.571
   16POPC   GL1 5113  41.348  36.197   9.183
   16POPC   GL2 5114  41.729  36.164   9.221
   16POPC   C1A 5115  41.225  36.008   8.791
   16POPC   D2A 5116  41.301  36.272   8.404
   16POPC   C3A 5117  41.340  36.113   7.950
   16POPC   C4A 5118  41.649  36.053   7.585
   16POPC   C1B 5119  41.677  36.209   8.780
   16POPC   C2B 5120  41.830  36.339   8.404
   16POPC   C3B 5121  41.735  36.422   7.993
   16POPC   C4B 5122  42.059  36.369   7.664
   17POPC   NC3 5123  41.194  25.659   9.836
   17POPC   PO4 5124  40.752  26.096   9.433
   17POPC   GL1 5125  40.787  26.054   9.047
   17POPC   GL2 5126  41.036  25.826   9.059
   17POPC   C1A 5127  40.634  25.843   8.705
   17POPC   D2A 5128  40.792  25.716   8.328
   17POPC   C3A 5129  40.706  25.990   8.019
   17POPC   C4A 5130  40.604  25.773   7.668
   17POPC   C1B 5131  41.139  25.932   8.655
   17POPC   C2B 5132  40.994  26.240   8.372
   17POPC   C3B 5133  41.181  26.426   8.019
   17POPC   C4B 5134  41.051  26.155   7.656
   18POPC   NC3 5135  24.087  33.707   9.553
   18POPC   PO4 5136  24.756  33.734   9.542
   18POPC   GL1 5137  24.501  33.865   9.177
   18POPC   GL2 5138  24.303  33.616   9.086
   18POPC   C1A 5139  24.376  33.998   8.724
   18POPC   D2A 5140  24.642  33.911   8.344
   18POPC   C3A 5141  24.681  34.092   7.962
   18POPC   C4A 5142  24.250  34.144   7.935
   18POPC   C1B 5143  24.680  33.588   8.731
   18POPC   C2B 5144  24.778  33.428   8.264
   18POPC   C3B 5145  24.736  33.603   7.827
   18POPC   C4B 5146  24.612  33.469   7.370
   19POPC   NC3 5147  30.945  38.339   9.604
   19POPC   PO4 5148  30.472  38.699   9.444
   19POPC   GL1 5149  30.769  38.550   9.168
   19POPC   GL2 5150  30.748  38.175   9.161
   19POPC   C1A 5151  30.730  38.540   8.746
   19POPC   D2A 5152  30.815  38.681   8.336
   19POPC   C3A 5153  30.525  38.583   7.998
   19POPC   C4A 5154  30.697  38.334   7.680
   19POPC   C1B 5155  30.512  38.055   8.806
   19POPC   C2B 5156  30.499  38.242   8.390
   19POPC   C3B 5157  30.484  38.021   8.003
   19POPC   C4B 5158  30.519  37.852   7.562
   20POPC   NC3 5159  29.167  27.014   9.367
   20POPC   PO4 5160  29.170  26.448   9.642
   20POPC   GL1 5161  29.227  26.554   9.177
   20POPC   GL2 5162  28.875  26.565   9.168
   20POPC   C1A 5163  29.425  26.683   8.765
   20POPC   D2A 5164  29.572  26.837   8.357
   20POPC   C3A 5165  29.446  26.591   8.010
   20POPC   C4A 5166  29.282  26.650   7.610
   20POPC   C1B 5167  28.915  26.684   8.756
   20POPC   C2B 5168  29.090  26.598   8.372
   20POPC   C3B 5169  28.903  26.632   7.970
   20POPC   C4B 5170  28.803  26.495   7.540
   21POPC   NC3 5171  18.113  40.644   9.861
   21POPC   PO4 5172  18.662  40.521   9.460
   21POPC   GL1 5173  18.526  40.605   9.108
   21POPC   GL2 5174  18.338  40.873   9.096
   21POPC   C1A 5175  18.440  40.532   8.708
   21POPC   D2A 5176  18.622  40.395   8.324
   21POPC   C3A 5177  18.317  40.501   8.011
   21POPC   C4A 5178  18.245  40.795   7.704
   21POPC   C1B 5179  18.473  41.204   8.811
   21POPC   C2B 5180  18.400  41.374   8.423
   21POPC   C3B 5181  18.463  41.247   8.035
   21POPC   C4B 5182  18.401  41.259   7.633
   22POPC   NC3 5183  43.842  25.571   9.325
   22POPC   PO4 5184  43.619  24.945   9.487
   22POPC   GL1 5185  43.744  25.057   9.089
   22POPC   GL2 5186  44.038  25.141   9.154
   22POPC   C1A 5187  43.736  25.370   8.733
   22POPC   D2A 5188  43.731  25.555   8.330
   22POPC   C3A 5189  43.689  25.243   8.048
   22POPC   C4A 5190  43.790  25.062   7.687
   22POPC   C1B 5191  44.229  25.236   8.765
   22POPC   C2B 5192  44.163  25.268   8.303
   22POPC   C3B 5193  44.148  25.365   7.865
   22POPC   C4B 5194  44.201  25.192   7.410
   23POPC   NC3 5195   1.074  17.119   9.723
   23POPC   PO4 5196   1.424  17.666   9.527
   23POPC   GL1 5197   1.188  17.506   9.217
   23POPC   GL2 5198   1.239  17.154   9.229
   23POPC   C1A 5199   1.141  17.651   8.817
   23POPC   D2A 5200   1.392  17.624   8.449
   23POPC   C3A 5201   1.187  17.780   8.091
   23POPC   C4A 5202   0.973  17.776   7.689
   23POPC   C1B 5203   1.312  17.168   8.789
   23POPC   C2B 5204   1.200  17.125   8.356
   23POPC   C3B 5205   1.114  17.319   7.943
   23POPC   C4B 5206   1.348  17.429   7.580
   24POPC   NC3 5207  43.367  16.387   9.520
   24POPC   PO4 5208  43.019  15.821   9.648
   24POPC   GL1 5209  43.121  15.844   9.200
   24POPC   GL2 5210  43.309  16.164   9.062
   24POPC   C1A 5211  43.300  15.737   8.808
   24POPC   D2A 5212  43.358  16.032   8.516
   24POPC   C3A 5213  43.292  15.915   8.108
   24POPC   C4A 5214  43.106  15.645   7.822
   24POPC   C1B 5215  42.962  16.199   8.768
   24POPC   C2B 5216  42.997  16.326   8.311
   24POPC   C3B 5217  42.911  16.193   7.897
   24POPC   C4B 5218  42.642  16.183   7.541
   25POPC   NC3 5219  24.303  41.884   9.391
   25POPC   PO4 5220  24.832  41.411   9.426
   25POPC   GL1 5221  24.718  41.676   9.131
   25POPC   GL2 5222  24.413  41.470   9.122
   25POPC   C1A 5223  24.694  41.677   8.680
   25POPC   D2A 5224  24.887  41.572   8.243
   25POPC   C3A 5225  24.638  41.741   7.893
   25POPC   C4A 5226  24.452  41.946   7.515
   25POPC   C1B 5227  24.207  41.502   8.741
   25POPC   C2B 5228  24.390  41.461   8.329
   25POPC   C3B 5229  24.194  41.496   7.950
   25POPC   C4B 5230  24.036  41.809   7.749
   26POPC   NC3 5231  25.805  12.267   9.587
   26POPC   PO4 5232  26.396  11.953   9.714
   26POPC   GL1 5233  26.210  12.069   9.281
   26POPC   GL2 5234  26.406  12.318   9.131
   26POPC   C1A 5235  26.151  12.065   8.779
   26POPC   D2A 5236  25.924  12.095   8.349
   26POPC   C3A 5237  26.048  12.124   7.907
   26POPC   C4A 5238  25.974  11.977   7.472
   26POPC   C1B 5239  26.418  12.531   8.760
   26POPC   C2B 5240  26.341  12.409   8.333
   26POPC   C3B 5241  26.325  12.551   7.906
   26POPC   C4B 5242  26.425  12.296   7.506
   27POPC   NC3 5243  17.529  27.807   9.379
   27POPC   PO4 5244  17.358  27.135   9.479
   27POPC   GL1 5245  17.374  27.345   9.129
   27POPC   GL2 5246  17.053  27.544   9.129
   27POPC   C1A 5247  17.679  27.281   8.805
   27POPC   D2A 5248  17.688  27.467   8.423
   27POPC   C3A 5249  17.565  27.325   8.015
   27POPC   C4A 5250  17.780  27.605   7.743
   27POPC   C1B 5251  17.208  27.548   8.689
   27POPC   C2B 5252  17.271  27.725   8.280
   27POPC   C3B 5253  17.067  27.745   7.889
   27POPC   C4B 5254  17.189  27.985   7.495
   28POPC   NC3 5255   1.002   5.375   9.742
   28POPC   PO4 5256   1.121   5.977   9.522
   28POPC   GL1 5257   1.049   5.938   9.095
   28POPC   GL2 5258   1.405   5.876   8.979
   28POPC   C1A 5259   1.085   6.114   8.688
   28POPC   D2A 5260   1.471   6.050   8.469
   28POPC   C3A 5261   1.404   5.770   8.122
   28POPC   C4A 5262   1.156   5.925   7.778
   28POPC   C1B 5263   1.246   5.611   8.638
   28POPC   C2B 5264   0.948   5.358   8.412
   28POPC   C3B 5265   0.944   5.437   7.974
   28POPC   C4B 5266   1.288   5.442   7.704
   29POPC   NC3 5267  43.678  42.341   9.594
   29POPC   PO4 5268  43.109  42.164   9.661
   29POPC   GL1 5269  42.900  42.090   9.235
   29POPC   GL2 5270  43.006  42.378   9.090
   29POPC   C1A 5271  42.977  41.974   8.763
   29POPC   D2A 5272  42.897  42.174   8.339
   29POPC   C3A 5273  42.895  42.046   7.908
   29POPC   C4A 5274  42.513  42.138   7.649
   29POPC   C1B 5275  42.952  42.555   8.682
   29POPC   C2B 5276  43.307  42.474   8.395
   29POPC   C3B 5277  43.360  42.290   7.990
   29POPC   C4B 5278  43.363  42.509   7.588
   30POPC   NC3 5279   2.223   2.250   9.482
   30POPC   PO4 5280   1.622   1.891   9.342
   30POPC   GL1 5281   1.947   2.031   9.114
   30POPC   GL2 5282   1.998   2.374   9.050
   30POPC   C1A 5283   2.013   1.947   8.720
   30POPC   D2A 5284   1.720   2.024   8.402
   30POPC   C3A 5285   2.070   2.188   8.162
   30POPC   C4A 5286   2.243   2.025   7.823
   30POPC   C1B 5287   1.736   2.439   8.704
   30POPC   C2B 5288   1.729   2.552   8.260
   30POPC   C3B 5289   1.621   2.217   7.941
   30POPC   C4B 5290   1.795   2.147   7.551
   31POPC   NC3 5291  40.889  17.678   9.632
   31POPC   PO4 5292  40.503  18.043   9.441
   31POPC   GL1 5293  40.810  17.803   9.138
   31POPC   GL2 5294  40.826  17.430   9.139
   31POPC   C1A 5295  41.060  17.700   8.755
   31POPC   D2A 5296  41.109  17.501   8.341
   31POPC   C3A 5297  41.050  17.756   7.967
   31POPC   C4A 5298  40.820  17.719   7.588
   31POPC   C1B 5299  40.905  17.195   8.722
   31POPC   C2B 5300  40.929  17.036   8.264
   31POPC   C3B 5301  40.913  17.268   7.879
   31POPC   C4B 5302  40.966  17.236   7.450
   32POPC   NC3 5303   8.272  12.808   9.611
   32POPC   PO4 5304   7.683  12.951   9.638
   32POPC   GL1 5305   7.933  12.903   9.194
   32POPC   GL2 5306   8.281  12.947   9.139
   32POPC   C1A 5307   8.041  12.889   8.711
   32POPC   D2A 5308   7.834  13.029   8.353
   32POPC   C3A 5309   7.904  12.763   8.024
   32POPC   C4A 5310   7.899  12.748   7.609
   32POPC   C1B 5311   8.541  13.034   8.802
   32POPC   C2B 5312   8.630  12.840   8.444
   32POPC   C3B 5313   8.553  12.957   8.068
   32POPC   C4B 5314   8.373  12.909   7.703
   33POPC   NC3 5315   1.106   5.441   9.251
   33POPC   PO4 5316   1.373   4.957   9.678
   33POPC   GL1 5317   1.258   4.920   9.230
   33POPC   GL2 5318   1.462   5.099   9.015
   33POPC   C1A 5319   0.965   4.931   8.841
   33POPC   D2A 5320   1.045   4.804   8.436
   33POPC   C3A 5321   0.933   4.923   8.074
   33POPC   C4A 5322   1.162   4.943   7.748
   33POPC   C1B 5323   1.406   5.110   8.586
   33POPC   C2B 5324   1.515   4.980   8.179
   33POPC   C3B 5325   1.644   5.059   7.752
   33POPC   C4B 5326   1.489   4.923   7.335
   34POPC   NC3 5327  39.760  30.586   9.477
   34POPC   PO4 5328  39.099  30.345   9.547
   34POPC   GL1 5329  39.192  30.583   9.178
   34POPC   GL2 5330  39.486  30.851   9.144
   34POPC   C1A 5331  38.950  30.460   8.818
   34POPC   D2A 5332  38.734  30.637   8.481
   34POPC   C3A 5333  38.888  30.604   8.059
   34POPC   C4A 5334  39.227  30.471   7.823
   34POPC   C1B 5335  39.424  30.682   8.744
   34POPC   C2B 5336  39.339  30.606   8.350
   34POPC   C3B 5337  39.655  30.499   8.085
   34POPC   C4B 5338  39.718  30.613   7.681
   35POPC   NC3 5339  19.277   5.388   9.433
   35POPC   PO4 5340  18.972   4.758   9.533
   35POPC   GL1 5341  19.129   4.961   9.169
   35POPC   GL2 5342  18.838   5.159   9.183
   35POPC   C1A 5343  19.170   5.245   8.785
   35POPC   D2A 5344  19.391   5.187   8.378
   35POPC   C3A 5345  19.150   5.147   8.012
   35POPC   C4A 5346  19.097   5.206   7.584
   35POPC   C1B 5347  18.750   4.841   8.858
   35POPC   C2B 5348  18.910   4.950   8.468
   35POPC   C3B 5349  18.887   4.738   8.117
   35POPC   C4B 5350  18.930   4.713   7.673
   36POPC   NC3 5351  32.028  21.555   9.449
   36POPC   PO4 5352  32.685  21.383   9.436
   36POPC   GL1 5353  32.356  21.217   9.146
   36POPC   GL2 5354  32.020  21.061   9.256
   36POPC   C1A 5355  32.323  21.294   8.701
   36POPC   D2A 5356  32.212  21.620   8.416
   36POPC   C3A 5357  32.405  21.654   8.016
   36POPC   C4A 5358  32.235  21.491   7.665
   36POPC   C1B 5359  31.861  21.262   8.876
   36POPC   C2B 5360  31.851  21.146   8.461
   36POPC   C3B 5361  32.020  21.243   8.064
   36POPC   C4B 5362  31.816  21.192   7.648
   37POPC   NC3 5363  36.599  35.614   9.323
   37POPC   PO4 5364  36.191  36.067   9.594
   37POPC   GL1 5365  36.346  36.069   9.179
   37POPC   GL2 5366  36.469  36.410   9.080
   37POPC   C1A 5367  36.129  35.864   8.852
   37POPC   D2A 5368  35.865  35.976   8.525
   37POPC   C3A 5369  35.942  35.811   8.105
   37POPC   C4A 5370  36.032  35.955   7.700
   37POPC   C1B 5371  36.526  36.188   8.692
   37POPC   C2B 5372  36.389  35.864   8.402
   37POPC   C3B 5373  36.470  35.882   7.963
   37POPC   C4B 5374  36.495  36.187   7.608
   38POPC   NC3 5375  13.558   7.143   9.435
   38POPC   PO4 5376  13.989   7.629   9.271
   38POPC   GL1 5377  13.659   7.471   9.054
   38POPC   GL2 5378  13.463   7.763   8.918
   38POPC   C1A 5379  13.618   7.298   8.677
   38POPC   D2A 5380  13.639   7.584   8.357
   38POPC   C3A 5381  13.687   7.392   7.986
   38POPC   C4A 5382  13.958   7.165   7.715
   38POPC   C1B 5383  13.158   7.521   8.679
   38POPC   C2B 5384  13.206   7.269   8.296
   38POPC   C3B 5385  13.296   7.097   7.880
   38POPC   C4B 5386  13.453   7.381   7.513
   39POPC   NC3 5387   1.420  18.897   9.529
   39POPC   PO4 5388   0.879  19.313   9.372
   39POPC   GL1 5389   1.272  19.193   9.118
   39POPC   GL2 5390   1.383  18.828   9.026
   39POPC   C1A 5391   1.553  19.238   8.758
   39POPC   D2A 5392   1.594  19.087   8.327
   39POPC   C3A 5393   1.335  19.325   8.043
   39POPC   C4A 5394   1.222  19.323   7.611
   39POPC   C1B 5395   1.094  18.988   8.686
   39POPC   C2B 5396   0.829  18.993   8.323
   39POPC   C3B 5397   0.857  19.133   7.889
   39POPC   C4B 5398   0.965  18.872   7.503
   40POPC   NC3 5399  21.023  23.566   9.494
   40POPC   PO4 5400  20.478  23.903   9.628
   40POPC   GL1 5401  20.500  23.609   9.264
   40POPC   GL2 5402  20.802  23.511   9.056
   40POPC   C1A 5403  20.393  23.638   8.816
   40POPC   D2A 5404  20.633  23.568   8.457
   40POPC   C3A 5405  20.517  23.650   8.068
   40POPC   C4A 5406  20.266  23.391   7.837
   40POPC   C1B 5407  20.903  23.867   8.758
   40POPC   C2B 5408  20.882  23.977   8.288
   40POPC   C3B 5409  20.979  23.819   7.863
   40POPC   C4B 5410  20.958  23.940   7.441
   41POPC   NC3 5411  18.369   0.740   9.782
   41POPC   PO4 5412  18.236   0.151   9.435
   41POPC   GL1 5413  18.248   0.157   9.029
   41POPC   GL2 5414  18.569   0.282   9.034
   41POPC   C1A 5415  18.236   0.262   8.640
   41POPC   D2A 5416  18.292   0.599   8.418
   41POPC   C3A 5417  18.178   0.426   8.051
   41POPC   C4A 5418  18.153   0.691   7.713
   41POPC   C1B 5419  18.709   0.604   8.772
   41POPC   C2B 5420  18.782   0.807   8.395
   41POPC   C3B 5421  18.651   0.603   8.040
   41POPC   C4B 5422  18.646   0.817   7.679
   42POPC   NC3 5423   2.085  24.062   9.213
   42POPC   PO4 5424   1.714  24.569   9.598
   42POPC   GL1 5425   1.983  24.563   9.143
   42POPC   GL2 5426   1.803  24.356   8.840
   42POPC   C1A 5427   2.245  24.483   8.724
   42POPC   D2A 5428   2.035  24.250   8.376
   42POPC   C3A 5429   2.194  24.290   7.974
   42POPC   C4A 5430   2.174  24.574   7.675
   42POPC   C1B 5431   1.723  23.928   8.630
   42POPC   C2B 5432   1.511  23.969   8.247
   42POPC   C3B 5433   1.678  24.247   7.929
   42POPC   C4B 5434   1.834  24.247   7.485
   43POPC   NC3 5435  20.391  39.825   9.334
   43POPC   PO4 5436  21.115  39.630   9.275
   43POPC   GL1 5437  20.773  39.736   9.016
   43POPC   GL2 5438  20.815  40.080   9.109
   43POPC   C1A 5439  20.458  39.972   8.704
   43POPC   D2A 5440  20.445  39.892   8.267
   43POPC   C3A 5441  20.393  40.175   7.956
   43POPC   C4A 5442  20.351  40.103   7.494
   43POPC   C1B 5443  20.957  40.037   8.670
   43POPC   C2B 5444  20.823  40.272   8.320
   43POPC   C3B 5445  20.985  40.297   7.915
   43POPC   C4B 5446  20.808  39.995   7.701
   44POPC   NC3 5447   7.653  43.857   9.590
   44POPC   PO4 5448   7.169  43.596   9.388
   44POPC   GL1 5449   7.309  43.928   9.181
   44POPC   GL2 5450   7.623  43.789   9.071
   44POPC   C1A 5451   7.189  43.975   8.796
   44POPC   D2A 5452   7.336  43.755   8.450
   44POPC   C3A 5453   7.263  43.948   8.083
   44POPC   C4A 5454   7.156  44.059   7.696
   44POPC   C1B 5455   7.762  43.505   8.753
   44POPC   C2B 5456   7.685  43.294   8.409
   44POPC   C3B 5457   7.795  43.435   8.027
   44POPC   C4B 5458   7.533  43.669   7.747
   45POPC   NC3 5459   4.544  13.049   9.301
   45POPC   PO4 5460   5.060  12.687   9.590
   45POPC   GL1 5461   5.108  12.839   9.155
   45POPC   GL2 5462   5.258  13.161   9.152
   45POPC   C1A 5463   4.866  12.853   8.748
   45POPC   D2A 5464   4.612  12.577   8.479
   45POPC   C3A 5465   4.794  12.574   8.073
   45POPC   C4A 5466   4.727  12.908   7.743
   45POPC   C1B 5467   5.356  13.008   8.709
   45POPC   C2B 5468   5.157  12.871   8.299
   45POPC   C3B 5469   5.188  13.052   7.868
   45POPC   C4B 5470   5.136  13.042   7.387
   46POPC   NC3 5471  36.664  11.670   9.580
   46POPC   PO4 5472  37.079  12.195   9.489
   46POPC   GL1 5473  36.752  12.272   9.187
   46POPC   GL2 5474  36.683  11.928   9.101
   46POPC   C1A 5475  36.671  12.314   8.743
   46POPC   D2A 5476  36.773  11.998   8.412
   46POPC   C3A 5477  36.852  12.151   8.029
   46POPC   C4A 5478  37.255  12.279   7.880
   46POPC   C1B 5479  36.414  11.835   8.731
   46POPC   C2B 5480  36.475  11.553   8.361
   46POPC   C3B 5481  36.691  11.670   8.001
   46POPC   C4B 5482  37.139  11.742   7.952
   47POPC   NC3 5483  37.772  22.827   9.516
   47POPC   PO4 5484  37.330  23.344   9.525
   47POPC   GL1 5485  37.612  23.204   9.213
   47POPC   GL2 5486  37.412  22.966   9.159
   47POPC   C1A 5487  37.820  22.970   8.842
   47POPC   D2A 5488  37.694  23.025   8.410
   47POPC   C3A 5489  37.803  22.760   8.085
   47POPC   C4A 5490  37.777  22.949   7.718
   47POPC   C1B 5491  37.324  22.937   8.753
   47POPC   C2B 5492  37.286  22.729   8.362
   47POPC   C3B 5493  37.323  22.932   7.964
   47POPC   C4B 5494  37.070  22.951   7.588
   48POPC   NC3 5495  13.383  13.272   9.298
   48POPC   PO4 5496  13.827  13.685   9.516
   48POPC   GL1 5497  13.706  13.743   9.124
   48POPC   GL2 5498  13.474  13.986   9.102
   48POPC   C1A 5499  13.890  13.912   8.762
   48POPC   D2A 5500  13.704  14.066   8.387
   48POPC   C3A 5501  13.617  13.758   8.094
   48POPC   C4A 5502  13.591  13.842   7.686
   48POPC   C1B 5503  13.375  13.780   8.708
   48POPC   C2B 5504  13.401  13.423   8.437
   48POPC   C3B 5505  13.431  13.256   8.005
   48POPC   C4B 5506  13.789  13.363   7.744
   49POPC   NC3 5507  40.260  32.872   9.552
   49POPC   PO4 5508  39.786  33.382   9.457
   49POPC   GL1 5509  39.935  33.047   9.172
   49POPC   GL2 5510  40.201  33.251   9.098
   49POPC   C1A 5511  40.011  32.877   8.731
   49POPC   D2A 5512  39.737  32.733   8.359
   49POPC   C3A 5513  39.854  32.822   7.897
   49POPC   C4A 5514  40.118  32.920   7.497
   49POPC   C1B 5515  39.854  33.358   8.761
   49POPC   C2B 5516  39.914  33.246   8.290
   49POPC   C3B 5517  39.839  33.315   7.808
   49POPC   C4B 5518  39.892  33.336   7.315
   50POPC   NC3 5519  35.596  28.272   9.477
   50POPC   PO4 5520  34.967  28.677   9.438
   50POPC   GL1 5521  35.089  28.516   9.060
   50POPC   GL2 5522  35.441  28.493   8.966
   50POPC   C1A 5523  35.020  28.533   8.633
   50POPC   D2A 5524  35.337  28.338   8.394
   50POPC   C3A 5525  35.425  28.436   7.977
   50POPC   C4A 5526  35.053  28.498   7.745
   50POPC   C1B 5527  35.593  28.112   8.766
   50POPC   C2B 5528  35.735  28.009   8.342
   50POPC   C3B 5529  35.738  28.021   7.879
   50POPC   C4B 5530  35.387  28.104   7.581
   51POPC   NC3 5531  41.311  31.883   9.380
   51POPC   PO4 5532  40.729  32.295   9.456
   51POPC   GL1 5533  40.799  32.231   9.045
   51POPC   GL2 5534  40.477  32.309   8.833
   51POPC   C1A 5535  40.858  32.030   8.670
   51POPC   D2A 5536  40.791  31.874   8.285
   51POPC   C3A 5537  40.778  32.238   8.049
   51POPC   C4A 5538  40.947  32.327   7.674
   51POPC   C1B 5539  40.802  32.607   8.716
   51POPC   C2B 5540  41.011  32.722   8.363
   51POPC   C3B 5541  40.763  32.784   8.003
   51POPC   C4B 5542  40.552  32.643   7.613
   52POPC   NC3 5543   0.097  40.762  10.000
   52POPC   PO4 5544  44.500  40.792   9.609
   52POPC   GL1 5545  44.544  40.770   9.187
   52POPC   GL2 5546  44.873  40.647   9.125
   52POPC   C1A 5547  44.467  40.647   8.771
   52POPC   D2A 5548  44.783  40.605   8.447
   52POPC   C3A 5549  44.654  40.767   8.048
   52POPC   C4A 5550  44.407  40.723   7.650
   52POPC   C1B 5551  44.843  40.997   8.812
   52POPC   C2B 5552   0.054  41.038   8.399
   52POPC   C3B 5553  44.898  41.213   8.029
   52POPC   C4B 5554  44.854  41.032   7.645
   53POPC   NC3 5555   4.649   1.994   9.484
   53POPC   PO4 5556   4.080   2.385   9.316
   53POPC   GL1 5557   4.189   2.018   9.068
   53POPC   GL2 5558   4.520   1.844   9.036
   53POPC   C1A 5559   4.281   1.970   8.625
   53POPC   D2A 5560   4.104   2.136   8.281
   53POPC   C3A 5561   4.070   1.837   7.955
   53POPC   C4A 5562   4.140   1.789   7.565
   53POPC   C1B 5563   4.624   2.269   8.856
   53POPC   C2B 5564   4.639   2.310   8.401
   53POPC   C3B 5565   4.734   2.069   8.014
   53POPC   C4B 5566   4.631   1.755   7.689
   54POPC   NC3 5567  24.116  36.282   9.390
   54POPC   PO4 5568  24.770  36.215   9.538
   54POPC   GL1 5569  24.778  36.074   9.146
   54POPC   GL2 5570  24.456  36.039   9.112
   54POPC   C1A 5571  24.915  36.034   8.739
   54POPC   D2A 5572  24.887  36.336   8.400
   54POPC   C3A 5573  24.703  36.226   7.982
   54POPC   C4A 5574  24.613  36.404   7.567
   54POPC   C1B 5575  24.471  36.313   8.764
   54POPC   C2B 5576  24.394  36.132   8.381
   54POPC   C3B 5577  24.097  35.956   8.118
   54POPC   C4B 5578  24.231  36.057   7.712
   55POPC   NC3 5579  31.121   6.376   9.545
   55POPC   PO4 5580  31.287   7.023   9.437
   55POPC   GL1 5581  31.429   6.821   9.095
   55POPC   GL2 5582  31.785   6.912   9.128
   55POPC   C1A 5583  31.258   6.825   8.684
   55POPC   D2A 5584  31.072   6.792   8.291
   55POPC   C3A 5585  31.162   6.469   8.037
   55POPC   C4A 5586  31.385   6.452   7.674
   55POPC   C1B 5587  31.754   6.722   8.705
   55POPC   C2B 5588  31.591   6.624   8.298
   55POPC   C3B 5589  31.815   6.545   7.899
   55POPC   C4B 5590  31.883   6.515   7.424
   56POPC   NC3 5591  27.930  34.614   9.457
   56POPC   PO4 5592  28.511  34.487   9.549
   56POPC   GL1 5593  28.463  34.641   9.145
   56POPC   GL2 5594  28.203  34.924   9.162
   56POPC   C1A 5595  28.612  34.454   8.734
   56POPC   D2A 5596  28.795  34.329   8.301
   56POPC   C3A 5597  28.614  34.598   7.961
   56POPC   C4A 5598  28.368  34.979   7.912
   56POPC   C1B 5599  28.145  34.741   8.762
   56POPC   C2B 5600  28.290  34.737   8.357
   56POPC   C3B 5601  28.088  34.568   7.987
   56POPC   C4B 5602  28.104  34.339   7.606
   57POPC   NC3 5603  24.714  24.391   9.959
   57POPC   PO4 5604  24.425  24.273   9.586
   57POPC   GL1 5605  24.455  24.387   9.126
   57POPC   GL2 5606  24.788  24.499   9.047
   57POPC   C1A 5607  24.480  24.379   8.651
   57POPC   D2A 5608  24.640  24.188   8.267
   57POPC   C3A 5609  24.531  24.329   7.851
   57POPC   C4A 5610  24.224  24.186   7.533
   57POPC   C1B 5611  24.855  24.716   8.626
   57POPC   C2B 5612  24.579  24.720   8.251
   57POPC   C3B 5613  24.706  24.809   7.820
   57POPC   C4B 5614  24.846  24.556   7.469
   58POPC   NC3 5615  24.832   5.900   9.459
   58POPC   PO4 5616  24.332   5.533   9.733
   58POPC   GL1 5617  24.354   5.649   9.302
   58POPC   GL2 5618  24.340   6.028   9.320
   58POPC   C1A 5619  24.553   5.587   8.877
   58POPC   D2A 5620  24.587   5.487   8.412
   58POPC   C3A 5621  24.315   5.644   8.065
   58POPC   C4A 5622  24.362   5.807   7.638
   58POPC   C1B 5623  24.475   6.095   8.875
   58POPC   C2B 5624  24.297   5.979   8.462
   58POPC   C3B 5625  24.361   6.161   8.010
   58POPC   C4B 5626  24.760   6.119   7.746
   59POPC   NC3 5627  30.015  39.606   9.479
   59POPC   PO4 5628  29.646  39.024   9.506
   59POPC   GL1 5629  29.735  39.293   9.172
   59POPC   GL2 5630  29.418  39.269   9.023
   59POPC   C1A 5631  30.095  39.346   8.892
   59POPC   D2A 5632  30.319  39.355   8.509
   59POPC   C3A 5633  30.128  39.067   8.210
   59POPC   C4A 5634  29.945  39.162   7.823
   59POPC   C1B 5635  29.644  39.502   8.705
   59POPC   C2B 5636  29.711  39.390   8.277
   59POPC   C3B 5637  29.483  39.299   7.919
   59POPC   C4B 5638  29.569  39.269   7.469
   60POPC   NC3 5639  17.022  33.910   9.489
   60POPC   PO4 5640  17.045  33.278   9.543
   60POPC   GL1 5641  16.672  33.409   9.246
   60POPC   GL2 5642  16.693  33.756   9.136
   60POPC   C1A 5643  16.769  33.408   8.775
   60POPC   D2A 5644  16.859  33.732   8.449
   60POPC   C3A 5645  16.838  33.544   8.039
   60POPC   C4A 5646  16.719  33.476   7.592
   60POPC   C1B 5647  16.533  33.981   8.774
   60POPC   C2B 5648  16.560  34.131   8.356
   60POPC   C3B 5649  16.859  34.066   8.026
   60POPC   C4B 5650  16.749  33.983   7.611
   61POPC   NC3 5651  32.330  19.330   9.437
   61POPC   PO4 5652  31.863  18.940   9.472
   61POPC   GL1 5653  32.203  18.900   9.168
   61POPC   GL2 5654  32.010  18.714   9.031
   61POPC   C1A 5655  32.451  19.118   8.834
   61POPC   D2A 5656  32.167  19.401   8.592
   61POPC   C3A 5657  32.219  19.467   8.160
   61POPC   C4A 5658  32.559  19.326   7.894
   61POPC   C1B 5659  32.056  18.881   8.639
   61POPC   C2B 5660  32.343  18.977   8.294
   61POPC   C3B 5661  32.262  18.827   7.867
   61POPC   C4B 5662  32.083  18.705   7.458
   62POPC   NC3 5663  31.554  42.613   9.604
   62POPC   PO4 5664  31.559  41.965   9.512
   62POPC   GL1 5665  31.556  42.186   9.174
   62POPC   GL2 5666  31.848  42.345   9.256
   62POPC   C1A 5667  31.556  42.107   8.722
   62POPC   D2A 5668  31.182  42.052   8.449
   62POPC   C3A 5669  31.211  42.351   8.126
   62POPC   C4A 5670  31.349  42.357   7.689
   62POPC   C1B 5671  31.738  42.569   8.899
   62POPC   C2B 5672  31.735  42.597   8.458
   62POPC   C3B 5673  31.710  42.491   8.025
   62POPC   C4B 5674  31.627  42.796   7.694
   63POPC   NC3 5675  12.810  42.834   9.883
   63POPC   PO4 5676  12.983  42.557   9.364
   63POPC   GL1 5677  13.004  42.855   9.020
   63POPC   GL2 5678  12.751  43.097   9.026
   63POPC   C1A 5679  13.062  42.957   8.561
   63POPC   D2A 5680  13.162  42.701   8.204
   63POPC   C3A 5681  13.004  42.874   7.861
   63POPC   C4A 5682  12.907  43.315   7.839
   63POPC   C1B 5683  12.581  42.841   8.674
   63POPC   C2B 5684  12.639  42.955   8.238
   63POPC   C3B 5685  12.440  43.107   7.872
   63POPC   C4B 5686  12.528  43.292   7.456
   64POPC   NC3 5687   1.482   4.517   9.557
   64POPC   PO4 5688   0.903   4.084   9.543
   64POPC   GL1 5689   0.888   4.156   9.127
   64POPC   GL2 5690   1.138   4.415   9.178
   64POPC   C1A 5691   0.894   4.407   8.723
   64POPC   D2A 5692   0.653   4.511   8.359
   64POPC   C3A 5693   0.923   4.385   8.089
   64POPC   C4A 5694   1.043   4.284   7.672
   64POPC   C1B 5695   1.374   4.593   8.832
   64POPC   C2B 5696   1.373   4.436   8.411
   64POPC   C3B 5697   1.384   4.525   7.995
   64POPC   C4B 5698   1.617   4.571   7.684
   65POPC   NC3 5699  21.292   4.508   9.547
   65POPC   PO4 5700  21.824   4.013   9.507
   65POPC   GL1 5701  21.593   4.322   9.130
   65POPC   GL2 5702  21.233   4.333   9.092
   65POPC   C1A 5703  21.430   4.485   8.658
   65POPC   D2A 5704  21.643   4.630   8.237
   65POPC   C3A 5705  21.424   4.474   7.852
   65POPC   C4A 5706  21.172   4.537   7.464
   65POPC   C1B 5707  21.118   4.026   8.809
   65POPC   C2B 5708  20.959   4.074   8.428
   65POPC   C3B 5709  20.980   4.373   8.118
   65POPC   C4B 5710  21.047   4.121   7.739
   66POPC   NC3 5711  23.006  37.412   9.568
   66POPC   PO4 5712  23.472  37.793   9.325
   66POPC   GL1 5713  23.074  37.741   9.102
   66POPC   GL2 5714  22.819  37.481   9.113
   66POPC   C1A 5715  22.744  37.947   8.862
   66POPC   D2A 5716  22.619  38.011   8.427
   66POPC   C3A 5717  22.903  37.909   8.080
   66POPC   C4A 5718  23.179  37.569   7.936
   66POPC   C1B 5719  22.770  37.296   8.732
   66POPC   C2B 5720  22.848  37.047   8.362
   66POPC   C3B 5721  22.751  37.289   8.013
   66POPC   C4B 5722  22.780  37.536   7.625
   67POPC   NC3 5723  34.363  30.309   9.405
   67POPC   PO4 5724  34.696  30.829   9.695
   67POPC   GL1 5725  34.612  30.759   9.262
   67POPC   GL2 5726  34.955  30.666   9.175
   67POPC   C1A 5727  34.526  30.593   8.835
   67POPC   D2A 5728  34.352  30.697   8.445
   67POPC   C3A 5729  34.503  30.714   8.030
   67POPC   C4A 5730  34.254  30.637   7.705
   67POPC   C1B 5731  34.900  30.935   8.814
   67POPC   C2B 5732  34.831  30.916   8.372
   67POPC   C3B 5733  34.892  31.059   7.931
   67POPC   C4B 5734  34.834  30.986   7.483
   68POPC   NC3 5735  41.810  17.294   9.574
   68POPC   PO4 5736  41.278  17.456   9.675
   68POPC   GL1 5737  41.338  17.487   9.197
   68POPC   GL2 5738  41.695  17.532   9.126
   68POPC   C1A 5739  41.411  17.319   8.744
   68POPC   D2A 5740  41.616  17.397   8.330
   68POPC   C3A 5741  41.413  17.404   7.929
   68POPC   C4A 5742  41.581  17.534   7.560
   68POPC   C1B 5743  41.570  17.802   8.770
   68POPC   C2B 5744  41.412  17.901   8.365
   68POPC   C3B 5745  41.543  17.889   7.959
   68POPC   C4B 5746  41.344  17.981   7.574
   69POPC   NC3 5747  43.135  18.957   9.602
   69POPC   PO4 5748  42.667  19.385   9.863
   69POPC   GL1 5749  42.848  19.270   9.334
   69POPC   GL2 5750  43.062  19.433   9.036
   69POPC   C1A 5751  43.119  18.954   8.987
   69POPC   D2A 5752  43.376  18.805   8.649
   69POPC   C3A 5753  43.203  18.898   8.248
   69POPC   C4A 5754  43.138  18.768   7.817
   69POPC   C1B 5755  43.348  19.323   8.714
   69POPC   C2B 5756  43.524  19.292   8.326
   69POPC   C3B 5757  43.286  19.322   7.972
   69POPC   C4B 5758  43.033  19.253   7.624
   70POPC   NC3 5759   8.060  36.040   9.505
   70POPC   PO4 5760   7.811  36.714   9.521
   70POPC   GL1 5761   8.055  36.470   9.172
   70POPC   GL2 5762   8.160  36.130   9.025
   70POPC   C1A 5763   8.159  36.545   8.728
   70POPC   D2A 5764   8.335  36.523   8.273
   70POPC   C3A 5765   8.263  36.237   7.877
   70POPC   C4A 5766   8.068  36.058   7.497
   70POPC   C1B 5767   8.232  36.041   8.589
   70POPC   C2B 5768   8.074  35.879   8.176
   70POPC   C3B 5769   8.300  35.707   7.796
   70POPC   C4B 5770   8.193  35.456   7.422
   71POPC   NC3 5771  29.872  41.091   9.458
   71POPC   PO4 5772  29.733  40.371   9.583
   71POPC   GL1 5773  29.837  40.562   9.174
   71POPC   GL2 5774  30.202  40.636   9.257
   71POPC   C1A 5775  29.624  40.678   8.742
   71POPC   D2A 5776  29.553  40.914   8.330
   71POPC   C3A 5777  29.665  40.680   7.945
   71POPC   C4A 5778  29.948  40.470   7.611
   71POPC   C1B 5779  30.111  40.822   8.818
   71POPC   C2B 5780  30.019  40.671   8.408
   71POPC   C3B 5781  30.163  40.752   8.006
   71POPC   C4B 5782  30.043  40.994   7.648
   72POPC   NC3 5783  42.848  13.384   9.368
   72POPC   PO4 5784  42.193  13.565   9.225
   72POPC   GL1 5785  42.250  13.896   9.001
   72POPC   GL2 5786  42.577  14.002   9.151
   72POPC   C1A 5787  42.170  13.812   8.574
   72POPC   D2A 5788  42.465  13.525   8.425
   72POPC   C3A 5789  42.376  13.443   8.014
   72POPC   C4A 5790  42.380  13.298   7.620
   72POPC   C1B 5791  42.619  14.015   8.660
   72POPC   C2B 5792  42.517  13.963   8.169
   72POPC   C3B 5793  42.324  13.869   7.747
   72POPC   C4B 5794  42.164  14.020   7.343
   73POPC   NC3 5795  38.668   4.851   9.596
   73POPC   PO4 5796  38.139   5.162   9.856
   73POPC   GL1 5797  38.127   5.145   9.344
   73POPC   GL2 5798  38.456   5.128   9.216
   73POPC   C1A 5799  38.174   5.160   8.818
   73POPC   D2A 5800  38.447   4.961   8.465
   73POPC   C3A 5801  38.431   5.134   8.028
   73POPC   C4A 5802  38.333   4.908   7.614
   73POPC   C1B 5803  38.679   5.257   8.836
   73POPC   C2B 5804  38.812   5.344   8.435
   73POPC   C3B 5805  38.849   5.472   7.997
   73POPC   C4B 5806  38.753   5.230   7.622
   74POPC   NC3 5807   6.180  38.458   9.599
   74POPC   PO4 5808   6.887  38.409   9.637
   74POPC   GL1 5809   6.596  38.441   9.264
   74POPC   GL2 5810   6.339  38.157   9.172
   74POPC   C1A 5811   6.747  38.493   8.832
   74POPC   D2A 5812   6.891  38.534   8.400
   74POPC   C3A 5813   6.630  38.761   8.084
   74POPC   C4A 5814   6.723  38.598   7.651
   74POPC   C1B 5815   6.274  38.328   8.733
   74POPC   C2B 5816   6.360  38.323   8.273
   74POPC   C3B 5817   6.256  38.480   7.846
   74POPC   C4B 5818   6.300  38.518   7.372
   75POPC   NC3 5819  36.158  42.679   9.579
   75POPC   PO4 5820  36.550  42.161   9.589
   75POPC   GL1 5821  36.280  42.343   9.195
   75POPC   GL2 5822  36.024  42.589   9.118
   75POPC   C1A 5823  36.052  42.183   8.798
   75POPC   D2A 5824  36.217  41.974   8.418
   75POPC   C3A 5825  36.047  42.071   8.005
   75POPC   C4A 5826  36.261  42.207   7.626
   75POPC   C1B 5827  35.849  42.643   8.757
   75POPC   C2B 5828  35.932  42.457   8.370
   75POPC   C3B 5829  36.021  42.582   7.975
   75POPC   C4B 5830  35.829  42.471   7.575
   76POPC   NC3 5831  33.094  17.732   9.521
   76POPC   PO4 5832  33.145  17.006   9.567
   76POPC   GL1 5833  33.185  17.350   9.206
   76POPC   GL2 5834  32.880  17.495   9.143
   76POPC   C1A 5835  33.262  17.608   8.802
   76POPC   D2A 5836  33.434  17.543   8.384
   76POPC   C3A 5837  33.220  17.626   8.017
   76POPC   C4A 5838  33.424  17.520   7.651
   76POPC   C1B 5839  32.707  17.632   8.786
   76POPC   C2B 5840  32.855  17.573   8.404
   76POPC   C3B 5841  32.713  17.443   8.015
   76POPC   C4B 5842  32.829  17.656   7.662
   77POPC   NC3 5843  34.437  17.053   9.424
   77POPC   PO4 5844  34.504  17.696   9.507
   77POPC   GL1 5845  34.477  17.498   9.127
   77POPC   GL2 5846  34.713  17.241   9.015
   77POPC   C1A 5847  34.295  17.407   8.760
   77POPC   D2A 5848  34.476  17.386   8.417
   77POPC   C3A 5849  34.385  17.390   8.046
   77POPC   C4A 5850  34.332  17.450   7.652
   77POPC   C1B 5851  34.900  17.177   8.579
   77POPC   C2B 5852  34.848  17.145   8.089
   77POPC   C3B 5853  34.773  17.194   7.633
   77POPC   C4B 5854  34.995  17.135   7.211
   78POPC   NC3 5855   6.840  30.640   9.507
   78POPC   PO4 5856   6.252  30.864   9.501
   78POPC   GL1 5857   6.462  30.598   9.184
   78POPC   GL2 5858   6.640  30.844   9.063
   78POPC   C1A 5859   6.501  30.378   8.826
   78POPC   D2A 5860   6.660  30.490   8.409
   78POPC   C3A 5861   6.557  30.360   7.993
   78POPC   C4A 5862   6.690  30.570   7.592
   78POPC   C1B 5863   6.448  31.132   8.788
   78POPC   C2B 5864   6.411  31.091   8.345
   78POPC   C3B 5865   6.670  30.882   8.018
   78POPC   C4B 5866   6.677  31.140   7.640
   79POPC   NC3 5867  21.621  43.352   9.736
   79POPC   PO4 5868  21.003  43.129   9.653
   79POPC   GL1 5869  21.096  43.127   9.236
   79POPC   GL2 5870  21.444  43.034   9.216
   79POPC   C1A 5871  21.088  43.099   8.800
   79POPC   D2A 5872  21.343  43.132   8.436
   79POPC   C3A 5873  21.208  43.164   8.001
   79POPC   C4A 5874  21.489  43.369   7.761
   79POPC   C1B 5875  21.550  42.809   8.823
   79POPC   C2B 5876  21.770  42.850   8.427
   79POPC   C3B 5877  21.769  43.034   8.031
   79POPC   C4B 5878  21.546  42.854   7.699
   80POPC   NC3 5879  37.934  20.539   9.503
   80POPC   PO4 5880  37.810  20.034   9.289
   80POPC   GL1 5881  37.790  20.420   9.032
   80POPC   GL2 5882  38.081  20.667   9.027
   80POPC   C1A 5883  37.674  20.757   8.712
   80POPC   D2A 5884  37.535  20.839   8.272
   80POPC   C3A 5885  37.534  20.586   7.906
   80POPC   C4A 5886  37.255  20.592   7.533
   80POPC   C1B 5887  38.051  20.431   8.610
   80POPC   C2B 5888  37.944  20.407   8.178
   80POPC   C3B 5889  38.060  20.677   7.834
   80POPC   C4B 5890  38.120  20.861   7.402
   81POPC   NC3 5891   1.983  21.312   9.604
   81POPC   PO4 5892   1.730  21.977   9.417
   81POPC   GL1 5893   1.900  21.589   9.193
   81POPC   GL2 5894   2.274  21.508   9.204
   81POPC   C1A 5895   1.990  21.249   8.867
   81POPC   D2A 5896   1.935  21.408   8.448
   81POPC   C3A 5897   1.856  21.313   8.054
   81POPC   C4A 5898   1.602  21.576   7.799
   81POPC   C1B 5899   2.512  21.272   8.884
   81POPC   C2B 5900   2.576  21.106   8.471
   81POPC   C3B 5901   2.358  21.260   8.144
   81POPC   C4B 5902   2.265  21.364   7.738
   82POPC   NC3 5903  12.725  10.283   9.857
   82POPC   PO4 5904  12.458   9.846   9.391
   82POPC   GL1 5905  12.484  10.028   8.972
   82POPC   GL2 5906  12.222   9.966   8.848
   82POPC   C1A 5907  12.817   9.965   8.660
   82POPC   D2A 5908  12.967   9.616   8.418
   82POPC   C3A 5909  13.146   9.662   8.026
   82POPC   C4A 5910  12.990   9.818   7.630
   82POPC   C1B 5911  12.443   9.609   8.673
   82POPC   C2B 5912  12.516   9.726   8.255
   82POPC   C3B 5913  12.687   9.495   7.907
   82POPC   C4B 5914  12.425   9.187   7.799
   83POPC   NC3 5915  34.940  40.851   9.487
   83POPC   PO4 5916  34.333  40.634   9.632
   83POPC   GL1 5917  34.492  40.882   9.220
   83POPC   GL2 5918  34.830  40.863   9.000
   83POPC   C1A 5919  34.405  41.032   8.798
   83POPC   D2A 5920  34.569  40.941   8.392
   83POPC   C3A 5921  34.342  41.025   8.022
   83POPC   C4A 5922  34.213  40.772   7.662
   83POPC   C1B 5923  34.795  40.567   8.679
   83POPC   C2B 5924  34.793  40.537   8.195
   83POPC   C3B 5925  34.716  40.728   7.801
   83POPC   C4B 5926  34.771  40.517   7.401
   84POPC   NC3 5927   7.189  33.304   9.557
   84POPC   PO4 5928   7.139  33.884   9.626
   84POPC   GL1 5929   6.995  33.927   9.161
   84POPC   GL2 5930   6.831  33.626   9.057
   84POPC   C1A 5931   7.071  33.994   8.686
   84POPC   D2A 5932   7.129  33.766   8.278
   84POPC   C3A 5933   7.294  33.855   7.859
   84POPC   C4A 5934   7.678  33.682   7.638
   84POPC   C1B 5935   6.753  33.595   8.602
   84POPC   C2B 5936   6.858  33.356   8.202
   84POPC   C3B 5937   7.074  33.412   7.813
   84POPC   C4B 5938   7.341  33.335   7.448
   85POPC   NC3 5939   1.548  41.560   9.529
   85POPC   PO4 5940   2.230  41.628   9.470
   85POPC   GL1 5941   1.915  41.668   9.185
   85POPC   GL2 5942   1.857  41.311   9.095
   85POPC   C1A 5943   1.887  41.696   8.760
   85POPC   D2A 5944   2.084  41.663   8.355
   85POPC   C3A 5945   1.778  41.569   8.044
   85POPC   C4A 5946   1.803  41.808   7.686
   85POPC   C1B 5947   2.038  41.204   8.644
   85POPC   C2B 5948   2.127  41.183   8.155
   85POPC   C3B 5949   2.145  41.430   7.718
   85POPC   C4B 5950   2.191  41.272   7.260
   86POPC   NC3 5951  32.695  13.884   9.293
   86POPC   PO4 5952  33.223  13.583   9.492
   86POPC   GL1 5953  33.056  13.545   9.111
   86POPC   GL2 5954  33.237  13.866   9.076
   86POPC   C1A 5955  32.820  13.473   8.694
   86POPC   D2A 5956  32.896  13.284   8.257
   86POPC   C3A 5957  32.703  13.489   7.876
   86POPC   C4A 5958  32.692  13.947   7.775
   86POPC   C1B 5959  33.337  13.634   8.717
   86POPC   C2B 5960  33.442  13.733   8.334
   86POPC   C3B 5961  33.193  13.682   7.971
   86POPC   C4B 5962  33.164  13.270   7.808
   87POPC   NC3 5963  31.316  29.174   9.309
   87POPC   PO4 5964  31.956  29.200   9.301
   87POPC   GL1 5965  31.699  29.324   9.021
   87POPC   GL2 5966  31.616  28.964   8.968
   87POPC   C1A 5967  31.563  29.315   8.612
   87POPC   D2A 5968  31.615  29.097   8.270
   87POPC   C3A 5969  31.657  29.369   7.934
   87POPC   C4A 5970  31.391  29.309   7.618
   87POPC   C1B 5971  31.249  28.925   8.721
   87POPC   C2B 5972  31.100  28.955   8.343
   87POPC   C3B 5973  31.262  28.904   7.955
   87POPC   C4B 5974  31.076  28.807   7.613
   88POPC   NC3 5975  36.358   3.958   9.533
   88POPC   PO4 5976  36.360   4.657   9.415
   88POPC   GL1 5977  36.377   4.300   9.145
   88POPC   GL2 5978  36.033   4.182   9.166
   88POPC   C1A 5979  36.313   4.245   8.710
   88POPC   D2A 5980  36.217   4.475   8.330
   88POPC   C3A 5981  36.340   4.281   7.945
   88POPC   C4A 5982  36.038   4.035   7.734
   88POPC   C1B 5983  35.858   4.459   8.798
   88POPC   C2B 5984  35.725   4.598   8.348
   88POPC   C3B 5985  35.865   4.538   7.910
   88POPC   C4B 5986  35.632   4.297   7.571
   89POPC   NC3 5987   3.880  34.744   9.536
   89POPC   PO4 5988   4.520  34.490   9.480
   89POPC   GL1 5989   4.418  34.434   9.072
   89POPC   GL2 5990   4.223  34.728   9.074
   89POPC   C1A 5991   4.540  34.678   8.660
   89POPC   D2A 5992   4.770  34.506   8.260
   89POPC   C3A 5993   4.531  34.504   7.867
   89POPC   C4A 5994   4.338  34.917   7.790
   89POPC   C1B 5995   4.072  34.418   8.722
   89POPC   C2B 5996   4.235  34.433   8.316
   89POPC   C3B 5997   4.030  34.491   7.942
   89POPC   C4B 5998   3.831  34.855   7.777
   90POPC   NC3 5999  26.423  32.377   9.416
   90POPC   PO4 6000  25.722  32.291   9.529
   90POPC   GL1 6001  26.010  32.135   9.205
   90POPC   GL2 6002  26.349  31.988   9.101
   90POPC   C1A 6003  25.917  32.120   8.788
   90POPC   D2A 6004  25.778  32.483   8.582
   90POPC   C3A 6005  25.774  32.495   8.103
   90POPC   C4A 6006  25.660  32.185   7.783
   90POPC   C1B 6007  26.414  32.113   8.680
   90POPC   C2B 6008  26.155  32.216   8.326
   90POPC   C3B 6009  26.127  32.017   7.933
   90POPC   C4B 6010  26.431  32.064   7.592
   91POPC   NC3 6011  17.640   1.234   9.600
   91POPC   PO4 6012  17.175   0.840   9.596
   91POPC   GL1 6013  17.385   1.077   9.192
   91POPC   GL2 6014  17.337   1.427   9.216
   91POPC   C1A 6015  17.347   1.171   8.718
   91POPC   D2A 6016  17.436   1.014   8.288
   91POPC   C3A 6017  17.338   1.281   7.926
   91POPC   C4A 6018  17.298   1.274   7.478
   91POPC   C1B 6019  17.695   1.471   8.906
   91POPC   C2B 6020  17.791   1.462   8.484
   91POPC   C3B 6021  17.697   1.646   8.097
   91POPC   C4B 6022  17.700   1.544   7.657
   92POPC   NC3 6023  38.196   7.578   9.466
   92POPC   PO4 6024  38.495   7.048   9.738
   92POPC   GL1 6025  38.449   7.171   9.237
   92POPC   GL2 6026  38.398   7.519   9.027
   92POPC   C1A 6027  38.546   7.134   8.776
   92POPC   D2A 6028  38.446   7.059   8.359
   92POPC   C3A 6029  38.664   7.231   8.037
   92POPC   C4A 6030  38.382   7.225   7.710
   92POPC   C1B 6031  38.091   7.709   8.733
   92POPC   C2B 6032  38.145   7.731   8.274
   92POPC   C3B 6033  38.356   7.704   7.895
   92POPC   C4B 6034  38.754   7.616   7.686
   93POPC   NC3 6035  24.236  14.233   9.503
   93POPC   PO4 6036  24.668  14.753   9.501
   93POPC   GL1 6037  24.532  14.481   9.171
   93POPC   GL2 6038  24.192  14.648   9.150
   93POPC   C1A 6039  24.578  14.194   8.801
   93POPC   D2A 6040  24.731  14.396   8.428
   93POPC   C3A 6041  24.619  14.337   8.044
   93POPC   C4A 6042  24.913  14.093   7.800
   93POPC   C1B 6043  24.315  14.625   8.717
   93POPC   C2B 6044  24.211  14.276   8.431
   93POPC   C3B 6045  24.084  14.385   8.029
   93POPC   C4B 6046  24.259  14.731   7.781
   94POPC   NC3 6047   6.093   0.557   9.364
   94POPC   PO4 6048   5.728  44.974   9.389
   94POPC   GL1 6049   5.886   0.185   9.060
   94POPC   GL2 6050   5.673   0.495   9.067
   94POPC   C1A 6051   6.044   0.405   8.701
   94POPC   D2A 6052   5.881   0.545   8.311
   94POPC   C3A 6053   5.955   0.277   7.999
   94POPC   C4A 6054   6.168   0.377   7.658
   94POPC   C1B 6055   5.662   0.776   8.709
   94POPC   C2B 6056   5.358   0.825   8.375
   94POPC   C3B 6057   5.454   0.895   7.925
   94POPC   C4B 6058   5.682   0.580   7.681
   95POPC   NC3 6059  35.289  20.405   9.534
   95POPC   PO4 6060  35.219  21.070   9.392
   95POPC   GL1 6061  35.313  20.730   9.112
   95POPC   GL2 6062  35.038  20.480   9.077
   95POPC   C1A 6063  35.547  20.798   8.747
   95POPC   D2A 6064  35.580  21.020   8.392
   95POPC   C3A 6065  35.385  20.923   7.995
   95POPC   C4A 6066  35.535  20.675   7.663
   95POPC   C1B 6067  35.003  20.673   8.647
   95POPC   C2B 6068  35.027  20.614   8.177
   95POPC   C3B 6069  35.061  20.546   7.741
   95POPC   C4B 6070  35.094  20.825   7.372
   96POPC   NC3 6071  44.026  37.960   9.899
   96POPC   PO4 6072  44.062  37.326   9.589
   96POPC   GL1 6073  44.034  37.583   9.257
   96POPC   GL2 6074  43.849  37.860   9.420
   96POPC   C1A 6075  43.957  37.559   8.798
   96POPC   D2A 6076  44.145  37.517   8.395
   96POPC   C3A 6077  43.963  37.501   7.992
   96POPC   C4A 6078  43.730  37.637   7.646
   96POPC   C1B 6079  43.997  38.033   9.027
   96POPC   C2B 6080  43.974  38.073   8.583
   96POPC   C3B 6081  43.790  37.902   8.229
   96POPC   C4B 6082  43.984  38.017   7.822
   97POPC   NC3 6083  40.954   5.414   9.511
   97POPC   PO4 6084  40.583   4.933   9.304
   97POPC   GL1 6085  40.789   5.152   9.075
   97POPC   GL2 6086  41.115   5.081   9.177
   97POPC   C1A 6087  40.696   5.099   8.664
   97POPC   D2A 6088  40.690   4.714   8.499
   97POPC   C3A 6089  40.715   4.822   8.116
   97POPC   C4A 6090  40.693   4.641   7.739
   97POPC   C1B 6091  41.153   4.926   8.774
   97POPC   C2B 6092  41.171   5.136   8.410
   97POPC   C3B 6093  41.111   5.294   8.031
   97POPC   C4B 6094  40.792   5.215   7.776
   98POPC   NC3 6095  35.316  22.870   9.615
   98POPC   PO4 6096  35.707  23.392   9.475
   98POPC   GL1 6097  35.400  23.091   9.168
   98POPC   GL2 6098  35.134  22.780   9.170
   98POPC   C1A 6099  35.214  23.092   8.769
   98POPC   D2A 6100  35.413  22.970   8.393
   98POPC   C3A 6101  35.244  23.110   8.017
   98POPC   C4A 6102  35.380  23.261   7.657
   98POPC   C1B 6103  34.865  22.710   8.816
   98POPC   C2B 6104  34.904  22.878   8.400
   98POPC   C3B 6105  35.057  22.643   8.062
   98POPC   C4B 6106  35.222  22.648   7.642
   99POPC   NC3 6107   9.019  12.662   9.585
   99POPC   PO4 6108   8.542  13.180   9.550
   99POPC   GL1 6109   8.780  12.905   9.220
   99POPC   GL2 6110   9.142  12.976   9.185
   99POPC   C1A 6111   8.939  12.675   8.822
   99POPC   D2A 6112   9.169  12.797   8.413
   99POPC   C3A 6113   8.989  12.692   7.994
   99POPC   C4A 6114   8.730  12.517   7.699
   99POPC   C1B 6115   9.044  13.184   8.818
   99POPC   C2B 6116   8.885  13.277   8.430
   99POPC   C3B 6117   9.043  13.185   8.055
   99POPC   C4B 6118   8.821  13.161   7.684
  100POPC   NC3 6119  30.198  40.157   9.599
  100POPC   PO4 6120  29.605  39.797   9.398
  100POPC   GL1 6121  29.905  40.041   9.178
  100POPC   GL2 6122  30.223  39.945   9.145
  100POPC   C1A 6123  29.868  40.201   8.777
  100POPC   D2A 6124  29.658  40.262   8.413
  100POPC   C3A 6125  29.932  40.256   8.083
  100POPC   C4A 6126  30.202  40.022   7.841
  100POPC   C1B 6127  30.253  39.822   8.772
  100POPC   C2B 6128  30.002  39.805   8.421
  100POPC   C3B 6129  30.116  39.590   8.069
  100POPC   C4B 6130  29.840  39.639   7.725
  101POPC   NC3 6131  44.225   1.615   9.532
  101POPC   PO4 6132  43.896   1.078   9.296
  101POPC   GL1 6133  43.683   1.303   9.036
  101POPC   GL2 6134  43.748   1.675   9.119
  101POPC   C1A 6135  43.704   1.118   8.619
  101POPC   D2A 6136  43.892   0.774   8.362
  101POPC   C3A 6137  43.805   0.893   7.938
  101POPC   C4A 6138  44.078   1.094   7.615
  101POPC   C1B 6139  43.641   1.633   8.668
  101POPC   C2B 6140  43.593   1.496   8.239
  101POPC   C3B 6141  43.760   1.412   7.830
  101POPC   C4B 6142  43.965   1.515   7.372
  102POPC   NC3 6143   3.899  17.357   9.489
  102POPC   PO4 6144   3.768  18.004   9.225
  102POPC   GL1 6145   3.397  17.779   9.139
  102POPC   GL2 6146   3.329  17.418   9.164
  102POPC   C1A 6147   3.444  17.611   8.721
  102POPC   D2A 6148   3.830  17.576   8.508
  102POPC   C3A 6149   3.756  17.756   8.148
  102POPC   C4A 6150   3.490  17.593   7.832
  102POPC   C1B 6151   3.372  17.112   8.803
  102POPC   C2B 6152   3.474  17.199   8.387
  102POPC   C3B 6153   3.164  17.288   8.068
  102POPC   C4B 6154   3.208  17.226   7.615
  103POPC   NC3 6155  36.908  42.495   9.397
  103POPC   PO4 6156  36.649  42.024   9.056
  103POPC   GL1 6157  37.046  42.200   8.955
  103POPC   GL2 6158  37.164  42.556   8.956
  103POPC   C1A 6159  37.084  42.206   8.509
  103POPC   D2A 6160  36.891  42.065   8.142
  103POPC   C3A 6161  36.719  42.296   7.820
  103POPC   C4A 6162  36.723  42.057   7.472
  103POPC   C1B 6163  36.796  42.618   8.696
  103POPC   C2B 6164  36.818  42.609   8.246
  103POPC   C3B 6165  37.146  42.523   7.954
  103POPC   C4B 6166  37.119  42.379   7.476
  104POPC   NC3 6167  41.859  43.041   9.523
  104POPC   PO4 6168  41.429  43.648   9.526
  104POPC   GL1 6169  41.449  43.257   9.267
  104POPC   GL2 6170  41.205  43.336   9.041
  104POPC   C1A 6171  41.595  43.077   8.854
  104POPC   D2A 6172  41.746  42.865   8.476
  104POPC   C3A 6173  41.764  43.076   8.074
  104POPC   C4A 6174  41.685  42.779   7.752
  104POPC   C1B 6175  41.335  43.529   8.693
  104POPC   C2B 6176  41.382  43.250   8.381
  104POPC   C3B 6177  41.259  42.961   8.071
  104POPC   C4B 6178  41.379  43.202   7.729
  105POPC   NC3 6179  30.496  23.468   9.779
  105POPC   PO4 6180  29.894  23.495   9.444
  105POPC   GL1 6181  29.934  23.584   9.048
  105POPC   GL2 6182  30.261  23.758   9.102
  105POPC   C1A 6183  29.824  23.830   8.704
  105POPC   D2A 6184  29.922  24.128   8.432
  105POPC   C3A 6185  29.960  23.896   8.090
  105POPC   C4A 6186  29.942  23.656   7.724
  105POPC   C1B 6187  30.288  23.600   8.672
  105POPC   C2B 6188  30.254  23.506   8.238
  105POPC   C3B 6189  30.412  23.759   7.911
  105POPC   C4B 6190  30.385  23.715   7.439
  106POPC   NC3 6191  35.624  19.705  10.164
  106POPC   PO4 6192  35.259  19.957   9.706
  106POPC   GL1 6193  35.271  19.786   9.277
  106POPC   GL2 6194  35.343  20.080   9.162
  106POPC   C1A 6195  35.446  19.774   8.788
  106POPC   D2A 6196  35.679  19.962   8.399
  106POPC   C3A 6197  35.532  19.777   7.981
  106POPC   C4A 6198  35.132  19.589   7.792
  106POPC   C1B 6199  35.512  20.301   8.831
  106POPC   C2B 6200  35.383  20.386   8.432
  106POPC   C3B 6201  35.569  20.328   8.037
  106POPC   C4B 6202  35.565  20.157   7.643
  107POPC   NC3 6203  18.457  24.884   9.815
  107POPC   PO4 6204  17.985  25.369   9.651
  107POPC   GL1 6205  18.218  25.194   9.305
  107POPC   GL2 6206  18.482  25.446   9.332
  107POPC   C1A 6207  18.135  25.070   8.845
  107POPC   D2A 6208  18.346  25.124   8.456
  107POPC   C3A 6209  18.158  25.347   8.116
  107POPC   C4A 6210  17.959  25.126   7.789
  107POPC   C1B 6211  18.388  25.499   8.890
  107POPC   C2B 6212  18.551  25.563   8.457
  107POPC   C3B 6213  18.677  25.491   8.025
  107POPC   C4B 6214  18.644  25.767   7.653
  108POPC   NC3 6215   3.248  19.924   9.417
  108POPC   PO4 6216   2.674  19.617   9.421
  108POPC   GL1 6217   2.926  19.626   9.094
  108POPC   GL2 6218   2.906  19.970   9.041
  108POPC   C1A 6219   2.737  19.652   8.691
  108POPC   D2A 6220   2.880  19.772   8.322
  108POPC   C3A 6221   2.597  19.771   7.987
  108POPC   C4A 6222   2.599  19.602   7.572
  108POPC   C1B 6223   3.036  20.154   8.649
  108POPC   C2B 6224   3.159  20.200   8.217
  108POPC   C3B 6225   3.106  19.887   7.867
  108POPC   C4B 6226   2.977  19.887   7.418
  109POPC   NC3 6227  24.859  16.779   9.589
  109POPC   PO4 6228  25.493  16.631   9.704
  109POPC   GL1 6229  25.318  16.804   9.331
  109POPC   GL2 6230  25.487  16.582   9.147
  109POPC   C1A 6231  25.111  16.849   8.925
  109POPC   D2A 6232  25.158  16.720   8.476
  109POPC   C3A 6233  25.138  16.974   8.115
  109POPC   C4A 6234  25.149  16.842   7.672
  109POPC   C1B 6235  25.548  16.461   8.743
  109POPC   C2B 6236  25.453  16.301   8.357
  109POPC   C3B 6237  25.686  16.263   7.982
  109POPC   C4B 6238  25.638  16.411   7.524
  110POPC   NC3 6239  28.354   3.708   9.869
  110POPC   PO4 6240  28.748   3.209   9.535
  110POPC   GL1 6241  28.407   3.502   9.338
  110POPC   GL2 6242  28.533   3.828   9.273
  110POPC   C1A 6243  28.137   3.692   8.969
  110POPC   D2A 6244  28.157   3.572   8.530
  110POPC   C3A 6245  28.162   3.694   8.092
  110POPC   C4A 6246  28.148   3.880   7.681
  110POPC   C1B 6247  28.617   3.687   8.811
  110POPC   C2B 6248  28.641   3.734   8.351
  110POPC   C3B 6249  28.597   3.940   7.947
  110POPC   C4B 6250  28.624   3.831   7.497
  111POPC   NC3 6251  11.263  28.611   9.653
  111POPC   PO4 6252  10.869  28.090   9.357
  111POPC   GL1 6253  11.144  28.386   9.188
  111POPC   GL2 6254  10.986  28.684   9.177
  111POPC   C1A 6255  11.288  28.183   8.815
  111POPC   D2A 6256  11.003  28.077   8.477
  111POPC   C3A 6257  11.163  28.065   8.067
  111POPC   C4A 6258  11.241  28.311   7.717
  111POPC   C1B 6259  11.232  28.686   8.783
  111POPC   C2B 6260  11.356  28.487   8.397
  111POPC   C3B 6261  11.199  28.702   8.048
  111POPC   C4B 6262  11.339  28.824   7.666
  112POPC   NC3 6263  44.457  16.918   9.784
  112POPC   PO4 6264  43.787  16.757   9.643
  112POPC   GL1 6265  44.053  16.890   9.301
  112POPC   GL2 6266  44.060  16.571   9.121
  112POPC   C1A 6267  44.038  16.992   8.839
  112POPC   D2A 6268  43.930  16.721   8.476
  112POPC   C3A 6269  43.915  16.865   8.025
  112POPC   C4A 6270  43.720  16.715   7.639
  112POPC   C1B 6271  43.775  16.367   8.831
  112POPC   C2B 6272  43.791  16.237   8.388
  112POPC   C3B 6273  44.054  16.341   8.059
  112POPC   C4B 6274  44.022  16.253   7.650
  113POPC   NC3 6275  38.445  22.089   9.507
  113POPC   PO4 6276  38.225  22.746   9.604
  113POPC   GL1 6277  38.213  22.451   9.221
  113POPC   GL2 6278  38.539  22.367   9.060
  113POPC   C1A 6279  38.114  22.513   8.762
  113POPC   D2A 6280  38.195  22.502   8.289
  113POPC   C3A 6281  38.536  22.392   7.995
  113POPC   C4A 6282  38.652  22.425   7.564
  113POPC   C1B 6283  38.234  22.029   8.884
  113POPC   C2B 6284  38.092  21.941   8.452
  113POPC   C3B 6285  38.271  21.961   8.016
  113POPC   C4B 6286  38.472  21.956   7.610
  114POPC   NC3 6287   3.074  17.022   9.403
  114POPC   PO4 6288   2.714  16.608   9.740
  114POPC   GL1 6289   2.731  16.651   9.232
  114POPC   GL2 6290   2.439  16.476   9.144
  114POPC   C1A 6291   2.848  16.880   8.801
  114POPC   D2A 6292   3.085  16.861   8.382
  114POPC   C3A 6293   2.918  16.850   7.921
  114POPC   C4A 6294   2.891  16.869   7.443
  114POPC   C1B 6295   2.396  16.653   8.753
  114POPC   C2B 6296   2.614  16.677   8.368
  114POPC   C3B 6297   2.562  16.485   7.987
  114POPC   C4B 6298   2.467  16.674   7.633
  115POPC   NC3 6299  30.378  35.213   9.263
  115POPC   PO4 6300  30.809  35.580   9.563
  115POPC   GL1 6301  30.754  35.572   9.109
  115POPC   GL2 6302  30.893  35.279   8.962
  115POPC   C1A 6303  30.609  35.555   8.654
  115POPC   D2A 6304  30.331  35.395   8.326
  115POPC   C3A 6305  30.510  35.511   7.908
  115POPC   C4A 6306  30.702  35.398   7.498
  115POPC   C1B 6307  30.606  35.045   8.674
  115POPC   C2B 6308  30.765  35.076   8.268
  115POPC   C3B 6309  30.736  35.026   7.852
  115POPC   C4B 6310  30.461  34.905   7.504
  116POPC   NC3 6311  42.260  27.373   9.689
  116POPC   PO4 6312  42.883  27.565   9.642
  116POPC   GL1 6313  42.575  27.424   9.284
  116POPC   GL2 6314  42.303  27.702   9.203
  116POPC   C1A 6315  42.343  27.332   8.875
  116POPC   D2A 6316  42.222  27.446   8.463
  116POPC   C3A 6317  42.311  27.320   8.012
  116POPC   C4A 6318  42.113  27.447   7.588
  116POPC   C1B 6319  42.405  27.892   8.774
  116POPC   C2B 6320  42.541  27.816   8.339
  116POPC   C3B 6321  42.565  27.779   7.894
  116POPC   C4B 6322  42.486  27.763   7.456
  117POPC   NC3 6323  43.606  28.772   9.238
  117POPC   PO4 6324  43.921  29.153   9.697
  117POPC   GL1 6325  43.824  29.334   9.246
  117POPC   GL2 6326  43.924  29.107   9.019
  117POPC   C1A 6327  43.710  29.514   8.796
  117POPC   D2A 6328  43.778  29.369   8.348
  117POPC   C3A 6329  43.694  29.564   7.958
  117POPC   C4A 6330  43.773  29.337   7.576
  117POPC   C1B 6331  44.136  29.165   8.661
  117POPC   C2B 6332  44.073  28.915   8.304
  117POPC   C3B 6333  44.007  29.005   7.899
  117POPC   C4B 6334  44.257  29.051   7.553
  118POPC   NC3 6335  32.945  31.648   9.649
  118POPC   PO4 6336  32.837  30.976   9.583
  118POPC   GL1 6337  32.932  31.212   9.164
  118POPC   GL2 6338  32.942  31.593   9.137
  118POPC   C1A 6339  32.816  31.341   8.723
  118POPC   D2A 6340  32.894  31.646   8.380
  118POPC   C3A 6341  32.813  31.527   7.941
  118POPC   C4A 6342  33.178  31.391   7.713
  118POPC   C1B 6343  33.282  31.559   8.788
  118POPC   C2B 6344  33.461  31.768   8.420
  118POPC   C3B 6345  33.266  31.832   8.003
  118POPC   C4B 6346  33.309  31.850   7.549
  119POPC   NC3 6347   9.263  44.084  10.155
  119POPC   PO4 6348   8.925  43.826   9.614
  119POPC   GL1 6349   8.814  43.744   9.170
  119POPC   GL2 6350   8.715  44.048   8.989
  119POPC   C1A 6351   8.913  43.625   8.732
  119POPC   D2A 6352   9.201  43.798   8.406
  119POPC   C3A 6353   9.169  43.699   7.950
  119POPC   C4A 6354   9.247  43.885   7.537
  119POPC   C1B 6355   8.772  44.066   8.532
  119POPC   C2B 6356   8.698  43.784   8.185
  119POPC   C3B 6357   8.739  43.962   7.764
  119POPC   C4B 6358   8.533  44.189   7.434
  120POPC   NC3 6359   6.889  13.834   9.368
  120POPC   PO4 6360   6.300  13.527   9.423
  120POPC   GL1 6361   6.490  13.672   9.075
  120POPC   GL2 6362   6.356  13.988   9.097
  120POPC   C1A 6363   6.799  13.546   8.778
  120POPC   D2A 6364   7.010  13.509   8.416
  120POPC   C3A 6365   6.743  13.434   8.084
  120POPC   C4A 6366   6.788  13.519   7.660
  120POPC   C1B 6367   6.604  14.034   8.721
  120POPC   C2B 6368   6.665  13.888   8.294
  120POPC   C3B 6369   6.804  13.999   7.851
  120POPC   C4B 6370   6.706  13.950   7.376
  121POPC   NC3 6371  21.853  41.488   9.464
  121POPC   PO4 6372  22.354  41.787   9.389
  121POPC   GL1 6373  22.295  41.561   9.030
  121POPC   GL2 6374  22.233  41.227   9.111
  121POPC   C1A 6375  22.354  41.583   8.576
  121POPC   D2A 6376  22.440  41.430   8.154
  121POPC   C3A 6377  22.118  41.613   7.940
  121POPC   C4A 6378  22.137  41.759   7.500
  121POPC   C1B 6379  22.367  41.092   8.735
  121POPC   C2B 6380  22.117  41.124   8.384
  121POPC   C3B 6381  22.070  41.081   7.947
  121POPC   C4B 6382  22.255  41.282   7.586
  122POPC   NC3 6383  41.086  36.650   9.506
  122POPC   PO4 6384  41.516  37.180   9.529
  122POPC   GL1 6385  41.577  36.910   9.208
  122POPC   GL2 6386  41.868  36.673   9.256
  122POPC   C1A 6387  41.324  36.912   8.839
  122POPC   D2A 6388  41.290  37.172   8.467
  122POPC   C3A 6389  41.318  36.967   8.048
  122POPC   C4A 6390  41.281  37.233   7.670
  122POPC   C1B 6391  41.812  36.722   8.802
  122POPC   C2B 6392  41.724  36.874   8.394
  122POPC   C3B 6393  41.843  37.072   8.007
  122POPC   C4B 6394  41.788  36.801   7.675
  123POPC   NC3 6395  16.031   5.249   9.702
  123POPC   PO4 6396  15.903   4.682   9.404
  123POPC   GL1 6397  15.797   5.032   9.169
  123POPC   GL2 6398  15.991   5.347   9.163
  123POPC   C1A 6399  15.891   5.058   8.742
  123POPC   D2A 6400  15.780   4.909   8.358
  123POPC   C3A 6401  16.129   5.017   8.113
  123POPC   C4A 6402  16.055   4.928   7.717
  123POPC   C1B 6403  15.686   5.529   8.812
  123POPC   C2B 6404  15.573   5.370   8.413
  123POPC   C3B 6405  15.710   5.347   7.988
  123POPC   C4B 6406  16.027   5.583   7.749
  124POPC   NC3 6407  44.490  34.529   9.582
  124POPC   PO4 6408   0.039  34.734   9.376
  124POPC   GL1 6409  44.734  34.576   9.088
  124POPC   GL2 6410  44.433  34.360   9.122
  124POPC   C1A 6411  44.765  34.524   8.665
  124POPC   D2A 6412  44.665  34.744   8.296
  124POPC   C3A 6413  44.830  34.513   7.991
  124POPC   C4A 6414  44.826  34.391   7.575
  124POPC   C1B 6415  44.415  34.162   8.749
  124POPC   C2B 6416  44.394  34.303   8.339
  124POPC   C3B 6417  44.459  34.175   7.893
  124POPC   C4B 6418  44.408  34.137   7.446
  125POPC   NC3 6419  41.761   6.249   9.448
  125POPC   PO4 6420  41.593   6.843   9.459
  125POPC   GL1 6421  41.573   6.572   9.089
  125POPC   GL2 6422  41.325   6.346   9.043
  125POPC   C1A 6423  41.751   6.440   8.680
  125POPC   D2A 6424  41.793   6.621   8.259
  125POPC   C3A 6425  41.499   6.626   7.918
  125POPC   C4A 6426  41.561   6.823   7.492
  125POPC   C1B 6427  41.258   6.349   8.597
  125POPC   C2B 6428  41.549   6.141   8.301
  125POPC   C3B 6429  41.762   6.185   7.896
  125POPC   C4B 6430  41.526   6.317   7.505
  126POPC   NC3 6431   2.524   8.609   9.412
  126POPC   PO4 6432   2.636   7.918   9.482
  126POPC   GL1 6433   2.753   8.220   9.132
  126POPC   GL2 6434   3.082   8.342   8.961
  126POPC   C1A 6435   2.800   7.983   8.748
  126POPC   D2A 6436   2.859   8.134   8.352
  126POPC   C3A 6437   2.704   8.007   7.981
  126POPC   C4A 6438   2.618   8.182   7.550
  126POPC   C1B 6439   3.090   8.555   8.565
  126POPC   C2B 6440   3.188   8.457   8.129
  126POPC   C3B 6441   3.097   8.224   7.733
  126POPC   C4B 6442   3.049   8.138   7.274
  127POPC   NC3 6443  18.710  23.791   9.471
  127POPC   PO4 6444  18.109  23.820   9.230
  127POPC   GL1 6445  18.519  23.801   9.001
  127POPC   GL2 6446  18.691  23.480   9.077
  127POPC   C1A 6447  18.681  23.762   8.601
  127POPC   D2A 6448  18.577  23.956   8.244
  127POPC   C3A 6449  18.448  23.779   7.879
  127POPC   C4A 6450  18.067  23.641   7.717
  127POPC   C1B 6451  18.515  23.294   8.698
  127POPC   C2B 6452  18.489  23.405   8.244
  127POPC   C3B 6453  18.415  23.233   7.802
  127POPC   C4B 6454  18.306  23.321   7.377
  128POPC   NC3 6455  10.830   5.571   9.855
  128POPC   PO4 6456  11.031   5.018   9.557
  128POPC   GL1 6457  11.055   5.274   9.194
  128POPC   GL2 6458  11.395   5.247   9.067
  128POPC   C1A 6459  11.016   5.317   8.734
  128POPC   D2A 6460  11.388   5.389   8.514
  128POPC   C3A 6461  11.383   5.410   8.098
  128POPC   C4A 6462  11.127   5.348   7.781
  128POPC   C1B 6463  11.367   4.927   8.713
  128POPC   C2B 6464  11.220   4.941   8.257
  128POPC   C3B 6465  11.471   4.959   7.855
  128POPC   C4B 6466  11.480   4.814   7.416
  129POPC   NC3 6467  12.277   9.274   9.535
  129POPC   PO4 6468  11.779   8.802   9.448
  129POPC   GL1 6469  11.899   9.083   9.148
  129POPC   GL2 6470  12.209   8.924   9.141
  129POPC   C1A 6471  12.015   9.056   8.700
  129POPC   D2A 6472  12.249   8.888   8.366
  129POPC   C3A 6473  12.026   8.929   7.994
  129POPC   C4A 6474  11.918   9.263   7.756
  129POPC   C1B 6475  12.186   8.567   8.820
  129POPC   C2B 6476  12.290   8.378   8.413
  129POPC   C3B 6477  12.522   8.426   8.041
  129POPC   C4B 6478  12.385   8.672   7.710
  130POPC   NC3 6479  10.388  13.864   9.457
  130POPC   PO4 6480  10.650  13.214   9.578
  130POPC   GL1 6481  10.568  13.426   9.190
  130POPC   GL2 6482  10.806  13.203   9.034
  130POPC   C1A 6483  10.230  13.566   8.854
  130POPC   D2A 6484  10.147  13.379   8.446
  130POPC   C3A 6485  10.334  13.618   8.105
  130POPC   C4A 6486  10.357  13.875   7.705
  130POPC   C1B 6487  10.691  13.439   8.664
  130POPC   C2B 6488  10.885  13.705   8.366
  130POPC   C3B 6489  10.801  13.781   7.937
  130POPC   C4B 6490  10.605  13.422   7.726
  131POPC   NC3 6491  30.897  26.758   9.652
  131POPC   PO4 6492  30.196  26.632   9.629
  131POPC   GL1 6493  30.571  26.657   9.267
  131POPC   GL2 6494  30.829  26.945   9.194
  131POPC   C1A 6495  30.765  26.590   8.838
  131POPC   D2A 6496  30.787  26.703   8.423
  131POPC   C3A 6497  30.495  26.520   8.146
  131POPC   C4A 6498  30.504  26.668   7.740
  131POPC   C1B 6499  30.892  27.108   8.800
  131POPC   C2B 6500  30.843  27.258   8.396
  131POPC   C3B 6501  30.696  27.073   8.038
  131POPC   C4B 6502  30.889  27.002   7.650
  132POPC   NC3 6503  37.990  24.314   9.516
  132POPC   PO4 6504  37.518  24.791   9.382
  132POPC   GL1 6505  37.630  24.458   9.174
  132POPC   GL2 6506  37.943  24.655   9.135
  132POPC   C1A 6507  37.742  24.339   8.771
  132POPC   D2A 6508  37.732  24.530   8.363
  132POPC   C3A 6509  37.893  24.310   8.011
  132POPC   C4A 6510  37.791  24.393   7.598
  132POPC   C1B 6511  38.010  24.822   8.744
  132POPC   C2B 6512  38.128  24.840   8.305
  132POPC   C3B 6513  37.885  24.819   7.902
  132POPC   C4B 6514  37.890  24.846   7.406
  133POPC   NC3 6515  40.442  14.346   9.571
  133POPC   PO4 6516  41.082  14.369   9.489
  133POPC   GL1 6517  40.957  14.122   9.125
  133POPC   GL2 6518  40.607  14.258   9.053
  133POPC   C1A 6519  41.116  13.942   8.720
  133POPC   D2A 6520  41.031  14.019   8.254
  133POPC   C3A 6521  41.011  14.444   8.061
  133POPC   C4A 6522  40.990  14.881   7.897
  133POPC   C1B 6523  40.417  14.361   8.624
  133POPC   C2B 6524  40.408  14.462   8.174
  133POPC   C3B 6525  40.576  14.419   7.765
  133POPC   C4B 6526  40.623  14.262   7.351
  134POPC   NC3 6527  28.115  41.837   9.437
  134POPC   PO4 6528  28.528  41.328   9.642
  134POPC   GL1 6529  28.416  41.355   9.207
  134POPC   GL2 6530  28.568  41.677   9.167
  134POPC   C1A 6531  28.307  41.291   8.749
  134POPC   D2A 6532  28.492  41.250   8.338
  134POPC   C3A 6533  28.259  41.468   8.067
  134POPC   C4A 6534  28.112  41.491   7.688
  134POPC   C1B 6535  28.776  41.462   8.811
  134POPC   C2B 6536  28.849  41.599   8.401
  134POPC   C3B 6537  28.769  41.608   7.979
  134POPC   C4B 6538  28.509  41.798   7.686
  135POPC   NC3 6539  17.673  31.612   9.700
  135POPC   PO4 6540  17.299  31.033   9.650
  135POPC   GL1 6541  17.535  31.318   9.298
  135POPC   GL2 6542  17.453  31.689   9.209
  135POPC   C1A 6543  17.562  31.370   8.834
  135POPC   D2A 6544  17.317  31.377   8.433
  135POPC   C3A 6545  17.544  31.357   8.028
  135POPC   C4A 6546  17.710  31.138   7.643
  135POPC   C1B 6547  17.434  31.847   8.744
  135POPC   C2B 6548  17.731  31.718   8.368
  135POPC   C3B 6549  17.843  31.751   7.884
  135POPC   C4B 6550  17.498  31.715   7.598
  136POPC   NC3 6551  17.934   3.177   9.356
  136POPC   PO4 6552  18.541   3.389   9.501
  136POPC   GL1 6553  18.377   3.407   9.081
  136POPC   GL2 6554  18.251   3.730   8.896
  136POPC   C1A 6555  18.572   3.208   8.744
  136POPC   D2A 6556  18.599   3.346   8.344
  136POPC   C3A 6557  18.300   3.635   8.204
  136POPC   C4A 6558  18.218   3.788   7.787
  136POPC   C1B 6559  18.105   3.369   8.633
  136POPC   C2B 6560  18.067   3.152   8.223
  136POPC   C3B 6561  18.044   3.299   7.785
  136POPC   C4B 6562  17.716   3.408   7.470
  137POPC   NC3 6563  13.944   8.698   9.587
  137POPC   PO4 6564  13.428   9.179   9.454
  137POPC   GL1 6565  13.501   8.872   9.094
  137POPC   GL2 6566  13.836   8.766   9.103
  137POPC   C1A 6567  13.507   9.005   8.667
  137POPC   D2A 6568  13.776   9.152   8.353
  137POPC   C3A 6569  13.611   9.313   7.999
  137POPC   C4A 6570  13.659   9.178   7.590
  137POPC   C1B 6571  14.023   8.928   8.748
  137POPC   C2B 6572  14.086   8.750   8.346
  137POPC   C3B 6573  13.878   8.861   7.933
  137POPC   C4B 6574  13.803   8.701   7.495
  138POPC   NC3 6575  26.973   4.686   9.557
  138POPC   PO4 6576  26.555   4.147   9.519
  138POPC   GL1 6577  26.777   4.297   9.121
  138POPC   GL2 6578  27.104   4.509   9.097
  138POPC   C1A 6579  26.829   4.284   8.680
  138POPC   D2A 6580  26.791   4.092   8.330
  138POPC   C3A 6581  26.595   4.254   7.972
  138POPC   C4A 6582  26.862   4.211   7.643
  138POPC   C1B 6583  27.247   4.572   8.683
  138POPC   C2B 6584  27.131   4.553   8.251
  138POPC   C3B 6585  27.248   4.496   7.825
  138POPC   C4B 6586  27.215   4.474   7.373
  139POPC   NC3 6587  39.618   1.235   9.582
  139POPC   PO4 6588  39.074   0.803   9.747
  139POPC   GL1 6589  39.168   0.968   9.291
  139POPC   GL2 6590  39.513   1.020   9.156
  139POPC   C1A 6591  39.161   1.263   8.878
  139POPC   D2A 6592  38.993   1.420   8.470
  139POPC   C3A 6593  39.119   1.490   8.015
  139POPC   C4A 6594  39.130   1.592   7.536
  139POPC   C1B 6595  39.528   0.922   8.740
  139POPC   C2B 6596  39.218   0.947   8.362
  139POPC   C3B 6597  39.251   0.888   7.904
  139POPC   C4B 6598  39.621   0.659   7.714
  140POPC   NC3 6599  36.639   6.028   9.487
  140POPC   PO4 6600  36.874   5.403   9.436
  140POPC   GL1 6601  36.945   5.657   9.070
  140POPC   GL2 6602  36.759   5.970   8.998
  140POPC   C1A 6603  36.968   5.701   8.619
  140POPC   D2A 6604  37.282   5.568   8.320
  140POPC   C3A 6605  37.039   5.693   7.994
  140POPC   C4A 6606  36.603   5.638   7.838
  140POPC   C1B 6607  36.673   6.295   8.712
  140POPC   C2B 6608  36.839   6.329   8.311
  140POPC   C3B 6609  36.776   6.131   7.935
  140POPC   C4B 6610  36.547   6.220   7.608
  141POPC   NC3 6611  19.208  31.151   9.388
  141POPC   PO4 6612  18.798  31.727   9.585
  141POPC   GL1 6613  18.869  31.588   9.139
  141POPC   GL2 6614  18.959  31.263   8.963
  141POPC   C1A 6615  19.055  31.666   8.705
  141POPC   D2A 6616  18.916  31.436   8.325
  141POPC   C3A 6617  19.073  31.601   7.923
  141POPC   C4A 6618  19.339  31.707   7.548
  141POPC   C1B 6619  18.735  31.026   8.678
  141POPC   C2B 6620  18.362  31.090   8.448
  141POPC   C3B 6621  18.433  31.008   8.040
  141POPC   C4B 6622  18.841  31.129   7.880
  142POPC   NC3 6623   6.084  43.514   9.290
  142POPC   PO4 6624   5.949  42.876   9.600
  142POPC   GL1 6625   5.975  43.043   9.184
  142POPC   GL2 6626   6.295  42.936   9.118
  142POPC   C1A 6627   5.813  43.275   8.780
  142POPC   D2A 6628   5.924  43.480   8.398
  142POPC   C3A 6629   5.762  43.266   8.065
  142POPC   C4A 6630   5.830  43.409   7.651
  142POPC   C1B 6631   6.115  42.877   8.700
  142POPC   C2B 6632   6.121  42.913   8.255
  142POPC   C3B 6633   6.162  43.044   7.844
  142POPC   C4B 6634   5.920  42.885   7.539
  143POPC   NC3 6635  31.798  16.950   9.545
  143POPC   PO4 6636  31.222  16.744   9.501
  143POPC   GL1 6637  31.426  16.614   9.176
  143POPC   GL2 6638  31.725  16.512   9.260
  143POPC   C1A 6639  31.524  16.749   8.782
  143POPC   D2A 6640  31.371  16.664   8.400
  143POPC   C3A 6641  31.531  16.765   8.029
  143POPC   C4A 6642  31.302  16.867   7.654
  143POPC   C1B 6643  31.846  16.372   8.869
  143POPC   C2B 6644  31.901  16.565   8.465
  143POPC   C3B 6645  31.887  16.408   8.059
  143POPC   C4B 6646  31.699  16.417   7.671
  144POPC   NC3 6647   0.298   6.039   9.488
  144POPC   PO4 6648   0.676   5.558   9.438
  144POPC   GL1 6649   0.469   5.743   9.079
  144POPC   GL2 6650   0.078   5.762   9.134
  144POPC   C1A 6651   0.700   5.765   8.681
  144POPC   D2A 6652   0.892   5.886   8.265
  144POPC   C3A 6653   0.640   5.889   7.866
  144POPC   C4A 6654   0.806   5.636   7.513
  144POPC   C1B 6655   0.075   5.964   8.781
  144POPC   C2B 6656   0.280   5.875   8.408
  144POPC   C3B 6657   0.153   5.729   8.057
  144POPC   C4B 6658   0.095   5.961   7.690
  145POPC   NC3 6659  10.872  17.783   9.465
  145POPC   PO4 6660  11.272  17.253   9.411
  145POPC   GL1 6661  11.193  17.441   9.042
  145POPC   GL2 6662  11.167  17.819   9.037
  145POPC   C1A 6663  11.354  17.277   8.664
  145POPC   D2A 6664  11.172  17.108   8.296
  145POPC   C3A 6665  11.311  17.344   7.925
  145POPC   C4A 6666  11.500  17.525   7.510
  145POPC   C1B 6667  11.014  17.702   8.616
  145POPC   C2B 6668  11.003  17.750   8.157
  145POPC   C3B 6669  11.121  17.798   7.745
  145POPC   C4B 6670  11.035  17.713   7.336
  146POPC   NC3 6671  23.986  37.213   9.547
  146POPC   PO4 6672  23.717  36.533   9.478
  146POPC   GL1 6673  23.754  36.867   9.200
  146POPC   GL2 6674  23.442  36.780   9.092
  146POPC   C1A 6675  23.747  37.074   8.795
  146POPC   D2A 6676  23.928  36.874   8.458
  146POPC   C3A 6677  23.768  37.014   8.100
  146POPC   C4A 6678  23.714  36.850   7.714
  146POPC   C1B 6679  23.577  36.591   8.767
  146POPC   C2B 6680  23.426  36.713   8.413
  146POPC   C3B 6681  23.475  36.578   8.070
  146POPC   C4B 6682  23.294  36.587   7.697
  147POPC   NC3 6683  16.260  44.380   9.567
  147POPC   PO4 6684  16.848  43.983   9.555
  147POPC   GL1 6685  16.644  43.854   9.154
  147POPC   GL2 6686  16.334  44.077   9.165
  147POPC   C1A 6687  16.814  43.634   8.762
  147POPC   D2A 6688  17.051  43.639   8.357
  147POPC   C3A 6689  16.850  43.852   8.065
  147POPC   C4A 6690  16.603  43.633   7.811
  147POPC   C1B 6691  16.548  44.243   8.818
  147POPC   C2B 6692  16.757  44.144   8.482
  147POPC   C3B 6693  16.450  44.174   8.169
  147POPC   C4B 6694  16.467  44.111   7.743
  148POPC   NC3 6695  37.735  10.358   9.588
  148POPC   PO4 6696  37.381  10.937   9.637
  148POPC   GL1 6697  37.452  10.666   9.238
  148POPC   GL2 6698  37.397  10.293   9.210
  148POPC   C1A 6699  37.657  10.559   8.815
  148POPC   D2A 6700  37.849  10.500   8.388
  148POPC   C3A 6701  37.602  10.686   8.015
  148POPC   C4A 6702  37.581  10.623   7.543
  148POPC   C1B 6703  37.414  10.088   8.815
  148POPC   C2B 6704  37.556  10.028   8.392
  148POPC   C3B 6705  37.683  10.164   8.002
  148POPC   C4B 6706  37.451  10.089   7.643
  149POPC   NC3 6707  32.711  14.281   9.799
  149POPC   PO4 6708  33.264  14.528   9.535
  149POPC   GL1 6709  33.051  14.327   9.212
  149POPC   GL2 6710  32.784  14.376   9.285
  149POPC   C1A 6711  33.057  14.213   8.761
  149POPC   D2A 6712  33.292  14.257   8.376
  149POPC   C3A 6713  33.115  14.241   7.960
  149POPC   C4A 6714  33.302  14.508   7.686
  149POPC   C1B 6715  32.695  14.568   8.891
  149POPC   C2B 6716  32.517  14.455   8.476
  149POPC   C3B 6717  32.695  14.495   8.064
  149POPC   C4B 6718  32.662  14.458   7.618
  150POPC   NC3 6719  12.385  15.535   9.522
  150POPC   PO4 6720  13.027  15.709   9.419
  150POPC   GL1 6721  12.963  15.931   9.107
  150POPC   GL2 6722  12.636  16.024   9.215
  150POPC   C1A 6723  13.102  16.072   8.733
  150POPC   D2A 6724  12.867  16.101   8.349
  150POPC   C3A 6725  13.080  16.112   7.960
  150POPC   C4A 6726  12.919  16.042   7.566
  150POPC   C1B 6727  12.588  15.936   8.773
  150POPC   C2B 6728  12.476  15.772   8.369
  150POPC   C3B 6729  12.616  15.832   7.938
  150POPC   C4B 6730  12.465  15.815   7.512
  151POPC   NC3 6731  35.913   4.720   9.442
  151POPC   PO4 6732  36.141   5.333   9.533
  151POPC   GL1 6733  36.236   5.109   9.118
  151POPC   GL2 6734  35.938   5.009   9.013
  151POPC   C1A 6735  36.406   5.265   8.699
  151POPC   D2A 6736  36.431   5.395   8.259
  151POPC   C3A 6737  36.396   5.147   7.883
  151POPC   C4A 6738  36.164   4.971   7.525
  151POPC   C1B 6739  36.064   4.896   8.607
  151POPC   C2B 6740  36.019   5.010   8.186
  151POPC   C3B 6741  35.753   5.052   7.816
  151POPC   C4B 6742  35.686   4.784   7.430
  152POPC   NC3 6743   4.534  35.493   9.430
  152POPC   PO4 6744   3.905  35.276   9.547
  152POPC   GL1 6745   4.153  35.263   9.167
  152POPC   GL2 6746   4.262  35.631   9.033
  152POPC   C1A 6747   4.377  35.208   8.767
  152POPC   D2A 6748   4.397  35.594   8.504
  152POPC   C3A 6749   4.397  35.450   8.072
  152POPC   C4A 6750   4.514  35.397   7.662
  152POPC   C1B 6751   3.927  35.438   8.755
  152POPC   C2B 6752   3.988  35.307   8.356
  152POPC   C3B 6753   3.854  35.509   7.970
  152POPC   C4B 6754   3.997  35.463   7.569
  153POPC   NC3 6755  36.969  13.588   9.827
  153POPC   PO4 6756  36.520  14.064   9.549
  153POPC   GL1 6757  36.806  13.796   9.201
  153POPC   GL2 6758  36.880  13.453   9.163
  153POPC   C1A 6759  37.110  13.726   8.813
  153POPC   D2A 6760  36.994  13.498   8.443
  153POPC   C3A 6761  37.055  13.678   8.035
  153POPC   C4A 6762  36.763  13.607   7.713
  153POPC   C1B 6763  37.186  13.252   8.912
  153POPC   C2B 6764  37.335  13.140   8.549
  153POPC   C3B 6765  37.176  13.048   8.155
  153POPC   C4B 6766  37.153  13.254   7.768
  154POPC   NC3 6767   0.920  43.310   9.490
  154POPC   PO4 6768   0.308  43.292   9.476
  154POPC   GL1 6769   0.250  43.148   9.065
  154POPC   GL2 6770   0.598  43.048   9.122
  154POPC   C1A 6771   0.169  43.115   8.593
  154POPC   D2A 6772   0.437  42.963   8.212
  154POPC   C3A 6773   0.300  43.147   7.795
  154POPC   C4A 6774   0.149  43.124   7.339
  154POPC   C1B 6775   0.678  43.178   8.681
  154POPC   C2B 6776   0.876  43.293   8.290
  154POPC   C3B 6777   0.806  43.193   7.846
  154POPC   C4B 6778   0.670  43.121   7.400
  155POPC   NC3 6779   2.543  43.512   9.428
  155POPC   PO4 6780   3.044  44.001   9.432
  155POPC   GL1 6781   2.691  43.961   9.185
  155POPC   GL2 6782   2.604  44.266   9.025
  155POPC   C1A 6783   2.655  43.810   8.772
  155POPC   D2A 6784   2.863  43.640   8.432
  155POPC   C3A 6785   2.748  43.739   8.014
  155POPC   C4A 6786   2.868  44.155   7.899
  155POPC   C1B 6787   2.443  44.264   8.645
  155POPC   C2B 6788   2.471  44.089   8.252
  155POPC   C3B 6789   2.359  44.216   7.837
  155POPC   C4B 6790   2.525  44.300   7.386
  156POPC   NC3 6791   0.142  31.012   9.557
  156POPC   PO4 6792   0.682  31.405   9.446
  156POPC   GL1 6793   0.351  31.429   9.105
  156POPC   GL2 6794  44.992  31.268   9.124
  156POPC   C1A 6795   0.376  31.722   8.721
  156POPC   D2A 6796   0.669  31.848   8.387
  156POPC   C3A 6797   0.513  31.638   8.016
  156POPC   C4A 6798   0.475  31.289   7.726
  156POPC   C1B 6799  44.942  31.468   8.695
  156POPC   C2B 6800   0.041  31.514   8.225
  156POPC   C3B 6801  44.970  31.226   7.844
  156POPC   C4B 6802  44.907  31.200   7.371
  157POPC   NC3 6803  21.034  28.314   9.499
  157POPC   PO4 6804  21.717  28.261   9.512
  157POPC   GL1 6805  21.650  28.465   9.159
  157POPC   GL2 6806  21.301  28.554   9.127
  157POPC   C1A 6807  21.613  28.407   8.736
  157POPC   D2A 6808  21.471  28.534   8.360
  157POPC   C3A 6809  21.755  28.349   8.048
  157POPC   C4A 6810  21.644  28.283   7.591
  157POPC   C1B 6811  21.105  28.600   8.742
  157POPC   C2B 6812  21.001  28.331   8.413
  157POPC   C3B 6813  20.946  28.383   7.981
  157POPC   C4B 6814  21.092  28.451   7.532
  158POPC   NC3 6815  40.446  30.442   9.275
  158POPC   PO4 6816  39.967  31.002   9.389
  158POPC   GL1 6817  40.207  30.838   9.086
  158POPC   GL2 6818  39.985  30.571   9.021
  158POPC   C1A 6819  40.408  30.749   8.677
  158POPC   D2A 6820  40.486  30.847   8.228
  158POPC   C3A 6821  40.327  30.534   7.894
  158POPC   C4A 6822  40.178  30.784   7.518
  158POPC   C1B 6823  39.875  30.904   8.730
  158POPC   C2B 6824  39.987  30.795   8.364
  158POPC   C3B 6825  39.995  30.905   7.990
  158POPC   C4B 6826  39.805  31.124   7.692
  159POPC   NC3 6827  24.421  12.777   9.599
  159POPC   PO4 6828  24.803  13.311   9.427
  159POPC   GL1 6829  24.707  12.988   9.182
  159POPC   GL2 6830  24.345  13.009   9.138
  159POPC   C1A 6831  24.660  12.845   8.769
  159POPC   D2A 6832  24.437  12.983   8.434
  159POPC   C3A 6833  24.639  12.836   8.064
  159POPC   C4A 6834  24.594  13.014   7.676
  159POPC   C1B 6835  24.276  12.577   8.937
  159POPC   C2B 6836  24.338  12.471   8.538
  159POPC   C3B 6837  24.170  12.629   8.183
  159POPC   C4B 6838  24.197  12.693   7.774
  160POPC   NC3 6839  28.691  27.489   9.286
  160POPC   PO4 6840  28.285  27.941   9.600
  160POPC   GL1 6841  28.188  27.552   9.169
  160POPC   GL2 6842  28.471  27.439   8.859
  160POPC   C1A 6843  28.012  27.385   8.725
  160POPC   D2A 6844  28.299  27.540   8.353
  160POPC   C3A 6845  28.192  27.504   7.884
  160POPC   C4A 6846  28.012  27.403   7.451
  160POPC   C1B 6847  28.826  27.521   8.563
  160POPC   C2B 6848  29.000  27.880   8.357
  160POPC   C3B 6849  28.782  28.029   8.029
  160POPC   C4B 6850  28.591  27.829   7.677
  161POPC   NC3 6851   6.980   3.256   9.567
  161POPC   PO4 6852   7.516   3.645   9.386
  161POPC   GL1 6853   7.557   3.493   9.064
  161POPC   GL2 6854   7.549   3.188   9.162
  161POPC   C1A 6855   7.514   3.595   8.681
  161POPC   D2A 6856   7.301   3.652   8.330
  161POPC   C3A 6857   7.608   3.665   8.041
  161POPC   C4A 6858   7.685   3.568   7.622
  161POPC   C1B 6859   7.242   3.168   8.797
  161POPC   C2B 6860   7.168   3.142   8.344
  161POPC   C3B 6861   7.374   3.182   7.940
  161POPC   C4B 6862   7.347   3.208   7.513
  162POPC   NC3 6863  30.268  17.553   9.560
  162POPC   PO4 6864  29.658  17.246   9.525
  162POPC   GL1 6865  29.880  17.462   9.169
  162POPC   GL2 6866  30.163  17.717   9.094
  162POPC   C1A 6867  29.796  17.577   8.764
  162POPC   D2A 6868  29.791  17.371   8.372
  162POPC   C3A 6869  29.795  17.575   7.978
  162POPC   C4A 6870  29.517  17.464   7.676
  162POPC   C1B 6871  30.281  17.465   8.734
  162POPC   C2B 6872  30.263  17.584   8.280
  162POPC   C3B 6873  30.308  17.527   7.826
  162POPC   C4B 6874  30.328  17.812   7.423
  163POPC   NC3 6875  20.023  25.948   9.510
  163POPC   PO4 6876  19.613  26.496   9.528
  163POPC   GL1 6877  19.642  26.183   9.159
  163POPC   GL2 6878  19.824  25.871   9.049
  163POPC   C1A 6879  19.824  26.257   8.732
  163POPC   D2A 6880  19.688  26.383   8.331
  163POPC   C3A 6881  19.884  26.218   7.947
  163POPC   C4A 6882  19.771  26.023   7.530
  163POPC   C1B 6883  19.898  25.744   8.640
  163POPC   C2B 6884  20.117  25.885   8.278
  163POPC   C3B 6885  20.032  25.739   7.888
  163POPC   C4B 6886  19.631  25.595   7.787
  164POPC   NC3 6887   5.346  36.954   9.543
  164POPC   PO4 6888   4.650  36.987   9.595
  164POPC   GL1 6889   4.896  37.055   9.241
  164POPC   GL2 6890   5.187  36.898   9.065
  164POPC   C1A 6891   4.765  37.066   8.813
  164POPC   D2A 6892   4.919  36.924   8.415
  164POPC   C3A 6893   4.846  37.130   8.044
  164POPC   C4A 6894   4.893  36.899   7.687
  164POPC   C1B 6895   5.267  37.183   8.699
  164POPC   C2B 6896   5.285  37.304   8.271
  164POPC   C3B 6897   5.374  37.018   7.911
  164POPC   C4B 6898   5.319  36.599   7.733
  165POPC   NC3 6899  14.784   4.966   9.789
  165POPC   PO4 6900  15.538   5.049   9.646
  165POPC   GL1 6901  15.279   4.989   9.252
  165POPC   GL2 6902  14.896   4.972   9.287
  165POPC   C1A 6903  15.382   5.041   8.799
  165POPC   D2A 6904  15.110   5.011   8.418
  165POPC   C3A 6905  15.349   4.978   8.038
  165POPC   C4A 6906  15.448   4.794   7.615
  165POPC   C1B 6907  14.886   5.150   8.879
  165POPC   C2B 6908  15.117   5.466   8.636
  165POPC   C3B 6909  15.150   5.459   8.156
  165POPC   C4B 6910  14.838   5.285   7.879
  166POPC   NC3 6911  13.867  27.853   9.449
  166POPC   PO4 6912  14.427  28.331   9.402
  166POPC   GL1 6913  14.285  28.273   9.058
  166POPC   GL2 6914  14.201  27.954   9.069
  166POPC   C1A 6915  14.119  28.368   8.696
  166POPC   D2A 6916  14.316  28.494   8.307
  166POPC   C3A 6917  14.139  28.334   7.925
  166POPC   C4A 6918  14.379  28.241   7.550
  166POPC   C1B 6919  14.480  27.995   8.707
  166POPC   C2B 6920  14.309  27.968   8.333
  166POPC   C3B 6921  14.522  27.983   7.978
  166POPC   C4B 6922  14.384  27.742   7.651
  167POPC   NC3 6923  10.003   6.290   9.353
  167POPC   PO4 6924   9.564   5.811   9.511
  167POPC   GL1 6925   9.739   5.871   9.153
  167POPC   GL2 6926   9.546   6.163   9.127
  167POPC   C1A 6927   9.877   5.974   8.759
  167POPC   D2A 6928   9.899   5.762   8.402
  167POPC   C3A 6929   9.943   5.976   8.065
  167POPC   C4A 6930   9.761   5.850   7.708
  167POPC   C1B 6931   9.383   6.288   8.761
  167POPC   C2B 6932   9.532   6.135   8.386
  167POPC   C3B 6933   9.434   5.855   8.097
  167POPC   C4B 6934   9.265   5.847   7.697
  168POPC   NC3 6935   6.720  14.887   9.251
  168POPC   PO4 6936   6.949  14.284   9.500
  168POPC   GL1 6937   6.735  14.368   9.131
  168POPC   GL2 6938   6.386  14.491   9.233
  168POPC   C1A 6939   6.863  14.506   8.722
  168POPC   D2A 6940   6.801  14.360   8.344
  168POPC   C3A 6941   7.030  14.435   7.994
  168POPC   C4A 6942   6.733  14.600   7.772
  168POPC   C1B 6943   6.320  14.471   8.786
  168POPC   C2B 6944   6.228  14.218   8.414
  168POPC   C3B 6945   6.390  14.280   8.032
  168POPC   C4B 6946   6.400  14.244   7.615
  169POPC   NC3 6947  38.684  33.206   9.484
  169POPC   PO4 6948  38.168  32.653   9.466
  169POPC   GL1 6949  38.376  32.932   9.166
  169POPC   GL2 6950  38.444  32.672   9.006
  169POPC   C1A 6951  38.417  33.153   8.760
  169POPC   D2A 6952  38.537  33.339   8.361
  169POPC   C3A 6953  38.265  33.257   8.051
  169POPC   C4A 6954  38.210  33.194   7.603
  169POPC   C1B 6955  38.522  32.679   8.625
  169POPC   C2B 6956  38.552  32.829   8.269
  169POPC   C3B 6957  38.349  32.757   7.893
  169POPC   C4B 6958  38.332  32.722   7.459
  170POPC   NC3 6959   1.036  32.752   9.428
  170POPC   PO4 6960   1.011  32.056   9.484
  170POPC   GL1 6961   1.214  32.110   9.076
  170POPC   GL2 6962   1.231  32.485   9.047
  170POPC   C1A 6963   1.100  31.849   8.700
  170POPC   D2A 6964   1.209  31.887   8.264
  170POPC   C3A 6965   0.964  32.026   7.947
  170POPC   C4A 6966   1.164  32.336   7.692
  170POPC   C1B 6967   1.308  32.605   8.627
  170POPC   C2B 6968   1.334  32.406   8.202
  170POPC   C3B 6969   1.599  32.523   7.846
  170POPC   C4B 6970   1.514  32.663   7.390
  171POPC   NC3 6971   0.883  20.468   9.410
  171POPC   PO4 6972   1.394  20.899   9.490
  171POPC   GL1 6973   1.280  20.700   9.160
  171POPC   GL2 6974   1.007  20.905   9.108
  171POPC   C1A 6975   1.502  20.502   8.826
  171POPC   D2A 6976   1.678  20.581   8.435
  171POPC   C3A 6977   1.391  20.387   8.114
  171POPC   C4A 6978   1.317  20.450   7.676
  171POPC   C1B 6979   1.014  20.621   8.736
  171POPC   C2B 6980   1.222  20.799   8.395
  171POPC   C3B 6981   1.121  20.795   7.975
  171POPC   C4B 6982   0.977  21.101   7.763
  172POPC   NC3 6983  43.608  26.526   9.966
  172POPC   PO4 6984  43.145  26.720   9.472
  172POPC   GL1 6985  42.931  26.795   9.102
  172POPC   GL2 6986  42.977  27.158   8.989
  172POPC   C1A 6987  43.093  26.771   8.691
  172POPC   D2A 6988  43.288  26.767   8.327
  172POPC   C3A 6989  43.091  26.640   7.955
  172POPC   C4A 6990  43.457  26.526   7.796
  172POPC   C1B 6991  43.210  27.260   8.602
  172POPC   C2B 6992  43.325  27.243   8.167
  172POPC   C3B 6993  43.295  27.051   7.762
  172POPC   C4B 6994  42.989  26.987   7.423
  173POPC   NC3 6995  38.359  11.563   9.523
  173POPC   PO4 6996  38.686  12.303   9.518
  173POPC   GL1 6997  38.603  12.058   9.155
  173POPC   GL2 6998  38.512  11.711   9.049
  173POPC   C1A 6999  38.487  12.273   8.796
  173POPC   D2A 7000  38.318  12.259   8.391
  173POPC   C3A 7001  38.571  12.200   8.028
  173POPC   C4A 7002  38.362  12.319   7.682
  173POPC   C1B 7003  38.229  11.845   8.724
  173POPC   C2B 7004  38.034  11.830   8.294
  173POPC   C3B 7005  38.298  11.792   7.901
  173POPC   C4B 7006  38.722  11.592   7.911
  174POPC   NC3 7007  20.693  19.638   9.294
  174POPC   PO4 7008  20.424  20.204   9.649
  174POPC   GL1 7009  20.453  20.096   9.203
  174POPC   GL2 7010  20.758  20.221   9.050
  174POPC   C1A 7011  20.461  19.950   8.743
  174POPC   D2A 7012  20.488  20.092   8.302
  174POPC   C3A 7013  20.472  19.779   7.971
  174POPC   C4A 7014  20.413  19.846   7.507
  174POPC   C1B 7015  20.880  20.224   8.627
  174POPC   C2B 7016  20.994  19.916   8.339
  174POPC   C3B 7017  20.989  19.667   8.026
  174POPC   C4B 7018  20.885  19.900   7.712
  175POPC   NC3 7019  32.017  41.888   9.482
  175POPC   PO4 7020  32.563  41.512   9.506
  175POPC   GL1 7021  32.495  41.314   9.122
  175POPC   GL2 7022  32.154  41.359   9.039
  175POPC   C1A 7023  32.555  41.500   8.728
  175POPC   D2A 7024  32.636  41.756   8.360
  175POPC   C3A 7025  32.653  41.620   7.993
  175POPC   C4A 7026  32.336  41.666   7.722
  175POPC   C1B 7027  32.165  41.210   8.621
  175POPC   C2B 7028  32.174  41.509   8.267
  175POPC   C3B 7029  31.885  41.564   7.930
  175POPC   C4B 7030  32.021  41.292   7.611
  176POPC   NC3 7031   4.777  19.589   9.582
  176POPC   PO4 7032   4.137  19.348   9.600
  176POPC   GL1 7033   4.187  19.533   9.185
  176POPC   GL2 7034   4.521  19.488   9.166
  176POPC   C1A 7035   4.294  19.860   8.879
  176POPC   D2A 7036   4.294  20.067   8.492
  176POPC   C3A 7037   4.098  19.911   8.131
  176POPC   C4A 7038   4.266  19.969   7.709
  176POPC   C1B 7039   4.552  19.420   8.751
  176POPC   C2B 7040   4.394  19.579   8.394
  176POPC   C3B 7041   4.436  19.537   7.959
  176POPC   C4B 7042   4.728  19.605   7.632
  177POPC   NC3 7043   1.017  28.011   9.570
  177POPC   PO4 7044   1.423  28.601   9.521
  177POPC   GL1 7045   1.326  28.604   9.131
  177POPC   GL2 7046   1.241  28.257   9.158
  177POPC   C1A 7047   1.401  28.486   8.709
  177POPC   D2A 7048   1.181  28.318   8.359
  177POPC   C3A 7049   1.207  28.520   7.949
  177POPC   C4A 7050   1.525  28.435   7.672
  177POPC   C1B 7051   0.962  28.249   8.821
  177POPC   C2B 7052   0.714  28.128   8.452
  177POPC   C3B 7053   0.859  28.076   8.045
  177POPC   C4B 7054   0.762  28.043   7.658
  178POPC   NC3 7055  22.923  39.724   9.580
  178POPC   PO4 7056  22.752  40.334   9.243
  178POPC   GL1 7057  22.857  40.061   9.039
  178POPC   GL2 7058  23.151  40.032   9.207
  178POPC   C1A 7059  22.898  40.120   8.620
  178POPC   D2A 7060  23.150  40.370   8.380
  178POPC   C3A 7061  23.033  40.166   8.030
  178POPC   C4A 7062  23.007  40.369   7.684
  178POPC   C1B 7063  23.326  39.943   8.836
  178POPC   C2B 7064  23.325  39.894   8.426
  178POPC   C3B 7065  23.473  39.921   8.064
  178POPC   C4B 7066  23.319  39.857   7.682
  179POPC   NC3 7067  36.879  10.870   9.656
  179POPC   PO4 7068  36.683  10.239   9.476
  179POPC   GL1 7069  36.915  10.529   9.212
  179POPC   GL2 7070  36.715  10.814   9.160
  179POPC   C1A 7071  37.142  10.522   8.816
  179POPC   D2A 7072  37.347  10.468   8.426
  179POPC   C3A 7073  37.207  10.362   8.027
  179POPC   C4A 7074  37.104  10.479   7.610
  179POPC   C1B 7075  36.662  10.630   8.743
  179POPC   C2B 7076  36.861  10.631   8.329
  179POPC   C3B 7077  36.710  10.560   7.899
  179POPC   C4B 7078  36.752  10.899   7.589
  180POPC   NC3 7079  24.938  33.306   9.464
  180POPC   PO4 7080  25.535  32.954   9.575
  180POPC   GL1 7081  25.343  33.026   9.182
  180POPC   GL2 7082  25.001  32.881   9.189
  180POPC   C1A 7083  25.436  33.103   8.734
  180POPC   D2A 7084  25.611  32.904   8.361
  180POPC   C3A 7085  25.497  32.963   7.937
  180POPC   C4A 7086  25.484  33.105   7.468
  180POPC   C1B 7087  24.940  32.971   8.747
  180POPC   C2B 7088  25.100  32.986   8.341
  180POPC   C3B 7089  24.903  32.890   7.982
  180POPC   C4B 7090  24.668  33.114   7.725
  181POPC   NC3 7091  16.984   7.632   9.464
  181POPC   PO4 7092  16.692   7.077   9.774
  181POPC   GL1 7093  16.741   7.163   9.333
  181POPC   GL2 7094  16.523   7.452   9.281
  181POPC   C1A 7095  16.928   7.283   8.921
  181POPC   D2A 7096  16.851   7.538   8.553
  181POPC   C3A 7097  16.911   7.438   8.121
  181POPC   C4A 7098  16.883   7.783   7.840
  181POPC   C1B 7099  16.447   7.393   8.838
  181POPC   C2B 7100  16.493   7.142   8.456
  181POPC   C3B 7101  16.555   7.050   8.013
  181POPC   C4B 7102  16.562   7.140   7.560
  182POPC   NC3 7103  41.647  24.179   9.786
  182POPC   PO4 7104  41.276  24.669   9.519
  182POPC   GL1 7105  41.333  24.530   9.094
  182POPC   GL2 7106  41.009  24.348   9.076
  182POPC   C1A 7107  41.589  24.317   8.747
  182POPC   D2A 7108  41.517  24.119   8.308
  182POPC   C3A 7109  41.730  24.260   7.936
  182POPC   C4A 7110  41.813  24.586   7.602
  182POPC   C1B 7111  41.102  24.371   8.620
  182POPC   C2B 7112  41.376  24.647   8.360
  182POPC   C3B 7113  41.353  24.606   7.911
  182POPC   C4B 7114  41.235  24.182   7.740
  183POPC   NC3 7115  35.613  31.821   9.763
  183POPC   PO4 7116  35.294  31.413   9.372
  183POPC   GL1 7117  35.220  31.364   8.997
  183POPC   GL2 7118  35.139  31.726   8.990
  183POPC   C1A 7119  35.334  31.127   8.643
  183POPC   D2A 7120  35.215  31.250   8.275
  183POPC   C3A 7121  35.357  31.332   7.892
  183POPC   C4A 7122  35.199  31.320   7.488
  183POPC   C1B 7123  35.251  31.673   8.586
  183POPC   C2B 7124  35.338  31.757   8.168
  183POPC   C3B 7125  35.107  31.810   7.764
  183POPC   C4B 7126  34.987  31.737   7.312
  184POPC   NC3 7127   6.565  28.378  10.155
  184POPC   PO4 7128   6.174  28.578   9.606
  184POPC   GL1 7129   6.274  28.567   9.135
  184POPC   GL2 7130   6.494  28.284   8.992
  184POPC   C1A 7131   6.375  28.658   8.669
  184POPC   D2A 7132   6.513  28.476   8.273
  184POPC   C3A 7133   6.333  28.573   7.870
  184POPC   C4A 7134   6.558  28.728   7.489
  184POPC   C1B 7135   6.844  28.461   8.696
  184POPC   C2B 7136   7.015  28.641   8.296
  184POPC   C3B 7137   6.856  28.572   7.888
  184POPC   C4B 7138   6.642  28.165   7.845
  185POPC   NC3 7139  22.452  25.773   9.597
  185POPC   PO4 7140  22.035  26.400   9.617
  185POPC   GL1 7141  21.947  26.361   9.201
  185POPC   GL2 7142  22.069  25.989   9.170
  185POPC   C1A 7143  21.988  26.300   8.776
  185POPC   D2A 7144  21.921  25.979   8.503
  185POPC   C3A 7145  22.071  26.079   8.147
  185POPC   C4A 7146  22.070  26.061   7.759
  185POPC   C1B 7147  22.356  25.933   8.780
  185POPC   C2B 7148  22.506  25.888   8.323
  185POPC   C3B 7149  22.462  25.762   7.860
  185POPC   C4B 7150  22.432  25.884   7.423
  186POPC   NC3 7151  12.041  26.512   9.368
  186POPC   PO4 7152  12.313  27.079   9.401
  186POPC   GL1 7153  12.298  26.974   9.015
  186POPC   GL2 7154  11.957  26.915   9.067
  186POPC   C1A 7155  12.189  26.742   8.666
  186POPC   D2A 7156  12.145  26.517   8.321
  186POPC   C3A 7157  12.087  26.733   7.958
  186POPC   C4A 7158  12.309  26.866   7.626
  186POPC   C1B 7159  11.713  26.686   8.803
  186POPC   C2B 7160  11.712  26.792   8.391
  186POPC   C3B 7161  11.597  26.994   8.040
  186POPC   C4B 7162  11.735  27.019   7.649
  187POPC   NC3 7163  29.104  37.164   9.633
  187POPC   PO4 7164  29.544  36.671   9.532
  187POPC   GL1 7165  29.307  36.862   9.241
  187POPC   GL2 7166  29.382  37.182   9.140
  187POPC   C1A 7167  29.352  36.752   8.797
  187POPC   D2A 7168  29.416  36.911   8.365
  187POPC   C3A 7169  29.307  36.658   7.990
  187POPC   C4A 7170  29.035  36.804   7.665
  187POPC   C1B 7171  28.988  37.095   8.910
  187POPC   C2B 7172  28.902  37.045   8.451
  187POPC   C3B 7173  28.926  37.245   8.008
  187POPC   C4B 7174  28.579  37.518   7.753
  188POPC   NC3 7175  20.403  13.624   9.990
  188POPC   PO4 7176  20.755  13.848   9.515
  188POPC   GL1 7177  20.446  13.619   9.250
  188POPC   GL2 7178  20.658  13.359   9.191
  188POPC   C1A 7179  20.252  13.441   8.835
  188POPC   D2A 7180  20.114  13.495   8.395
  188POPC   C3A 7181  20.295  13.343   8.008
  188POPC   C4A 7182  20.329  13.769   7.856
  188POPC   C1B 7183  20.709  13.641   8.809
  188POPC   C2B 7184  20.652  13.401   8.412
  188POPC   C3B 7185  20.781  13.547   8.015
  188POPC   C4B 7186  20.790  14.009   7.922
  189POPC   NC3 7187  28.508  39.900   9.523
  189POPC   PO4 7188  28.101  40.442   9.456
  189POPC   GL1 7189  28.140  40.066   9.191
  189POPC   GL2 7190  27.858  40.058   8.978
  189POPC   C1A 7191  28.302  39.908   8.786
  189POPC   D2A 7192  28.424  40.129   8.412
  189POPC   C3A 7193  28.338  39.908   8.047
  189POPC   C4A 7194  28.382  40.001   7.639
  189POPC   C1B 7195  28.104  40.384   8.756
  189POPC   C2B 7196  28.063  40.498   8.315
  189POPC   C3B 7197  28.084  40.333   7.911
  189POPC   C4B 7198  27.974  40.252   7.466
  190POPC   NC3 7199  42.657  42.150   9.681
  190POPC   PO4 7200  42.278  42.659   9.536
  190POPC   GL1 7201  42.498  42.430   9.243
  190POPC   GL2 7202  42.637  42.716   9.120
  190POPC   C1A 7203  42.520  42.174   8.849
  190POPC   D2A 7204  42.415  41.946   8.439
  190POPC   C3A 7205  42.185  42.137   8.086
  190POPC   C4A 7206  41.860  42.082   7.757
  190POPC   C1B 7207  42.449  42.683   8.756
  190POPC   C2B 7208  42.505  42.490   8.387
  190POPC   C3B 7209  42.566  42.517   7.972
  190POPC   C4B 7210  42.166  42.523   7.744
  191POPC   NC3 7211  26.727  19.175   9.551
  191POPC   PO4 7212  27.165  18.719   9.645
  191POPC   GL1 7213  27.037  18.943   9.204
  191POPC   GL2 7214  26.815  19.182   9.031
  191POPC   C1A 7215  27.150  18.901   8.758
  191POPC   D2A 7216  26.939  18.688   8.423
  191POPC   C3A 7217  26.779  18.976   8.117
  191POPC   C4A 7218  27.000  19.124   7.761
  191POPC   C1B 7219  26.780  19.240   8.562
  191POPC   C2B 7220  26.597  19.497   8.228
  191POPC   C3B 7221  26.611  19.453   7.787
  191POPC   C4B 7222  26.739  19.534   7.349
  192POPC   NC3 7223  26.667  35.777   9.269
  192POPC   PO4 7224  26.543  36.328   9.617
  192POPC   GL1 7225  26.654  36.282   9.154
  192POPC   GL2 7226  26.981  36.192   9.103
  192POPC   C1A 7227  26.630  36.080   8.682
  192POPC   D2A 7228  26.561  36.065   8.193
  192POPC   C3A 7229  26.844  36.263   7.896
  192POPC   C4A 7230  26.853  36.043   7.499
  192POPC   C1B 7231  27.130  36.240   8.722
  192POPC   C2B 7232  27.050  36.052   8.325
  192POPC   C3B 7233  27.149  35.854   7.954
  192POPC   C4B 7234  27.347  35.960   7.574
  193POPC   NC3 7235  30.936  17.100   9.490
  193POPC   PO4 7236  30.693  17.551   9.764
  193POPC   GL1 7237  30.610  17.412   9.216
  193POPC   GL2 7238  30.864  17.316   9.045
  193POPC   C1A 7239  30.728  17.665   8.733
  193POPC   D2A 7240  30.701  17.907   8.344
  193POPC   C3A 7241  30.895  17.746   7.967
  193POPC   C4A 7242  30.754  17.561   7.575
  193POPC   C1B 7243  30.701  17.155   8.642
  193POPC   C2B 7244  30.703  17.302   8.206
  193POPC   C3B 7245  30.842  17.119   7.815
  193POPC   C4B 7246  30.983  17.157   7.364
  194POPC   NC3 7247  40.911  22.568   9.517
  194POPC   PO4 7248  40.600  21.975   9.531
  194POPC   GL1 7249  40.796  22.165   9.196
  194POPC   GL2 7250  40.584  22.439   9.120
  194POPC   C1A 7251  41.002  22.041   8.839
  194POPC   D2A 7252  40.913  21.850   8.469
  194POPC   C3A 7253  41.110  21.938   8.085
  194POPC   C4A 7254  41.027  22.185   7.749
  194POPC   C1B 7255  40.846  22.532   8.795
  194POPC   C2B 7256  40.950  22.343   8.418
  194POPC   C3B 7257  40.671  22.219   8.105
  194POPC   C4B 7258  40.668  22.525   7.778
  195POPC   NC3 7259  14.326   7.776   9.530
  195POPC   PO4 7260  14.130   7.121   9.567
  195POPC   GL1 7261  14.181   7.220   9.068
  195POPC   GL2 7262  14.439   7.542   9.026
  195POPC   C1A 7263  14.127   7.383   8.653
  195POPC   D2A 7264  14.079   7.203   8.262
  195POPC   C3A 7265  14.244   7.487   7.986
  195POPC   C4A 7266  14.341   7.497   7.575
  195POPC   C1B 7267  14.650   7.209   8.755
  195POPC   C2B 7268  14.897   6.997   8.412
  195POPC   C3B 7269  14.635   7.142   8.059
  195POPC   C4B 7270  14.720   7.171   7.656
  196POPC   NC3 7271   1.477  14.348   9.608
  196POPC   PO4 7272   2.157  14.346   9.696
  196POPC   GL1 7273   2.190  14.445   9.214
  196POPC   GL2 7274   1.874  14.423   9.051
  196POPC   C1A 7275   2.256  14.302   8.734
  196POPC   D2A 7276   2.020  14.286   8.306
  196POPC   C3A 7277   2.319  14.290   7.967
  196POPC   C4A 7278   2.614  14.224   7.654
  196POPC   C1B 7279   1.896  14.651   8.670
  196POPC   C2B 7280   2.248  14.744   8.365
  196POPC   C3B 7281   2.128  14.741   7.921
  196POPC   C4B 7282   1.830  14.386   7.818
  197POPC   NC3 7283  31.100  28.305   9.484
  197POPC   PO4 7284  31.536  28.769   9.480
  197POPC   GL1 7285  31.595  28.480   9.166
  197POPC   GL2 7286  31.935  28.584   9.087
  197POPC   C1A 7287  31.430  28.450   8.736
  197POPC   D2A 7288  31.504  28.593   8.318
  197POPC   C3A 7289  31.331  28.358   7.980
  197POPC   C4A 7290  31.506  28.072   7.651
  197POPC   C1B 7291  31.928  28.711   8.654
  197POPC   C2B 7292  32.007  28.726   8.206
  197POPC   C3B 7293  31.754  28.834   7.839
  197POPC   C4B 7294  31.521  28.563   7.570
  198POPC   NC3 7295  25.198  26.184   9.589
  198POPC   PO4 7296  25.714  26.431   9.590
  198POPC   GL1 7297  25.475  26.215   9.168
  198POPC   GL2 7298  25.081  26.178   9.088
  198POPC   C1A 7299  25.418  26.025   8.722
  198POPC   D2A 7300  25.482  26.195   8.291
  198POPC   C3A 7301  25.325  25.991   7.911
  198POPC   C4A 7302  25.521  25.924   7.472
  198POPC   C1B 7303  24.850  26.306   8.681
  198POPC   C2B 7304  24.760  26.298   8.187
  198POPC   C3B 7305  24.974  26.368   7.757
  198POPC   C4B 7306  24.959  26.389   7.283
  199POPC   NC3 7307   9.452  22.070   9.423
  199POPC   PO4 7308  10.092  22.083   9.569
  199POPC   GL1 7309  10.072  21.847   9.139
  199POPC   GL2 7310   9.720  21.780   9.087
  199POPC   C1A 7311  10.032  21.823   8.637
  199POPC   D2A 7312  10.009  22.154   8.278
  199POPC   C3A 7313   9.907  22.215   7.811
  199POPC   C4A 7314  10.190  22.427   7.487
  199POPC   C1B 7315   9.525  21.712   8.679
  199POPC   C2B 7316   9.544  21.817   8.222
  199POPC   C3B 7317   9.427  21.880   7.783
  199POPC   C4B 7318   9.658  21.832   7.405
  200POPC   NC3 7319  29.363  19.359   9.388
  200POPC   PO4 7320  29.623  18.751   9.508
  200POPC   GL1 7321  29.436  18.931   9.133
  200POPC   GL2 7322  29.047  18.999   9.159
  200POPC   C1A 7323  29.340  19.175   8.733
  200POPC   D2A 7324  29.201  18.969   8.340
  200POPC   C3A 7325  29.414  19.004   7.955
  200POPC   C4A 7326  29.055  19.008   7.704
  200POPC   C1B 7327  29.112  18.731   8.795
  200POPC   C2B 7328  28.958  18.519   8.435
  200POPC   C3B 7329  28.797  18.712   8.046
  200POPC   C4B 7330  28.817  18.562   7.610
  201POPC   NC3 7331  12.953  32.956   9.634
  201POPC   PO4 7332  12.404  33.109   9.649
  201POPC   GL1 7333  12.638  32.993   9.216
  201POPC   GL2 7334  13.038  33.024   9.131
  201POPC   C1A 7335  12.719  33.032   8.738
  201POPC   D2A 7336  12.674  33.249   8.326
  201POPC   C3A 7337  12.705  33.027   7.936
  201POPC   C4A 7338  12.417  33.073   7.571
  201POPC   C1B 7339  13.249  33.058   8.686
  201POPC   C2B 7340  13.178  33.113   8.202
  201POPC   C3B 7341  13.189  32.897   7.780
  201POPC   C4B 7342  13.201  32.794   7.323
  202POPC   NC3 7343  39.839  31.434   9.498
  202POPC   PO4 7344  39.338  31.796   9.615
  202POPC   GL1 7345  39.173  31.623   9.168
  202POPC   GL2 7346  39.296  31.322   9.086
  202POPC   C1A 7347  39.030  31.514   8.690
  202POPC   D2A 7348  39.220  31.469   8.292
  202POPC   C3A 7349  39.053  31.484   7.880
  202POPC   C4A 7350  39.211  31.722   7.515
  202POPC   C1B 7351  39.455  31.192   8.677
  202POPC   C2B 7352  39.588  31.098   8.270
  202POPC   C3B 7353  39.401  30.947   7.935
  202POPC   C4B 7354  39.038  30.996   7.756
  203POPC   NC3 7355  27.174  43.016   9.486
  203POPC   PO4 7356  27.728  43.303   9.498
  203POPC   GL1 7357  27.446  43.277   9.156
  203POPC   GL2 7358  27.661  43.058   9.002
  203POPC   C1A 7359  27.242  43.339   8.773
  203POPC   D2A 7360  27.293  43.510   8.353
  203POPC   C3A 7361  27.507  43.266   8.051
  203POPC   C4A 7362  27.568  43.438   7.629
  203POPC   C1B 7363  27.595  43.013   8.561
  203POPC   C2B 7364  27.647  42.763   8.181
  203POPC   C3B 7365  27.801  42.947   7.787
  203POPC   C4B 7366  27.859  43.125   7.350
  204POPC   NC3 7367   6.919   7.905   9.592
  204POPC   PO4 7368   6.453   8.404   9.736
  204POPC   GL1 7369   6.445   8.186   9.301
  204POPC   GL2 7370   6.737   7.971   9.125
  204POPC   C1A 7371   6.403   8.206   8.838
  204POPC   D2A 7372   6.370   7.935   8.481
  204POPC   C3A 7373   6.502   8.085   8.088
  204POPC   C4A 7374   6.250   8.211   7.711
  204POPC   C1B 7375   6.945   8.193   8.759
  204POPC   C2B 7376   7.000   8.370   8.318
  204POPC   C3B 7377   6.887   8.363   7.876
  204POPC   C4B 7378   6.737   7.995   7.647
  205POPC   NC3 7379  34.700   9.953   9.524
  205POPC   PO4 7380  34.281   9.471   9.319
  205POPC   GL1 7381  34.403   9.566   8.972
  205POPC   GL2 7382  34.561   9.832   9.060
  205POPC   C1A 7383  34.655   9.431   8.649
  205POPC   D2A 7384  34.649   9.674   8.324
  205POPC   C3A 7385  34.343   9.551   8.088
  205POPC   C4A 7386  34.496   9.574   7.709
  205POPC   C1B 7387  34.470   9.986   8.680
  205POPC   C2B 7388  34.266  10.039   8.296
  205POPC   C3B 7389  34.529  10.039   7.933
  205POPC   C4B 7390  34.456  10.037   7.471
  206POPC   NC3 7391  29.789  33.496   9.274
  206POPC   PO4 7392  30.226  34.066   9.472
  206POPC   GL1 7393  30.019  33.945   9.087
  206POPC   GL2 7394  29.644  33.965   9.031
  206POPC   C1A 7395  29.987  34.110   8.687
  206POPC   D2A 7396  29.752  34.151   8.320
  206POPC   C3A 7397  29.965  34.093   7.951
  206POPC   C4A 7398  29.900  33.851   7.604
  206POPC   C1B 7399  29.700  33.685   8.664
  206POPC   C2B 7400  29.565  33.686   8.266
  206POPC   C3B 7401  29.720  33.490   7.954
  206POPC   C4B 7402  29.910  33.326   7.617
  207POPC   NC3 7403  29.132  21.603   9.248
  207POPC   PO4 7404  29.511  21.092   9.268
  207POPC   GL1 7405  29.522  21.387   8.915
  207POPC   GL2 7406  29.677  21.650   9.030
  207POPC   C1A 7407  29.362  21.491   8.479
  207POPC   D2A 7408  28.951  21.475   8.242
  207POPC   C3A 7409  28.867  21.307   7.820
  207POPC   C4A 7410  28.640  21.512   7.458
  207POPC   C1B 7411  29.691  21.875   8.623
  207POPC   C2B 7412  29.359  22.016   8.373
  207POPC   C3B 7413  29.305  21.795   8.033
  207POPC   C4B 7414  29.384  21.354   7.907
  208POPC   NC3 7415  18.233  34.073  10.069
  208POPC   PO4 7416  18.386  33.538   9.670
  208POPC   GL1 7417  18.475  33.636   9.210
  208POPC   GL2 7418  18.563  34.010   9.214
  208POPC   C1A 7419  18.209  33.778   8.853
  208POPC   D2A 7420  18.149  34.096   8.516
  208POPC   C3A 7421  18.084  33.938   8.081
  208POPC   C4A 7422  18.184  33.577   7.797
  208POPC   C1B 7423  18.633  34.007   8.777
  208POPC   C2B 7424  18.509  33.767   8.392
  208POPC   C3B 7425  18.576  33.929   7.981
  208POPC   C4B 7426  18.449  33.921   7.564
  209POPC   NC3 7427   5.024   8.508   9.571
  209POPC   PO4 7428   5.596   8.114   9.763
  209POPC   GL1 7429   5.282   8.213   9.265
  209POPC   GL2 7430   5.209   8.478   9.064
  209POPC   C1A 7431   5.020   8.052   8.882
  209POPC   D2A 7432   5.124   7.897   8.469
  209POPC   C3A 7433   5.148   8.140   8.094
  209POPC   C4A 7434   5.048   8.124   7.628
  209POPC   C1B 7435   5.174   8.426   8.572
  209POPC   C2B 7436   4.822   8.508   8.331
  209POPC   C3B 7437   4.887   8.526   7.922
  209POPC   C4B 7438   5.282   8.554   7.651
  210POPC   NC3 7439  36.969  43.351   9.690
  210POPC   PO4 7440  36.564  42.926   9.478
  210POPC   GL1 7441  36.951  43.039   9.252
  210POPC   GL2 7442  37.016  43.410   9.170
  210POPC   C1A 7443  37.010  43.073   8.806
  210POPC   D2A 7444  36.750  43.117   8.426
  210POPC   C3A 7445  36.914  43.051   7.993
  210POPC   C4A 7446  36.870  42.792   7.634
  210POPC   C1B 7447  36.751  43.541   8.779
  210POPC   C2B 7448  36.816  43.619   8.317
  210POPC   C3B 7449  36.727  43.521   7.870
  210POPC   C4B 7450  36.673  43.534   7.358
  211POPC   NC3 7451  41.694  24.897   9.456
  211POPC   PO4 7452  41.609  25.616   9.623
  211POPC   GL1 7453  41.795  25.377   9.245
  211POPC   GL2 7454  42.065  25.599   9.164
  211POPC   C1A 7455  41.707  25.084   8.856
  211POPC   D2A 7456  41.821  25.014   8.437
  211POPC   C3A 7457  41.566  25.050   8.086
  211POPC   C4A 7458  41.689  25.067   7.675
  211POPC   C1B 7459  41.893  25.545   8.742
  211POPC   C2B 7460  41.642  25.493   8.337
  211POPC   C3B 7461  41.606  25.526   7.850
  211POPC   C4B 7462  41.833  25.507   7.424
  212POPC   NC3 7463  26.326   5.327   9.537
  212POPC   PO4 7464  25.810   4.812   9.557
  212POPC   GL1 7465  25.980   5.044   9.265
  212POPC   GL2 7466  26.166   4.735   9.177
  212POPC   C1A 7467  25.853   5.008   8.875
  212POPC   D2A 7468  26.048   4.838   8.504
  212POPC   C3A 7469  25.785   4.924   8.159
  212POPC   C4A 7470  25.831   5.119   7.789
  212POPC   C1B 7471  26.361   5.009   8.868
  212POPC   C2B 7472  26.511   5.175   8.502
  212POPC   C3B 7473  26.280   5.135   8.137
  212POPC   C4B 7474  26.357   5.141   7.718
  213POPC   NC3 7475  18.169  14.761   9.354
  213POPC   PO4 7476  18.357  15.286   9.660
  213POPC   GL1 7477  18.306  15.281   9.219
  213POPC   GL2 7478  17.947  15.339   9.125
  213POPC   C1A 7479  18.591  15.332   8.871
  213POPC   D2A 7480  18.694  15.241   8.476
  213POPC   C3A 7481  18.426  15.176   8.169
  213POPC   C4A 7482  18.544  15.138   7.744
  213POPC   C1B 7483  18.124  15.103   8.747
  213POPC   C2B 7484  18.051  14.873   8.353
  213POPC   C3B 7485  18.086  14.907   7.882
  213POPC   C4B 7486  17.880  14.657   7.589
  214POPC   NC3 7487   8.333  17.592   9.602
  214POPC   PO4 7488   7.894  17.245   9.738
  214POPC   GL1 7489   7.940  17.463   9.276
  214POPC   GL2 7490   8.214  17.682   9.114
  214POPC   C1A 7491   7.837  17.554   8.814
  214POPC   D2A 7492   8.073  17.634   8.419
  214POPC   C3A 7493   7.947  17.567   7.975
  214POPC   C4A 7494   8.083  17.793   7.618
  214POPC   C1B 7495   8.380  17.899   8.752
  214POPC   C2B 7496   8.472  17.970   8.294
  214POPC   C3B 7497   8.467  17.660   7.937
  214POPC   C4B 7498   8.515  17.543   7.476
  215POPC   NC3 7499  23.257   1.822   9.446
  215POPC   PO4 7500  22.665   1.942   9.586
  215POPC   GL1 7501  22.860   2.056   9.196
  215POPC   GL2 7502  23.149   2.288   9.168
  215POPC   C1A 7503  22.972   1.893   8.793
  215POPC   D2A 7504  22.905   2.056   8.373
  215POPC   C3A 7505  22.950   1.789   8.015
  215POPC   C4A 7506  23.282   1.712   7.732
  215POPC   C1B 7507  23.085   2.414   8.738
  215POPC   C2B 7508  23.301   2.405   8.336
  215POPC   C3B 7509  23.127   2.260   7.958
  215POPC   C4B 7510  22.662   2.282   7.916
  216POPC   NC3 7511  30.950  24.254   9.553
  216POPC   PO4 7512  30.576  24.791   9.531
  216POPC   GL1 7513  30.464  24.543   9.170
  216POPC   GL2 7514  30.525  24.197   9.239
  216POPC   C1A 7515  30.399  24.629   8.724
  216POPC   D2A 7516  30.592  24.542   8.332
  216POPC   C3A 7517  30.558  24.724   7.898
  216POPC   C4A 7518  30.966  24.808   7.677
  216POPC   C1B 7519  30.765  24.266   8.830
  216POPC   C2B 7520  30.933  24.161   8.396
  216POPC   C3B 7521  30.846  24.297   7.942
  216POPC   C4B 7522  31.018  24.325   7.498
  217POPC   NC3 7523   0.290  37.395   9.578
  217POPC   PO4 7524   0.708  37.943   9.742
  217POPC   GL1 7525   0.505  37.804   9.289
  217POPC   GL2 7526   0.271  37.563   9.115
  217POPC   C1A 7527   0.459  37.922   8.829
  217POPC   D2A 7528   0.363  37.651   8.479
  217POPC   C3A 7529   0.487  37.817   8.073
  217POPC   C4A 7530   0.272  37.822   7.680
  217POPC   C1B 7531   0.047  37.294   8.838
  217POPC   C2B 7532   0.081  37.146   8.439
  217POPC   C3B 7533   0.206  37.363   8.086
  217POPC   C4B 7534   0.305  37.229   7.687
  218POPC   NC3 7535  35.918   2.404   9.252
  218POPC   PO4 7536  36.439   2.758   9.527
  218POPC   GL1 7537  36.216   2.804   9.130
  218POPC   GL2 7538  35.912   3.003   9.044
  218POPC   C1A 7539  36.271   2.871   8.700
  218POPC   D2A 7540  36.010   3.122   8.424
  218POPC   C3A 7541  35.939   3.039   7.981
  218POPC   C4A 7542  36.101   2.960   7.553
  218POPC   C1B 7543  35.782   2.742   8.685
  218POPC   C2B 7544  35.895   2.612   8.256
  218POPC   C3B 7545  35.826   2.567   7.792
  218POPC   C4B 7546  35.858   2.385   7.371
  219POPC   NC3 7547  13.195  16.122   9.521
  219POPC   PO4 7548  12.764  16.691   9.543
  219POPC   GL1 7549  12.950  16.765   9.146
  219POPC   GL2 7550  13.075  16.439   9.153
  219POPC   C1A 7551  12.913  16.915   8.754
  219POPC   D2A 7552  12.616  17.122   8.488
  219POPC   C3A 7553  12.607  16.996   8.071
  219POPC   C4A 7554  12.388  16.621   7.978
  219POPC   C1B 7555  12.721  16.418   8.867
  219POPC   C2B 7556  12.677  16.575   8.469
  219POPC   C3B 7557  12.915  16.596   8.142
  219POPC   C4B 7558  12.797  16.489   7.743
  220POPC   NC3 7559  38.888  25.760   9.470
  220POPC   PO4 7560  39.385  26.170   9.494
  220POPC   GL1 7561  39.201  26.017   9.128
  220POPC   GL2 7562  39.326  25.668   9.076
  220POPC   C1A 7563  38.981  26.089   8.753
  220POPC   D2A 7564  39.053  26.335   8.386
  220POPC   C3A 7565  39.267  26.053   8.109
  220POPC   C4A 7566  39.339  26.106   7.675
  220POPC   C1B 7567  39.529  25.871   8.692
  220POPC   C2B 7568  39.758  25.851   8.292
  220POPC   C3B 7569  39.674  25.765   7.846
  220POPC   C4B 7570  39.643  25.788   7.374
  221POPC   NC3 7571  34.783  32.098   9.603
  221POPC   PO4 7572  34.336  32.422   9.371
  221POPC   GL1 7573  34.388  32.162   9.025
  221POPC   GL2 7574  34.746  32.085   9.081
  221POPC   C1A 7575  34.398  32.183   8.569
  221POPC   D2A 7576  34.625  32.404   8.244
  221POPC   C3A 7577  34.398  32.383   7.874
  221POPC   C4A 7578  34.476  32.481   7.462
  221POPC   C1B 7579  34.719  31.823   8.732
  221POPC   C2B 7580  34.868  31.918   8.341
  221POPC   C3B 7581  35.101  32.208   8.129
  221POPC   C4B 7582  34.902  32.320   7.755
  222POPC   NC3 7583  44.386   5.638   9.584
  222POPC   PO4 7584  44.840   6.077   9.469
  222POPC   GL1 7585  44.576   5.888   9.135
  222POPC   GL2 7586  44.579   5.557   9.127
  222POPC   C1A 7587  44.584   5.987   8.687
  222POPC   D2A 7588  44.819   6.115   8.335
  222POPC   C3A 7589  44.666   5.867   7.983
  222POPC   C4A 7590  44.586   5.945   7.557
  222POPC   C1B 7591  44.824   5.484   8.796
  222POPC   C2B 7592  44.769   5.593   8.407
  222POPC   C3B 7593  44.493   5.408   8.135
  222POPC   C4B 7594  44.522   5.467   7.697
  223POPC   NC3 7595  19.475  36.314   9.471
  223POPC   PO4 7596  19.210  35.716   9.731
  223POPC   GL1 7597  19.231  35.889   9.301
  223POPC   GL2 7598  19.564  35.844   9.216
  223POPC   C1A 7599  19.042  36.139   8.934
  223POPC   D2A 7600  18.783  36.160   8.555
  223POPC   C3A 7601  18.916  36.205   8.121
  223POPC   C4A 7602  19.171  35.944   7.949
  223POPC   C1B 7603  19.383  35.797   8.797
  223POPC   C2B 7604  19.312  36.135   8.471
  223POPC   C3B 7605  19.420  36.373   8.086
  223POPC   C4B 7606  19.558  36.181   7.701
  224POPC   NC3 7607  27.956   1.960   9.568
  224POPC   PO4 7608  28.577   2.318   9.491
  224POPC   GL1 7609  28.268   2.098   9.187
  224POPC   GL2 7610  28.073   1.747   9.135
  224POPC   C1A 7611  28.327   2.050   8.768
  224POPC   D2A 7612  28.498   1.916   8.391
  224POPC   C3A 7613  28.434   2.159   8.051
  224POPC   C4A 7614  28.397   1.982   7.701
  224POPC   C1B 7615  27.816   1.819   8.801
  224POPC   C2B 7616  27.972   1.956   8.429
  224POPC   C3B 7617  28.109   1.741   8.085
  224POPC   C4B 7618  27.909   1.768   7.715
  225POPC   NC3 7619  15.517   8.790   9.386
  225POPC   PO4 7620  14.975   9.151   9.583
  225POPC   GL1 7621  15.175   9.112   9.205
  225POPC   GL2 7622  15.082   8.771   9.094
  225POPC   C1A 7623  15.199   9.158   8.767
  225POPC   D2A 7624  14.970   8.885   8.509
  225POPC   C3A 7625  15.038   8.836   8.088
  225POPC   C4A 7626  14.788   9.028   7.764
  225POPC   C1B 7627  15.319   8.615   8.765
  225POPC   C2B 7628  15.492   8.787   8.391
  225POPC   C3B 7629  15.541   9.038   8.036
  225POPC   C4B 7630  15.296   9.006   7.674
  226POPC   NC3 7631  42.692  20.072   9.413
  226POPC   PO4 7632  43.160  20.593   9.517
  226POPC   GL1 7633  43.165  20.558   9.103
  226POPC   GL2 7634  43.481  20.590   9.074
  226POPC   C1A 7635  43.075  20.818   8.725
  226POPC   D2A 7636  42.891  20.974   8.322
  226POPC   C3A 7637  43.042  20.871   7.883
  226POPC   C4A 7638  42.807  20.608   7.576
  226POPC   C1B 7639  43.559  20.698   8.669
  226POPC   C2B 7640  43.334  20.687   8.291
  226POPC   C3B 7641  43.385  20.503   7.883
  226POPC   C4B 7642  43.304  20.591   7.424
  227POPC   NC3 7643  23.362  15.419   9.509
  227POPC   PO4 7644  23.828  14.960   9.427
  227POPC   GL1 7645  23.945  15.225   9.107
  227POPC   GL2 7646  23.666  15.403   9.104
  227POPC   C1A 7647  23.868  15.105   8.706
  227POPC   D2A 7648  23.637  15.131   8.347
  227POPC   C3A 7649  23.810  15.061   7.966
  227POPC   C4A 7650  23.862  15.006   7.541
  227POPC   C1B 7651  23.413  15.337   8.754
  227POPC   C2B 7652  23.428  15.607   8.431
  227POPC   C3B 7653  23.526  15.532   8.039
  227POPC   C4B 7654  23.542  15.389   7.641
  228POPC   NC3 7655  40.213  35.389   9.476
  228POPC   PO4 7656  39.559  35.136   9.553
  228POPC   GL1 7657  39.834  35.272   9.160
  228POPC   GL2 7658  40.162  35.083   9.081
  228POPC   C1A 7659  40.064  35.439   8.757
  228POPC   D2A 7660  40.013  35.650   8.374
  228POPC   C3A 7661  40.303  35.622   8.028
  228POPC   C4A 7662  40.166  35.562   7.612
  228POPC   C1B 7663  40.251  34.864   8.710
  228POPC   C2B 7664  40.237  35.158   8.361
  228POPC   C3B 7665  40.109  35.170   7.949
  228POPC   C4B 7666  40.243  35.059   7.539
  229POPC   NC3 7667  25.457  30.953   9.497
  229POPC   PO4 7668  24.880  30.562   9.524
  229POPC   GL1 7669  25.068  30.803   9.183
  229POPC   GL2 7670  24.986  31.101   8.997
  229POPC   C1A 7671  25.309  30.667   8.824
  229POPC   D2A 7672  25.425  30.448   8.457
  229POPC   C3A 7673  25.266  30.624   8.121
  229POPC   C4A 7674  25.078  30.727   7.721
  229POPC   C1B 7675  25.420  31.168   8.840
  229POPC   C2B 7676  25.547  31.075   8.420
  229POPC   C3B 7677  25.308  31.105   8.022
  229POPC   C4B 7678  24.884  31.187   7.764
  230POPC   NC3 7679  25.783  33.431   9.471
  230POPC   PO4 7680  26.011  34.105   9.651
  230POPC   GL1 7681  26.137  33.934   9.210
  230POPC   GL2 7682  25.823  33.822   9.108
  230POPC   C1A 7683  26.220  33.935   8.718
  230POPC   D2A 7684  26.110  33.770   8.266
  230POPC   C3A 7685  26.115  34.058   7.900
  230POPC   C4A 7686  26.180  34.209   7.411
  230POPC   C1B 7687  25.769  33.661   8.683
  230POPC   C2B 7688  25.589  33.880   8.336
  230POPC   C3B 7689  25.644  33.796   7.957
  230POPC   C4B 7690  25.701  33.414   7.818
  231POPC   NC3 7691  18.451  41.159   9.487
  231POPC   PO4 7692  18.096  41.756   9.580
  231POPC   GL1 7693  18.155  41.797   9.151
  231POPC   GL2 7694  18.225  41.462   9.158
  231POPC   C1A 7695  18.470  41.737   8.788
  231POPC   D2A 7696  18.474  41.901   8.371
  231POPC   C3A 7697  18.378  41.760   7.955
  231POPC   C4A 7698  18.026  41.858   7.666
  231POPC   C1B 7699  18.021  41.492   8.781
  231POPC   C2B 7700  18.007  41.694   8.406
  231POPC   C3B 7701  17.994  41.448   8.054
  231POPC   C4B 7702  17.829  41.403   7.677
  232POPC   NC3 7703   6.263  40.217   9.518
  232POPC   PO4 7704   6.581  40.842   9.549
  232POPC   GL1 7705   6.520  40.549   9.225
  232POPC   GL2 7706   6.741  40.740   9.068
  232POPC   C1A 7707   6.412  40.456   8.793
  232POPC   D2A 7708   6.598  40.652   8.433
  232POPC   C3A 7709   6.329  40.681   8.069
  232POPC   C4A 7710   6.397  40.663   7.617
  232POPC   C1B 7711   6.978  40.979   8.790
  232POPC   C2B 7712   7.028  40.950   8.356
  232POPC   C3B 7713   6.765  40.977   7.984
  232POPC   C4B 7714   6.824  41.322   7.752
  233POPC   NC3 7715  28.177  43.415   9.582
  233POPC   PO4 7716  28.603  42.874   9.389
  233POPC   GL1 7717  28.482  43.267   9.170
  233POPC   GL2 7718  28.121  43.350   9.094
  233POPC   C1A 7719  28.663  43.252   8.767
  233POPC   D2A 7720  28.585  43.022   8.388
  233POPC   C3A 7721  28.796  43.144   8.012
  233POPC   C4A 7722  28.847  42.769   7.770
  233POPC   C1B 7723  28.120  43.106   8.732
  233POPC   C2B 7724  28.069  43.043   8.286
  233POPC   C3B 7725  28.309  43.039   7.906
  233POPC   C4B 7726  28.211  42.803   7.531
  234POPC   NC3 7727   2.228  19.477   9.427
  234POPC   PO4 7728   2.025  20.171   9.501
  234POPC   GL1 7729   2.108  19.931   9.186
  234POPC   GL2 7730   1.815  19.722   9.203
  234POPC   C1A 7731   2.087  19.884   8.770
  234POPC   D2A 7732   2.321  19.820   8.442
  234POPC   C3A 7733   2.090  19.904   8.104
  234POPC   C4A 7734   2.138  19.730   7.729
  234POPC   C1B 7735   1.584  19.748   8.817
  234POPC   C2B 7736   1.800  19.582   8.444
  234POPC   C3B 7737   1.821  19.475   8.038
  234POPC   C4B 7738   1.639  19.628   7.625
  235POPC   NC3 7739   5.756  41.686   9.505
  235POPC   PO4 7740   5.766  41.162   9.113
  235POPC   GL1 7741   6.108  41.381   8.979
  235POPC   GL2 7742   6.101  41.680   9.146
  235POPC   C1A 7743   6.120  41.479   8.548
  235POPC   D2A 7744   5.724  41.462   8.320
  235POPC   C3A 7745   5.724  41.460   7.877
  235POPC   C4A 7746   5.449  41.697   7.602
  235POPC   C1B 7747   5.823  41.818   8.812
  235POPC   C2B 7748   5.909  41.946   8.396
  235POPC   C3B 7749   5.762  41.985   7.986
  235POPC   C4B 7750   5.931  41.848   7.606
  236POPC   NC3 7751  15.939  30.813   9.536
  236POPC   PO4 7752  16.485  30.511   9.289
  236POPC   GL1 7753  16.143  30.728   9.071
  236POPC   GL2 7754  16.144  31.106   9.074
  236POPC   C1A 7755  16.212  30.772   8.637
  236POPC   D2A 7756  16.340  30.544   8.272
  236POPC   C3A 7757  16.133  30.698   7.934
  236POPC   C4A 7758  15.994  30.481   7.595
  236POPC   C1B 7759  15.808  31.054   8.774
  236POPC   C2B 7760  15.580  30.806   8.459
  236POPC   C3B 7761  15.471  30.940   8.042
  236POPC   C4B 7762  15.759  30.967   7.700
  237POPC   NC3 7763  25.805  14.542   9.356
  237POPC   PO4 7764  26.443  14.326   9.478
  237POPC   GL1 7765  26.215  14.412   9.056
  237POPC   GL2 7766  26.333  14.707   8.889
  237POPC   C1A 7767  25.908  14.574   8.698
  237POPC   D2A 7768  25.993  14.780   8.308
  237POPC   C3A 7769  25.651  14.605   8.062
  237POPC   C4A 7770  25.733  14.397   7.698
  237POPC   C1B 7771  26.530  14.530   8.574
  237POPC   C2B 7772  26.294  14.302   8.292
  237POPC   C3B 7773  26.166  14.464   7.923
  237POPC   C4B 7774  26.170  14.368   7.475
  238POPC   NC3 7775  20.662  31.821  10.115
  238POPC   PO4 7776  20.674  31.434   9.567
  238POPC   GL1 7777  20.554  31.343   9.142
  238POPC   GL2 7778  20.832  31.149   9.121
  238POPC   C1A 7779  20.677  31.349   8.681
  238POPC   D2A 7780  20.883  31.598   8.366
  238POPC   C3A 7781  20.640  31.545   8.030
  238POPC   C4A 7782  20.278  31.453   7.755
  238POPC   C1B 7783  20.879  30.888   8.767
  238POPC   C2B 7784  20.654  30.830   8.366
  238POPC   C3B 7785  20.758  30.976   7.945
  238POPC   C4B 7786  20.747  31.305   7.620
  239POPC   NC3 7787   4.415  36.599   9.555
  239POPC   PO4 7788   4.443  35.914   9.617
  239POPC   GL1 7789   4.487  36.122   9.239
  239POPC   GL2 7790   4.181  36.308   9.173
  239POPC   C1A 7791   4.466  36.092   8.799
  239POPC   D2A 7792   4.241  36.227   8.452
  239POPC   C3A 7793   4.365  35.967   8.117
  239POPC   C4A 7794   4.402  36.086   7.707
  239POPC   C1B 7795   3.936  36.492   8.824
  239POPC   C2B 7796   3.950  36.673   8.421
  239POPC   C3B 7797   4.136  36.538   8.035
  239POPC   C4B 7798   3.994  36.458   7.642
  240POPC   NC3 7799  13.886  26.264   9.528
  240POPC   PO4 7800  13.385  25.954   9.402
  240POPC   GL1 7801  13.711  25.995   9.122
  240POPC   GL2 7802  13.931  25.737   8.997
  240POPC   C1A 7803  13.784  26.203   8.782
  240POPC   D2A 7804  13.590  26.191   8.401
  240POPC   C3A 7805  13.913  26.123   8.137
  240POPC   C4A 7806  13.991  25.872   7.822
  240POPC   C1B 7807  13.635  25.722   8.655
  240POPC   C2B 7808  13.576  25.702   8.211
  240POPC   C3B 7809  13.582  25.558   7.806
  240POPC   C4B 7810  13.631  25.748   7.438
  241POPC   NC3 7811   0.729   6.953   9.154
  241POPC   PO4 7812   0.378   6.493   9.487
  241POPC   GL1 7813   0.254   6.357   9.088
  241POPC   GL2 7814   0.314   6.674   8.964
  241POPC   C1A 7815   0.462   6.270   8.682
  241POPC   D2A 7816   0.613   6.327   8.259
  241POPC   C3A 7817   0.348   6.366   7.880
  241POPC   C4A 7818   0.390   6.333   7.427
  241POPC   C1B 7819   0.434   6.772   8.531
  241POPC   C2B 7820   0.483   6.823   8.086
  241POPC   C3B 7821   0.369   7.134   7.741
  241POPC   C4B 7822   0.478   7.190   7.280
  242POPC   NC3 7823  36.127  36.489   9.434
  242POPC   PO4 7824  36.380  37.152   9.461
  242POPC   GL1 7825  36.240  37.205   9.039
  242POPC   GL2 7826  36.103  36.847   8.986
  242POPC   C1A 7827  36.284  37.183   8.597
  242POPC   D2A 7828  36.067  36.837   8.423
  242POPC   C3A 7829  35.982  36.896   8.021
  242POPC   C4A 7830  36.082  37.139   7.668
  242POPC   C1B 7831  36.065  36.433   8.754
  242POPC   C2B 7832  36.170  36.318   8.317
  242POPC   C3B 7833  36.164  36.442   7.893
  242POPC   C4B 7834  36.438  36.774   7.739
  243POPC   NC3 7835   3.991  42.126   9.571
  243POPC   PO4 7836   3.573  42.608   9.762
  243POPC   GL1 7837   3.625  42.428   9.322
  243POPC   GL2 7838   3.562  42.045   9.276
  243POPC   C1A 7839   3.493  42.440   8.874
  243POPC   D2A 7840   3.629  42.597   8.452
  243POPC   C3A 7841   3.734  42.350   8.121
  243POPC   C4A 7842   3.569  42.320   7.723
  243POPC   C1B 7843   3.681  41.928   8.853
  243POPC   C2B 7844   3.488  42.056   8.489
  243POPC   C3B 7845   3.363  41.973   8.093
  243POPC   C4B 7846   3.734  41.874   7.908
  244POPC   NC3 7847  44.876   6.534   9.466
  244POPC   PO4 7848  44.548   7.018   9.299
  244POPC   GL1 7849  44.794   6.703   8.998
  244POPC   GL2 7850  44.751   6.345   9.006
  244POPC   C1A 7851  44.974   6.557   8.585
  244POPC   D2A 7852   0.007   6.862   8.228
  244POPC   C3A 7853  44.818   6.833   7.805
  244POPC   C4A 7854  44.376   6.691   7.688
  244POPC   C1B 7855  44.475   6.485   8.654
  244POPC   C2B 7856  44.565   6.594   8.226
  244POPC   C3B 7857  44.704   6.351   7.887
  244POPC   C4B 7858  44.893   6.387   7.512
  245POPC   NC3 7859  40.144  36.372   9.316
  245POPC   PO4 7860  39.940  35.758   9.319
  245POPC   GL1 7861  39.777  36.088   9.007
  245POPC   GL2 7862  39.985  36.393   8.843
  245POPC   C1A 7863  39.649  36.132   8.562
  245POPC   D2A 7864  40.002  36.151   8.290
  245POPC   C3A 7865  39.969  35.999   7.877
  245POPC   C4A 7866  40.058  36.342   7.640
  245POPC   C1B 7867  40.227  36.010   8.748
  245POPC   C2B 7868  40.442  35.929   8.400
  245POPC   C3B 7869  40.441  36.132   8.007
  245POPC   C4B 7870  40.469  35.938   7.641
  246POPC   NC3 7871  17.267   6.327   9.419
  246POPC   PO4 7872  17.558   5.684   9.477
  246POPC   GL1 7873  17.508   5.968   9.136
  246POPC   GL2 7874  17.749   6.183   9.286
  246POPC   C1A 7875  17.381   6.142   8.724
  246POPC   D2A 7876  17.338   6.240   8.255
  246POPC   C3A 7877  17.338   5.867   7.993
  246POPC   C4A 7878  17.351   5.477   7.811
  246POPC   C1B 7879  17.886   6.185   8.859
  246POPC   C2B 7880  17.800   6.383   8.483
  246POPC   C3B 7881  17.832   6.393   8.037
  246POPC   C4B 7882  17.750   6.055   7.777
  247POPC   NC3 7883  22.586   4.884   9.476
  247POPC   PO4 7884  23.261   5.042   9.469
  247POPC   GL1 7885  23.124   5.179   9.062
  247POPC   GL2 7886  22.796   5.270   9.126
  247POPC   C1A 7887  23.038   5.363   8.661
  247POPC   D2A 7888  23.193   5.486   8.283
  247POPC   C3A 7889  23.029   5.224   8.019
  247POPC   C4A 7890  22.736   5.363   7.726
  247POPC   C1B 7891  22.719   4.952   8.790
  247POPC   C2B 7892  22.772   4.801   8.354
  247POPC   C3B 7893  22.609   4.922   7.941
  247POPC   C4B 7894  22.470   4.993   7.479
  248POPC   NC3 7895  25.261  28.027   9.437
  248POPC   PO4 7896  24.990  27.406   9.512
  248POPC   GL1 7897  25.197  27.558   9.159
  248POPC   GL2 7898  25.165  27.203   9.080
  248POPC   C1A 7899  25.507  27.500   8.839
  248POPC   D2A 7900  25.628  27.492   8.421
  248POPC   C3A 7901  25.474  27.782   8.176
  248POPC   C4A 7902  25.317  27.623   7.801
  248POPC   C1B 7903  25.024  27.357   8.677
  248POPC   C2B 7904  25.045  27.488   8.237
  248POPC   C3B 7905  24.832  27.667   7.850
  248POPC   C4B 7906  24.991  27.612   7.409
  249POPC   NC3 7907  19.349  24.560   9.502
  249POPC   PO4 7908  19.919  24.217   9.562
  249POPC   GL1 7909  19.756  24.441   9.186
  249POPC   GL2 7910  20.000  24.191   9.056
  249POPC   C1A 7911  19.624  24.565   8.754
  249POPC   D2A 7912  19.954  24.751   8.506
  249POPC   C3A 7913  19.919  24.797   8.061
  249POPC   C4A 7914  19.561  24.612   7.907
  249POPC   C1B 7915  19.989  24.229   8.624
  249POPC   C2B 7916  19.864  24.318   8.205
  249POPC   C3B 7917  19.949  24.305   7.765
  249POPC   C4B 7918  19.974  24.237   7.320
  250POPC   NC3 7919  30.993  39.797   9.397
  250POPC   PO4 7920  30.617  40.342   9.556
  250POPC   GL1 7921  30.685  40.146   9.171
  250POPC   GL2 7922  30.728  40.460   9.044
  250POPC   C1A 7923  30.718  40.065   8.690
  250POPC   D2A 7924  30.521  39.804   8.331
  250POPC   C3A 7925  30.654  39.803   7.918
  250POPC   C4A 7926  30.820  40.130   7.624
  250POPC   C1B 7927  30.338  40.361   8.866
  250POPC   C2B 7928  30.281  40.243   8.465
  250POPC   C3B 7929  30.524  40.318   8.125
  250POPC   C4B 7930  30.446  40.444   7.725
  251POPC   NC3 7931   8.325  27.670   9.602
  251POPC   PO4 7932   7.710  27.519   9.690
  251POPC   GL1 7933   7.992  27.502   9.268
  251POPC   GL2 7934   8.048  27.848   9.156
  251POPC   C1A 7935   8.378  27.528   8.950
  251POPC   D2A 7936   8.380  27.691   8.521
  251POPC   C3A 7937   8.469  27.684   8.073
  251POPC   C4A 7938   8.381  27.605   7.602
  251POPC   C1B 7939   7.959  27.961   8.680
  251POPC   C2B 7940   8.049  27.954   8.208
  251POPC   C3B 7941   7.916  27.771   7.796
  251POPC   C4B 7942   7.608  27.794   7.427
  252POPC   NC3 7943  34.809  19.811   9.595
  252POPC   PO4 7944  34.296  19.542   9.200
  252POPC   GL1 7945  34.496  19.898   9.011
  252POPC   GL2 7946  34.824  19.987   9.090
  252POPC   C1A 7947  34.444  19.864   8.589
  252POPC   D2A 7948  34.373  19.500   8.348
  252POPC   C3A 7949  34.684  19.634   8.057
  252POPC   C4A 7950  34.637  19.671   7.626
  252POPC   C1B 7951  35.046  20.098   8.731
  252POPC   C2B 7952  35.172  19.921   8.352
  252POPC   C3B 7953  35.128  20.094   7.985
  252POPC   C4B 7954  34.768  20.108   7.823
  253POPC   NC3 7955  19.859  19.529   9.823
  253POPC   PO4 7956  19.937  20.010   9.329
  253POPC   GL1 7957  19.998  19.912   8.932
  253POPC   GL2 7958  19.658  19.987   8.878
  253POPC   C1A 7959  19.990  19.987   8.488
  253POPC   D2A 7960  19.605  20.117   8.327
  253POPC   C3A 7961  19.635  20.061   7.924
  253POPC   C4A 7962  19.984  19.754   7.842
  253POPC   C1B 7963  19.624  19.638   8.610
  253POPC   C2B 7964  19.598  19.613   8.152
  253POPC   C3B 7965  19.508  19.633   7.685
  253POPC   C4B 7966  19.454  19.535   7.229
  254POPC   NC3 7967  33.327  13.122   9.430
  254POPC   PO4 7968  32.882  12.638   9.358
  254POPC   GL1 7969  33.126  12.827   9.029
  254POPC   GL2 7970  33.483  12.796   8.973
  254POPC   C1A 7971  33.227  13.138   8.700
  254POPC   D2A 7972  33.417  13.165   8.292
  254POPC   C3A 7973  33.232  12.821   8.059
  254POPC   C4A 7974  32.926  12.529   7.899
  254POPC   C1B 7975  33.328  12.461   8.705
  254POPC   C2B 7976  33.226  12.311   8.299
  254POPC   C3B 7977  33.420  12.350   7.934
  254POPC   C4B 7978  33.589  12.511   7.596
  255POPC   NC3 7979  43.080  35.100   9.659
  255POPC   PO4 7980  43.106  34.381   9.580
  255POPC   GL1 7981  43.071  34.603   9.178
  255POPC   GL2 7982  43.211  34.284   9.049
  255POPC   C1A 7983  43.165  34.711   8.762
  255POPC   D2A 7984  43.267  34.800   8.351
  255POPC   C3A 7985  43.007  34.624   8.023
  255POPC   C4A 7986  43.192  34.594   7.611
  255POPC   C1B 7987  42.815  34.341   8.827
  255POPC   C2B 7988  42.673  34.418   8.431
  255POPC   C3B 7989  42.636  34.164   8.078
  255POPC   C4B 7990  42.809  34.284   7.690
  256POPC   NC3 7991  33.851  14.622   9.771
  256POPC   PO4 7992  33.680  15.227   9.467
  256POPC   GL1 7993  33.732  15.301   9.109
  256POPC   GL2 7994  34.015  15.250   9.027
  256POPC   C1A 7995  33.548  15.148   8.771
  256POPC   D2A 7996  33.411  15.335   8.408
  256POPC   C3A 7997  33.604  15.146   8.057
  256POPC   C4A 7998  33.684  14.888   7.712
  256POPC   C1B 7999  34.021  14.996   8.650
  256POPC   C2B 8000  34.081  15.034   8.201
  256POPC   C3B 8001  34.154  14.774   7.850
  256POPC   C4B 8002  34.071  14.718   7.394
  257POPC   NC3 8003   6.118  44.033   9.568
  257POPC   PO4 8004   5.634  43.571   9.445
  257POPC   GL1 8005   5.616  43.868   9.129
  257POPC   GL2 8006   5.938  43.955   9.084
  257POPC   C1A 8007   5.640  43.803   8.708
  257POPC   D2A 8008   5.739  44.009   8.341
  257POPC   C3A 8009   5.749  43.785   7.980
  257POPC   C4A 8010   5.523  43.811   7.576
  257POPC   C1B 8011   6.175  43.792   8.725
  257POPC   C2B 8012   6.378  43.875   8.337
  257POPC   C3B 8013   6.209  44.065   7.968
  257POPC   C4B 8014   6.041  43.917   7.579
  258POPC   NC3 8015  17.762  42.100   9.523
  258POPC   PO4 8016  17.344  42.629   9.482
  258POPC   GL1 8017  17.526  42.380   9.169
  258POPC   GL2 8018  17.240  42.166   9.226
  258POPC   C1A 8019  17.697  42.458   8.752
  258POPC   D2A 8020  17.587  42.755   8.410
  258POPC   C3A 8021  17.666  42.569   8.005
  258POPC   C4A 8022  17.451  42.569   7.614
  258POPC   C1B 8023  17.228  42.239   8.777
  258POPC   C2B 8024  17.422  42.247   8.352
  258POPC   C3B 8025  17.238  42.204   7.933
  258POPC   C4B 8026  17.178  42.166   7.457
  259POPC   NC3 8027   3.244  39.939   9.440
  259POPC   PO4 8028   2.623  40.120   9.484
  259POPC   GL1 8029   2.783  39.979   9.130
  259POPC   GL2 8030   2.717  39.648   9.037
  259POPC   C1A 8031   2.655  40.105   8.730
  259POPC   D2A 8032   2.696  40.030   8.315
  259POPC   C3A 8033   2.517  40.239   7.995
  259POPC   C4A 8034   2.524  40.012   7.630
  259POPC   C1B 8035   2.993  39.675   8.697
  259POPC   C2B 8036   2.984  39.587   8.259
  259POPC   C3B 8037   2.947  39.858   7.893
  259POPC   C4B 8038   2.937  39.768   7.450
  260POPC   NC3 8039   7.620  11.437   9.426
  260POPC   PO4 8040   7.127  10.975   9.600
  260POPC   GL1 8041   7.169  11.192   9.211
  260POPC   GL2 8042   7.163  11.547   9.181
  260POPC   C1A 8043   7.429  11.230   8.833
  260POPC   D2A 8044   7.355  11.198   8.418
  260POPC   C3A 8045   7.474  10.912   8.098
  260POPC   C4A 8046   7.558  11.054   7.675
  260POPC   C1B 8047   7.224  11.684   8.751
  260POPC   C2B 8048   7.468  11.711   8.363
  260POPC   C3B 8049   7.426  11.496   7.968
  260POPC   C4B 8050   7.506  11.527   7.516
  261POPC   NC3 8051   8.537   8.016   9.422
  261POPC   PO4 8052   9.215   8.370   9.525
  261POPC   GL1 8053   9.006   8.134   9.235
  261POPC   GL2 8054   8.778   8.378   9.138
  261POPC   C1A 8055   8.927   8.033   8.795
  261POPC   D2A 8056   9.131   8.248   8.447
  261POPC   C3A 8057   9.058   8.118   8.020
  261POPC   C4A 8058   9.336   8.193   7.680
  261POPC   C1B 8059   8.637   8.469   8.752
  261POPC   C2B 8060   8.522   8.392   8.343
  261POPC   C3B 8061   8.619   8.352   7.927
  261POPC   C4B 8062   8.759   8.125   7.569
  262POPC   NC3 8063  30.172  44.786   9.464
  262POPC   PO4 8064  29.682  44.241   9.441
  262POPC   GL1 8065  29.655  44.471   9.065
  262POPC   GL2 8066  29.990  44.564   9.011
  262POPC   C1A 8067  29.421  44.604   8.695
  262POPC   D2A 8068  29.485  44.848   8.340
  262POPC   C3A 8069  29.800  44.670   8.095
  262POPC   C4A 8070  29.732  44.569   7.656
  262POPC   C1B 8071  30.315  44.300   8.765
  262POPC   C2B 8072  30.532  44.298   8.384
  262POPC   C3B 8073  30.484  44.310   7.962
  262POPC   C4B 8074  30.226  44.625   7.796
  263POPC   NC3 8075   5.788  11.592   9.304
  263POPC   PO4 8076   5.938  12.205   9.625
  263POPC   GL1 8077   6.094  12.014   9.218
  263POPC   GL2 8078   6.068  12.287   8.972
  263POPC   C1A 8079   6.245  11.871   8.789
  263POPC   D2A 8080   6.276  12.142   8.435
  263POPC   C3A 8081   5.923  12.160   8.132
  263POPC   C4A 8082   6.027  12.135   7.705
  263POPC   C1B 8083   5.800  12.123   8.632
  263POPC   C2B 8084   5.480  11.816   8.501
  263POPC   C3B 8085   5.522  11.757   8.099
  263POPC   C4B 8086   5.435  12.055   7.748
  264POPC   NC3 8087  17.829  13.115   9.429
  264POPC   PO4 8088  17.245  12.821   9.608
  264POPC   GL1 8089  17.366  12.904   9.130
  264POPC   GL2 8090  17.673  13.033   8.968
  264POPC   C1A 8091  17.296  13.079   8.655
  264POPC   D2A 8092  17.173  13.253   8.270
  264POPC   C3A 8093  17.306  13.052   7.922
  264POPC   C4A 8094  17.326  12.630   7.796
  264POPC   C1B 8095  17.954  12.996   8.627
  264POPC   C2B 8096  18.001  12.802   8.233
  264POPC   C3B 8097  17.802  12.874   7.855
  264POPC   C4B 8098  17.682  13.276   7.696
  265POPC   NC3 8099  21.981   9.527   9.411
  265POPC   PO4 8100  22.190   8.884   9.567
  265POPC   GL1 8101  22.355   8.891   9.143
  265POPC   GL2 8102  22.399   9.253   9.177
  265POPC   C1A 8103  22.368   8.864   8.686
  265POPC   D2A 8104  22.481   8.989   8.270
  265POPC   C3A 8105  22.134   8.890   7.963
  265POPC   C4A 8106  22.175   8.673   7.563
  265POPC   C1B 8107  22.080   9.251   8.833
  265POPC   C2B 8108  22.029   9.212   8.389
  265POPC   C3B 8109  21.999   9.387   7.956
  265POPC   C4B 8110  21.676   9.433   7.648
  266POPC   NC3 8111  43.036  13.145   9.814
  266POPC   PO4 8112  42.908  13.791   9.619
  266POPC   GL1 8113  43.089  13.846   9.191
  266POPC   GL2 8114  43.407  14.049   9.117
  266POPC   C1A 8115  42.968  13.665   8.785
  266POPC   D2A 8116  42.947  13.757   8.349
  266POPC   C3A 8117  42.879  13.478   8.025
  266POPC   C4A 8118  42.790  13.590   7.616
  266POPC   C1B 8119  43.250  14.076   8.663
  266POPC   C2B 8120  43.427  13.904   8.253
  266POPC   C3B 8121  43.379  13.627   7.894
  266POPC   C4B 8122  43.193  13.279   7.639
  267POPC   NC3 8123  39.379  36.739   9.506
  267POPC   PO4 8124  38.940  37.258   9.371
  267POPC   GL1 8125  39.336  37.158   9.178
  267POPC   GL2 8126  39.216  36.847   9.029
  267POPC   C1A 8127  39.497  37.215   8.765
  267POPC   D2A 8128  39.449  36.958   8.396
  267POPC   C3A 8129  39.372  36.885   7.958
  267POPC   C4A 8130  39.055  37.131   7.774
  267POPC   C1B 8131  39.570  36.675   8.805
  267POPC   C2B 8132  39.789  36.597   8.404
  267POPC   C3B 8133  39.693  36.446   8.010
  267POPC   C4B 8134  39.589  36.552   7.599
  268POPC   NC3 8135  14.543  26.451   9.536
  268POPC   PO4 8136  14.158  25.887   9.522
  268POPC   GL1 8137  14.215  26.147   9.155
  268POPC   GL2 8138  14.553  26.209   9.081
  268POPC   C1A 8139  14.257  26.019   8.714
  268POPC   D2A 8140  14.566  25.970   8.429
  268POPC   C3A 8141  14.431  26.065   8.032
  268POPC   C4A 8142  14.494  25.973   7.598
  268POPC   C1B 8143  14.685  26.426   8.673
  268POPC   C2B 8144  14.733  26.548   8.232
  268POPC   C3B 8145  14.741  26.403   7.808
  268POPC   C4B 8146  14.802  26.353   7.381
  269POPC   NC3 8147  32.085  33.156   9.545
  269POPC   PO4 8148  32.119  33.823   9.620
  269POPC   GL1 8149  32.187  33.953   9.222
  269POPC   GL2 8150  32.046  33.662   9.121
  269POPC   C1A 8151  32.392  33.820   8.802
  269POPC   D2A 8152  32.544  33.510   8.485
  269POPC   C3A 8153  32.495  33.624   8.046
  269POPC   C4A 8154  32.335  33.454   7.675
  269POPC   C1B 8155  31.937  34.072   8.815
  269POPC   C2B 8156  32.181  34.278   8.486
  269POPC   C3B 8157  32.271  34.109   8.083
  269POPC   C4B 8158  32.222  33.940   7.657
  270POPC   NC3 8159   2.931  12.408   9.422
  270POPC   PO4 8160   2.595  11.747   9.378
  270POPC   GL1 8161   2.914  11.951   9.147
  270POPC   GL2 8162   3.030  12.266   8.969
  270POPC   C1A 8163   2.959  11.840   8.743
  270POPC   D2A 8164   2.670  11.869   8.382
  270POPC   C3A 8165   2.774  12.171   8.056
  270POPC   C4A 8166   2.985  12.106   7.662
  270POPC   C1B 8167   2.868  12.317   8.564
  270POPC   C2B 8168   2.639  12.607   8.337
  270POPC   C3B 8169   2.401  12.618   7.973
  270POPC   C4B 8170   2.579  12.543   7.605
  271POPC   NC3 8171   3.867   2.041   9.514
  271POPC   PO4 8172   3.573   1.458   9.553
  271POPC   GL1 8173   3.428   1.709   9.178
  271POPC   GL2 8174   3.753   1.747   9.090
  271POPC   C1A 8175   3.272   1.954   8.796
  271POPC   D2A 8176   3.420   2.136   8.395
  271POPC   C3A 8177   3.223   2.236   8.060
  271POPC   C4A 8178   3.126   2.162   7.654
  271POPC   C1B 8179   3.783   1.920   8.671
  271POPC   C2B 8180   3.678   1.724   8.247
  271POPC   C3B 8181   3.534   1.835   7.798
  271POPC   C4B 8182   3.656   1.746   7.351
  272POPC   NC3 8183   6.951  40.554   9.521
  272POPC   PO4 8184   7.401  41.015   9.656
  272POPC   GL1 8185   7.297  40.893   9.181
  272POPC   GL2 8186   7.207  40.561   9.098
  272POPC   C1A 8187   7.427  40.726   8.697
  272POPC   D2A 8188   7.671  40.424   8.425
  272POPC   C3A 8189   7.561  40.478   8.012
  272POPC   C4A 8190   7.239  40.779   7.916
  272POPC   C1B 8191   6.966  40.442   8.729
  272POPC   C2B 8192   7.077  40.431   8.300
  272POPC   C3B 8193   6.794  40.467   7.954
  272POPC   C4B 8194   6.900  40.625   7.572
  273POPC   NC3 8195   4.987   6.114   9.611
  273POPC   PO4 8196   5.112   5.463   9.426
  273POPC   GL1 8197   5.191   5.845   9.193
  273POPC   GL2 8198   5.514   5.990   9.199
  273POPC   C1A 8199   5.023   5.903   8.788
  273POPC   D2A 8200   4.738   5.729   8.469
  273POPC   C3A 8201   4.824   5.939   8.074
  273POPC   C4A 8202   4.900   6.330   7.840
  273POPC   C1B 8203   5.512   6.039   8.778
  273POPC   C2B 8204   5.355   5.866   8.387
  273POPC   C3B 8205   5.337   5.993   7.963
  273POPC   C4B 8206   5.554   6.047   7.596
  274POPC   NC3 8207  14.695  12.657   9.368
  274POPC   PO4 8208  15.336  12.742   9.519
  274POPC   GL1 8209  15.383  12.660   9.073
  274POPC   GL2 8210  15.068  12.584   9.033
  274POPC   C1A 8211  15.490  12.562   8.615
  274POPC   D2A 8212  15.467  12.539   8.136
  274POPC   C3A 8213  15.248  12.818   7.864
  274POPC   C4A 8214  15.142  12.901   7.455
  274POPC   C1B 8215  14.811  12.732   8.679
  274POPC   C2B 8216  14.917  12.810   8.259
  274POPC   C3B 8217  14.726  12.809   7.863
  274POPC   C4B 8218  14.847  12.507   7.552
  275POPC   NC3 8219  34.901  28.218   9.461
  275POPC   PO4 8220  34.338  28.399   9.674
  275POPC   GL1 8221  34.353  28.373   9.179
  275POPC   GL2 8222  34.596  28.615   9.073
  275POPC   C1A 8223  34.567  28.255   8.737
  275POPC   D2A 8224  34.797  28.128   8.365
  275POPC   C3A 8225  34.519  28.049   8.038
  275POPC   C4A 8226  34.540  28.169   7.617
  275POPC   C1B 8227  34.310  28.726   8.759
  275POPC   C2B 8228  34.496  28.735   8.367
  275POPC   C3B 8229  34.550  28.552   7.978
  275POPC   C4B 8230  34.212  28.533   7.698
  276POPC   NC3 8231  44.182  44.032   9.752
  276POPC   PO4 8232  44.703  44.072   9.317
  276POPC   GL1 8233  44.623  43.884   8.989
  276POPC   GL2 8234  44.941  43.697   9.026
  276POPC   C1A 8235  44.672  43.865   8.595
  276POPC   D2A 8236  44.969  43.671   8.419
  276POPC   C3A 8237  44.737  43.654   8.061
  276POPC   C4A 8238  44.619  43.750   7.671
  276POPC   C1B 8239   0.102  44.073   8.797
  276POPC   C2B 8240  44.976  44.260   8.422
  276POPC   C3B 8241   0.067  44.026   8.061
  276POPC   C4B 8242   0.148  44.125   7.664
  277POPC   NC3 8243   5.376  17.797   9.431
  277POPC   PO4 8244   5.007  17.169   9.518
  277POPC   GL1 8245   4.981  17.337   9.133
  277POPC   GL2 8246   5.337  17.370   9.073
  277POPC   C1A 8247   4.999  17.118   8.734
  277POPC   D2A 8248   5.321  17.228   8.420
  277POPC   C3A 8249   5.090  17.327   8.029
  277POPC   C4A 8250   4.833  17.028   7.794
  277POPC   C1B 8251   5.124  17.609   8.720
  277POPC   C2B 8252   5.326  17.857   8.402
  277POPC   C3B 8253   5.508  17.867   8.008
  277POPC   C4B 8254   5.116  17.789   7.778
  278POPC   NC3 8255  19.046  17.107   9.422
  278POPC   PO4 8256  19.404  16.506   9.425
  278POPC   GL1 8257  19.132  16.614   9.083
  278POPC   GL2 8258  19.205  16.940   8.958
  278POPC   C1A 8259  18.913  16.391   8.754
  278POPC   D2A 8260  18.761  16.331   8.334
  278POPC   C3A 8261  19.026  16.529   8.029
  278POPC   C4A 8262  19.045  16.848   7.739
  278POPC   C1B 8263  18.763  16.892   8.816
  278POPC   C2B 8264  18.783  16.826   8.418
  278POPC   C3B 8265  18.830  17.109   8.104
  278POPC   C4B 8266  18.556  17.075   7.745
  279POPC   NC3 8267  35.599  38.317   9.491
  279POPC   PO4 8268  34.920  38.223   9.435
  279POPC   GL1 8269  35.135  38.363   9.100
  279POPC   GL2 8270  35.311  38.670   9.228
  279POPC   C1A 8271  35.207  38.217   8.659
  279POPC   D2A 8272  35.036  38.260   8.233
  279POPC   C3A 8273  35.304  38.425   7.908
  279POPC   C4A 8274  35.735  38.437   7.774
  279POPC   C1B 8275  35.307  38.726   8.786
  279POPC   C2B 8276  35.501  38.582   8.398
  279POPC   C3B 8277  35.627  38.826   8.059
  279POPC   C4B 8278  35.424  38.853   7.642
  280POPC   NC3 8279  15.561   7.151   9.453
  280POPC   PO4 8280  14.958   7.476   9.432
  280POPC   GL1 8281  15.161   7.321   9.098
  280POPC   GL2 8282  15.481   7.466   9.062
  280POPC   C1A 8283  15.112   7.408   8.676
  280POPC   D2A 8284  14.883   7.504   8.344
  280POPC   C3A 8285  15.059   7.395   7.963
  280POPC   C4A 8286  14.783   7.687   7.799
  280POPC   C1B 8287  15.560   7.622   8.686
  280POPC   C2B 8288  15.472   7.415   8.270
  280POPC   C3B 8289  15.541   7.447   7.798
  280POPC   C4B 8290  15.624   7.558   7.338
  281POPC   NC3 8291  31.456  30.185   9.444
  281POPC   PO4 8292  31.484  29.561   9.523
  281POPC   GL1 8293  31.309  29.679   9.110
  281POPC   GL2 8294  31.178  30.022   9.070
  281POPC   C1A 8295  31.395  29.797   8.670
  281POPC   D2A 8296  31.711  29.731   8.353
  281POPC   C3A 8297  31.652  29.949   8.003
  281POPC   C4A 8298  31.364  29.793   7.755
  281POPC   C1B 8299  31.376  30.292   8.794
  281POPC   C2B 8300  31.374  30.244   8.387
  281POPC   C3B 8301  31.147  29.984   8.162
  281POPC   C4B 8302  31.261  30.283   7.834
  282POPC   NC3 8303  20.852   6.222   9.449
  282POPC   PO4 8304  20.717   6.936   9.459
  282POPC   GL1 8305  20.576   6.882   9.061
  282POPC   GL2 8306  20.691   6.563   9.094
  282POPC   C1A 8307  20.532   6.682   8.631
  282POPC   D2A 8308  20.678   6.408   8.301
  282POPC   C3A 8309  20.677   6.552   7.870
  282POPC   C4A 8310  20.485   6.828   7.540
  282POPC   C1B 8311  20.994   6.836   8.813
  282POPC   C2B 8312  20.916   6.952   8.394
  282POPC   C3B 8313  21.097   6.833   8.015
  282POPC   C4B 8314  20.982   6.899   7.608
  283POPC   NC3 8315  34.775  24.802   9.656
  283POPC   PO4 8316  34.435  25.388   9.600
  283POPC   GL1 8317  34.467  25.262   9.147
  283POPC   GL2 8318  34.487  24.888   9.159
  283POPC   C1A 8319  34.646  25.409   8.722
  283POPC   D2A 8320  34.727  25.550   8.279
  283POPC   C3A 8321  34.545  25.324   7.945
  283POPC   C4A 8322  34.480  25.351   7.470
  283POPC   C1B 8323  34.686  24.904   8.750
  283POPC   C2B 8324  34.868  25.054   8.381
  283POPC   C3B 8325  34.909  24.981   7.954
  283POPC   C4B 8326  34.615  24.897   7.661
  284POPC   NC3 8327  28.117   0.286   9.503
  284POPC   PO4 8328  28.704   0.617   9.724
  284POPC   GL1 8329  28.522   0.476   9.289
  284POPC   GL2 8330  28.305   0.707   9.142
  284POPC   C1A 8331  28.307   0.297   8.839
  284POPC   D2A 8332  28.155   0.321   8.373
  284POPC   C3A 8333  28.471   0.307   8.031
  284POPC   C4A 8334  28.610   0.620   7.736
  284POPC   C1B 8335  27.996   0.734   8.802
  284POPC   C2B 8336  27.733   0.857   8.476
  284POPC   C3B 8337  27.873   0.767   8.063
  284POPC   C4B 8338  28.084   0.523   7.801
  285POPC   NC3 8339  31.059  31.238   9.537
  285POPC   PO4 8340  31.796  31.222   9.455
  285POPC   GL1 8341  31.661  31.441   9.092
  285POPC   GL2 8342  31.339  31.538   9.159
  285POPC   C1A 8343  31.634  31.583   8.667
  285POPC   D2A 8344  31.746  31.535   8.226
  285POPC   C3A 8345  31.727  31.576   7.811
  285POPC   C4A 8346  31.591  31.285   7.547
  285POPC   C1B 8347  31.114  31.599   8.756
  285POPC   C2B 8348  31.239  31.645   8.338
  285POPC   C3B 8349  31.248  31.421   7.970
  285POPC   C4B 8350  31.228  31.629   7.605
  286POPC   NC3 8351   9.995   5.593   9.549
  286POPC   PO4 8352  10.036   4.930   9.527
  286POPC   GL1 8353   9.702   4.999   9.202
  286POPC   GL2 8354   9.627   5.352   9.253
  286POPC   C1A 8355   9.583   4.847   8.768
  286POPC   D2A 8356   9.587   5.030   8.361
  286POPC   C3A 8357   9.440   4.860   7.987
  286POPC   C4A 8358   9.757   4.945   7.665
  286POPC   C1B 8359   9.816   5.423   8.837
  286POPC   C2B 8360  10.007   5.287   8.444
  286POPC   C3B 8361   9.800   5.366   8.021
  286POPC   C4B 8362   9.931   5.408   7.566
  287POPC   NC3 8363  35.595  43.426   9.459
  287POPC   PO4 8364  35.057  42.965   9.464
  287POPC   GL1 8365  35.341  43.097   9.187
  287POPC   GL2 8366  35.565  42.829   9.186
  287POPC   C1A 8367  35.343  43.324   8.808
  287POPC   D2A 8368  35.151  43.119   8.413
  287POPC   C3A 8369  35.342  43.255   8.026
  287POPC   C4A 8370  35.209  43.058   7.652
  287POPC   C1B 8371  35.373  42.823   8.763
  287POPC   C2B 8372  35.545  42.791   8.325
  287POPC   C3B 8373  35.604  42.834   7.864
  287POPC   C4B 8374  35.629  42.914   7.382
  288POPC   NC3 8375  18.889  19.604   9.454
  288POPC   PO4 8376  19.539  19.361   9.523
  288POPC   GL1 8377  19.407  19.558   9.117
  288POPC   GL2 8378  19.233  19.863   9.138
  288POPC   C1A 8379  19.153  19.503   8.741
  288POPC   D2A 8380  19.169  19.785   8.376
  288POPC   C3A 8381  19.044  19.656   7.971
  288POPC   C4A 8382  19.044  19.434   7.561
  288POPC   C1B 8383  18.957  20.004   8.797
  288POPC   C2B 8384  18.902  20.230   8.385
  288POPC   C3B 8385  18.933  20.189   7.928
  288POPC   C4B 8386  18.675  20.242   7.527
  289POPC   NC3 8387  41.844  15.621   9.882
  289POPC   PO4 8388  41.654  15.060   9.494
  289POPC   GL1 8389  41.675  15.183   9.074
  289POPC   GL2 8390  41.335  15.050   9.014
  289POPC   C1A 8391  41.665  15.077   8.625
  289POPC   D2A 8392  41.896  15.245   8.321
  289POPC   C3A 8393  41.730  15.481   8.005
  289POPC   C4A 8394  41.812  15.161   7.727
  289POPC   C1B 8395  41.168  15.125   8.585
  289POPC   C2B 8396  41.363  15.155   8.166
  289POPC   C3B 8397  41.308  15.319   7.744
  289POPC   C4B 8398  41.319  15.698   7.465
  290POPC   NC3 8399   1.674  39.588   9.620
  290POPC   PO4 8400   2.198  39.216   9.519
  290POPC   GL1 8401   1.990  39.215   9.141
  290POPC   GL2 8402   1.766  39.501   9.118
  290POPC   C1A 8403   2.033  38.960   8.778
  290POPC   D2A 8404   2.131  39.162   8.396
  290POPC   C3A 8405   1.985  38.983   8.001
  290POPC   C4A 8406   2.077  39.204   7.626
  290POPC   C1B 8407   1.636  39.292   8.751
  290POPC   C2B 8408   1.633  39.001   8.452
  290POPC   C3B 8409   1.493  39.092   8.103
  290POPC   C4B 8410   1.559  39.192   7.697
  291POPC   NC3 8411  32.535  16.390   9.361
  291POPC   PO4 8412  32.258  17.030   9.628
  291POPC   GL1 8413  32.196  16.765   9.261
  291POPC   GL2 8414  32.453  16.714   9.000
  291POPC   C1A 8415  32.003  16.883   8.876
  291POPC   D2A 8416  31.946  17.085   8.489
  291POPC   C3A 8417  32.047  16.900   8.093
  291POPC   C4A 8418  31.866  16.939   7.679
  291POPC   C1B 8419  32.337  16.399   8.703
  291POPC   C2B 8420  32.372  16.477   8.273
  291POPC   C3B 8421  32.351  16.244   7.925
  291POPC   C4B 8422  32.224  16.577   7.702
  292POPC   NC3 8423   0.814  16.174   9.526
  292POPC   PO4 8424   1.470  15.913   9.428
  292POPC   GL1 8425   1.241  15.860   9.077
  292POPC   GL2 8426   0.920  15.757   9.161
  292POPC   C1A 8427   1.353  15.752   8.652
  292POPC   D2A 8428   1.361  15.617   8.237
  292POPC   C3A 8429   1.270  15.951   7.921
  292POPC   C4A 8430   1.442  16.338   7.770
  292POPC   C1B 8431   0.858  15.941   8.741
  292POPC   C2B 8432   0.930  15.970   8.319
  292POPC   C3B 8433   0.752  16.049   7.927
  292POPC   C4B 8434   0.841  16.066   7.493
  293POPC   NC3 8435  13.346  30.287   9.237
  293POPC   PO4 8436  13.068  29.770   9.591
  293POPC   GL1 8437  12.930  29.872   9.136
  293POPC   GL2 8438  12.873  30.247   9.046
  293POPC   C1A 8439  12.658  29.905   8.750
  293POPC   D2A 8440  12.498  30.090   8.372
  293POPC   C3A 8441  12.592  29.828   8.044
  293POPC   C4A 8442  12.990  29.680   7.902
  293POPC   C1B 8443  13.105  30.138   8.664
  293POPC   C2B 8444  13.083  30.050   8.252
  293POPC   C3B 8445  12.931  30.192   7.879
  293POPC   C4B 8446  12.495  30.316   7.797
  294POPC   NC3 8447  38.859   4.087   9.487
  294POPC   PO4 8448  39.149   4.721   9.545
  294POPC   GL1 8449  39.125   4.515   9.147
  294POPC   GL2 8450  39.193   4.189   9.113
  294POPC   C1A 8451  39.064   4.398   8.684
  294POPC   D2A 8452  38.806   4.485   8.310
  294POPC   C3A 8453  39.182   4.521   8.053
  294POPC   C4A 8454  39.342   4.110   7.886
  294POPC   C1B 8455  39.499   4.064   8.807
  294POPC   C2B 8456  39.562   3.976   8.395
  294POPC   C3B 8457  39.802   4.181   8.100
  294POPC   C4B 8458  39.832   3.995   7.711
  295POPC   NC3 8459  10.990  21.929   9.520
  295POPC   PO4 8460  11.070  22.628   9.488
  295POPC   GL1 8461  11.277  22.394   9.128
  295POPC   GL2 8462  11.280  22.017   9.118
  295POPC   C1A 8463  11.287  22.255   8.683
  295POPC   D2A 8464  11.150  22.130   8.313
  295POPC   C3A 8465  11.464  22.245   8.036
  295POPC   C4A 8466  11.360  22.354   7.642
  295POPC   C1B 8467  11.447  21.766   8.764
  295POPC   C2B 8468  11.521  21.751   8.342
  295POPC   C3B 8469  11.702  21.807   7.982
  295POPC   C4B 8470  11.620  21.898   7.576
  296POPC   NC3 8471  31.967  31.653   9.442
  296POPC   PO4 8472  32.591  31.892   9.475
  296POPC   GL1 8473  32.414  31.622   9.166
  296POPC   GL2 8474  32.416  31.272   9.180
  296POPC   C1A 8475  32.186  31.547   8.793
  296POPC   D2A 8476  32.133  31.780   8.435
  296POPC   C3A 8477  32.230  31.587   8.051
  296POPC   C4A 8478  32.351  31.481   7.655
  296POPC   C1B 8479  32.397  31.060   8.750
  296POPC   C2B 8480  32.442  31.183   8.314
  296POPC   C3B 8481  32.529  31.050   7.888
  296POPC   C4B 8482  32.750  31.193   7.525
  297POPC   NC3 8483   1.559  40.567   9.452
  297POPC   PO4 8484   2.325  40.716   9.412
  297POPC   GL1 8485   2.120  40.847   9.052
  297POPC   GL2 8486   1.771  40.806   9.061
  297POPC   C1A 8487   2.028  40.686   8.628
  297POPC   D2A 8488   2.110  40.403   8.272
  297POPC   C3A 8489   2.131  40.619   7.878
  297POPC   C4A 8490   1.889  40.993   7.744
  297POPC   C1B 8491   1.556  40.499   8.790
  297POPC   C2B 8492   1.606  40.541   8.347
  297POPC   C3B 8493   1.685  40.355   7.980
  297POPC   C4B 8494   1.739  40.456   7.543
  298POPC   NC3 8495  27.001  16.622   9.451
  298POPC   PO4 8496  26.370  16.748   9.682
  298POPC   GL1 8497  26.551  16.651   9.180
  298POPC   GL2 8498  26.421  16.835   8.904
  298POPC   C1A 8499  26.807  16.513   8.797
  298POPC   D2A 8500  27.009  16.326   8.427
  298POPC   C3A 8501  27.063  16.488   8.014
  298POPC   C4A 8502  26.812  16.624   7.681
  298POPC   C1B 8503  26.449  17.217   8.639
  298POPC   C2B 8504  26.635  17.267   8.246
  298POPC   C3B 8505  26.915  16.997   8.002
  298POPC   C4B 8506  27.122  17.068   7.578
  299POPC   NC3 8507  16.376  15.122   9.444
  299POPC   PO4 8508  16.372  15.771   9.412
  299POPC   GL1 8509  16.642  15.458   9.133
  299POPC   GL2 8510  16.869  15.138   9.185
  299POPC   C1A 8511  16.642  15.179   8.749
  299POPC   D2A 8512  16.874  15.101   8.381
  299POPC   C3A 8513  16.646  15.193   8.009
  299POPC   C4A 8514  16.607  15.479   7.629
  299POPC   C1B 8515  17.105  14.909   8.825
  299POPC   C2B 8516  17.122  14.653   8.398
  299POPC   C3B 8517  16.942  14.753   7.998
  299POPC   C4B 8518  16.980  15.008   7.648
  300POPC   NC3 8519  30.120  26.971   9.310
  300POPC   PO4 8520  30.112  27.627   9.573
  300POPC   GL1 8521  29.962  27.778   9.164
  300POPC   GL2 8522  29.995  27.441   9.041
  300POPC   C1A 8523  29.795  27.871   8.723
  300POPC   D2A 8524  29.845  27.758   8.265
  300POPC   C3A 8525  30.197  27.865   7.983
  300POPC   C4A 8526  30.285  27.732   7.540
  300POPC   C1B 8527  29.781  27.320   8.659
  300POPC   C2B 8528  29.859  27.249   8.240
  300POPC   C3B 8529  29.904  27.410   7.793
  300POPC   C4B 8530  29.732  27.153   7.409
  301POPC   NC3 8531  24.046  35.286   9.435
  301POPC   PO4 8532  23.516  34.933   9.614
  301POPC   GL1 8533  23.496  35.120   9.158
  301POPC   GL2 8534  23.658  35.432   9.152
  301POPC   C1A 8535  23.667  35.131   8.726
  301POPC   D2A 8536  23.896  34.981   8.368
  301POPC   C3A 8537  23.791  35.182   7.995
  301POPC   C4A 8538  24.080  35.486   7.909
  301POPC   C1B 8539  23.594  35.653   8.789
  301POPC   C2B 8540  23.760  35.552   8.389
  301POPC   C3B 8541  23.547  35.618   8.017
  301POPC   C4B 8542  23.759  35.827   7.722
  302POPC   NC3 8543  44.556  12.516   9.395
  302POPC   PO4 8544  44.864  13.004   9.531
  302POPC   GL1 8545  44.707  13.050   9.129
  302POPC   GL2 8546  44.904  12.745   9.063
  302POPC   C1A 8547  44.500  12.861   8.767
  302POPC   D2A 8548  44.561  12.662   8.357
  302POPC   C3A 8549  44.690  12.939   8.038
  302POPC   C4A 8550  44.370  13.024   7.732
  302POPC   C1B 8551   0.003  12.790   8.630
  302POPC   C2B 8552   0.053  12.616   8.214
  302POPC   C3B 8553   0.067  12.689   7.778
  302POPC   C4B 8554  44.818  12.688   7.408
  303POPC   NC3 8555   2.302  13.061   9.522
  303POPC   PO4 8556   2.545  12.522   9.150
  303POPC   GL1 8557   2.181  12.820   9.104
  303POPC   GL2 8558   2.345  13.126   9.004
  303POPC   C1A 8559   1.881  13.007   8.790
  303POPC   D2A 8560   1.880  12.735   8.424
  303POPC   C3A 8561   1.884  12.858   7.998
  303POPC   C4A 8562   1.937  12.578   7.702
  303POPC   C1B 8563   2.362  12.909   8.643
  303POPC   C2B 8564   2.275  13.010   8.287
  303POPC   C3B 8565   2.453  13.122   7.974
  303POPC   C4B 8566   2.283  13.027   7.658
  304POPC   NC3 8567  10.869  17.014   9.361
  304POPC   PO4 8568  10.328  16.528   9.644
  304POPC   GL1 8569  10.451  16.668   9.261
  304POPC   GL2 8570  10.773  16.592   9.079
  304POPC   C1A 8571  10.341  16.585   8.829
  304POPC   D2A 8572  10.077  16.565   8.505
  304POPC   C3A 8573  10.277  16.509   8.122
  304POPC   C4A 8574  10.194  16.548   7.705
  304POPC   C1B 8575  10.794  16.734   8.661
  304POPC   C2B 8576  10.469  16.911   8.415
  304POPC   C3B 8577  10.422  16.981   7.969
  304POPC   C4B 8578  10.721  16.927   7.650
  305POPC   NC3 8579  22.015  16.175   9.600
  305POPC   PO4 8580  21.864  15.581   9.424
  305POPC   GL1 8581  22.021  15.881   9.154
  305POPC   GL2 8582  22.328  15.983   9.219
  305POPC   C1A 8583  21.977  15.995   8.743
  305POPC   D2A 8584  22.123  16.188   8.371
  305POPC   C3A 8585  22.233  15.913   8.042
  305POPC   C4A 8586  22.029  15.905   7.671
  305POPC   C1B 8587  22.423  16.204   8.836
  305POPC   C2B 8588  22.613  16.110   8.472
  305POPC   C3B 8589  22.559  16.298   8.080
  305POPC   C4B 8590  22.330  16.309   7.696
  306POPC   NC3 8591  25.752  35.518   9.579
  306POPC   PO4 8592  26.036  34.904   9.587
  306POPC   GL1 8593  25.918  35.174   9.216
  306POPC   GL2 8594  25.956  35.539   9.125
  306POPC   C1A 8595  25.837  35.188   8.769
  306POPC   D2A 8596  26.160  35.202   8.440
  306POPC   C3A 8597  26.032  35.422   8.075
  306POPC   C4A 8598  25.856  35.540   7.663
  306POPC   C1B 8599  26.078  35.649   8.706
  306POPC   C2B 8600  26.064  35.894   8.292
  306POPC   C3B 8601  26.238  35.828   7.856
  306POPC   C4B 8602  26.365  35.833   7.398
  307POPC   NC3 8603   9.731  40.829   9.694
  307POPC   PO4 8604  10.087  40.853   9.191
  307POPC   GL1 8605   9.815  40.725   8.976
  307POPC   GL2 8606   9.560  40.897   9.145
  307POPC   C1A 8607   9.692  40.617   8.596
  307POPC   D2A 8608   9.855  40.325   8.340
  307POPC   C3A 8609   9.969  40.529   7.968
  307POPC   C4A 8610   9.726  40.866   7.761
  307POPC   C1B 8611   9.569  41.102   8.740
  307POPC   C2B 8612   9.443  41.057   8.338
  307POPC   C3B 8613   9.480  41.271   7.962
  307POPC   C4B 8614   9.227  41.055   7.700
  308POPC   NC3 8615   1.642  16.375   9.384
  308POPC   PO4 8616   1.052  16.689   9.546
  308POPC   GL1 8617   1.219  16.602   9.140
  308POPC   GL2 8618   1.010  16.319   9.069
  308POPC   C1A 8619   1.108  16.670   8.683
  308POPC   D2A 8620   0.744  16.776   8.427
  308POPC   C3A 8621   0.892  16.882   8.029
  308POPC   C4A 8622   1.344  16.849   7.907
  308POPC   C1B 8623   1.388  16.249   8.795
  308POPC   C2B 8624   1.398  16.204   8.365
  308POPC   C3B 8625   1.075  16.417   8.121
  308POPC   C4B 8626   0.971  16.510   7.690
  309POPC   NC3 8627  26.208  15.406   9.660
  309POPC   PO4 8628  26.181  14.844   9.335
  309POPC   GL1 8629  25.958  15.126   9.142
  309POPC   GL2 8630  26.122  15.450   9.154
  309POPC   C1A 8631  25.730  15.167   8.753
  309POPC   D2A 8632  25.542  15.017   8.374
  309POPC   C3A 8633  25.720  15.128   8.003
  309POPC   C4A 8634  25.935  14.891   7.727
  309POPC   C1B 8635  26.227  15.320   8.748
  309POPC   C2B 8636  26.049  15.367   8.360
  309POPC   C3B 8637  26.191  15.312   7.964
  309POPC   C4B 8638  26.184  15.534   7.607
  310POPC   NC3 8639  35.138  10.775   9.494
  310POPC   PO4 8640  35.709  10.388   9.306
  310POPC   GL1 8641  35.293  10.297   9.070
  310POPC   GL2 8642  35.087  10.631   9.003
  310POPC   C1A 8643  35.326  10.171   8.630
  310POPC   D2A 8644  35.388  10.402   8.236
  310POPC   C3A 8645  35.319  10.197   7.850
  310POPC   C4A 8646  34.955  10.177   7.580
  310POPC   C1B 8647  35.076  10.767   8.548
  310POPC   C2B 8648  35.219  10.905   8.138
  310POPC   C3B 8649  35.424  10.754   7.764
  310POPC   C4B 8650  35.779  10.777   7.444
  311POPC   NC3 8651  42.424  38.337   9.589
  311POPC   PO4 8652  41.828  38.003   9.462
  311POPC   GL1 8653  42.042  38.195   9.106
  311POPC   GL2 8654  42.386  38.321   9.109
  311POPC   C1A 8655  42.124  38.401   8.699
  311POPC   D2A 8656  42.075  38.235   8.309
  311POPC   C3A 8657  42.262  38.425   7.973
  311POPC   C4A 8658  42.465  38.223   7.667
  311POPC   C1B 8659  42.648  38.448   8.818
  311POPC   C2B 8660  42.550  38.494   8.405
  311POPC   C3B 8661  42.788  38.551   8.059
  311POPC   C4B 8662  42.667  38.693   7.702
  312POPC   NC3 8663  16.037   6.357   9.311
  312POPC   PO4 8664  15.919   5.717   9.579
  312POPC   GL1 8665  15.942   5.859   9.172
  312POPC   GL2 8666  15.604   5.960   9.191
  312POPC   C1A 8667  16.207   5.905   8.762
  312POPC   D2A 8668  16.361   6.092   8.328
  312POPC   C3A 8669  16.124   6.196   7.917
  312POPC   C4A 8670  15.802   6.151   7.568
  312POPC   C1B 8671  15.696   6.053   8.769
  312POPC   C2B 8672  15.861   5.845   8.396
  312POPC   C3B 8673  15.704   5.902   8.014
  312POPC   C4B 8674  15.511   5.727   7.687
  313POPC   NC3 8675  30.783  21.919   9.512
  313POPC   PO4 8676  30.161  22.050   9.515
  313POPC   GL1 8677  30.354  22.354   9.234
  313POPC   GL2 8678  30.719  22.310   9.162
  313POPC   C1A 8679  30.425  22.525   8.815
  313POPC   D2A 8680  30.569  22.583   8.402
  313POPC   C3A 8681  30.509  22.280   8.082
  313POPC   C4A 8682  30.544  22.231   7.646
  313POPC   C1B 8683  30.838  22.224   8.735
  313POPC   C2B 8684  30.916  22.142   8.337
  313POPC   C3B 8685  30.956  22.092   7.904
  313POPC   C4B 8686  30.933  21.814   7.572
  314POPC   NC3 8687   3.453   9.654   9.593
  314POPC   PO4 8688   3.987   9.880   9.556
  314POPC   GL1 8689   3.707   9.884   9.192
  314POPC   GL2 8690   3.852  10.201   9.101
  314POPC   C1A 8691   3.427   9.684   8.850
  314POPC   D2A 8692   3.488   9.392   8.488
  314POPC   C3A 8693   3.286   9.513   8.125
  314POPC   C4A 8694   3.353   9.651   7.718
  314POPC   C1B 8695   3.804  10.009   8.692
  314POPC   C2B 8696   3.520   9.931   8.343
  314POPC   C3B 8697   3.605  10.054   7.911
  314POPC   C4B 8698   4.053   9.997   7.812
  315POPC   NC3 8699   9.508  10.211   9.667
  315POPC   PO4 8700  10.095  10.396   9.516
  315POPC   GL1 8701   9.930  10.321   9.114
  315POPC   GL2 8702   9.591  10.198   9.172
  315POPC   C1A 8703   9.702  10.574   8.793
  315POPC   D2A 8704   9.853  10.784   8.409
  315POPC   C3A 8705   9.706  10.627   8.021
  315POPC   C4A 8706   9.657  10.782   7.603
  315POPC   C1B 8707   9.424  10.128   8.786
  315POPC   C2B 8708   9.476  10.323   8.387
  315POPC   C3B 8709   9.496  10.122   7.977
  315POPC   C4B 8710   9.653  10.274   7.589
  316POPC   NC3 8711  44.774  30.101   9.367
  316POPC   PO4 8712  44.559  29.469   9.551
  316POPC   GL1 8713  44.582  29.668   9.161
  316POPC   GL2 8714  44.929  29.632   9.049
  316POPC   C1A 8715  44.477  29.805   8.752
  316POPC   D2A 8716  44.351  29.608   8.354
  316POPC   C3A 8717  44.596  29.737   7.990
  316POPC   C4A 8718  44.503  29.946   7.594
  316POPC   C1B 8719  44.980  29.773   8.607
  316POPC   C2B 8720  44.959  29.460   8.277
  316POPC   C3B 8721   0.032  29.452   7.878
  316POPC   C4B 8722  44.981  29.765   7.592
  317POPC   NC3 8723  37.381   6.502   9.335
  317POPC   PO4 8724  37.995   6.539   9.399
  317POPC   GL1 8725  37.782   6.783   9.119
  317POPC   GL2 8726  37.945   7.111   9.172
  317POPC   C1A 8727  37.599   6.671   8.725
  317POPC   D2A 8728  37.625   6.841   8.343
  317POPC   C3A 8729  37.492   6.677   7.990
  317POPC   C4A 8730  37.400   6.881   7.601
  317POPC   C1B 8731  38.033   7.008   8.734
  317POPC   C2B 8732  37.957   7.224   8.359
  317POPC   C3B 8733  38.035   6.960   8.024
  317POPC   C4B 8734  37.909   6.884   7.600
  318POPC   NC3 8735  37.797  13.986   9.433
  318POPC   PO4 8736  37.231  13.669   9.468
  318POPC   GL1 8737  37.509  13.620   9.150
  318POPC   GL2 8738  37.548  13.908   9.008
  318POPC   C1A 8739  37.647  13.500   8.751
  318POPC   D2A 8740  37.447  13.715   8.422
  318POPC   C3A 8741  37.494  13.452   8.136
  318POPC   C4A 8742  37.579  13.498   7.750
  318POPC   C1B 8743  37.815  13.991   8.623
  318POPC   C2B 8744  37.867  13.868   8.157
  318POPC   C3B 8745  38.035  13.695   7.739
  318POPC   C4B 8746  38.157  13.971   7.325
  319POPC   NC3 8747  36.176  23.361   9.757
  319POPC   PO4 8748  35.985  23.933   9.431
  319POPC   GL1 8749  36.033  24.043   9.021
  319POPC   GL2 8750  36.394  24.015   8.983
  319POPC   C1A 8751  35.919  23.826   8.664
  319POPC   D2A 8752  36.152  23.545   8.421
  319POPC   C3A 8753  36.385  23.682   8.068
  319POPC   C4A 8754  36.220  23.630   7.648
  319POPC   C1B 8755  36.405  23.966   8.536
  319POPC   C2B 8756  36.060  24.072   8.225
  319POPC   C3B 8757  36.033  24.077   7.772
  319POPC   C4B 8758  36.346  24.061   7.384
  320POPC   NC3 8759  20.144  28.145   9.075
  320POPC   PO4 8760  20.589  28.473   9.431
  320POPC   GL1 8761  20.628  28.518   9.034
  320POPC   GL2 8762  20.843  28.271   9.017
  320POPC   C1A 8763  20.581  28.618   8.634
  320POPC   D2A 8764  20.514  28.366   8.297
  320POPC   C3A 8765  20.448  28.572   7.927
  320POPC   C4A 8766  20.599  28.406   7.564
  320POPC   C1B 8767  20.673  28.031   8.685
  320POPC   C2B 8768  20.417  27.866   8.351
  320POPC   C3B 8769  20.544  28.012   7.933
  320POPC   C4B 8770  20.917  27.999   7.667
  321POPC   NC3 8771  12.456   6.499   9.556
  321POPC   PO4 8772  12.143   7.055   9.619
  321POPC   GL1 8773  12.120   6.790   9.246
  321POPC   GL2 8774  11.829   6.576   9.158
  321POPC   C1A 8775  12.179   6.711   8.806
  321POPC   D2A 8776  12.023   6.598   8.422
  321POPC   C3A 8777  12.247   6.545   8.047
  321POPC   C4A 8778  12.321   6.757   7.676
  321POPC   C1B 8779  11.869   6.289   8.834
  321POPC   C2B 8780  11.675   6.236   8.483
  321POPC   C3B 8781  11.786   6.290   8.084
  321POPC   C4B 8782  11.869   6.540   7.726
  322POPC   NC3 8783  20.912  42.697   9.478
  322POPC   PO4 8784  20.725  41.984   9.447
  322POPC   GL1 8785  20.741  42.325   9.134
  322POPC   GL2 8786  20.425  42.488   9.228
  322POPC   C1A 8787  20.541  42.414   8.715
  322POPC   D2A 8788  20.516  42.560   8.254
  322POPC   C3A 8789  20.566  42.239   7.966
  322POPC   C4A 8790  20.759  42.260   7.589
  322POPC   C1B 8791  20.076  42.507   8.917
  322POPC   C2B 8792  20.063  42.527   8.469
  322POPC   C3B 8793  20.066  42.602   8.014
  322POPC   C4B 8794  20.403  42.635   7.684
  323POPC   NC3 8795  11.564  37.948   9.653
  323POPC   PO4 8796  11.067  37.614   9.635
  323POPC   GL1 8797  11.333  37.676   9.262
  323POPC   GL2 8798  11.302  38.029   9.165
  323POPC   C1A 8799  11.340  37.624   8.779
  323POPC   D2A 8800  11.095  37.663   8.355
  323POPC   C3A 8801  11.283  37.462   7.964
  323POPC   C4A 8802  11.198  37.206   7.574
  323POPC   C1B 8803  11.134  38.079   8.722
  323POPC   C2B 8804  11.429  38.049   8.329
  323POPC   C3B 8805  11.445  37.941   7.862
  323POPC   C4B 8806  11.256  37.889   7.439
  324POPC   NC3 8807  41.760  38.785   9.609
  324POPC   PO4 8808  41.529  39.473   9.583
  324POPC   GL1 8809  41.716  39.518   9.177
  324POPC   GL2 8810  41.747  39.130   9.210
  324POPC   C1A 8811  41.759  39.556   8.725
  324POPC   D2A 8812  41.515  39.602   8.356
  324POPC   C3A 8813  41.651  39.568   7.930
  324POPC   C4A 8814  41.665  39.460   7.516
  324POPC   C1B 8815  41.404  39.215   8.915
  324POPC   C2B 8816  41.373  39.145   8.492
  324POPC   C3B 8817  41.433  39.120   8.042
  324POPC   C4B 8818  41.753  38.936   7.796
  325POPC   NC3 8819  20.764  33.704   9.709
  325POPC   PO4 8820  20.298  34.149   9.734
  325POPC   GL1 8821  20.632  33.984   9.295
  325POPC   GL2 8822  20.758  33.659   9.202
  325POPC   C1A 8823  20.582  33.938   8.826
  325POPC   D2A 8824  20.789  34.042   8.454
  325POPC   C3A 8825  20.620  33.936   8.060
  325POPC   C4A 8826  20.667  34.199   7.700
  325POPC   C1B 8827  20.712  33.433   8.804
  325POPC   C2B 8828  20.857  33.551   8.400
  325POPC   C3B 8829  20.849  33.450   7.965
  325POPC   C4B 8830  20.663  33.685   7.597
  326POPC   NC3 8831  37.537  13.234   9.464
  326POPC   PO4 8832  37.814  12.553   9.379
  326POPC   GL1 8833  37.483  12.553   9.107
  326POPC   GL2 8834  37.472  12.883   9.085
  326POPC   C1A 8835  37.431  12.383   8.725
  326POPC   D2A 8836  37.515  12.691   8.434
  326POPC   C3A 8837  37.532  12.686   8.025
  326POPC   C4A 8838  37.596  12.962   7.681
  326POPC   C1B 8839  37.788  12.942   8.784
  326POPC   C2B 8840  37.829  13.151   8.407
  326POPC   C3B 8841  37.943  13.238   8.007
  326POPC   C4B 8842  38.086  13.143   7.618
  327POPC   NC3 8843  33.343  19.869   9.568
  327POPC   PO4 8844  32.715  19.592   9.524
  327POPC   GL1 8845  33.036  19.677   9.203
  327POPC   GL2 8846  33.070  20.042   9.179
  327POPC   C1A 8847  33.183  19.723   8.771
  327POPC   D2A 8848  32.979  19.661   8.350
  327POPC   C3A 8849  33.186  19.548   7.946
  327POPC   C4A 8850  32.947  19.593   7.553
  327POPC   C1B 8851  33.227  20.250   8.816
  327POPC   C2B 8852  33.128  20.168   8.391
  327POPC   C3B 8853  33.165  20.064   7.970
  327POPC   C4B 8854  33.405  20.312   7.706
  328POPC   NC3 8855  35.207  27.350   9.463
  328POPC   PO4 8856  35.691  27.811   9.351
  328POPC   GL1 8857  35.375  27.740   9.102
  328POPC   GL2 8858  35.261  28.047   9.160
  328POPC   C1A 8859  35.249  27.433   8.814
  328POPC   D2A 8860  35.183  27.221   8.454
  328POPC   C3A 8861  35.043  27.472   8.133
  328POPC   C4A 8862  35.295  27.501   7.780
  328POPC   C1B 8863  35.059  28.050   8.812
  328POPC   C2B 8864  35.221  27.846   8.488
  328POPC   C3B 8865  35.254  27.940   8.064
  328POPC   C4B 8866  34.926  27.879   7.770
  329POPC   NC3 8867  32.361  37.612   9.468
  329POPC   PO4 8868  32.042  38.154   9.646
  329POPC   GL1 8869  32.082  37.968   9.166
  329POPC   GL2 8870  32.060  37.622   9.024
  329POPC   C1A 8871  32.252  37.911   8.695
  329POPC   D2A 8872  32.082  37.722   8.328
  329POPC   C3A 8873  32.286  37.889   7.964
  329POPC   C4A 8874  32.266  37.883   7.471
  329POPC   C1B 8875  32.339  37.392   8.708
  329POPC   C2B 8876  32.388  37.332   8.236
  329POPC   C3B 8877  32.357  37.424   7.775
  329POPC   C4B 8878  32.228  37.367   7.326
  330POPC   NC3 8879   2.209  42.943   9.602
  330POPC   PO4 8880   1.574  42.820   9.397
  330POPC   GL1 8881   1.909  43.091   9.119
  330POPC   GL2 8882   2.305  43.113   9.121
  330POPC   C1A 8883   1.804  43.225   8.709
  330POPC   D2A 8884   1.588  42.924   8.433
  330POPC   C3A 8885   1.745  42.925   8.028
  330POPC   C4A 8886   1.905  43.237   7.754
  330POPC   C1B 8887   2.302  43.055   8.664
  330POPC   C2B 8888   2.179  43.125   8.231
  330POPC   C3B 8889   2.392  43.141   7.837
  330POPC   C4B 8890   2.256  43.047   7.394
  331POPC   NC3 8891  20.441  17.974   9.675
  331POPC   PO4 8892  20.737  18.548   9.554
  331POPC   GL1 8893  20.607  18.348   9.178
  331POPC   GL2 8894  20.469  18.041   9.184
  331POPC   C1A 8895  20.629  18.299   8.714
  331POPC   D2A 8896  20.771  18.391   8.334
  331POPC   C3A 8897  20.487  18.482   8.026
  331POPC   C4A 8898  20.695  18.586   7.654
  331POPC   C1B 8899  20.850  17.942   8.967
  331POPC   C2B 8900  20.936  17.899   8.517
  331POPC   C3B 8901  20.745  17.911   8.110
  331POPC   C4B 8902  20.580  18.072   7.741
  332POPC   NC3 8903   1.390  26.673   9.440
  332POPC   PO4 8904   0.828  26.976   9.279
  332POPC   GL1 8905   1.148  26.806   9.012
  332POPC   GL2 8906   1.466  26.975   9.038
  332POPC   C1A 8907   1.124  26.582   8.620
  332POPC   D2A 8908   0.845  26.707   8.268
  332POPC   C3A 8909   1.061  26.588   7.904
  332POPC   C4A 8910   1.403  26.311   7.848
  332POPC   C1B 8911   1.375  27.022   8.609
  332POPC   C2B 8912   1.614  26.873   8.277
  332POPC   C3B 8913   1.502  26.910   7.854
  332POPC   C4B 8914   1.092  27.102   7.729
  333POPC   NC3 8915  29.509  13.546   9.401
  333POPC   PO4 8916  28.955  13.866   9.443
  333POPC   GL1 8917  29.147  13.848   9.043
  333POPC   GL2 8918  29.481  13.941   9.066
  333POPC   C1A 8919  29.131  13.766   8.594
  333POPC   D2A 8920  28.989  13.585   8.217
  333POPC   C3A 8921  28.831  13.827   7.874
  333POPC   C4A 8922  28.728  13.720   7.456
  333POPC   C1B 8923  29.588  13.605   8.761
  333POPC   C2B 8924  29.506  13.488   8.315
  333POPC   C3B 8925  29.681  13.632   7.927
  333POPC   C4B 8926  29.550  13.917   7.571
  334POPC   NC3 8927  37.310  33.886   9.498
  334POPC   PO4 8928  36.734  33.510   9.581
  334POPC   GL1 8929  36.827  33.723   9.222
  334POPC   GL2 8930  36.582  33.999   9.149
  334POPC   C1A 8931  37.014  33.856   8.854
  334POPC   D2A 8932  37.023  33.973   8.424
  334POPC   C3A 8933  36.917  33.695   8.107
  334POPC   C4A 8934  36.618  33.676   7.790
  334POPC   C1B 8935  36.579  34.112   8.681
  334POPC   C2B 8936  36.587  34.103   8.207
  334POPC   C3B 8937  36.433  34.296   7.835
  334POPC   C4B 8938  36.577  34.215   7.417
  335POPC   NC3 8939   9.184  24.604   9.531
  335POPC   PO4 8940   8.645  24.635   9.386
  335POPC   GL1 8941   9.011  24.616   9.033
  335POPC   GL2 8942   9.389  24.681   9.067
  335POPC   C1A 8943   9.171  24.656   8.575
  335POPC   D2A 8944   9.108  24.670   8.104
  335POPC   C3A 8945   8.920  24.300   7.840
  335POPC   C4A 8946   8.827  24.283   7.382
  335POPC   C1B 8947   9.582  24.405   8.751
  335POPC   C2B 8948   9.450  24.263   8.324
  335POPC   C3B 8949   9.428  24.333   7.885
  335POPC   C4B 8950   9.424  24.476   7.461
  336POPC   NC3 8951  29.116  32.774   9.458
  336POPC   PO4 8952  29.539  33.357   9.629
  336POPC   GL1 8953  29.335  33.234   9.222
  336POPC   GL2 8954  28.970  33.235   9.199
  336POPC   C1A 8955  29.395  33.107   8.772
  336POPC   D2A 8956  29.561  33.167   8.347
  336POPC   C3A 8957  29.329  32.973   8.015
  336POPC   C4A 8958  29.404  33.165   7.638
  336POPC   C1B 8959  28.873  32.978   8.814
  336POPC   C2B 8960  28.916  32.965   8.358
  336POPC   C3B 8961  28.830  33.090   7.924
  336POPC   C4B 8962  28.966  32.862   7.550
  337POPC   NC3 8963  23.445  14.699   9.479
  337POPC   PO4 8964  23.802  14.112   9.592
  337POPC   GL1 8965  23.778  14.328   9.233
  337POPC   GL2 8966  23.451  14.265   9.173
  337POPC   C1A 8967  23.837  14.421   8.804
  337POPC   D2A 8968  23.865  14.669   8.437
  337POPC   C3A 8969  23.567  14.637   8.133
  337POPC   C4A 8970  23.677  14.549   7.736
  337POPC   C1B 8971  23.411  14.129   8.741
  337POPC   C2B 8972  23.641  14.172   8.347
  337POPC   C3B 8973  23.538  14.055   7.915
  337POPC   C4B 8974  23.442  14.154   7.483
  338POPC   NC3 8975  32.495  15.733   9.614
  338POPC   PO4 8976  32.106  16.277   9.483
  338POPC   GL1 8977  32.160  16.063   9.133
  338POPC   GL2 8978  32.139  15.749   9.248
  338POPC   C1A 8979  31.961  15.880   8.748
  338POPC   D2A 8980  32.065  16.036   8.355
  338POPC   C3A 8981  31.860  15.895   7.962
  338POPC   C4A 8982  32.035  16.028   7.568
  338POPC   C1B 8983  32.392  15.649   8.918
  338POPC   C2B 8984  32.510  15.690   8.497
  338POPC   C3B 8985  32.370  15.730   8.069
  338POPC   C4B 8986  32.522  15.824   7.670
  339POPC   NC3 8987  43.451   3.083   9.521
  339POPC   PO4 8988  43.039   2.560   9.650
  339POPC   GL1 8989  43.015   2.681   9.153
  339POPC   GL2 8990  43.189   2.959   9.080
  339POPC   C1A 8991  43.159   2.563   8.725
  339POPC   D2A 8992  43.398   2.665   8.341
  339POPC   C3A 8993  43.293   2.466   7.962
  339POPC   C4A 8994  43.208   2.595   7.540
  339POPC   C1B 8995  43.166   3.220   8.722
  339POPC   C2B 8996  43.351   3.198   8.318
  339POPC   C3B 8997  43.283   3.014   7.923
  339POPC   C4B 8998  43.004   3.093   7.584
  340POPC   NC3 8999  41.641  21.036   9.732
  340POPC   PO4 9000  41.484  21.657   9.591
  340POPC   GL1 9001  41.491  21.337   9.260
  340POPC   GL2 9002  41.240  21.081   9.377
  340POPC   C1A 9003  41.677  21.331   8.820
  340POPC   D2A 9004  41.591  21.493   8.395
  340POPC   C3A 9005  41.800  21.350   8.034
  340POPC   C4A 9006  41.800  21.492   7.610
  340POPC   C1B 9007  41.253  21.041   8.907
  340POPC   C2B 9008  41.438  21.012   8.497
  340POPC   C3B 9009  41.341  21.102   8.071
  340POPC   C4B 9010  41.585  21.037   7.708
  341POPC   NC3 9011  39.737  41.066   9.567
  341POPC   PO4 9012  40.262  40.563   9.593
  341POPC   GL1 9013  40.127  40.749   9.200
  341POPC   GL2 9014  39.764  40.753   9.109
  341POPC   C1A 9015  40.123  40.849   8.745
  341POPC   D2A 9016  39.942  40.801   8.339
  341POPC   C3A 9017  40.186  40.609   8.009
  341POPC   C4A 9018  40.122  40.940   7.729
  341POPC   C1B 9019  39.659  40.513   8.721
  341POPC   C2B 9020  39.719  40.330   8.290
  341POPC   C3B 9021  39.677  40.579   7.871
  341POPC   C4B 9022  39.761  40.648   7.411
  342POPC   NC3 9023   9.756  20.358   9.473
  342POPC   PO4 9024   9.932  21.096   9.550
  342POPC   GL1 9025   9.849  20.802   9.192
  342POPC   GL2 9026   9.492  20.767   9.152
  342POPC   C1A 9027   9.922  20.448   8.872
  342POPC   D2A 9028   9.943  20.549   8.469
  342POPC   C3A 9029   9.836  20.441   8.110
  342POPC   C4A 9030   9.933  20.717   7.803
  342POPC   C1B 9031   9.509  20.697   8.689
  342POPC   C2B 9032   9.514  20.795   8.233
  342POPC   C3B 9033   9.425  20.712   7.777
  342POPC   C4B 9034   9.309  20.602   7.345
  343POPC   NC3 9035   4.925  39.705   9.598
  343POPC   PO4 9036   5.063  40.339   9.460
  343POPC   GL1 9037   5.011  40.111   9.135
  343POPC   GL2 9038   5.196  39.824   9.134
  343POPC   C1A 9039   5.160  40.183   8.728
  343POPC   D2A 9040   4.931  40.113   8.348
  343POPC   C3A 9041   4.861  40.277   7.926
  343POPC   C4A 9042   5.172  40.403   7.659
  343POPC   C1B 9043   4.933  39.719   8.790
  343POPC   C2B 9044   4.821  39.624   8.372
  343POPC   C3B 9045   4.906  39.724   7.950
  343POPC   C4B 9046   4.788  39.489   7.564
  344POPC   NC3 9047   7.887  21.784   9.574
  344POPC   PO4 9048   7.742  22.319   9.412
  344POPC   GL1 9049   7.630  22.062   9.051
  344POPC   GL2 9050   7.579  21.699   9.157
  344POPC   C1A 9051   7.476  22.210   8.634
  344POPC   D2A 9052   7.268  22.423   8.276
  344POPC   C3A 9053   7.305  22.192   7.879
  344POPC   C4A 9054   7.641  21.917   7.745
  344POPC   C1B 9055   7.408  21.700   8.724
  344POPC   C2B 9056   7.419  21.830   8.273
  344POPC   C3B 9057   7.207  21.690   7.904
  344POPC   C4B 9058   7.204  21.810   7.473
  345POPC   NC3 9059  39.563  43.322   9.493
  345POPC   PO4 9060  39.024  42.863   9.467
  345POPC   GL1 9061  39.157  43.167   9.164
  345POPC   GL2 9062  38.888  43.369   9.004
  345POPC   C1A 9063  39.415  43.094   8.790
  345POPC   D2A 9064  39.549  42.808   8.460
  345POPC   C3A 9065  39.486  42.986   8.041
  345POPC   C4A 9066  39.344  43.307   7.692
  345POPC   C1B 9067  38.860  42.951   8.782
  345POPC   C2B 9068  39.053  42.879   8.391
  345POPC   C3B 9069  38.984  43.010   7.947
  345POPC   C4B 9070  38.970  42.982   7.481
  346POPC   NC3 9071  27.896  18.060   9.391
  346POPC   PO4 9072  27.462  17.600   9.496
  346POPC   GL1 9073  27.441  17.842   9.155
  346POPC   GL2 9074  27.774  17.707   9.053
  346POPC   C1A 9075  27.399  17.805   8.696
  346POPC   D2A 9076  27.742  17.783   8.353
  346POPC   C3A 9077  27.546  17.813   7.933
  346POPC   C4A 9078  27.357  17.580   7.584
  346POPC   C1B 9079  27.788  17.389   8.750
  346POPC   C2B 9080  28.096  17.361   8.445
  346POPC   C3B 9081  28.116  17.498   8.027
  346POPC   C4B 9082  27.814  17.397   7.736
  347POPC   NC3 9083  21.957  39.643   9.508
  347POPC   PO4 9084  22.524  39.976   9.670
  347POPC   GL1 9085  22.379  39.957   9.190
  347POPC   GL2 9086  22.107  39.743   9.020
  347POPC   C1A 9087  22.162  40.197   8.796
  347POPC   D2A 9088  21.977  39.931   8.473
  347POPC   C3A 9089  22.026  40.077   8.037
  347POPC   C4A 9090  22.111  40.092   7.592
  347POPC   C1B 9091  22.470  39.814   8.723
  347POPC   C2B 9092  22.480  40.031   8.334
  347POPC   C3B 9093  22.628  39.836   7.968
  347POPC   C4B 9094  22.813  39.924   7.589
  348POPC   NC3 9095  35.236  18.507   9.540
  348POPC   PO4 9096  35.352  17.860   9.766
  348POPC   GL1 9097  35.392  18.060   9.308
  348POPC   GL2 9098  35.092  18.182   9.181
  348POPC   C1A 9099  35.529  18.284   8.861
  348POPC   D2A 9100  35.528  18.216   8.366
  348POPC   C3A 9101  35.263  18.438   8.045
  348POPC   C4A 9102  35.357  18.683   7.645
  348POPC   C1B 9103  35.126  18.019   8.787
  348POPC   C2B 9104  35.047  18.056   8.379
  348POPC   C3B 9105  35.222  17.918   7.995
  348POPC   C4B 9106  35.579  18.100   7.825
  349POPC   NC3 9107  23.452  36.067   9.471
  349POPC   PO4 9108  24.133  35.824   9.462
  349POPC   GL1 9109  23.958  35.864   9.087
  349POPC   GL2 9110  23.743  36.172   9.052
  349POPC   C1A 9111  24.009  35.946   8.664
  349POPC   D2A 9112  23.753  36.232   8.436
  349POPC   C3A 9113  23.974  36.463   8.146
  349POPC   C4A 9114  23.817  36.343   7.764
  349POPC   C1B 9115  23.359  36.122   8.812
  349POPC   C2B 9116  23.237  36.229   8.401
  349POPC   C3B 9117  23.383  36.100   7.982
  349POPC   C4B 9118  23.403  36.122   7.533
  350POPC   NC3 9119  33.207   9.290   9.549
  350POPC   PO4 9120  32.769   8.830   9.429
  350POPC   GL1 9121  33.030   8.758   9.075
  350POPC   GL2 9122  33.371   8.827   9.192
  350POPC   C1A 9123  33.236   8.823   8.658
  350POPC   D2A 9124  33.087   9.111   8.364
  350POPC   C3A 9125  33.011   9.002   7.905
  350POPC   C4A 9126  32.812   9.231   7.528
  350POPC   C1B 9127  33.431   9.217   8.909
  350POPC   C2B 9128  33.589   9.275   8.471
  350POPC   C3B 9129  33.431   9.335   8.033
  350POPC   C4B 9130  33.337   9.280   7.601
  351POPC   NC3 9131  20.571  29.882   9.464
  351POPC   PO4 9132  20.163  30.419   9.632
  351POPC   GL1 9133  20.369  30.275   9.196
  351POPC   GL2 9134  20.763  30.167   9.116
  351POPC   C1A 9135  20.356  30.020   8.795
  351POPC   D2A 9136  20.157  30.066   8.389
  351POPC   C3A 9137  20.432  29.973   8.046
  351POPC   C4A 9138  20.365  29.777   7.674
  351POPC   C1B 9139  20.886  30.014   8.715
  351POPC   C2B 9140  21.011  29.980   8.282
  351POPC   C3B 9141  20.898  29.795   7.882
  351POPC   C4B 9142  20.800  29.706   7.432
  352POPC   NC3 9143  17.379   3.616   9.576
  352POPC   PO4 9144  17.959   3.640   9.307
  352POPC   GL1 9145  17.585   3.521   9.094
  352POPC   GL2 9146  17.349   3.824   9.105
  352POPC   C1A 9147  17.547   3.482   8.636
  352POPC   D2A 9148  17.329   3.704   8.284
  352POPC   C3A 9149  17.366   3.509   7.877
  352POPC   C4A 9150  17.193   3.301   7.530
  352POPC   C1B 9151  17.706   3.957   8.838
  352POPC   C2B 9152  17.912   3.816   8.486
  352POPC   C3B 9153  17.806   3.634   8.099
  352POPC   C4B 9154  17.701   3.860   7.722
  353POPC   NC3 9155  23.058  17.236   9.454
  353POPC   PO4 9156  23.246  17.799   9.311
  353POPC   GL1 9157  22.803  17.666   9.192
  353POPC   GL2 9158  22.703  17.309   9.089
  353POPC   C1A 9159  22.521  17.742   8.833
  353POPC   D2A 9160  22.588  17.655   8.376
  353POPC   C3A 9161  22.601  17.720   7.911
  353POPC   C4A 9162  22.849  17.706   7.513
  353POPC   C1B 9163  22.944  17.468   8.727
  353POPC   C2B 9164  23.011  17.281   8.326
  353POPC   C3B 9165  23.015  17.418   7.911
  353POPC   C4B 9166  23.191  17.261   7.516
  354POPC   NC3 9167  22.747  12.684   9.947
  354POPC   PO4 9168  23.068  12.821   9.378
  354POPC   GL1 9169  22.900  12.893   8.989
  354POPC   GL2 9170  22.550  12.773   9.079
  354POPC   C1A 9171  23.114  13.103   8.664
  354POPC   D2A 9172  22.961  13.176   8.279
  354POPC   C3A 9173  23.167  12.977   7.961
  354POPC   C4A 9174  22.911  12.681   7.748
  354POPC   C1B 9175  22.509  12.507   8.709
  354POPC   C2B 9176  22.529  12.422   8.297
  354POPC   C3B 9177  22.409  12.540   7.898
  354POPC   C4B 9178  22.607  12.292   7.590
  355POPC   NC3 9179  16.825  10.950   9.349
  355POPC   PO4 9180  16.374  10.426   9.457
  355POPC   GL1 9181  16.561  10.311   9.068
  355POPC   GL2 9182  16.879  10.437   9.167
  355POPC   C1A 9183  16.371  10.240   8.667
  355POPC   D2A 9184  16.333  10.205   8.233
  355POPC   C3A 9185  16.652  10.472   8.072
  355POPC   C4A 9186  16.626  10.670   7.709
  355POPC   C1B 9187  16.857  10.558   8.711
  355POPC   C2B 9188  17.112  10.567   8.293
  355POPC   C3B 9189  17.120  10.576   7.830
  355POPC   C4B 9190  17.155  10.671   7.359
  356POPC   NC3 9191  19.833  29.243   9.636
  356POPC   PO4 9192  19.668  28.640   9.607
  356POPC   GL1 9193  19.688  28.960   9.223
  356POPC   GL2 9194  20.020  29.157   9.173
  356POPC   C1A 9195  19.674  29.163   8.783
  356POPC   D2A 9196  19.695  28.972   8.369
  356POPC   C3A 9197  19.696  29.212   7.973
  356POPC   C4A 9198  19.761  29.018   7.581
  356POPC   C1B 9199  20.175  29.357   8.811
  356POPC   C2B 9200  20.396  29.149   8.435
  356POPC   C3B 9201  20.212  29.053   8.006
  356POPC   C4B 9202  20.130  29.333   7.678
  357POPC   NC3 9203   1.959  44.847   9.470
  357POPC   PO4 9204   2.296  44.242   9.424
  357POPC   GL1 9205   2.153  44.504   9.089
  357POPC   GL2 9206   1.816  44.606   9.061
  357POPC   C1A 9207   2.088  44.626   8.654
  357POPC   D2A 9208   2.123  44.458   8.271
  357POPC   C3A 9209   2.163  44.716   7.897
  357POPC   C4A 9210   2.093  44.557   7.507
  357POPC   C1B 9211   1.694  44.300   8.780
  357POPC   C2B 9212   1.617  44.401   8.368
  357POPC   C3B 9213   1.721  44.462   7.979
  357POPC   C4B 9214   1.712  44.230   7.652
  358POPC   NC3 9215   4.788  21.382   9.599
  358POPC   PO4 9216   5.029  20.736   9.502
  358POPC   GL1 9217   4.843  21.040   9.202
  358POPC   GL2 9218   4.996  21.394   9.148
  358POPC   C1A 9219   4.955  21.069   8.761
  358POPC   D2A 9220   5.252  21.256   8.450
  358POPC   C3A 9221   5.166  21.457   8.058
  358POPC   C4A 9222   4.980  21.345   7.700
  358POPC   C1B 9223   4.957  21.583   8.736
  358POPC   C2B 9224   4.757  21.465   8.350
  358POPC   C3B 9225   4.700  21.684   7.935
  358POPC   C4B 9226   4.797  21.781   7.479
  359POPC   NC3 9227  18.545  21.194   9.708
  359POPC   PO4 9228  18.048  21.373   9.570
  359POPC   GL1 9229  18.383  21.291   9.193
  359POPC   GL2 9230  18.590  21.570   9.031
  359POPC   C1A 9231  18.477  21.192   8.704
  359POPC   D2A 9232  18.326  21.338   8.271
  359POPC   C3A 9233  18.463  21.197   7.833
  359POPC   C4A 9234  18.230  20.936   7.509
  359POPC   C1B 9235  18.736  21.639   8.579
  359POPC   C2B 9236  18.665  21.694   8.143
  359POPC   C3B 9237  18.263  21.708   7.894
  359POPC   C4B 9238  18.209  21.793   7.440
  360POPC   NC3 9239  40.173   3.037   9.630
  360POPC   PO4 9240  39.820   2.444   9.410
  360POPC   GL1 9241  40.050   2.816   9.178
  360POPC   GL2 9242  40.189   2.626   9.075
  360POPC   C1A 9243  39.961   2.884   8.711
  360POPC   D2A 9244  39.667   2.956   8.358
  360POPC   C3A 9245  39.835   2.987   7.955
  360POPC   C4A 9246  39.773   2.702   7.633
  360POPC   C1B 9247  40.429   2.489   8.775
  360POPC   C2B 9248  40.388   2.680   8.416
  360POPC   C3B 9249  40.513   2.720   8.016
  360POPC   C4B 9250  40.260   2.856   7.681
  361POPC   NC3 9251  17.488  12.466   9.456
  361POPC   PO4 9252  17.462  11.772   9.485
  361POPC   GL1 9253  17.399  11.935   9.065
  361POPC   GL2 9254  17.279  12.268   9.054
  361POPC   C1A 9255  17.423  12.032   8.605
  361POPC   D2A 9256  17.282  11.873   8.186
  361POPC   C3A 9257  17.615  11.698   7.960
  361POPC   C4A 9258  17.861  11.953   7.683
  361POPC   C1B 9259  17.321  12.576   8.727
  361POPC   C2B 9260  17.494  12.687   8.305
  361POPC   C3B 9261  17.657  12.330   8.034
  361POPC   C4B 9262  17.384  12.130   7.707
  362POPC   NC3 9263  29.345  31.312   9.694
  362POPC   PO4 9264  28.765  31.406   9.698
  362POPC   GL1 9265  28.971  31.424   9.245
  362POPC   GL2 9266  29.339  31.429   9.183
  362POPC   C1A 9267  28.968  31.285   8.812
  362POPC   D2A 9268  29.082  31.108   8.420
  362POPC   C3A 9269  29.055  31.373   8.052
  362POPC   C4A 9270  29.146  31.444   7.623
  362POPC   C1B 9271  29.463  31.363   8.755
  362POPC   C2B 9272  29.390  31.553   8.374
  362POPC   C3B 9273  29.535  31.495   7.959
  362POPC   C4B 9274  29.610  31.196   7.652
  363POPC   NC3 9275  24.226  29.399   9.427
  363POPC   PO4 9276  24.415  30.053   9.483
  363POPC   GL1 9277  24.510  29.910   9.122
  363POPC   GL2 9278  24.767  29.680   9.173
  363POPC   C1A 9279  24.279  29.932   8.774
  363POPC   D2A 9280  24.149  30.084   8.393
  363POPC   C3A 9281  24.222  29.820   8.046
  363POPC   C4A 9282  24.416  29.848   7.652
  363POPC   C1B 9283  24.608  29.513   8.804
  363POPC   C2B 9284  24.560  29.714   8.421
  363POPC   C3B 9285  24.712  29.993   8.097
  363POPC   C4B 9286  24.954  29.840   7.761
  364POPC   NC3 9287  34.108  33.256   9.814
  364POPC   PO4 9288  33.458  33.038   9.673
  364POPC   GL1 9289  33.709  32.997   9.272
  364POPC   GL2 9290  33.903  33.285   9.220
  364POPC   C1A 9291  33.843  32.921   8.831
  364POPC   D2A 9292  33.647  32.731   8.457
  364POPC   C3A 9293  33.802  32.959   8.110
  364POPC   C4A 9294  33.989  32.897   7.694
  364POPC   C1B 9295  34.181  33.289   8.841
  364POPC   C2B 9296  34.124  33.169   8.423
  364POPC   C3B 9297  34.131  33.325   7.966
  364POPC   C4B 9298  34.371  33.192   7.596
  365POPC   NC3 9299   1.725  25.767   9.470
  365POPC   PO4 9300   2.315  26.034   9.537
  365POPC   GL1 9301   2.048  26.102   9.206
  365POPC   GL2 9302   2.114  25.756   9.135
  365POPC   C1A 9303   1.791  26.096   8.837
  365POPC   D2A 9304   1.749  25.829   8.476
  365POPC   C3A 9305   1.891  26.021   8.119
  365POPC   C4A 9306   1.787  25.982   7.708
  365POPC   C1B 9307   2.212  25.826   8.736
  365POPC   C2B 9308   2.302  25.811   8.322
  365POPC   C3B 9309   2.308  25.820   7.880
  365POPC   C4B 9310   2.147  25.698   7.472
  366POPC   NC3 9311  31.882  40.034   9.514
  366POPC   PO4 9312  32.509  39.821   9.535
  366POPC   GL1 9313  32.306  40.063   9.174
  366POPC   GL2 9314  31.993  39.964   9.025
  366POPC   C1A 9315  32.367  40.070   8.701
  366POPC   D2A 9316  32.210  39.864   8.315
  366POPC   C3A 9317  32.093  40.161   8.034
  366POPC   C4A 9318  32.334  40.356   7.715
  366POPC   C1B 9319  31.895  39.658   8.685
  366POPC   C2B 9320  31.921  39.418   8.288
  366POPC   C3B 9321  31.831  39.662   7.953
  366POPC   C4B 9322  31.779  39.991   7.681
  367POPC   NC3 9323   0.087  20.428   9.561
  367POPC   PO4 9324   0.596  20.895   9.502
  367POPC   GL1 9325   0.343  20.643   9.188
  367POPC   GL2 9326   0.590  20.659   9.021
  367POPC   C1A 9327   0.314  20.341   8.783
  367POPC   D2A 9328   0.197  20.190   8.373
  367POPC   C3A 9329   0.312  20.342   7.959
  367POPC   C4A 9330   0.069  20.369   7.547
  367POPC   C1B 9331   0.615  20.921   8.666
  367POPC   C2B 9332   0.732  20.740   8.289
  367POPC   C3B 9333   0.628  20.755   7.874
  367POPC   C4B 9334   0.544  20.525   7.535
  368POPC   NC3 9335   0.803  38.218   9.347
  368POPC   PO4 9336   1.414  38.578   9.431
  368POPC   GL1 9337   1.170  38.524   9.115
  368POPC   GL2 9338   1.271  38.192   9.085
  368POPC   C1A 9339   1.105  38.465   8.696
  368POPC   D2A 9340   0.984  38.185   8.387
  368POPC   C3A 9341   1.078  38.415   8.042
  368POPC   C4A 9342   1.177  38.348   7.645
  368POPC   C1B 9343   1.477  38.107   8.709
  368POPC   C2B 9344   1.466  37.982   8.305
  368POPC   C3B 9345   1.425  37.952   7.911
  368POPC   C4B 9346   1.674  38.197   7.676
  369POPC   NC3 9347  44.873  35.903   9.450
  369POPC   PO4 9348  44.467  36.488   9.595
  369POPC   GL1 9349  44.514  36.215   9.291
  369POPC   GL2 9350  44.700  36.406   9.113
  369POPC   C1A 9351  44.520  35.952   8.905
  369POPC   D2A 9352  44.400  35.974   8.491
  369POPC   C3A 9353  44.650  35.783   8.164
  369POPC   C4A 9354  44.719  35.860   7.741
  369POPC   C1B 9355  44.854  36.310   8.748
  369POPC   C2B 9356  44.823  36.236   8.335
  369POPC   C3B 9357  44.760  36.347   7.915
  369POPC   C4B 9358   0.061  36.581   7.709
  370POPC   NC3 9359  22.342  40.397   9.444
  370POPC   PO4 9360  22.015  41.066   9.533
  370POPC   GL1 9361  22.028  40.755   9.157
  370POPC   GL2 9362  22.374  40.680   9.032
  370POPC   C1A 9363  22.022  40.696   8.676
  370POPC   D2A 9364  22.171  40.510   8.272
  370POPC   C3A 9365  22.005  40.566   7.823
  370POPC   C4A 9366  21.905  40.924   7.482
  370POPC   C1B 9367  22.546  40.509   8.652
  370POPC   C2B 9368  22.689  40.521   8.234
  370POPC   C3B 9369  22.503  40.329   7.886
  370POPC   C4B 9370  22.556  40.344   7.466
  371POPC   NC3 9371   2.851  27.154   9.952
  371POPC   PO4 9372   2.530  26.603   9.719
  371POPC   GL1 9373   2.467  26.625   9.228
  371POPC   GL2 9374   2.529  26.993   9.173
  371POPC   C1A 9375   2.669  26.615   8.776
  371POPC   D2A 9376   2.647  26.854   8.354
  371POPC   C3A 9377   2.681  26.798   7.881
  371POPC   C4A 9378   2.927  26.629   7.548
  371POPC   C1B 9379   2.718  27.137   8.766
  371POPC   C2B 9380   2.959  27.274   8.377
  371POPC   C3B 9381   3.083  27.145   7.975
  371POPC   C4B 9382   2.868  27.214   7.611
  372POPC   NC3 9383  34.054  19.194   9.372
  372POPC   PO4 9384  33.455  19.427   9.478
  372POPC   GL1 9385  33.595  19.175   9.108
  372POPC   GL2 9386  33.708  18.830   9.217
  372POPC   C1A 9387  33.737  19.165   8.664
  372POPC   D2A 9388  33.842  19.388   8.264
  372POPC   C3A 9389  33.926  19.183   7.887
  372POPC   C4A 9390  33.627  19.373   7.667
  372POPC   C1B 9391  33.625  18.681   8.805
  372POPC   C2B 9392  33.735  18.544   8.379
  372POPC   C3B 9393  33.692  18.561   7.918
  372POPC   C4B 9394  33.871  18.666   7.492
  373POPC   NC3 9395  38.091   1.808   9.510
  373POPC   PO4 9396  38.621   2.189   9.699
  373POPC   GL1 9397  38.491   2.189   9.224
  373POPC   GL2 9398  38.191   1.985   9.065
  373POPC   C1A 9399  38.461   2.242   8.760
  373POPC   D2A 9400  38.342   2.053   8.362
  373POPC   C3A 9401  38.518   2.164   7.949
  373POPC   C4A 9402  38.521   2.142   7.492
  373POPC   C1B 9403  38.499   1.711   8.909
  373POPC   C2B 9404  38.514   1.567   8.500
  373POPC   C3B 9405  38.447   1.641   8.076
  373POPC   C4B 9406  38.693   1.674   7.736
  374POPC   NC3 9407  12.706  11.256   9.372
  374POPC   PO4 9408  13.194  11.592   9.293
  374POPC   GL1 9409  12.941  11.479   8.982
  374POPC   GL2 9410  12.925  11.115   8.930
  374POPC   C1A 9411  12.901  11.492   8.564
  374POPC   D2A 9412  12.595  11.376   8.293
  374POPC   C3A 9413  12.735  11.519   7.916
  374POPC   C4A 9414  13.186  11.672   7.899
  374POPC   C1B 9415  12.541  10.977   8.731
  374POPC   C2B 9416  12.410  10.796   8.343
  374POPC   C3B 9417  12.623  10.975   7.993
  374POPC   C4B 9418  12.746  11.043   7.602
  375POPC   NC3 9419  33.807  37.503   9.581
  375POPC   PO4 9420  33.670  36.821   9.543
  375POPC   GL1 9421  33.850  36.877   9.169
  375POPC   GL2 9422  33.977  37.209   9.190
  375POPC   C1A 9423  33.665  37.099   8.810
  375POPC   D2A 9424  33.653  37.028   8.393
  375POPC   C3A 9425  33.452  37.229   8.054
  375POPC   C4A 9426  33.547  36.942   7.723
  375POPC   C1B 9427  34.220  37.035   8.860
  375POPC   C2B 9428  34.195  36.970   8.431
  375POPC   C3B 9429  33.991  36.875   8.031
  375POPC   C4B 9430  34.067  36.929   7.584
  376POPC   NC3 9431  35.591  33.502   9.451
  376POPC   PO4 9432  34.993  33.757   9.564
  376POPC   GL1 9433  35.242  33.757   9.195
  376POPC   GL2 9434  35.241  34.065   9.045
  376POPC   C1A 9435  35.495  33.667   8.789
  376POPC   D2A 9436  35.360  33.589   8.343
  376POPC   C3A 9437  35.490  33.854   7.958
  376POPC   C4A 9438  35.476  33.933   7.480
  376POPC   C1B 9439  34.985  33.749   8.772
  376POPC   C2B 9440  34.843  33.818   8.363
  376POPC   C3B 9441  35.003  33.694   7.982
  376POPC   C4B 9442  35.011  33.872   7.600
  377POPC   NC3 9443   3.425  18.235   9.433
  377POPC   PO4 9444   4.010  18.675   9.483
  377POPC   GL1 9445   3.650  18.605   9.106
  377POPC   GL2 9446   3.449  18.276   8.935
  377POPC   C1A 9447   3.606  18.610   8.620
  377POPC   D2A 9448   3.547  18.206   8.388
  377POPC   C3A 9449   3.821  18.267   8.034
  377POPC   C4A 9450   3.680  18.591   7.752
  377POPC   C1B 9451   3.104  17.992   8.794
  377POPC   C2B 9452   3.071  17.737   8.391
  377POPC   C3B 9453   3.075  17.858   7.983
  377POPC   C4B 9454   3.405  18.090   7.772
  378POPC   NC3 9455  34.263  19.922   9.460
  378POPC   PO4 9456  33.668  20.214   9.592
  378POPC   GL1 9457  33.603  20.034   9.162
  378POPC   GL2 9458  33.778  19.691   9.133
  378POPC   C1A 9459  33.632  19.991   8.722
  378POPC   D2A 9460  33.482  19.765   8.354
  378POPC   C3A 9461  33.668  19.806   7.957
  378POPC   C4A 9462  33.833  20.046   7.622
  378POPC   C1B 9463  33.963  19.636   8.689
  378POPC   C2B 9464  33.998  19.897   8.338
  378POPC   C3B 9465  34.198  19.798   7.958
  378POPC   C4B 9466  34.099  19.600   7.580
  379POPC   NC3 9467  43.578  14.863   9.605
  379POPC   PO4 9468  43.763  14.221   9.475
  379POPC   GL1 9469  43.900  14.436   9.145
  379POPC   GL2 9470  44.159  14.692   9.299
  379POPC   C1A 9471  44.024  14.261   8.752
  379POPC   D2A 9472  44.336  14.340   8.426
  379POPC   C3A 9473  44.123  14.347   8.017
  379POPC   C4A 9474  43.688  14.161   7.884
  379POPC   C1B 9475  44.261  14.679   8.872
  379POPC   C2B 9476  43.964  14.730   8.542
  379POPC   C3B 9477  43.913  14.805   8.126
  379POPC   C4B 9478  43.624  14.956   7.848
  380POPC   NC3 9479   6.003   8.305   9.574
  380POPC   PO4 9480   5.553   7.801   9.318
  380POPC   GL1 9481   5.882   8.112   9.123
  380POPC   GL2 9482   5.719   8.432   9.157
  380POPC   C1A 9483   5.952   8.396   8.711
  380POPC   D2A 9484   6.091   8.343   8.274
  380POPC   C3A 9485   5.996   7.937   8.076
  380POPC   C4A 9486   5.948   7.824   7.640
  380POPC   C1B 9487   5.518   8.147   8.798
  380POPC   C2B 9488   5.599   8.093   8.386
  380POPC   C3B 9489   5.614   8.355   8.045
  380POPC   C4B 9490   5.701   8.263   7.650
  381POPC   NC3 9491   5.532  16.142   9.511
  381POPC   PO4 9492   5.139  15.537   9.529
  381POPC   GL1 9493   5.287  15.796   9.216
  381POPC   GL2 9494   5.003  16.025   9.170
  381POPC   C1A 9495   5.392  16.019   8.832
  381POPC   D2A 9496   5.339  15.778   8.465
  381POPC   C3A 9497   5.180  15.857   8.076
  381POPC   C4A 9498   5.276  15.725   7.665
  381POPC   C1B 9499   4.941  15.757   8.810
  381POPC   C2B 9500   4.776  15.829   8.396
  381POPC   C3B 9501   4.741  16.103   8.046
  381POPC   C4B 9502   4.895  16.064   7.662
  382POPC   NC3 9503  27.345  12.975   9.470
  382POPC   PO4 9504  27.905  12.531   9.458
  382POPC   GL1 9505  27.892  12.911   9.157
  382POPC   GL2 9506  27.573  13.029   9.014
  382POPC   C1A 9507  28.018  13.138   8.782
  382POPC   D2A 9508  27.730  13.075   8.448
  382POPC   C3A 9509  27.858  12.911   8.055
  382POPC   C4A 9510  27.828  12.702   7.673
  382POPC   C1B 9511  27.268  12.972   8.665
  382POPC   C2B 9512  27.250  13.152   8.226
  382POPC   C3B 9513  27.398  13.000   7.791
  382POPC   C4B 9514  27.314  12.627   7.492
  383POPC   NC3 9515  21.079  35.745   9.427
  383POPC   PO4 9516  21.331  36.299   9.689
  383POPC   GL1 9517  21.350  36.169   9.218
  383POPC   GL2 9518  21.369  35.853   9.047
  383POPC   C1A 9519  21.463  36.263   8.763
  383POPC   D2A 9520  21.205  36.282   8.415
  383POPC   C3A 9521  21.251  36.463   8.047
  383POPC   C4A 9522  21.433  36.271   7.633
  383POPC   C1B 9523  21.112  35.859   8.692
  383POPC   C2B 9524  21.085  35.714   8.277
  383POPC   C3B 9525  21.283  35.890   7.935
  383POPC   C4B 9526  21.626  35.769   7.688
  384POPC   NC3 9527  21.674   3.593   9.602
  384POPC   PO4 9528  21.158   3.266   9.511
  384POPC   GL1 9529  21.110   3.613   9.215
  384POPC   GL2 9530  21.415   3.842   9.208
  384POPC   C1A 9531  21.269   3.529   8.804
  384POPC   D2A 9532  21.130   3.592   8.392
  384POPC   C3A 9533  21.082   3.230   8.116
  384POPC   C4A 9534  21.323   3.095   7.753
  384POPC   C1B 9535  21.624   3.899   8.791
  384POPC   C2B 9536  21.647   3.640   8.413
  384POPC   C3B 9537  21.467   3.572   8.004
  384POPC   C4B 9538  21.746   3.436   7.712
  385POPC   NC3 9539   8.702  38.960   9.734
  385POPC   PO4 9540   9.041  38.469   9.483
  385POPC   GL1 9541   9.235  38.478   9.116
  385POPC   GL2 9542   9.353  38.792   9.137
  385POPC   C1A 9543   9.075  38.441   8.711
  385POPC   D2A 9544   9.275  38.398   8.328
  385POPC   C3A 9545   9.010  38.405   7.984
  385POPC   C4A 9546   8.667  38.117   8.010
  385POPC   C1B 9547   8.973  38.915   8.900
  385POPC   C2B 9548   8.747  38.798   8.506
  385POPC   C3B 9549   8.796  38.876   8.074
  385POPC   C4B 9550   9.057  38.870   7.701
  386POPC   NC3 9551   0.204  27.757   9.704
  386POPC   PO4 9552   0.864  27.601   9.720
  386POPC   GL1 9553   0.680  27.674   9.299
  386POPC   GL2 9554   0.502  27.370   9.264
  386POPC   C1A 9555   0.652  27.835   8.869
  386POPC   D2A 9556   0.689  27.616   8.425
  386POPC   C3A 9557   0.498  27.712   7.989
  386POPC   C4A 9558   0.442  27.336   7.697
  386POPC   C1B 9559   0.294  27.488   8.875
  386POPC   C2B 9560   0.183  27.637   8.466
  386POPC   C3B 9561   0.067  27.479   8.059
  386POPC   C4B 9562   0.039  27.658   7.650
  387POPC   NC3 9563  37.859   4.331   9.833
  387POPC   PO4 9564  37.468   4.051   9.342
  387POPC   GL1 9565  37.513   4.308   9.010
  387POPC   GL2 9566  37.303   4.517   9.051
  387POPC   C1A 9567  37.782   4.324   8.651
  387POPC   D2A 9568  37.934   4.018   8.356
  387POPC   C3A 9569  37.982   4.245   8.006
  387POPC   C4A 9570  37.888   4.189   7.573
  387POPC   C1B 9571  37.260   4.338   8.592
  387POPC   C2B 9572  37.499   4.444   8.244
  387POPC   C3B 9573  37.487   4.358   7.826
  387POPC   C4B 9574  37.343   4.074   7.526
  388POPC   NC3 9575   2.934   1.970   9.415
  388POPC   PO4 9576   2.219   1.749   9.463
  388POPC   GL1 9577   2.470   1.937   9.138
  388POPC   GL2 9578   2.780   1.792   8.969
  388POPC   C1A 9579   2.522   2.180   8.777
  388POPC   D2A 9580   2.879   2.189   8.477
  388POPC   C3A 9581   2.711   2.129   8.072
  388POPC   C4A 9582   2.621   2.311   7.694
  388POPC   C1B 9583   2.984   1.507   8.684
  388POPC   C2B 9584   3.158   1.699   8.336
  388POPC   C3B 9585   3.036   1.757   7.941
  388POPC   C4B 9586   2.721   1.825   7.610
  389POPC   NC3 9587  42.077  20.556   9.613
  389POPC   PO4 9588  41.395  20.662   9.634
  389POPC   GL1 9589  41.547  20.691   9.257
  389POPC   GL2 9590  41.232  20.589   9.127
  389POPC   C1A 9591  41.746  20.836   8.904
  389POPC   D2A 9592  41.872  20.671   8.524
  389POPC   C3A 9593  41.749  20.801   8.133
  389POPC   C4A 9594  41.802  20.567   7.757
  389POPC   C1B 9595  41.337  20.552   8.687
  389POPC   C2B 9596  41.161  20.651   8.252
  389POPC   C3B 9597  41.292  20.631   7.811
  389POPC   C4B 9598  41.177  20.458   7.397
  390POPC   NC3 9599  26.328  40.160   9.431
  390POPC   PO4 9600  25.749  39.832   9.525
  390POPC   GL1 9601  25.738  40.166   9.198
  390POPC   GL2 9602  26.005  40.468   9.203
  390POPC   C1A 9603  25.854  40.031   8.778
  390POPC   D2A 9604  25.868  39.752   8.417
  390POPC   C3A 9605  25.788  39.924   7.994
  390POPC   C4A 9606  25.995  39.846   7.574
  390POPC   C1B 9607  26.222  40.388   8.763
  390POPC   C2B 9608  26.114  40.217   8.331
  390POPC   C3B 9609  26.218  40.198   7.879
  390POPC   C4B 9610  26.299  40.216   7.377
  391POPC   NC3 9611  33.932  36.430   9.529
  391POPC   PO4 9612  33.378  36.034   9.567
  391POPC   GL1 9613  33.706  36.000   9.172
  391POPC   GL2 9614  33.924  36.288   9.047
  391POPC   C1A 9615  33.653  36.091   8.685
  391POPC   D2A 9616  33.637  36.311   8.253
  391POPC   C3A 9617  33.521  36.026   7.890
  391POPC   C4A 9618  33.261  35.762   7.622
  391POPC   C1B 9619  34.211  36.038   8.751
  391POPC   C2B 9620  34.227  35.781   8.383
  391POPC   C3B 9621  34.038  36.016   8.049
  391POPC   C4B 9622  33.975  36.105   7.605
  392POPC   NC3 9623  22.365  37.229   9.584
  392POPC   PO4 9624  22.104  36.724   9.481
  392POPC   GL1 9625  22.204  36.853   9.114
  392POPC   GL2 9626  22.488  37.066   9.130
  392POPC   C1A 9627  22.009  36.830   8.722
  392POPC   D2A 9628  21.758  36.599   8.423
  392POPC   C3A 9629  22.002  36.636   8.079
  392POPC   C4A 9630  22.060  36.853   7.708
  392POPC   C1B 9631  22.562  36.828   8.764
  392POPC   C2B 9632  22.372  36.864   8.359
  392POPC   C3B 9633  22.499  36.849   7.948
  392POPC   C4B 9634  22.522  37.091   7.558
  393POPC   NC3 9635   6.365  15.590   9.481
  393POPC   PO4 9636   6.960  15.201   9.506
  393POPC   GL1 9637   6.641  15.358   9.138
  393POPC   GL2 9638   6.739  15.702   9.113
  393POPC   C1A 9639   6.461  15.154   8.731
  393POPC   D2A 9640   6.465  14.838   8.382
  393POPC   C3A 9641   6.518  15.036   7.958
  393POPC   C4A 9642   6.657  15.038   7.511
  393POPC   C1B 9643   6.848  15.500   8.711
  393POPC   C2B 9644   6.765  15.299   8.354
  393POPC   C3B 9645   6.835  15.434   7.984
  393POPC   C4B 9646   6.558  15.502   7.666
  394POPC   NC3 9647  33.634  22.427   9.565
  394POPC   PO4 9648  33.935  21.913   9.716
  394POPC   GL1 9649  33.821  22.049   9.240
  394POPC   GL2 9650  33.841  22.363   9.111
  394POPC   C1A 9651  33.873  21.984   8.771
  394POPC   D2A 9652  34.171  22.143   8.453
  394POPC   C3A 9653  34.051  22.035   8.071
  394POPC   C4A 9654  34.060  22.053   7.640
  394POPC   C1B 9655  33.880  22.506   8.715
  394POPC   C2B 9656  33.718  22.325   8.344
  394POPC   C3B 9657  33.782  22.513   7.958
  394POPC   C4B 9658  33.956  22.531   7.559
  395POPC   NC3 9659  35.189  34.189   9.541
  395POPC   PO4 9660  35.494  34.766   9.737
  395POPC   GL1 9661  35.218  34.611   9.297
  395POPC   GL2 9662  35.003  34.860   9.158
  395POPC   C1A 9663  35.433  34.490   8.815
  395POPC   D2A 9664  35.708  34.660   8.500
  395POPC   C3A 9665  35.524  34.681   8.099
  395POPC   C4A 9666  35.721  34.791   7.694
  395POPC   C1B 9667  34.950  34.484   8.896
  395POPC   C2B 9668  35.126  34.197   8.558
  395POPC   C3B 9669  35.153  34.204   8.125
  395POPC   C4B 9670  35.333  34.343   7.769
  396POPC   NC3 9671  44.120   2.609   9.515
  396POPC   PO4 9672  43.483   2.637   9.360
  396POPC   GL1 9673  43.694   2.841   9.106
  396POPC   GL2 9674  43.959   2.671   9.054
  396POPC   C1A 9675  43.629   2.975   8.699
  396POPC   D2A 9676  43.837   2.977   8.298
  396POPC   C3A 9677  43.728   2.786   7.919
  396POPC   C4A 9678  43.584   2.920   7.491
  396POPC   C1B 9679  44.124   2.823   8.709
  396POPC   C2B 9680  44.335   2.856   8.324
  396POPC   C3B 9681  44.209   3.037   7.924
  396POPC   C4B 9682  44.339   3.429   7.694
  397POPC   NC3 9683  34.227  42.333   9.311
  397POPC   PO4 9684  34.901  41.977   9.489
  397POPC   GL1 9685  34.794  42.191   9.137
  397POPC   GL2 9686  34.528  41.991   9.030
  397POPC   C1A 9687  34.723  42.401   8.725
  397POPC   D2A 9688  34.443  42.474   8.346
  397POPC   C3A 9689  34.702  42.504   7.972
  397POPC   C4A 9690  35.014  42.197   7.902
  397POPC   C1B 9691  34.335  42.086   8.680
  397POPC   C2B 9692  34.585  41.976   8.340
  397POPC   C3B 9693  34.470  42.054   7.971
  397POPC   C4B 9694  34.230  42.364   7.886
  398POPC   NC3 9695  42.948  20.975   9.358
  398POPC   PO4 9696  43.131  21.580   9.535
  398POPC   GL1 9697  43.196  21.373   9.140
  398POPC   GL2 9698  43.474  21.104   9.171
  398POPC   C1A 9699  42.942  21.327   8.741
  398POPC   D2A 9700  43.035  21.461   8.309
  398POPC   C3A 9701  42.863  21.354   7.877
  398POPC   C4A 9702  43.103  21.488   7.503
  398POPC   C1B 9703  43.433  21.192   8.730
  398POPC   C2B 9704  43.510  21.256   8.327
  398POPC   C3B 9705  43.367  21.267   7.925
  398POPC   C4B 9706  43.448  21.052   7.573
  399POPC   NC3 9707  34.269  30.994   9.654
  399POPC   PO4 9708  33.759  30.592   9.541
  399POPC   GL1 9709  33.955  30.797   9.246
  399POPC   GL2 9710  33.679  30.989   9.109
  399POPC   C1A 9711  33.987  30.632   8.844
  399POPC   D2A 9712  33.854  30.803   8.483
  399POPC   C3A 9713  33.959  30.562   8.133
  399POPC   C4A 9714  33.727  30.629   7.758
  399POPC   C1B 9715  33.424  31.056   8.775
  399POPC   C2B 9716  33.390  30.944   8.354
  399POPC   C3B 9717  33.521  31.082   7.974
  399POPC   C4B 9718  33.412  30.981   7.555
  400POPC   NC3 9719  16.135   0.369   9.639
  400POPC   PO4 9720  15.668   0.715   9.348
  400POPC   GL1 9721  16.005   0.483   9.119
  400POPC   GL2 9722  16.066   0.125   9.117
  400POPC   C1A 9723  16.090   0.653   8.721
  400POPC   D2A 9724  15.952   0.537   8.325
  400POPC   C3A 9725  15.967   0.778   7.940
  400POPC   C4A 9726  15.729   0.726   7.545
  400POPC   C1B 9727  16.313   0.184   8.694
  400POPC   C2B 9728  16.311   0.203   8.223
  400POPC   C3B 9729  15.967   0.265   7.887
  400POPC   C4B 9730  15.867   0.180   7.446
  401POPC   NC3 9731   8.773  40.448   9.297
  401POPC   PO4 9732   9.299  40.681   9.634
  401POPC   GL1 9733   9.061  40.879   9.230
  401POPC   GL2 9734   8.715  40.906   9.071
  401POPC   C1A 9735   9.107  40.896   8.746
  401POPC   D2A 9736   8.933  40.959   8.311
  401POPC   C3A 9737   8.971  40.700   7.964
  401POPC   C4A 9738   9.324  40.513   7.761
  401POPC   C1B 9739   8.632  40.700   8.648
  401POPC   C2B 9740   8.489  40.694   8.175
  401POPC   C3B 9741   8.545  40.573   7.699
  401POPC   C4B 9742   8.498  40.413   7.221
  402POPC   NC3 9743   5.186  43.712   9.354
  402POPC   PO4 9744   4.887  44.170   9.734
  402POPC   GL1 9745   5.173  44.205   9.194
  402POPC   GL2 9746   5.113  43.923   8.908
  402POPC   C1A 9747   5.443  44.268   8.801
  402POPC   D2A 9748   5.221  44.050   8.445
  402POPC   C3A 9749   5.310  44.042   8.020
  402POPC   C4A 9750   5.017  43.908   7.723
  402POPC   C1B 9751   4.859  43.603   8.677
  402POPC   C2B 9752   4.922  43.393   8.280
  402POPC   C3B 9753   4.793  43.488   7.875
  402POPC   C4B 9754   4.759  43.600   7.419
  403POPC   NC3 9755  29.207  28.659   9.604
  403POPC   PO4 9756  29.201  28.008   9.730
  403POPC   GL1 9757  29.128  28.223   9.327
  403POPC   GL2 9758  29.064  27.941   9.135
  403POPC   C1A 9759  29.205  28.526   8.964
  403POPC   D2A 9760  29.115  28.647   8.469
  403POPC   C3A 9761  29.152  28.410   8.067
  403POPC   C4A 9762  29.281  28.446   7.618
  403POPC   C1B 9763  29.259  28.075   8.753
  403POPC   C2B 9764  29.472  28.108   8.372
  403POPC   C3B 9765  29.417  27.966   7.968
  403POPC   C4B 9766  29.103  27.970   7.643
  404POPC   NC3 9767  11.522  12.452   9.461
  404POPC   PO4 9768  11.104  12.870   9.759
  404POPC   GL1 9769  11.132  12.873   9.289
  404POPC   GL2 9770  10.901  12.684   9.071
  404POPC   C1A 9771  11.282  12.897   8.835
  404POPC   D2A 9772  11.369  12.700   8.402
  404POPC   C3A 9773  11.314  12.904   7.981
  404POPC   C4A 9774  11.549  13.104   7.619
  404POPC   C1B 9775  10.932  12.569   8.656
  404POPC   C2B 9776  10.901  12.662   8.222
  404POPC   C3B 9777  11.028  12.487   7.815
  404POPC   C4B 9778  11.382  12.593   7.565
  405POPC   NC3 9779  21.131  32.863   9.504
  405POPC   PO4 9780  21.702  33.207   9.677
  405POPC   GL1 9781  21.485  33.185   9.201
  405POPC   GL2 9782  21.129  33.295   9.182
  405POPC   C1A 9783  21.575  32.959   8.801
  405POPC   D2A 9784  21.396  32.650   8.520
  405POPC   C3A 9785  21.610  32.778   8.140
  405POPC   C4A 9786  21.510  32.856   7.746
  405POPC   C1B 9787  21.191  33.288   8.720
  405POPC   C2B 9788  21.309  33.327   8.270
  405POPC   C3B 9789  21.323  33.318   7.816
  405POPC   C4B 9790  20.999  33.294   7.474
  406POPC   NC3 9791  36.323  33.743   9.569
  406POPC   PO4 9792  35.659  33.997   9.416
  406POPC   GL1 9793  35.988  33.742   9.154
  406POPC   GL2 9794  36.330  33.539   9.119
  406POPC   C1A 9795  36.022  33.629   8.712
  406POPC   D2A 9796  35.864  33.752   8.313
  406POPC   C3A 9797  36.136  33.926   8.008
  406POPC   C4A 9798  36.228  33.901   7.554
  406POPC   C1B 9799  36.576  33.594   8.765
  406POPC   C2B 9800  36.423  33.649   8.360
  406POPC   C3B 9801  36.227  33.436   8.044
  406POPC   C4B 9802  36.259  33.299   7.629
  407POPC   NC3 9803  32.788  35.016   9.309
  407POPC   PO4 9804  32.922  35.704   9.275
  407POPC   GL1 9805  32.997  35.368   9.016
  407POPC   GL2 9806  33.337  35.211   9.035
  407POPC   C1A 9807  32.737  35.297   8.650
  407POPC   D2A 9808  32.833  35.674   8.422
  407POPC   C3A 9809  32.930  35.648   7.992
  407POPC   C4A 9810  32.990  35.296   7.702
  407POPC   C1B 9811  33.222  35.132   8.623
  407POPC   C2B 9812  33.038  34.941   8.266
  407POPC   C3B 9813  33.308  34.974   7.930
  407POPC   C4B 9814  33.501  35.370   7.799
  408POPC   NC3 9815  17.913  17.349   9.533
  408POPC   PO4 9816  18.512  17.549   9.725
  408POPC   GL1 9817  18.401  17.558   9.242
  408POPC   GL2 9818  18.168  17.302   9.096
  408POPC   C1A 9819  18.577  17.388   8.829
  408POPC   D2A 9820  18.440  17.193   8.409
  408POPC   C3A 9821  18.396  17.448   8.042
  408POPC   C4A 9822  18.499  17.626   7.636
  408POPC   C1B 9823  18.104  17.491   8.636
  408POPC   C2B 9824  17.897  17.526   8.215
  408POPC   C3B 9825  17.921  17.387   7.759
  408POPC   C4B 9826  17.828  17.323   7.325
  409POPC   NC3 9827  27.818  25.916   9.487
  409POPC   PO4 9828  27.601  26.597   9.455
  409POPC   GL1 9829  27.710  26.296   9.183
  409POPC   GL2 9830  27.409  26.091   9.189
  409POPC   C1A 9831  27.790  26.095   8.790
  409POPC   D2A 9832  27.753  26.361   8.429
  409POPC   C3A 9833  27.834  26.227   8.019
  409POPC   C4A 9834  27.856  25.818   7.807
  409POPC   C1B 9835  27.361  26.364   8.823
  409POPC   C2B 9836  27.249  26.196   8.440
  409POPC   C3B 9837  27.466  25.933   8.179
  409POPC   C4B 9838  27.425  26.060   7.756
  410POPC   NC3 9839  41.687   2.871   9.677
  410POPC   PO4 9840  41.099   2.538   9.486
  410POPC   GL1 9841  41.280   2.790   9.141
  410POPC   GL2 9842  41.645   2.790   9.177
  410POPC   C1A 9843  41.464   2.770   8.710
  410POPC   D2A 9844  41.483   2.997   8.316
  410POPC   C3A 9845  41.581   2.684   8.026
  410POPC   C4A 9846  41.437   2.662   7.634
  410POPC   C1B 9847  41.871   3.042   8.864
  410POPC   C2B 9848  41.961   2.879   8.451
  410POPC   C3B 9849  41.949   3.040   8.049
  410POPC   C4B 9850  41.748   3.072   7.667
  411POPC   NC3 9851  14.408  10.985   9.456
  411POPC   PO4 9852  14.135  11.610   9.290
  411POPC   GL1 9853  14.229  11.260   9.048
  411POPC   GL2 9854  14.568  11.258   9.046
  411POPC   C1A 9855  14.321  11.249   8.608
  411POPC   D2A 9856  14.281  11.626   8.360
  411POPC   C3A 9857  14.263  11.486   7.966
  411POPC   C4A 9858  14.288  11.081   7.883
  411POPC   C1B 9859  14.680  11.586   8.772
  411POPC   C2B 9860  14.768  11.427   8.391
  411POPC   C3B 9861  14.752  11.332   7.999
  411POPC   C4B 9862  15.045  11.480   7.754
  412POPC   NC3 9863  18.914  29.570   9.416
  412POPC   PO4 9864  19.168  30.151   9.548
  412POPC   GL1 9865  19.297  30.051   9.120
  412POPC   GL2 9866  19.454  30.355   9.000
  412POPC   C1A 9867  19.335  29.795   8.708
  412POPC   D2A 9868  19.458  29.563   8.306
  412POPC   C3A 9869  19.236  29.727   7.930
  412POPC   C4A 9870  18.800  29.879   7.834
  412POPC   C1B 9871  19.183  30.282   8.676
  412POPC   C2B 9872  19.151  30.103   8.292
  412POPC   C3B 9873  19.300  30.238   7.910
  412POPC   C4B 9874  18.960  30.321   7.660
  413POPC   NC3 9875   3.359  43.653   9.485
  413POPC   PO4 9876   3.895  44.122   9.622
  413POPC   GL1 9877   3.574  44.124   9.294
  413POPC   GL2 9878   3.665  43.842   9.110
  413POPC   C1A 9879   3.451  44.220   8.843
  413POPC   D2A 9880   3.385  44.007   8.441
  413POPC   C3A 9881   3.392  44.178   8.032
  413POPC   C4A 9882   3.529  43.938   7.687
  413POPC   C1B 9883   3.316  43.701   8.835
  413POPC   C2B 9884   3.334  43.479   8.437
  413POPC   C3B 9885   3.239  43.691   8.055
  413POPC   C4B 9886   3.095  43.636   7.631
  414POPC   NC3 9887  27.343  34.392   9.600
  414POPC   PO4 9888  27.666  35.004   9.468
  414POPC   GL1 9889  27.659  34.788   9.073
  414POPC   GL2 9890  27.483  34.485   9.104
  414POPC   C1A 9891  27.675  34.943   8.671
  414POPC   D2A 9892  27.724  34.813   8.270
  414POPC   C3A 9893  27.565  34.454   8.083
  414POPC   C4A 9894  27.588  34.446   7.653
  414POPC   C1B 9895  27.235  34.651   8.734
  414POPC   C2B 9896  27.027  34.570   8.331
  414POPC   C3B 9897  27.079  34.491   7.918
  414POPC   C4B 9898  27.091  34.514   7.514
  415POPC   NC3 9899  11.003  21.246   9.621
  415POPC   PO4 9900  11.424  21.736   9.524
  415POPC   GL1 9901  11.253  21.488   9.187
  415POPC   GL2 9902  10.928  21.608   9.137
  415POPC   C1A 9903  11.174  21.329   8.754
  415POPC   D2A 9904  11.274  21.168   8.321
  415POPC   C3A 9905  11.290  21.397   7.943
  415POPC   C4A 9906  11.212  21.812   7.884
  415POPC   C1B 9907  10.939  21.848   8.761
  415POPC   C2B 9908  11.024  21.636   8.361
  415POPC   C3B 9909  10.789  21.475   8.021
  415POPC   C4B 9910  10.859  21.579   7.576
  416POPC   NC3 9911  11.201  36.368  10.074
  416POPC   PO4 9912  11.100  35.927   9.752
  416POPC   GL1 9913  11.089  35.952   9.252
  416POPC   GL2 9914  11.263  36.255   9.175
  416POPC   C1A 9915  11.301  35.855   8.842
  416POPC   D2A 9916  11.384  35.878   8.375
  416POPC   C3A 9917  11.106  35.877   7.995
  416POPC   C4A 9918  11.169  36.052   7.545
  416POPC   C1B 9919  11.062  36.294   8.762
  416POPC   C2B 9920  11.073  36.291   8.308
  416POPC   C3B 9921  10.928  36.360   7.880
  416POPC   C4B 9922  10.941  36.527   7.448
  417POPC   NC3 9923   9.623  28.848   9.452
  417POPC   PO4 9924   9.984  29.428   9.504
  417POPC   GL1 9925   9.895  29.153   9.157
  417POPC   GL2 9926  10.078  28.900   9.061
  417POPC   C1A 9927   9.627  29.044   8.793
  417POPC   D2A 9928   9.790  29.281   8.443
  417POPC   C3A 9929   9.644  29.234   8.030
  417POPC   C4A 9930   9.647  28.963   7.694
  417POPC   C1B 9931  10.054  28.839   8.620
  417POPC   C2B 9932   9.889  28.821   8.216
  417POPC   C3B 9933  10.170  28.857   7.883
  417POPC   C4B 9934  10.413  29.062   7.589
  418POPC   NC3 9935  26.234   1.711   9.595
  418POPC   PO4 9936  25.728   2.204   9.495
  418POPC   GL1 9937  25.840   2.084   9.133
  418POPC   GL2 9938  26.157   2.032   9.216
  418POPC   C1A 9939  25.742   1.977   8.740
  418POPC   D2A 9940  25.945   1.918   8.380
  418POPC   C3A 9941  25.747   2.017   8.025
  418POPC   C4A 9942  25.808   1.783   7.696
  418POPC   C1B 9943  26.252   1.885   8.817
  418POPC   C2B 9944  26.443   1.971   8.433
  418POPC   C3B 9945  26.302   2.060   8.017
  418POPC   C4B 9946  26.307   1.817   7.627
  419POPC   NC3 9947  12.081  13.187   9.298
  419POPC   PO4 9948  12.036  12.546   9.591
  419POPC   GL1 9949  11.903  12.711   9.208
  419POPC   GL2 9950  12.256  12.706   9.136
  419POPC   C1A 9951  11.772  12.836   8.766
  419POPC   D2A 9952  11.595  13.143   8.460
  419POPC   C3A 9953  11.789  13.080   8.076
  419POPC   C4A 9954  11.838  12.711   7.799
  419POPC   C1B 9955  12.271  12.807   8.686
  419POPC   C2B 9956  12.101  12.703   8.276
  419POPC   C3B 9957  12.333  12.699   7.876
  419POPC   C4B 9958  12.484  12.947   7.518
  420POPC   NC3 9959  29.613  15.269   9.453
  420POPC   PO4 9960  30.334  15.347   9.476
  420POPC   GL1 9961  30.022  15.275   9.163
  420POPC   GL2 9962  29.856  14.943   9.139
  420POPC   C1A 9963  29.945  15.437   8.771
  420POPC   D2A 9964  30.125  15.290   8.398
  420POPC   C3A 9965  29.908  15.351   8.017
  420POPC   C4A 9966  29.681  15.345   7.664
  420POPC   C1B 9967  29.779  14.983   8.698
  420POPC   C2B 9968  29.599  15.128   8.355
  420POPC   C3B 9969  29.675  14.892   8.005
  420POPC   C4B 9970  29.931  14.915   7.666
  421POPC   NC3 9971  16.585  16.890   9.616
  421POPC   PO4 9972  17.261  16.913   9.627
  421POPC   GL1 9973  16.992  16.845   9.233
  421POPC   GL2 9974  16.719  16.592   9.236
  421POPC   C1A 9975  17.012  16.966   8.780
  421POPC   D2A 9976  16.996  16.767   8.375
  421POPC   C3A 9977  16.697  16.936   8.125
  421POPC   C4A 9978  16.454  17.093   7.829
  421POPC   C1B 9979  16.597  16.684   8.822
  421POPC   C2B 9980  16.543  16.504   8.419
  421POPC   C3B 9981  16.670  16.426   8.002
  421POPC   C4B 9982  16.523  16.392   7.596
  422POPC   NC3 9983  41.034  42.569   9.492
  422POPC   PO4 9984  40.880  41.932   9.498
  422POPC   GL1 9985  40.864  42.200   9.139
  422POPC   GL2 9986  40.625  42.516   9.158
  422POPC   C1A 9987  40.876  42.076   8.691
  422POPC   D2A 9988  40.656  42.082   8.299
  422POPC   C3A 9989  40.893  42.067   7.938
  422POPC   C4A 9990  40.771  42.004   7.505
  422POPC   C1B 9991  40.942  42.579   8.817
  422POPC   C2B 9992  41.026  42.476   8.381
  422POPC   C3B 9993  40.791  42.545   8.027
  422POPC   C4B 9994  40.765  42.521   7.610
  423POPC   NC3 9995  29.652  42.016   9.149
  423POPC   PO4 9996  30.099  42.292   9.608
  423POPC   GL1 9997  30.140  42.231   9.175
  423POPC   GL2 9998  29.985  42.545   9.085
  423POPC   C1A 9999  30.184  42.225   8.717
  423POPC   D2A10000  29.970  42.088   8.337
  423POPC   C3A10001  30.084  42.307   8.000
  423POPC   C4A10002  30.424  42.300   7.788
  423POPC   C1B10003  29.732  42.521   8.691
  423POPC   C2B10004  29.468  42.253   8.414
  423POPC   C3B10005  29.583  42.238   7.975
  423POPC   C4B10006  29.716  42.676   7.926
  424POPC   NC310007  29.817  37.174   9.524
  424POPC   PO410008  30.253  36.678   9.660
  424POPC   GL110009  30.138  36.861   9.208
  424POPC   GL210010  29.801  36.868   9.127
  424POPC   C1A10011  30.036  36.625   8.775
  424POPC   D2A10012  29.892  36.652   8.367
  424POPC   C3A10013  30.206  36.868   8.176
  424POPC   C4A10014  30.232  36.924   7.764
  424POPC   C1B10015  29.778  37.086   8.727
  424POPC   C2B10016  29.820  37.217   8.267
  424POPC   C3B10017  29.725  37.034   7.829
  424POPC   C4B10018  29.571  36.984   7.375
  425POPC   NC310019  28.802  15.838   9.584
  425POPC   PO410020  28.172  16.089   9.541
  425POPC   GL110021  28.454  15.911   9.205
  425POPC   GL210022  28.176  15.693   9.107
  425POPC   C1A10023  28.732  15.975   8.764
  425POPC   D2A10024  28.826  16.277   8.427
  425POPC   C3A10025  28.713  16.131   8.010
  425POPC   C4A10026  28.377  16.195   7.768
  425POPC   C1B10027  28.231  16.041   8.783
  425POPC   C2B10028  28.364  16.043   8.370
  425POPC   C3B10029  28.337  15.759   8.033
  425POPC   C4B10030  28.251  15.754   7.601
  426POPC   NC310031  44.267  29.148   9.398
  426POPC   PO410032  44.882  28.893   9.480
  426POPC   GL110033  44.711  29.174   9.155
  426POPC   GL210034  44.492  29.007   8.998
  426POPC   C1A10035  44.705  29.337   8.702
  426POPC   D2A10036  44.546  29.093   8.359
  426POPC   C3A10037  44.586  29.183   7.940
  426POPC   C4A10038  44.610  29.420   7.569
  426POPC   C1B10039  44.859  28.856   8.789
  426POPC   C2B10040   0.025  28.952   8.417
  426POPC   C3B10041  44.905  28.808   8.032
  426POPC   C4B10042  44.990  29.003   7.639
  427POPC   NC310043  35.182  42.516   9.432
  427POPC   PO410044  35.833  42.337   9.523
  427POPC   GL110045  35.593  42.318   9.119
  427POPC   GL210046  35.361  42.063   9.198
  427POPC   C1A10047  35.447  42.350   8.648
  427POPC   D2A10048  35.087  42.504   8.388
  427POPC   C3A10049  35.146  42.710   8.010
  427POPC   C4A10050  35.319  42.509   7.615
  427POPC   C1B10051  35.612  41.912   8.830
  427POPC   C2B10052  35.710  41.994   8.402
  427POPC   C3B10053  35.550  42.227   8.030
  427POPC   C4B10054  35.395  41.900   7.735
  428POPC   NC310055   2.732  26.210   9.626
  428POPC   PO410056   2.863  25.620   9.537
  428POPC   GL110057   2.657  25.772   9.137
  428POPC   GL210058   2.542  26.119   9.080
  428POPC   C1A10059   2.701  25.757   8.695
  428POPC   D2A10060   2.772  26.002   8.347
  428POPC   C3A10061   2.855  25.815   7.971
  428POPC   C4A10062   3.052  26.169   7.757
  428POPC   C1B10063   2.260  26.323   8.759
  428POPC   C2B10064   2.357  26.333   8.278
  428POPC   C3B10065   2.536  26.291   7.837
  428POPC   C4B10066   2.496  26.379   7.371
  429POPC   NC310067  31.483  15.341   9.531
  429POPC   PO410068  31.670  14.642   9.483
  429POPC   GL110069  31.625  14.988   9.157
  429POPC   GL210070  31.822  15.343   9.165
  429POPC   C1A10071  31.288  15.080   8.822
  429POPC   D2A10072  31.207  15.354   8.454
  429POPC   C3A10073  31.235  15.135   8.054
  429POPC   C4A10074  31.214  14.935   7.655
  429POPC   C1B10075  31.695  15.378   8.761
  429POPC   C2B10076  31.709  15.171   8.381
  429POPC   C3B10077  31.704  15.357   7.996
  429POPC   C4B10078  31.663  15.168   7.632
  430POPC   NC310079   7.210  19.217   9.457
  430POPC   PO410080   7.902  19.195   9.404
  430POPC   GL110081   7.613  19.178   9.096
  430POPC   GL210082   7.370  18.882   9.107
  430POPC   C1A10083   7.631  19.049   8.678
  430POPC   D2A10084   7.316  18.784   8.529
  430POPC   C3A10085   7.224  18.920   8.122
  430POPC   C4A10086   7.531  19.183   7.909
  430POPC   C1B10087   7.162  19.183   8.818
  430POPC   C2B10088   7.109  19.327   8.432
  430POPC   C3B10089   6.948  19.372   8.060
  430POPC   C4B10090   7.167  19.462   7.692
  431POPC   NC310091  25.769  43.193   9.576
  431POPC   PO410092  26.394  43.337   9.467
  431POPC   GL110093  26.121  43.287   9.122
  431POPC   GL210094  25.758  43.338   9.073
  431POPC   C1A10095  26.152  43.062   8.744
  431POPC   D2A10096  26.292  43.225   8.373
  431POPC   C3A10097  26.245  42.956   8.053
  431POPC   C4A10098  26.106  43.208   7.744
  431POPC   C1B10099  25.650  42.945   8.831
  431POPC   C2B10100  25.783  42.772   8.394
  431POPC   C3B10101  25.742  42.875   7.928
  431POPC   C4B10102  25.709  42.964   7.464
  432POPC   NC310103   7.067   4.077   9.524
  432POPC   PO410104   7.653   4.447   9.444
  432POPC   GL110105   7.346   4.370   9.153
  432POPC   GL210106   7.348   4.011   9.093
  432POPC   C1A10107   7.254   4.584   8.774
  432POPC   D2A10108   7.477   4.572   8.354
  432POPC   C3A10109   7.304   4.424   7.942
  432POPC   C4A10110   7.548   4.093   7.778
  432POPC   C1B10111   7.375   4.099   8.675
  432POPC   C2B10112   7.105   4.180   8.341
  432POPC   C3B10113   7.050   3.927   7.958
  432POPC   C4B10114   7.210   3.776   7.542
  433POPC   NC310115  21.907   5.280   9.789
  433POPC   PO410116  21.418   4.914   9.359
  433POPC   GL110117  21.496   4.907   8.956
  433POPC   GL210118  21.415   5.261   8.939
  433POPC   C1A10119  21.661   5.053   8.547
  433POPC   D2A10120  21.653   5.427   8.246
  433POPC   C3A10121  21.379   5.190   7.999
  433POPC   C4A10122  21.497   4.934   7.628
  433POPC   C1B10123  21.236   5.347   8.509
  433POPC   C2B10124  20.901   5.277   8.237
  433POPC   C3B10125  20.902   5.374   7.817
  433POPC   C4B10126  21.113   5.283   7.442
  434POPC   NC310127  33.332  23.643   9.787
  434POPC   PO410128  32.889  24.164   9.661
  434POPC   GL110129  32.936  23.874   9.306
  434POPC   GL210130  33.239  23.902   9.073
  434POPC   C1A10131  32.699  23.783   8.903
  434POPC   D2A10132  32.911  23.696   8.503
  434POPC   C3A10133  32.910  23.858   8.086
  434POPC   C4A10134  32.913  23.541   7.768
  434POPC   C1B10135  33.417  24.167   8.741
  434POPC   C2B10136  33.280  24.223   8.330
  434POPC   C3B10137  33.352  24.144   7.921
  434POPC   C4B10138  33.229  23.894   7.567
  435POPC   NC310139  31.171  23.493   9.422
  435POPC   PO410140  31.341  24.179   9.334
  435POPC   GL110141  31.617  23.908   9.094
  435POPC   GL210142  31.577  23.543   9.119
  435POPC   C1A10143  31.647  23.851   8.675
  435POPC   D2A10144  31.318  23.741   8.415
  435POPC   C3A10145  31.441  23.644   8.034
  435POPC   C4A10146  31.219  23.545   7.696
  435POPC   C1B10147  31.774  23.366   8.759
  435POPC   C2B10148  31.861  23.506   8.328
  435POPC   C3B10149  31.746  23.275   7.940
  435POPC   C4B10150  31.707  23.498   7.542
  436POPC   NC310151  19.217  10.955   9.488
  436POPC   PO410152  18.857  11.480   9.593
  436POPC   GL110153  19.156  11.417   9.212
  436POPC   GL210154  19.332  11.110   9.029
  436POPC   C1A10155  19.175  11.506   8.763
  436POPC   D2A10156  19.296  11.337   8.350
  436POPC   C3A10157  19.018  11.525   8.051
  436POPC   C4A10158  19.060  11.711   7.667
  436POPC   C1B10159  18.907  11.093   8.871
  436POPC   C2B10160  18.799  11.171   8.445
  436POPC   C3B10161  18.970  11.013   8.065
  436POPC   C4B10162  18.801  11.146   7.672
  437POPC   NC310163   5.604  43.186   9.702
  437POPC   PO410164   5.065  42.868   9.543
  437POPC   GL110165   5.179  42.814   9.135
  437POPC   GL210166   5.456  43.043   9.084
  437POPC   C1A10167   5.120  42.896   8.695
  437POPC   D2A10168   5.336  43.074   8.336
  437POPC   C3A10169   5.101  42.911   8.013
  437POPC   C4A10170   4.928  43.077   7.647
  437POPC   C1B10171   5.319  43.390   8.761
  437POPC   C2B10172   5.395  43.584   8.326
  437POPC   C3B10173   5.312  43.456   7.908
  437POPC   C4B10174   5.450  43.075   7.683
  438POPC   NC310175  42.622  43.664   9.493
  438POPC   PO410176  42.243  44.222   9.434
  438POPC   GL110177  42.389  43.949   9.113
  438POPC   GL210178  42.272  43.621   9.093
  438POPC   C1A10179  42.195  43.903   8.687
  438POPC   D2A10180  42.301  44.100   8.322
  438POPC   C3A10181  42.212  43.923   7.914
  438POPC   C4A10182  42.271  43.873   7.470
  438POPC   C1B10183  42.464  43.451   8.734
  438POPC   C2B10184  42.412  43.582   8.328
  438POPC   C3B10185  42.211  43.426   7.983
  438POPC   C4B10186  42.427  43.426   7.608
  439POPC   NC310187  37.915   9.449   9.460
  439POPC   PO410188  37.469   9.942   9.585
  439POPC   GL110189  37.488   9.688   9.235
  439POPC   GL210190  37.783   9.852   9.161
  439POPC   C1A10191  37.388   9.586   8.809
  439POPC   D2A10192  37.147   9.557   8.406
  439POPC   C3A10193  37.266   9.780   8.040
  439POPC   C4A10194  37.427   9.552   7.693
  439POPC   C1B10195  37.928   9.605   8.836
  439POPC   C2B10196  37.756   9.586   8.446
  439POPC   C3B10197  37.791   9.655   8.037
  439POPC   C4B10198  37.948   9.393   7.724
  440POPC   NC310199  32.940  35.890   9.702
  440POPC   PO410200  32.751  36.501   9.509
  440POPC   GL110201  33.009  36.204   9.232
  440POPC   GL210202  33.329  36.333   9.099
  440POPC   C1A10203  33.085  36.035   8.768
  440POPC   D2A10204  33.250  35.989   8.367
  440POPC   C3A10205  33.028  36.182   8.068
  440POPC   C4A10206  32.893  36.087   7.674
  440POPC   C1B10207  32.969  36.523   8.839
  440POPC   C2B10208  32.781  36.473   8.437
  440POPC   C3B10209  32.708  36.631   8.021
  440POPC   C4B10210  32.760  36.551   7.590
  441POPC   NC310211   8.582  43.490   9.565
  441POPC   PO410212   9.024  42.980   9.710
  441POPC   GL110213   9.053  43.036   9.231
  441POPC   GL210214   9.122  42.762   9.174
  441POPC   C1A10215   8.936  43.119   8.766
  441POPC   D2A10216   9.087  43.304   8.347
  441POPC   C3A10217   8.851  43.308   7.966
  441POPC   C4A10218   8.699  43.055   7.634
  441POPC   C1B10219   9.311  42.739   8.802
  441POPC   C2B10220   9.176  42.803   8.397
  441POPC   C3B10221   9.037  42.837   7.992
  441POPC   C4B10222   9.237  42.972   7.638
  442POPC   NC310223   1.382  23.450   9.351
  442POPC   PO410224   2.053  23.677   9.494
  442POPC   GL110225   1.853  23.603   9.111
  442POPC   GL210226   2.151  23.428   9.047
  442POPC   C1A10227   1.654  23.396   8.743
  442POPC   D2A10228   1.709  23.429   8.301
  442POPC   C3A10229   1.967  23.751   8.166
  442POPC   C4A10230   1.992  23.858   7.777
  442POPC   C1B10231   2.124  23.521   8.612
  442POPC   C2B10232   2.228  23.281   8.227
  442POPC   C3B10233   2.342  23.480   7.821
  442POPC   C4B10234   2.166  23.571   7.385
  443POPC   NC310235  31.648   7.326   9.453
  443POPC   PO410236  30.895   7.650   9.512
  443POPC   GL110237  31.225   7.606   9.196
  443POPC   GL210238  31.205   7.304   9.023
  443POPC   C1A10239  31.435   7.734   8.785
  443POPC   D2A10240  31.653   7.661   8.390
  443POPC   C3A10241  31.447   7.481   8.030
  443POPC   C4A10242  31.331   7.356   7.627
  443POPC   C1B10243  31.580   7.232   8.773
  443POPC   C2B10244  31.671   7.119   8.353
  443POPC   C3B10245  31.478   6.975   7.966
  443POPC   C4B10246  31.579   6.901   7.530
  444POPC   NC310247  13.407  29.435   9.433
  444POPC   PO410248  13.942  28.994   9.405
  444POPC   GL110249  13.641  28.900   9.087
  444POPC   GL210250  13.269  28.839   9.125
  444POPC   C1A10251  13.719  29.027   8.655
  444POPC   D2A10252  13.552  29.177   8.266
  444POPC   C3A10253  13.735  29.014   7.909
  444POPC   C4A10254  13.846  29.154   7.517
  444POPC   C1B10255  13.197  28.971   8.695
  444POPC   C2B10256  13.253  28.741   8.311
  444POPC   C3B10257  13.224  28.790   7.861
  444POPC   C4B10258  13.366  28.974   7.467
  445POPC   NC310259  44.824  13.466   9.555
  445POPC   PO410260  44.199  13.751   9.506
  445POPC   GL110261  44.497  13.593   9.175
  445POPC   GL210262  44.874  13.645   9.097
  445POPC   C1A10263  44.529  13.460   8.760
  445POPC   D2A10264  44.561  13.224   8.419
  445POPC   C3A10265  44.582  13.428   8.025
  445POPC   C4A10266  44.459  13.529   7.640
  445POPC   C1B10267  44.932  13.798   8.725
  445POPC   C2B10268  44.904  13.606   8.387
  445POPC   C3B10269   0.052  13.676   8.045
  445POPC   C4B10270  44.973  13.625   7.646
  446POPC   NC310271  26.561  41.123   9.564
  446POPC   PO410272  26.961  41.759   9.590
  446POPC   GL110273  26.793  41.767   9.199
  446POPC   GL210274  26.878  41.377   9.228
  446POPC   C1A10275  26.853  41.963   8.788
  446POPC   D2A10276  26.946  41.765   8.383
  446POPC   C3A10277  26.876  41.960   7.993
  446POPC   C4A10278  26.693  41.771   7.601
  446POPC   C1B10279  26.901  41.449   8.793
  446POPC   C2B10280  26.642  41.348   8.408
  446POPC   C3B10281  26.731  41.452   7.982
  446POPC   C4B10282  26.761  41.242   7.550
  447POPC   NC310283  35.172  41.520   9.513
  447POPC   PO410284  35.807  41.575   9.357
  447POPC   GL110285  35.416  41.512   9.063
  447POPC   GL210286  35.059  41.685   9.055
  447POPC   C1A10287  35.340  41.545   8.602
  447POPC   D2A10288  35.339  41.286   8.224
  447POPC   C3A10289  35.412  41.378   7.802
  447POPC   C4A10290  35.121  41.482   7.487
  447POPC   C1B10291  35.083  42.003   8.759
  447POPC   C2B10292  35.195  41.984   8.348
  447POPC   C3B10293  35.050  41.684   8.081
  447POPC   C4B10294  34.802  41.738   7.769
  448POPC   NC310295  34.343   9.141   9.648
  448POPC   PO410296  33.635   9.119   9.621
  448POPC   GL110297  33.859   9.018   9.208
  448POPC   GL210298  33.926   9.300   8.957
  448POPC   C1A10299  33.765   8.797   8.849
  448POPC   D2A10300  33.826   8.824   8.441
  448POPC   C3A10301  33.475   8.831   8.192
  448POPC   C4A10302  33.485   8.812   7.782
  448POPC   C1B10303  34.159   9.313   8.596
  448POPC   C2B10304  34.260   9.084   8.280
  448POPC   C3B10305  33.903   9.113   8.034
  448POPC   C4B10306  33.865   9.325   7.680
  449POPC   NC310307  36.564   6.600   9.497
  449POPC   PO410308  37.074   6.153   9.358
  449POPC   GL110309  36.930   6.494   9.086
  449POPC   GL210310  36.686   6.769   9.030
  449POPC   C1A10311  37.075   6.649   8.679
  449POPC   D2A10312  37.003   6.810   8.259
  449POPC   C3A10313  36.999   6.583   7.863
  449POPC   C4A10314  37.145   6.467   7.481
  449POPC   C1B10315  36.715   7.032   8.655
  449POPC   C2B10316  36.742   7.266   8.261
  449POPC   C3B10317  36.816   7.062   7.851
  449POPC   C4B10318  36.957   6.975   7.411
  450POPC   NC310319  37.673  34.504   9.415
  450POPC   PO410320  38.291  34.252   9.362
  450POPC   GL110321  37.984  34.401   9.016
  450POPC   GL210322  37.595  34.398   8.923
  450POPC   C1A10323  37.949  34.586   8.607
  450POPC   D2A10324  37.745  34.795   8.281
  450POPC   C3A10325  37.681  34.462   8.003
  450POPC   C4A10326  37.840  34.321   7.616
  450POPC   C1B10327  37.467  34.821   8.804
  450POPC   C2B10328  37.327  35.065   8.455
  450POPC   C3B10329  37.265  34.832   8.080
  450POPC   C4B10330  37.289  34.566   7.708
  451POPC   NC310331   3.194  29.637   9.463
  451POPC   PO410332   2.497  29.858   9.503
  451POPC   GL110333   2.800  29.873   9.199
  451POPC   GL210334   2.749  29.524   9.138
  451POPC   C1A10335   2.803  30.156   8.836
  451POPC   D2A10336   2.925  30.203   8.416
  451POPC   C3A10337   2.690  29.916   8.183
  451POPC   C4A10338   2.553  29.909   7.783
  451POPC   C1B10339   2.547  29.717   8.783
  451POPC   C2B10340   2.930  29.661   8.571
  451POPC   C3B10341   3.093  29.482   8.207
  451POPC   C4B10342   2.876  29.492   7.835
  452POPC   NC310343   4.549   0.173   9.528
  452POPC   PO410344   4.145   0.653   9.712
  452POPC   GL110345   4.358   0.616   9.292
  452POPC   GL210346   4.260   0.296   9.129
  452POPC   C1A10347   4.470   0.660   8.840
  452POPC   D2A10348   4.542   0.659   8.383
  452POPC   C3A10349   4.222   0.589   8.122
  452POPC   C4A10350   4.042   0.594   7.739
  452POPC   C1B10351   4.386   0.139   8.756
  452POPC   C2B10352   4.493   0.134   8.349
  452POPC   C3B10353   4.292   0.103   7.990
  452POPC   C4B10354   4.463  44.943   7.654
  453POPC   NC310355   3.178  42.706   9.525
  453POPC   PO410356   2.641  43.100   9.590
  453POPC   GL110357   2.862  43.141   9.201
  453POPC   GL210358   2.992  43.474   9.146
  453POPC   C1A10359   2.787  43.137   8.751
  453POPC   D2A10360   2.700  43.178   8.295
  453POPC   C3A10361   2.802  42.840   7.988
  453POPC   C4A10362   2.701  42.819   7.550
  453POPC   C1B10363   3.270  43.187   8.859
  453POPC   C2B10364   3.217  42.949   8.467
  453POPC   C3B10365   3.178  43.162   8.070
  453POPC   C4B10366   3.145  43.119   7.636
  454POPC   NC310367  12.158  24.622   9.569
  454POPC   PO410368  11.837  24.085   9.397
  454POPC   GL110369  12.001  24.441   9.086
  454POPC   GL210370  12.168  24.796   9.069
  454POPC   C1A10371  12.141  24.463   8.640
  454POPC   D2A10372  12.305  24.380   8.223
  454POPC   C3A10373  11.997  24.450   7.913
  454POPC   C4A10374  12.094  24.822   7.761
  454POPC   C1B10375  11.802  24.822   8.744
  454POPC   C2B10376  11.751  24.648   8.316
  454POPC   C3B10377  11.528  24.694   7.903
  454POPC   C4B10378  11.655  24.791   7.502
  455POPC   NC310379   4.375  18.962   9.600
  455POPC   PO410380   4.975  18.804   9.641
  455POPC   GL110381   4.670  18.965   9.199
  455POPC   GL210382   4.267  19.038   9.130
  455POPC   C1A10383   4.546  18.916   8.738
  455POPC   D2A10384   4.298  19.085   8.389
  455POPC   C3A10385   4.461  19.012   7.983
  455POPC   C4A10386   4.541  19.123   7.576
  455POPC   C1B10387   4.029  18.845   8.824
  455POPC   C2B10388   4.099  18.617   8.460
  455POPC   C3B10389   4.000  18.781   8.079
  455POPC   C4B10390   4.121  18.828   7.641
  456POPC   NC310391  36.368  43.399   9.364
  456POPC   PO410392  35.867  43.053   9.557
  456POPC   GL110393  35.985  43.128   9.158
  456POPC   GL210394  36.315  42.989   9.043
  456POPC   C1A10395  35.821  43.147   8.769
  456POPC   D2A10396  36.020  42.988   8.407
  456POPC   C3A10397  35.903  43.178   8.065
  456POPC   C4A10398  36.026  43.021   7.685
  456POPC   C1B10399  36.318  43.278   8.717
  456POPC   C2B10400  36.329  43.412   8.302
  456POPC   C3B10401  36.407  43.091   8.021
  456POPC   C4B10402  36.513  43.149   7.619
  457POPC   NC310403   8.315  19.415   9.427
  457POPC   PO410404   8.356  20.039   9.690
  457POPC   GL110405   8.187  19.942   9.285
  457POPC   GL210406   8.506  19.946   9.161
  457POPC   C1A10407   7.957  19.755   8.914
  457POPC   D2A10408   8.062  19.536   8.507
  457POPC   C3A10409   8.009  19.687   8.074
  457POPC   C4A10410   8.156  19.615   7.673
  457POPC   C1B10411   8.437  19.803   8.768
  457POPC   C2B10412   8.355  19.968   8.403
  457POPC   C3B10413   8.443  19.940   8.023
  457POPC   C4B10414   8.274  20.097   7.649
  458POPC   NC310415  44.039  32.324   9.520
  458POPC   PO410416  43.516  32.788   9.451
  458POPC   GL110417  43.642  32.326   9.174
  458POPC   GL210418  44.017  32.226   9.044
  458POPC   C1A10419  43.664  32.102   8.723
  458POPC   D2A10420  43.802  32.448   8.413
  458POPC   C3A10421  43.866  32.358   7.974
  458POPC   C4A10422  43.744  31.973   7.854
  458POPC   C1B10423  44.199  32.032   8.696
  458POPC   C2B10424  44.041  31.941   8.283
  458POPC   C3B10425  44.298  32.008   7.923
  458POPC   C4B10426  44.436  32.426   7.762
  459POPC   NC310427   2.007  18.654   9.460
  459POPC   PO410428   1.697  19.265   9.441
  459POPC   GL110429   1.948  19.095   9.076
  459POPC   GL210430   2.201  18.812   9.024
  459POPC   C1A10431   2.115  19.199   8.634
  459POPC   D2A10432   2.321  19.363   8.218
  459POPC   C3A10433   2.173  19.204   7.807
  459POPC   C4A10434   1.699  19.112   7.714
  459POPC   C1B10435   2.073  18.671   8.643
  459POPC   C2B10436   2.195  18.846   8.240
  459POPC   C3B10437   2.110  18.709   7.843
  459POPC   C4B10438   1.715  18.566   7.736
  460POPC   NC310439  13.143   8.783   9.441
  460POPC   PO410440  12.497   8.890   9.677
  460POPC   GL110441  12.691   9.033   9.241
  460POPC   GL210442  12.934   8.863   8.994
  460POPC   C1A10443  12.532   9.086   8.781
  460POPC   D2A10444  12.640   9.217   8.342
  460POPC   C3A10445  12.769   8.910   8.017
  460POPC   C4A10446  12.801   8.918   7.538
  460POPC   C1B10447  13.037   9.189   8.693
  460POPC   C2B10448  13.172   9.180   8.252
  460POPC   C3B10449  13.156   9.187   7.801
  460POPC   C4B10450  13.317   8.789   7.652
  461POPC   NC310451   8.569  15.487   9.381
  461POPC   PO410452   9.232  15.333   9.341
  461POPC   GL110453   8.926  15.331   9.046
  461POPC   GL210454   8.761  15.038   9.185
  461POPC   C1A10455   8.709  15.514   8.693
  461POPC   D2A10456   8.553  15.367   8.256
  461POPC   C3A10457   8.898  15.309   7.907
  461POPC   C4A10458   8.931  15.346   7.415
  461POPC   C1B10459   8.620  14.999   8.771
  461POPC   C2B10460   8.865  14.978   8.399
  461POPC   C3B10461   8.653  14.857   8.047
  461POPC   C4B10462   8.665  14.966   7.614
  462POPC   NC310463   6.549   4.691   9.638
  462POPC   PO410464   6.595   4.004   9.540
  462POPC   GL110465   6.587   4.050   9.138
  462POPC   GL210466   6.234   3.919   9.171
  462POPC   C1A10467   6.758   4.220   8.742
  462POPC   D2A10468   6.550   4.477   8.414
  462POPC   C3A10469   6.768   4.411   8.006
  462POPC   C4A10470   6.898   4.602   7.630
  462POPC   C1B10471   6.246   4.116   8.783
  462POPC   C2B10472   6.363   4.001   8.397
  462POPC   C3B10473   6.298   4.204   8.021
  462POPC   C4B10474   6.171   4.057   7.657
  463POPC   NC310475   7.472  20.814   9.558
  463POPC   PO410476   7.179  20.262   9.472
  463POPC   GL110477   7.364  20.521   9.130
  463POPC   GL210478   7.696  20.750   9.120
  463POPC   C1A10479   7.265  20.488   8.687
  463POPC   D2A10480   7.531  20.401   8.334
  463POPC   C3A10481   7.569  20.660   8.005
  463POPC   C4A10482   7.189  20.701   7.834
  463POPC   C1B10483   7.761  20.585   8.773
  463POPC   C2B10484   7.786  20.846   8.453
  463POPC   C3B10485   8.001  20.895   8.095
  463POPC   C4B10486   7.844  21.045   7.708
  464POPC   NC310487  42.638   2.764   9.477
  464POPC   PO410488  42.050   2.626   9.782
  464POPC   GL110489  42.136   2.687   9.304
  464POPC   GL210490  42.317   2.973   9.110
  464POPC   C1A10491  42.089   2.576   8.849
  464POPC   D2A10492  42.429   2.584   8.540
  464POPC   C3A10493  42.351   2.681   8.099
  464POPC   C4A10494  42.066   2.653   7.738
  464POPC   C1B10495  42.699   2.973   8.820
  464POPC   C2B10496  42.908   2.893   8.404
  464POPC   C3B10497  42.841   2.768   7.955
  464POPC   C4B10498  42.542   2.811   7.627
  465POPC   NC310499   0.965  31.637   9.709
  465POPC   PO410500   1.479  31.192   9.633
  465POPC   GL110501   1.233  31.273   9.243
  465POPC   GL210502   1.081  31.608   9.171
  465POPC   C1A10503   1.269  31.317   8.789
  465POPC   D2A10504   1.078  31.416   8.399
  465POPC   C3A10505   1.335  31.288   8.074
  465POPC   C4A10506   1.430  31.438   7.670
  465POPC   C1B10507   0.782  31.439   8.813
  465POPC   C2B10508   0.573  31.309   8.422
  465POPC   C3B10509   0.821  31.133   8.063
  465POPC   C4B10510   0.958  31.492   7.821
  466POPC   NC310511   4.223   4.511   9.519
  466POPC   PO410512   4.312   3.880   9.588
  466POPC   GL110513   4.299   4.112   9.210
  466POPC   GL210514   4.535   4.400   9.113
  466POPC   C1A10515   4.298   4.086   8.772
  466POPC   D2A10516   4.609   3.993   8.439
  466POPC   C3A10517   4.522   4.274   8.073
  466POPC   C4A10518   4.141   4.279   7.775
  466POPC   C1B10519   4.694   4.689   8.785
  466POPC   C2B10520   4.830   4.707   8.339
  466POPC   C3B10521   4.737   4.733   7.922
  466POPC   C4B10522   4.542   4.519   7.582
  467POPC   NC310523   2.195  34.062   9.487
  467POPC   PO410524   1.635  33.602   9.586
  467POPC   GL110525   1.759  33.761   9.199
  467POPC   GL210526   2.041  33.551   9.147
  467POPC   C1A10527   1.967  33.978   8.845
  467POPC   D2A10528   2.184  34.042   8.420
  467POPC   C3A10529   2.087  33.920   7.968
  467POPC   C4A10530   1.782  33.946   7.606
  467POPC   C1B10531   1.809  33.518   8.736
  467POPC   C2B10532   1.890  33.615   8.364
  467POPC   C3B10533   1.657  33.674   8.038
  467POPC   C4B10534   1.694  33.459   7.688
  468POPC   NC310535  32.491  18.464   9.840
  468POPC   PO410536  33.062  18.508   9.522
  468POPC   GL110537  33.195  18.362   9.122
  468POPC   GL210538  33.218  18.010   9.115
  468POPC   C1A10539  33.330  18.289   8.684
  468POPC   D2A10540  33.174  17.992   8.382
  468POPC   C3A10541  33.152  18.161   7.965
  468POPC   C4A10542  33.087  18.539   7.710
  468POPC   C1B10543  32.874  18.109   8.798
  468POPC   C2B10544  32.560  18.026   8.485
  468POPC   C3B10545  32.698  17.940   8.086
  468POPC   C4B10546  32.700  18.153   7.720
  469POPC   NC310547  17.885  32.570   9.507
  469POPC   PO410548  17.470  32.017   9.608
  469POPC   GL110549  17.400  32.193   9.153
  469POPC   GL210550  17.686  32.317   9.114
  469POPC   C1A10551  17.385  32.456   8.745
  469POPC   D2A10552  17.579  32.210   8.417
  469POPC   C3A10553  17.439  32.006   8.056
  469POPC   C4A10554  17.562  32.231   7.680
  469POPC   C1B10555  17.885  32.466   8.790
  469POPC   C2B10556  17.930  32.559   8.390
  469POPC   C3B10557  17.668  32.587   8.055
  469POPC   C4B10558  17.916  32.618   7.692
  470POPC   NC310559   3.617  10.783   9.561
  470POPC   PO410560   3.012  10.654   9.446
  470POPC   GL110561   3.307  10.881   9.131
  470POPC   GL210562   3.628  10.694   9.071
  470POPC   C1A10563   3.317  10.794   8.658
  470POPC   D2A10564   3.362  10.435   8.370
  470POPC   C3A10565   3.413  10.550   7.944
  470POPC   C4A10566   3.374  10.391   7.523
  470POPC   C1B10567   3.783  10.539   8.696
  470POPC   C2B10568   3.869  10.362   8.297
  470POPC   C3B10569   3.912  10.472   7.882
  470POPC   C4B10570   3.858  10.313   7.457
  471POPC   NC310571  32.080  14.823   9.608
  471POPC   PO410572  31.956  15.478   9.649
  471POPC   GL110573  32.318  15.281   9.361
  471POPC   GL210574  32.193  15.002   9.155
  471POPC   C1A10575  32.614  15.196   8.976
  471POPC   D2A10576  32.580  14.949   8.582
  471POPC   C3A10577  32.598  14.992   8.128
  471POPC   C4A10578  32.631  15.344   7.835
  471POPC   C1B10579  32.153  15.184   8.760
  471POPC   C2B10580  32.230  15.299   8.338
  471POPC   C3B10581  32.152  15.156   7.926
  471POPC   C4B10582  32.084  15.507   7.675
  472POPC   NC310583  25.276   2.419   9.526
  472POPC   PO410584  25.787   2.873   9.421
  472POPC   GL110585  25.450   2.911   9.085
  472POPC   GL210586  25.202   2.628   9.064
  472POPC   C1A10587  25.402   2.844   8.616
  472POPC   D2A10588  25.639   2.836   8.227
  472POPC   C3A10589  25.427   2.869   7.831
  472POPC   C4A10590  25.063   3.023   7.570
  472POPC   C1B10591  25.622   2.467   8.883
  472POPC   C2B10592  25.662   2.372   8.434
  472POPC   C3B10593  25.348   2.427   8.119
  472POPC   C4B10594  25.048   2.519   7.752
  473POPC   NC310595   6.713  33.759   9.554
  473POPC   PO410596   6.150  33.990   9.528
  473POPC   GL110597   6.399  33.909   9.149
  473POPC   GL210598   6.316  33.571   9.161
  473POPC   C1A10599   6.546  34.042   8.716
  473POPC   D2A10600   6.519  33.921   8.258
  473POPC   C3A10601   6.594  33.956   7.793
  473POPC   C4A10602   6.823  33.727   7.482
  473POPC   C1B10603   6.228  33.537   8.700
  473POPC   C2B10604   6.367  33.443   8.276
  473POPC   C3B10605   6.508  33.460   7.835
  473POPC   C4B10606   6.353  33.542   7.415
  474POPC   NC310607  12.369   5.746   9.494
  474POPC   PO410608  11.937   6.302   9.578
  474POPC   GL110609  12.122   6.088   9.222
  474POPC   GL210610  12.306   6.317   9.123
  474POPC   C1A10611  12.108   5.820   8.826
  474POPC   D2A10612  11.886   5.732   8.421
  474POPC   C3A10613  12.132   5.744   8.041
  474POPC   C4A10614  12.066   6.060   7.731
  474POPC   C1B10615  12.369   6.246   8.738
  474POPC   C2B10616  12.222   6.125   8.363
  474POPC   C3B10617  12.491   6.095   7.996
  474POPC   C4B10618  12.555   6.325   7.659
  475POPC   NC310619   7.005   2.615   9.274
  475POPC   PO410620   6.543   3.076   9.474
  475POPC   GL110621   6.591   2.886   9.098
  475POPC   GL210622   6.417   3.131   8.959
  475POPC   C1A10623   6.713   2.660   8.703
  475POPC   D2A10624   6.975   2.680   8.379
  475POPC   C3A10625   6.726   2.551   8.027
  475POPC   C4A10626   6.566   2.598   7.631
  475POPC   C1B10627   6.712   3.177   8.630
  475POPC   C2B10628   6.562   2.996   8.258
  475POPC   C3B10629   6.538   3.145   7.851
  475POPC   C4B10630   6.570   3.061   7.414
  476POPC   NC310631   6.106  41.081   9.421
  476POPC   PO410632   5.807  40.452   9.414
  476POPC   GL110633   6.025  40.690   9.079
  476POPC   GL210634   5.699  40.683   8.945
  476POPC   C1A10635   6.061  40.815   8.599
  476POPC   D2A10636   5.749  40.899   8.251
  476POPC   C3A10637   5.908  40.872   7.819
  476POPC   C4A10638   6.033  40.938   7.382
  476POPC   C1B10639   5.850  40.357   8.706
  476POPC   C2B10640   5.917  40.405   8.274
  476POPC   C3B10641   5.594  40.481   7.945
  476POPC   C4B10642   5.639  40.562   7.479
  477POPC   NC310643  17.503  30.627   9.694
  477POPC   PO410644  18.047  30.382   9.521
  477POPC   GL110645  17.806  30.507   9.213
  477POPC   GL210646  17.695  30.839   9.228
  477POPC   C1A10647  17.749  30.447   8.797
  477POPC   D2A10648  17.632  30.241   8.438
  477POPC   C3A10649  17.602  30.450   8.100
  477POPC   C4A10650  17.664  30.529   7.705
  477POPC   C1B10651  17.471  30.882   8.818
  477POPC   C2B10652  17.491  30.871   8.374
  477POPC   C3B10653  17.361  30.877   7.943
  477POPC   C4B10654  17.186  31.202   7.703
  478POPC   NC310655  40.139  37.372   9.355
  478POPC   PO410656  39.894  36.745   9.476
  478POPC   GL110657  39.861  36.996   9.128
  478POPC   GL210658  40.234  36.905   9.114
  478POPC   C1A10659  39.950  36.985   8.688
  478POPC   D2A10660  40.286  36.742   8.507
  478POPC   C3A10661  40.201  36.618   8.075
  478POPC   C4A10662  39.900  36.898   7.840
  478POPC   C1B10663  40.397  37.185   8.788
  478POPC   C2B10664  40.287  37.238   8.370
  478POPC   C3B10665  40.403  37.085   7.988
  478POPC   C4B10666  40.357  36.857   7.602
  479POPC   NC310667  38.992  11.138   9.500
  479POPC   PO410668  39.695  11.156   9.309
  479POPC   GL110669  39.257  11.259   9.077
  479POPC   GL210670  38.844  11.276   9.047
  479POPC   C1A10671  39.146  11.396   8.664
  479POPC   D2A10672  39.106  11.613   8.270
  479POPC   C3A10673  39.314  11.423   7.907
  479POPC   C4A10674  39.355  11.173   7.506
  479POPC   C1B10675  38.817  10.889   8.854
  479POPC   C2B10676  38.875  10.785   8.426
  479POPC   C3B10677  39.049  11.010   8.087
  479POPC   C4B10678  38.861  11.131   7.707
  480POPC   NC310679  18.497   2.532   9.416
  480POPC   PO410680  17.819   2.666   9.422
  480POPC   GL110681  17.980   2.782   9.033
  480POPC   GL210682  18.309   2.885   9.066
  480POPC   C1A10683  17.775   2.990   8.690
  480POPC   D2A10684  17.592   2.835   8.328
  480POPC   C3A10685  17.933   2.625   8.147
  480POPC   C4A10686  18.228   2.792   7.832
  480POPC   C1B10687  18.251   2.826   8.604
  480POPC   C2B10688  18.504   2.833   8.259
  480POPC   C3B10689  18.775   2.587   7.965
  480POPC   C4B10690  18.634   2.341   7.606
  481POPC   NC310691  25.362  17.754   9.491
  481POPC   PO410692  25.114  17.183   9.627
  481POPC   GL110693  25.077  17.306   9.231
  481POPC   GL210694  24.953  17.655   9.175
  481POPC   C1A10695  25.300  17.334   8.890
  481POPC   D2A10696  25.251  17.373   8.465
  481POPC   C3A10697  25.546  17.268   8.177
  481POPC   C4A10698  25.328  17.303   7.766
  481POPC   C1B10699  25.138  17.820   8.824
  481POPC   C2B10700  25.509  17.811   8.582
  481POPC   C3B10701  25.615  17.791   8.151
  481POPC   C4B10702  25.476  17.801   7.731
  482POPC   NC310703  27.470  39.000   9.595
  482POPC   PO410704  27.394  39.479   9.185
  482POPC   GL110705  27.564  39.122   9.082
  482POPC   GL210706  27.877  39.120   9.291
  482POPC   C1A10707  27.565  39.188   8.632
  482POPC   D2A10708  27.642  39.131   8.244
  482POPC   C3A10709  27.326  39.147   7.985
  482POPC   C4A10710  27.342  38.959   7.600
  482POPC   C1B10711  28.030  39.093   8.869
  482POPC   C2B10712  28.114  39.026   8.455
  482POPC   C3B10713  28.049  38.922   8.049
  482POPC   C4B10714  27.814  39.118   7.718
  483POPC   NC310715  33.493  20.572   9.345
  483POPC   PO410716  33.977  20.951   9.616
  483POPC   GL110717  33.983  20.691   9.193
  483POPC   GL210718  34.008  20.339   9.234
  483POPC   C1A10719  33.748  20.509   8.771
  483POPC   D2A10720  33.637  20.334   8.357
  483POPC   C3A10721  33.757  20.649   8.114
  483POPC   C4A10722  33.653  20.780   7.753
  483POPC   C1B10723  34.112  20.174   8.828
  483POPC   C2B10724  34.164  20.371   8.419
  483POPC   C3B10725  34.099  20.305   7.975
  483POPC   C4B10726  34.063  20.538   7.586
  484POPC   NC310727   1.566  43.298   9.426
  484POPC   PO410728   0.973  42.872   9.621
  484POPC   GL110729   1.112  42.937   9.216
  484POPC   GL210730   1.128  42.617   9.176
  484POPC   C1A10731   1.287  43.106   8.838
  484POPC   D2A10732   1.325  43.442   8.526
  484POPC   C3A10733   1.497  43.469   8.094
  484POPC   C4A10734   1.312  43.356   7.691
  484POPC   C1B10735   0.836  42.724   8.842
  484POPC   C2B10736   1.068  42.849   8.464
  484POPC   C3B10737   1.235  43.024   8.075
  484POPC   C4B10738   1.165  42.855   7.673
  485POPC   NC310739  11.769  18.990   9.990
  485POPC   PO410740  11.152  19.079   9.598
  485POPC   GL110741  11.288  19.065   9.173
  485POPC   GL210742  11.197  19.388   9.009
  485POPC   C1A10743  11.512  19.022   8.788
  485POPC   D2A10744  11.374  18.867   8.397
  485POPC   C3A10745  11.559  19.094   8.051
  485POPC   C4A10746  11.375  19.178   7.643
  485POPC   C1B10747  11.011  19.080   8.734
  485POPC   C2B10748  10.866  18.990   8.348
  485POPC   C3B10749  11.070  18.903   7.974
  485POPC   C4B10750  11.191  18.628   7.680
  486POPC   NC310751  26.758  32.265   9.889
  486POPC   PO410752  26.859  32.470   9.304
  486POPC   GL110753  26.741  32.463   8.961
  486POPC   GL210754  26.834  32.114   8.946
  486POPC   C1A10755  26.907  32.687   8.631
  486POPC   D2A10756  26.592  32.498   8.416
  486POPC   C3A10757  26.613  32.252   8.046
  486POPC   C4A10758  26.716  32.501   7.696
  486POPC   C1B10759  27.093  32.219   8.618
  486POPC   C2B10760  27.075  32.368   8.235
  486POPC   C3B10761  27.136  32.229   7.833
  486POPC   C4B10762  26.917  31.946   7.595
  487POPC   NC310763  36.963  30.512   9.492
  487POPC   PO410764  36.401  30.945   9.497
  487POPC   GL110765  36.672  30.762   9.175
  487POPC   GL210766  37.011  30.835   9.059
  487POPC   C1A10767  36.682  30.515   8.820
  487POPC   D2A10768  36.939  30.638   8.486
  487POPC   C3A10769  36.899  30.694   8.046
  487POPC   C4A10770  37.124  30.880   7.727
  487POPC   C1B10771  37.208  30.456   8.877
  487POPC   C2B10772  37.364  30.358   8.460
  487POPC   C3B10773  37.134  30.244   8.145
  487POPC   C4B10774  37.205  30.244   7.757
  488POPC   NC310775  41.142  39.147   9.529
  488POPC   PO410776  40.640  39.528   9.578
  488POPC   GL110777  40.872  39.467   9.195
  488POPC   GL210778  40.852  39.104   9.110
  488POPC   C1A10779  40.964  39.446   8.745
  488POPC   D2A10780  40.892  39.354   8.343
  488POPC   C3A10781  41.111  39.494   8.025
  488POPC   C4A10782  41.190  39.314   7.614
  488POPC   C1B10783  40.988  38.909   8.735
  488POPC   C2B10784  41.015  38.870   8.276
  488POPC   C3B10785  40.828  39.062   7.914
  488POPC   C4B10786  40.442  38.959   7.676
  489POPC   NC310787  24.124  32.726   9.418
  489POPC   PO410788  23.448  32.821   9.449
  489POPC   GL110789  23.544  33.053   9.055
  489POPC   GL210790  23.894  33.136   9.070
  489POPC   C1A10791  23.432  33.350   8.742
  489POPC   D2A10792  23.322  33.380   8.317
  489POPC   C3A10793  23.422  32.989   8.217
  489POPC   C4A10794  23.318  32.740   7.908
  489POPC   C1B10795  23.850  33.045   8.625
  489POPC   C2B10796  23.871  33.238   8.210
  489POPC   C3B10797  23.809  33.010   7.825
  489POPC   C4B10798  23.876  32.730   7.476
  490POPC   NC310799  33.661  34.777   9.443
  490POPC   PO410800  34.091  34.394   9.471
  490POPC   GL110801  33.983  34.563   9.081
  490POPC   GL210802  33.999  34.917   9.017
  490POPC   C1A10803  33.575  34.558   8.862
  490POPC   D2A10804  33.394  34.667   8.518
  490POPC   C3A10805  33.481  34.533   8.138
  490POPC   C4A10806  33.389  34.483   7.726
  490POPC   C1B10807  33.939  34.780   8.603
  490POPC   C2B10808  33.972  34.624   8.220
  490POPC   C3B10809  33.890  34.559   7.778
  490POPC   C4B10810  34.011  34.818   7.393
  491POPC   NC310811  11.669  15.743   9.371
  491POPC   PO410812  12.245  16.010   9.548
  491POPC   GL110813  12.079  15.985   9.136
  491POPC   GL210814  12.219  15.690   9.084
  491POPC   C1A10815  12.104  15.956   8.673
  491POPC   D2A10816  12.291  16.246   8.380
  491POPC   C3A10817  12.197  16.097   7.987
  491POPC   C4A10818  11.994  15.873   7.657
  491POPC   C1B10819  12.334  15.479   8.765
  491POPC   C2B10820  12.087  15.422   8.430
  491POPC   C3B10821  12.157  15.569   8.036
  491POPC   C4B10822  12.149  15.396   7.659
  492POPC   NC310823  38.330  39.699   9.595
  492POPC   PO410824  38.549  40.315   9.592
  492POPC   GL110825  38.308  40.144   9.237
  492POPC   GL210826  38.526  39.896   9.160
  492POPC   C1A10827  38.161  40.012   8.796
  492POPC   D2A10828  38.118  39.896   8.373
  492POPC   C3A10829  38.361  39.993   8.057
  492POPC   C4A10830  38.380  39.945   7.639
  492POPC   C1B10831  38.677  40.060   8.749
  492POPC   C2B10832  38.721  40.199   8.328
  492POPC   C3B10833  38.765  40.256   7.837
  492POPC   C4B10834  38.939  40.067   7.439
  493POPC   NC310835  23.355  29.865   9.584
  493POPC   PO410836  23.091  29.267   9.467
  493POPC   GL110837  22.913  29.155   9.089
  493POPC   GL210838  23.029  29.408   8.898
  493POPC   C1A10839  22.711  28.876   8.771
  493POPC   D2A10840  22.600  28.622   8.415
  493POPC   C3A10841  22.644  28.853   8.042
  493POPC   C4A10842  22.393  29.007   7.732
  493POPC   C1B10843  23.196  29.046   8.710
  493POPC   C2B10844  23.046  28.898   8.367
  493POPC   C3B10845  23.052  29.171   8.072
  493POPC   C4B10846  22.921  29.208   7.729
  494POPC   NC310847  40.268  21.321   9.609
  494POPC   PO410848  39.720  21.505   9.603
  494POPC   GL110849  39.976  21.625   9.197
  494POPC   GL210850  39.919  21.341   8.983
  494POPC   C1A10851  40.138  21.707   8.711
  494POPC   D2A10852  40.081  21.492   8.288
  494POPC   C3A10853  40.097  21.716   7.889
  494POPC   C4A10854  40.092  21.863   7.473
  494POPC   C1B10855  40.236  21.167   8.688
  494POPC   C2B10856  40.287  21.021   8.252
  494POPC   C3B10857  40.032  21.132   7.855
  494POPC   C4B10858  39.924  21.041   7.380
  495POPC   NC310859   7.757  44.729   9.403
  495POPC   PO410860   7.285  44.214   9.611
  495POPC   GL110861   7.376  44.453   9.241
  495POPC   GL210862   7.718  44.259   9.253
  495POPC   C1A10863   7.370  44.727   8.808
  495POPC   D2A10864   7.212  44.762   8.354
  495POPC   C3A10865   7.357  44.934   7.954
  495POPC   C4A10866   7.214  44.902   7.542
  495POPC   C1B10867   7.591  44.270   8.835
  495POPC   C2B10868   7.382  44.297   8.453
  495POPC   C3B10869   7.486  44.425   8.046
  495POPC   C4B10870   7.843  44.546   7.761
  496POPC   NC310871  10.872  24.973   9.323
  496POPC   PO410872  10.510  24.516   9.704
  496POPC   GL110873  10.472  24.534   9.244
  496POPC   GL210874  10.413  24.857   9.101
  496POPC   C1A10875  10.497  24.387   8.797
  496POPC   D2A10876  10.754  24.203   8.452
  496POPC   C3A10877  10.701  24.349   8.040
  496POPC   C4A10878  10.337  24.323   7.779
  496POPC   C1B10879  10.514  24.882   8.655
  496POPC   C2B10880  10.729  24.843   8.253
  496POPC   C3B10881  10.491  24.793   7.880
  496POPC   C4B10882  10.044  24.821   7.825
  497POPC   NC310883  30.504  14.836   9.511
  497POPC   PO410884  31.067  15.109   9.446
  497POPC   GL110885  30.731  15.138   9.099
  497POPC   GL210886  30.499  15.429   9.000
  497POPC   C1A10887  30.750  15.172   8.638
  497POPC   D2A10888  30.610  15.522   8.387
  497POPC   C3A10889  30.782  15.555   8.003
  497POPC   C4A10890  30.793  15.211   7.755
  497POPC   C1B10891  30.297  15.024   8.822
  497POPC   C2B10892  30.304  14.800   8.419
  497POPC   C3B10893  30.331  15.030   7.982
  497POPC   C4B10894  30.335  15.444   7.737
  498POPC   NC310895  12.900   7.895   9.472
  498POPC   PO410896  12.695   8.516   9.302
  498POPC   GL110897  12.815   8.174   9.061
  498POPC   GL210898  13.181   8.137   9.145
  498POPC   C1A10899  12.968   7.998   8.700
  498POPC   D2A10900  13.204   8.138   8.359
  498POPC   C3A10901  12.933   8.065   8.034
  498POPC   C4A10902  12.819   7.907   7.665
  498POPC   C1B10903  13.207   8.467   8.823
  498POPC   C2B10904  13.082   8.702   8.467
  498POPC   C3B10905  13.106   8.545   8.045
  498POPC   C4B10906  12.897   8.428   7.661
  499POPC   NC310907   7.455  38.145   9.471
  499POPC   PO410908   7.540  38.788   9.498
  499POPC   GL110909   7.358  38.635   9.147
  499POPC   GL210910   7.107  38.386   9.183
  499POPC   C1A10911   7.276  38.640   8.739
  499POPC   D2A10912   7.500  38.381   8.470
  499POPC   C3A10913   7.342  38.511   8.115
  499POPC   C4A10914   7.105  38.795   7.901
  499POPC   C1B10915   7.214  38.145   8.836
  499POPC   C2B10916   7.147  38.012   8.403
  499POPC   C3B10917   7.272  38.025   7.977
  499POPC   C4B10918   7.200  38.338   7.647
  500POPC   NC310919   3.635  39.303   9.470
  500POPC   PO410920   3.079  39.493   9.371
  500POPC   GL110921   3.286  39.353   9.019
  500POPC   GL210922   3.330  39.028   9.137
  500POPC   C1A10923   3.691  39.275   8.795
  500POPC   D2A10924   3.839  39.108   8.395
  500POPC   C3A10925   3.677  39.277   8.004
  500POPC   C4A10926   3.720  39.551   7.648
  500POPC   C1B10927   3.350  38.888   8.711
  500POPC   C2B10928   3.277  39.118   8.323
  500POPC   C3B10929   3.304  38.922   7.932
  500POPC   C4B10930   3.239  38.968   7.478
  501POPC   NC310931  38.938  40.032   9.577
  501POPC   PO410932  39.509  40.021   9.233
  501POPC   GL110933  39.174  40.272   9.148
  501POPC   GL210934  39.025  39.961   9.089
  501POPC   C1A10935  39.128  40.417   8.732
  501POPC   D2A10936  39.225  40.175   8.382
  501POPC   C3A10937  39.279  40.242   7.944
  501POPC   C4A10938  39.392  39.906   7.614
  501POPC   C1B10939  39.115  39.784   8.713
  501POPC   C2B10940  38.826  39.691   8.397
  501POPC   C3B10941  38.957  39.827   8.027
  501POPC   C4B10942  39.027  39.579   7.711
  502POPC   NC310943  40.674  40.779   9.553
  502POPC   PO410944  41.171  40.281   9.577
  502POPC   GL110945  41.008  40.573   9.194
  502POPC   GL210946  40.617  40.524   9.113
  502POPC   C1A10947  40.895  40.725   8.736
  502POPC   D2A10948  40.534  40.654   8.465
  502POPC   C3A10949  40.718  40.656   8.078
  502POPC   C4A10950  41.120  40.823   7.951
  502POPC   C1B10951  40.554  41.012   8.969
  502POPC   C2B10952  40.531  41.183   8.553
  502POPC   C3B10953  40.425  41.066   8.138
  502POPC   C4B10954  40.509  41.296   7.752
  503POPC   NC310955  29.067  18.629   9.521
  503POPC   PO410956  28.954  17.958   9.521
  503POPC   GL110957  28.780  18.066   9.113
  503POPC   GL210958  29.046  18.315   9.091
  503POPC   C1A10959  28.921  18.030   8.682
  503POPC   D2A10960  29.166  18.090   8.280
  503POPC   C3A10961  28.834  18.198   7.995
  503POPC   C4A10962  28.795  18.003   7.605
  503POPC   C1B10963  29.350  18.296   8.727
  503POPC   C2B10964  29.488  18.519   8.366
  503POPC   C3B10965  29.257  18.522   7.997
  503POPC   C4B10966  29.264  18.221   7.705
  504POPC   NC310967  23.157   8.146   9.381
  504POPC   PO410968  22.547   8.438   9.365
  504POPC   GL110969  22.743   8.219   9.033
  504POPC   GL210970  22.724   7.865   9.016
  504POPC   C1A10971  22.978   8.210   8.649
  504POPC   D2A10972  22.873   8.451   8.261
  504POPC   C3A10973  22.996   8.193   7.928
  504POPC   C4A10974  23.259   7.919   7.738
  504POPC   C1B10975  22.605   7.879   8.603
  504POPC   C2B10976  22.569   8.011   8.169
  504POPC   C3B10977  22.625   7.901   7.718
  504POPC   C4B10978  22.620   7.778   7.248
  505POPC   NC310979  38.008  32.175   9.473
  505POPC   PO410980  37.444  32.585   9.589
  505POPC   GL110981  37.720  32.536   9.204
  505POPC   GL210982  37.636  32.183   9.124
  505POPC   C1A10983  38.041  32.369   8.866
  505POPC   D2A10984  38.148  32.404   8.430
  505POPC   C3A10985  37.826  32.438   8.109
  505POPC   C4A10986  37.763  32.107   7.815
  505POPC   C1B10987  37.555  32.391   8.721
  505POPC   C2B10988  37.438  32.157   8.352
  505POPC   C3B10989  37.466  31.811   8.089
  505POPC   C4B10990  37.364  31.784   7.685
  506POPC   NC310991  14.694  12.540   9.962
  506POPC   PO410992  14.531  13.064   9.545
  506POPC   GL110993  14.308  12.963   9.216
  506POPC   GL210994  14.624  13.057   9.038
  506POPC   C1A10995  14.196  12.596   8.967
  506POPC   D2A10996  14.212  12.486   8.552
  506POPC   C3A10997  14.562  12.412   8.266
  506POPC   C4A10998  14.450  12.322   7.826
  506POPC   C1B10999  14.341  13.062   8.722
  506POPC   C2B11000  14.427  12.914   8.363
  506POPC   C3B11001  14.230  12.757   8.073
  506POPC   C4B11002  14.226  12.840   7.670
  507POPC   NC311003  38.525  44.936   9.538
  507POPC   PO411004  38.591  44.257   9.462
  507POPC   GL111005  38.615  44.579   9.138
  507POPC   GL211006  38.861  44.873   9.164
  507POPC   C1A11007  38.407  44.505   8.742
  507POPC   D2A11008  38.167  44.315   8.417
  507POPC   C3A11009  38.319  44.480   8.034
  507POPC   C4A11010  38.135  44.480   7.622
  507POPC   C1B11011  38.900  44.700   8.716
  507POPC   C2B11012  38.716  44.749   8.288
  507POPC   C3B11013  38.727  44.761   7.823
  507POPC   C4B11014  38.527  44.763   7.410
  508POPC   NC311015   2.823   7.500   9.484
  508POPC   PO411016   2.748   6.848   9.504
  508POPC   GL111017   2.697   7.132   9.099
  508POPC   GL211018   2.916   7.456   9.001
  508POPC   C1A11019   2.644   7.254   8.632
  508POPC   D2A11020   2.617   7.638   8.370
  508POPC   C3A11021   2.666   7.482   7.954
  508POPC   C4A11022   2.941   7.186   7.773
  508POPC   C1B11023   3.088   7.571   8.597
  508POPC   C2B11024   3.091   7.685   8.153
  508POPC   C3B11025   3.306   7.543   7.785
  508POPC   C4B11026   3.387   7.799   7.407
  509POPC   NC311027   8.078  14.287   9.702
  509POPC   PO411028   8.354  14.861   9.425
  509POPC   GL111029   8.177  14.564   9.204
  509POPC   GL211030   8.331  14.273   9.204
  509POPC   C1A11031   8.044  14.382   8.800
  509POPC   D2A11032   7.873  14.447   8.402
  509POPC   C3A11033   8.011  14.237   8.030
  509POPC   C4A11034   7.872  14.477   7.665
  509POPC   C1B11035   8.535  14.460   8.813
  509POPC   C2B11036   8.403  14.330   8.371
  509POPC   C3B11037   8.570  14.093   7.989
  509POPC   C4B11038   8.611  14.154   7.515
  510POPC   NC311039  39.553  41.822   9.485
  510POPC   PO411040  40.102  41.427   9.584
  510POPC   GL111041  40.080  41.646   9.202
  510POPC   GL211042  39.739  41.656   9.037
  510POPC   C1A11043  40.152  41.388   8.848
  510POPC   D2A11044  40.023  41.508   8.453
  510POPC   C3A11045  39.988  41.303   8.084
  510POPC   C4A11046  40.034  41.493   7.704
  510POPC   C1B11047  40.003  41.929   8.751
  510POPC   C2B11048  40.149  41.976   8.296
  510POPC   C3B11049  39.944  41.982   7.882
  510POPC   C4B11050  39.640  41.785   7.586
  511POPC   NC311051  31.871  26.532   9.632
  511POPC   PO411052  31.347  26.906   9.575
  511POPC   GL111053  31.465  26.824   9.161
  511POPC   GL211054  31.201  26.587   9.124
  511POPC   C1A11055  31.749  26.856   8.790
  511POPC   D2A11056  31.843  27.086   8.430
  511POPC   C3A11057  31.752  26.825   8.065
  511POPC   C4A11058  31.969  26.456   7.935
  511POPC   C1B11059  31.248  26.768   8.692
  511POPC   C2B11060  31.250  26.848   8.239
  511POPC   C3B11061  31.299  26.756   7.795
  511POPC   C4B11062  31.276  26.832   7.314
  512POPC   NC311063   7.189  12.335   9.335
  512POPC   PO411064   7.568  11.871   9.559
  512POPC   GL111065   7.558  11.916   9.126
  512POPC   GL211066   7.855  12.072   9.032
  512POPC   C1A11067   7.466  12.129   8.717
  512POPC   D2A11068   7.222  12.180   8.357
  512POPC   C3A11069   7.087  11.889   8.079
  512POPC   C4A11070   7.352  11.979   7.718
  512POPC   C1B11071   7.909  12.401   8.739
  512POPC   C2B11072   7.678  12.490   8.393
  512POPC   C3B11073   7.678  12.180   8.075
  512POPC   C4B11074   7.889  12.220   7.665
  513POPC   NC311075   6.061  30.451   9.419
  513POPC   PO411076   5.575  30.854   9.305
  513POPC   GL111077   5.790  30.713   8.976
  513POPC   GL211078   6.065  30.906   9.032
  513POPC   C1A11079   5.698  30.517   8.562
  513POPC   D2A11080   5.500  30.584   8.165
  513POPC   C3A11081   5.801  30.689   7.862
  513POPC   C4A11082   6.194  30.527   7.680
  513POPC   C1B11083   6.177  30.715   8.632
  513POPC   C2B11084   6.207  30.669   8.179
  513POPC   C3B11085   6.214  30.996   7.841
  513POPC   C4B11086   6.139  31.274   7.509
  514POPC   NC311087  25.772  28.472   9.362
  514POPC   PO411088  26.203  28.687   9.761
  514POPC   GL111089  26.259  28.670   9.247
  514POPC   GL211090  25.981  28.732   8.968
  514POPC   C1A11091  26.249  28.331   8.873
  514POPC   D2A11092  26.259  28.432   8.432
  514POPC   C3A11093  25.931  28.446   8.145
  514POPC   C4A11094  26.110  28.463   7.725
  514POPC   C1B11095  25.790  28.459   8.639
  514POPC   C2B11096  25.408  28.345   8.396
  514POPC   C3B11097  25.356  28.594   8.043
  514POPC   C4B11098  25.685  28.780   7.822
  515POPC   NC311099  23.622  25.729   9.518
  515POPC   PO411100  23.516  25.180   9.551
  515POPC   GL111101  23.618  25.367   9.154
  515POPC   GL211102  23.310  25.510   9.122
  515POPC   C1A11103  23.753  25.396   8.709
  515POPC   D2A11104  23.967  25.285   8.308
  515POPC   C3A11105  23.769  24.966   8.030
  515POPC   C4A11106  23.384  25.008   7.771
  515POPC   C1B11107  23.248  25.481   8.663
  515POPC   C2B11108  23.450  25.303   8.281
  515POPC   C3B11109  23.669  25.443   7.889
  515POPC   C4B11110  23.461  25.502   7.491
  516POPC   NC311111  27.513  17.989   9.768
  516POPC   PO411112  27.790  18.521   9.379
  516POPC   GL111113  27.568  18.337   9.115
  516POPC   GL211114  27.268  18.500   9.149
  516POPC   C1A11115  27.756  18.167   8.753
  516POPC   D2A11116  27.958  18.318   8.406
  516POPC   C3A11117  27.790  18.272   7.980
  516POPC   C4A11118  27.524  18.537   7.681
  516POPC   C1B11119  27.286  18.401   8.713
  516POPC   C2B11120  27.425  18.186   8.352
  516POPC   C3B11121  27.248  18.239   7.989
  516POPC   C4B11122  27.080  18.006   7.672
  517POPC   NC311123  21.887  12.567   9.585
  517POPC   PO411124  22.439  12.873   9.652
  517POPC   GL111125  22.206  13.105   9.286
  517POPC   GL211126  21.897  12.922   9.192
  517POPC   C1A11127  22.249  13.051   8.802
  517POPC   D2A11128  22.163  12.804   8.416
  517POPC   C3A11129  22.174  13.033   8.019
  517POPC   C4A11130  22.533  13.047   7.742
  517POPC   C1B11131  21.770  12.862   8.760
  517POPC   C2B11132  21.676  12.987   8.322
  517POPC   C3B11133  21.811  12.655   8.048
  517POPC   C4B11134  21.955  12.708   7.671
  518POPC   NC311135   0.621  31.851   9.301
  518POPC   PO411136   0.026  32.084   9.316
  518POPC   GL111137   0.336  32.356   9.092
  518POPC   GL211138   0.726  32.340   9.118
  518POPC   C1A11139   0.386  32.263   8.667
  518POPC   D2A11140   0.166  32.013   8.364
  518POPC   C3A11141   0.341  32.121   7.995
  518POPC   C4A11142   0.539  31.996   7.645
  518POPC   C1B11143   0.893  32.308   8.683
  518POPC   C2B11144   0.743  32.359   8.256
  518POPC   C3B11145   0.681  32.470   7.802
  518POPC   C4B11146   0.802  32.302   7.344
  519POPC   NC311147  27.132  15.482   9.493
  519POPC   PO411148  26.865  16.175   9.425
  519POPC   GL111149  26.622  15.962   9.150
  519POPC   GL211150  26.586  15.620   9.297
  519POPC   C1A11151  26.779  15.990   8.745
  519POPC   D2A11152  27.063  15.822   8.439
  519POPC   C3A11153  26.909  15.942   8.045
  519POPC   C4A11154  27.019  16.136   7.644
  519POPC   C1B11155  26.713  15.511   8.858
  519POPC   C2B11156  26.541  15.619   8.440
  519POPC   C3B11157  26.397  15.788   8.033
  519POPC   C4B11158  26.647  15.764   7.645
  520POPC   NC311159  10.067  21.546   9.566
  520POPC   PO411160   9.300  21.607   9.486
  520POPC   GL111161   9.568  21.299   9.214
  520POPC   GL211162   9.952  21.324   9.095
  520POPC   C1A11163   9.504  21.197   8.774
  520POPC   D2A11164   9.589  21.310   8.331
  520POPC   C3A11165   9.350  21.198   7.962
  520POPC   C4A11166   9.532  21.405   7.619
  520POPC   C1B11167  10.019  21.277   8.647
  520POPC   C2B11168   9.992  21.008   8.261
  520POPC   C3B11169   9.919  21.237   7.899
  520POPC   C4B11170   9.897  21.703   7.858
  521POPC   NC311171  24.081   4.124   9.598
  521POPC   PO411172  23.469   4.294   9.750
  521POPC   GL111173  23.726   4.353   9.282
  521POPC   GL211174  23.985   4.138   9.112
  521POPC   C1A11175  23.804   4.509   8.807
  521POPC   D2A11176  23.813   4.726   8.373
  521POPC   C3A11177  23.730   4.438   8.058
  521POPC   C4A11178  23.490   4.369   7.702
  521POPC   C1B11179  23.687   4.008   8.838
  521POPC   C2B11180  23.553   3.862   8.489
  521POPC   C3B11181  23.387   3.979   8.110
  521POPC   C4B11182  23.514   3.839   7.723
  522POPC   NC311183   9.283  38.849   9.631
  522POPC   PO411184   8.890  39.371   9.559
  522POPC   GL111185   8.944  39.475   9.136
  522POPC   GL211186   8.680  39.643   9.056
  522POPC   C1A11187   9.018  39.568   8.712
  522POPC   D2A11188   9.032  39.227   8.420
  522POPC   C3A11189   8.969  39.346   8.003
  522POPC   C4A11190   9.207  39.380   7.654
  522POPC   C1B11191   8.558  39.781   8.692
  522POPC   C2B11192   8.693  39.639   8.334
  522POPC   C3B11193   8.625  39.734   7.960
  522POPC   C4B11194   8.833  39.731   7.633
  523POPC   NC311195  30.981  16.360   9.425
  523POPC   PO411196  30.524  16.873   9.483
  523POPC   GL111197  30.609  16.887   9.111
  523POPC   GL211198  30.938  16.796   9.080
  523POPC   C1A11199  30.402  16.769   8.799
  523POPC   D2A11200  30.480  16.515   8.491
  523POPC   C3A11201  30.658  16.772   8.205
  523POPC   C4A11202  30.410  16.823   7.855
  523POPC   C1B11203  30.936  16.634   8.700
  523POPC   C2B11204  30.974  16.366   8.348
  523POPC   C3B11205  31.054  16.528   7.951
  523POPC   C4B11206  30.827  16.660   7.602
  524POPC   NC311207   9.250  19.942   9.496
  524POPC   PO411208   8.767  19.530   9.373
  524POPC   GL111209   9.001  19.781   9.096
  524POPC   GL211210   8.865  19.586   8.867
  524POPC   C1A11211   9.098  20.019   8.714
  524POPC   D2A11212   8.856  19.856   8.398
  524POPC   C3A11213   8.969  19.964   8.005
  524POPC   C4A11214   8.735  19.826   7.644
  524POPC   C1B11215   9.282  19.549   8.749
  524POPC   C2B11216   9.390  19.752   8.352
  524POPC   C3B11217   9.443  19.739   7.925
  524POPC   C4B11218   9.242  19.747   7.558
  525POPC   NC311219  22.651  26.643   9.741
  525POPC   PO411220  22.928  25.988   9.598
  525POPC   GL111221  22.843  26.264   9.201
  525POPC   GL211222  23.123  26.438   9.039
  525POPC   C1A11223  22.806  26.201   8.725
  525POPC   D2A11224  23.011  25.953   8.396
  525POPC   C3A11225  22.879  26.026   7.950
  525POPC   C4A11226  22.877  26.125   7.480
  525POPC   C1B11227  23.314  26.294   8.630
  525POPC   C2B11228  23.357  26.247   8.153
  525POPC   C3B11229  23.116  26.450   7.787
  525POPC   C4B11230  23.305  26.419   7.323
  526POPC   NC311231  31.312  31.930   9.531
  526POPC   PO411232  31.100  32.583   9.556
  526POPC   GL111233  31.361  32.353   9.193
  526POPC   GL211234  31.563  32.012   9.112
  526POPC   C1A11235  31.378  32.298   8.738
  526POPC   D2A11236  31.265  32.519   8.364
  526POPC   C3A11237  31.522  32.365   8.026
  526POPC   C4A11238  31.488  32.032   7.753
  526POPC   C1B11239  31.832  32.036   8.800
  526POPC   C2B11240  31.676  32.026   8.379
  526POPC   C3B11241  31.926  32.022   8.007
  526POPC   C4B11242  31.953  31.963   7.556
  527POPC   NC311243  18.516  34.966   9.459
  527POPC   PO411244  18.287  34.309   9.655
  527POPC   GL111245  18.380  34.517   9.256
  527POPC   GL211246  18.126  34.799   9.153
  527POPC   C1A11247  18.331  34.454   8.835
  527POPC   D2A11248  18.222  34.599   8.436
  527POPC   C3A11249  18.373  34.386   8.122
  527POPC   C4A11250  18.505  34.389   7.725
  527POPC   C1B11251  17.912  34.887   8.742
  527POPC   C2B11252  17.754  34.733   8.335
  527POPC   C3B11253  17.909  34.785   7.936
  527POPC   C4B11254  17.981  34.373   7.796
  528POPC   NC311255  14.683  31.588   9.390
  528POPC   PO411256  14.078  31.378   9.651
  528POPC   GL111257  14.244  31.368   9.245
  528POPC   GL211258  14.218  31.746   9.254
  528POPC   C1A11259  14.407  31.446   8.821
  528POPC   D2A11260  14.476  31.240   8.421
  528POPC   C3A11261  14.315  31.385   8.050
  528POPC   C4A11262  14.087  31.180   7.740
  528POPC   C1B11263  14.061  31.832   8.853
  528POPC   C2B11264  14.124  31.660   8.448
  528POPC   C3B11265  14.059  31.840   8.038
  528POPC   C4B11266  14.110  31.669   7.631
  529POPC   NC311267  44.152   3.688   9.301
  529POPC   PO411268  44.797   3.623   9.442
  529POPC   GL111269  44.628   3.720   9.078
  529POPC   GL211270  44.522   3.355   9.095
  529POPC   C1A11271  44.795   3.868   8.689
  529POPC   D2A11272  44.839   3.672   8.292
  529POPC   C3A11273  44.704   3.740   7.875
  529POPC   C4A11274  44.649   3.793   7.398
  529POPC   C1B11275  44.828   3.368   8.747
  529POPC   C2B11276   0.019   3.198   8.378
  529POPC   C3B11277   0.100   3.310   7.937
  529POPC   C4B11278  44.824   3.331   7.581
  530POPC   NC311279  37.129   4.595   9.522
  530POPC   PO411280  36.800   4.056   9.649
  530POPC   GL111281  36.905   4.243   9.240
  530POPC   GL211282  36.803   4.603   9.143
  530POPC   C1A11283  36.814   4.233   8.808
  530POPC   D2A11284  36.722   4.361   8.398
  530POPC   C3A11285  37.033   4.248   8.098
  530POPC   C4A11286  36.881   4.123   7.727
  530POPC   C1B11287  37.024   4.766   8.735
  530POPC   C2B11288  37.037   4.740   8.298
  530POPC   C3B11289  37.139   4.713   7.885
  530POPC   C4B11290  37.079   4.521   7.460
  531POPC   NC311291  14.051  30.173   9.486
  531POPC   PO411292  13.463  29.850   9.206
  531POPC   GL111293  13.750  30.104   8.973
  531POPC   GL211294  14.071  29.942   9.035
  531POPC   C1A11295  13.598  30.021   8.565
  531POPC   D2A11296  13.427  29.682   8.280
  531POPC   C3A11297  13.462  29.908   7.917
  531POPC   C4A11298  13.768  30.216   7.763
  531POPC   C1B11299  14.112  29.826   8.607
  531POPC   C2B11300  13.906  29.874   8.202
  531POPC   C3B11301  13.894  29.606   7.884
  531POPC   C4B11302  14.137  29.576   7.528
  532POPC   NC311303   7.050   0.327   9.537
  532POPC   PO411304   6.383   0.185   9.347
  532POPC   GL111305   6.750   0.306   9.124
  532POPC   GL211306   6.961  44.999   9.089
  532POPC   C1A11307   6.745   0.630   8.825
  532POPC   D2A11308   6.748   0.473   8.424
  532POPC   C3A11309   6.422   0.490   8.128
  532POPC   C4A11310   6.627   0.646   7.783
  532POPC   C1B11311   6.865   0.021   8.636
  532POPC   C2B11312   6.829   0.047   8.149
  532POPC   C3B11313   6.954   0.260   7.764
  532POPC   C4B11314   7.076   0.289   7.280
  533POPC   NC311315  33.828   8.507   9.518
  533POPC   PO411316  34.261   8.039   9.693
  533POPC   GL111317  33.970   8.063   9.265
  533POPC   GL211318  33.721   8.334   9.060
  533POPC   C1A11319  33.924   7.954   8.821
  533POPC   D2A11320  33.862   8.330   8.529
  533POPC   C3A11321  33.698   8.381   8.109
  533POPC   C4A11322  33.879   8.292   7.729
  533POPC   C1B11323  33.444   8.075   8.784
  533POPC   C2B11324  33.566   7.933   8.415
  533POPC   C3B11325  33.690   7.894   8.008
  533POPC   C4B11326  33.420   8.103   7.705
  534POPC   NC311327   9.830  19.167   9.752
  534POPC   PO411328   9.711  19.843   9.478
  534POPC   GL111329   9.550  19.929   9.059
  534POPC   GL211330   9.438  20.267   9.008
  534POPC   C1A11331   9.757  19.716   8.716
  534POPC   D2A11332   9.892  19.643   8.304
  534POPC   C3A11333   9.889  19.956   8.025
  534POPC   C4A11334  10.115  20.246   7.735
  534POPC   C1B11335   9.569  20.193   8.566
  534POPC   C2B11336   9.358  20.268   8.160
  534POPC   C3B11337   9.532  20.214   7.743
  534POPC   C4B11338   9.765  19.901   7.532
  535POPC   NC311339  37.549  12.131   9.375
  535POPC   PO411340  37.859  11.618   9.731
  535POPC   GL111341  38.039  11.876   9.231
  535POPC   GL211342  38.084  12.181   9.122
  535POPC   C1A11343  37.733  11.909   8.743
  535POPC   D2A11344  37.369  11.942   8.414
  535POPC   C3A11345  37.595  11.908   8.012
  535POPC   C4A11346  37.826  11.854   7.669
  535POPC   C1B11347  37.939  12.359   8.751
  535POPC   C2B11348  37.773  12.251   8.361
  535POPC   C3B11349  37.971  12.242   7.993
  535POPC   C4B11350  37.718  12.368   7.674
  536POPC   NC311351  27.836  19.688   9.670
  536POPC   PO411352  27.285  19.344   9.432
  536POPC   GL111353  27.517  19.643   9.236
  536POPC   GL211354  27.257  19.735   9.025
  536POPC   C1A11355  27.725  19.642   8.830
  536POPC   D2A11356  27.584  19.664   8.396
  536POPC   C3A11357  27.855  19.739   8.055
  536POPC   C4A11358  27.839  19.545   7.669
  536POPC   C1B11359  27.238  19.410   8.708
  536POPC   C2B11360  27.207  19.293   8.249
  536POPC   C3B11361  27.327  19.512   7.842
  536POPC   C4B11362  27.238  19.377   7.389
  537POPC   NC311363   0.238  15.361   9.609
  537POPC   PO411364   0.621  14.922   9.409
  537POPC   GL111365   0.618  15.168   9.067
  537POPC   GL211366   0.301  15.252   9.114
  537POPC   C1A11367   0.697  15.031   8.674
  537POPC   D2A11368   0.908  14.987   8.306
  537POPC   C3A11369   0.671  15.135   7.975
  537POPC   C4A11370   0.475  14.952   7.630
  537POPC   C1B11371   0.192  15.102   8.731
  537POPC   C2B11372   0.330  15.279   8.348
  537POPC   C3B11373   0.132  15.249   7.949
  537POPC   C4B11374  44.819  14.954   7.952
  538POPC   NC311375  22.463  42.953   9.665
  538POPC   PO411376  22.971  43.339   9.447
  538POPC   GL111377  22.921  43.062   9.128
  538POPC   GL211378  22.796  43.283   8.948
  538POPC   C1A11379  22.916  42.802   8.764
  538POPC   D2A11380  23.107  42.674   8.416
  538POPC   C3A11381  22.835  42.762   8.100
  538POPC   C4A11382  22.855  43.073   7.754
  538POPC   C1B11383  23.023  43.273   8.622
  538POPC   C2B11384  22.972  43.223   8.240
  538POPC   C3B11385  23.185  43.439   7.970
  538POPC   C4B11386  23.009  43.590   7.652
  539POPC   NC311387  37.784   0.247   9.630
  539POPC   PO411388  37.487   0.837   9.563
  539POPC   GL111389  37.749   0.706   9.199
  539POPC   GL211390  38.074   0.507   9.326
  539POPC   C1A11391  37.615   0.597   8.762
  539POPC   D2A11392  37.318   0.686   8.430
  539POPC   C3A11393  37.516   0.646   8.009
  539POPC   C4A11394  37.552   0.361   7.681
  539POPC   C1B11395  38.071   0.434   8.908
  539POPC   C2B11396  37.997   0.336   8.488
  539POPC   C3B11397  37.905   0.301   8.054
  539POPC   C4B11398  38.027   0.559   7.727
  540POPC   NC311399  22.592   3.196   9.596
  540POPC   PO411400  23.296   3.065   9.390
  540POPC   GL111401  23.123   2.813   9.105
  540POPC   GL211402  22.792   2.890   9.211
  540POPC   C1A11403  23.107   2.924   8.685
  540POPC   D2A11404  23.076   3.084   8.281
  540POPC   C3A11405  23.145   2.765   8.027
  540POPC   C4A11406  22.957   2.630   7.675
  540POPC   C1B11407  22.612   2.838   8.801
  540POPC   C2B11408  22.733   2.680   8.382
  540POPC   C3B11409  22.641   2.896   8.007
  540POPC   C4B11410  22.492   3.213   7.706
  541POPC   NC311411   1.393  34.318   9.594
  541POPC   PO411412   2.053  34.427   9.724
  541POPC   GL111413   1.986  34.429   9.210
  541POPC   GL211414   1.871  34.731   9.055
  541POPC   C1A11415   2.113  34.445   8.743
  541POPC   D2A11416   1.860  34.480   8.384
  541POPC   C3A11417   2.156  34.436   8.055
  541POPC   C4A11418   2.105  34.348   7.632
  541POPC   C1B11419   2.035  34.945   8.732
  541POPC   C2B11420   1.789  35.004   8.399
  541POPC   C3B11421   1.829  34.829   8.001
  541POPC   C4B11422   2.165  34.829   7.717
  542POPC   NC311423   2.391  22.107   9.545
  542POPC   PO411424   3.053  22.360   9.574
  542POPC   GL111425   2.893  22.425   9.146
  542POPC   GL211426   2.540  22.386   9.137
  542POPC   C1A11427   2.832  22.255   8.740
  542POPC   D2A11428   3.031  21.916   8.537
  542POPC   C3A11429   3.046  21.924   8.101
  542POPC   C4A11430   2.881  22.139   7.731
  542POPC   C1B11431   2.338  22.250   8.701
  542POPC   C2B11432   2.550  22.203   8.278
  542POPC   C3B11433   2.398  22.238   7.849
  542POPC   C4B11434   2.436  22.273   7.392
  543POPC   NC311435  24.705  11.822   9.512
  543POPC   PO411436  24.674  12.433   9.737
  543POPC   GL111437  24.416  12.254   9.336
  543POPC   GL211438  24.712  12.212   9.142
  543POPC   C1A11439  24.351  12.058   8.854
  543POPC   D2A11440  24.575  11.983   8.436
  543POPC   C3A11441  24.553  12.281   8.106
  543POPC   C4A11442  24.263  12.194   7.799
  543POPC   C1B11443  24.794  11.800   8.874
  543POPC   C2B11444  24.766  11.500   8.516
  543POPC   C3B11445  24.839  11.553   8.080
  543POPC   C4B11446  24.609  11.827   7.843
  544POPC   NC311447  18.502  33.134   9.473
  544POPC   PO411448  17.846  33.058   9.536
  544POPC   GL111449  18.113  33.072   9.173
  544POPC   GL211450  18.203  32.725   9.136
  544POPC   C1A11451  18.310  33.280   8.836
  544POPC   D2A11452  18.146  33.402   8.450
  544POPC   C3A11453  18.442  33.316   8.140
  544POPC   C4A11454  18.504  33.182   7.714
  544POPC   C1B11455  18.436  32.801   8.774
  544POPC   C2B11456  18.285  32.899   8.361
  544POPC   C3B11457  18.383  32.716   7.953
  544POPC   C4B11458  18.721  32.729   7.630
  545POPC   NC311459  41.235  41.605   9.498
  545POPC   PO411460  41.869  41.820   9.417
  545POPC   GL111461  41.618  41.567   9.171
  545POPC   GL211462  41.839  41.327   9.051
  545POPC   C1A11463  41.400  41.382   8.814
  545POPC   D2A11464  41.591  41.290   8.414
  545POPC   C3A11465  41.370  41.407   8.031
  545POPC   C4A11466  41.396  41.446   7.574
  545POPC   C1B11467  41.782  41.705   8.710
  545POPC   C2B11468  41.935  41.698   8.260
  545POPC   C3B11469  41.807  41.585   7.829
  545POPC   C4B11470  41.858  41.481   7.367
  546POPC   NC311471   1.151  44.256   9.561
  546POPC   PO411472   1.246  43.636   9.435
  546POPC   GL111473   1.001  43.827   9.129
  546POPC   GL211474   0.785  43.532   9.060
  546POPC   C1A11475   1.200  44.040   8.766
  546POPC   D2A11476   1.476  43.919   8.412
  546POPC   C3A11477   1.380  44.034   8.021
  546POPC   C4A11478   1.328  43.865   7.631
  546POPC   C1B11479   0.858  43.664   8.657
  546POPC   C2B11480   0.951  43.878   8.311
  546POPC   C3B11481   0.975  43.668   7.943
  546POPC   C4B11482   0.852  43.587   7.509
  547POPC   NC311483   5.160  38.671  10.112
  547POPC   PO411484   5.008  38.639   9.460
  547POPC   GL111485   5.005  38.588   9.086
  547POPC   GL211486   5.366  38.589   9.027
  547POPC   C1A11487   5.008  38.283   8.776
  547POPC   D2A11488   5.232  38.293   8.411
  547POPC   C3A11489   4.992  38.339   8.059
  547POPC   C4A11490   5.180  38.254   7.694
  547POPC   C1B11491   5.211  38.774   8.659
  547POPC   C2B11492   5.184  38.787   8.216
  547POPC   C3B11493   5.396  38.679   7.867
  547POPC   C4B11494   5.351  38.688   7.426
  548POPC   NC311495  15.353   0.978   9.508
  548POPC   PO411496  15.565   1.497   9.620
  548POPC   GL111497  15.550   1.346   9.175
  548POPC   GL211498  15.211   1.251   9.093
  548POPC   C1A11499  15.492   1.485   8.703
  548POPC   D2A11500  15.478   1.419   8.220
  548POPC   C3A11501  15.096   1.334   7.943
  548POPC   C4A11502  15.077   1.344   7.501
  548POPC   C1B11503  15.460   0.986   8.787
  548POPC   C2B11504  15.646   0.957   8.367
  548POPC   C3B11505  15.495   1.005   7.911
  548POPC   C4B11506  15.206   0.843   7.561
  549POPC   NC311507   6.089   2.951   9.480
  549POPC   PO411508   5.478   2.745   9.574
  549POPC   GL111509   5.658   2.618   9.160
  549POPC   GL211510   5.988   2.499   9.219
  549POPC   C1A11511   5.755   2.597   8.701
  549POPC   D2A11512   6.004   2.843   8.393
  549POPC   C3A11513   5.778   2.864   8.024
  549POPC   C4A11514   5.717   2.629   7.653
  549POPC   C1B11515   6.233   2.620   8.840
  549POPC   C2B11516   6.317   2.436   8.408
  549POPC   C3B11517   6.169   2.496   7.970
  549POPC   C4B11518   6.160   2.862   7.683
  550POPC   NC311519  39.039  35.034   9.563
  550POPC   PO411520  39.033  35.644   9.447
  550POPC   GL111521  39.104  35.466   9.080
  550POPC   GL211522  39.310  35.171   9.097
  550POPC   C1A11523  39.047  35.474   8.644
  550POPC   D2A11524  39.135  35.148   8.373
  550POPC   C3A11525  39.177  35.290   7.954
  550POPC   C4A11526  39.324  35.561   7.646
  550POPC   C1B11527  39.537  35.412   8.771
  550POPC   C2B11528  39.516  35.502   8.333
  550POPC   C3B11529  39.737  35.538   7.942
  550POPC   C4B11530  39.768  35.261   7.594
  551POPC   NC311531  25.409  27.040   9.510
  551POPC   PO411532  24.847  26.463   9.489
  551POPC   GL111533  25.182  26.662   9.200
  551POPC   GL211534  25.541  26.722   9.149
  551POPC   C1A11535  25.312  26.517   8.759
  551POPC   D2A11536  25.149  26.567   8.354
  551POPC   C3A11537  25.292  26.747   7.985
  551POPC   C4A11538  25.082  27.149   7.849
  551POPC   C1B11539  25.458  26.992   8.760
  551POPC   C2B11540  25.377  27.082   8.342
  551POPC   C3B11541  25.601  27.170   7.945
  551POPC   C4B11542  25.670  26.883   7.585
  552POPC   NC311543  11.485   9.196   9.468
  552POPC   PO411544  10.954   8.773   9.652
  552POPC   GL111545  11.054   9.079   9.253
  552POPC   GL211546  11.396   8.903   9.057
  552POPC   C1A11547  11.138   9.237   8.811
  552POPC   D2A11548  11.542   9.174   8.560
  552POPC   C3A11549  11.555   9.169   8.104
  552POPC   C4A11550  11.492   8.969   7.694
  552POPC   C1B11551  11.207   8.790   8.587
  552POPC   C2B11552  11.256   8.759   8.174
  552POPC   C3B11553  11.109   8.630   7.803
  552POPC   C4B11554  10.973   8.674   7.397
  553POPC   NC311555  38.711  42.495   9.570
  553POPC   PO411556  38.357  41.958   9.620
  553POPC   GL111557  38.392  42.246   9.251
  553POPC   GL211558  38.678  42.075   9.221
  553POPC   C1A11559  38.745  42.472   8.943
  553POPC   D2A11560  38.837  42.422   8.524
  553POPC   C3A11561  38.641  42.641   8.205
  553POPC   C4A11562  38.724  42.606   7.783
  553POPC   C1B11563  38.510  42.060   8.783
  553POPC   C2B11564  38.401  42.208   8.374
  553POPC   C3B11565  38.380  42.278   7.939
  553POPC   C4B11566  38.162  42.606   7.671
  554POPC   NC311567  33.077  21.313   9.676
  554POPC   PO411568  33.444  21.748   9.334
  554POPC   GL111569  33.299  21.377   9.072
  554POPC   GL211570  33.067  21.124   9.188
  554POPC   C1A11571  33.130  21.318   8.679
  554POPC   D2A11572  33.244  21.446   8.286
  554POPC   C3A11573  33.155  21.356   7.873
  554POPC   C4A11574  33.509  21.311   7.644
  554POPC   C1B11575  32.756  21.003   8.843
  554POPC   C2B11576  32.695  21.141   8.402
  554POPC   C3B11577  32.664  21.193   7.971
  554POPC   C4B11578  32.724  21.361   7.572
  555POPC   NC311579  38.665  24.746   9.538
  555POPC   PO411580  38.400  24.082   9.626
  555POPC   GL111581  38.411  24.401   9.255
  555POPC   GL211582  38.728  24.490   9.068
  555POPC   C1A11583  38.249  24.380   8.844
  555POPC   D2A11584  38.212  24.246   8.408
  555POPC   C3A11585  38.397  24.476   8.049
  555POPC   C4A11586  38.282  24.624   7.638
  555POPC   C1B11587  38.693  24.252   8.651
  555POPC   C2B11588  38.817  24.178   8.230
  555POPC   C3B11589  38.609  24.024   7.873
  555POPC   C4B11590  38.239  24.120   7.664
  556POPC   NC311591  23.190  38.135   9.434
  556POPC   PO411592  22.734  38.620   9.543
  556POPC   GL111593  22.977  38.521   9.179
  556POPC   GL211594  23.170  38.782   9.065
  556POPC   C1A11595  23.135  38.309   8.786
  556POPC   D2A11596  22.963  38.389   8.350
  556POPC   C3A11597  23.164  38.370   7.960
  556POPC   C4A11598  22.902  38.192   7.641
  556POPC   C1B11599  22.846  38.719   8.715
  556POPC   C2B11600  22.748  38.938   8.365
  556POPC   C3B11601  22.591  38.783   7.991
  556POPC   C4B11602  22.857  38.683   7.651
  557POPC   NC311603  41.349  29.847   9.553
  557POPC   PO411604  41.827  30.254   9.539
  557POPC   GL111605  41.694  29.999   9.198
  557POPC   GL211606  41.361  30.115   9.135
  557POPC   C1A11607  41.746  29.991   8.749
  557POPC   D2A11608  41.996  30.034   8.356
  557POPC   C3A11609  41.738  29.966   7.999
  557POPC   C4A11610  41.627  29.615   7.767
  557POPC   C1B11611  41.240  29.924   8.784
  557POPC   C2B11612  41.221  29.765   8.425
  557POPC   C3B11613  41.234  29.821   8.021
  557POPC   C4B11614  41.099  29.960   7.641
  558POPC   NC311615  13.622  14.203   9.574
  558POPC   PO411616  13.375  14.835   9.383
  558POPC   GL111617  13.614  14.504   9.167
  558POPC   GL211618  13.906  14.245   9.161
  558POPC   C1A11619  13.573  14.370   8.765
  558POPC   D2A11620  13.444  14.544   8.354
  558POPC   C3A11621  13.543  14.330   7.962
  558POPC   C4A11622  13.401  14.285   7.544
  558POPC   C1B11623  14.077  14.417   8.827
  558POPC   C2B11624  14.193  14.245   8.481
  558POPC   C3B11625  14.033  14.384   8.121
  558POPC   C4B11626  13.987  14.166   7.755
  559POPC   NC311627  19.354  23.648   9.579
  559POPC   PO411628  19.032  24.156   9.417
  559POPC   GL111629  19.101  23.799   9.130
  559POPC   GL211630  19.249  23.447   9.121
  559POPC   C1A11631  19.163  23.810   8.716
  559POPC   D2A11632  19.068  24.015   8.345
  559POPC   C3A11633  18.975  23.892   7.941
  559POPC   C4A11634  19.109  23.971   7.554
  559POPC   C1B11635  19.025  23.338   8.742
  559POPC   C2B11636  19.067  23.502   8.315
  559POPC   C3B11637  18.887  23.393   7.919
  559POPC   C4B11638  18.749  23.569   7.526
  560POPC   NC311639   3.859   0.435   9.409
  560POPC   PO411640   3.194   0.542   9.424
  560POPC   GL111641   3.345   0.303   9.111
  560POPC   GL211642   3.578   0.052   9.196
  560POPC   C1A11643   3.430   0.278   8.683
  560POPC   D2A11644   3.486   0.017   8.344
  560POPC   C3A11645   3.265   0.075   7.949
  560POPC   C4A11646   3.060   0.442   7.805
  560POPC   C1B11647   3.869   0.033   8.822
  560POPC   C2B11648   3.971   0.224   8.411
  560POPC   C3B11649   3.788   0.201   7.980
  560POPC   C4B11650   3.741   0.255   7.532
  561POPC   NC311651  30.327  14.122   9.430
  561POPC   PO411652  30.643  13.714   9.793
  561POPC   GL111653  30.596  13.701   9.310
  561POPC   GL211654  30.447  13.401   9.094
  561POPC   C1A11655  30.732  13.774   8.886
  561POPC   D2A11656  30.580  13.865   8.469
  561POPC   C3A11657  30.883  13.948   8.155
  561POPC   C4A11658  30.861  13.759   7.752
  561POPC   C1B11659  30.411  13.412   8.638
  561POPC   C2B11660  30.553  13.259   8.270
  561POPC   C3B11661  30.542  13.370   7.845
  561POPC   C4B11662  30.714  13.161   7.503
  562POPC   NC311663  13.030  26.263   9.414
  562POPC   PO411664  12.668  25.640   9.441
  562POPC   GL111665  12.879  25.864   9.113
  562POPC   GL211666  13.207  25.838   8.944
  562POPC   C1A11667  12.762  26.060   8.749
  562POPC   D2A11668  12.766  25.900   8.362
  562POPC   C3A11669  12.652  26.205   8.118
  562POPC   C4A11670  12.786  26.157   7.751
  562POPC   C1B11671  13.245  26.295   8.794
  562POPC   C2B11672  13.037  26.398   8.414
  562POPC   C3B11673  13.169  26.093   8.096
  562POPC   C4B11674  13.515  26.097   7.826
  563POPC   NC311675  16.911  27.041   9.557
  563POPC   PO411676  16.347  26.914   9.293
  563POPC   GL111677  16.722  26.796   9.067
  563POPC   GL211678  16.979  27.024   9.064
  563POPC   C1A11679  16.795  26.774   8.610
  563POPC   D2A11680  16.500  26.613   8.305
  563POPC   C3A11681  16.614  26.555   7.899
  563POPC   C4A11682  16.498  26.892   7.681
  563POPC   C1B11683  17.230  27.033   8.702
  563POPC   C2B11684  17.170  27.111   8.267
  563POPC   C3B11685  17.021  27.200   7.838
  563POPC   C4B11686  17.035  27.127   7.359
  564POPC   NC311687  20.045  28.266   9.638
  564POPC   PO411688  19.691  28.099   9.062
  564POPC   GL111689  19.794  28.508   8.996
  564POPC   GL211690  20.109  28.643   9.192
  564POPC   C1A11691  19.730  28.472   8.534
  564POPC   D2A11692  19.452  28.157   8.309
  564POPC   C3A11693  19.495  28.197   7.874
  564POPC   C4A11694  19.681  28.184   7.467
  564POPC   C1B11695  20.092  28.839   8.762
  564POPC   C2B11696  20.142  28.693   8.356
  564POPC   C3B11697  20.010  28.338   8.097
  564POPC   C4B11698  19.895  28.548   7.741
  565POPC   NC311699  38.075  28.126   9.604
  565POPC   PO411700  38.311  27.428   9.523
  565POPC   GL111701  38.492  27.805   9.292
  565POPC   GL211702  38.444  27.564   9.033
  565POPC   C1A11703  38.742  27.938   8.912
  565POPC   D2A11704  38.611  27.734   8.481
  565POPC   C3A11705  38.799  27.732   8.066
  565POPC   C4A11706  38.490  27.652   7.720
  565POPC   C1B11707  38.176  27.633   8.710
  565POPC   C2B11708  38.033  27.439   8.339
  565POPC   C3B11709  38.060  27.300   7.916
  565POPC   C4B11710  38.122  27.338   7.450
  566POPC   NC311711  21.886   2.981   9.423
  566POPC   PO411712  22.451   2.746   9.612
  566POPC   GL111713  22.291   2.742   9.213
  566POPC   GL211714  22.319   3.099   9.159
  566POPC   C1A11715  22.140   2.512   8.853
  566POPC   D2A11716  21.964   2.530   8.419
  566POPC   C3A11717  22.257   2.585   8.097
  566POPC   C4A11718  22.311   2.703   7.675
  566POPC   C1B11719  22.116   3.017   8.772
  566POPC   C2B11720  22.195   3.046   8.324
  566POPC   C3B11721  21.987   3.017   7.918
  566POPC   C4B11722  22.058   3.125   7.484
  567POPC   NC311723  37.811  11.189   9.490
  567POPC   PO411724  38.525  11.109   9.493
  567POPC   GL111725  38.334  11.108   9.125
  567POPC   GL211726  38.118  11.376   9.105
  567POPC   C1A11727  38.449  11.271   8.733
  567POPC   D2A11728  38.718  11.282   8.405
  567POPC   C3A11729  38.542  11.054   8.103
  567POPC   C4A11730  38.366  11.263   7.761
  567POPC   C1B11731  37.966  11.417   8.680
  567POPC   C2B11732  38.171  11.357   8.291
  567POPC   C3B11733  37.938  11.442   7.922
  567POPC   C4B11734  38.033  11.444   7.425
  568POPC   NC311735  28.919  43.255   9.457
  568POPC   PO411736  29.251  42.725   9.717
  568POPC   GL111737  29.199  42.835   9.245
  568POPC   GL211738  29.206  43.202   9.056
  568POPC   C1A11739  29.294  42.813   8.781
  568POPC   D2A11740  29.109  43.080   8.459
  568POPC   C3A11741  29.255  42.924   8.090
  568POPC   C4A11742  29.270  43.136   7.747
  568POPC   C1B11743  29.132  43.506   8.735
  568POPC   C2B11744  28.861  43.525   8.376
  568POPC   C3B11745  29.175  43.523   8.068
  568POPC   C4B11746  29.133  43.621   7.642
  569POPC   NC311747  32.449  32.344   9.608
  569POPC   PO411748  31.759  32.067   9.566
  569POPC   GL111749  32.085  32.139   9.272
  569POPC   GL211750  31.894  32.418   9.197
  569POPC   C1A11751  32.284  32.289   8.876
  569POPC   D2A11752  32.118  32.284   8.441
  569POPC   C3A11753  32.359  32.281   8.093
  569POPC   C4A11754  32.406  31.994   7.761
  569POPC   C1B11755  31.851  32.565   8.787
  569POPC   C2B11756  32.057  32.770   8.460
  569POPC   C3B11757  31.917  32.659   8.075
  569POPC   C4B11758  32.056  32.459   7.724
  570POPC   NC311759  12.708  25.094   9.479
  570POPC   PO411760  11.995  25.137   9.515
  570POPC   GL111761  12.033  25.290   9.114
  570POPC   GL211762  12.397  25.296   9.103
  570POPC   C1A11763  12.030  25.263   8.697
  570POPC   D2A11764  11.869  25.348   8.337
  570POPC   C3A11765  11.803  25.099   8.054
  570POPC   C4A11766  11.847  25.244   7.674
  570POPC   C1B11767  12.364  25.636   8.783
  570POPC   C2B11768  12.358  25.554   8.325
  570POPC   C3B11769  12.288  25.297   7.962
  570POPC   C4B11770  12.360  25.316   7.511
  571POPC   NC311771  36.010   6.482   9.701
  571POPC   PO411772  36.358   7.103   9.552
  571POPC   GL111773  36.201   6.852   9.188
  571POPC   GL211774  35.927   6.640   9.237
  571POPC   C1A11775  36.245   6.633   8.758
  571POPC   D2A11776  36.303   6.377   8.363
  571POPC   C3A11777  36.499   6.598   7.998
  571POPC   C4A11778  36.556   6.718   7.550
  571POPC   C1B11779  35.758   6.502   8.887
  571POPC   C2B11780  35.767   6.599   8.468
  571POPC   C3B11781  35.982   6.670   8.082
  571POPC   C4B11782  35.876   6.605   7.680
  572POPC   NC311783  16.698  23.491   9.478
  572POPC   PO411784  16.699  24.118   9.482
  572POPC   GL111785  16.631  23.900   9.130
  572POPC   GL211786  16.368  23.649   9.116
  572POPC   C1A11787  16.638  23.857   8.712
  572POPC   D2A11788  16.931  23.774   8.424
  572POPC   C3A11789  16.751  23.788   8.038
  572POPC   C4A11790  16.373  23.961   7.848
  572POPC   C1B11791  16.493  23.361   8.771
  572POPC   C2B11792  16.615  23.348   8.332
  572POPC   C3B11793  16.443  23.410   7.892
  572POPC   C4B11794  16.498  23.220   7.467
  573POPC   NC311795   1.359  21.743   9.573
  573POPC   PO411796   1.086  22.383   9.478
  573POPC   GL111797   1.242  22.088   9.201
  573POPC   GL211798   0.976  22.158   9.003
  573POPC   C1A11799   1.385  21.942   8.795
  573POPC   D2A11800   1.202  22.041   8.405
  573POPC   C3A11801   1.409  22.117   8.011
  573POPC   C4A11802   1.089  22.341   7.802
  573POPC   C1B11803   0.904  21.768   8.810
  573POPC   C2B11804   0.774  21.734   8.404
  573POPC   C3B11805   0.800  22.007   8.072
  573POPC   C4B11806   0.664  22.037   7.643
  574POPC   NC311807   9.808   8.388   9.538
  574POPC   PO411808   9.817   7.688   9.755
  574POPC   GL111809   9.568   8.012   9.352
  574POPC   GL211810   9.849   8.066   9.114
  574POPC   C1A11811   9.417   8.170   8.910
  574POPC   D2A11812   9.713   8.080   8.563
  574POPC   C3A11813   9.566   8.028   8.146
  574POPC   C4A11814   9.767   7.902   7.741
  574POPC   C1B11815  10.096   8.319   8.827
  574POPC   C2B11816  10.075   8.412   8.392
  574POPC   C3B11817   9.860   8.396   7.972
  574POPC   C4B11818   9.818   8.390   7.504
  575POPC   NC311819   4.833   5.121   9.287
  575POPC   PO411820   5.471   5.091   9.503
  575POPC   GL111821   5.293   5.061   9.088
  575POPC   GL211822   5.214   5.376   8.946
  575POPC   C1A11823   5.133   4.925   8.687
  575POPC   D2A11824   5.263   5.016   8.274
  575POPC   C3A11825   5.133   5.056   7.874
  575POPC   C4A11826   5.051   4.843   7.525
  575POPC   C1B11827   5.156   5.431   8.535
  575POPC   C2B11828   5.118   5.520   8.087
  575POPC   C3B11829   4.819   5.443   7.742
  575POPC   C4B11830   4.824   5.333   7.293
  576POPC   NC311831  21.916  29.928   9.612
  576POPC   PO411832  22.461  29.680   9.387
  576POPC   GL111833  22.205  29.801   9.060
  576POPC   GL211834  22.094  30.115   9.156
  576POPC   C1A11835  22.302  29.985   8.662
  576POPC   D2A11836  22.577  29.864   8.311
  576POPC   C3A11837  22.543  29.916   7.857
  576POPC   C4A11838  22.197  29.859   7.496
  576POPC   C1B11839  21.857  30.243   8.814
  576POPC   C2B11840  21.975  30.319   8.417
  576POPC   C3B11841  21.851  30.388   8.016
  576POPC   C4B11842  21.712  30.156   7.689
  577POPC   NC311843   0.017  35.159   9.603
  577POPC   PO411844  44.457  35.564   9.466
  577POPC   GL111845  44.703  35.480   9.104
  577POPC   GL211846  44.825  35.134   9.136
  577POPC   C1A11847  44.685  35.526   8.644
  577POPC   D2A11848  44.853  35.275   8.304
  577POPC   C3A11849  44.975  35.456   7.926
  577POPC   C4A11850  44.674  35.389   7.587
  577POPC   C1B11851  44.661  35.014   8.762
  577POPC   C2B11852  44.361  35.115   8.464
  577POPC   C3B11853  44.438  35.126   8.007
  577POPC   C4B11854  44.804  34.962   7.787
  578POPC   NC311855  42.105  39.413   9.481
  578POPC   PO411856  42.260  38.838   9.764
  578POPC   GL111857  42.367  39.059   9.234
  578POPC   GL211858  42.189  39.292   8.999
  578POPC   C1A11859  42.377  38.892   8.746
  578POPC   D2A11860  42.118  38.768   8.347
  578POPC   C3A11861  42.249  38.943   7.946
  578POPC   C4A11862  42.594  39.212   7.887
  578POPC   C1B11863  41.880  39.055   8.722
  578POPC   C2B11864  41.859  39.215   8.315
  578POPC   C3B11865  42.126  39.501   8.117
  578POPC   C4B11866  42.145  39.405   7.705
  579POPC   NC311867  38.531  13.446   9.631
  579POPC   PO411868  37.919  13.542   9.479
  579POPC   GL111869  38.194  13.492   9.149
  579POPC   GL211870  38.558  13.475   9.119
  579POPC   C1A11871  38.239  13.698   8.764
  579POPC   D2A11872  38.177  13.546   8.367
  579POPC   C3A11873  38.408  13.825   8.093
  579POPC   C4A11874  38.508  13.810   7.650
  579POPC   C1B11875  38.816  13.270   8.763
  579POPC   C2B11876  38.665  13.406   8.343
  579POPC   C3B11877  38.440  13.355   7.933
  579POPC   C4B11878  38.594  13.308   7.535
  580POPC   NC311879  21.248  13.871   9.515
  580POPC   PO411880  21.515  13.244   9.749
  580POPC   GL111881  21.552  13.313   9.254
  580POPC   GL211882  21.549  13.669   9.130
  580POPC   C1A11883  21.532  13.320   8.761
  580POPC   D2A11884  21.592  13.658   8.420
  580POPC   C3A11885  21.642  13.479   8.006
  580POPC   C4A11886  21.682  13.111   7.760
  580POPC   C1B11887  21.218  13.737   8.788
  580POPC   C2B11888  21.104  13.847   8.330
  580POPC   C3B11889  21.229  13.757   7.872
  580POPC   C4B11890  21.191  13.542   7.446
  581POPC   NC311891  42.454  24.633   9.412
  581POPC   PO411892  41.780  24.441   9.413
  581POPC   GL111893  42.140  24.310   9.164
  581POPC   GL211894  42.509  24.152   9.256
  581POPC   C1A11895  42.151  24.473   8.764
  581POPC   D2A11896  41.900  24.502   8.388
  581POPC   C3A11897  42.128  24.555   8.050
  581POPC   C4A11898  42.211  24.313   7.749
  581POPC   C1B11899  42.636  24.166   8.806
  581POPC   C2B11900  42.475  24.340   8.385
  581POPC   C3B11901  42.641  24.474   7.988
  581POPC   C4B11902  42.664  24.399   7.547
  582POPC   NC311903  34.361  27.481   9.394
  582POPC   PO411904  35.018  27.771   9.505
  582POPC   GL111905  34.850  27.688   9.120
  582POPC   GL211906  34.561  27.892   9.087
  582POPC   C1A11907  34.782  27.635   8.664
  582POPC   D2A11908  34.513  27.600   8.296
  582POPC   C3A11909  34.584  27.332   7.935
  582POPC   C4A11910  34.851  27.390   7.582
  582POPC   C1B11911  34.268  27.800   8.708
  582POPC   C2B11912  34.055  27.855   8.296
  582POPC   C3B11913  34.202  27.694   7.884
  582POPC   C4B11914  34.445  27.689   7.535
  583POPC   NC311915  39.307  22.587   9.422
  583POPC   PO411916  38.974  23.286   9.431
  583POPC   GL111917  39.174  23.010   9.148
  583POPC   GL211918  38.909  22.781   9.087
  583POPC   C1A11919  39.497  22.966   8.770
  583POPC   D2A11920  39.703  23.247   8.447
  583POPC   C3A11921  39.537  23.308   8.048
  583POPC   C4A11922  39.536  23.142   7.650
  583POPC   C1B11923  38.997  23.049   8.697
  583POPC   C2B11924  39.246  22.974   8.328
  583POPC   C3B11925  39.109  23.058   7.925
  583POPC   C4B11926  39.097  22.720   7.633
  584POPC   NC311927  23.481  41.890   9.554
  584POPC   PO411928  23.982  41.542   9.399
  584POPC   GL111929  23.702  41.699   9.109
  584POPC   GL211930  23.351  41.621   9.139
  584POPC   C1A11931  23.706  41.646   8.686
  584POPC   D2A11932  23.955  41.761   8.362
  584POPC   C3A11933  23.709  41.632   8.091
  584POPC   C4A11934  23.604  41.537   7.674
  584POPC   C1B11935  23.305  41.927   8.822
  584POPC   C2B11936  23.313  41.820   8.382
  584POPC   C3B11937  23.321  41.890   7.936
  584POPC   C4B11938  23.557  42.031   7.565
  585POPC   NC311939   0.253  21.215   9.536
  585POPC   PO411940   0.796  21.627   9.494
  585POPC   GL111941   0.651  21.306   9.151
  585POPC   GL211942   0.323  21.125   9.053
  585POPC   C1A11943   0.523  21.425   8.720
  585POPC   D2A11944   0.291  21.464   8.357
  585POPC   C3A11945   0.386  21.186   8.056
  585POPC   C4A11946   0.432  21.208   7.625
  585POPC   C1B11947   0.123  20.813   8.739
  585POPC   C2B11948   0.240  20.726   8.274
  585POPC   C3B11949   0.138  20.806   7.799
  585POPC   C4B11950   0.217  20.834   7.315
  586POPC   NC311951  31.637  33.856   9.543
  586POPC   PO411952  31.040  33.505   9.619
  586POPC   GL111953  31.198  33.709   9.184
  586POPC   GL211954  31.544  33.682   9.081
  586POPC   C1A11955  31.336  34.004   8.773
  586POPC   D2A11956  31.629  34.042   8.396
  586POPC   C3A11957  31.466  33.850   8.026
  586POPC   C4A11958  31.211  33.687   7.704
  586POPC   C1B11959  31.782  33.619   8.698
  586POPC   C2B11960  32.068  33.760   8.394
  586POPC   C3B11961  31.957  33.655   7.985
  586POPC   C4B11962  31.728  33.717   7.592
  587POPC   NC311963  30.374  29.485   9.172
  587POPC   PO411964  30.918  29.192   9.522
  587POPC   GL111965  30.873  29.381   9.157
  587POPC   GL211966  30.805  29.736   9.251
  587POPC   C1A11967  30.792  29.163   8.756
  587POPC   D2A11968  30.607  29.220   8.346
  587POPC   C3A11969  30.785  29.110   7.948
  587POPC   C4A11970  30.541  29.208   7.601
  587POPC   C1B11971  30.881  29.707   8.781
  587POPC   C2B11972  31.083  29.457   8.473
  587POPC   C3B11973  31.174  29.425   8.079
  587POPC   C4B11974  30.936  29.543   7.724
  588POPC   NC311975  23.969  11.258   9.497
  588POPC   PO411976  23.270  11.167   9.539
  588POPC   GL111977  23.514  11.057   9.166
  588POPC   GL211978  23.891  11.074   9.044
  588POPC   C1A11979  23.521  11.275   8.785
  588POPC   D2A11980  23.677  11.154   8.419
  588POPC   C3A11981  23.536  11.346   8.109
  588POPC   C4A11982  23.738  11.407   7.770
  588POPC   C1B11983  24.025  11.408   8.724
  588POPC   C2B11984  24.023  11.558   8.276
  588POPC   C3B11985  24.131  11.694   7.846
  588POPC   C4B11986  24.124  11.442   7.438
  589POPC   NC311987  35.212  22.065   9.538
  589POPC   PO411988  35.631  22.517   9.549
  589POPC   GL111989  35.513  22.176   9.174
  589POPC   GL211990  35.174  22.276   9.053
  589POPC   C1A11991  35.392  21.888   8.803
  589POPC   D2A11992  35.157  21.883   8.393
  589POPC   C3A11993  35.313  22.183   8.064
  589POPC   C4A11994  35.247  22.138   7.630
  589POPC   C1B11995  35.478  22.584   8.838
  589POPC   C2B11996  35.744  22.585   8.449
  589POPC   C3B11997  35.585  22.639   8.030
  589POPC   C4B11998  35.660  22.426   7.673
  590POPC   NC311999  32.445   9.085   9.619
  590POPC   PO412000  32.205   8.616   9.187
  590POPC   GL112001  32.213   9.038   9.157
  590POPC   GL212002  32.543   9.183   9.101
  590POPC   C1A12003  32.105   9.198   8.782
  590POPC   D2A12004  32.031   9.061   8.393
  590POPC   C3A12005  32.396   9.081   8.124
  590POPC   C4A12006  32.274   8.944   7.722
  590POPC   C1B12007  32.599   8.979   8.664
  590POPC   C2B12008  32.783   8.706   8.304
  590POPC   C3B12009  32.657   8.626   7.882
  590POPC   C4B12010  32.634   8.755   7.437
  591POPC   NC312011   8.037  28.620   9.605
  591POPC   PO412012   8.488  28.125   9.541
  591POPC   GL112013   8.474  28.431   9.198
  591POPC   GL212014   8.139  28.356   9.139
  591POPC   C1A12015   8.450  28.555   8.743
  591POPC   D2A12016   8.208  28.432   8.350
  591POPC   C3A12017   8.287  28.572   7.916
  591POPC   C4A12018   8.417  28.499   7.455
  591POPC   C1B12019   8.409  28.067   8.868
  591POPC   C2B12020   8.612  28.133   8.459
  591POPC   C3B12021   8.631  28.195   8.046
  591POPC   C4B12022   8.341  28.089   7.772
  592POPC   NC312023  42.697   5.618   9.658
  592POPC   PO412024  41.997   5.781   9.546
  592POPC   GL112025  42.015   5.768   9.131
  592POPC   GL212026  41.916   6.059   8.970
  592POPC   C1A12027  42.253   5.569   8.796
  592POPC   D2A12028  42.542   5.612   8.473
  592POPC   C3A12029  42.354   5.814   8.150
  592POPC   C4A12030  42.315   5.815   7.743
  592POPC   C1B12031  42.323   6.065   8.724
  592POPC   C2B12032  42.605   6.184   8.367
  592POPC   C3B12033  42.468   6.287   7.918
  592POPC   C4B12034  42.366   6.272   7.454
  593POPC   NC312035  19.849   8.765   9.696
  593POPC   PO412036  20.029   9.278   9.339
  593POPC   GL112037  19.827   9.005   9.079
  593POPC   GL212038  19.910   8.677   9.185
  593POPC   C1A12039  19.753   9.026   8.644
  593POPC   D2A12040  19.782   8.773   8.280
  593POPC   C3A12041  19.881   9.015   7.954
  593POPC   C4A12042  19.599   9.254   7.740
  593POPC   C1B12043  20.126   8.661   8.770
  593POPC   C2B12044  20.262   8.856   8.389
  593POPC   C3B12045  20.190   8.606   7.989
  593POPC   C4B12046  20.115   8.532   7.536
  594POPC   NC312047  28.164  37.481   9.611
  594POPC   PO412048  28.540  38.066   9.584
  594POPC   GL112049  28.391  37.919   9.175
  594POPC   GL212050  28.396  37.549   9.150
  594POPC   C1A12051  28.553  37.820   8.737
  594POPC   D2A12052  28.457  37.995   8.337
  594POPC   C3A12053  28.226  37.833   8.037
  594POPC   C4A12054  28.355  37.978   7.678
  594POPC   C1B12055  28.553  37.320   8.768
  594POPC   C2B12056  28.534  37.409   8.318
  594POPC   C3B12057  28.209  37.303   8.020
  594POPC   C4B12058  28.051  37.490   7.659
  595POPC   NC312059  43.011   1.506   9.758
  595POPC   PO412060  42.998   0.888   9.767
  595POPC   GL112061  42.935   1.141   9.300
  595POPC   GL212062  42.910   1.467   9.260
  595POPC   C1A12063  42.924   1.042   8.802
  595POPC   D2A12064  43.221   1.054   8.452
  595POPC   C3A12065  43.138   1.254   8.043
  595POPC   C4A12066  43.380   1.081   7.704
  595POPC   C1B12067  43.206   1.448   8.901
  595POPC   C2B12068  43.153   1.619   8.493
  595POPC   C3B12069  42.808   1.769   8.200
  595POPC   C4B12070  42.787   1.734   7.725
  596POPC   NC312071  39.416  33.671   9.595
  596POPC   PO412072  38.759  33.681   9.352
  596POPC   GL112073  39.147  33.776   9.089
  596POPC   GL212074  39.517  33.731   9.106
  596POPC   C1A12075  39.262  34.024   8.700
  596POPC   D2A12076  39.293  34.185   8.282
  596POPC   C3A12077  38.973  34.097   7.984
  596POPC   C4A12078  39.008  33.808   7.657
  596POPC   C1B12079  39.389  33.536   8.702
  596POPC   C2B12080  39.567  33.635   8.306
  596POPC   C3B12081  39.417  33.613   7.896
  596POPC   C4B12082  39.464  33.564   7.449
  597POPC   NC312083  15.331  11.495   9.561
  597POPC   PO412084  14.742  11.292   9.511
  597POPC   GL112085  15.019  11.485   9.150
  597POPC   GL212086  15.359  11.670   9.108
  597POPC   C1A12087  15.140  11.320   8.748
  597POPC   D2A12088  15.259  10.971   8.481
  597POPC   C3A12089  15.049  10.896   8.082
  597POPC   C4A12090  15.293  10.926   7.729
  597POPC   C1B12091  15.632  11.431   8.863
  597POPC   C2B12092  15.558  11.536   8.448
  597POPC   C3B12093  15.405  11.323   8.091
  597POPC   C4B12094  15.580  11.346   7.683
  598POPC   NC312095  43.063  32.635   9.456
  598POPC   PO412096  43.101  33.380   9.550
  598POPC   GL112097  43.151  33.097   9.214
  598POPC   GL212098  42.973  33.331   9.050
  598POPC   C1A12099  43.049  32.893   8.804
  598POPC   D2A12100  42.913  33.108   8.416
  598POPC   C3A12101  43.135  33.016   8.046
  598POPC   C4A12102  42.955  32.684   7.827
  598POPC   C1B12103  43.246  33.414   8.699
  598POPC   C2B12104  43.188  33.548   8.282
  598POPC   C3B12105  42.973  33.482   7.901
  598POPC   C4B12106  43.167  33.259   7.554
  599POPC   NC312107  41.486  40.638   9.553
  599POPC   PO412108  42.035  40.850   9.247
  599POPC   GL112109  41.624  40.837   9.112
  599POPC   GL212110  41.509  40.472   9.072
  599POPC   C1A12111  41.379  40.882   8.775
  599POPC   D2A12112  41.394  40.763   8.377
  599POPC   C3A12113  41.616  40.949   8.017
  599POPC   C4A12114  41.447  40.911   7.563
  599POPC   C1B12115  41.792  40.550   8.716
  599POPC   C2B12116  41.836  40.508   8.300
  599POPC   C3B12117  41.552  40.448   7.991
  599POPC   C4B12118  41.821  40.568   7.641
  600POPC   NC312119  24.337  10.460   9.595
  600POPC   PO412120  24.663  10.023   9.426
  600POPC   GL112121  24.338  10.300   9.109
  600POPC   GL212122  24.309  10.684   9.122
  600POPC   C1A12123  24.051  10.469   8.737
  600POPC   D2A12124  23.992  10.753   8.373
  600POPC   C3A12125  24.224  10.598   8.012
  600POPC   C4A12126  24.188  10.182   7.804
  600POPC   C1B12127  24.278  10.955   8.752
  600POPC   C2B12128  24.368  11.120   8.335
  600POPC   C3B12129  24.646  10.880   8.057
  600POPC   C4B12130  24.663  10.605   7.688
  601POPC   NC312131  28.998  35.675   9.440
  601POPC   PO412132  29.323  35.066   9.473
  601POPC   GL112133  29.286  35.316   9.107
  601POPC   GL212134  28.940  35.248   9.144
  601POPC   C1A12135  29.109  35.372   8.674
  601POPC   D2A12136  29.263  35.383   8.247
  601POPC   C3A12137  29.048  35.450   7.877
  601POPC   C4A12138  29.413  35.583   7.690
  601POPC   C1B12139  28.785  34.946   8.852
  601POPC   C2B12140  28.844  34.816   8.438
  601POPC   C3B12141  28.869  35.043   8.111
  601POPC   C4B12142  28.872  34.981   7.721
  602POPC   NC312143   2.516  23.698   9.611
  602POPC   PO412144   2.950  24.057   9.267
  602POPC   GL112145   2.551  23.860   9.106
  602POPC   GL212146   2.651  23.526   9.138
  602POPC   C1A12147   2.382  23.953   8.676
  602POPC   D2A12148   2.454  23.737   8.294
  602POPC   C3A12149   2.553  23.936   7.938
  602POPC   C4A12150   2.844  24.004   7.603
  602POPC   C1B12151   2.810  23.674   8.703
  602POPC   C2B12152   2.954  23.771   8.263
  602POPC   C3B12153   2.886  23.559   7.871
  602POPC   C4B12154   3.167  23.580   7.512
  603POPC   NC312155  24.995  34.005   9.258
  603POPC   PO412156  25.303  34.560   9.677
  603POPC   GL112157  25.238  34.688   9.214
  603POPC   GL212158  24.906  34.826   9.107
  603POPC   C1A12159  25.279  34.504   8.807
  603POPC   D2A12160  25.469  34.400   8.408
  603POPC   C3A12161  25.220  34.318   8.035
  603POPC   C4A12162  25.354  34.474   7.641
  603POPC   C1B12163  24.804  34.859   8.719
  603POPC   C2B12164  25.044  34.691   8.390
  603POPC   C3B12165  25.208  34.835   8.016
  603POPC   C4B12166  24.952  34.951   7.708
  604POPC   NC312167  20.249   9.681   9.421
  604POPC   PO412168  19.686   9.376   9.721
  604POPC   GL112169  19.648   9.622   9.229
  604POPC   GL212170  19.895   9.889   9.136
  604POPC   C1A12171  19.539   9.938   8.803
  604POPC   D2A12172  19.504  10.274   8.466
  604POPC   C3A12173  19.705  10.101   8.120
  604POPC   C4A12174  19.541   9.823   7.802
  604POPC   C1B12175  19.897   9.555   8.766
  604POPC   C2B12176  20.017   9.357   8.358
  604POPC   C3B12177  19.952   9.539   7.954
  604POPC   C4B12178  20.052   9.949   7.764
  605POPC   NC312179   7.708  41.184   9.348
  605POPC   PO412180   8.257  41.526   9.578
  605POPC   GL112181   8.181  41.704   9.212
  605POPC   GL212182   8.075  41.406   9.072
  605POPC   C1A12183   8.396  41.820   8.842
  605POPC   D2A12184   8.399  41.621   8.490
  605POPC   C3A12185   8.190  41.789   8.176
  605POPC   C4A12186   8.282  41.580   7.811
  605POPC   C1B12187   7.949  41.602   8.717
  605POPC   C2B12188   7.877  41.417   8.389
  605POPC   C3B12189   7.795  41.472   8.014
  605POPC   C4B12190   7.816  41.447   7.608
  606POPC   NC312191  40.622   0.882   9.252
  606POPC   PO412192  40.119   1.163   9.590
  606POPC   GL112193  39.995   1.421   9.259
  606POPC   GL212194  40.010   1.153   9.069
  606POPC   C1A12195  40.143   1.544   8.791
  606POPC   D2A12196  40.028   1.294   8.460
  606POPC   C3A12197  40.047   1.407   8.041
  606POPC   C4A12198  39.924   1.060   7.738
  606POPC   C1B12199  39.671   1.405   8.858
  606POPC   C2B12200  39.511   1.349   8.446
  606POPC   C3B12201  39.568   1.254   8.047
  606POPC   C4B12202  39.536   1.328   7.607
  607POPC   NC312203  23.103  27.135   9.618
  607POPC   PO412204  22.752  27.717   9.544
  607POPC   GL112205  22.907  27.826   9.137
  607POPC   GL212206  23.199  27.619   9.039
  607POPC   C1A12207  23.109  28.010   8.747
  607POPC   D2A12208  23.173  27.825   8.350
  607POPC   C3A12209  22.801  27.692   8.132
  607POPC   C4A12210  22.756  27.456   7.773
  607POPC   C1B12211  23.471  27.356   8.723
  607POPC   C2B12212  23.480  27.402   8.262
  607POPC   C3B12213  23.270  27.592   7.890
  607POPC   C4B12214  23.166  27.419   7.475
  608POPC   NC312215  34.276  39.537   9.531
  608POPC   PO412216  34.863  39.148   9.540
  608POPC   GL112217  34.674  39.131   9.151
  608POPC   GL212218  34.733  39.438   9.107
  608POPC   C1A12219  34.455  39.221   8.750
  608POPC   D2A12220  34.189  38.980   8.485
  608POPC   C3A12221  34.460  38.919   8.156
  608POPC   C4A12222  34.552  39.118   7.781
  608POPC   C1B12223  34.808  39.626   8.722
  608POPC   C2B12224  34.577  39.630   8.322
  608POPC   C3B12225  34.796  39.539   7.914
  608POPC   C4B12226  34.681  39.511   7.456
  609POPC   NC312227  24.432  30.484   9.658
  609POPC   PO412228  24.268  31.053   9.402
  609POPC   GL112229  24.536  30.794   9.140
  609POPC   GL212230  24.546  30.437   9.159
  609POPC   C1A12231  24.776  30.703   8.757
  609POPC   D2A12232  24.903  30.375   8.458
  609POPC   C3A12233  24.772  30.522   8.063
  609POPC   C4A12234  24.525  30.781   7.754
  609POPC   C1B12235  24.350  30.430   8.776
  609POPC   C2B12236  24.349  30.571   8.344
  609POPC   C3B12237  24.326  30.322   7.937
  609POPC   C4B12238  24.307  30.319   7.462
  610POPC   NC312239   2.733  10.286   9.337
  610POPC   PO412240   2.222  10.740   9.402
  610POPC   GL112241   2.586  10.695   9.102
  610POPC   GL212242   2.993  10.503   8.970
  610POPC   C1A12243   2.607  10.582   8.701
  610POPC   D2A12244   2.848  10.451   8.396
  610POPC   C3A12245   2.706  10.557   8.005
  610POPC   C4A12246   2.983  10.647   7.683
  610POPC   C1B12247   3.114  10.124   8.715
  610POPC   C2B12248   2.997   9.975   8.293
  610POPC   C3B12249   3.060  10.156   7.913
  610POPC   C4B12250   3.061  10.011   7.511
  611POPC   NC312251  36.799   2.451   9.543
  611POPC   PO412252  36.973   1.870   9.539
  611POPC   GL112253  36.991   2.112   9.164
  611POPC   GL212254  36.649   2.177   9.139
  611POPC   C1A12255  36.894   1.979   8.745
  611POPC   D2A12256  36.952   2.172   8.358
  611POPC   C3A12257  37.029   2.020   7.981
  611POPC   C4A12258  37.056   2.130   7.500
  611POPC   C1B12259  36.472   2.388   8.782
  611POPC   C2B12260  36.572   2.559   8.383
  611POPC   C3B12261  36.747   2.486   7.960
  611POPC   C4B12262  36.613   2.135   7.723
  612POPC   NC312263  22.791  11.016   9.478
  612POPC   PO412264  23.016  10.362   9.502
  612POPC   GL112265  22.999  10.640   9.138
  612POPC   GL212266  22.702  10.518   8.981
  612POPC   C1A12267  23.120  10.541   8.690
  612POPC   D2A12268  22.923  10.591   8.266
  612POPC   C3A12269  23.037  10.312   7.922
  612POPC   C4A12270  23.225  10.379   7.505
  612POPC   C1B12271  22.674  10.837   8.665
  612POPC   C2B12272  22.463  10.887   8.275
  612POPC   C3B12273  22.549  10.935   7.868
  612POPC   C4B12274  22.930  10.769   7.737
  613POPC   NC312275  30.641  37.734   9.434
  613POPC   PO412276  30.977  37.112   9.385
  613POPC   GL112277  30.694  37.348   9.105
  613POPC   GL212278  30.886  37.684   9.013
  613POPC   C1A12279  30.509  37.532   8.728
  613POPC   D2A12280  30.733  37.766   8.406
  613POPC   C3A12281  30.621  37.540   8.039
  613POPC   C4A12282  30.422  37.378   7.710
  613POPC   C1B12283  31.088  37.399   8.757
  613POPC   C2B12284  30.977  37.301   8.351
  613POPC   C3B12285  31.119  37.519   7.969
  613POPC   C4B12286  30.944  37.899   7.835
  614POPC   NC312287   3.751   7.208   9.424
  614POPC   PO412288   3.252   7.634   9.379
  614POPC   GL112289   3.444   7.471   9.023
  614POPC   GL212290   3.544   7.089   8.999
  614POPC   C1A12291   3.570   7.735   8.662
  614POPC   D2A12292   3.588   7.666   8.235
  614POPC   C3A12293   3.524   7.984   7.937
  614POPC   C4A12294   3.781   7.719   7.691
  614POPC   C1B12295   3.631   7.241   8.619
  614POPC   C2B12296   3.831   7.221   8.287
  614POPC   C3B12297   3.693   7.234   7.916
  614POPC   C4B12298   3.746   6.863   7.683
  615POPC   NC312299  16.535   0.068   9.298
  615POPC   PO412300  16.012  44.805   9.579
  615POPC   GL112301  16.001  44.597   9.166
  615POPC   GL212302  16.319  44.634   9.066
  615POPC   C1A12303  16.029  44.287   8.765
  615POPC   D2A12304  16.019  44.452   8.322
  615POPC   C3A12305  16.014  44.280   7.908
  615POPC   C4A12306  15.653  44.318   7.680
  615POPC   C1B12307  16.010  44.792   8.714
  615POPC   C2B12308  15.872  44.962   8.323
  615POPC   C3B12309  15.849  44.767   7.915
  615POPC   C4B12310  16.058  44.688   7.514
  616POPC   NC312311   7.020  38.826   9.483
  616POPC   PO412312   6.949  39.428   9.531
  616POPC   GL112313   6.821  39.198   9.179
  616POPC   GL212314   6.500  39.013   9.219
  616POPC   C1A12315   6.890  38.991   8.778
  616POPC   D2A12316   7.124  39.000   8.387
  616POPC   C3A12317   6.913  39.230   8.090
  616POPC   C4A12318   6.810  39.142   7.685
  616POPC   C1B12319   6.456  39.303   8.846
  616POPC   C2B12320   6.530  39.167   8.424
  616POPC   C3B12321   6.400  39.255   7.990
  616POPC   C4B12322   6.360  38.939   7.657
  617POPC   NC312323  27.276  26.933   9.473
  617POPC   PO412324  27.897  27.202   9.425
  617POPC   GL112325  27.658  27.172   9.041
  617POPC   GL212326  27.658  26.817   9.008
  617POPC   C1A12327  27.615  27.121   8.564
  617POPC   D2A12328  27.657  26.825   8.244
  617POPC   C3A12329  27.493  26.947   7.860
  617POPC   C4A12330  27.694  27.001   7.470
  617POPC   C1B12331  27.253  26.866   8.802
  617POPC   C2B12332  27.178  26.701   8.400
  617POPC   C3B12333  27.358  26.485   8.011
  617POPC   C4B12334  27.439  26.552   7.536
  618POPC   NC312335  40.779  39.975   9.564
  618POPC   PO412336  40.245  40.076   9.259
  618POPC   GL112337  40.592  39.902   9.092
  618POPC   GL212338  40.931  40.070   9.100
  618POPC   C1A12339  40.678  39.968   8.678
  618POPC   D2A12340  40.600  40.141   8.268
  618POPC   C3A12341  40.805  39.897   7.961
  618POPC   C4A12342  40.782  39.614   7.623
  618POPC   C1B12343  41.134  40.278   8.755
  618POPC   C2B12344  41.078  40.369   8.305
  618POPC   C3B12345  41.058  40.339   7.840
  618POPC   C4B12346  41.372  40.325   7.524
  619POPC   NC312347  24.114  16.076   9.572
  619POPC   PO412348  23.413  15.875   9.628
  619POPC   GL112349  23.618  15.900   9.221
  619POPC   GL212350  23.986  15.823   9.139
  619POPC   C1A12351  23.569  16.032   8.801
  619POPC   D2A12352  23.725  16.016   8.377
  619POPC   C3A12353  23.439  16.041   8.023
  619POPC   C4A12354  23.585  15.917   7.614
  619POPC   C1B12355  23.900  15.628   8.714
  619POPC   C2B12356  24.003  15.514   8.273
  619POPC   C3B12357  23.970  15.631   7.814
  619POPC   C4B12358  23.949  15.503   7.355
  620POPC   NC312359  38.963  28.328   9.530
  620POPC   PO412360  39.332  28.813   9.751
  620POPC   GL112361  39.347  28.692   9.280
  620POPC   GL212362  39.341  28.349   9.199
  620POPC   C1A12363  39.528  28.592   8.832
  620POPC   D2A12364  39.385  28.309   8.506
  620POPC   C3A12365  39.575  28.222   8.116
  620POPC   C4A12366  39.462  28.490   7.763
  620POPC   C1B12367  39.004  28.384   8.861
  620POPC   C2B12368  38.899  28.149   8.465
  620POPC   C3B12369  39.054  28.207   8.048
  620POPC   C4B12370  38.950  28.410   7.663
  621POPC   NC312371  12.305  16.495   9.547
  621POPC   PO412372  11.785  16.898   9.544
  621POPC   GL112373  12.053  16.828   9.210
  621POPC   GL212374  11.924  16.482   9.227
  621POPC   C1A12375  12.361  16.845   8.868
  621POPC   D2A12376  12.210  16.755   8.451
  621POPC   C3A12377  12.108  17.048   8.157
  621POPC   C4A12378  12.001  16.935   7.775
  621POPC   C1B12379  12.035  16.431   8.823
  621POPC   C2B12380  11.794  16.390   8.456
  621POPC   C3B12381  11.915  16.513   8.068
  621POPC   C4B12382  12.055  16.420   7.621
  622POPC   NC312383   0.191  17.578   9.626
  622POPC   PO412384   0.774  17.310   9.435
  622POPC   GL112385   0.638  17.642   9.184
  622POPC   GL212386   0.265  17.640   9.132
  622POPC   C1A12387   0.617  17.530   8.755
  622POPC   D2A12388   0.864  17.513   8.389
  622POPC   C3A12389   0.633  17.576   8.014
  622POPC   C4A12390   0.653  17.339   7.641
  622POPC   C1B12391   0.262  17.923   8.791
  622POPC   C2B12392   0.110  18.049   8.376
  622POPC   C3B12393   0.067  17.858   7.957
  622POPC   C4B12394   0.173  17.445   7.744
  623POPC   NC312395  41.984  42.264   9.426
  623POPC   PO412396  41.473  42.737   9.469
  623POPC   GL112397  41.361  42.403   9.142
  623POPC   GL212398  41.370  42.075   9.306
  623POPC   C1A12399  41.408  42.290   8.705
  623POPC   D2A12400  41.763  42.166   8.441
  623POPC   C3A12401  41.684  42.412   8.095
  623POPC   C4A12402  41.276  42.442   7.885
  623POPC   C1B12403  41.269  41.861   8.921
  623POPC   C2B12404  41.304  41.779   8.478
  623POPC   C3B12405  41.469  41.918   8.090
  623POPC   C4B12406  41.331  41.968   7.690
  624POPC   NC312407  20.856   7.359   9.321
  624POPC   PO412408  20.602   7.980   9.344
  624POPC   GL112409  20.546   7.671   9.026
  624POPC   GL212410  20.389   7.360   9.111
  624POPC   C1A12411  20.695   7.384   8.676
  624POPC   D2A12412  21.015   7.461   8.381
  624POPC   C3A12413  20.933   7.310   7.999
  624POPC   C4A12414  21.035   7.546   7.697
  624POPC   C1B12415  20.269   7.116   8.729
  624POPC   C2B12416  20.412   7.058   8.297
  624POPC   C3B12417  20.445   7.234   7.881
  624POPC   C4B12418  20.656   7.300   7.469
  625POPC   NC312419  19.681  25.283   9.496
  625POPC   PO412420  20.295  25.548   9.615
  625POPC   GL112421  20.083  25.413   9.207
  625POPC   GL212422  19.737  25.364   9.008
  625POPC   C1A12423  20.154  25.154   8.820
  625POPC   D2A12424  19.885  25.252   8.465
  625POPC   C3A12425  20.019  25.290   8.080
  625POPC   C4A12426  19.991  25.152   7.667
  625POPC   C1B12427  19.500  25.060   8.716
  625POPC   C2B12428  19.416  25.000   8.263
  625POPC   C3B12429  19.513  25.098   7.822
  625POPC   C4B12430  19.578  25.245   7.386
  626POPC   NC312431  23.458  34.485   9.553
  626POPC   PO412432  23.938  34.869   9.238
  626POPC   GL112433  23.690  34.635   9.071
  626POPC   GL212434  23.749  34.295   9.163
  626POPC   C1A12435  23.673  34.582   8.654
  626POPC   D2A12436  23.487  34.681   8.291
  626POPC   C3A12437  23.729  34.694   7.908
  626POPC   C4A12438  23.658  34.913   7.506
  626POPC   C1B12439  23.740  34.091   8.769
  626POPC   C2B12440  23.635  34.177   8.327
  626POPC   C3B12441  23.407  34.292   7.962
  626POPC   C4B12442  23.478  34.440   7.551
  627POPC   NC312443  18.491  37.406   9.627
  627POPC   PO412444  18.282  38.051   9.655
  627POPC   GL112445  18.130  37.849   9.263
  627POPC   GL212446  18.461  37.711   9.138
  627POPC   C1A12447  18.035  37.863   8.793
  627POPC   D2A12448  18.295  37.956   8.396
  627POPC   C3A12449  18.185  37.900   7.944
  627POPC   C4A12450  18.173  37.628   7.587
  627POPC   C1B12451  18.634  38.013   8.813
  627POPC   C2B12452  18.788  38.104   8.383
  627POPC   C3B12453  18.677  38.104   7.922
  627POPC   C4B12454  18.443  38.052   7.503
  628POPC   NC312455  17.641  28.590   9.679
  628POPC   PO412456  17.267  28.114   9.665
  628POPC   GL112457  17.590  28.305   9.266
  628POPC   GL212458  17.723  28.655   9.187
  628POPC   C1A12459  17.621  28.322   8.778
  628POPC   D2A12460  17.255  28.227   8.466
  628POPC   C3A12461  17.330  28.167   8.012
  628POPC   C4A12462  17.700  28.119   7.760
  628POPC   C1B12463  18.011  28.680   8.858
  628POPC   C2B12464  17.979  28.553   8.466
  628POPC   C3B12465  17.680  28.504   8.146
  628POPC   C4B12466  17.778  28.634   7.732
  629POPC   NC312467  26.333  38.248   9.300
  629POPC   PO412468  26.832  38.675   9.379
  629POPC   GL112469  26.737  38.525   9.053
  629POPC   GL212470  26.390  38.655   9.018
  629POPC   C1A12471  27.020  38.616   8.717
  629POPC   D2A12472  27.217  38.832   8.379
  629POPC   C3A12473  27.098  38.687   7.979
  629POPC   C4A12474  26.964  38.644   7.541
  629POPC   C1B12475  26.481  38.380   8.659
  629POPC   C2B12476  26.763  38.426   8.324
  629POPC   C3B12477  26.658  38.458   7.927
  629POPC   C4B12478  26.767  38.163   7.636
  630POPC   NC312479  16.518  16.073   9.737
  630POPC   PO412480  15.927  16.252   9.408
  630POPC   GL112481  15.765  16.208   9.047
  630POPC   GL212482  15.983  15.951   8.952
  630POPC   C1A12483  15.738  16.291   8.619
  630POPC   D2A12484  15.956  16.178   8.248
  630POPC   C3A12485  15.757  16.200   7.861
  630POPC   C4A12486  15.889  15.981   7.481
  630POPC   C1B12487  16.291  16.094   8.631
  630POPC   C2B12488  16.468  16.016   8.243
  630POPC   C3B12489  16.277  16.036   7.828
  630POPC   C4B12490  16.410  15.909   7.400
  631POPC   NC312491   2.861   3.705   9.414
  631POPC   PO412492   2.922   3.137   9.637
  631POPC   GL112493   2.912   3.285   9.138
  631POPC   GL212494   3.196   3.495   8.919
  631POPC   C1A12495   2.733   3.451   8.712
  631POPC   D2A12496   2.634   3.731   8.339
  631POPC   C3A12497   2.747   3.741   7.898
  631POPC   C4A12498   2.424   3.587   7.617
  631POPC   C1B12499   3.118   3.077   8.719
  631POPC   C2B12500   2.775   3.033   8.423
  631POPC   C3B12501   2.639   3.259   8.073
  631POPC   C4B12502   2.473   3.060   7.744
  632POPC   NC312503  27.376  28.587   9.802
  632POPC   PO412504  27.518  28.055   9.421
  632POPC   GL112505  27.512  28.263   9.067
  632POPC   GL212506  27.754  28.487   9.178
  632POPC   C1A12507  27.584  28.166   8.636
  632POPC   D2A12508  27.694  28.110   8.217
  632POPC   C3A12509  27.423  28.207   7.909
  632POPC   C4A12510  27.478  28.314   7.504
  632POPC   C1B12511  27.697  28.679   8.759
  632POPC   C2B12512  27.629  28.598   8.319
  632POPC   C3B12513  27.500  28.716   7.926
  632POPC   C4B12514  27.419  28.880   7.545
  633POPC   NC312515  11.537  22.686   9.495
  633POPC   PO412516  11.980  22.233   9.615
  633POPC   GL112517  11.763  22.184   9.209
  633POPC   GL212518  11.801  21.851   9.097
  633POPC   C1A12519  11.778  22.225   8.730
  633POPC   D2A12520  11.963  22.048   8.360
  633POPC   C3A12521  12.026  22.181   7.930
  633POPC   C4A12522  11.871  22.348   7.578
  633POPC   C1B12523  12.197  21.954   8.824
  633POPC   C2B12524  12.465  21.933   8.414
  633POPC   C3B12525  12.499  21.982   7.932
  633POPC   C4B12526  12.366  22.178   7.514
  634POPC   NC312527   4.276   8.451   9.556
  634POPC   PO412528   4.769   8.026   9.608
  634POPC   GL112529   4.641   8.119   9.208
  634POPC   GL212530   4.666   8.475   9.190
  634POPC   C1A12531   4.507   7.936   8.794
  634POPC   D2A12532   4.555   7.700   8.403
  634POPC   C3A12533   4.413   7.974   8.085
  634POPC   C4A12534   4.556   8.193   7.768
  634POPC   C1B12535   4.317   8.436   8.888
  634POPC   C2B12536   4.358   8.321   8.462
  634POPC   C3B12537   4.258   8.516   8.067
  634POPC   C4B12538   3.991   8.733   7.734
  635POPC   NC312539  36.809  12.563   9.602
  635POPC   PO412540  36.994  13.185   9.603
  635POPC   GL112541  36.969  12.919   9.226
  635POPC   GL212542  36.672  12.786   9.124
  635POPC   C1A12543  37.067  12.741   8.790
  635POPC   D2A12544  37.045  12.469   8.399
  635POPC   C3A12545  36.864  12.658   8.033
  635POPC   C4A12546  37.111  12.757   7.690
  635POPC   C1B12547  36.700  13.122   8.793
  635POPC   C2B12548  36.605  13.191   8.370
  635POPC   C3B12549  36.684  13.143   7.925
  635POPC   C4B12550  36.760  13.166   7.462
  636POPC   NC312551  37.319   5.462   9.414
  636POPC   PO412552  37.856   5.558   9.542
  636POPC   GL112553  37.720   5.643   9.144
  636POPC   GL212554  38.039   5.572   9.072
  636POPC   C1A12555  37.444   5.776   8.788
  636POPC   D2A12556  37.288   6.144   8.518
  636POPC   C3A12557  37.288   6.169   8.050
  636POPC   C4A12558  37.569   6.277   7.703
  636POPC   C1B12559  37.954   5.875   8.754
  636POPC   C2B12560  37.793   5.732   8.386
  636POPC   C3B12561  37.766   5.960   8.044
  636POPC   C4B12562  38.032   5.994   7.726
  637POPC   NC312563  37.896  33.530   9.374
  637POPC   PO412564  37.721  34.095   9.631
  637POPC   GL112565  37.739  33.969   9.166
  637POPC   GL212566  37.509  33.708   9.041
  637POPC   C1A12567  37.955  33.819   8.735
  637POPC   D2A12568  38.153  33.790   8.288
  637POPC   C3A12569  37.855  33.946   7.949
  637POPC   C4A12570  37.802  33.762   7.521
  637POPC   C1B12571  37.475  33.965   8.674
  637POPC   C2B12572  37.490  33.804   8.260
  637POPC   C3B12573  37.374  33.759   7.821
  637POPC   C4B12574  37.400  34.077   7.511
  638POPC   NC312575  22.305  38.790   9.678
  638POPC   PO412576  21.758  38.327   9.489
  638POPC   GL112577  22.088  38.283   9.156
  638POPC   GL212578  22.347  38.529   9.221
  638POPC   C1A12579  22.327  38.316   8.757
  638POPC   D2A12580  22.455  38.506   8.393
  638POPC   C3A12581  22.484  38.272   8.002
  638POPC   C4A12582  22.121  38.127   7.809
  638POPC   C1B12583  22.065  38.743   8.927
  638POPC   C2B12584  21.908  38.608   8.545
  638POPC   C3B12585  21.987  38.515   8.133
  638POPC   C4B12586  22.126  38.676   7.756
  639POPC   NC312587  19.666   6.194   9.747
  639POPC   PO412588  19.741   6.774   9.335
  639POPC   GL112589  19.945   6.819   8.958
  639POPC   GL212590  20.174   6.566   9.024
  639POPC   C1A12591  19.865   6.882   8.515
  639POPC   D2A12592  19.499   6.700   8.353
  639POPC   C3A12593  19.568   6.650   7.931
  639POPC   C4A12594  19.595   6.558   7.536
  639POPC   C1B12595  20.082   6.432   8.598
  639POPC   C2B12596  20.191   6.596   8.187
  639POPC   C3B12597  20.042   6.766   7.790
  639POPC   C4B12598  20.029   6.715   7.331
  640POPC   NC312599  11.196  29.340   9.507
  640POPC   PO412600  11.543  28.829   9.362
  640POPC   GL112601  11.305  29.087   9.091
  640POPC   GL212602  10.954  29.182   9.053
  640POPC   C1A12603  11.392  29.180   8.711
  640POPC   D2A12604  11.472  28.990   8.351
  640POPC   C3A12605  11.623  29.234   8.029
  640POPC   C4A12606  11.539  29.295   7.589
  640POPC   C1B12607  10.974  29.459   8.665
  640POPC   C2B12608  11.229  29.445   8.287
  640POPC   C3B12609  11.119  29.248   7.885
  640POPC   C4B12610  10.887  29.423   7.525
  641POPC   NC312611   0.411  30.274   9.435
  641POPC   PO412612   0.562  30.877   9.741
  641POPC   GL112613   0.573  30.933   9.275
  641POPC   GL212614   0.324  30.739   9.100
  641POPC   C1A12615   0.789  30.924   8.877
  641POPC   D2A12616   0.667  30.815   8.455
  641POPC   C3A12617   0.371  30.515   8.369
  641POPC   C4A12618   0.323  30.360   7.951
  641POPC   C1B12619   0.282  31.041   8.767
  641POPC   C2B12620   0.146  31.009   8.347
  641POPC   C3B12621   0.376  30.874   7.996
  641POPC   C4B12622   0.234  30.843   7.583
  642POPC   NC312623  21.184  37.336   9.211
  642POPC   PO412624  21.309  36.673   9.252
  642POPC   GL112625  21.554  36.734   8.938
  642POPC   GL212626  21.705  36.999   9.125
  642POPC   C1A12627  21.318  36.817   8.552
  642POPC   D2A12628  21.150  37.143   8.268
  642POPC   C3A12629  21.247  36.982   7.868
  642POPC   C4A12630  21.594  36.713   7.805
  642POPC   C1B12631  21.721  37.249   8.733
  642POPC   C2B12632  21.908  37.165   8.302
  642POPC   C3B12633  21.735  37.229   7.868
  642POPC   C4B12634  21.615  37.486   7.506
  643POPC   NC312635   1.589  32.361   9.415
  643POPC   PO412636   2.004  31.942   9.503
  643POPC   GL112637   1.892  32.053   9.061
  643POPC   GL212638   1.705  32.343   8.933
  643POPC   C1A12639   2.077  32.117   8.636
  643POPC   D2A12640   2.254  32.398   8.306
  643POPC   C3A12641   2.075  32.245   7.923
  643POPC   C4A12642   2.234  31.801   7.877
  643POPC   C1B12643   1.533  32.145   8.610
  643POPC   C2B12644   1.721  32.038   8.246
  643POPC   C3B12645   1.531  32.003   7.857
  643POPC   C4B12646   1.676  32.177   7.484
  644POPC   NC312647  21.164  41.961   9.305
  644POPC   PO412648  21.352  42.550   9.433
  644POPC   GL112649  21.326  42.406   9.073
  644POPC   GL212650  21.616  42.170   9.129
  644POPC   C1A12651  21.074  42.519   8.729
  644POPC   D2A12652  20.907  42.268   8.386
  644POPC   C3A12653  21.083  42.348   7.999
  644POPC   C4A12654  21.236  42.088   7.686
  644POPC   C1B12655  21.680  42.307   8.712
  644POPC   C2B12656  21.526  42.248   8.305
  644POPC   C3B12657  21.604  42.404   7.918
  644POPC   C4B12658  21.992  42.605   7.835
  645POPC   NC312659  18.961  16.291   9.443
  645POPC   PO412660  19.226  15.621   9.519
  645POPC   GL112661  19.239  15.913   9.152
  645POPC   GL212662  18.873  15.943   9.028
  645POPC   C1A12663  19.246  15.993   8.692
  645POPC   D2A12664  19.278  16.147   8.269
  645POPC   C3A12665  19.477  15.963   7.879
  645POPC   C4A12666  19.277  15.783   7.485
  645POPC   C1B12667  18.615  15.929   8.625
  645POPC   C2B12668  18.686  15.881   8.131
  645POPC   C3B12669  18.989  16.044   7.848
  645POPC   C4B12670  19.011  16.344   7.539
  646POPC   NC312671  36.529   8.221   9.565
  646POPC   PO412672  37.058   7.745   9.537
  646POPC   GL112673  36.878   7.961   9.248
  646POPC   GL212674  37.061   8.247   9.257
  646POPC   C1A12675  36.871   7.939   8.820
  646POPC   D2A12676  36.626   7.915   8.434
  646POPC   C3A12677  36.576   8.201   8.105
  646POPC   C4A12678  36.564   8.019   7.736
  646POPC   C1B12679  37.190   8.342   8.847
  646POPC   C2B12680  36.989   8.304   8.454
  646POPC   C3B12681  37.080   8.165   8.047
  646POPC   C4B12682  36.916   8.410   7.720
  647POPC   NC312683  20.573  25.244   9.865
  647POPC   PO412684  20.662  24.718   9.483
  647POPC   GL112685  20.715  24.956   9.100
  647POPC   GL212686  20.599  25.301   9.156
  647POPC   C1A12687  20.649  25.078   8.640
  647POPC   D2A12688  20.369  24.970   8.300
  647POPC   C3A12689  20.431  25.044   7.863
  647POPC   C4A12690  20.461  25.146   7.418
  647POPC   C1B12691  20.860  25.538   8.848
  647POPC   C2B12692  20.998  25.515   8.417
  647POPC   C3B12693  20.982  25.737   8.020
  647POPC   C4B12694  20.976  25.606   7.515
  648POPC   NC312695  19.642  30.253   9.462
  648POPC   PO412696  19.783  29.609   9.387
  648POPC   GL112697  19.732  29.807   9.038
  648POPC   GL212698  19.911  30.072   9.049
  648POPC   C1A12699  19.834  29.690   8.646
  648POPC   D2A12700  19.962  29.415   8.358
  648POPC   C3A12701  20.010  29.670   8.046
  648POPC   C4A12702  19.753  29.793   7.734
  648POPC   C1B12703  19.724  30.180   8.648
  648POPC   C2B12704  19.658  30.030   8.272
  648POPC   C3B12705  19.827  30.259   7.989
  648POPC   C4B12706  19.692  30.288   7.573
  649POPC   NC312707   1.560   6.132   9.403
  649POPC   PO412708   1.583   5.509   9.293
  649POPC   GL112709   1.901   5.782   9.091
  649POPC   GL212710   2.097   6.034   9.189
  649POPC   C1A12711   2.120   5.816   8.706
  649POPC   D2A12712   1.912   5.846   8.318
  649POPC   C3A12713   2.093   5.914   7.928
  649POPC   C4A12714   2.181   5.677   7.526
  649POPC   C1B12715   1.885   6.259   8.824
  649POPC   C2B12716   1.927   6.347   8.398
  649POPC   C3B12717   1.682   6.205   8.023
  649POPC   C4B12718   1.668   5.972   7.631
  650POPC   NC312719  21.862  26.826   9.510
  650POPC   PO412720  22.517  27.101   9.674
  650POPC   GL112721  22.403  26.837   9.303
  650POPC   GL212722  22.111  26.929   9.082
  650POPC   C1A12723  22.434  26.522   8.938
  650POPC   D2A12724  22.387  26.373   8.464
  650POPC   C3A12725  22.166  26.567   8.063
  650POPC   C4A12726  21.960  26.566   7.649
  650POPC   C1B12727  21.827  26.995   8.723
  650POPC   C2B12728  21.912  26.963   8.271
  650POPC   C3B12729  21.991  27.025   7.835
  650POPC   C4B12730  21.954  27.040   7.341
  651POPC   NC312731  20.305  44.281   9.467
  651POPC   PO412732  20.746  44.777   9.532
  651POPC   GL112733  20.497  44.654   9.190
  651POPC   GL212734  20.347  44.927   9.056
  651POPC   C1A12735  20.443  44.527   8.747
  651POPC   D2A12736  20.642  44.409   8.360
  651POPC   C3A12737  20.441  44.470   7.950
  651POPC   C4A12738  20.394  44.485   7.465
  651POPC   C1B12739  20.728  44.970   8.876
  651POPC   C2B12740  20.718  44.937   8.460
  651POPC   C3B12741  20.451  44.973   8.107
  651POPC   C4B12742  20.491  44.976   7.669
  652POPC   NC312743   2.815   9.298   9.201
  652POPC   PO412744   3.065   8.617   9.385
  652POPC   GL112745   3.067   8.867   9.011
  652POPC   GL212746   2.715   8.828   8.966
  652POPC   C1A12747   3.035   9.073   8.585
  652POPC   D2A12748   2.822   8.881   8.221
  652POPC   C3A12749   2.630   9.089   7.830
  652POPC   C4A12750   2.621   9.191   7.364
  652POPC   C1B12751   2.600   8.480   8.721
  652POPC   C2B12752   2.500   8.500   8.302
  652POPC   C3B12753   2.636   8.532   7.902
  652POPC   C4B12754   2.554   8.677   7.476
  653POPC   NC312755  18.483  28.079   9.507
  653POPC   PO412756  18.075  28.755   9.576
  653POPC   GL112757  18.285  28.489   9.238
  653POPC   GL212758  18.096  28.239   9.113
  653POPC   C1A12759  18.455  28.434   8.775
  653POPC   D2A12760  18.416  28.307   8.317
  653POPC   C3A12761  18.171  28.433   7.985
  653POPC   C4A12762  18.225  28.432   7.543
  653POPC   C1B12763  18.084  28.069   8.705
  653POPC   C2B12764  17.922  28.064   8.277
  653POPC   C3B12765  18.158  27.927   7.919
  653POPC   C4B12766  18.120  27.933   7.471
  654POPC   NC312767   1.210  24.413   9.548
  654POPC   PO412768   1.634  24.139   9.242
  654POPC   GL112769   1.477  24.597   9.151
  654POPC   GL212770   1.199  24.836   9.172
  654POPC   C1A12771   1.543  24.802   8.773
  654POPC   D2A12772   1.526  24.507   8.417
  654POPC   C3A12773   1.127  24.292   8.349
  654POPC   C4A12774   0.986  24.208   7.941
  654POPC   C1B12775   1.065  24.587   8.845
  654POPC   C2B12776   0.929  24.740   8.479
  654POPC   C3B12777   0.720  24.569   8.171
  654POPC   C4B12778   0.841  24.707   7.774
  655POPC   NC312779  36.355  14.523   9.551
  655POPC   PO412780  35.721  14.204   9.429
  655POPC   GL112781  35.981  14.473   9.219
  655POPC   GL212782  36.221  14.241   9.128
  655POPC   C1A12783  35.990  14.624   8.815
  655POPC   D2A12784  36.035  14.269   8.465
  655POPC   C3A12785  35.921  14.372   8.030
  655POPC   C4A12786  36.170  14.436   7.652
  655POPC   C1B12787  36.415  14.385   8.785
  655POPC   C2B12788  36.547  14.368   8.399
  655POPC   C3B12789  36.488  14.530   8.021
  655POPC   C4B12790  36.656  14.423   7.625
  656POPC   NC312791  30.312  23.318   9.303
  656POPC   PO412792  30.766  23.810   9.619
  656POPC   GL112793  30.785  23.747   9.177
  656POPC   GL212794  30.678  23.447   8.973
  656POPC   C1A12795  30.960  23.801   8.775
  656POPC   D2A12796  30.743  23.639   8.415
  656POPC   C3A12797  30.919  23.772   8.049
  656POPC   C4A12798  30.821  23.883   7.647
  656POPC   C1B12799  31.015  23.280   8.689
  656POPC   C2B12800  31.090  23.310   8.221
  656POPC   C3B12801  30.901  23.173   7.833
  656POPC   C4B12802  30.472  23.283   7.754
  657POPC   NC312803  33.076  44.932   9.527
  657POPC   PO412804  32.930  44.284   9.519
  657POPC   GL112805  33.098  44.510   9.180
  657POPC   GL212806  32.832  44.710   9.129
  657POPC   C1A12807  33.216  44.535   8.739
  657POPC   D2A12808  33.006  44.342   8.357
  657POPC   C3A12809  33.137  44.497   7.937
  657POPC   C4A12810  33.422  44.303   7.646
  657POPC   C1B12811  32.742  44.684   8.700
  657POPC   C2B12812  32.973  44.854   8.334
  657POPC   C3B12813  33.056   0.037   7.921
  657POPC   C4B12814  32.943   0.002   7.473
  658POPC   NC312815   4.814   5.278   9.767
  658POPC   PO412816   4.228   4.996   9.440
  658POPC   GL112817   4.205   4.792   9.099
  658POPC   GL212818   4.349   5.059   8.919
  658POPC   C1A12819   4.205   4.613   8.724
  658POPC   D2A12820   4.353   4.888   8.407
  658POPC   C3A12821   4.229   4.703   8.054
  658POPC   C4A12822   4.105   4.811   7.662
  658POPC   C1B12823   4.699   5.210   8.658
  658POPC   C2B12824   4.732   5.218   8.228
  658POPC   C3B12825   4.423   5.155   7.909
  658POPC   C4B12826   4.542   5.004   7.511
  659POPC   NC312827  28.337  33.402   9.438
  659POPC   PO412828  28.296  32.818   9.634
  659POPC   GL112829  28.298  32.884   9.208
  659POPC   GL212830  28.626  32.703   9.185
  659POPC   C1A12831  28.339  33.148   8.815
  659POPC   D2A12832  28.092  33.275   8.437
  659POPC   C3A12833  28.170  33.152   7.997
  659POPC   C4A12834  27.994  33.214   7.579
  659POPC   C1B12835  28.441  32.649   8.773
  659POPC   C2B12836  28.406  32.853   8.390
  659POPC   C3B12837  28.426  32.693   7.993
  659POPC   C4B12838  28.464  32.883   7.623
  660POPC   NC312839  22.603  29.217   9.464
  660POPC   PO412840  21.882  29.150   9.565
  660POPC   GL112841  22.118  29.298   9.212
  660POPC   GL212842  22.338  29.034   9.081
  660POPC   C1A12843  22.034  29.278   8.773
  660POPC   D2A12844  22.275  29.114   8.416
  660POPC   C3A12845  22.071  29.248   8.040
  660POPC   C4A12846  21.859  29.166   7.687
  660POPC   C1B12847  22.524  29.363   8.818
  660POPC   C2B12848  22.746  29.346   8.453
  660POPC   C3B12849  22.566  29.401   8.057
  660POPC   C4B12850  22.520  29.482   7.620
  661POPC   NC312851   0.308  38.188   9.733
  661POPC   PO412852   0.672  38.674   9.468
  661POPC   GL112853   0.454  38.516   9.121
  661POPC   GL212854   0.241  38.231   9.211
  661POPC   C1A12855   0.596  38.422   8.712
  661POPC   D2A12856   0.376  38.510   8.352
  661POPC   C3A12857   0.574  38.361   7.982
  661POPC   C4A12858   0.742  38.646   7.679
  661POPC   C1B12859   0.109  38.315   8.776
  661POPC   C2B12860   0.111  38.093   8.346
  661POPC   C3B12861   0.081  38.253   7.912
  661POPC   C4B12862   0.105  38.276   7.460
  662POPC   NC312863  10.394  26.667   9.628
  662POPC   PO412864  10.998  26.574   9.509
  662POPC   GL112865  10.731  26.835   9.219
  662POPC   GL212866  10.463  26.642   9.103
  662POPC   C1A12867  10.666  27.013   8.780
  662POPC   D2A12868  10.379  27.030   8.414
  662POPC   C3A12869  10.532  26.894   8.022
  662POPC   C4A12870  10.687  27.089   7.648
  662POPC   C1B12871  10.426  26.548   8.654
  662POPC   C2B12872  10.165  26.495   8.289
  662POPC   C3B12873  10.001  26.769   7.968
  662POPC   C4B12874  10.129  27.052   7.689
  663POPC   NC312875   5.977  10.894   9.484
  663POPC   PO412876   5.625  10.314   9.658
  663POPC   GL112877   5.797  10.390   9.226
  663POPC   GL212878   5.624  10.702   9.172
  663POPC   C1A12879   6.045  10.266   8.815
  663POPC   D2A12880   5.851  10.126   8.389
  663POPC   C3A12881   5.953  10.318   7.987
  663POPC   C4A12882   6.158  10.304   7.580
  663POPC   C1B12883   5.854  10.730   8.819
  663POPC   C2B12884   5.781  10.645   8.397
  663POPC   C3B12885   5.725  10.789   7.992
  663POPC   C4B12886   5.731  10.595   7.607
  664POPC   NC312887   1.860  27.481   9.491
  664POPC   PO412888   2.247  28.025   9.360
  664POPC   GL112889   1.960  27.814   9.056
  664POPC   GL212890   1.784  27.484   9.013
  664POPC   C1A12891   1.972  27.733   8.603
  664POPC   D2A12892   1.831  27.657   8.186
  664POPC   C3A12893   2.182  27.692   7.916
  664POPC   C4A12894   2.327  28.092   7.761
  664POPC   C1B12895   1.840  27.161   8.749
  664POPC   C2B12896   2.036  27.200   8.390
  664POPC   C3B12897   1.914  27.200   7.986
  664POPC   C4B12898   1.870  27.373   7.631
  665POPC   NC312899  35.105   6.225   9.686
  665POPC   PO412900  35.396   5.727   9.438
  665POPC   GL112901  35.472   6.105   9.193
  665POPC   GL212902  35.796   6.048   9.087
  665POPC   C1A12903  35.356   6.230   8.739
  665POPC   D2A12904  35.372   6.315   8.281
  665POPC   C3A12905  35.112   6.047   7.975
  665POPC   C4A12906  34.822   5.870   7.626
  665POPC   C1B12907  35.608   5.783   8.758
  665POPC   C2B12908  35.522   5.816   8.300
  665POPC   C3B12909  35.653   5.953   7.891
  665POPC   C4B12910  35.698   5.738   7.518
  666POPC   NC312911  35.037  39.421   9.868
  666POPC   PO412912  35.540  39.711   9.531
  666POPC   GL112913  35.530  39.331   9.258
  666POPC   GL212914  35.209  39.185   9.166
  666POPC   C1A12915  35.611  39.147   8.845
  666POPC   D2A12916  35.410  39.120   8.423
  666POPC   C3A12917  35.626  39.335   8.052
  666POPC   C4A12918  35.486  39.388   7.613
  666POPC   C1B12919  35.020  39.161   8.767
  666POPC   C2B12920  34.915  39.254   8.345
  666POPC   C3B12921  35.149  39.181   7.968
  666POPC   C4B12922  35.013  39.144   7.548
  667POPC   NC312923  23.582   4.718   9.613
  667POPC   PO412924  23.808   5.318   9.463
  667POPC   GL112925  23.800   4.965   9.214
  667POPC   GL212926  23.499   4.789   9.107
  667POPC   C1A12927  23.808   5.017   8.782
  667POPC   D2A12928  23.582   5.225   8.454
  667POPC   C3A12929  23.593   5.126   8.008
  667POPC   C4A12930  23.750   4.851   7.716
  667POPC   C1B12931  23.275   4.831   8.719
  667POPC   C2B12932  23.279   4.843   8.279
  667POPC   C3B12933  23.232   4.784   7.829
  667POPC   C4B12934  23.378   4.773   7.371
  668POPC   NC312935  25.772  29.305   9.916
  668POPC   PO412936  25.916  29.037   9.359
  668POPC   GL112937  26.001  29.263   9.058
  668POPC   GL212938  26.261  29.149   8.926
  668POPC   C1A12939  25.817  29.199   8.699
  668POPC   D2A12940  26.058  28.911   8.485
  668POPC   C3A12941  26.120  28.912   8.084
  668POPC   C4A12942  26.142  29.124   7.729
  668POPC   C1B12943  26.464  28.804   8.764
  668POPC   C2B12944  26.610  28.772   8.319
  668POPC   C3B12945  26.554  28.792   7.835
  668POPC   C4B12946  26.463  28.981   7.372
  669POPC   NC312947  18.052   6.528   9.526
  669POPC   PO412948  18.288   7.160   9.463
  669POPC   GL112949  18.356   6.758   9.178
  669POPC   GL212950  18.629   6.512   9.264
  669POPC   C1A12951  18.260   6.540   8.742
  669POPC   D2A12952  18.136   6.716   8.301
  669POPC   C3A12953  18.252   6.742   7.852
  669POPC   C4A12954  18.070   6.422   7.571
  669POPC   C1B12955  18.716   6.334   8.848
  669POPC   C2B12956  18.572   6.202   8.417
  669POPC   C3B12957  18.375   6.278   8.033
  669POPC   C4B12958  18.583   6.391   7.644
  670POPC   NC312959  18.025   5.689   9.555
  670POPC   PO412960  18.387   6.205   9.615
  670POPC   GL112961  18.227   6.005   9.208
  670POPC   GL212962  18.196   5.600   9.094
  670POPC   C1A12963  18.345   5.963   8.792
  670POPC   D2A12964  18.138   5.910   8.398
  670POPC   C3A12965  18.412   5.753   8.058
  670POPC   C4A12966  18.379   5.927   7.636
  670POPC   C1B12967  17.811   5.678   8.821
  670POPC   C2B12968  17.657   5.712   8.382
  670POPC   C3B12969  17.918   5.624   7.989
  670POPC   C4B12970  18.230   5.449   7.647
  671POPC   NC312971  36.962  27.625   9.731
  671POPC   PO412972  36.976  28.396   9.648
  671POPC   GL112973  36.922  28.408   9.204
  671POPC   GL212974  37.241  28.534   9.179
  671POPC   C1A12975  36.797  28.550   8.799
  671POPC   D2A12976  36.597  28.392   8.420
  671POPC   C3A12977  36.778  28.101   8.196
  671POPC   C4A12978  37.011  28.111   7.825
  671POPC   C1B12979  37.347  28.495   8.755
  671POPC   C2B12980  37.122  28.646   8.405
  671POPC   C3B12981  36.957  28.583   8.041
  671POPC   C4B12982  37.199  28.567   7.674
  672POPC   NC312983  37.678   3.353   9.537
  672POPC   PO412984  37.953   3.911   9.665
  672POPC   GL112985  37.867   3.719   9.216
  672POPC   GL212986  37.527   3.588   9.096
  672POPC   C1A12987  37.979   3.548   8.786
  672POPC   D2A12988  37.782   3.520   8.344
  672POPC   C3A12989  37.766   3.341   7.921
  672POPC   C4A12990  38.023   3.365   7.511
  672POPC   C1B12991  37.600   3.868   8.725
  672POPC   C2B12992  37.430   3.925   8.302
  672POPC   C3B12993  37.668   3.854   7.916
  672POPC   C4B12994  37.629   3.668   7.503
  673POPC   NC312995  20.325  33.425   9.319
  673POPC   PO412996  19.927  32.870   9.438
  673POPC   GL112997  19.889  33.148   9.124
  673POPC   GL212998  19.837  33.491   9.163
  673POPC   C1A12999  19.717  33.127   8.755
  673POPC   D2A13000  19.842  33.150   8.363
  673POPC   C3A13001  19.678  32.857   8.085
  673POPC   C4A13002  19.675  33.030   7.702
  673POPC   C1B13003  20.040  33.544   8.730
  673POPC   C2B13004  19.939  33.644   8.306
  673POPC   C3B13005  19.872  33.432   7.921
  673POPC   C4B13006  19.715  33.523   7.493
  674POPC   NC313007   6.237   5.641   9.668
  674POPC   PO413008   6.886   5.792   9.522
  674POPC   GL113009   6.701   5.749   9.124
  674POPC   GL213010   6.965   5.539   9.032
  674POPC   C1A13011   6.531   5.979   8.752
  674POPC   D2A13012   6.409   5.870   8.313
  674POPC   C3A13013   6.607   6.057   7.945
  674POPC   C4A13014   6.492   6.197   7.523
  674POPC   C1B13015   6.836   5.582   8.622
  674POPC   C2B13016   6.848   5.624   8.187
  674POPC   C3B13017   6.898   5.653   7.764
  674POPC   C4B13018   6.750   5.414   7.410
  675POPC   NC313019  36.890  23.174   9.476
  675POPC   PO413020  37.254  22.577   9.436
  675POPC   GL113021  36.982  22.698   9.056
  675POPC   GL213022  36.704  22.899   9.094
  675POPC   C1A13023  36.853  22.866   8.608
  675POPC   D2A13024  36.830  22.879   8.163
  675POPC   C3A13025  36.949  22.587   7.905
  675POPC   C4A13026  36.599  22.739   7.661
  675POPC   C1B13027  36.664  23.285   8.821
  675POPC   C2B13028  36.551  23.245   8.376
  675POPC   C3B13029  36.364  23.134   7.975
  675POPC   C4B13030  36.541  23.241   7.568
  676POPC   NC313031  29.888   5.562   9.496
  676POPC   PO413032  29.991   6.104   9.602
  676POPC   GL113033  30.069   5.958   9.166
  676POPC   GL213034  29.874   5.670   8.994
  676POPC   C1A13035  29.978   6.099   8.746
  676POPC   D2A13036  29.735   5.838   8.449
  676POPC   C3A13037  29.750   5.894   7.999
  676POPC   C4A13038  29.921   6.229   7.733
  676POPC   C1B13039  30.186   5.662   8.633
  676POPC   C2B13040  30.215   5.928   8.237
  676POPC   C3B13041  30.223   5.833   7.768
  676POPC   C4B13042  30.108   5.521   7.442
  677POPC   NC313043  15.173  27.073   9.585
  677POPC   PO413044  14.931  26.493   9.293
  677POPC   GL113045  15.172  26.677   9.003
  677POPC   GL213046  15.338  26.972   9.121
  677POPC   C1A13047  15.050  26.814   8.605
  677POPC   D2A13048  14.913  27.141   8.338
  677POPC   C3A13049  14.986  26.939   7.949
  677POPC   C4A13050  15.218  26.566   7.793
  677POPC   C1B13051  15.558  26.940   8.716
  677POPC   C2B13052  15.431  27.014   8.278
  677POPC   C3B13053  15.478  26.982   7.819
  677POPC   C4B13054  15.654  27.139   7.440
  678POPC   NC313055  34.802  11.393   9.769
  678POPC   PO413056  35.412  11.183   9.526
  678POPC   GL113057  35.266  11.135   9.149
  678POPC   GL213058  34.946  11.241   9.274
  678POPC   C1A13059  35.431  11.100   8.733
  678POPC   D2A13060  35.635  11.379   8.443
  678POPC   C3A13061  35.480  11.355   8.027
  678POPC   C4A13062  35.618  11.218   7.626
  678POPC   C1B13063  34.921  11.259   8.816
  678POPC   C2B13064  35.097  11.338   8.417
  678POPC   C3B13065  34.910  11.319   8.031
  678POPC   C4B13066  35.110  11.186   7.676
  679POPC   NC313067  30.001  18.483   9.396
  679POPC   PO413068  29.880  17.840   9.507
  679POPC   GL113069  29.687  18.022   9.151
  679POPC   GL213070  29.553  18.375   9.170
  679POPC   C1A13071  29.822  18.114   8.746
  679POPC   D2A13072  29.760  17.911   8.359
  679POPC   C3A13073  29.679  18.147   8.008
  679POPC   C4A13074  30.031  18.255   7.747
  679POPC   C1B13075  29.734  18.646   8.825
  679POPC   C2B13076  30.014  18.557   8.489
  679POPC   C3B13077  29.927  18.649   8.088
  679POPC   C4B13078  29.674  18.599   7.737
  680POPC   NC313079  17.885  24.205   9.354
  680POPC   PO413080  18.423  24.512   9.559
  680POPC   GL113081  18.382  24.725   9.154
  680POPC   GL213082  18.250  24.423   9.029
  680POPC   C1A13083  18.547  24.713   8.713
  680POPC   D2A13084  18.367  24.654   8.306
  680POPC   C3A13085  18.412  24.871   7.919
  680POPC   C4A13086  18.234  24.572   7.610
  680POPC   C1B13087  18.357  24.234   8.619
  680POPC   C2B13088  18.139  24.210   8.186
  680POPC   C3B13089  17.962  24.167   7.759
  680POPC   C4B13090  17.974  24.207   7.296
  681POPC   NC313091  30.339  11.912   9.608
  681POPC   PO413092  29.758  11.519   9.651
  681POPC   GL113093  29.882  11.964   9.354
  681POPC   GL213094  30.212  12.004   9.136
  681POPC   C1A13095  29.789  12.141   8.888
  681POPC   D2A13096  29.588  12.199   8.470
  681POPC   C3A13097  29.731  12.051   8.080
  681POPC   C4A13098  29.790  12.146   7.651
  681POPC   C1B13099  30.249  11.950   8.744
  681POPC   C2B13100  30.098  12.180   8.433
  681POPC   C3B13101  30.233  12.048   8.079
  681POPC   C4B13102  30.309  12.169   7.693
  682POPC   NC313103  24.779   1.556   9.445
  682POPC   PO413104  24.204   1.986   9.492
  682POPC   GL113105  24.432   1.803   9.148
  682POPC   GL213106  24.789   1.890   9.056
  682POPC   C1A13107  24.370   1.921   8.726
  682POPC   D2A13108  24.315   2.225   8.428
  682POPC   C3A13109  24.422   2.030   8.064
  682POPC   C4A13110  24.761   2.096   7.802
  682POPC   C1B13111  24.879   1.668   8.675
  682POPC   C2B13112  24.853   1.792   8.234
  682POPC   C3B13113  24.659   1.612   7.869
  682POPC   C4B13114  24.548   1.630   7.453
  683POPC   NC313115   4.187   9.443   9.648
  683POPC   PO413116   4.604   8.808   9.617
  683POPC   GL113117   4.416   8.951   9.257
  683POPC   GL213118   4.549   9.269   9.266
  683POPC   C1A13119   4.582   8.874   8.838
  683POPC   D2A13120   4.408   8.860   8.443
  683POPC   C3A13121   4.644   8.946   8.085
  683POPC   C4A13122   4.490   8.807   7.724
  683POPC   C1B13123   4.399   9.342   8.854
  683POPC   C2B13124   4.499   9.418   8.456
  683POPC   C3B13125   4.269   9.278   8.116
  683POPC   C4B13126   4.158   9.216   7.721
  684POPC   NC313127  37.203  28.055   9.433
  684POPC   PO413128  37.756  28.521   9.481
  684POPC   GL113129  37.750  28.485   9.094
  684POPC   GL213130  37.588  28.186   9.123
  684POPC   C1A13131  37.978  28.506   8.738
  684POPC   D2A13132  37.744  28.401   8.412
  684POPC   C3A13133  37.913  28.480   8.046
  684POPC   C4A13134  37.697  28.692   7.719
  684POPC   C1B13135  37.336  27.986   8.763
  684POPC   C2B13136  37.294  28.165   8.324
  684POPC   C3B13137  37.497  28.223   7.925
  684POPC   C4B13138  37.512  27.953   7.570
  685POPC   NC313139   0.739  23.531   9.546
  685POPC   PO413140   0.165  23.918   9.486
  685POPC   GL113141   0.268  23.802   9.083
  685POPC   GL213142   0.416  23.467   9.156
  685POPC   C1A13143   0.220  23.946   8.633
  685POPC   D2A13144   0.567  24.042   8.315
  685POPC   C3A13145   0.588  23.774   7.990
  685POPC   C4A13146   0.345  23.760   7.606
  685POPC   C1B13147   0.401  23.239   8.771
  685POPC   C2B13148   0.391  23.419   8.376
  685POPC   C3B13149   0.412  23.238   8.001
  685POPC   C4B13150   0.270  23.258   7.613
  686POPC   NC313151  19.020  39.103   9.705
  686POPC   PO413152  18.587  39.629   9.577
  686POPC   GL113153  18.997  39.482   9.297
  686POPC   GL213154  19.072  39.129   9.217
  686POPC   C1A13155  19.205  39.402   8.841
  686POPC   D2A13156  19.389  39.460   8.438
  686POPC   C3A13157  19.140  39.252   8.067
  686POPC   C4A13158  18.798  39.143   7.767
  686POPC   C1B13159  19.196  38.849   8.894
  686POPC   C2B13160  19.245  38.949   8.472
  686POPC   C3B13161  19.385  38.789   8.092
  686POPC   C4B13162  19.126  38.766   7.729
  687POPC   NC313163  32.821  28.187   9.441
  687POPC   PO413164  32.648  27.554   9.524
  687POPC   GL113165  32.960  27.442   9.199
  687POPC   GL213166  33.079  27.754   9.099
  687POPC   C1A13167  33.181  27.365   8.789
  687POPC   D2A13168  33.060  27.342   8.377
  687POPC   C3A13169  33.246  27.464   8.012
  687POPC   C4A13170  32.925  27.586   7.782
  687POPC   C1B13171  32.975  27.819   8.662
  687POPC   C2B13172  32.961  27.901   8.240
  687POPC   C3B13173  32.963  28.081   7.862
  687POPC   C4B13174  33.265  27.911   7.589
  688POPC   NC313175  41.992  13.224   9.458
  688POPC   PO413176  42.647  12.977   9.608
  688POPC   GL113177  42.511  12.796   9.187
  688POPC   GL213178  42.190  12.914   9.130
  688POPC   C1A13179  42.384  12.650   8.754
  688POPC   D2A13180  42.193  12.697   8.350
  688POPC   C3A13181  42.455  12.647   7.965
  688POPC   C4A13182  42.741  12.977   7.796
  688POPC   C1B13183  42.016  13.080   8.755
  688POPC   C2B13184  42.080  13.177   8.334
  688POPC   C3B13185  42.090  13.011   7.937
  688POPC   C4B13186  41.903  13.364   7.782
  689POPC   NC313187  18.551  18.758   9.491
  689POPC   PO413188  18.275  19.305   9.587
  689POPC   GL113189  18.428  19.157   9.129
  689POPC   GL213190  18.615  18.842   9.003
  689POPC   C1A13191  18.654  19.331   8.741
  689POPC   D2A13192  18.654  19.580   8.313
  689POPC   C3A13193  18.646  19.303   7.923
  689POPC   C4A13194  18.271  19.145   7.733
  689POPC   C1B13195  18.384  18.897   8.644
  689POPC   C2B13196  18.495  18.880   8.219
  689POPC   C3B13197  18.538  18.707   7.807
  689POPC   C4B13198  18.475  18.752   7.398
  690POPC   NC313199  38.606  38.302   9.569
  690POPC   PO413200  38.347  38.856   9.305
  690POPC   GL113201  38.350  38.428   9.122
  690POPC   GL213202  38.667  38.243   9.074
  690POPC   C1A13203  38.316  38.265   8.694
  690POPC   D2A13204  38.345  38.506   8.308
  690POPC   C3A13205  38.445  38.342   7.884
  690POPC   C4A13206  38.149  38.239   7.582
  690POPC   C1B13207  38.712  38.569   8.764
  690POPC   C2B13208  38.837  38.665   8.347
  690POPC   C3B13209  38.637  38.829   7.988
  690POPC   C4B13210  38.690  38.715   7.551
  691POPC   NC313211   0.227  12.712   9.488
  691POPC   PO413212   0.713  13.140   9.629
  691POPC   GL113213   0.528  13.177   9.208
  691POPC   GL213214   0.179  13.233   9.196
  691POPC   C1A13215   0.463  13.032   8.769
  691POPC   D2A13216   0.510  12.757   8.411
  691POPC   C3A13217   0.528  12.890   7.965
  691POPC   C4A13218   0.576  12.618   7.595
  691POPC   C1B13219   0.011  13.275   8.768
  691POPC   C2B13220   0.167  13.168   8.336
  691POPC   C3B13221   0.115  13.188   7.894
  691POPC   C4B13222  44.833  13.151   7.583
  692POPC   NC313223   2.405  20.416   9.464
  692POPC   PO413224   2.966  20.559   9.584
  692POPC   GL113225   3.036  20.761   9.210
  692POPC   GL213226   2.883  20.475   9.049
  692POPC   C1A13227   2.905  20.943   8.855
  692POPC   D2A13228   2.785  20.647   8.545
  692POPC   C3A13229   2.888  20.713   8.135
  692POPC   C4A13230   3.192  20.868   7.872
  692POPC   C1B13231   2.536  20.266   8.777
  692POPC   C2B13232   2.618  20.215   8.315
  692POPC   C3B13233   2.738  20.266   7.884
  692POPC   C4B13234   2.516  20.556   7.647
  693POPC   NC313235  25.632  37.912   9.465
  693POPC   PO413236  26.348  37.800   9.394
  693POPC   GL113237  26.010  37.852   9.149
  693POPC   GL213238  25.845  37.525   9.148
  693POPC   C1A13239  25.916  37.865   8.753
  693POPC   D2A13240  26.151  37.794   8.401
  693POPC   C3A13241  25.863  37.929   8.136
  693POPC   C4A13242  25.736  37.985   7.741
  693POPC   C1B13243  26.113  37.398   8.747
  693POPC   C2B13244  26.138  37.297   8.281
  693POPC   C3B13245  26.138  37.526   7.848
  693POPC   C4B13246  26.355  37.436   7.400
  694POPC   NC313247   6.942  37.982   9.817
  694POPC   PO413248   6.454  37.575   9.742
  694POPC   GL113249   6.535  37.670   9.307
  694POPC   GL213250   6.807  37.948   9.282
  694POPC   C1A13251   6.441  37.571   8.875
  694POPC   D2A13252   6.305  37.857   8.522
  694POPC   C3A13253   6.445  37.770   8.078
  694POPC   C4A13254   6.486  37.571   7.659
  694POPC   C1B13255   6.743  37.966   8.815
  694POPC   C2B13256   6.778  37.656   8.452
  694POPC   C3B13257   6.926  37.641   7.991
  694POPC   C4B13258   6.903  37.890   7.594
  695POPC   NC313259  20.125  36.936   9.679
  695POPC   PO413260  19.532  36.661   9.779
  695POPC   GL113261  19.691  36.756   9.321
  695POPC   GL213262  19.817  37.103   9.284
  695POPC   C1A13263  19.612  36.877   8.882
  695POPC   D2A13264  19.819  36.951   8.480
  695POPC   C3A13265  19.715  36.856   8.065
  695POPC   C4A13266  19.895  36.962   7.634
  695POPC   C1B13267  20.063  37.226   8.895
  695POPC   C2B13268  20.271  37.159   8.485
  695POPC   C3B13269  20.065  37.262   8.056
  695POPC   C4B13270  20.302  37.276   7.689
  696POPC   NC313271   3.771  11.752   9.668
  696POPC   PO413272   3.293  12.091   9.449
  696POPC   GL113273   3.460  11.917   9.072
  696POPC   GL213274   3.796  11.984   9.157
  696POPC   C1A13275   3.449  11.771   8.634
  696POPC   D2A13276   3.186  11.970   8.322
  696POPC   C3A13277   3.361  12.158   8.029
  696POPC   C4A13278   3.453  11.946   7.672
  696POPC   C1B13279   3.903  12.042   8.712
  696POPC   C2B13280   3.763  11.955   8.280
  696POPC   C3B13281   3.880  12.138   7.873
  696POPC   C4B13282   3.822  12.117   7.387
  697POPC   NC313283  27.737  39.729   9.358
  697POPC   PO413284  27.352  40.325   9.404
  697POPC   GL113285  27.391  40.305   8.985
  697POPC   GL213286  27.355  39.956   9.026
  697POPC   C1A13287  27.621  40.297   8.585
  697POPC   D2A13288  27.928  40.000   8.377
  697POPC   C3A13289  27.830  39.893   7.941
  697POPC   C4A13290  27.535  40.104   7.708
  697POPC   C1B13291  27.521  39.777   8.615
  697POPC   C2B13292  27.440  39.627   8.176
  697POPC   C3B13293  27.496  39.553   7.709
  697POPC   C4B13294  27.293  39.531   7.301
  698POPC   NC313295  23.042  11.597   9.661
  698POPC   PO413296  22.509  11.302   9.721
  698POPC   GL113297  22.552  11.475   9.319
  698POPC   GL213298  22.886  11.434   9.210
  698POPC   C1A13299  22.552  11.518   8.847
  698POPC   D2A13300  22.717  11.324   8.458
  698POPC   C3A13301  22.606  11.455   8.033
  698POPC   C4A13302  22.873  11.307   7.717
  698POPC   C1B13303  23.034  11.138   8.896
  698POPC   C2B13304  23.156  11.018   8.514
  698POPC   C3B13305  23.099  11.083   8.107
  698POPC   C4B13306  23.356  11.055   7.713
  699POPC   NC313307   2.484  31.900   9.531
  699POPC   PO413308   2.859  32.459   9.528
  699POPC   GL113309   2.749  32.262   9.141
  699POPC   GL213310   2.744  31.915   9.099
  699POPC   C1A13311   2.564  32.297   8.719
  699POPC   D2A13312   2.767  32.287   8.316
  699POPC   C3A13313   2.597  32.294   7.893
  699POPC   C4A13314   2.497  32.482   7.461
  699POPC   C1B13315   2.523  31.773   8.774
  699POPC   C2B13316   2.496  31.874   8.368
  699POPC   C3B13317   2.742  31.778   8.049
  699POPC   C4B13318   2.719  31.876   7.637
  700POPC   NC313319  18.823  24.582   9.360
  700POPC   PO413320  19.342  25.013   9.377
  700POPC   GL113321  19.190  24.776   9.038
  700POPC   GL213322  19.212  24.422   9.029
  700POPC   C1A13323  19.097  24.746   8.615
  700POPC   D2A13324  19.303  24.469   8.317
  700POPC   C3A13325  19.093  24.428   7.873
  700POPC   C4A13326  19.236  24.704   7.509
  700POPC   C1B13327  18.886  24.279   8.748
  700POPC   C2B13328  18.796  24.430   8.332
  700POPC   C3B13329  18.584  24.373   7.949
  700POPC   C4B13330  18.659  24.177   7.605
  701POPC   NC313331  10.906  16.181   9.335
  701POPC   PO413332  10.396  15.843   9.466
  701POPC   GL113333  10.432  16.148   9.151
  701POPC   GL213334  10.113  16.277   9.185
  701POPC   C1A13335  10.664  16.205   8.741
  701POPC   D2A13336  10.738  16.349   8.339
  701POPC   C3A13337  10.754  16.006   8.120
  701POPC   C4A13338  10.803  15.881   7.736
  701POPC   C1B13339  10.150  16.103   8.723
  701POPC   C2B13340  10.091  16.060   8.260
  701POPC   C3B13341  10.316  16.045   7.825
  701POPC   C4B13342  10.264  16.159   7.341
  702POPC   NC313343  33.182  43.176   9.560
  702POPC   PO413344  32.500  43.299   9.582
  702POPC   GL113345  32.824  43.230   9.203
  702POPC   GL213346  32.980  42.908   9.152
  702POPC   C1A13347  32.986  43.223   8.761
  702POPC   D2A13348  33.064  43.386   8.344
  702POPC   C3A13349  32.782  43.421   7.983
  702POPC   C4A13350  33.079  43.515   7.694
  702POPC   C1B13351  33.066  42.703   8.773
  702POPC   C2B13352  33.191  42.876   8.367
  702POPC   C3B13353  33.070  43.004   7.953
  702POPC   C4B13354  32.837  42.790   7.630
  703POPC   NC313355  14.243  33.438   9.866
  703POPC   PO413356  14.722  33.689   9.632
  703POPC   GL113357  14.677  33.626   9.180
  703POPC   GL213358  14.756  33.948   9.038
  703POPC   C1A13359  14.385  33.691   8.791
  703POPC   D2A13360  14.174  33.686   8.372
  703POPC   C3A13361  14.314  33.756   7.919
  703POPC   C4A13362  14.148  33.597   7.513
  703POPC   C1B13363  14.878  33.625   8.688
  703POPC   C2B13364  14.698  33.692   8.263
  703POPC   C3B13365  14.882  33.778   7.821
  703POPC   C4B13366  14.768  33.907   7.370
  704POPC   NC313367  21.327  22.779   9.497
  704POPC   PO413368  21.455  23.415   9.641
  704POPC   GL113369  21.410  23.178   9.166
  704POPC   GL213370  21.092  23.069   9.041
  704POPC   C1A13371  21.385  22.927   8.687
  704POPC   D2A13372  21.176  22.951   8.259
  704POPC   C3A13373  21.431  22.818   7.888
  704POPC   C4A13374  21.631  22.702   7.498
  704POPC   C1B13375  21.046  23.317   8.657
  704POPC   C2B13376  21.087  23.473   8.243
  704POPC   C3B13377  21.261  23.316   7.870
  704POPC   C4B13378  21.406  23.162   7.474
  705POPC   NC313379  23.961  44.815   9.246
  705POPC   PO413380  24.359  44.348   9.573
  705POPC   GL113381  24.434  44.566   9.180
  705POPC   GL213382  24.772  44.683   9.121
  705POPC   C1A13383  24.363  44.681   8.754
  705POPC   D2A13384  24.165  44.468   8.412
  705POPC   C3A13385  24.120  44.756   8.068
  705POPC   C4A13386  24.260  44.770   7.632
  705POPC   C1B13387  24.824  44.446   8.756
  705POPC   C2B13388  24.669  44.601   8.352
  705POPC   C3B13389  24.664  44.718   7.945
  705POPC   C4B13390  24.788   0.137   7.845
  706POPC   NC313391  24.947  43.427   9.458
  706POPC   PO413392  25.380  42.903   9.563
  706POPC   GL113393  25.189  42.900   9.194
  706POPC   GL213394  25.251  43.235   9.086
  706POPC   C1A13395  25.090  42.727   8.832
  706POPC   D2A13396  25.269  42.870   8.477
  706POPC   C3A13397  25.099  42.921   8.089
  706POPC   C4A13398  25.314  43.102   7.766
  706POPC   C1B13399  24.876  43.215   8.852
  706POPC   C2B13400  24.851  43.240   8.422
  706POPC   C3B13401  24.971  43.404   8.007
  706POPC   C4B13402  25.000  43.443   7.562
  707POPC   NC313403  15.267   9.534   9.576
  707POPC   PO413404  14.690   9.768   9.625
  707POPC   GL113405  15.005   9.875   9.252
  707POPC   GL213406  15.215   9.610   9.087
  707POPC   C1A13407  15.142  10.034   8.809
  707POPC   D2A13408  15.325   9.913   8.394
  707POPC   C3A13409  15.033   9.893   8.076
  707POPC   C4A13410  15.050  10.016   7.655
  707POPC   C1B13411  15.512   9.626   8.773
  707POPC   C2B13412  15.553   9.423   8.410
  707POPC   C3B13413  15.349   9.498   8.027
  707POPC   C4B13414  15.562   9.482   7.645
  708POPC   NC313415  35.415  13.916   9.226
  708POPC   PO413416  35.251  13.328   9.538
  708POPC   GL113417  35.176  13.464   9.132
  708POPC   GL213418  35.559  13.404   9.106
  708POPC   C1A13419  35.123  13.641   8.695
  708POPC   D2A13420  35.328  13.953   8.421
  708POPC   C3A13421  35.419  13.779   8.021
  708POPC   C4A13422  35.276  13.452   7.734
  708POPC   C1B13423  35.649  13.461   8.672
  708POPC   C2B13424  35.770  13.270   8.294
  708POPC   C3B13425  35.781  13.421   7.896
  708POPC   C4B13426  35.727  13.740   7.607
  709POPC   NC313427  29.565  23.956   9.493
  709POPC   PO413428  29.099  23.414   9.563
  709POPC   GL113429  29.406  23.571   9.181
  709POPC   GL213430  29.417  23.936   9.020
  709POPC   C1A13431  29.377  23.568   8.702
  709POPC   D2A13432  29.067  23.645   8.381
  709POPC   C3A13433  29.191  23.487   7.991
  709POPC   C4A13434  28.938  23.373   7.652
  709POPC   C1B13435  29.446  24.176   8.649
  709POPC   C2B13436  29.486  23.916   8.287
  709POPC   C3B13437  29.500  23.891   7.865
  709POPC   C4B13438  29.489  24.007   7.440
  710POPC   NC313439  35.851   5.717   9.486
  710POPC   PO413440  36.261   6.276   9.338
  710POPC   GL113441  36.273   5.899   9.141
  710POPC   GL213442  36.436   5.581   9.179
  710POPC   C1A13443  36.328   5.901   8.705
  710POPC   D2A13444  36.548   5.892   8.327
  710POPC   C3A13445  36.252   5.983   7.992
  710POPC   C4A13446  36.102   6.006   7.573
  710POPC   C1B13447  36.035   5.529   8.895
  710POPC   C2B13448  35.989   5.592   8.441
  710POPC   C3B13449  35.965   5.521   7.993
  710POPC   C4B13450  36.155   5.500   7.605
  711POPC   NC313451   5.864  31.166   9.464
  711POPC   PO413452   5.971  31.772   9.297
  711POPC   GL113453   5.960  31.432   9.007
  711POPC   GL213454   5.660  31.262   9.007
  711POPC   C1A13455   5.961  31.193   8.620
  711POPC   D2A13456   5.828  30.966   8.305
  711POPC   C3A13457   5.810  31.251   7.995
  711POPC   C4A13458   5.533  31.497   7.740
  711POPC   C1B13459   5.572  31.560   8.661
  711POPC   C2B13460   5.674  31.701   8.217
  711POPC   C3B13461   6.000  31.708   7.868
  711POPC   C4B13462   6.057  31.751   7.408
  712POPC   NC313463   8.599  37.093   9.518
  712POPC   PO413464   8.000  37.204   9.857
  712POPC   GL113465   8.122  37.081   9.327
  712POPC   GL213466   8.376  36.867   9.133
  712POPC   C1A13467   7.966  36.995   8.868
  712POPC   D2A13468   8.113  36.974   8.413
  712POPC   C3A13469   7.946  36.783   8.019
  712POPC   C4A13470   8.041  36.947   7.604
  712POPC   C1B13471   8.536  36.909   8.709
  712POPC   C2B13472   8.732  37.145   8.331
  712POPC   C3B13473   8.604  37.070   7.914
  712POPC   C4B13474   8.426  36.697   7.787
  713POPC   NC313475  35.109   7.731   9.268
  713POPC   PO413476  35.539   7.311   9.631
  713POPC   GL113477  35.507   7.420   9.170
  713POPC   GL213478  35.520   7.757   8.994
  713POPC   C1A13479  35.417   7.329   8.720
  713POPC   D2A13480  35.239   7.321   8.304
  713POPC   C3A13481  35.422   7.460   7.944
  713POPC   C4A13482  35.653   7.581   7.623
  713POPC   C1B13483  35.297   7.820   8.629
  713POPC   C2B13484  35.193   7.821   8.234
  713POPC   C3B13485  34.955   7.658   7.925
  713POPC   C4B13486  35.119   7.758   7.543
  714POPC   NC313487  37.634  38.027   9.525
  714POPC   PO413488  37.965  37.479   9.351
  714POPC   GL113489  37.573  37.486   9.139
  714POPC   GL213490  37.477  37.852   9.084
  714POPC   C1A13491  37.393  37.499   8.749
  714POPC   D2A13492  37.489  37.808   8.488
  714POPC   C3A13493  37.453  37.632   8.120
  714POPC   C4A13494  37.603  37.640   7.767
  714POPC   C1B13495  37.851  37.993   8.836
  714POPC   C2B13496  37.954  38.056   8.398
  714POPC   C3B13497  37.906  37.987   7.975
  714POPC   C4B13498  37.644  38.152   7.671
  715POPC   NC313499  44.542  37.587   9.504
  715POPC   PO413500   0.097  37.832   9.561
  715POPC   GL113501  44.856  37.857   9.177
  715POPC   GL213502  44.643  37.547   9.018
  715POPC   C1A13503  44.955  37.835   8.760
  715POPC   D2A13504  44.826  37.630   8.412
  715POPC   C3A13505  44.857  37.796   8.016
  715POPC   C4A13506  44.863  37.487   7.728
  715POPC   C1B13507  44.425  37.828   8.708
  715POPC   C2B13508  44.381  37.933   8.229
  715POPC   C3B13509  44.392  37.711   7.805
  715POPC   C4B13510  44.228  37.807   7.376
  716POPC   NC313511  35.709  34.494   9.410
  716POPC   PO413512  36.354  34.352   9.549
  716POPC   GL113513  36.216  34.554   9.212
  716POPC   GL213514  36.204  34.881   9.318
  716POPC   C1A13515  36.124  34.526   8.781
  716POPC   D2A13516  36.222  34.405   8.366
  716POPC   C3A13517  35.994  34.494   8.016
  716POPC   C4A13518  35.816  34.200   7.737
  716POPC   C1B13519  36.409  34.931   8.905
  716POPC   C2B13520  36.279  34.931   8.468
  716POPC   C3B13521  36.425  34.799   8.082
  716POPC   C4B13522  36.298  34.792   7.692
  717POPC   NC313523  23.341  43.432   9.689
  717POPC   PO413524  23.855  43.006   9.530
  717POPC   GL113525  23.701  43.227   9.183
  717POPC   GL213526  23.373  43.318   9.137
  717POPC   C1A13527  23.826  43.274   8.737
  717POPC   D2A13528  23.885  42.945   8.453
  717POPC   C3A13529  23.861  43.125   8.044
  717POPC   C4A13530  23.816  43.053   7.622
  717POPC   C1B13531  23.406  42.997   8.787
  717POPC   C2B13532  23.426  43.071   8.347
  717POPC   C3B13533  23.365  42.976   7.924
  717POPC   C4B13534  23.308  43.180   7.526
  718POPC   NC313535   5.592  36.030   9.406
  718POPC   PO413536   6.067  36.459   9.548
  718POPC   GL113537   6.098  36.501   9.097
  718POPC   GL213538   6.409  36.647   8.959
  718POPC   C1A13539   5.852  36.265   8.778
  718POPC   D2A13540   5.665  35.910   8.511
  718POPC   C3A13541   5.828  35.928   8.070
  718POPC   C4A13542   5.873  35.900   7.623
  718POPC   C1B13543   6.270  36.557   8.538
  718POPC   C2B13544   5.909  36.438   8.275
  718POPC   C3B13545   5.791  36.390   7.847
  718POPC   C4B13546   5.917  36.404   7.432
  719POPC   NC313547  42.548  32.069   9.491
  719POPC   PO413548  41.843  32.083   9.488
  719POPC   GL113549  42.199  32.217   9.161
  719POPC   GL213550  42.594  32.325   9.059
  719POPC   C1A13551  42.236  32.221   8.728
  719POPC   D2A13552  42.458  32.203   8.347
  719POPC   C3A13553  42.245  32.239   7.990
  719POPC   C4A13554  42.193  32.282   7.544
  719POPC   C1B13555  42.587  32.607   8.679
  719POPC   C2B13556  42.547  32.712   8.215
  719POPC   C3B13557  42.437  32.669   7.758
  719POPC   C4B13558  42.563  32.510   7.303
  720POPC   NC313559  44.920  40.990   9.503
  720POPC   PO413560  44.739  41.742   9.536
  720POPC   GL113561  44.618  41.411   9.275
  720POPC   GL213562  44.932  41.369   9.166
  720POPC   C1A13563  44.497  41.412   8.850
  720POPC   D2A13564  44.702  41.414   8.473
  720POPC   C3A13565  44.537  41.575   8.090
  720POPC   C4A13566  44.459  41.311   7.737
  720POPC   C1B13567  44.872  41.763   8.904
  720POPC   C2B13568  44.814  41.902   8.472
  720POPC   C3B13569  44.927  41.927   8.020
  720POPC   C4B13570  44.881  41.617   7.678
  721POPC   NC313571  39.555  38.567   9.396
  721POPC   PO413572  38.900  38.669   9.634
  721POPC   GL113573  38.979  38.641   9.212
  721POPC   GL213574  39.123  38.305   9.299
  721POPC   C1A13575  39.148  38.813   8.791
  721POPC   D2A13576  39.288  38.915   8.371
  721POPC   C3A13577  39.353  38.614   8.058
  721POPC   C4A13578  38.979  38.464   7.879
  721POPC   C1B13579  39.175  38.321   8.867
  721POPC   C2B13580  39.199  38.318   8.451
  721POPC   C3B13581  39.298  38.100   8.090
  721POPC   C4B13582  39.359  38.199   7.676
  722POPC   NC313583  27.301  28.704   9.288
  722POPC   PO413584  27.869  28.850   9.572
  722POPC   GL113585  27.635  29.085   9.227
  722POPC   GL213586  27.255  29.191   9.160
  722POPC   C1A13587  27.657  29.233   8.807
  722POPC   D2A13588  27.798  29.067   8.432
  722POPC   C3A13589  27.674  29.178   8.040
  722POPC   C4A13590  27.913  29.014   7.707
  722POPC   C1B13591  27.162  29.348   8.745
  722POPC   C2B13592  27.430  29.473   8.390
  722POPC   C3B13593  27.392  29.633   7.960
  722POPC   C4B13594  27.307  29.419   7.573
  723POPC   NC313595  38.619   9.580   9.685
  723POPC   PO413596  38.444  10.114   9.447
  723POPC   GL113597  38.302   9.919   9.099
  723POPC   GL213598  38.374   9.583   9.205
  723POPC   C1A13599  38.421  10.019   8.687
  723POPC   D2A13600  38.643   9.823   8.341
  723POPC   C3A13601  38.518   9.984   7.950
  723POPC   C4A13602  38.101   9.958   7.760
  723POPC   C1B13603  38.554   9.555   8.815
  723POPC   C2B13604  38.264   9.518   8.469
  723POPC   C3B13605  38.305   9.530   8.051
  723POPC   C4B13606  38.473   9.515   7.629
  724POPC   NC313607   7.726  39.170   9.683
  724POPC   PO413608   7.682  39.776   9.442
  724POPC   GL113609   7.491  39.370   9.238
  724POPC   GL213610   7.744  39.113   9.168
  724POPC   C1A13611   7.376  39.223   8.791
  724POPC   D2A13612   7.308  39.497   8.389
  724POPC   C3A13613   7.322  39.458   7.920
  724POPC   C4A13614   7.319  39.163   7.588
  724POPC   C1B13615   7.748  38.821   8.829
  724POPC   C2B13616   7.633  38.876   8.422
  724POPC   C3B13617   7.549  38.997   8.029
  724POPC   C4B13618   7.557  38.721   7.693
  725POPC   NC313619   3.636  33.863   9.504
  725POPC   PO413620   3.447  34.114   9.022
  725POPC   GL113621   3.573  33.727   8.988
  725POPC   GL213622   3.290  33.596   9.104
  725POPC   C1A13623   3.638  33.711   8.564
  725POPC   D2A13624   3.311  33.725   8.328
  725POPC   C3A13625   3.438  33.920   8.002
  725POPC   C4A13626   3.816  34.053   7.773
  725POPC   C1B13627   3.279  33.374   8.699
  725POPC   C2B13628   3.572  33.249   8.380
  725POPC   C3B13629   3.449  33.385   7.978
  725POPC   C4B13630   3.586  33.614   7.636
  726POPC   NC313631  33.660   6.007   9.687
  726POPC   PO413632  33.494   5.506   9.533
  726POPC   GL113633  33.729   5.788   9.213
  726POPC   GL213634  33.726   6.171   9.190
  726POPC   C1A13635  33.841   5.792   8.761
  726POPC   D2A13636  33.655   5.630   8.372
  726POPC   C3A13637  33.838   5.713   7.960
  726POPC   C4A13638  33.728   5.802   7.510
  726POPC   C1B13639  33.586   6.225   8.732
  726POPC   C2B13640  33.789   6.139   8.326
  726POPC   C3B13641  33.659   6.174   7.878
  726POPC   C4B13642  33.437   6.234   7.479
  727POPC   NC313643  44.582  18.654   9.529
  727POPC   PO413644  44.695  18.002   9.591
  727POPC   GL113645  44.857  18.028   9.194
  727POPC   GL213646  44.891  18.404   9.200
  727POPC   C1A13647  44.805  18.169   8.772
  727POPC   D2A13648  44.577  18.392   8.467
  727POPC   C3A13649  44.750  18.290   8.098
  727POPC   C4A13650  44.575  18.275   7.704
  727POPC   C1B13651  44.832  18.668   8.836
  727POPC   C2B13652   0.049  18.574   8.431
  727POPC   C3B13653  44.964  18.730   8.005
  727POPC   C4B13654  44.828  18.833   7.607
  728POPC   NC313655  35.672  21.151   9.380
  728POPC   PO413656  35.318  21.639   9.711
  728POPC   GL113657  35.275  21.598   9.252
  728POPC   GL213658  35.636  21.646   9.190
  728POPC   C1A13659  35.035  21.497   8.835
  728POPC   D2A13660  35.105  21.192   8.465
  728POPC   C3A13661  35.119  21.380   8.047
  728POPC   C4A13662  35.383  21.705   7.872
  728POPC   C1B13663  35.520  21.389   8.796
  728POPC   C2B13664  35.524  21.522   8.365
  728POPC   C3B13665  35.711  21.329   7.995
  728POPC   C4B13666  35.827  21.077   7.676
  729POPC   NC313667  31.733  30.763   9.486
  729POPC   PO413668  31.117  30.488   9.456
  729POPC   GL113669  31.369  30.655   9.161
  729POPC   GL213670  31.364  31.001   9.205
  729POPC   C1A13671  31.651  30.704   8.826
  729POPC   D2A13672  31.651  30.687   8.391
  729POPC   C3A13673  31.718  30.489   8.015
  729POPC   C4A13674  31.642  30.637   7.590
  729POPC   C1B13675  31.363  31.135   8.804
  729POPC   C2B13676  31.459  31.157   8.394
  729POPC   C3B13677  31.543  31.003   7.982
  729POPC   C4B13678  31.232  30.959   7.663
  730POPC   NC313679  21.086   5.294   9.405
  730POPC   PO413680  20.433   5.085   9.388
  730POPC   GL113681  20.607   4.850   9.066
  730POPC   GL213682  20.968   4.803   9.159
  730POPC   C1A13683  20.364   4.671   8.722
  730POPC   D2A13684  20.209   4.913   8.356
  730POPC   C3A13685  20.398   5.207   8.035
  730POPC   C4A13686  20.208   5.625   7.895
  730POPC   C1B13687  21.027   4.961   8.742
  730POPC   C2B13688  21.191   4.842   8.317
  730POPC   C3B13689  21.012   4.862   7.857
  730POPC   C4B13690  20.819   4.888   7.380
  731POPC   NC313691  34.409  34.067   9.588
  731POPC   PO413692  34.333  33.419   9.447
  731POPC   GL113693  34.596  33.651   9.137
  731POPC   GL213694  34.736  33.994   9.171
  731POPC   C1A13695  34.385  33.732   8.722
  731POPC   D2A13696  34.399  33.579   8.337
  731POPC   C3A13697  34.249  33.822   8.011
  731POPC   C4A13698  34.468  33.708   7.661
  731POPC   C1B13699  34.655  34.133   8.739
  731POPC   C2B13700  34.695  34.341   8.316
  731POPC   C3B13701  34.695  34.080   7.930
  731POPC   C4B13702  34.618  34.164   7.460
  732POPC   NC313703   0.802  41.128   9.781
  732POPC   PO413704   1.364  40.991   9.387
  732POPC   GL113705   1.273  40.903   8.985
  732POPC   GL213706   1.001  41.102   8.901
  732POPC   C1A13707   1.515  40.972   8.606
  732POPC   D2A13708   1.585  41.089   8.171
  732POPC   C3A13709   1.441  40.773   7.867
  732POPC   C4A13710   1.147  40.374   7.880
  732POPC   C1B13711   0.946  40.820   8.603
  732POPC   C2B13712   1.127  40.766   8.257
  732POPC   C3B13713   1.084  41.130   8.003
  732POPC   C4B13714   0.835  41.379   7.730
  733POPC   NC313715  26.470  29.890   9.503
  733POPC   PO413716  26.845  29.392   9.459
  733POPC   GL113717  26.925  29.672   9.120
  733POPC   GL213718  26.832  30.023   9.154
  733POPC   C1A13719  26.988  29.827   8.694
  733POPC   D2A13720  26.945  30.209   8.457
  733POPC   C3A13721  26.932  30.153   8.023
  733POPC   C4A13722  26.796  30.130   7.581
  733POPC   C1B13723  26.512  30.023   8.805
  733POPC   C2B13724  26.462  29.852   8.385
  733POPC   C3B13725  26.466  29.972   7.954
  733POPC   C4B13726  26.407  29.737   7.594
  734POPC   NC313727  29.678  31.017   9.298
  734POPC   PO413728  30.070  30.498   9.623
  734POPC   GL113729  29.933  30.580   9.204
  734POPC   GL213730  30.103  30.350   9.079
  734POPC   C1A13731  29.971  30.721   8.748
  734POPC   D2A13732  30.081  30.869   8.327
  734POPC   C3A13733  29.894  30.777   7.894
  734POPC   C4A13734  30.014  30.967   7.472
  734POPC   C1B13735  30.114  30.236   8.680
  734POPC   C2B13736  30.229  30.341   8.280
  734POPC   C3B13737  30.257  30.317   7.836
  734POPC   C4B13738  30.041  30.425   7.474
  735POPC   NC313739   8.549  13.704   9.608
  735POPC   PO413740   9.192  13.808   9.423
  735POPC   GL113741   9.049  13.634   9.075
  735POPC   GL213742   8.795  13.444   9.200
  735POPC   C1A13743   9.153  13.669   8.636
  735POPC   D2A13744   9.048  13.771   8.207
  735POPC   C3A13745   9.262  13.598   7.891
  735POPC   C4A13746   9.176  13.501   7.484
  735POPC   C1B13747   8.629  13.528   8.800
  735POPC   C2B13748   8.579  13.711   8.414
  735POPC   C3B13749   8.622  13.497   8.035
  735POPC   C4B13750   8.674  13.664   7.657
  736POPC   NC313751   8.561  20.384   9.468
  736POPC   PO413752   9.263  20.395   9.464
  736POPC   GL113753   8.996  20.576   9.188
  736POPC   GL213754   8.888  20.278   9.094
  736POPC   C1A13755   9.012  20.630   8.751
  736POPC   D2A13756   9.062  20.911   8.419
  736POPC   C3A13757   8.998  20.722   8.047
  736POPC   C4A13758   8.893  20.739   7.625
  736POPC   C1B13759   8.650  20.262   8.715
  736POPC   C2B13760   8.697  20.348   8.291
  736POPC   C3B13761   8.675  20.356   7.846
  736POPC   C4B13762   9.047  20.244   7.587
  737POPC   NC313763  31.891  23.252   9.432
  737POPC   PO413764  32.343  22.829   9.613
  737POPC   GL113765  32.396  22.904   9.199
  737POPC   GL213766  32.522  22.608   9.115
  737POPC   C1A13767  32.236  23.161   8.871
  737POPC   D2A13768  32.079  23.066   8.451
  737POPC   C3A13769  32.234  23.141   8.013
  737POPC   C4A13770  32.053  23.111   7.577
  737POPC   C1B13771  32.458  22.754   8.683
  737POPC   C2B13772  32.259  22.593   8.345
  737POPC   C3B13773  32.339  22.643   7.936
  737POPC   C4B13774  32.538  22.909   7.629
  738POPC   NC313775  42.868   0.255   9.304
  738POPC   PO413776  42.440   0.572   9.769
  738POPC   GL113777  42.389   0.500   9.301
  738POPC   GL213778  42.162   0.225   9.194
  738POPC   C1A13779  42.441   0.423   8.828
  738POPC   D2A13780  42.354   0.548   8.414
  738POPC   C3A13781  42.524   0.464   8.008
  738POPC   C4A13782  42.887   0.341   7.787
  738POPC   C1B13783  41.944   0.197   8.799
  738POPC   C2B13784  42.012   0.141   8.382
  738POPC   C3B13785  42.008   0.391   8.035
  738POPC   C4B13786  42.127   0.345   7.639
  739POPC   NC313787   9.525  14.132   9.437
  739POPC   PO413788   9.927  14.683   9.396
  739POPC   GL113789   9.808  14.434   9.072
  739POPC   GL213790   9.471  14.457   9.021
  739POPC   C1A13791   9.768  14.491   8.618
  739POPC   D2A13792   9.983  14.410   8.262
  739POPC   C3A13793   9.802  14.529   7.894
  739POPC   C4A13794   9.809  14.239   7.580
  739POPC   C1B13795   9.293  14.134   8.802
  739POPC   C2B13796   9.441  14.074   8.406
  739POPC   C3B13797   9.479  14.135   7.978
  739POPC   C4B13798   9.357  14.433   7.650
  740POPC   NC313799  26.637  39.181   9.493
  740POPC   PO413800  27.211  39.376   9.686
  740POPC   GL113801  27.043  39.142   9.199
  740POPC   GL213802  26.722  39.043   9.026
  740POPC   C1A13803  27.027  39.226   8.683
  740POPC   D2A13804  26.914  39.598   8.384
  740POPC   C3A13805  26.762  39.477   7.985
  740POPC   C4A13806  26.990  39.332   7.654
  740POPC   C1B13807  26.604  38.890   8.623
  740POPC   C2B13808  26.715  38.937   8.219
  740POPC   C3B13809  26.677  38.966   7.804
  740POPC   C4B13810  26.585  38.916   7.358
  741POPC   NC313811  13.156   3.787  10.054
  741POPC   PO413812  13.555   4.202   9.713
  741POPC   GL113813  13.704   3.999   9.291
  741POPC   GL213814  13.529   3.670   9.187
  741POPC   C1A13815  13.704   3.952   8.805
  741POPC   D2A13816  13.866   3.906   8.364
  741POPC   C3A13817  13.612   3.820   7.953
  741POPC   C4A13818  13.673   3.669   7.492
  741POPC   C1B13819  13.402   3.535   8.743
  741POPC   C2B13820  13.564   3.440   8.309
  741POPC   C3B13821  13.574   3.302   7.845
  741POPC   C4B13822  13.628   3.174   7.378
  742POPC   NC313823  11.861  27.215   9.469
  742POPC   PO413824  12.388  27.649   9.613
  742POPC   GL113825  12.199  27.755   9.172
  742POPC   GL213826  12.068  27.442   9.069
  742POPC   C1A13827  12.003  27.803   8.716
  742POPC   D2A13828  12.007  27.629   8.279
  742POPC   C3A13829  12.135  27.761   7.839
  742POPC   C4A13830  11.871  27.705   7.460
  742POPC   C1B13831  11.921  27.242   8.687
  742POPC   C2B13832  12.110  27.110   8.309
  742POPC   C3B13833  12.114  27.256   7.901
  742POPC   C4B13834  12.266  27.350   7.486
  743POPC   NC313835  36.556  29.231   9.366
  743POPC   PO413836  37.191  29.361   9.495
  743POPC   GL113837  36.972  29.282   9.106
  743POPC   GL213838  36.951  28.939   9.184
  743POPC   C1A13839  36.696  29.059   8.761
  743POPC   D2A13840  36.643  28.896   8.371
  743POPC   C3A13841  36.657  29.224   8.113
  743POPC   C4A13842  36.717  29.185   7.689
  743POPC   C1B13843  37.187  28.981   8.778
  743POPC   C2B13844  37.111  29.163   8.375
  743POPC   C3B13845  37.178  29.029   7.947
  743POPC   C4B13846  37.487  29.231   7.710
  744POPC   NC313847  28.464  38.957   9.500
  744POPC   PO413848  28.164  39.567   9.452
  744POPC   GL113849  28.389  39.341   9.140
  744POPC   GL213850  28.536  39.023   9.014
  744POPC   C1A13851  28.510  39.433   8.730
  744POPC   D2A13852  28.288  39.537   8.385
  744POPC   C3A13853  28.533  39.406   8.027
  744POPC   C4A13854  28.338  39.184   7.706
  744POPC   C1B13855  28.539  38.817   8.633
  744POPC   C2B13856  28.539  38.874   8.164
  744POPC   C3B13857  28.683  38.830   7.760
  744POPC   C4B13858  28.557  38.862   7.315
  745POPC   NC313859   8.393   0.923   9.587
  745POPC   PO413860   7.814   0.766   9.808
  745POPC   GL113861   7.920   0.950   9.352
  745POPC   GL213862   8.079   1.286   9.292
  745POPC   C1A13863   8.077   0.969   8.895
  745POPC   D2A13864   7.962   1.043   8.450
  745POPC   C3A13865   8.102   1.126   8.018
  745POPC   C4A13866   8.098   1.407   7.665
  745POPC   C1B13867   8.119   1.480   8.844
  745POPC   C2B13868   8.086   1.528   8.388
  745POPC   C3B13869   8.379   1.570   8.038
  745POPC   C4B13870   8.487   1.755   7.622
  746POPC   NC313871  13.800  17.175   9.470
  746POPC   PO413872  14.021  17.778   9.533
  746POPC   GL113873  13.820  17.582   9.132
  746POPC   GL213874  13.458  17.580   8.997
  746POPC   C1A13875  13.801  17.375   8.689
  746POPC   D2A13876  13.460  17.515   8.438
  746POPC   C3A13877  13.543  17.626   8.005
  746POPC   C4A13878  13.922  17.529   7.742
  746POPC   C1B13879  13.381  17.124   8.804
  746POPC   C2B13880  13.287  16.915   8.410
  746POPC   C3B13881  13.339  17.162   8.080
  746POPC   C4B13882  13.490  17.245   7.671
  747POPC   NC313883  19.790  17.324   9.284
  747POPC   PO413884  20.012  17.921   9.511
  747POPC   GL113885  19.937  17.791   9.076
  747POPC   GL213886  19.595  17.718   9.002
  747POPC   C1A13887  19.976  17.601   8.638
  747POPC   D2A13888  20.080  17.246   8.339
  747POPC   C3A13889  19.886  17.358   7.951
  747POPC   C4A13890  19.742  17.801   7.864
  747POPC   C1B13891  19.518  17.361   8.702
  747POPC   C2B13892  19.480  17.332   8.269
  747POPC   C3B13893  19.399  17.413   7.824
  747POPC   C4B13894  19.305  17.266   7.365
  748POPC   NC313895  13.126  25.588   9.473
  748POPC   PO413896  13.117  24.996   9.295
  748POPC   GL113897  12.922  25.335   9.082
  748POPC   GL213898  12.825  25.084   8.882
  748POPC   C1A13899  12.851  25.536   8.698
  748POPC   D2A13900  12.911  25.282   8.338
  748POPC   C3A13901  13.082  25.536   8.041
  748POPC   C4A13902  12.697  25.679   7.899
  748POPC   C1B13903  12.498  25.141   8.616
  748POPC   C2B13904  12.231  24.905   8.334
  748POPC   C3B13905  12.536  24.828   8.016
  748POPC   C4B13906  12.785  25.170   7.810
  749POPC   NC313907  25.552   1.731   9.406
  749POPC   PO413908  24.988   2.006   9.516
  749POPC   GL113909  25.277   2.086   9.136
  749POPC   GL213910  25.335   1.774   8.937
  749POPC   C1A13911  25.231   2.192   8.687
  749POPC   D2A13912  25.366   1.917   8.359
  749POPC   C3A13913  25.240   1.981   7.915
  749POPC   C4A13914  25.072   1.805   7.533
  749POPC   C1B13915  25.578   1.504   8.646
  749POPC   C2B13916  25.661   1.531   8.181
  749POPC   C3B13917  25.404   1.521   7.826
  749POPC   C4B13918  25.463   1.459   7.401
  750POPC   NC313919  16.906  41.885   9.647
  750POPC   PO413920  16.833  41.224   9.747
  750POPC   GL113921  16.946  41.425   9.351
  750POPC   GL213922  17.071  41.687   9.210
  750POPC   C1A13923  16.667  41.556   8.960
  750POPC   D2A13924  16.729  41.528   8.490
  750POPC   C3A13925  16.572  41.618   8.045
  750POPC   C4A13926  16.590  41.513   7.578
  750POPC   C1B13927  17.139  41.738   8.798
  750POPC   C2B13928  17.029  41.928   8.408
  750POPC   C3B13929  17.100  41.700   8.087
  750POPC   C4B13930  16.944  41.823   7.737
  751POPC   NC313931  23.425   8.992   9.681
  751POPC   PO413932  24.032   9.125   9.772
  751POPC   GL113933  23.754   9.101   9.305
  751POPC   GL213934  23.362   9.150   9.208
  751POPC   C1A13935  23.676   9.021   8.814
  751POPC   D2A13936  23.860   9.013   8.357
  751POPC   C3A13937  23.797   8.735   7.955
  751POPC   C4A13938  23.749   8.697   7.506
  751POPC   C1B13939  23.202   9.259   8.812
  751POPC   C2B13940  23.396   9.265   8.427
  751POPC   C3B13941  23.494   9.152   8.019
  751POPC   C4B13942  23.360   8.996   7.651
  752POPC   NC313943   1.162   2.416   9.900
  752POPC   PO413944   1.527   2.828   9.570
  752POPC   GL113945   1.218   2.981   9.344
  752POPC   GL213946   1.140   2.650   9.229
  752POPC   C1A13947   1.173   3.081   8.933
  752POPC   D2A13948   1.123   3.131   8.481
  752POPC   C3A13949   1.334   2.876   8.190
  752POPC   C4A13950   1.337   2.892   7.762
  752POPC   C1B13951   1.238   2.543   8.809
  752POPC   C2B13952   1.280   2.361   8.396
  752POPC   C3B13953   1.169   2.432   7.972
  752POPC   C4B13954   1.330   2.422   7.557
  753POPC   NC313955   4.630  17.461   9.496
  753POPC   PO413956   4.080  17.760   9.645
  753POPC   GL113957   4.200  17.616   9.185
  753POPC   GL213958   3.868  17.545   9.020
  753POPC   C1A13959   4.533  17.495   8.830
  753POPC   D2A13960   4.730  17.415   8.405
  753POPC   C3A13961   4.539  17.418   7.981
  753POPC   C4A13962   4.636  17.680   7.633
  753POPC   C1B13963   4.090  17.226   8.785
  753POPC   C2B13964   4.204  17.235   8.351
  753POPC   C3B13965   4.014  17.340   7.944
  753POPC   C4B13966   4.185  17.480   7.545
  754POPC   NC313967  17.484  33.299   9.368
  754POPC   PO413968  17.411  32.605   9.433
  754POPC   GL113969  17.373  32.820   9.101
  754POPC   GL213970  17.687  32.845   9.070
  754POPC   C1A13971  17.387  33.085   8.725
  754POPC   D2A13972  17.166  33.336   8.425
  754POPC   C3A13973  17.321  33.302   8.024
  754POPC   C4A13974  17.520  32.977   7.777
  754POPC   C1B13975  17.898  32.970   8.706
  754POPC   C2B13976  17.753  33.045   8.292
  754POPC   C3B13977  18.013  33.083   7.933
  754POPC   C4B13978  18.073  33.048   7.485
  755POPC   NC313979  24.960  34.911   9.591
  755POPC   PO413980  25.284  35.561   9.530
  755POPC   GL113981  25.128  35.292   9.208
  755POPC   GL213982  24.901  35.581   9.152
  755POPC   C1A13983  25.296  35.050   8.825
  755POPC   D2A13984  25.535  34.912   8.438
  755POPC   C3A13985  25.552  35.210   8.075
  755POPC   C4A13986  25.359  35.430   7.716
  755POPC   C1B13987  24.889  35.381   8.755
  755POPC   C2B13988  24.897  35.196   8.348
  755POPC   C3B13989  24.949  35.394   7.990
  755POPC   C4B13990  25.067  35.826   7.945
  756POPC   NC313991   4.910  15.119   9.613
  756POPC   PO413992   5.484  14.849   9.477
  756POPC   GL113993   5.218  15.113   9.202
  756POPC   GL213994   4.876  15.308   9.144
  756POPC   C1A13995   5.196  15.113   8.783
  756POPC   D2A13996   5.128  14.875   8.411
  756POPC   C3A13997   5.018  15.007   7.992
  756POPC   C4A13998   5.274  15.206   7.690
  756POPC   C1B13999   4.742  15.300   8.722
  756POPC   C2B14000   4.993  15.380   8.339
  756POPC   C3B14001   4.865  15.509   7.902
  756POPC   C4B14002   4.631  15.628   7.510
  757POPC   NC314003  13.948  40.012   9.543
  757POPC   PO414004  14.500  40.295   9.459
  757POPC   GL114005  14.411  40.400   9.048
  757POPC   GL214006  14.081  40.308   9.104
  757POPC   C1A14007  14.538  40.234   8.636
  757POPC   D2A14008  14.389  40.051   8.255
  757POPC   C3A14009  14.582  40.009   7.815
  757POPC   C4A14010  14.830  39.856   7.457
  757POPC   C1B14011  14.029  40.295   8.657
  757POPC   C2B14012  13.981  40.342   8.216
  757POPC   C3B14013  14.081  40.072   7.850
  757POPC   C4B14014  13.899  40.009   7.455
  758POPC   NC314015  43.782  30.217   9.409
  758POPC   PO414016  43.945  30.824   9.640
  758POPC   GL114017  43.691  30.871   9.221
  758POPC   GL214018  43.583  30.566   9.080
  758POPC   C1A14019  43.429  31.005   8.850
  758POPC   D2A14020  43.355  30.908   8.436
  758POPC   C3A14021  43.719  30.825   8.200
  758POPC   C4A14022  43.992  30.991   7.917
  758POPC   C1B14023  43.965  30.573   8.817
  758POPC   C2B14024  44.121  30.568   8.388
  758POPC   C3B14025  44.006  30.433   7.959
  758POPC   C4B14026  44.084  30.252   7.517
  759POPC   NC314027   2.096   3.887   9.392
  759POPC   PO414028   1.935   4.585   9.445
  759POPC   GL114029   2.043   4.337   9.098
  759POPC   GL214030   1.677   4.249   9.124
  759POPC   C1A14031   2.228   4.442   8.670
  759POPC   D2A14032   2.354   4.564   8.241
  759POPC   C3A14033   2.149   4.467   7.825
  759POPC   C4A14034   2.372   4.455   7.451
  759POPC   C1B14035   1.765   4.235   8.681
  759POPC   C2B14036   1.860   4.434   8.277
  759POPC   C3B14037   1.752   4.160   7.956
  759POPC   C4B14038   1.501   4.067   7.594
  760POPC   NC314039  37.446  39.570   9.147
  760POPC   PO414040  37.941  39.419   9.594
  760POPC   GL114041  37.908  39.360   9.145
  760POPC   GL214042  37.971  39.714   9.140
  760POPC   C1A14043  37.732  39.078   8.776
  760POPC   D2A14044  37.508  38.980   8.392
  760POPC   C3A14045  37.712  38.982   8.017
  760POPC   C4A14046  37.819  39.201   7.649
  760POPC   C1B14047  37.928  39.550   8.689
  760POPC   C2B14048  37.833  39.436   8.265
  760POPC   C3B14049  38.013  39.617   7.898
  760POPC   C4B14050  37.869  39.704   7.471
  761POPC   NC314051   4.766  32.425   9.543
  761POPC   PO414052   5.430  32.418   9.699
  761POPC   GL114053   5.278  32.271   9.298
  761POPC   GL214054   5.021  32.056   9.253
  761POPC   C1A14055   5.254  32.266   8.840
  761POPC   D2A14056   5.185  32.488   8.469
  761POPC   C3A14057   5.054  32.300   8.098
  761POPC   C4A14058   5.212  32.305   7.696
  761POPC   C1B14059   4.769  32.139   8.884
  761POPC   C2B14060   4.716  32.035   8.459
  761POPC   C3B14061   4.727  31.845   8.058
  761POPC   C4B14062   4.786  32.023   7.658
  762POPC   NC314063   7.401  15.369   9.509
  762POPC   PO414064   7.365  14.787   9.375
  762POPC   GL114065   7.377  15.079   9.074
  762POPC   GL214066   7.152  15.339   9.058
  762POPC   C1A14067   7.446  15.293   8.659
  762POPC   D2A14068   7.257  15.279   8.251
  762POPC   C3A14069   7.488  15.305   7.883
  762POPC   C4A14070   7.794  14.992   7.732
  762POPC   C1B14071   7.031  15.008   8.698
  762POPC   C2B14072   6.979  14.848   8.268
  762POPC   C3B14073   7.059  14.981   7.824
  762POPC   C4B14074   7.096  14.872   7.327
  763POPC   NC314075   5.787  28.840   9.730
  763POPC   PO414076   6.072  29.393   9.523
  763POPC   GL114077   5.844  29.106   9.232
  763POPC   GL214078   5.784  28.736   9.243
  763POPC   C1A14079   5.787  29.185   8.807
  763POPC   D2A14080   5.877  29.318   8.379
  763POPC   C3A14081   5.654  29.295   7.985
  763POPC   C4A14082   5.828  29.211   7.569
  763POPC   C1B14083   5.890  28.691   8.808
  763POPC   C2B14084   5.775  28.825   8.382
  763POPC   C3B14085   5.840  28.822   7.926
  763POPC   C4B14086   5.600  28.694   7.552
  764POPC   NC314087  10.676  12.890   9.908
  764POPC   PO414088  10.219  12.585   9.391
  764POPC   GL114089  10.418  12.856   9.099
  764POPC   GL214090  10.182  13.109   9.060
  764POPC   C1A14091  10.569  12.934   8.642
  764POPC   D2A14092  10.606  13.174   8.222
  764POPC   C3A14093  10.782  12.961   7.837
  764POPC   C4A14094  10.695  12.735   7.466
  764POPC   C1B14095  10.051  12.893   8.693
  764POPC   C2B14096  10.174  12.883   8.274
  764POPC   C3B14097  10.266  13.038   7.864
  764POPC   C4B14098  10.317  13.087   7.409
  765POPC   NC314099  22.646  32.376   9.759
  765POPC   PO414100  23.128  32.013   9.543
  765POPC   GL114101  22.949  32.367   9.260
  765POPC   GL214102  22.588  32.387   9.264
  765POPC   C1A14103  22.932  32.463   8.785
  765POPC   D2A14104  23.038  32.615   8.335
  765POPC   C3A14105  23.028  32.332   7.960
  765POPC   C4A14106  23.083  31.892   7.968
  765POPC   C1B14107  22.566  32.088   8.913
  765POPC   C2B14108  22.738  32.046   8.491
  765POPC   C3B14109  22.575  32.160   8.098
  765POPC   C4B14110  22.670  32.007   7.695
  766POPC   NC314111  41.984   3.500   9.654
  766POPC   PO414112  42.557   3.287   9.447
  766POPC   GL114113  42.310   3.525   9.130
  766POPC   GL214114  41.945   3.589   9.140
  766POPC   C1A14115  42.226   3.396   8.704
  766POPC   D2A14116  42.413   3.095   8.392
  766POPC   C3A14117  42.409   3.198   7.942
  766POPC   C4A14118  42.576   3.560   7.773
  766POPC   C1B14119  41.948   3.840   8.755
  766POPC   C2B14120  42.089   3.837   8.327
  766POPC   C3B14121  42.067   3.820   7.858
  766POPC   C4B14122  41.985   3.931   7.396
  767POPC   NC314123  20.341   4.216   9.442
  767POPC   PO414124  20.945   4.207   9.599
  767POPC   GL114125  20.802   4.055   9.202
  767POPC   GL214126  20.717   4.361   9.122
  767POPC   C1A14127  20.541   4.067   8.772
  767POPC   D2A14128  20.502   4.298   8.403
  767POPC   C3A14129  20.541   4.111   8.033
  767POPC   C4A14130  20.535   3.962   7.652
  767POPC   C1B14131  20.869   4.491   8.716
  767POPC   C2B14132  20.703   4.767   8.359
  767POPC   C3B14133  20.466   4.649   8.007
  767POPC   C4B14134  20.696   4.500   7.710
  768POPC   NC314135   3.325   2.936   9.539
  768POPC   PO414136   3.606   2.410   9.628
  768POPC   GL114137   3.615   2.593   9.210
  768POPC   GL214138   3.646   2.248   9.072
  768POPC   C1A14139   3.669   2.942   8.881
  768POPC   D2A14140   3.562   2.991   8.425
  768POPC   C3A14141   3.785   2.970   8.030
  768POPC   C4A14142   3.497   2.677   7.807
  768POPC   C1B14143   3.620   2.475   8.701
  768POPC   C2B14144   3.737   2.525   8.287
  768POPC   C3B14145   3.739   2.257   7.952
  768POPC   C4B14146   3.839   2.198   7.535
  769POPC   NC314147  35.368   8.997   9.576
  769POPC   PO414148  34.761   8.951   9.588
  769POPC   GL114149  35.062   8.942   9.174
  769POPC   GL214150  35.392   9.188   9.100
  769POPC   C1A14151  35.292   8.811   8.777
  769POPC   D2A14152  35.399   8.650   8.366
  769POPC   C3A14153  35.181   8.809   8.020
  769POPC   C4A14154  35.394   8.890   7.658
  769POPC   C1B14155  35.154   9.309   8.746
  769POPC   C2B14156  35.323   9.183   8.354
  769POPC   C3B14157  35.261   9.330   7.947
  769POPC   C4B14158  35.445   9.686   7.783
  770POPC   NC314159  42.048  31.145   9.527
  770POPC   PO414160  42.520  31.582   9.513
  770POPC   GL114161  42.291  31.455   9.205
  770POPC   GL214162  41.980  31.614   9.275
  770POPC   C1A14163  42.229  31.246   8.846
  770POPC   D2A14164  42.210  31.372   8.432
  770POPC   C3A14165  42.593  31.330   8.175
  770POPC   C4A14166  42.522  31.367   7.749
  770POPC   C1B14167  42.062  31.747   8.818
  770POPC   C2B14168  42.057  31.895   8.370
  770POPC   C3B14169  42.246  31.699   8.035
  770POPC   C4B14170  42.418  31.845   7.668
  771POPC   NC314171  29.638  14.383   9.722
  771POPC   PO414172  30.358  14.455   9.753
  771POPC   GL114173  30.022  14.513   9.343
  771POPC   GL214174  29.925  14.218   9.139
  771POPC   C1A14175  30.007  14.571   8.820
  771POPC   D2A14176  29.794  14.535   8.401
  771POPC   C3A14177  30.067  14.562   8.023
  771POPC   C4A14178  30.250  14.540   7.603
  771POPC   C1B14179  29.810  14.102   8.719
  771POPC   C2B14180  29.637  14.002   8.319
  771POPC   C3B14181  29.826  14.128   7.940
  771POPC   C4B14182  29.622  14.458   7.698
  772POPC   NC314183  22.998  32.865   9.492
  772POPC   PO414184  23.229  33.482   9.415
  772POPC   GL114185  23.044  33.175   9.098
  772POPC   GL214186  22.747  32.868   9.075
  772POPC   C1A14187  23.065  32.980   8.706
  772POPC   D2A14188  22.715  33.033   8.447
  772POPC   C3A14189  22.926  33.079   8.096
  772POPC   C4A14190  22.929  33.020   7.688
  772POPC   C1B14191  22.436  32.609   8.850
  772POPC   C2B14192  22.527  32.531   8.447
  772POPC   C3B14193  22.605  32.687   8.061
  772POPC   C4B14194  22.564  32.506   7.716
  773POPC   NC314195  22.005   0.547   9.628
  773POPC   PO414196  22.650   0.245   9.623
  773POPC   GL114197  22.371   0.425   9.291
  773POPC   GL214198  22.097   0.203   9.242
  773POPC   C1A14199  22.286   0.703   8.929
  773POPC   D2A14200  22.335   0.578   8.484
  773POPC   C3A14201  22.163   0.786   8.117
  773POPC   C4A14202  22.327   0.641   7.725
  773POPC   C1B14203  22.101   0.215   8.804
  773POPC   C2B14204  22.060   0.007   8.410
  773POPC   C3B14205  22.084   0.130   7.962
  773POPC   C4B14206  21.911   0.178   7.546
  774POPC   NC314207  10.131  41.878   9.595
  774POPC   PO414208  10.474  42.470   9.591
  774POPC   GL114209  10.304  42.207   9.243
  774POPC   GL214210  10.588  42.049   9.130
  774POPC   C1A14211  10.220  42.294   8.788
  774POPC   D2A14212  10.446  42.396   8.395
  774POPC   C3A14213  10.514  42.552   7.965
  774POPC   C4A14214  10.660  42.457   7.571
  774POPC   C1B14215  10.721  42.196   8.767
  774POPC   C2B14216  10.938  42.115   8.373
  774POPC   C3B14217  10.757  42.114   7.955
  774POPC   C4B14218  11.006  42.091   7.594
  775POPC   NC314219  17.873  33.516   9.836
  775POPC   PO414220  17.464  33.773   9.365
  775POPC   GL114221  17.832  33.871   9.193
  775POPC   GL214222  17.978  33.553   9.305
  775POPC   C1A14223  17.728  33.925   8.766
  775POPC   D2A14224  17.316  33.981   8.581
  775POPC   C3A14225  17.314  33.810   8.183
  775POPC   C4A14226  17.611  33.932   7.871
  775POPC   C1B14227  17.832  33.437   8.876
  775POPC   C2B14228  17.633  33.508   8.500
  775POPC   C3B14229  17.778  33.527   8.116
  775POPC   C4B14230  17.708  33.439   7.712
  776POPC   NC314231  20.262   5.519   9.486
  776POPC   PO414232  20.883   5.759   9.393
  776POPC   GL114233  20.541   5.830   9.162
  776POPC   GL214234  20.361   6.134   9.264
  776POPC   C1A14235  20.664   5.732   8.744
  776POPC   D2A14236  20.884   5.946   8.436
  776POPC   C3A14237  20.740   5.782   8.093
  776POPC   C4A14238  20.620   5.833   7.705
  776POPC   C1B14239  20.480   6.196   8.813
  776POPC   C2B14240  20.357   6.025   8.409
  776POPC   C3B14241  20.329   6.142   7.982
  776POPC   C4B14242  20.333   6.327   7.553
  777POPC   NC314243  30.386  26.211   9.572
  777POPC   PO414244  29.871  25.795   9.393
  777POPC   GL114245  29.993  25.989   9.062
  777POPC   GL214246  30.338  26.015   9.097
  777POPC   C1A14247  29.850  26.241   8.718
  777POPC   D2A14248  29.540  26.315   8.434
  777POPC   C3A14249  29.664  26.103   8.104
  777POPC   C4A14250  29.595  26.204   7.701
  777POPC   C1B14251  30.267  25.916   8.656
  777POPC   C2B14252  30.202  26.105   8.298
  777POPC   C3B14253  30.135  26.008   7.916
  777POPC   C4B14254  29.855  25.745   7.734
  778POPC   NC314255  28.356  22.047   9.614
  778POPC   PO414256  28.644  22.622   9.351
  778POPC   GL114257  28.540  22.234   9.163
  778POPC   GL214258  28.223  22.083   9.116
  778POPC   C1A14259  28.590  22.162   8.717
  778POPC   D2A14260  28.360  22.217   8.328
  778POPC   C3A14261  28.545  22.257   7.929
  778POPC   C4A14262  28.555  22.025   7.496
  778POPC   C1B14263  28.280  21.769   8.780
  778POPC   C2B14264  28.432  21.693   8.345
  778POPC   C3B14265  28.302  21.826   7.936
  778POPC   C4B14266  28.046  21.902   7.588
  779POPC   NC314267  16.226   2.622   9.402
  779POPC   PO414268  15.919   3.181   9.407
  779POPC   GL114269  16.186   3.036   9.041
  779POPC   GL214270  15.957   2.777   9.002
  779POPC   C1A14271  16.299   2.821   8.635
  779POPC   D2A14272  15.980   2.767   8.349
  779POPC   C3A14273  15.936   2.967   7.958
  779POPC   C4A14274  15.770   2.905   7.553
  779POPC   C1B14275  16.007   2.383   8.801
  779POPC   C2B14276  15.967   2.268   8.382
  779POPC   C3B14277  15.822   2.429   7.969
  779POPC   C4B14278  15.413   2.545   7.768
  780POPC   NC314279  40.422  34.412   9.432
  780POPC   PO414280  41.053  34.596   9.489
  780POPC   GL114281  40.967  34.807   9.121
  780POPC   GL214282  40.624  34.799   9.091
  780POPC   C1A14283  41.045  35.002   8.731
  780POPC   D2A14284  41.217  34.836   8.346
  780POPC   C3A14285  40.916  34.617   8.064
  780POPC   C4A14286  40.848  34.861   7.686
  780POPC   C1B14287  40.717  34.596   8.722
  780POPC   C2B14288  40.661  34.874   8.401
  780POPC   C3B14289  40.434  34.799   8.012
  780POPC   C4B14290  40.442  34.532   7.659
  781POPC   NC314291  36.284  44.147   9.534
  781POPC   PO414292  36.734  43.684   9.469
  781POPC   GL114293  36.438  43.847   9.095
  781POPC   GL214294  36.188  44.129   9.044
  781POPC   C1A14295  36.211  43.768   8.683
  781POPC   D2A14296  35.847  43.560   8.444
  781POPC   C3A14297  35.852  43.670   7.990
  781POPC   C4A14298  36.223  43.550   7.803
  781POPC   C1B14299  36.182  44.282   8.628
  781POPC   C2B14300  36.114  44.042   8.241
  781POPC   C3B14301  36.309  44.073   7.839
  781POPC   C4B14302  36.439  44.310   7.456
  782POPC   NC314303   5.156  30.860   9.534
  782POPC   PO414304   5.119  30.102   9.684
  782POPC   GL114305   5.184  30.428   9.238
  782POPC   GL214306   5.171  30.805   9.027
  782POPC   C1A14307   5.020  30.408   8.790
  782POPC   D2A14308   5.118  30.265   8.396
  782POPC   C3A14309   4.993  30.580   8.047
  782POPC   C4A14310   4.886  30.944   7.810
  782POPC   C1B14311   5.441  30.963   8.667
  782POPC   C2B14312   5.385  31.225   8.313
  782POPC   C3B14313   5.359  31.037   7.911
  782POPC   C4B14314   5.207  31.186   7.466
  783POPC   NC314315  43.619  20.389   9.551
  783POPC   PO414316  43.901  21.023   9.583
  783POPC   GL114317  43.932  20.758   9.201
  783POPC   GL214318  43.955  20.386   9.168
  783POPC   C1A14319  44.063  20.726   8.764
  783POPC   D2A14320  43.916  20.965   8.422
  783POPC   C3A14321  43.719  20.887   8.032
  783POPC   C4A14322  43.809  20.685   7.671
  783POPC   C1B14323  43.832  20.266   8.740
  783POPC   C2B14324  43.833  20.455   8.297
  783POPC   C3B14325  43.814  20.214   7.902
  783POPC   C4B14326  43.556  20.155   7.526
  784POPC   NC314327  18.815  32.208   9.576
  784POPC   PO414328  19.297  32.570   9.383
  784POPC   GL114329  18.907  32.427   9.109
  784POPC   GL214330  18.689  32.082   9.106
  784POPC   C1A14331  18.908  32.403   8.657
  784POPC   D2A14332  18.952  32.570   8.233
  784POPC   C3A14333  19.323  32.460   7.964
  784POPC   C4A14334  19.287  32.230   7.560
  784POPC   C1B14335  18.654  31.973   8.652
  784POPC   C2B14336  18.932  31.974   8.309
  784POPC   C3B14337  18.948  32.109   7.911
  784POPC   C4B14338  18.856  31.917   7.529
  785POPC   NC314339  17.619  43.483   9.545
  785POPC   PO414340  17.760  44.236   9.475
  785POPC   GL114341  17.463  44.086   9.129
  785POPC   GL214342  17.406  43.730   9.147
  785POPC   C1A14343  17.241  43.967   8.708
  785POPC   D2A14344  17.256  44.136   8.267
  785POPC   C3A14345  17.339  43.896   7.876
  785POPC   C4A14346  17.409  44.057   7.427
  785POPC   C1B14347  17.690  43.737   8.772
  785POPC   C2B14348  17.597  43.764   8.352
  785POPC   C3B14349  17.780  44.059   8.059
  785POPC   C4B14350  17.801  43.829   7.658
  786POPC   NC314351  43.349  30.783   9.889
  786POPC   PO414352  43.307  30.256   9.475
  786POPC   GL114353  43.104  30.403   9.145
  786POPC   GL214354  43.105  30.767   9.195
  786POPC   C1A14355  43.140  30.296   8.737
  786POPC   D2A14356  43.111  30.458   8.339
  786POPC   C3A14357  43.013  30.300   7.923
  786POPC   C4A14358  43.284  30.347   7.540
  786POPC   C1B14359  42.942  30.786   8.749
  786POPC   C2B14360  42.863  30.878   8.287
  786POPC   C3B14361  43.173  30.804   7.965
  786POPC   C4B14362  43.493  31.141   7.882
  787POPC   NC314363  14.538  25.509   9.595
  787POPC   PO414364  14.080  25.255   9.371
  787POPC   GL114365  14.294  25.375   9.042
  787POPC   GL214366  14.458  25.688   9.058
  787POPC   C1A14367  14.181  25.477   8.624
  787POPC   D2A14368  14.134  25.705   8.292
  787POPC   C3A14369  14.368  25.539   7.945
  787POPC   C4A14370  14.353  25.127   7.767
  787POPC   C1B14371  14.680  25.511   8.668
  787POPC   C2B14372  14.767  25.367   8.225
  787POPC   C3B14373  14.867  25.190   7.797
  787POPC   C4B14374  14.955  25.166   7.322
  788POPC   NC314375  23.114  30.666   9.519
  788POPC   PO414376  22.473  30.574   9.436
  788POPC   GL114377  22.786  30.538   9.090
  788POPC   GL214378  23.124  30.718   9.033
  788POPC   C1A14379  22.776  30.710   8.685
  788POPC   D2A14380  22.588  30.933   8.403
  788POPC   C3A14381  22.730  30.912   8.015
  788POPC   C4A14382  22.809  30.573   7.718
  788POPC   C1B14383  23.293  30.578   8.659
  788POPC   C2B14384  23.111  30.647   8.266
  788POPC   C3B14385  23.232  30.922   7.947
  788POPC   C4B14386  23.017  31.062   7.627
  789POPC   NC314387   1.690  20.518   9.486
  789POPC   PO414388   2.330  20.876   9.530
  789POPC   GL114389   2.117  20.731   9.168
  789POPC   GL214390   2.453  20.747   9.031
  789POPC   C1A14391   2.001  20.390   8.865
  789POPC   D2A14392   2.119  20.296   8.437
  789POPC   C3A14393   1.917  20.389   8.029
  789POPC   C4A14394   2.120  20.235   7.682
  789POPC   C1B14395   2.276  20.745   8.635
  789POPC   C2B14396   2.364  20.695   8.190
  789POPC   C3B14397   2.149  20.862   7.843
  789POPC   C4B14398   2.253  20.963   7.402
  790POPC   NC314399  23.367  16.320   9.412
  790POPC   PO414400  22.879  16.811   9.497
  790POPC   GL114401  23.140  16.717   9.162
  790POPC   GL214402  22.822  16.587   9.040
  790POPC   C1A14403  23.223  16.530   8.753
  790POPC   D2A14404  22.920  16.515   8.437
  790POPC   C3A14405  23.062  16.434   8.023
  790POPC   C4A14406  22.800  16.502   7.687
  790POPC   C1B14407  22.880  16.944   8.758
  790POPC   C2B14408  22.545  17.179   8.558
  790POPC   C3B14409  22.551  17.205   8.105
  790POPC   C4B14410  22.911  16.931   7.924
  791POPC   NC314411   2.561  30.374   9.411
  791POPC   PO414412   3.073  30.830   9.562
  791POPC   GL114413   2.919  30.682   9.171
  791POPC   GL214414   2.754  30.966   9.075
  791POPC   C1A14415   2.932  30.634   8.704
  791POPC   D2A14416   2.636  30.741   8.340
  791POPC   C3A14417   2.709  30.481   7.992
  791POPC   C4A14418   3.029  30.345   7.733
  791POPC   C1B14419   2.435  30.729   8.811
  791POPC   C2B14420   2.173  30.896   8.490
  791POPC   C3B14421   2.164  30.791   8.054
  791POPC   C4B14422   2.424  30.848   7.727
  792POPC   NC314423  22.125   4.313   9.656
  792POPC   PO414424  22.099   4.910   9.583
  792POPC   GL114425  22.174   4.649   9.202
  792POPC   GL214426  22.107   4.299   9.143
  792POPC   C1A14427  22.362   4.562   8.780
  792POPC   D2A14428  22.261   4.712   8.345
  792POPC   C3A14429  22.089   4.382   8.105
  792POPC   C4A14430  21.902   4.351   7.705
  792POPC   C1B14431  21.911   4.333   8.704
  792POPC   C2B14432  21.691   4.140   8.340
  792POPC   C3B14433  21.852   3.914   7.977
  792POPC   C4B14434  21.642   3.923   7.591
  793POPC   NC314435   6.883  16.513   9.354
  793POPC   PO414436   6.608  17.133   9.422
  793POPC   GL114437   6.661  16.892   9.058
  793POPC   GL214438   6.405  16.634   9.104
  793POPC   C1A14439   6.546  16.794   8.630
  793POPC   D2A14440   6.805  16.793   8.276
  793POPC   C3A14441   6.688  16.782   7.866
  793POPC   C4A14442   6.355  16.953   7.647
  793POPC   C1B14443   6.302  16.348   8.745
  793POPC   C2B14444   6.513  16.340   8.339
  793POPC   C3B14445   6.316  16.428   7.951
  793POPC   C4B14446   6.391  16.479   7.512
  794POPC   NC314447  37.458  44.619   9.498
  794POPC   PO414448  38.067  44.909   9.536
  794POPC   GL114449  37.792  44.882   9.189
  794POPC   GL214450  37.623   0.201   9.142
  794POPC   C1A14451  37.821  44.579   8.824
  794POPC   D2A14452  37.653  44.440   8.435
  794POPC   C3A14453  37.809  44.519   8.052
  794POPC   C4A14454  37.574  44.523   7.702
  794POPC   C1B14455  37.656   0.050   8.726
  794POPC   C2B14456  37.515   0.213   8.348
  794POPC   C3B14457  37.481  44.953   7.991
  794POPC   C4B14458  37.206  44.873   7.656
  795POPC   NC314459  10.805   8.372   9.467
  795POPC   PO414460  10.189   8.148   9.494
  795POPC   GL114461  10.497   8.060   9.202
  795POPC   GL214462  10.319   7.903   8.995
  795POPC   C1A14463  10.637   8.230   8.799
  795POPC   D2A14464  10.558   8.546   8.505
  795POPC   C3A14465  10.783   8.404   8.144
  795POPC   C4A14466  10.790   8.192   7.739
  795POPC   C1B14467  10.320   7.902   8.557
  795POPC   C2B14468  10.073   7.895   8.218
  795POPC   C3B14469  10.332   8.158   8.034
  795POPC   C4B14470  10.276   8.282   7.697
  796POPC   NC314471  21.159  10.094   9.460
  796POPC   PO414472  20.680   9.499   9.481
  796POPC   GL114473  20.656   9.557   9.087
  796POPC   GL214474  20.623   9.922   9.164
  796POPC   C1A14475  20.908   9.366   8.761
  796POPC   D2A14476  21.056   9.535   8.360
  796POPC   C3A14477  20.853   9.486   7.948
  796POPC   C4A14478  20.706   9.843   7.661
  796POPC   C1B14479  20.306   9.887   8.801
  796POPC   C2B14480  20.149   9.880   8.369
  796POPC   C3B14481  20.408   9.706   8.041
  796POPC   C4B14482  20.362   9.473   7.587
  797POPC   NC314483  36.007   7.425   9.589
  797POPC   PO414484  35.795   7.954   9.366
  797POPC   GL114485  35.982   7.617   9.124
  797POPC   GL214486  36.256   7.394   9.144
  797POPC   C1A14487  35.887   7.521   8.735
  797POPC   D2A14488  35.707   7.626   8.347
  797POPC   C3A14489  35.948   7.421   8.009
  797POPC   C4A14490  36.132   7.445   7.558
  797POPC   C1B14491  36.230   7.141   8.756
  797POPC   C2B14492  36.296   7.007   8.304
  797POPC   C3B14493  36.313   7.072   7.823
  797POPC   C4B14494  36.517   7.195   7.332
  798POPC   NC314495  16.080   4.293   9.591
  798POPC   PO414496  15.457   4.062   9.507
  798POPC   GL114497  15.739   4.202   9.152
  798POPC   GL214498  16.081   4.320   9.092
  798POPC   C1A14499  15.902   4.029   8.716
  798POPC   D2A14500  15.801   4.064   8.259
  798POPC   C3A14501  16.127   4.027   7.931
  798POPC   C4A14502  16.096   3.869   7.508
  798POPC   C1B14503  15.815   4.541   8.782
  798POPC   C2B14504  16.057   4.487   8.455
  798POPC   C3B14505  16.000   4.525   8.062
  798POPC   C4B14506  15.874   4.440   7.677
  799POPC   NC314507  41.454  35.731   9.367
  799POPC   PO414508  41.620  35.148   9.579
  799POPC   GL114509  41.430  35.025   9.176
  799POPC   GL214510  41.483  35.339   9.051
  799POPC   C1A14511  41.569  34.968   8.733
  799POPC   D2A14512  41.790  35.246   8.440
  799POPC   C3A14513  41.597  35.153   8.060
  799POPC   C4A14514  41.472  34.872   7.746
  799POPC   C1B14515  41.612  35.643   8.748
  799POPC   C2B14516  41.426  35.769   8.365
  799POPC   C3B14517  41.513  35.648   7.958
  799POPC   C4B14518  41.417  35.608   7.517
  800POPC   NC314519  30.135   6.532   9.496
  800POPC   PO414520  29.415   6.483   9.378
  800POPC   GL114521  29.806   6.474   9.091
  800POPC   GL214522  30.027   6.777   9.061
  800POPC   C1A14523  29.786   6.563   8.647
  800POPC   D2A14524  29.886   6.331   8.272
  800POPC   C3A14525  29.671   6.584   7.977
  800POPC   C4A14526  29.821   6.941   7.744
  800POPC   C1B14527  30.152   6.981   8.684
  800POPC   C2B14528  30.066   6.816   8.279
  800POPC   C3B14529  30.190   6.634   7.918
  800POPC   C4B14530  30.313   6.838   7.552
  801POPC   NC314531  23.928  30.040   9.549
  801POPC   PO414532  23.468  30.458   9.324
  801POPC   GL114533  23.630  30.109   9.084
  801POPC   GL214534  23.468  29.784   9.096
  801POPC   C1A14535  23.640  30.011   8.609
  801POPC   D2A14536  23.706  29.932   8.163
  801POPC   C3A14537  23.862  30.159   7.795
  801POPC   C4A14538  23.571  30.120   7.446
  801POPC   C1B14539  23.877  29.677   8.903
  801POPC   C2B14540  24.021  29.565   8.476
  801POPC   C3B14541  23.848  29.457   8.074
  801POPC   C4B14542  23.874  29.673   7.707
  802POPC   NC314543   3.241   1.130   9.437
  802POPC   PO414544   3.870   0.846   9.190
  802POPC   GL114545   3.633   1.237   9.073
  802POPC   GL214546   3.268   1.156   8.949
  802POPC   C1A14547   3.513   1.484   8.691
  802POPC   D2A14548   3.314   1.215   8.378
  802POPC   C3A14549   3.397   1.370   7.960
  802POPC   C4A14550   3.817   1.419   7.729
  802POPC   C1B14551   3.274   0.793   8.694
  802POPC   C2B14552   3.044   0.735   8.291
  802POPC   C3B14553   3.137   0.928   7.870
  802POPC   C4B14554   3.083   0.839   7.406
  803POPC   NC314555   1.428  35.618   9.455
  803POPC   PO414556   0.795  35.256   9.398
  803POPC   GL114557   1.011  35.528   9.150
  803POPC   GL214558   1.244  35.285   9.125
  803POPC   C1A14559   1.121  35.666   8.762
  803POPC   D2A14560   0.916  35.476   8.399
  803POPC   C3A14561   1.125  35.542   8.028
  803POPC   C4A14562   1.379  35.469   7.630
  803POPC   C1B14563   1.094  35.135   8.758
  803POPC   C2B14564   1.198  34.996   8.365
  803POPC   C3B14565   1.102  35.043   7.948
  803POPC   C4B14566   1.350  34.914   7.649
  804POPC   NC314567  21.119  13.011   9.654
  804POPC   PO414568  21.504  12.552   9.356
  804POPC   GL114569  21.350  12.856   9.068
  804POPC   GL214570  21.028  12.987   9.133
  804POPC   C1A14571  21.270  12.847   8.626
  804POPC   D2A14572  21.364  12.560   8.305
  804POPC   C3A14573  21.330  12.743   7.917
  804POPC   C4A14574  21.466  12.606   7.525
  804POPC   C1B14575  21.014  13.251   8.770
  804POPC   C2B14576  21.183  13.324   8.340
  804POPC   C3B14577  21.197  13.243   7.890
  804POPC   C4B14578  21.228  13.047   7.472
  805POPC   NC314579   8.635  14.502   9.544
  805POPC   PO414580   9.300  14.548   9.476
  805POPC   GL114581   8.979  14.383   9.160
  805POPC   GL214582   8.779  14.068   9.309
  805POPC   C1A14583   9.041  14.576   8.713
  805POPC   D2A14584   9.353  14.668   8.343
  805POPC   C3A14585   9.166  14.820   7.941
  805POPC   C4A14586   8.876  14.532   7.712
  805POPC   C1B14587   8.758  14.004   8.886
  805POPC   C2B14588   8.864  14.143   8.502
  805POPC   C3B14589   9.027  14.294   8.131
  805POPC   C4B14590   9.044  14.032   7.733
  806POPC   NC314591   1.563   7.094   9.457
  806POPC   PO414592   1.919   6.437   9.453
  806POPC   GL114593   1.949   6.693   9.119
  806POPC   GL214594   1.610   6.717   9.106
  806POPC   C1A14595   2.162   6.718   8.717
  806POPC   D2A14596   2.337   6.680   8.295
  806POPC   C3A14597   2.039   6.565   7.944
  806POPC   C4A14598   1.757   6.492   7.600
  806POPC   C1B14599   1.720   6.991   8.766
  806POPC   C2B14600   1.952   7.045   8.373
  806POPC   C3B14601   1.841   7.028   7.932
  806POPC   C4B14602   1.843   6.992   7.456
  807POPC   NC314603   5.955  20.066   9.485
  807POPC   PO414604   5.944  19.386   9.312
  807POPC   GL114605   5.753  19.726   9.068
  807POPC   GL214606   5.955  19.989   8.994
  807POPC   C1A14607   5.822  19.674   8.617
  807POPC   D2A14608   6.144  19.637   8.306
  807POPC   C3A14609   6.005  19.888   7.946
  807POPC   C4A14610   6.084  19.775   7.545
  807POPC   C1B14611   5.657  20.136   8.700
  807POPC   C2B14612   5.493  19.998   8.304
  807POPC   C3B14613   5.569  20.163   7.879
  807POPC   C4B14614   5.911  20.262   7.584
  808POPC   NC314615  15.419  31.634   9.399
  808POPC   PO414616  14.848  31.168   9.304
  808POPC   GL114617  15.089  31.458   9.056
  808POPC   GL214618  14.969  31.772   8.969
  808POPC   C1A14619  15.389  31.556   8.708
  808POPC   D2A14620  15.556  31.790   8.337
  808POPC   C3A14621  15.379  31.679   7.939
  808POPC   C4A14622  15.222  31.308   7.761
  808POPC   C1B14623  14.867  31.528   8.600
  808POPC   C2B14624  14.878  31.449   8.146
  808POPC   C3B14625  14.710  31.369   7.737
  808POPC   C4B14626  14.715  31.692   7.379
  809POPC   NC314627  25.144   3.946   9.356
  809POPC   PO414628  25.172   4.441   9.808
  809POPC   GL114629  25.349   4.410   9.338
  809POPC   GL214630  25.037   4.387   9.103
  809POPC   C1A14631  25.460   4.366   8.865
  809POPC   D2A14632  25.258   4.388   8.450
  809POPC   C3A14633  25.402   4.256   8.056
  809POPC   C4A14634  25.415   4.314   7.637
  809POPC   C1B14635  24.924   4.655   8.737
  809POPC   C2B14636  24.775   4.536   8.301
  809POPC   C3B14637  24.980   4.490   7.888
  809POPC   C4B14638  25.046   4.656   7.470
  810POPC   NC314639  26.955  30.626   9.463
  810POPC   PO414640  26.557  31.175   9.383
  810POPC   GL114641  26.720  30.966   9.023
  810POPC   GL214642  27.059  30.904   9.054
  810POPC   C1A14643  26.753  30.634   8.688
  810POPC   D2A14644  26.793  30.684   8.229
  810POPC   C3A14645  26.603  30.528   7.858
  810POPC   C4A14646  26.569  30.787   7.480
  810POPC   C1B14647  27.131  30.957   8.626
  810POPC   C2B14648  27.271  30.612   8.334
  810POPC   C3B14649  27.163  30.587   7.876
  810POPC   C4B14650  27.154  30.478   7.432
  811POPC   NC314651  20.853   1.549   9.466
  811POPC   PO414652  20.976   2.284   9.476
  811POPC   GL114653  20.805   1.982   9.177
  811POPC   GL214654  20.452   1.992   9.067
  811POPC   C1A14655  20.838   1.830   8.756
  811POPC   D2A14656  20.944   1.939   8.355
  811POPC   C3A14657  21.045   1.782   7.974
  811POPC   C4A14658  20.868   2.031   7.665
  811POPC   C1B14659  20.343   1.755   8.692
  811POPC   C2B14660  20.422   1.828   8.258
  811POPC   C3B14661  20.365   1.956   7.841
  811POPC   C4B14662  20.133   1.730   7.497
  812POPC   NC314663  19.803  10.566   9.555
  812POPC   PO414664  20.249  10.162   9.463
  812POPC   GL114665  20.160  10.347   9.090
  812POPC   GL214666  19.993  10.680   9.097
  812POPC   C1A14667  19.955  10.286   8.729
  812POPC   D2A14668  19.931  10.567   8.396
  812POPC   C3A14669  20.125  10.390   8.043
  812POPC   C4A14670  19.899  10.441   7.688
  812POPC   C1B14671  19.591  10.672   8.829
  812POPC   C2B14672  19.412  10.793   8.415
  812POPC   C3B14673  19.626  10.797   8.008
  812POPC   C4B14674  19.549  10.793   7.576
  813POPC   NC314675   5.683   9.190   9.414
  813POPC   PO414676   6.153   8.673   9.299
  813POPC   GL114677   5.899   8.923   9.019
  813POPC   GL214678   5.557   8.880   8.964
  813POPC   C1A14679   5.990   9.279   8.733
  813POPC   D2A14680   5.906   9.247   8.305
  813POPC   C3A14681   6.173   9.345   7.992
  813POPC   C4A14682   6.223   9.002   7.687
  813POPC   C1B14683   5.459   9.189   8.632
  813POPC   C2B14684   5.411   9.338   8.190
  813POPC   C3B14685   5.666   9.219   7.835
  813POPC   C4B14686   5.721   8.790   7.759
  814POPC   NC314687   5.516  40.866   9.379
  814POPC   PO414688   4.841  41.088   9.489
  814POPC   GL114689   4.949  40.907   9.108
  814POPC   GL214690   5.179  40.626   9.063
  814POPC   C1A14691   4.802  40.778   8.714
  814POPC   D2A14692   4.749  41.027   8.355
  814POPC   C3A14693   4.651  40.741   8.041
  814POPC   C4A14694   4.783  40.741   7.623
  814POPC   C1B14695   5.315  40.656   8.623
  814POPC   C2B14696   5.158  40.591   8.210
  814POPC   C3B14697   5.216  40.869   7.856
  814POPC   C4B14698   5.490  41.101   7.585
  815POPC   NC314699   3.329  28.827   9.460
  815POPC   PO414700   3.703  29.455   9.469
  815POPC   GL114701   3.474  29.223   9.130
  815POPC   GL214702   3.235  29.457   8.992
  815POPC   C1A14703   3.619  29.024   8.714
  815POPC   D2A14704   3.911  29.024   8.365
  815POPC   C3A14705   3.811  29.177   7.947
  815POPC   C4A14706   3.916  29.466   7.604
  815POPC   C1B14707   3.593  29.548   8.738
  815POPC   C2B14708   3.630  29.462   8.348
  815POPC   C3B14709   3.554  29.623   7.983
  815POPC   C4B14710   3.409  29.360   7.690
  816POPC   NC314711   2.757  33.570   9.439
  816POPC   PO414712   2.999  34.118   9.619
  816POPC   GL114713   2.873  33.962   9.149
  816POPC   GL214714   2.487  33.828   9.098
  816POPC   C1A14715   2.854  33.637   8.788
  816POPC   D2A14716   2.882  33.431   8.362
  816POPC   C3A14717   2.888  33.722   8.037
  816POPC   C4A14718   3.100  33.693   7.679
  816POPC   C1B14719   2.331  33.608   8.719
  816POPC   C2B14720   2.396  33.574   8.274
  816POPC   C3B14721   2.455  33.543   7.842
  816POPC   C4B14722   2.657  33.491   7.464
  817POPC   NC314723  22.564  41.372   9.455
  817POPC   PO414724  23.031  41.843   9.475
  817POPC   GL114725  22.800  41.713   9.099
  817POPC   GL214726  22.764  41.335   8.984
  817POPC   C1A14727  22.840  41.745   8.655
  817POPC   D2A14728  22.929  41.457   8.325
  817POPC   C3A14729  22.864  41.662   7.922
  817POPC   C4A14730  22.687  41.685   7.508
  817POPC   C1B14731  23.183  41.310   8.776
  817POPC   C2B14732  23.431  41.305   8.403
  817POPC   C3B14733  23.289  41.294   7.985
  817POPC   C4B14734  23.215  41.196   7.566
  818POPC   NC314735  29.274  40.351   9.766
  818POPC   PO414736  28.977  40.924   9.461
  818POPC   GL114737  28.911  40.772   9.069
  818POPC   GL214738  29.233  40.638   9.065
  818POPC   C1A14739  29.010  40.881   8.636
  818POPC   D2A14740  28.930  41.018   8.215
  818POPC   C3A14741  29.183  40.868   7.906
  818POPC   C4A14742  28.883  40.697   7.701
  818POPC   C1B14743  29.182  40.399   8.683
  818POPC   C2B14744  29.243  40.517   8.276
  818POPC   C3B14745  29.228  40.338   7.886
  818POPC   C4B14746  29.403  40.537   7.532
  819POPC   NC314747  39.363   5.140   9.471
  819POPC   PO414748  38.750   5.324   9.576
  819POPC   GL114749  38.978   5.379   9.228
  819POPC   GL214750  38.957   5.017   9.185
  819POPC   C1A14751  39.187   5.334   8.832
  819POPC   D2A14752  39.463   5.157   8.564
  819POPC   C3A14753  39.379   5.068   8.172
  819POPC   C4A14754  39.255   5.109   7.773
  819POPC   C1B14755  38.784   4.780   8.870
  819POPC   C2B14756  39.017   4.891   8.525
  819POPC   C3B14757  38.891   4.956   8.114
  819POPC   C4B14758  38.776   4.735   7.782
  820POPC   NC314759  19.338  12.847   9.521
  820POPC   PO414760  18.749  13.072   9.386
  820POPC   GL114761  19.019  12.981   9.121
  820POPC   GL214762  19.003  12.637   9.128
  820POPC   C1A14763  18.918  12.973   8.723
  820POPC   D2A14764  18.937  12.810   8.349
  820POPC   C3A14765  19.000  13.002   7.964
  820POPC   C4A14766  18.781  12.973   7.576
  820POPC   C1B14767  19.200  12.403   8.814
  820POPC   C2B14768  19.157  12.361   8.400
  820POPC   C3B14769  18.987  12.465   8.001
  820POPC   C4B14770  19.139  12.616   7.645
  821POPC   NC314771   2.429  12.186   9.438
  821POPC   PO414772   1.907  11.897   9.639
  821POPC   GL114773   1.854  11.755   9.229
  821POPC   GL214774   2.167  11.840   9.108
  821POPC   C1A14775   1.694  11.964   8.834
  821POPC   D2A14776   1.662  12.263   8.470
  821POPC   C3A14777   1.850  12.191   8.040
  821POPC   C4A14778   1.836  12.067   7.598
  821POPC   C1B14779   2.335  12.062   8.725
  821POPC   C2B14780   2.302  12.215   8.277
  821POPC   C3B14781   2.314  12.136   7.794
  821POPC   C4B14782   2.193  12.312   7.365
  822POPC   NC314783   3.915  29.907   9.515
  822POPC   PO414784   3.287  30.112   9.534
  822POPC   GL114785   3.573  30.171   9.215
  822POPC   GL214786   3.576  29.835   9.146
  822POPC   C1A14787   3.692  30.203   8.761
  822POPC   D2A14788   3.855  29.930   8.440
  822POPC   C3A14789   3.728  30.118   8.038
  822POPC   C4A14790   3.689  29.960   7.622
  822POPC   C1B14791   3.267  29.944   8.845
  822POPC   C2B14792   3.351  29.915   8.412
  822POPC   C3B14793   3.182  29.969   8.031
  822POPC   C4B14794   3.188  29.843   7.629
  823POPC   NC314795   2.468  29.387   9.538
  823POPC   PO414796   3.033  29.195   9.434
  823POPC   GL114797   2.983  29.019   9.057
  823POPC   GL214798   2.641  28.995   9.133
  823POPC   C1A14799   3.131  29.138   8.608
  823POPC   D2A14800   3.343  29.026   8.194
  823POPC   C3A14801   3.060  29.016   7.807
  823POPC   C4A14802   3.175  28.970   7.345
  823POPC   C1B14803   2.636  29.229   8.719
  823POPC   C2B14804   2.534  29.429   8.308
  823POPC   C3B14805   2.359  29.416   7.882
  823POPC   C4B14806   2.567  29.104   7.614
  824POPC   NC314807  11.197  39.762   9.615
  824POPC   PO414808  11.263  40.348   9.513
  824POPC   GL114809  11.147  40.032   9.160
  824POPC   GL214810  10.933  39.681   9.181
  824POPC   C1A14811  11.320  40.136   8.711
  824POPC   D2A14812  11.610  40.041   8.358
  824POPC   C3A14813  11.403  39.956   7.971
  824POPC   C4A14814  11.091  40.267   7.859
  824POPC   C1B14815  11.056  39.723   8.769
  824POPC   C2B14816  11.066  39.875   8.350
  824POPC   C3B14817  10.759  39.947   8.068
  824POPC   C4B14818  10.857  39.820   7.678
  825POPC   NC314819  34.876  13.091   9.398
  825POPC   PO414820  34.407  12.659   9.563
  825POPC   GL114821  34.441  12.655   9.154
  825POPC   GL214822  34.454  13.018   9.069
  825POPC   C1A14823  34.758  12.620   8.884
  825POPC   D2A14824  34.823  12.629   8.456
  825POPC   C3A14825  34.523  12.684   8.135
  825POPC   C4A14826  34.497  12.795   7.711
  825POPC   C1B14827  34.737  13.114   8.687
  825POPC   C2B14828  34.799  13.115   8.211
  825POPC   C3B14829  34.627  13.281   7.808
  825POPC   C4B14830  34.471  13.192   7.353
  826POPC   NC314831   0.978  25.971   9.496
  826POPC   PO414832   1.623  26.270   9.462
  826POPC   GL114833   1.348  26.304   9.088
  826POPC   GL214834   0.970  26.331   9.113
  826POPC   C1A14835   1.289  26.065   8.718
  826POPC   D2A14836   1.238  25.695   8.457
  826POPC   C3A14837   1.409  25.833   8.066
  826POPC   C4A14838   1.330  25.761   7.640
  826POPC   C1B14839   0.798  26.209   8.702
  826POPC   C2B14840   1.021  26.169   8.276
  826POPC   C3B14841   0.980  26.057   7.839
  826POPC   C4B14842   0.958  26.307   7.455
  827POPC   NC314843  26.109   2.558   9.484
  827POPC   PO414844  26.299   3.217   9.253
  827POPC   GL114845  26.115   2.836   9.042
  827POPC   GL214846  26.198   2.490   9.011
  827POPC   C1A14847  25.938   2.814   8.643
  827POPC   D2A14848  26.135   2.998   8.274
  827POPC   C3A14849  25.946   2.989   7.860
  827POPC   C4A14850  25.914   2.718   7.534
  827POPC   C1B14851  26.109   2.336   8.684
  827POPC   C2B14852  26.171   2.467   8.317
  827POPC   C3B14853  25.925   2.481   7.985
  827POPC   C4B14854  26.036   2.243   7.631
  828POPC   NC314855  29.413  44.668   9.486
  828POPC   PO414856  28.774  44.367   9.670
  828POPC   GL114857  28.937  44.608   9.318
  828POPC   GL214858  28.802  44.949   9.314
  828POPC   C1A14859  28.977  44.437   8.878
  828POPC   D2A14860  28.838  44.445   8.449
  828POPC   C3A14861  29.080  44.417   8.071
  828POPC   C4A14862  28.880  44.575   7.699
  828POPC   C1B14863  29.094  44.922   8.944
  828POPC   C2B14864  29.061   0.081   8.529
  828POPC   C3B14865  29.014  44.915   8.136
  828POPC   C4B14866  29.309  44.822   7.793
  829POPC   NC314867  13.952  32.682   9.534
  829POPC   PO414868  13.340  32.791   9.502
  829POPC   GL114869  13.637  32.954   9.179
  829POPC   GL214870  13.964  33.132   9.237
  829POPC   C1A14871  13.778  32.901   8.747
  829POPC   D2A14872  13.582  32.808   8.340
  829POPC   C3A14873  13.651  33.037   7.956
  829POPC   C4A14874  13.652  33.011   7.512
  829POPC   C1B14875  13.977  33.365   8.814
  829POPC   C2B14876  13.886  33.265   8.366
  829POPC   C3B14877  13.882  33.484   7.951
  829POPC   C4B14878  13.647  33.528   7.537
  830POPC   NC314879  32.793  22.836   9.543
  830POPC   PO414880  33.332  23.205   9.656
  830POPC   GL114881  33.106  23.100   9.244
  830POPC   GL214882  33.120  22.723   9.167
  830POPC   C1A14883  32.813  23.081   8.879
  830POPC   D2A14884  32.930  22.948   8.445
  830POPC   C3A14885  32.765  23.105   8.058
  830POPC   C4A14886  33.026  23.057   7.689
  830POPC   C1B14887  32.914  22.579   8.791
  830POPC   C2B14888  32.761  22.474   8.338
  830POPC   C3B14889  32.878  22.608   7.898
  830POPC   C4B14890  32.940  22.624   7.415
  831POPC   NC314891  32.811   8.375   9.473
  831POPC   PO414892  33.494   8.142   9.466
  831POPC   GL114893  33.187   8.272   9.159
  831POPC   GL214894  32.988   8.001   9.048
  831POPC   C1A14895  33.026   8.374   8.727
  831POPC   D2A14896  33.265   8.364   8.360
  831POPC   C3A14897  33.132   8.461   7.935
  831POPC   C4A14898  32.998   8.369   7.483
  831POPC   C1B14899  32.723   7.966   8.674
  831POPC   C2B14900  32.796   8.169   8.251
  831POPC   C3B14901  32.668   8.107   7.793
  831POPC   C4B14902  32.749   7.935   7.348
  832POPC   NC314903  30.495  35.948   9.389
  832POPC   PO414904  31.154  36.129   9.409
  832POPC   GL114905  30.898  36.075   9.048
  832POPC   GL214906  30.886  36.387   8.909
  832POPC   C1A14907  30.583  36.067   8.673
  832POPC   D2A14908  30.486  35.882   8.272
  832POPC   C3A14909  30.484  36.046   7.862
  832POPC   C4A14910  30.468  36.268   7.459
  832POPC   C1B14911  31.064  36.189   8.543
  832POPC   C2B14912  30.913  36.232   8.147
  832POPC   C3B14913  30.952  36.179   7.734
  832POPC   C4B14914  30.942  35.914   7.395
  833POPC   NC314915  40.812  34.991   9.568
  833POPC   PO414916  40.646  35.577   9.593
  833POPC   GL114917  40.645  35.318   9.215
  833POPC   GL214918  40.978  35.333   9.142
  833POPC   C1A14919  40.587  35.243   8.792
  833POPC   D2A14920  40.642  35.459   8.426
  833POPC   C3A14921  40.667  35.248   8.060
  833POPC   C4A14922  40.631  35.336   7.669
  833POPC   C1B14923  41.114  35.496   8.721
  833POPC   C2B14924  41.136  35.351   8.292
  833POPC   C3B14925  41.136  35.299   7.844
  833POPC   C4B14926  41.083  35.245   7.405
  834POPC   NC314927   7.816  41.815   9.587
  834POPC   PO414928   7.333  41.414   9.263
  834POPC   GL114929   7.545  41.448   8.950
  834POPC   GL214930   7.676  41.768   9.107
  834POPC   C1A14931   7.429  41.239   8.589
  834POPC   D2A14932   7.335  41.467   8.268
  834POPC   C3A14933   7.323  41.301   7.893
  834POPC   C4A14934   7.289  41.559   7.565
  834POPC   C1B14935   7.495  41.943   8.765
  834POPC   C2B14936   7.633  41.889   8.351
  834POPC   C3B14937   7.469  41.871   7.938
  834POPC   C4B14938   7.865  41.930   7.795
  835POPC   NC314939  19.162  34.667   9.652
  835POPC   PO414940  18.871  34.960   9.170
  835POPC   GL114941  19.000  34.531   9.186
  835POPC   GL214942  19.376  34.462   9.227
  835POPC   C1A14943  19.008  34.366   8.804
  835POPC   D2A14944  18.718  34.429   8.496
  835POPC   C3A14945  18.896  34.457   8.100
  835POPC   C4A14946  18.964  34.651   7.714
  835POPC   C1B14947  19.384  34.729   8.877
  835POPC   C2B14948  19.150  34.777   8.489
  835POPC   C3B14949  19.323  34.787   8.084
  835POPC   C4B14950  19.455  34.697   7.623
  836POPC   NC314951  12.088  38.546   9.729
  836POPC   PO414952  12.589  38.464   9.531
  836POPC   GL114953  12.173  38.407   9.236
  836POPC   GL214954  11.949  38.701   9.164
  836POPC   C1A14955  11.990  38.344   8.779
  836POPC   D2A14956  12.134  38.309   8.314
  836POPC   C3A14957  11.862  38.250   7.927
  836POPC   C4A14958  11.767  38.113   7.479
  836POPC   C1B14959  11.809  38.820   8.709
  836POPC   C2B14960  11.691  38.593   8.306
  836POPC   C3B14961  11.698  38.718   7.833
  836POPC   C4B14962  11.688  38.879   7.394
  837POPC   NC314963  16.803   3.901   9.720
  837POPC   PO414964  16.433   4.468   9.838
  837POPC   GL114965  16.537   4.497   9.355
  837POPC   GL214966  16.802   4.272   9.357
  837POPC   C1A14967  16.813   4.558   8.920
  837POPC   D2A14968  16.895   4.460   8.441
  837POPC   C3A14969  16.509   4.359   8.139
  837POPC   C4A14970  16.374   4.515   7.717
  837POPC   C1B14971  16.870   3.987   8.985
  837POPC   C2B14972  16.941   3.953   8.511
  837POPC   C3B14973  16.943   4.102   8.068
  837POPC   C4B14974  16.882   4.457   7.755
  838POPC   NC314975  33.800  17.279   9.614
  838POPC   PO414976  33.544  17.860   9.535
  838POPC   GL114977  33.674  17.530   9.170
  838POPC   GL214978  33.996  17.270   9.154
  838POPC   C1A14979  33.798  17.498   8.725
  838POPC   D2A14980  34.049  17.679   8.382
  838POPC   C3A14981  33.902  17.550   7.989
  838POPC   C4A14982  33.891  17.768   7.615
  838POPC   C1B14983  33.958  17.021   8.787
  838POPC   C2B14984  34.008  17.171   8.355
  838POPC   C3B14985  34.028  17.053   7.911
  838POPC   C4B14986  33.888  17.264   7.535
  839POPC   NC314987  29.347  16.179   9.755
  839POPC   PO414988  28.844  16.216   9.343
  839POPC   GL114989  29.218  16.020   9.256
  839POPC   GL214990  29.076  15.750   9.088
  839POPC   C1A14991  29.311  16.129   8.822
  839POPC   D2A14992  29.199  15.907   8.466
  839POPC   C3A14993  29.216  16.139   8.091
  839POPC   C4A14994  29.097  15.957   7.703
  839POPC   C1B14995  29.484  15.658   8.838
  839POPC   C2B14996  29.680  15.686   8.397
  839POPC   C3B14997  29.494  15.715   7.971
  839POPC   C4B14998  29.205  15.467   7.727
  840POPC   NC314999   0.406  19.598   9.535
  840POPC   PO415000   0.489  20.230   9.456
  840POPC   GL115001   0.314  19.941   9.155
  840POPC   GL215002   0.605  19.714   9.087
  840POPC   C1A15003   0.122  19.844   8.764
  840POPC   D2A15004   0.125  19.674   8.326
  840POPC   C3A15005   0.482  19.876   8.062
  840POPC   C4A15006   0.488  20.022   7.617
  840POPC   C1B15007   0.682  19.982   8.736
  840POPC   C2B15008   0.752  20.224   8.342
  840POPC   C3B15009   0.861  20.285   7.883
  840POPC   C4B15010   0.936  20.193   7.404
  841POPC   NC315011   8.297   5.324   9.520
  841POPC   PO415012   8.582   5.982   9.433
  841POPC   GL115013   8.275   5.939   9.121
  841POPC   GL215014   8.090   5.615   9.114
  841POPC   C1A15015   8.148   6.125   8.736
  841POPC   D2A15016   7.934   5.981   8.412
  841POPC   C3A15017   8.015   6.189   8.052
  841POPC   C4A15018   8.027   6.024   7.630
  841POPC   C1B15019   8.212   5.617   8.692
  841POPC   C2B15020   8.377   5.713   8.295
  841POPC   C3B15021   8.080   5.683   8.003
  841POPC   C4B15022   8.045   5.485   7.587
  842POPC   NC315023  42.617  33.290   9.496
  842POPC   PO415024  42.540  32.577   9.498
  842POPC   GL115025  42.334  32.756   9.167
  842POPC   GL215026  42.612  32.951   9.086
  842POPC   C1A15027  42.071  32.697   8.812
  842POPC   D2A15028  42.065  32.554   8.381
  842POPC   C3A15029  41.944  32.803   8.034
  842POPC   C4A15030  42.155  33.124   7.806
  842POPC   C1B15031  42.398  33.079   8.698
  842POPC   C2B15032  42.427  33.219   8.275
  842POPC   C3B15033  42.645  33.118   7.878
  842POPC   C4B15034  42.527  33.346   7.483
  843POPC   NC315035   0.243   5.384   9.413
  843POPC   PO415036   0.839   5.018   9.490
  843POPC   GL115037   0.585   5.117   9.154
  843POPC   GL215038   0.249   4.929   9.185
  843POPC   C1A15039   0.490   5.252   8.753
  843POPC   D2A15040   0.555   5.014   8.401
  843POPC   C3A15041   0.492   5.189   8.014
  843POPC   C4A15042   0.704   5.145   7.602
  843POPC   C1B15043   0.011   5.000   8.794
  843POPC   C2B15044   0.067   5.184   8.360
  843POPC   C3B15045  44.959   5.256   7.916
  843POPC   C4B15046   0.161   5.028   7.585
  844POPC   NC315047  34.114  25.831   9.580
  844POPC   PO415048  34.756  26.087   9.469
  844POPC   GL115049  34.453  26.127   9.187
  844POPC   GL215050  34.621  25.833   9.022
  844POPC   C1A15051  34.397  26.233   8.755
  844POPC   D2A15052  34.614  26.053   8.406
  844POPC   C3A15053  34.425  26.021   8.002
  844POPC   C4A15054  34.614  25.767   7.715
  844POPC   C1B15055  34.894  26.165   8.820
  844POPC   C2B15056  35.036  26.357   8.464
  844POPC   C3B15057  34.913  26.271   8.045
  844POPC   C4B15058  34.982  26.448   7.669
  845POPC   NC315059  10.198  38.848   9.301
  845POPC   PO415060  10.130  39.419   9.658
  845POPC   GL115061  10.209  39.396   9.178
  845POPC   GL215062  10.481  39.209   9.102
  845POPC   C1A15063  10.319  39.321   8.660
  845POPC   D2A15064  10.493  39.147   8.263
  845POPC   C3A15065  10.452  39.218   7.797
  845POPC   C4A15066  10.487  39.374   7.373
  845POPC   C1B15067  10.557  38.884   8.729
  845POPC   C2B15068  10.871  38.862   8.374
  845POPC   C3B15069  10.825  38.929   7.906
  845POPC   C4B15070  10.869  39.061   7.411
  846POPC   NC315071   7.664   4.933   9.542
  846POPC   PO415072   6.940   4.915   9.547
  846POPC   GL115073   7.129   5.066   9.141
  846POPC   GL215074   7.500   5.007   9.061
  846POPC   C1A15075   7.153   5.152   8.683
  846POPC   D2A15076   7.479   5.088   8.376
  846POPC   C3A15077   7.440   4.911   7.960
  846POPC   C4A15078   7.358   4.784   7.525
  846POPC   C1B15079   7.767   5.275   8.801
  846POPC   C2B15080   7.779   5.493   8.394
  846POPC   C3B15081   7.806   5.269   7.994
  846POPC   C4B15082   7.598   5.251   7.600
  847POPC   NC315083  41.281  14.789   9.464
  847POPC   PO415084  41.775  14.335   9.480
  847POPC   GL115085  41.519  14.426   9.164
  847POPC   GL215086  41.690  14.687   9.116
  847POPC   C1A15087  41.467  14.333   8.738
  847POPC   D2A15088  41.565  14.022   8.418
  847POPC   C3A15089  41.719  14.205   8.070
  847POPC   C4A15090  41.420  14.326   7.760
  847POPC   C1B15091  41.971  14.730   8.825
  847POPC   C2B15092  41.823  14.615   8.433
  847POPC   C3B15093  41.563  14.695   8.106
  847POPC   C4B15094  41.847  14.631   7.807
  848POPC   NC315095  10.680   6.548   9.702
  848POPC   PO415096  10.033   6.701   9.586
  848POPC   GL115097  10.389   6.620   9.254
  848POPC   GL215098  10.782   6.728   9.244
  848POPC   C1A15099  10.340   6.700   8.804
  848POPC   D2A15100  10.368   6.519   8.387
  848POPC   C3A15101  10.337   6.699   7.963
  848POPC   C4A15102  10.434   6.509   7.570
  848POPC   C1B15103  10.798   6.419   8.924
  848POPC   C2B15104  10.815   6.293   8.485
  848POPC   C3B15105  10.815   6.567   8.127
  848POPC   C4B15106  10.911   6.484   7.730
  849POPC   NC315107   7.565  10.850   9.700
  849POPC   PO415108   7.323  10.393   9.314
  849POPC   GL115109   7.230  10.676   9.046
  849POPC   GL215110   7.538  10.849   9.127
  849POPC   C1A15111   7.235  10.456   8.657
  849POPC   D2A15112   7.376  10.425   8.277
  849POPC   C3A15113   7.109  10.436   7.965
  849POPC   C4A15114   7.099  10.784   7.684
  849POPC   C1B15115   7.642  10.791   8.681
  849POPC   C2B15116   7.889  10.555   8.410
  849POPC   C3B15117   7.795  10.415   8.015
  849POPC   C4B15118   7.548  10.546   7.703
  850POPC   NC315119  32.667   7.391   9.582
  850POPC   PO415120  32.074   7.145   9.566
  850POPC   GL115121  32.260   7.415   9.240
  850POPC   GL215122  32.399   7.140   9.059
  850POPC   C1A15123  32.336   7.578   8.803
  850POPC   D2A15124  32.185   7.685   8.390
  850POPC   C3A15125  32.542   7.703   8.110
  850POPC   C4A15126  32.578   7.596   7.680
  850POPC   C1B15127  32.104   7.136   8.671
  850POPC   C2B15128  32.146   7.217   8.197
  850POPC   C3B15129  31.981   7.034   7.813
  850POPC   C4B15130  32.059   7.002   7.336
  851POPC   NC315131  33.574  30.150   9.533
  851POPC   PO415132  34.164  29.893   9.487
  851POPC   GL115133  33.873  29.982   9.143
  851POPC   GL215134  33.602  29.750   9.178
  851POPC   C1A15135  33.788  30.167   8.715
  851POPC   D2A15136  33.603  30.225   8.272
  851POPC   C3A15137  33.826  30.141   7.863
  851POPC   C4A15138  34.056  30.247   7.448
  851POPC   C1B15139  33.739  29.633   8.766
  851POPC   C2B15140  33.895  29.781   8.381
  851POPC   C3B15141  33.592  29.726   8.071
  851POPC   C4B15142  33.716  29.675   7.673
  852POPC   NC315143   5.115  18.325   9.635
  852POPC   PO415144   5.551  18.472   9.209
  852POPC   GL115145   5.224  18.187   9.137
  852POPC   GL215146   5.386  17.958   8.949
  852POPC   C1A15147   4.924  18.089   8.801
  852POPC   D2A15148   4.921  18.202   8.384
  852POPC   C3A15149   4.755  17.900   8.126
  852POPC   C4A15150   4.733  18.160   7.785
  852POPC   C1B15151   5.362  18.309   8.631
  852POPC   C2B15152   5.434  18.347   8.208
  852POPC   C3B15153   5.250  18.264   7.823
  852POPC   C4B15154   5.415  18.052   7.438
  853POPC   NC315155  36.263  12.130   9.328
  853POPC   PO415156  35.819  11.701   9.254
  853POPC   GL115157  35.892  12.012   9.003
  853POPC   GL215158  35.832  12.354   9.148
  853POPC   C1A15159  35.847  11.925   8.596
  853POPC   D2A15160  35.996  11.700   8.278
  853POPC   C3A15161  36.241  11.912   8.002
  853POPC   C4A15162  36.087  12.123   7.655
  853POPC   C1B15163  36.023  12.439   8.733
  853POPC   C2B15164  36.066  12.321   8.281
  853POPC   C3B15165  36.141  12.570   7.892
  853POPC   C4B15166  36.373  12.547   7.487
  854POPC   NC315167  35.087  35.274   9.463
  854POPC   PO415168  35.589  34.907   9.224
  854POPC   GL115169  35.359  35.201   9.001
  854POPC   GL215170  35.231  35.549   9.058
  854POPC   C1A15171  35.396  35.087   8.602
  854POPC   D2A15172  35.236  35.163   8.256
  854POPC   C3A15173  35.362  35.125   7.885
  854POPC   C4A15174  35.114  35.390   7.653
  854POPC   C1B15175  35.579  35.646   8.818
  854POPC   C2B15176  35.611  35.536   8.410
  854POPC   C3B15177  35.379  35.617   8.057
  854POPC   C4B15178  35.540  35.786   7.732
  855POPC   NC315179  34.332   2.371   9.836
  855POPC   PO415180  34.780   2.644   9.650
  855POPC   GL115181  34.924   2.648   9.174
  855POPC   GL215182  34.967   2.986   9.096
  855POPC   C1A15183  34.913   2.631   8.674
  855POPC   D2A15184  34.772   2.584   8.212
  855POPC   C3A15185  34.458   2.900   8.008
  855POPC   C4A15186  34.115   3.006   7.687
  855POPC   C1B15187  34.854   3.142   8.681
  855POPC   C2B15188  34.987   3.065   8.265
  855POPC   C3B15189  34.946   2.909   7.867
  855POPC   C4B15190  35.109   2.992   7.476
  856POPC   NC315191  41.190   9.563   9.556
  856POPC   PO415192  40.631   9.660   9.469
  856POPC   GL115193  40.669   9.686   9.030
  856POPC   GL215194  40.910   9.949   9.086
  856POPC   C1A15195  40.392   9.636   8.637
  856POPC   D2A15196  40.395   9.511   8.165
  856POPC   C3A15197  40.814   9.627   7.970
  856POPC   C4A15198  41.116   9.933   7.822
  856POPC   C1B15199  40.682  10.091   8.707
  856POPC   C2B15200  40.597   9.962   8.291
  856POPC   C3B15201  40.628  10.120   7.881
  856POPC   C4B15202  40.949  10.400   7.672
  857POPC   NC315203  14.426   9.408  10.101
  857POPC   PO415204  14.380   8.915   9.609
  857POPC   GL115205  14.287   9.028   9.199
  857POPC   GL215206  14.655   9.023   9.115
  857POPC   C1A15207  14.335   9.316   8.855
  857POPC   D2A15208  14.580   9.257   8.504
  857POPC   C3A15209  14.372   9.126   8.148
  857POPC   C4A15210  14.360   9.321   7.772
  857POPC   C1B15211  14.528   8.820   8.771
  857POPC   C2B15212  14.571   8.577   8.422
  857POPC   C3B15213  14.564   8.645   8.035
  857POPC   C4B15214  14.320   8.793   7.724
  858POPC   NC315215  20.113   3.087   9.499
  858POPC   PO415216  20.032   2.405   9.539
  858POPC   GL115217  19.969   2.741   9.136
  858POPC   GL215218  19.749   2.541   8.932
  858POPC   C1A15219  19.992   2.851   8.648
  858POPC   D2A15220  19.829   2.716   8.247
  858POPC   C3A15221  19.851   3.071   7.963
  858POPC   C4A15222  19.743   3.075   7.541
  858POPC   C1B15223  19.558   2.367   8.564
  858POPC   C2B15224  19.335   2.477   8.183
  858POPC   C3B15225  19.537   2.509   7.787
  858POPC   C4B15226  19.466   2.338   7.379
  859POPC   NC315227  19.410  39.709   9.490
  859POPC   PO415228  19.947  40.093   9.285
  859POPC   GL115229  19.625  39.859   9.041
  859POPC   GL215230  19.645  39.513   9.062
  859POPC   C1A15231  19.628  39.904   8.606
  859POPC   D2A15232  19.977  40.086   8.410
  859POPC   C3A15233  19.842  40.229   8.038
  859POPC   C4A15234  20.001  40.436   7.721
  859POPC   C1B15235  19.938  39.511   8.683
  859POPC   C2B15236  20.012  39.607   8.224
  859POPC   C3B15237  20.070  39.798   7.808
  859POPC   C4B15238  20.083  39.672   7.349
  860POPC   NC315239  17.750  14.018   9.339
  860POPC   PO415240  17.223  14.339   9.651
  860POPC   GL115241  17.171  14.215   9.229
  860POPC   GL215242  17.308  14.537   9.130
  860POPC   C1A15243  17.287  14.102   8.789
  860POPC   D2A15244  17.067  14.125   8.368
  860POPC   C3A15245  17.296  14.129   7.971
  860POPC   C4A15246  17.724  14.252   7.864
  860POPC   C1B15247  17.529  14.579   8.737
  860POPC   C2B15248  17.631  14.556   8.293
  860POPC   C3B15249  17.451  14.702   7.911
  860POPC   C4B15250  17.380  14.721   7.466
  861POPC   NC315251  43.930  40.996   9.642
  861POPC   PO415252  43.560  40.471   9.493
  861POPC   GL115253  43.856  40.540   9.140
  861POPC   GL215254  44.022  40.849   9.162
  861POPC   C1A15255  43.918  40.633   8.701
  861POPC   D2A15256  43.786  40.956   8.420
  861POPC   C3A15257  43.651  40.742   8.066
  861POPC   C4A15258  43.889  40.609   7.734
  861POPC   C1B15259  44.129  41.082   8.795
  861POPC   C2B15260  44.353  41.042   8.425
  861POPC   C3B15261  44.162  40.918   8.061
  861POPC   C4B15262  43.996  41.114   7.732
  862POPC   NC315263  39.322  26.617   9.573
  862POPC   PO415264  38.847  27.006   9.605
  862POPC   GL115265  38.944  26.737   9.243
  862POPC   GL215266  39.251  26.938   9.189
  862POPC   C1A15267  39.129  26.606   8.827
  862POPC   D2A15268  39.302  26.826   8.456
  862POPC   C3A15269  39.143  26.759   8.072
  862POPC   C4A15270  39.235  26.677   7.672
  862POPC   C1B15271  39.216  27.164   8.826
  862POPC   C2B15272  39.493  27.330   8.526
  862POPC   C3B15273  39.500  27.289   8.099
  862POPC   C4B15274  39.467  27.222   7.658
  863POPC   NC315275  15.046  14.027   9.533
  863POPC   PO415276  15.544  14.417   9.658
  863POPC   GL115277  15.414  14.322   9.250
  863POPC   GL215278  15.074  14.387   9.165
  863POPC   C1A15279  15.488  14.330   8.810
  863POPC   D2A15280  15.509  14.239   8.369
  863POPC   C3A15281  15.307  14.501   8.066
  863POPC   C4A15282  14.938  14.568   7.806
  863POPC   C1B15283  14.964  14.289   8.748
  863POPC   C2B15284  14.864  14.359   8.322
  863POPC   C3B15285  14.990  14.089   7.984
  863POPC   C4B15286  15.026  14.054   7.515
  864POPC   NC315287  23.718  44.276   9.614
  864POPC   PO415288  23.506  44.837   9.303
  864POPC   GL115289  23.606  44.459   9.049
  864POPC   GL215290  23.962  44.347   9.002
  864POPC   C1A15291  23.667  44.587   8.604
  864POPC   D2A15292  23.418  44.703   8.245
  864POPC   C3A15293  23.632  44.639   7.857
  864POPC   C4A15294  23.710  44.842   7.465
  864POPC   C1B15295  23.752  44.096   8.659
  864POPC   C2B15296  23.760  44.252   8.191
  864POPC   C3B15297  24.033  44.328   7.825
  864POPC   C4B15298  23.965  44.402   7.389
  865POPC   NC315299  36.549   5.082   9.508
  865POPC   PO415300  37.261   5.030   9.611
  865POPC   GL115301  37.135   5.020   9.174
  865POPC   GL215302  36.766   5.102   9.037
  865POPC   C1A15303  37.194   5.254   8.787
  865POPC   D2A15304  36.863   5.208   8.488
  865POPC   C3A15305  36.887   5.180   8.049
  865POPC   C4A15306  37.264   5.228   7.878
  865POPC   C1B15307  36.530   4.775   8.753
  865POPC   C2B15308  36.527   4.864   8.303
  865POPC   C3B15309  36.637   4.695   7.882
  865POPC   C4B15310  36.596   4.711   7.419
  866POPC   NC315311  33.339  42.321   9.523
  866POPC   PO415312  33.881  42.642   9.419
  866POPC   GL115313  33.672  42.403   9.117
  866POPC   GL215314  33.586  42.039   9.166
  866POPC   C1A15315  33.746  42.494   8.696
  866POPC   D2A15316  33.951  42.319   8.342
  866POPC   C3A15317  33.755  42.453   7.962
  866POPC   C4A15318  33.942  42.697   7.633
  866POPC   C1B15319  33.826  41.986   8.752
  866POPC   C2B15320  34.043  41.810   8.376
  866POPC   C3B15321  33.949  41.925   8.003
  866POPC   C4B15322  33.539  41.999   7.864
  867POPC   NC315323  31.477  37.237   9.452
  867POPC   PO415324  31.087  37.911   9.478
  867POPC   GL115325  31.457  37.769   9.202
  867POPC   GL215326  31.319  37.900   8.905
  867POPC   C1A15327  31.605  37.529   8.794
  867POPC   D2A15328  31.357  37.708   8.414
  867POPC   C3A15329  31.614  37.653   8.052
  867POPC   C4A15330  31.823  37.919   7.760
  867POPC   C1B15331  31.027  38.132   8.687
  867POPC   C2B15332  31.011  38.196   8.248
  867POPC   C3B15333  31.368  38.112   7.956
  867POPC   C4B15334  31.448  38.203   7.497
  868POPC   NC315335  39.650  34.639   9.508
  868POPC   PO415336  40.349  34.873   9.497
  868POPC   GL115337  40.041  34.605   9.157
  868POPC   GL215338  39.715  34.797   9.051
  868POPC   C1A15339  40.162  34.342   8.779
  868POPC   D2A15340  40.355  34.416   8.373
  868POPC   C3A15341  40.096  34.417   8.004
  868POPC   C4A15342  39.912  34.736   7.712
  868POPC   C1B15343  39.758  34.947   8.658
  868POPC   C2B15344  39.880  34.826   8.255
  868POPC   C3B15345  39.599  35.016   8.004
  868POPC   C4B15346  39.397  34.935   7.625
  869POPC   NC315347  23.403  13.862   9.559
  869POPC   PO415348  23.862  13.401   9.404
  869POPC   GL115349  23.852  13.791   9.178
  869POPC   GL215350  23.521  13.742   9.071
  869POPC   C1A15351  23.881  13.888   8.724
  869POPC   D2A15352  23.751  13.658   8.332
  869POPC   C3A15353  23.934  13.694   7.898
  869POPC   C4A15354  23.717  13.727   7.490
  869POPC   C1B15355  23.600  13.373   8.756
  869POPC   C2B15356  23.506  13.170   8.329
  869POPC   C3B15357  23.553  13.323   7.865
  869POPC   C4B15358  23.495  13.286   7.391
  870POPC   NC315359  42.974   2.226   9.342
  870POPC   PO415360  43.346   1.821   9.677
  870POPC   GL115361  43.278   1.859   9.190
  870POPC   GL215362  42.938   1.876   8.979
  870POPC   C1A15363  43.350   2.046   8.760
  870POPC   D2A15364  43.210   2.085   8.315
  870POPC   C3A15365  43.246   1.786   7.964
  870POPC   C4A15366  43.267   2.064   7.618
  870POPC   C1B15367  42.812   2.156   8.662
  870POPC   C2B15368  42.837   2.402   8.305
  870POPC   C3B15369  42.829   2.220   7.921
  870POPC   C4B15370  42.776   2.357   7.525
  871POPC   NC315371  36.531  32.055   9.442
  871POPC   PO415372  35.903  32.377   9.461
  871POPC   GL115373  36.105  32.160   9.146
  871POPC   GL215374  36.338  32.399   9.099
  871POPC   C1A15375  36.228  32.070   8.710
  871POPC   D2A15376  36.408  32.096   8.283
  871POPC   C3A15377  36.090  31.954   7.986
  871POPC   C4A15378  36.016  31.912   7.542
  871POPC   C1B15379  36.168  32.664   8.793
  871POPC   C2B15380  36.091  32.511   8.401
  871POPC   C3B15381  36.111  32.466   7.971
  871POPC   C4B15382  36.259  32.356   7.587
  872POPC   NC315383  16.722  10.885   9.857
  872POPC   PO415384  16.573  11.341   9.330
  872POPC   GL115385  16.678  11.278   8.962
  872POPC   GL215386  16.930  11.511   8.980
  872POPC   C1A15387  16.549  11.313   8.554
  872POPC   D2A15388  16.223  11.336   8.273
  872POPC   C3A15389  16.397  11.131   7.913
  872POPC   C4A15390  16.665  11.436   7.801
  872POPC   C1B15391  17.033  11.699   8.617
  872POPC   C2B15392  16.926  11.500   8.233
  872POPC   C3B15393  16.897  11.054   8.060
  872POPC   C4B15394  16.938  11.027   7.617
  873POPC   NC315395  21.626  33.597   9.449
  873POPC   PO415396  21.117  34.016   9.627
  873POPC   GL115397  21.225  33.866   9.239
  873POPC   GL215398  21.548  33.996   9.109
  873POPC   C1A15399  21.085  33.827   8.831
  873POPC   D2A15400  21.292  34.030   8.490
  873POPC   C3A15401  21.153  33.850   8.099
  873POPC   C4A15402  21.145  33.759   7.659
  873POPC   C1B15403  21.556  33.667   8.759
  873POPC   C2B15404  21.652  33.709   8.303
  873POPC   C3B15405  21.609  33.803   7.863
  873POPC   C4B15406  21.861  33.710   7.533
  874POPC   NC315407   9.426  11.583   9.689
  874POPC   PO415408  10.079  11.388   9.647
  874POPC   GL115409   9.798  11.482   9.215
  874POPC   GL215410   9.420  11.433   9.111
  874POPC   C1A15411   9.782  11.373   8.732
  874POPC   D2A15412   9.963  11.373   8.287
  874POPC   C3A15413   9.788  11.143   7.939
  874POPC   C4A15414   9.733  11.286   7.489
  874POPC   C1B15415   9.391  11.032   8.802
  874POPC   C2B15416   9.347  10.880   8.354
  874POPC   C3B15417   9.287  11.017   7.907
  874POPC   C4B15418   9.267  11.092   7.468
  875POPC   NC315419  40.157  33.690   9.432
  875POPC   PO415420  39.669  34.142   9.540
  875POPC   GL115421  39.898  34.067   9.132
  875POPC   GL215422  40.173  33.835   8.973
  875POPC   C1A15423  39.781  33.906   8.701
  875POPC   D2A15424  40.088  33.939   8.397
  875POPC   C3A15425  39.840  33.984   8.040
  875POPC   C4A15426  39.842  33.804   7.683
  875POPC   C1B15427  40.301  33.530   8.669
  875POPC   C2B15428  40.425  33.468   8.314
  875POPC   C3B15429  40.189  33.596   8.022
  875POPC   C4B15430  40.260  33.492   7.613
  876POPC   NC315431   6.461  20.870   9.735
  876POPC   PO415432   7.049  21.005   9.566
  876POPC   GL115433   6.841  20.674   9.232
  876POPC   GL215434   6.859  20.324   9.096
  876POPC   C1A15435   6.611  20.608   8.786
  876POPC   D2A15436   6.520  20.374   8.365
  876POPC   C3A15437   6.560  20.637   8.004
  876POPC   C4A15438   6.373  20.637   7.596
  876POPC   C1B15439   6.874  20.160   8.669
  876POPC   C2B15440   7.010  20.322   8.231
  876POPC   C3B15441   6.874  20.328   7.770
  876POPC   C4B15442   7.146  20.421   7.376
  877POPC   NC315443   8.718  29.256   9.576
  877POPC   PO415444   9.156  28.867   9.480
  877POPC   GL115445   8.768  28.917   9.159
  877POPC   GL215446   8.535  29.263   9.112
  877POPC   C1A15447   8.827  29.074   8.729
  877POPC   D2A15448   9.213  29.071   8.424
  877POPC   C3A15449   9.217  28.911   7.983
  877POPC   C4A15450   9.162  29.036   7.500
  877POPC   C1B15451   8.495  29.480   8.700
  877POPC   C2B15452   8.643  29.284   8.294
  877POPC   C3B15453   8.827  29.228   7.873
  877POPC   C4B15454   8.778  29.410   7.460
  878POPC   NC315455  10.789  40.417   9.572
  878POPC   PO415456  10.040  40.453   9.645
  878POPC   GL115457  10.416  40.515   9.270
  878POPC   GL215458  10.599  40.871   9.217
  878POPC   C1A15459  10.550  40.606   8.802
  878POPC   D2A15460  10.255  40.628   8.454
  878POPC   C3A15461  10.395  40.823   8.093
  878POPC   C4A15462  10.766  40.776   7.812
  878POPC   C1B15463  10.557  41.160   8.817
  878POPC   C2B15464  10.724  41.194   8.379
  878POPC   C3B15465  10.586  41.244   7.923
  878POPC   C4B15466  10.348  41.036   7.605
  879POPC   NC315467  29.986  38.607   9.508
  879POPC   PO415468  30.265  37.966   9.540
  879POPC   GL115469  30.047  38.131   9.143
  879POPC   GL215470  29.822  38.433   9.085
  879POPC   C1A15471  30.049  38.261   8.690
  879POPC   D2A15472  30.018  38.545   8.367
  879POPC   C3A15473  30.037  38.228   8.067
  879POPC   C4A15474  30.132  38.146   7.644
  879POPC   C1B15475  29.819  38.876   8.879
  879POPC   C2B15476  29.510  39.008   8.563
  879POPC   C3B15477  29.638  38.867   8.147
  879POPC   C4B15478  29.987  38.678   7.862
  880POPC   NC315479  44.956  36.678   9.457
  880POPC   PO415480   0.580  36.967   9.564
  880POPC   GL115481   0.648  36.976   9.155
  880POPC   GL215482   0.759  37.342   9.187
  880POPC   C1A15483   0.322  36.837   8.846
  880POPC   D2A15484   0.197  36.613   8.474
  880POPC   C3A15485   0.292  36.815   8.094
  880POPC   C4A15486   0.577  36.727   7.753
  880POPC   C1B15487   0.576  37.299   8.779
  880POPC   C2B15488   0.611  37.013   8.443
  880POPC   C3B15489   0.676  37.142   8.016
  880POPC   C4B15490   0.816  37.272   7.593
  881POPC   NC315491  18.560   7.451   9.704
  881POPC   PO415492  17.992   7.570   9.230
  881POPC   GL115493  18.170   7.472   8.882
  881POPC   GL215494  18.421   7.238   8.986
  881POPC   C1A15495  18.243   7.564   8.484
  881POPC   D2A15496  18.432   7.680   8.108
  881POPC   C3A15497  18.219   7.467   7.821
  881POPC   C4A15498  18.156   7.555   7.362
  881POPC   C1B15499  18.302   7.049   8.643
  881POPC   C2B15500  18.430   7.138   8.239
  881POPC   C3B15501  18.678   7.219   7.910
  881POPC   C4B15502  18.442   7.141   7.522
  882POPC   NC315503   4.275  34.108   9.463
  882POPC   PO415504   3.972  33.477   9.508
  882POPC   GL115505   4.268  33.680   9.220
  882POPC   GL215506   4.008  33.972   9.067
  882POPC   C1A15507   4.433  33.906   8.810
  882POPC   D2A15508   4.118  33.951   8.474
  882POPC   C3A15509   4.251  34.005   8.051
  882POPC   C4A15510   4.312  34.068   7.601
  882POPC   C1B15511   4.034  33.568   8.822
  882POPC   C2B15512   4.049  33.420   8.454
  882POPC   C3B15513   3.872  33.642   8.114
  882POPC   C4B15514   4.079  33.634   7.757
  883POPC   NC315515   8.268  37.657   9.791
  883POPC   PO415516   8.500  37.433   9.215
  883POPC   GL115517   8.152  37.612   9.047
  883POPC   GL215518   7.928  37.562   9.312
  883POPC   C1A15519   8.074  37.657   8.586
  883POPC   D2A15520   8.282  37.825   8.204
  883POPC   C3A15521   8.269  37.710   7.758
  883POPC   C4A15522   8.380  37.822   7.335
  883POPC   C1B15523   7.709  37.426   8.897
  883POPC   C2B15524   7.711  37.308   8.457
  883POPC   C3B15525   7.937  37.382   8.067
  883POPC   C4B15526   7.771  37.368   7.642
  884POPC   NC315527  12.101  10.123   9.477
  884POPC   PO415528  11.831   9.521   9.597
  884POPC   GL115529  12.020   9.590   9.188
  884POPC   GL215530  11.845   9.854   9.162
  884POPC   C1A15531  11.930   9.557   8.712
  884POPC   D2A15532  12.023   9.414   8.255
  884POPC   C3A15533  12.208   9.657   7.865
  884POPC   C4A15534  12.368   9.574   7.455
  884POPC   C1B15535  11.722  10.015   8.787
  884POPC   C2B15536  11.610   9.987   8.387
  884POPC   C3B15537  11.882   9.959   8.079
  884POPC   C4B15538  12.005  10.128   7.691
  885POPC   NC315539  16.487  13.332   9.446
  885POPC   PO415540  16.943  13.774   9.578
  885POPC   GL115541  16.775  13.841   9.178
  885POPC   GL215542  16.747  13.503   9.035
  885POPC   C1A15543  16.793  13.931   8.751
  885POPC   D2A15544  16.874  13.633   8.409
  885POPC   C3A15545  16.823  13.771   7.992
  885POPC   C4A15546  16.580  13.947   7.658
  885POPC   C1B15547  16.437  13.252   8.789
  885POPC   C2B15548  16.436  13.384   8.377
  885POPC   C3B15549  16.699  13.267   8.031
  885POPC   C4B15550  16.526  13.423   7.670
  886POPC   NC315551  26.002  18.943   9.591
  886POPC   PO415552  26.524  18.780   9.753
  886POPC   GL115553  26.427  18.891   9.246
  886POPC   GL215554  26.125  19.087   9.123
  886POPC   C1A15555  26.419  18.958   8.750
  886POPC   D2A15556  26.294  19.112   8.345
  886POPC   C3A15557  26.157  19.093   7.932
  886POPC   C4A15558  25.875  18.964   7.592
  886POPC   C1B15559  25.930  19.155   8.722
  886POPC   C2B15560  25.750  19.110   8.302
  886POPC   C3B15561  25.718  19.352   7.926
  886POPC   C4B15562  25.867  19.468   7.523
  887POPC   NC315563  34.445  28.801   9.498
  887POPC   PO415564  34.757  29.329   9.694
  887POPC   GL115565  34.747  29.127   9.227
  887POPC   GL215566  34.417  29.127   9.089
  887POPC   C1A15567  34.792  28.982   8.776
  887POPC   D2A15568  34.755  29.178   8.359
  887POPC   C3A15569  34.831  28.969   7.987
  887POPC   C4A15570  34.879  29.089   7.569
  887POPC   C1B15571  34.523  29.435   8.726
  887POPC   C2B15572  34.503  29.655   8.296
  887POPC   C3B15573  34.564  29.402   7.901
  887POPC   C4B15574  34.351  29.012   7.797
  888POPC   NC315575   2.322   6.687   9.486
  888POPC   PO415576   2.857   6.159   9.495
  888POPC   GL115577   2.736   6.448   9.194
  888POPC   GL215578   2.397   6.433   9.071
  888POPC   C1A15579   2.784   6.654   8.804
  888POPC   D2A15580   3.047   6.634   8.445
  888POPC   C3A15581   2.843   6.778   8.117
  888POPC   C4A15582   2.906   6.689   7.700
  888POPC   C1B15583   2.391   6.251   8.669
  888POPC   C2B15584   2.411   6.159   8.253
  888POPC   C3B15585   2.509   6.408   7.882
  888POPC   C4B15586   2.447   6.885   7.817
  889POPC   NC315587  28.161  42.564   9.264
  889POPC   PO415588  28.561  42.113   9.470
  889POPC   GL115589  28.609  42.340   9.100
  889POPC   GL215590  28.339  42.132   8.997
  889POPC   C1A15591  28.550  42.436   8.644
  889POPC   D2A15592  28.512  42.530   8.190
  889POPC   C3A15593  28.113  42.591   8.034
  889POPC   C4A15594  27.888  42.440   7.715
  889POPC   C1B15595  28.318  41.805   8.710
  889POPC   C2B15596  28.428  41.882   8.297
  889POPC   C3B15597  28.242  42.101   7.975
  889POPC   C4B15598  28.394  42.347   7.626
  890POPC   NC315599   4.549  20.734   9.511
  890POPC   PO415600   4.518  20.063   9.523
  890POPC   GL115601   4.223  20.281   9.211
  890POPC   GL215602   4.184  20.660   9.163
  890POPC   C1A15603   4.015  20.358   8.800
  890POPC   D2A15604   4.236  20.574   8.453
  890POPC   C3A15605   4.356  20.351   8.065
  890POPC   C4A15606   4.160  20.614   7.772
  890POPC   C1B15607   4.464  20.849   8.852
  890POPC   C2B15608   4.598  20.955   8.435
  890POPC   C3B15609   4.537  20.816   8.061
  890POPC   C4B15610   4.659  20.947   7.689
  891POPC   NC315611  24.280   5.103   9.555
  891POPC   PO415612  24.826   4.666   9.451
  891POPC   GL115613  24.591   4.926   9.138
  891POPC   GL215614  24.265   5.146   9.059
  891POPC   C1A15615  24.641   5.088   8.732
  891POPC   D2A15616  24.805   5.033   8.340
  891POPC   C3A15617  24.558   5.154   8.016
  891POPC   C4A15618  24.631   4.842   7.721
  891POPC   C1B15619  24.171   5.332   8.652
  891POPC   C2B15620  24.047   5.243   8.229
  891POPC   C3B15621  24.070   5.272   7.779
  891POPC   C4B15622  24.098   5.469   7.364
  892POPC   NC315623  29.793  21.777   9.516
  892POPC   PO415624  29.850  21.111   9.663
  892POPC   GL115625  29.998  21.278   9.197
  892POPC   GL215626  30.158  21.619   9.212
  892POPC   C1A15627  29.958  21.169   8.721
  892POPC   D2A15628  29.862  21.408   8.312
  892POPC   C3A15629  29.888  21.221   7.881
  892POPC   C4A15630  29.712  21.302   7.437
  892POPC   C1B15631  30.115  21.639   8.758
  892POPC   C2B15632  30.370  21.446   8.447
  892POPC   C3B15633  30.401  21.281   8.019
  892POPC   C4B15634  30.289  21.199   7.579
  893POPC   NC315635  26.065  36.478   9.651
  893POPC   PO415636  26.032  35.882   9.552
  893POPC   GL115637  26.181  36.002   9.139
  893POPC   GL215638  26.122  36.316   9.184
  893POPC   C1A15639  25.927  36.123   8.753
  893POPC   D2A15640  25.751  36.302   8.369
  893POPC   C3A15641  25.863  36.194   7.914
  893POPC   C4A15642  25.617  36.407   7.578
  893POPC   C1B15643  26.309  36.467   8.841
  893POPC   C2B15644  26.262  36.385   8.442
  893POPC   C3B15645  26.308  36.499   8.039
  893POPC   C4B15646  26.382  36.278   7.678
  894POPC   NC315647  18.182  44.034   9.534
  894POPC   PO415648  18.068  43.403   9.737
  894POPC   GL115649  18.257  43.571   9.306
  894POPC   GL215650  17.940  43.780   9.192
  894POPC   C1A15651  18.213  43.594   8.810
  894POPC   D2A15652  18.092  43.801   8.448
  894POPC   C3A15653  18.124  43.680   8.059
  894POPC   C4A15654  18.464  43.619   7.776
  894POPC   C1B15655  18.072  44.106   8.870
  894POPC   C2B15656  18.245  44.277   8.484
  894POPC   C3B15657  18.417  44.120   8.136
  894POPC   C4B15658  18.235  44.084   7.767
  895POPC   NC315659  17.092   8.590   9.199
  895POPC   PO415660  16.678   7.965   9.368
  895POPC   GL115661  16.661   8.282   9.081
  895POPC   GL215662  16.391   8.531   9.125
  895POPC   C1A15663  16.881   8.172   8.705
  895POPC   D2A15664  16.800   8.004   8.315
  895POPC   C3A15665  17.049   8.312   8.139
  895POPC   C4A15666  16.886   8.560   7.821
  895POPC   C1B15667  16.365   8.442   8.690
  895POPC   C2B15668  16.575   8.466   8.281
  895POPC   C3B15669  16.549   8.171   7.886
  895POPC   C4B15670  16.309   8.019   7.505
  896POPC   NC315671  35.996  37.431   9.450
  896POPC   PO415672  36.387  37.950   9.467
  896POPC   GL115673  36.318  37.715   9.126
  896POPC   GL215674  35.953  37.717   9.054
  896POPC   C1A15675  36.278  37.704   8.693
  896POPC   D2A15676  36.085  37.737   8.326
  896POPC   C3A15677  36.250  37.484   8.000
  896POPC   C4A15678  36.212  37.618   7.612
  896POPC   C1B15679  35.829  37.409   8.718
  896POPC   C2B15680  35.823  37.315   8.264
  896POPC   C3B15681  35.776  37.628   7.902
  896POPC   C4B15682  35.751  37.605   7.436
  897POPC   NC315683  43.225  22.014   9.431
  897POPC   PO415684  43.032  22.577   9.649
  897POPC   GL115685  43.181  22.401   9.126
  897POPC   GL215686  43.386  22.133   8.969
  897POPC   C1A15687  43.104  22.391   8.645
  897POPC   D2A15688  43.409  22.315   8.313
  897POPC   C3A15689  43.201  22.282   7.899
  897POPC   C4A15690  42.819  22.343   7.705
  897POPC   C1B15691  43.105  21.857   8.734
  897POPC   C2B15692  43.033  21.963   8.308
  897POPC   C3B15693  43.214  21.771   7.929
  897POPC   C4B15694  43.257  21.963   7.511
  898POPC   NC315695   5.530  35.104   9.436
  898POPC   PO415696   4.978  35.474   9.497
  898POPC   GL115697   5.267  35.421   9.125
  898POPC   GL215698   5.317  35.077   8.977
  898POPC   C1A15699   5.216  35.554   8.698
  898POPC   D2A15700   4.890  35.772   8.442
  898POPC   C3A15701   4.902  35.635   8.027
  898POPC   C4A15702   5.220  35.533   7.706
  898POPC   C1B15703   4.891  35.179   8.842
  898POPC   C2B15704   4.778  35.260   8.405
  898POPC   C3B15705   4.969  35.143   8.001
  898POPC   C4B15706   4.947  34.786   7.792
  899POPC   NC315707   7.771   4.004   9.452
  899POPC   PO415708   8.450   4.025   9.430
  899POPC   GL115709   8.197   4.182   9.098
  899POPC   GL215710   7.829   4.219   8.996
  899POPC   C1A15711   8.232   4.150   8.667
  899POPC   D2A15712   8.203   4.410   8.318
  899POPC   C3A15713   8.438   4.244   7.967
  899POPC   C4A15714   8.107   4.156   7.658
  899POPC   C1B15715   7.764   4.610   8.795
  899POPC   C2B15716   7.932   4.840   8.483
  899POPC   C3B15717   7.932   4.778   8.057
  899POPC   C4B15718   7.780   4.563   7.693
  900POPC   NC315719  27.033  39.694   9.373
  900POPC   PO415720  26.321  39.529   9.478
  900POPC   GL115721  26.539  39.519   9.052
  900POPC   GL215722  26.885  39.661   8.896
  900POPC   C1A15723  26.423  39.788   8.676
  900POPC   D2A15724  26.605  40.156   8.471
  900POPC   C3A15725  26.676  40.000   8.073
  900POPC   C4A15726  26.529  39.857   7.680
  900POPC   C1B15727  27.064  40.015   8.640
  900POPC   C2B15728  27.258  40.120   8.271
  900POPC   C3B15729  27.091  40.260   7.911
  900POPC   C4B15730  27.051  39.842   7.750
  901POPC   NC315731  40.386  12.662   9.376
  901POPC   PO415732  40.919  13.034   9.562
  901POPC   GL115733  40.788  12.858   9.187
  901POPC   GL215734  40.576  13.117   9.026
  901POPC   C1A15735  40.675  12.702   8.767
  901POPC   D2A15736  40.691  12.965   8.425
  901POPC   C3A15737  40.764  12.767   8.042
  901POPC   C4A15738  40.653  12.862   7.648
  901POPC   C1B15739  41.026  13.077   8.831
  901POPC   C2B15740  41.187  13.096   8.419
  901POPC   C3B15741  41.072  13.156   8.027
  901POPC   C4B15742  41.225  13.104   7.643
  902POPC   NC315743  27.795  27.679   9.489
  902POPC   PO415744  27.088  27.385   9.504
  902POPC   GL115745  27.386  27.621   9.144
  902POPC   GL215746  27.747  27.806   9.012
  902POPC   C1A15747  27.447  27.582   8.693
  902POPC   D2A15748  27.196  27.369   8.388
  902POPC   C3A15749  27.305  27.487   8.011
  902POPC   C4A15750  27.643  27.410   7.772
  902POPC   C1B15751  27.960  27.852   8.593
  902POPC   C2B15752  27.810  27.627   8.211
  902POPC   C3B15753  27.829  27.874   7.785
  902POPC   C4B15754  27.803  27.921   7.332
  903POPC   NC315755  43.940  23.516   9.527
  903POPC   PO415756  43.541  24.033   9.339
  903POPC   GL115757  43.808  23.793   9.120
  903POPC   GL215758  44.129  23.913   9.251
  903POPC   C1A15759  43.926  23.450   8.824
  903POPC   D2A15760  43.997  23.333   8.381
  903POPC   C3A15761  43.726  23.534   8.052
  903POPC   C4A15762  43.760  23.729   7.604
  903POPC   C1B15763  44.151  23.915   8.799
  903POPC   C2B15764  43.972  23.841   8.409
  903POPC   C3B15765  44.102  23.869   7.984
  903POPC   C4B15766  44.303  23.859   7.573
  904POPC   NC315767  41.372  14.008   9.423
  904POPC   PO415768  41.763  13.558   9.674
  904POPC   GL115769  41.697  13.636   9.241
  904POPC   GL215770  41.610  13.342   9.089
  904POPC   C1A15771  41.712  13.790   8.838
  904POPC   D2A15772  41.749  13.533   8.447
  904POPC   C3A15773  41.953  13.747   8.110
  904POPC   C4A15774  41.803  13.871   7.689
  904POPC   C1B15775  41.331  13.473   8.725
  904POPC   C2B15776  41.263  13.575   8.273
  904POPC   C3B15777  41.426  13.539   7.843
  904POPC   C4B15778  41.574  13.363   7.398
  905POPC   NC315779  18.287   0.596   9.300
  905POPC   PO415780  18.508   1.168   9.634
  905POPC   GL115781  18.332   1.106   9.238
  905POPC   GL215782  17.982   1.201   9.210
  905POPC   C1A15783  18.317   1.000   8.795
  905POPC   D2A15784  18.300   1.262   8.455
  905POPC   C3A15785  18.418   1.082   8.070
  905POPC   C4A15786  18.235   1.190   7.671
  905POPC   C1B15787  17.797   0.960   8.884
  905POPC   C2B15788  17.903   0.940   8.470
  905POPC   C3B15789  17.893   1.159   8.070
  905POPC   C4B15790  17.741   1.027   7.678
  906POPC   NC315791  20.081  26.686   9.564
  906POPC   PO415792  19.642  27.231   9.557
  906POPC   GL115793  19.748  26.896   9.207
  906POPC   GL215794  19.936  26.590   9.106
  906POPC   C1A15795  19.665  26.777   8.738
  906POPC   D2A15796  19.900  26.840   8.354
  906POPC   C3A15797  19.685  26.739   7.958
  906POPC   C4A15798  19.667  26.794   7.517
  906POPC   C1B15799  20.191  26.609   8.733
  906POPC   C2B15800  20.210  26.415   8.312
  906POPC   C3B15801  20.179  26.636   7.942
  906POPC   C4B15802  20.044  26.477   7.526
  907POPC   NC315803  30.923  33.191   9.306
  907POPC   PO415804  31.555  33.046   9.598
  907POPC   GL115805  31.400  32.889   9.237
  907POPC   GL215806  31.389  33.201   9.099
  907POPC   C1A15807  31.409  32.804   8.793
  907POPC   D2A15808  31.577  32.937   8.396
  907POPC   C3A15809  31.424  32.864   7.997
  907POPC   C4A15810  31.638  32.835   7.624
  907POPC   C1B15811  31.326  33.391   8.696
  907POPC   C2B15812  31.540  33.434   8.294
  907POPC   C3B15813  31.543  33.335   7.865
  907POPC   C4B15814  31.431  33.331   7.424
  908POPC   NC315815  44.653  15.990   9.924
  908POPC   PO415816  44.618  16.272   9.371
  908POPC   GL115817  44.711  16.078   9.013
  908POPC   GL215818  44.823  15.755   9.055
  908POPC   C1A15819  44.624  15.960   8.626
  908POPC   D2A15820  44.473  16.255   8.362
  908POPC   C3A15821  44.667  16.153   8.003
  908POPC   C4A15822  44.486  16.038   7.634
  908POPC   C1B15823  44.991  15.591   8.651
  908POPC   C2B15824  44.947  15.673   8.211
  908POPC   C3B15825  44.842  15.680   7.772
  908POPC   C4B15826  44.998  15.731   7.329
  909POPC   NC315827   0.906  36.629   9.516
  909POPC   PO415828   1.090  35.931   9.470
  909POPC   GL115829   1.245  36.196   9.151
  909POPC   GL215830   0.939  36.350   9.097
  909POPC   C1A15831   1.265  36.210   8.705
  909POPC   D2A15832   1.126  35.966   8.338
  909POPC   C3A15833   1.313  35.992   7.949
  909POPC   C4A15834   1.152  35.941   7.628
  909POPC   C1B15835   0.799  36.623   8.788
  909POPC   C2B15836   0.712  36.496   8.376
  909POPC   C3B15837   0.929  36.364   8.005
  909POPC   C4B15838   0.915  36.396   7.561
  910POPC   NC315839   0.127  44.172   9.456
  910POPC   PO415840   0.753  44.484   9.630
  910POPC   GL115841   0.656  44.200   9.241
  910POPC   GL215842   0.428  43.880   9.156
  910POPC   C1A15843   0.658  44.133   8.777
  910POPC   D2A15844   0.435  43.975   8.421
  910POPC   C3A15845   0.569  44.074   8.010
  910POPC   C4A15846   0.886  44.089   7.673
  910POPC   C1B15847   0.362  43.594   8.764
  910POPC   C2B15848   0.422  43.486   8.291
  910POPC   C3B15849   0.440  43.625   7.843
  910POPC   C4B15850   0.137  43.610   7.511
  911POPC   NC315851   0.755  13.657   9.633
  911POPC   PO415852   0.054  13.885   9.518
  911POPC   GL115853   0.399  13.701   9.258
  911POPC   GL215854   0.713  13.881   9.100
  911POPC   C1A15855   0.450  13.540   8.835
  911POPC   D2A15856   0.416  13.694   8.424
  911POPC   C3A15857   0.518  13.439   8.075
  911POPC   C4A15858   0.568  13.328   7.646
  911POPC   C1B15859   0.340  14.051   8.894
  911POPC   C2B15860   0.274  14.180   8.482
  911POPC   C3B15861   0.393  14.229   8.052
  911POPC   C4B15862   0.435  13.847   7.768
  912POPC   NC315863  32.909  41.212   9.439
  912POPC   PO415864  33.200  41.874   9.495
  912POPC   GL115865  33.132  41.588   9.188
  912POPC   GL215866  32.866  41.653   9.132
  912POPC   C1A15867  33.040  41.368   8.752
  912POPC   D2A15868  33.080  41.462   8.305
  912POPC   C3A15869  32.973  41.212   7.935
  912POPC   C4A15870  32.744  41.366   7.566
  912POPC   C1B15871  32.879  41.878   8.800
  912POPC   C2B15872  33.071  41.957   8.456
  912POPC   C3B15873  33.045  41.985   8.053
  912POPC   C4B15874  33.124  41.696   7.768
  913POPC   NC315875  40.132  25.055   9.640
  913POPC   PO415876  40.491  25.183   9.172
  913POPC   GL115877  40.033  25.228   9.099
  913POPC   GL215878  39.805  24.937   9.078
  913POPC   C1A15879  39.914  25.482   8.727
  913POPC   D2A15880  40.192  25.570   8.387
  913POPC   C3A15881  40.038  25.440   8.002
  913POPC   C4A15882  40.120  25.595   7.613
  913POPC   C1B15883  39.927  24.983   8.648
  913POPC   C2B15884  40.092  24.946   8.238
  913POPC   C3B15885  39.830  24.984   7.885
  913POPC   C4B15886  39.772  25.271   7.493
  914POPC   NC315887  25.837   3.250   9.165
  914POPC   PO415888  26.117   3.488   9.734
  914POPC   GL115889  26.061   3.694   9.251
  914POPC   GL215890  26.382   3.690   9.028
  914POPC   C1A15891  25.940   3.754   8.801
  914POPC   D2A15892  26.169   3.478   8.522
  914POPC   C3A15893  25.951   3.456   8.130
  914POPC   C4A15894  25.874   3.455   7.715
  914POPC   C1B15895  26.371   3.974   8.653
  914POPC   C2B15896  26.215   3.910   8.232
  914POPC   C3B15897  26.219   3.833   7.793
  914POPC   C4B15898  26.178   3.682   7.358
  915POPC   NC315899  18.652  31.267   9.805
  915POPC   PO415900  18.049  31.382   9.531
  915POPC   GL115901  18.071  31.334   9.127
  915POPC   GL215902  18.408  31.323   9.057
  915POPC   C1A15903  18.050  31.443   8.712
  915POPC   D2A15904  17.854  31.228   8.423
  915POPC   C3A15905  18.065  31.354   8.089
  915POPC   C4A15906  18.198  31.316   7.685
  915POPC   C1B15907  18.560  31.494   8.726
  915POPC   C2B15908  18.418  31.624   8.356
  915POPC   C3B15909  18.557  31.570   7.965
  915POPC   C4B15910  18.365  31.791   7.680
  916POPC   NC315911  27.235  32.180   9.292
  916POPC   PO415912  27.815  32.508   9.436
  916POPC   GL115913  27.674  32.355   9.105
  916POPC   GL215914  27.751  32.014   9.162
  916POPC   C1A15915  27.477  32.525   8.755
  916POPC   D2A15916  27.398  32.749   8.410
  916POPC   C3A15917  27.541  32.476   8.087
  916POPC   C4A15918  27.608  32.385   7.669
  916POPC   C1B15919  27.552  31.988   8.747
  916POPC   C2B15920  27.429  31.890   8.329
  916POPC   C3B15921  27.628  31.725   7.961
  916POPC   C4B15922  27.451  31.880   7.603
  917POPC   NC315923  35.476  32.551   9.532
  917POPC   PO415924  35.229  33.116   9.463
  917POPC   GL115925  35.405  32.949   9.091
  917POPC   GL215926  35.717  32.718   9.092
  917POPC   C1A15927  35.271  33.192   8.729
  917POPC   D2A15928  35.365  33.069   8.335
  917POPC   C3A15929  35.207  33.232   7.981
  917POPC   C4A15930  35.354  33.464   7.647
  917POPC   C1B15931  35.608  32.566   8.642
  917POPC   C2B15932  35.666  32.704   8.187
  917POPC   C3B15933  35.582  32.926   7.783
  917POPC   C4B15934  35.531  32.752   7.330
  918POPC   NC315935  37.270  36.319   9.882
  918POPC   PO415936  36.971  35.743   9.588
  918POPC   GL115937  36.961  35.964   9.169
  918POPC   GL215938  36.962  36.323   9.099
  918POPC   C1A15939  37.012  36.007   8.723
  918POPC   D2A15940  36.893  35.905   8.326
  918POPC   C3A15941  36.840  36.257   8.071
  918POPC   C4A15942  36.989  36.106   7.698
  918POPC   C1B15943  37.202  36.598   8.805
  918POPC   C2B15944  37.282  36.751   8.373
  918POPC   C3B15945  37.276  36.538   7.928
  918POPC   C4B15946  37.257  36.483   7.443
  919POPC   NC315947  34.278   7.679   9.401
  919POPC   PO415948  34.021   7.153   9.610
  919POPC   GL115949  33.910   7.397   9.205
  919POPC   GL215950  33.640   7.677   9.173
  919POPC   C1A15951  34.137   7.498   8.797
  919POPC   D2A15952  34.017   7.682   8.401
  919POPC   C3A15953  34.008   7.481   8.051
  919POPC   C4A15954  33.909   7.605   7.647
  919POPC   C1B15955  33.640   7.529   8.741
  919POPC   C2B15956  33.462   7.461   8.314
  919POPC   C3B15957  33.453   7.477   7.864
  919POPC   C4B15958  33.442   7.569   7.416
  920POPC   NC315959  12.338  19.063   9.379
  920POPC   PO415960  11.789  19.229   9.581
  920POPC   GL115961  11.785  18.915   9.231
  920POPC   GL215962  11.973  19.077   9.030
  920POPC   C1A15963  11.851  18.643   8.812
  920POPC   D2A15964  11.868  18.754   8.380
  920POPC   C3A15965  12.074  18.808   7.970
  920POPC   C4A15966  12.054  19.062   7.570
  920POPC   C1B15967  12.197  19.027   8.652
  920POPC   C2B15968  12.054  19.233   8.254
  920POPC   C3B15969  12.085  19.474   7.859
  920POPC   C4B15970  12.331  19.458   7.434
  921POPC   NC315971   4.054  37.323   9.804
  921POPC   PO415972   4.238  37.983   9.595
  921POPC   GL115973   4.388  37.848   9.207
  921POPC   GL215974   4.063  37.772   9.144
  921POPC   C1A15975   4.382  37.632   8.798
  921POPC   D2A15976   4.158  37.692   8.443
  921POPC   C3A15977   4.461  37.636   8.164
  921POPC   C4A15978   4.672  37.560   7.812
  921POPC   C1B15979   3.991  38.025   8.823
  921POPC   C2B15980   3.788  38.067   8.444
  921POPC   C3B15981   3.926  37.977   8.040
  921POPC   C4B15982   4.243  37.841   7.752
  922POPC   NC315983  24.744   4.279   9.698
  922POPC   PO415984  24.136   4.598   9.662
  922POPC   GL115985  24.384   4.439   9.320
  922POPC   GL215986  24.171   4.621   9.133
  922POPC   C1A15987  24.460   4.156   8.957
  922POPC   D2A15988  24.148   4.144   8.598
  922POPC   C3A15989  24.304   4.314   8.196
  922POPC   C4A15990  24.592   4.156   7.847
  922POPC   C1B15991  24.370   4.630   8.748
  922POPC   C2B15992  24.331   4.846   8.382
  922POPC   C3B15993  24.179   4.794   7.983
  922POPC   C4B15994  24.132   4.446   7.723
  923POPC   NC315995  28.877  42.478   9.529
  923POPC   PO415996  29.529  42.418   9.324
  923POPC   GL115997  29.169  42.291   9.144
  923POPC   GL215998  28.993  41.987   9.202
  923POPC   C1A15999  29.077  42.363   8.750
  923POPC   D2A16000  28.974  42.604   8.397
  923POPC   C3A16001  29.134  42.435   8.037
  923POPC   C4A16002  29.296  42.528   7.642
  923POPC   C1B16003  28.784  41.970   8.790
  923POPC   C2B16004  28.882  42.102   8.360
  923POPC   C3B16005  28.747  42.146   7.946
  923POPC   C4B16006  28.866  42.238   7.509
  924POPC   NC316007  21.162  29.280   9.724
  924POPC   PO416008  21.479  29.814   9.515
  924POPC   GL116009  21.334  29.958   9.119
  924POPC   GL216010  21.662  29.842   9.046
  924POPC   C1A16011  21.397  30.054   8.655
  924POPC   D2A16012  21.641  29.979   8.277
  924POPC   C3A16013  21.391  29.841   7.955
  924POPC   C4A16014  21.290  29.784   7.508
  924POPC   C1B16015  21.825  29.728   8.685
  924POPC   C2B16016  22.110  29.624   8.377
  924POPC   C3B16017  22.058  29.828   8.001
  924POPC   C4B16018  21.783  29.649   7.720
  925POPC   NC316019   2.707  27.958   9.257
  925POPC   PO416020   3.012  27.420   9.581
  925POPC   GL116021   2.762  27.462   9.171
  925POPC   GL216022   2.377  27.512   9.262
  925POPC   C1A16023   2.866  27.624   8.725
  925POPC   D2A16024   2.871  27.860   8.336
  925POPC   C3A16025   2.918  27.632   7.959
  925POPC   C4A16026   2.645  27.698   7.621
  925POPC   C1B16027   2.290  27.403   8.845
  925POPC   C2B16028   2.464  27.483   8.430
  925POPC   C3B16029   2.540  27.277   8.056
  925POPC   C4B16030   2.369  27.276   7.681
  926POPC   NC316031  16.909  26.106   9.563
  926POPC   PO416032  16.355  26.425   9.799
  926POPC   GL116033  16.464  26.359   9.299
  926POPC   GL216034  16.738  26.155   9.102
  926POPC   C1A16035  16.449  26.423   8.803
  926POPC   D2A16036  16.258  26.196   8.432
  926POPC   C3A16037  16.507  26.077   8.061
  926POPC   C4A16038  16.732  25.689   7.919
  926POPC   C1B16039  16.971  26.063   8.698
  926POPC   C2B16040  16.938  26.283   8.273
  926POPC   C3B16041  16.989  26.197   7.814
  926POPC   C4B16042  17.002  26.133   7.373
  927POPC   NC316043  10.264  21.847   9.961
  927POPC   PO416044  10.562  21.325   9.708
  927POPC   GL116045  10.477  21.403   9.296
  927POPC   GL216046  10.689  21.163   9.179
  927POPC   C1A16047  10.419  21.550   8.902
  927POPC   D2A16048  10.538  21.643   8.507
  927POPC   C3A16049  10.272  21.574   8.171
  927POPC   C4A16050  10.359  21.481   7.743
  927POPC   C1B16051  10.710  21.123   8.757
  927POPC   C2B16052  10.457  21.156   8.404
  927POPC   C3B16053  10.424  21.054   7.989
  927POPC   C4B16054  10.670  21.113   7.602
  928POPC   NC316055   0.318  28.714   9.438
  928POPC   PO416056   0.562  28.093   9.554
  928POPC   GL116057   0.677  28.288   9.222
  928POPC   GL216058   0.856  28.541   9.376
  928POPC   C1A16059   0.469  28.382   8.826
  928POPC   D2A16060   0.293  28.511   8.434
  928POPC   C3A16061   0.345  28.266   8.057
  928POPC   C4A16062   0.198  28.507   7.721
  928POPC   C1B16063   0.854  28.721   8.967
  928POPC   C2B16064   0.875  28.692   8.567
  928POPC   C3B16065   0.755  28.561   8.199
  928POPC   C4B16066   0.712  28.518   7.783
  929POPC   NC316067  44.820  19.230   9.542
  929POPC   PO416068  44.243  18.966   9.634
  929POPC   GL116069  44.497  19.035   9.200
  929POPC   GL216070  44.638  19.382   9.102
  929POPC   C1A16071  44.427  19.022   8.747
  929POPC   D2A16072  44.656  18.886   8.386
  929POPC   C3A16073  44.462  18.714   8.008
  929POPC   C4A16074  44.393  19.077   7.813
  929POPC   C1B16075  44.849  19.360   8.717
  929POPC   C2B16076  44.635  19.397   8.357
  929POPC   C3B16077  44.591  19.537   7.964
  929POPC   C4B16078  44.877  19.387   7.680
  930POPC   NC316079  12.989  18.541   9.423
  930POPC   PO416080  12.671  18.011   9.591
  930POPC   GL116081  12.553  18.038   9.153
  930POPC   GL216082  12.663  18.360   9.083
  930POPC   C1A16083  12.781  17.989   8.751
  930POPC   D2A16084  12.702  17.982   8.319
  930POPC   C3A16085  12.973  18.077   7.991
  930POPC   C4A16086  12.861  18.164   7.553
  930POPC   C1B16087  12.912  18.509   8.726
  930POPC   C2B16088  13.095  18.493   8.283
  930POPC   C3B16089  12.969  18.592   7.824
  930POPC   C4B16090  12.837  18.676   7.373
  931POPC   NC316091   3.681  40.894   9.334
  931POPC   PO416092   3.272  40.419   9.535
  931POPC   GL116093   3.338  40.624   9.078
  931POPC   GL216094   3.753  40.585   8.962
  931POPC   C1A16095   3.448  40.949   8.737
  931POPC   D2A16096   3.708  41.041   8.373
  931POPC   C3A16097   3.449  41.086   7.999
  931POPC   C4A16098   3.758  41.016   7.689
  931POPC   C1B16099   3.544  40.422   8.644
  931POPC   C2B16100   3.409  40.626   8.335
  931POPC   C3B16101   3.655  40.628   8.027
  931POPC   C4B16102   3.442  40.537   7.677
  932POPC   NC316103  38.305  29.506   9.475
  932POPC   PO416104  38.627  28.860   9.396
  932POPC   GL116105  38.407  29.138   9.092
  932POPC   GL216106  38.518  29.488   9.020
  932POPC   C1A16107  38.147  29.010   8.736
  932POPC   D2A16108  38.163  28.806   8.351
  932POPC   C3A16109  38.497  29.011   8.139
  932POPC   C4A16110  38.690  28.975   7.738
  932POPC   C1B16111  38.138  29.523   8.763
  932POPC   C2B16112  38.100  29.373   8.330
  932POPC   C3B16113  38.278  29.380   7.875
  932POPC   C4B16114  38.415  29.413   7.446
  933POPC   NC316115  34.157  43.030   9.415
  933POPC   PO416116  33.600  43.308   9.685
  933POPC   GL116117  33.610  43.272   9.201
  933POPC   GL216118  33.950  43.340   9.075
  933POPC   C1A16119  33.693  43.026   8.777
  933POPC   D2A16120  33.997  42.875   8.426
  933POPC   C3A16121  33.812  42.990   8.019
  933POPC   C4A16122  33.520  43.249   7.787
  933POPC   C1B16123  33.984  43.457   8.644
  933POPC   C2B16124  34.108  43.344   8.225
  933POPC   C3B16125  33.957  43.525   7.851
  933POPC   C4B16126  34.044  43.499   7.415
  934POPC   NC316127  28.181  30.074   9.509
  934POPC   PO416128  28.541  29.526   9.676
  934POPC   GL116129  28.522  29.748   9.257
  934POPC   GL216130  28.653  30.079   9.142
  934POPC   C1A16131  28.351  29.792   8.833
  934POPC   D2A16132  28.497  29.811   8.412
  934POPC   C3A16133  28.291  29.992   8.065
  934POPC   C4A16134  28.262  29.774   7.697
  934POPC   C1B16135  28.600  30.310   8.769
  934POPC   C2B16136  28.804  30.231   8.393
  934POPC   C3B16137  28.781  30.013   8.022
  934POPC   C4B16138  28.547  30.194   7.643
  935POPC   NC316139  20.412   9.087   9.551
  935POPC   PO416140  21.078   8.847   9.484
  935POPC   GL116141  20.762   9.020   9.160
  935POPC   GL216142  20.379   8.920   9.099
  935POPC   C1A16143  20.711   8.889   8.733
  935POPC   D2A16144  20.721   8.636   8.426
  935POPC   C3A16145  20.692   8.807   8.075
  935POPC   C4A16146  20.822   8.620   7.735
  935POPC   C1B16147  20.359   9.254   8.775
  935POPC   C2B16148  20.559   9.302   8.377
  935POPC   C3B16149  20.369   9.193   8.005
  935POPC   C4B16150  20.397   8.935   7.664
  936POPC   NC316151  13.367  42.292   9.515
  936POPC   PO416152  13.966  42.636   9.377
  936POPC   GL116153  13.742  42.412   9.044
  936POPC   GL216154  13.526  42.104   9.041
  936POPC   C1A16155  13.656  42.347   8.598
  936POPC   D2A16156  13.655  42.205   8.190
  936POPC   C3A16157  13.585  42.491   7.926
  936POPC   C4A16158  13.882  42.642   7.649
  936POPC   C1B16159  13.853  41.909   8.751
  936POPC   C2B16160  13.849  41.750   8.283
  936POPC   C3B16161  13.925  41.948   7.834
  936POPC   C4B16162  14.119  41.810   7.422
  937POPC   NC316163   2.045  34.835   9.514
  937POPC   PO416164   2.029  35.587   9.492
  937POPC   GL116165   2.053  35.263   9.199
  937POPC   GL216166   1.721  35.169   9.262
  937POPC   C1A16167   2.149  35.427   8.804
  937POPC   D2A16168   1.958  35.530   8.446
  937POPC   C3A16169   2.061  35.361   8.088
  937POPC   C4A16170   2.338  35.296   7.788
  937POPC   C1B16171   1.644  35.286   8.825
  937POPC   C2B16172   1.451  35.422   8.449
  937POPC   C3B16173   1.553  35.269   8.049
  937POPC   C4B16174   1.798  35.198   7.676
  938POPC   NC316175  28.928   3.892  10.028
  938POPC   PO416176  28.343   4.147   9.696
  938POPC   GL116177  28.356   4.312   9.270
  938POPC   GL216178  28.077   4.492   9.149
  938POPC   C1A16179  28.387   4.152   8.836
  938POPC   D2A16180  28.351   4.176   8.372
  938POPC   C3A16181  28.663   4.425   8.110
  938POPC   C4A16182  29.061   4.253   7.885
  938POPC   C1B16183  28.169   4.626   8.691
  938POPC   C2B16184  28.163   4.655   8.218
  938POPC   C3B16185  28.205   4.334   7.895
  938POPC   C4B16186  28.173   4.329   7.434
  939POPC   NC316187  32.820  10.013   9.610
  939POPC   PO416188  33.444   9.726   9.522
  939POPC   GL116189  33.072   9.721   9.244
  939POPC   GL216190  32.933  10.056   9.110
  939POPC   C1A16191  32.989   9.518   8.846
  939POPC   D2A16192  33.180   9.606   8.429
  939POPC   C3A16193  32.937   9.488   8.062
  939POPC   C4A16194  32.821   9.705   7.737
  939POPC   C1B16195  32.865   9.983   8.654
  939POPC   C2B16196  32.805   9.954   8.222
  939POPC   C3B16197  32.829  10.192   7.845
  939POPC   C4B16198  32.769  10.102   7.380
  940POPC   NC316199   2.661  38.443   9.500
  940POPC   PO416200   3.301  38.110   9.436
  940POPC   GL116201   3.011  38.298   9.106
  940POPC   GL216202   2.640  38.209   9.055
  940POPC   C1A16203   2.899  38.635   8.823
  940POPC   D2A16204   2.932  38.744   8.397
  940POPC   C3A16205   2.623  38.700   8.094
  940POPC   C4A16206   2.886  38.683   7.754
  940POPC   C1B16207   2.567  38.323   8.600
  940POPC   C2B16208   2.401  38.230   8.201
  940POPC   C3B16209   2.616  38.256   7.810
  940POPC   C4B16210   2.506  38.292   7.352
  941POPC   NC316211  25.676   3.445   9.647
  941POPC   PO416212  25.026   3.522   9.443
  941POPC   GL116213  25.351   3.490   9.136
  941POPC   GL216214  25.423   3.816   8.927
  941POPC   C1A16215  25.288   3.346   8.732
  941POPC   D2A16216  25.452   3.301   8.324
  941POPC   C3A16217  25.160   3.342   7.994
  941POPC   C4A16218  25.328   3.451   7.624
  941POPC   C1B16219  25.050   3.982   8.685
  941POPC   C2B16220  24.944   4.053   8.224
  941POPC   C3B16221  25.127   3.895   7.816
  941POPC   C4B16222  25.588   3.857   7.759
  942POPC   NC316223   7.839  14.954   9.406
  942POPC   PO416224   8.113  15.521   9.475
  942POPC   GL116225   8.191  15.268   9.121
  942POPC   GL216226   7.851  15.235   8.983
  942POPC   C1A16227   8.231  15.390   8.699
  942POPC   D2A16228   7.892  15.417   8.469
  942POPC   C3A16229   7.949  15.314   8.093
  942POPC   C4A16230   8.276  15.162   7.861
  942POPC   C1B16231   8.090  14.899   8.777
  942POPC   C2B16232   8.246  14.949   8.384
  942POPC   C3B16233   8.115  14.734   8.049
  942POPC   C4B16234   8.370  14.527   7.761
  943POPC   NC316235  14.118  13.296   9.614
  943POPC   PO416236  14.653  13.762   9.456
  943POPC   GL116237  14.457  13.533   9.102
  943POPC   GL216238  14.104  13.422   9.096
  943POPC   C1A16239  14.342  13.564   8.646
  943POPC   D2A16240  14.113  13.765   8.319
  943POPC   C3A16241  14.156  13.685   7.894
  943POPC   C4A16242  14.118  13.773   7.468
  943POPC   C1B16243  13.876  13.377   8.669
  943POPC   C2B16244  14.055  13.253   8.232
  943POPC   C3B16245  14.449  13.263   7.975
  943POPC   C4B16246  14.682  13.661   7.902
  944POPC   NC316247  40.767   6.143   9.464
  944POPC   PO416248  40.514   5.527   9.575
  944POPC   GL116249  40.676   5.648   9.152
  944POPC   GL216250  41.002   5.812   9.138
  944POPC   C1A16251  40.627   5.813   8.745
  944POPC   D2A16252  40.443   5.882   8.337
  944POPC   C3A16253  40.534   6.217   8.119
  944POPC   C4A16254  40.681   6.170   7.753
  944POPC   C1B16255  41.024   5.489   8.801
  944POPC   C2B16256  40.828   5.530   8.364
  944POPC   C3B16257  40.863   5.719   7.913
  944POPC   C4B16258  41.078   5.625   7.494
  945POPC   NC316259  17.006  29.527   9.926
  945POPC   PO416260  16.458  29.391   9.447
  945POPC   GL116261  16.770  29.221   9.138
  945POPC   GL216262  16.493  29.184   8.938
  945POPC   C1A16263  16.896  29.036   8.715
  945POPC   D2A16264  16.594  29.061   8.393
  945POPC   C3A16265  16.827  28.960   8.049
  945POPC   C4A16266  16.903  28.811   7.652
  945POPC   C1B16267  16.591  29.493   8.682
  945POPC   C2B16268  16.386  29.519   8.315
  945POPC   C3B16269  16.275  29.237   8.022
  945POPC   C4B16270  16.491  29.096   7.689
  946POPC   NC316271   8.452   3.393   9.856
  946POPC   PO416272   8.913   3.592   9.528
  946POPC   GL116273   8.866   3.802   9.117
  946POPC   GL216274   8.707   3.549   8.904
  946POPC   C1A16275   9.027   3.901   8.686
  946POPC   D2A16276   9.277   3.764   8.314
  946POPC   C3A16277   9.129   3.561   7.914
  946POPC   C4A16278   9.273   3.547   7.467
  946POPC   C1B16279   8.526   3.751   8.557
  946POPC   C2B16280   8.761   3.850   8.193
  946POPC   C3B16281   8.853   3.972   7.788
  946POPC   C4B16282   8.526   3.899   7.511
  947POPC   NC316283  27.201  38.376   9.305
  947POPC   PO416284  27.800  38.644   9.572
  947POPC   GL116285  27.661  38.593   9.172
  947POPC   GL216286  27.853  38.273   9.139
  947POPC   C1A16287  27.540  38.705   8.760
  947POPC   D2A16288  27.720  38.612   8.356
  947POPC   C3A16289  27.602  38.683   7.952
  947POPC   C4A16290  27.410  38.425   7.662
  947POPC   C1B16291  27.587  38.203   8.774
  947POPC   C2B16292  27.300  38.300   8.412
  947POPC   C3B16293  27.127  38.170   8.006
  947POPC   C4B16294  27.290  37.928   7.614
  948POPC   NC316295  40.534   2.213   9.459
  948POPC   PO416296  40.993   1.634   9.473
  948POPC   GL116297  40.975   1.867   9.048
  948POPC   GL216298  40.667   1.905   9.073
  948POPC   C1A16299  40.806   2.150   8.661
  948POPC   D2A16300  40.610   2.259   8.259
  948POPC   C3A16301  40.781   2.051   7.906
  948POPC   C4A16302  40.946   1.632   7.926
  948POPC   C1B16303  40.642   1.658   8.740
  948POPC   C2B16304  40.728   1.731   8.376
  948POPC   C3B16305  40.373   1.789   8.213
  948POPC   C4B16306  40.362   1.789   7.817
  949POPC   NC316307  39.996  29.584   9.353
  949POPC   PO416308  40.096  30.268   9.528
  949POPC   GL116309  39.773  30.123   9.201
  949POPC   GL216310  39.568  29.811   9.098
  949POPC   C1A16311  39.898  30.097   8.758
  949POPC   D2A16312  40.038  30.274   8.347
  949POPC   C3A16313  40.195  30.013   7.998
  949POPC   C4A16314  40.052  29.772   7.657
  949POPC   C1B16315  39.730  29.593   8.753
  949POPC   C2B16316  40.001  29.699   8.421
  949POPC   C3B16317  39.904  29.531   8.059
  949POPC   C4B16318  39.628  29.483   7.757
  950POPC   NC316319   7.926   2.968   9.437
  950POPC   PO416320   7.291   2.912   9.489
  950POPC   GL116321   7.469   2.691   9.112
  950POPC   GL216322   7.699   2.487   9.258
  950POPC   C1A16323   7.456   2.726   8.648
  950POPC   D2A16324   7.537   2.747   8.214
  950POPC   C3A16325   7.239   2.678   7.946
  950POPC   C4A16326   6.977   2.901   7.688
  950POPC   C1B16327   7.728   2.330   8.818
  950POPC   C2B16328   7.854   2.295   8.378
  950POPC   C3B16329   7.907   2.499   7.960
  950POPC   C4B16330   7.726   2.845   7.720
  951POPC   NC316331  18.198  10.247   9.256
  951POPC   PO416332  18.707  10.716   9.418
  951POPC   GL116333  18.501  10.633   9.043
  951POPC   GL216334  18.153  10.759   9.128
  951POPC   C1A16335  18.489  10.378   8.657
  951POPC   D2A16336  18.409  10.045   8.331
  951POPC   C3A16337  18.387  10.255   7.910
  951POPC   C4A16338  18.431  10.338   7.442
  951POPC   C1B16339  18.007  10.582   8.732
  951POPC   C2B16340  18.127  10.484   8.316
  951POPC   C3B16341  18.135  10.716   7.974
  951POPC   C4B16342  18.091  10.685   7.548
  952POPC   NC316343  20.845  26.518   9.498
  952POPC   PO416344  20.410  27.098   9.535
  952POPC   GL116345  20.638  26.934   9.214
  952POPC   GL216346  20.442  26.663   9.181
  952POPC   C1A16347  20.578  26.967   8.762
  952POPC   D2A16348  20.412  26.875   8.349
  952POPC   C3A16349  20.549  27.045   7.965
  952POPC   C4A16350  20.710  26.961   7.578
  952POPC   C1B16351  20.669  26.438   8.874
  952POPC   C2B16352  20.705  26.444   8.449
  952POPC   C3B16353  20.681  26.545   8.033
  952POPC   C4B16354  20.538  26.480   7.628
  953POPC   NC316355  23.270   6.446   9.634
  953POPC   PO416356  22.837   6.960   9.431
  953POPC   GL116357  22.838   6.665   9.089
  953POPC   GL216358  23.147   6.592   9.168
  953POPC   C1A16359  22.992   6.291   8.807
  953POPC   D2A16360  23.132   6.350   8.406
  953POPC   C3A16361  22.910   6.691   8.226
  953POPC   C4A16362  22.632   6.779   7.887
  953POPC   C1B16363  23.321   6.722   8.785
  953POPC   C2B16364  23.356   6.842   8.383
  953POPC   C3B16365  23.418   6.577   8.054
  953POPC   C4B16366  23.130   6.628   7.752
  954POPC   NC316367  30.923  36.571   9.370
  954POPC   PO416368  31.532  36.768   9.568
  954POPC   GL116369  31.416  36.776   9.186
  954POPC   GL216370  31.729  36.639   9.067
  954POPC   C1A16371  31.469  37.022   8.804
  954POPC   D2A16372  31.475  37.210   8.397
  954POPC   C3A16373  31.270  37.040   8.037
  954POPC   C4A16374  31.611  36.994   7.825
  954POPC   C1B16375  31.817  36.569   8.635
  954POPC   C2B16376  31.804  36.671   8.179
  954POPC   C3B16377  31.831  36.559   7.743
  954POPC   C4B16378  31.941  36.926   7.437
  955POPC   NC316379  43.602  17.125   9.426
  955POPC   PO416380  43.174  17.563   9.632
  955POPC   GL116381  43.253  17.536   9.198
  955POPC   GL216382  43.163  17.210   9.115
  955POPC   C1A16383  43.408  17.783   8.828
  955POPC   D2A16384  43.596  17.888   8.413
  955POPC   C3A16385  43.326  17.750   8.045
  955POPC   C4A16386  42.974  17.624   7.752
  955POPC   C1B16387  43.024  17.429   8.722
  955POPC   C2B16388  42.849  17.473   8.284
  955POPC   C3B16389  42.875  17.152   7.972
  955POPC   C4B16390  42.923  17.140   7.535
  956POPC   NC316391  40.835  38.181   9.513
  956POPC   PO416392  41.296  38.707   9.479
  956POPC   GL116393  40.910  38.574   9.180
  956POPC   GL216394  40.573  38.706   9.312
  956POPC   C1A16395  40.662  38.229   8.897
  956POPC   D2A16396  40.747  38.020   8.491
  956POPC   C3A16397  40.708  38.177   8.083
  956POPC   C4A16398  40.862  38.429   7.744
  956POPC   C1B16399  40.507  38.726   8.880
  956POPC   C2B16400  40.678  38.560   8.502
  956POPC   C3B16401  40.547  38.668   8.108
  956POPC   C4B16402  40.337  38.439   7.813
  957POPC   NC316403  16.423  41.019   9.773
  957POPC   PO416404  16.849  40.598   9.574
  957POPC   GL116405  16.817  40.943   9.243
  957POPC   GL216406  16.521  41.150   9.273
  957POPC   C1A16407  17.046  41.207   8.902
  957POPC   D2A16408  17.189  41.324   8.470
  957POPC   C3A16409  16.975  41.193   8.063
  957POPC   C4A16410  16.831  40.746   7.927
  957POPC   C1B16411  16.555  41.081   8.798
  957POPC   C2B16412  16.556  41.072   8.327
  957POPC   C3B16413  16.468  41.112   7.875
  957POPC   C4B16414  16.453  40.794   7.531
  958POPC   NC316415  22.138  33.306   9.748
  958POPC   PO416416  22.524  32.795   9.594
  958POPC   GL116417  22.339  33.093   9.291
  958POPC   GL216418  22.000  33.228   9.253
  958POPC   C1A16419  22.384  33.119   8.841
  958POPC   D2A16420  22.188  32.908   8.505
  958POPC   C3A16421  22.230  33.037   8.091
  958POPC   C4A16422  22.175  32.873   7.688
  958POPC   C1B16423  21.937  33.341   8.818
  958POPC   C2B16424  21.806  33.225   8.402
  958POPC   C3B16425  21.819  33.327   7.971
  958POPC   C4B16426  21.785  33.213   7.550
  959POPC   NC316427  41.707  23.982   9.323
  959POPC   PO416428  41.139  23.687   9.564
  959POPC   GL116429  41.318  23.745   9.110
  959POPC   GL216430  41.694  23.681   8.933
  959POPC   C1A16431  41.291  23.872   8.693
  959POPC   D2A16432  41.322  23.602   8.346
  959POPC   C3A16433  41.587  23.586   8.003
  959POPC   C4A16434  41.290  23.650   7.693
  959POPC   C1B16435  41.820  23.631   8.515
  959POPC   C2B16436  42.040  23.897   8.216
  959POPC   C3B16437  42.024  23.831   7.791
  959POPC   C4B16438  41.671  23.924   7.563
  960POPC   NC316439  32.480  30.798   9.358
  960POPC   PO416440  31.909  30.349   9.407
  960POPC   GL116441  32.124  30.568   9.057
  960POPC   GL216442  32.033  30.926   9.098
  960POPC   C1A16443  32.483  30.549   8.723
  960POPC   D2A16444  32.622  30.670   8.309
  960POPC   C3A16445  32.243  30.688   8.121
  960POPC   C4A16446  32.149  30.645   7.730
  960POPC   C1B16447  31.885  31.138   8.729
  960POPC   C2B16448  31.955  31.081   8.301
  960POPC   C3B16449  32.020  31.143   7.868
  960POPC   C4B16450  32.015  31.025   7.432
  961POPC   NC316451   5.338  27.748   9.475
  961POPC   PO416452   4.771  27.417   9.446
  961POPC   GL116453   4.955  27.637   9.110
  961POPC   GL216454   5.281  27.438   9.070
  961POPC   C1A16455   4.717  27.766   8.721
  961POPC   D2A16456   4.507  27.564   8.348
  961POPC   C3A16457   4.713  27.510   7.948
  961POPC   C4A16458   4.895  27.865   7.757
  961POPC   C1B16459   5.258  27.691   8.697
  961POPC   C2B16460   5.062  27.654   8.295
  961POPC   C3B16461   5.290  27.587   7.909
  961POPC   C4B16462   5.654  27.863   7.862
  962POPC   NC316463  35.731  36.027   9.599
  962POPC   PO416464  35.165  35.764   9.519
  962POPC   GL116465  35.327  36.052   9.189
  962POPC   GL216466  35.709  36.063   9.095
  962POPC   C1A16467  35.161  35.992   8.770
  962POPC   D2A16468  35.383  36.010   8.385
  962POPC   C3A16469  35.225  36.158   7.996
  962POPC   C4A16470  35.187  36.105   7.543
  962POPC   C1B16471  35.555  36.324   8.780
  962POPC   C2B16472  35.669  36.487   8.407
  962POPC   C3B16473  35.724  36.256   8.075
  962POPC   C4B16474  35.639  36.277   7.694
  963POPC   NC316475  33.478  18.322   9.567
  963POPC   PO416476  34.085  18.622   9.529
  963POPC   GL116477  34.039  18.431   9.147
  963POPC   GL216478  33.713  18.290   9.132
  963POPC   C1A16479  34.045  18.333   8.735
  963POPC   D2A16480  34.279  18.457   8.407
  963POPC   C3A16481  34.073  18.260   8.107
  963POPC   C4A16482  34.039  18.239   7.680
  963POPC   C1B16483  33.683  17.969   8.857
  963POPC   C2B16484  33.698  18.030   8.431
  963POPC   C3B16485  33.630  17.978   8.017
  963POPC   C4B16486  33.536  18.155   7.629
  964POPC   NC316487   3.877  16.471   9.424
  964POPC   PO416488   3.538  17.054   9.437
  964POPC   GL116489   3.456  16.723   9.142
  964POPC   GL216490   3.708  16.450   8.961
  964POPC   C1A16491   3.280  16.590   8.759
  964POPC   D2A16492   3.487  16.528   8.362
  964POPC   C3A16493   3.426  16.829   8.012
  964POPC   C4A16494   3.359  16.749   7.592
  964POPC   C1B16495   3.787  16.803   8.727
  964POPC   C2B16496   3.873  16.858   8.313
  964POPC   C3B16497   3.870  16.614   7.951
  964POPC   C4B16498   3.846  16.861   7.622
  965POPC   NC316499  37.482   7.984   9.432
  965POPC   PO416500  38.113   8.337   9.525
  965POPC   GL116501  37.851   8.407   9.181
  965POPC   GL216502  37.515   8.519   9.293
  965POPC   C1A16503  37.678   8.209   8.823
  965POPC   D2A16504  37.482   8.142   8.399
  965POPC   C3A16505  37.755   8.052   8.052
  965POPC   C4A16506  37.908   7.902   7.638
  965POPC   C1B16507  37.550   8.722   8.896
  965POPC   C2B16508  37.707   8.596   8.497
  965POPC   C3B16509  37.647   8.557   8.083
  965POPC   C4B16510  37.453   8.327   7.742
  966POPC   NC316511   9.188   1.316   9.702
  966POPC   PO416512   8.569   1.351   9.515
  966POPC   GL116513   8.917   1.229   9.253
  966POPC   GL216514   8.769   0.931   9.184
  966POPC   C1A16515   9.034   1.289   8.794
  966POPC   D2A16516   8.847   1.574   8.460
  966POPC   C3A16517   8.870   1.422   8.054
  966POPC   C4A16518   9.152   1.084   7.910
  966POPC   C1B16519   8.544   1.175   8.834
  966POPC   C2B16520   8.499   1.183   8.360
  966POPC   C3B16521   8.585   1.039   7.901
  966POPC   C4B16522   8.394   0.925   7.493
  967POPC   NC316523  20.527  15.694   9.464
  967POPC   PO416524  21.056  16.159   9.537
  967POPC   GL116525  20.802  15.987   9.140
  967POPC   GL216526  20.442  15.933   9.030
  967POPC   C1A16527  20.826  15.809   8.709
  967POPC   D2A16528  20.658  15.827   8.265
  967POPC   C3A16529  20.820  15.627   7.864
  967POPC   C4A16530  20.904  15.684   7.390
  967POPC   C1B16531  20.499  16.199   8.663
  967POPC   C2B16532  20.760  16.322   8.319
  967POPC   C3B16533  20.761  16.175   7.893
  967POPC   C4B16534  20.369  15.931   7.836
  968POPC   NC316535   1.798  24.052   9.661
  968POPC   PO416536   1.137  23.755   9.655
  968POPC   GL116537   1.116  23.941   9.230
  968POPC   GL216538   0.778  23.903   9.098
  968POPC   C1A16539   1.174  23.951   8.748
  968POPC   D2A16540   0.999  23.793   8.336
  968POPC   C3A16541   1.137  23.730   7.931
  968POPC   C4A16542   1.522  23.650   7.852
  968POPC   C1B16543   0.664  23.707   8.718
  968POPC   C2B16544   0.881  23.339   8.534
  968POPC   C3B16545   0.898  23.328   8.102
  968POPC   C4B16546   0.774  23.419   7.677
  969POPC   NC316547  44.520  33.000   9.709
  969POPC   PO416548  44.404  32.559   9.315
  969POPC   GL116549  44.430  32.913   9.090
  969POPC   GL216550  44.625  33.195   9.096
  969POPC   C1A16551  44.545  32.942   8.667
  969POPC   D2A16552  44.846  33.128   8.442
  969POPC   C3A16553  44.644  33.132   8.088
  969POPC   C4A16554  44.715  32.891   7.788
  969POPC   C1B16555  44.766  33.504   8.806
  969POPC   C2B16556   0.064  33.587   8.508
  969POPC   C3B16557  44.958  33.526   8.100
  969POPC   C4B16558   0.012  33.332   7.725
  970POPC   NC316559   4.642  42.130   9.883
  970POPC   PO416560   4.271  42.586   9.610
  970POPC   GL116561   4.381  42.252   9.253
  970POPC   GL216562   4.076  42.093   9.091
  970POPC   C1A16563   4.450  42.184   8.782
  970POPC   D2A16564   4.120  42.288   8.465
  970POPC   C3A16565   4.254  42.301   8.030
  970POPC   C4A16566   4.595  42.145   7.780
  970POPC   C1B16567   3.997  42.508   8.920
  970POPC   C2B16568   4.136  42.790   8.579
  970POPC   C3B16569   4.085  42.800   8.142
  970POPC   C4B16570   3.973  42.613   7.742
  971POPC   NC316571  23.209  33.937   9.425
  971POPC   PO416572  22.791  34.361   9.229
  971POPC   GL116573  22.902  34.023   8.986
  971POPC   GL216574  22.889  33.687   9.083
  971POPC   C1A16575  22.779  33.970   8.581
  971POPC   D2A16576  22.535  33.943   8.224
  971POPC   C3A16577  22.814  33.949   7.882
  971POPC   C4A16578  22.845  33.887   7.428
  971POPC   C1B16579  22.928  33.474   8.689
  971POPC   C2B16580  22.851  33.551   8.275
  971POPC   C3B16581  23.013  33.501   7.836
  971POPC   C4B16582  23.382  33.277   7.769
  972POPC   NC316583  17.320  13.895   9.794
  972POPC   PO416584  17.902  13.631   9.524
  972POPC   GL116585  17.631  13.536   9.150
  972POPC   GL216586  17.306  13.711   9.213
  972POPC   C1A16587  17.680  13.436   8.688
  972POPC   D2A16588  17.688  13.267   8.256
  972POPC   C3A16589  17.806  13.646   8.033
  972POPC   C4A16590  17.678  13.798   7.636
  972POPC   C1B16591  17.208  13.590   8.786
  972POPC   C2B16592  17.382  13.708   8.352
  972POPC   C3B16593  17.297  13.596   7.905
  972POPC   C4B16594  17.104  13.843   7.554
  973POPC   NC316595  33.532  41.539   9.514
  973POPC   PO416596  34.070  41.881   9.384
  973POPC   GL116597  33.815  41.591   9.088
  973POPC   GL216598  33.544  41.334   9.062
  973POPC   C1A16599  33.796  41.453   8.665
  973POPC   D2A16600  33.776  41.273   8.370
  973POPC   C3A16601  33.993  41.410   8.023
  973POPC   C4A16602  33.835  41.584   7.634
  973POPC   C1B16603  33.396  41.720   8.784
  973POPC   C2B16604  33.522  41.745   8.325
  973POPC   C3B16605  33.486  41.427   7.978
  973POPC   C4B16606  33.362  41.333   7.544
  974POPC   NC316607  41.506   3.804   9.367
  974POPC   PO416608  40.982   4.256   9.587
  974POPC   GL116609  41.320   4.237   9.185
  974POPC   GL216610  41.648   4.283   9.254
  974POPC   C1A16611  41.475   4.075   8.774
  974POPC   D2A16612  41.648   4.235   8.400
  974POPC   C3A16613  41.646   4.063   7.986
  974POPC   C4A16614  41.485   4.192   7.568
  974POPC   C1B16615  41.943   4.314   8.944
  974POPC   C2B16616  42.114   4.311   8.563
  974POPC   C3B16617  42.085   4.302   8.112
  974POPC   C4B16618  41.968   4.373   7.681
  975POPC   NC316619  28.046  26.737   9.424
  975POPC   PO416620  28.705  27.029   9.339
  975POPC   GL116621  28.490  26.910   8.951
  975POPC   GL216622  28.173  27.021   9.028
  975POPC   C1A16623  28.491  26.775   8.483
  975POPC   D2A16624  28.232  26.518   8.183
  975POPC   C3A16625  28.404  26.659   7.826
  975POPC   C4A16626  28.508  27.057   7.948
  975POPC   C1B16627  28.025  26.834   8.655
  975POPC   C2B16628  28.093  27.080   8.282
  975POPC   C3B16629  28.004  27.013   7.872
  975POPC   C4B16630  27.922  26.606   7.698
  976POPC   NC316631  22.981  44.922   9.412
  976POPC   PO416632  23.161   0.550   9.584
  976POPC   GL116633  23.187   0.379   9.174
  976POPC   GL216634  22.862   0.374   9.171
  976POPC   C1A16635  23.122   0.371   8.730
  976POPC   D2A16636  23.059   0.194   8.329
  976POPC   C3A16637  23.099   0.458   7.999
  976POPC   C4A16638  22.968   0.347   7.584
  976POPC   C1B16639  22.614   0.289   8.826
  976POPC   C2B16640  22.562   0.125   8.414
  976POPC   C3B16641  22.605   0.316   8.017
  976POPC   C4B16642  22.486   0.188   7.600
  977POPC   NC316643  32.703  41.976   9.491
  977POPC   PO416644  32.893  42.655   9.570
  977POPC   GL116645  32.733  42.431   9.205
  977POPC   GL216646  33.010  42.210   9.142
  977POPC   C1A16647  32.680  42.342   8.756
  977POPC   D2A16648  32.902  42.433   8.344
  977POPC   C3A16649  32.731  42.357   7.881
  977POPC   C4A16650  32.741  42.367   7.371
  977POPC   C1B16651  33.302  42.240   8.792
  977POPC   C2B16652  33.431  42.277   8.340
  977POPC   C3B16653  33.249  42.479   7.979
  977POPC   C4B16654  33.428  42.750   7.697
  978POPC   NC316655  39.855  40.316   9.395
  978POPC   PO416656  39.779  39.689   9.650
  978POPC   GL116657  39.888  39.765   9.069
  978POPC   GL216658  39.889  40.121   8.919
  978POPC   C1A16659  39.634  39.810   8.611
  978POPC   D2A16660  39.519  39.825   8.151
  978POPC   C3A16661  39.793  40.064   7.862
  978POPC   C4A16662  39.923  39.829   7.518
  978POPC   C1B16663  40.144  39.939   8.622
  978POPC   C2B16664  40.042  39.805   8.227
  978POPC   C3B16665  40.292  39.921   7.877
  978POPC   C4B16666  40.554  40.293   7.748
  979POPC   NC316667  16.349   3.347   9.409
  979POPC   PO416668  16.973   3.418   9.697
  979POPC   GL116669  17.086   3.350   9.229
  979POPC   GL216670  16.752   3.295   9.086
  979POPC   C1A16671  17.051   3.514   8.761
  979POPC   D2A16672  16.672   3.504   8.451
  979POPC   C3A16673  16.647   3.703   8.042
  979POPC   C4A16674  16.944   3.722   7.694
  979POPC   C1B16675  16.749   3.064   8.691
  979POPC   C2B16676  16.631   2.990   8.270
  979POPC   C3B16677  16.745   3.211   7.918
  979POPC   C4B16678  16.727   3.075   7.535
  980POPC   NC316679   4.110   1.071   9.509
  980POPC   PO416680   4.566   1.522   9.455
  980POPC   GL116681   4.198   1.460   9.181
  980POPC   GL216682   4.315   1.132   9.035
  980POPC   C1A16683   4.038   1.476   8.765
  980POPC   D2A16684   4.203   1.543   8.353
  980POPC   C3A16685   4.204   1.237   8.014
  980POPC   C4A16686   4.338   1.323   7.587
  980POPC   C1B16687   4.570   1.424   8.746
  980POPC   C2B16688   4.758   1.540   8.322
  980POPC   C3B16689   4.708   1.285   7.932
  980POPC   C4B16690   4.500   0.872   7.760
  981POPC   NC316691   7.703  42.538   9.536
  981POPC   PO416692   7.377  41.998   9.535
  981POPC   GL116693   7.439  42.255   9.208
  981POPC   GL216694   7.186  42.506   9.311
  981POPC   C1A16695   7.624  42.455   8.854
  981POPC   D2A16696   7.421  42.356   8.444
  981POPC   C3A16697   7.664  42.343   8.040
  981POPC   C4A16698   7.677  42.344   7.545
  981POPC   C1B16699   7.115  42.471   8.871
  981POPC   C2B16700   6.972  42.697   8.527
  981POPC   C3B16701   7.097  42.670   8.113
  981POPC   C4B16702   7.212  42.341   7.822
  982POPC   NC316703  37.682  37.151   9.512
  982POPC   PO416704  37.633  36.489   9.658
  982POPC   GL116705  37.568  36.696   9.221
  982POPC   GL216706  37.875  36.788   9.121
  982POPC   C1A16707  37.544  37.020   8.833
  982POPC   D2A16708  37.565  37.190   8.400
  982POPC   C3A16709  37.358  37.107   8.001
  982POPC   C4A16710  37.529  36.906   7.635
  982POPC   C1B16711  37.724  36.575   8.697
  982POPC   C2B16712  37.948  36.433   8.324
  982POPC   C3B16713  38.228  36.662   8.011
  982POPC   C4B16714  38.093  36.925   7.643
  983POPC   NC316715  15.772  14.031   9.478
  983POPC   PO416716  16.055  13.404   9.307
  983POPC   GL116717  15.801  13.702   9.099
  983POPC   GL216718  16.097  13.903   9.094
  983POPC   C1A16719  15.743  13.844   8.689
  983POPC   D2A16720  15.949  13.562   8.388
  983POPC   C3A16721  15.795  13.504   7.977
  983POPC   C4A16722  16.014  13.349   7.670
  983POPC   C1B16723  16.313  13.755   8.744
  983POPC   C2B16724  16.458  13.904   8.348
  983POPC   C3B16725  16.274  13.723   7.998
  983POPC   C4B16726  15.999  13.857   7.675
  984POPC   NC316727   0.214  24.379   9.483
  984POPC   PO416728   0.843  24.697   9.493
  984POPC   GL116729   0.662  24.422   9.172
  984POPC   GL216730   0.309  24.522   9.023
  984POPC   C1A16731   0.657  24.283   8.745
  984POPC   D2A16732   0.317  24.459   8.496
  984POPC   C3A16733   0.246  24.348   8.083
  984POPC   C4A16734   0.525  24.287   7.756
  984POPC   C1B16735   0.551  24.808   8.807
  984POPC   C2B16736   0.434  24.940   8.388
  984POPC   C3B16737   0.377  24.863   7.956
  984POPC   C4B16738   0.546  25.074   7.595
  985POPC   NC316739   3.434  35.359   9.487
  985POPC   PO416740   3.383  34.728   9.471
  985POPC   GL116741   3.264  35.069   9.106
  985POPC   GL216742   3.327  35.446   8.996
  985POPC   C1A16743   3.341  35.061   8.633
  985POPC   D2A16744   3.491  35.308   8.297
  985POPC   C3A16745   3.362  35.337   7.845
  985POPC   C4A16746   3.464  35.195   7.408
  985POPC   C1B16747   3.511  35.717   8.653
  985POPC   C2B16748   3.453  35.796   8.208
  985POPC   C3B16749   3.450  35.824   7.766
  985POPC   C4B16750   3.575  35.682   7.359
  986POPC   NC316751   0.030  16.796   9.520
  986POPC   PO416752  44.505  16.455   9.856
  986POPC   GL116753  44.557  16.744   9.330
  986POPC   GL216754  44.872  16.590   9.086
  986POPC   C1A16755  44.458  16.725   8.855
  986POPC   D2A16756  44.417  16.893   8.439
  986POPC   C3A16757  44.608  16.675   8.114
  986POPC   C4A16758  44.456  16.539   7.743
  986POPC   C1B16759  44.869  17.020   8.896
  986POPC   C2B16760  44.886  17.197   8.470
  986POPC   C3B16761  44.902  17.073   8.016
  986POPC   C4B16762   0.048  16.635   7.838
  987POPC   NC316763  26.619  43.706   9.695
  987POPC   PO416764  26.086  44.034   9.413
  987POPC   GL116765  25.931  43.829   9.058
  987POPC   GL216766  25.785  44.130   8.935
  987POPC   C1A16767  26.075  43.588   8.678
  987POPC   D2A16768  26.426  43.749   8.393
  987POPC   C3A16769  26.331  43.907   7.968
  987POPC   C4A16770  26.017  43.709   7.745
  987POPC   C1B16771  26.058  44.081   8.577
  987POPC   C2B16772  25.894  43.889   8.234
  987POPC   C3B16773  25.709  44.083   7.894
  987POPC   C4B16774  25.903  44.375   7.627
  988POPC   NC316775  21.850  27.825   9.460
  988POPC   PO416776  21.147  27.651   9.546
  988POPC   GL116777  21.424  27.659   9.209
  988POPC   GL216778  21.381  28.018   9.204
  988POPC   C1A16779  21.542  27.650   8.762
  988POPC   D2A16780  21.346  27.511   8.336
  988POPC   C3A16781  21.539  27.288   8.004
  988POPC   C4A16782  21.731  27.389   7.625
  988POPC   C1B16783  21.239  28.068   8.801
  988POPC   C2B16784  21.415  28.027   8.408
  988POPC   C3B16785  21.350  28.035   7.972
  988POPC   C4B16786  21.343  27.705   7.682
  989POPC   NC316787  35.822   8.401   9.472
  989POPC   PO416788  36.277   7.829   9.630
  989POPC   GL116789  36.377   7.909   9.190
  989POPC   GL216790  36.209   8.237   9.141
  989POPC   C1A16791  36.226   7.909   8.760
  989POPC   D2A16792  36.194   8.227   8.442
  989POPC   C3A16793  36.023   8.237   8.020
  989POPC   C4A16794  36.059   7.916   7.728
  989POPC   C1B16795  36.542   8.346   8.809
  989POPC   C2B16796  36.544   8.609   8.423
  989POPC   C3B16797  36.298   8.664   8.072
  989POPC   C4B16798  36.366   8.471   7.669
  990POPC   NC316799  28.949  41.398   9.500
  990POPC   PO416800  29.402  41.791   9.458
  990POPC   GL116801  29.532  41.473   9.200
  990POPC   GL216802  29.210  41.532   9.046
  990POPC   C1A16803  29.507  41.186   8.827
  990POPC   D2A16804  29.256  41.320   8.467
  990POPC   C3A16805  29.248  41.366   7.989
  990POPC   C4A16806  28.955  41.263   7.641
  990POPC   C1B16807  29.249  41.807   8.675
  990POPC   C2B16808  29.300  41.811   8.226
  990POPC   C3B16809  29.178  41.912   7.818
  990POPC   C4B16810  29.344  42.050   7.433
  991POPC   NC316811  20.475  30.485   9.965
  991POPC   PO416812  20.877  30.455   9.534
  991POPC   GL116813  20.684  30.664   9.175
  991POPC   GL216814  20.386  30.827   9.096
  991POPC   C1A16815  20.615  30.477   8.759
  991POPC   D2A16816  20.610  30.307   8.376
  991POPC   C3A16817  20.855  30.466   8.019
  991POPC   C4A16818  20.946  30.636   7.596
  991POPC   C1B16819  20.175  31.014   8.749
  991POPC   C2B16820  19.986  31.125   8.348
  991POPC   C3B16821  20.253  31.022   8.028
  991POPC   C4B16822  20.363  30.963   7.598
  992POPC   NC316823  42.932  23.030   9.501
  992POPC   PO416824  42.222  23.001   9.643
  992POPC   GL116825  42.069  23.099   9.236
  992POPC   GL216826  42.422  23.138   9.132
  992POPC   C1A16827  41.937  23.178   8.838
  992POPC   D2A16828  42.156  22.995   8.475
  992POPC   C3A16829  42.137  22.995   8.007
  992POPC   C4A16830  41.921  23.260   7.694
  992POPC   C1B16831  42.714  23.203   8.792
  992POPC   C2B16832  42.658  22.961   8.423
  992POPC   C3B16833  42.701  23.071   8.006
  992POPC   C4B16834  42.796  23.146   7.599
  993POPC   NC316835   0.023  29.371   9.510
  993POPC   PO416836   0.642  29.085   9.461
  993POPC   GL116837   0.432  29.351   9.138
  993POPC   GL216838   0.200  29.103   9.104
  993POPC   C1A16839   0.290  29.381   8.687
  993POPC   D2A16840   0.491  29.496   8.297
  993POPC   C3A16841   0.535  29.329   7.884
  993POPC   C4A16842   0.342  29.407   7.472
  993POPC   C1B16843   0.407  28.894   8.780
  993POPC   C2B16844   0.523  28.991   8.367
  993POPC   C3B16845   0.398  28.866   8.002
  993POPC   C4B16846   0.489  28.926   7.569
  994POPC   NC316847  20.085  42.135   9.444
  994POPC   PO416848  19.772  42.674   9.671
  994POPC   GL116849  19.660  42.461   9.281
  994POPC   GL216850  19.537  42.721   9.093
  994POPC   C1A16851  19.598  42.257   8.869
  994POPC   D2A16852  19.826  42.052   8.525
  994POPC   C3A16853  19.800  42.147   8.071
  994POPC   C4A16854  20.089  42.187   7.735
  994POPC   C1B16855  19.668  42.753   8.709
  994POPC   C2B16856  19.569  42.521   8.350
  994POPC   C3B16857  19.538  42.652   7.944
  994POPC   C4B16858  19.532  42.362   7.646
  995POPC   NC316859   2.474  35.553   9.686
  995POPC   PO416860   2.846  35.031   9.643
  995POPC   GL116861   2.692  35.275   9.241
  995POPC   GL216862   2.459  35.586   9.185
  995POPC   C1A16863   2.813  35.484   8.846
  995POPC   D2A16864   3.065  35.526   8.505
  995POPC   C3A16865   2.957  35.270   8.180
  995POPC   C4A16866   2.802  35.481   7.842
  995POPC   C1B16867   2.457  35.832   8.778
  995POPC   C2B16868   2.511  35.649   8.373
  995POPC   C3B16869   2.383  35.793   7.984
  995POPC   C4B16870   2.490  35.797   7.553
  996POPC   NC316871  17.174   7.074   9.846
  996POPC   PO416872  17.596   6.678   9.451
  996POPC   GL116873  17.526   6.568   9.021
  996POPC   GL216874  17.873   6.654   9.033
  996POPC   C1A16875  17.361   6.641   8.593
  996POPC   D2A16876  17.550   6.796   8.211
  996POPC   C3A16877  17.373   6.577   7.846
  996POPC   C4A16878  17.099   6.242   7.737
  996POPC   C1B16879  17.815   6.872   8.686
  996POPC   C2B16880  17.849   7.207   8.444
  996POPC   C3B16881  17.934   7.120   8.052
  996POPC   C4B16882  17.782   6.856   7.725
  997POPC   NC316883  27.373  33.640   9.554
  997POPC   PO416884  27.779  34.198   9.581
  997POPC   GL116885  27.653  33.955   9.216
  997POPC   GL216886  27.313  34.018   9.231
  997POPC   C1A16887  27.810  33.732   8.814
  997POPC   D2A16888  28.018  33.778   8.403
  997POPC   C3A16889  27.825  33.603   7.970
  997POPC   C4A16890  27.545  33.944   7.718
  997POPC   C1B16891  27.305  33.696   8.879
  997POPC   C2B16892  27.254  33.633   8.408
  997POPC   C3B16893  27.322  33.543   7.926
  997POPC   C4B16894  27.279  33.608   7.442
  998POPC   NC316895  31.479  41.121   9.386
  998POPC   PO416896  31.235  40.556   9.443
  998POPC   GL116897  31.638  40.619   9.196
  998POPC   GL216898  31.871  40.930   9.136
  998POPC   C1A16899  31.606  40.702   8.760
  998POPC   D2A16900  31.385  40.897   8.433
  998POPC   C3A16901  31.411  40.696   8.060
  998POPC   C4A16902  31.745  40.517   7.841
  998POPC   C1B16903  31.677  41.204   8.789
  998POPC   C2B16904  31.722  41.266   8.356
  998POPC   C3B16905  31.830  41.046   8.036
  998POPC   C4B16906  31.566  41.060   7.724
  999POPC   NC316907  43.543  21.356   9.616
  999POPC   PO416908  44.228  21.500   9.575
  999POPC   GL116909  43.895  21.458   9.238
  999POPC   GL216910  43.589  21.691   9.245
  999POPC   C1A16911  43.920  21.284   8.824
  999POPC   D2A16912  43.996  21.481   8.433
  999POPC   C3A16913  44.117  21.236   8.051
  999POPC   C4A16914  43.918  21.216   7.691
  999POPC   C1B16915  43.599  21.685   8.802
  999POPC   C2B16916  43.532  21.770   8.363
  999POPC   C3B16917  43.743  21.596   8.000
  999POPC   C4B16918  43.600  21.601   7.581
 1000POPC   NC316919   6.025  36.914   9.578
 1000POPC   PO416920   5.554  37.272   9.274
 1000POPC   GL116921   5.739  36.900   9.145
 1000POPC   GL216922   6.078  37.017   9.090
 1000POPC   C1A16923   5.833  36.787   8.714
 1000POPC   D2A16924   5.884  37.086   8.371
 1000POPC   C3A16925   5.904  36.893   7.969
 1000POPC   C4A16926   5.726  36.864   7.568
 1000POPC   C1B16927   6.282  37.073   8.724
 1000POPC   C2B16928   6.346  37.357   8.406
 1000POPC   C3B16929   6.190  37.334   8.014
 1000POPC   C4B16930   6.060  37.252   7.626
 1001POPC   NC316931  21.154  15.670   9.557
 1001POPC   PO416932  21.621  16.034   9.773
 1001POPC   GL116933  21.545  15.949   9.298
 1001POPC   GL216934  21.302  16.045   9.123
 1001POPC   C1A16935  21.539  15.728   8.833
 1001POPC   D2A16936  21.242  15.684   8.465
 1001POPC   C3A16937  21.168  15.984   8.141
 1001POPC   C4A16938  21.249  15.862   7.723
 1001POPC   C1B16939  21.537  16.253   8.816
 1001POPC   C2B16940  21.612  16.076   8.393
 1001POPC   C3B16941  21.667  16.135   7.940
 1001POPC   C4B16942  21.605  16.086   7.450
 1002POPC   NC316943  35.613  24.231   9.538
 1002POPC   PO416944  35.242  24.796   9.573
 1002POPC   GL116945  35.473  24.702   9.141
 1002POPC   GL216946  35.475  24.342   9.054
 1002POPC   C1A16947  35.349  24.682   8.671
 1002POPC   D2A16948  35.305  24.811   8.230
 1002POPC   C3A16949  35.192  24.587   7.812
 1002POPC   C4A16950  34.910  24.596   7.390
 1002POPC   C1B16951  35.697  24.293   8.648
 1002POPC   C2B16952  35.606  24.397   8.205
 1002POPC   C3B16953  35.514  24.170   7.790
 1002POPC   C4B16954  35.538  24.060   7.318
 1003POPC   NC316955  32.364  22.382   9.574
 1003POPC   PO416956  31.820  21.980   9.535
 1003POPC   GL116957  32.072  22.148   9.179
 1003POPC   GL216958  32.454  22.082   9.171
 1003POPC   C1A16959  32.014  22.060   8.737
 1003POPC   D2A16960  31.782  22.155   8.387
 1003POPC   C3A16961  31.969  22.274   7.994
 1003POPC   C4A16962  32.166  22.016   7.692
 1003POPC   C1B16963  32.487  22.248   8.750
 1003POPC   C2B16964  32.370  22.103   8.331
 1003POPC   C3B16965  32.594  22.151   7.962
 1003POPC   C4B16966  32.552  22.364   7.587
 1004POPC   NC316967  40.733  23.956   9.549
 1004POPC   PO416968  40.615  23.332   9.447
 1004POPC   GL116969  40.824  23.575   9.167
 1004POPC   GL216970  41.013  23.339   9.011
 1004POPC   C1A16971  40.802  23.928   8.881
 1004POPC   D2A16972  40.790  23.991   8.429
 1004POPC   C3A16973  40.941  23.826   8.037
 1004POPC   C4A16974  40.842  23.848   7.586
 1004POPC   C1B16975  40.935  23.492   8.670
 1004POPC   C2B16976  40.831  23.384   8.335
 1004POPC   C3B16977  41.067  23.304   8.015
 1004POPC   C4B16978  40.894  23.340   7.650
 1005POPC   NC316979  14.792   8.658   9.551
 1005POPC   PO416980  14.243   8.221   9.606
 1005POPC   GL116981  14.375   8.185   9.198
 1005POPC   GL216982  14.429   8.535   9.187
 1005POPC   C1A16983  14.472   8.002   8.785
 1005POPC   D2A16984  14.421   7.757   8.387
 1005POPC   C3A16985  14.414   7.983   7.967
 1005POPC   C4A16986  14.493   8.312   7.670
 1005POPC   C1B16987  14.189   8.443   8.807
 1005POPC   C2B16988  14.201   8.242   8.390
 1005POPC   C3B16989  14.095   8.389   7.985
 1005POPC   C4B16990  13.936   8.231   7.601
 1006POPC   NC316991   7.333  30.176   9.641
 1006POPC   PO416992   7.249  30.790   9.602
 1006POPC   GL116993   7.266  30.512   9.216
 1006POPC   GL216994   6.958  30.438   9.053
 1006POPC   C1A16995   7.464  30.432   8.783
 1006POPC   D2A16996   7.678  30.278   8.371
 1006POPC   C3A16997   7.565  30.408   7.934
 1006POPC   C4A16998   7.602  30.625   7.513
 1006POPC   C1B16999   7.012  30.226   8.685
 1006POPC   C2B17000   7.186  30.344   8.306
 1006POPC   C3B17001   7.050  30.506   7.942
 1006POPC   C4B17002   7.117  30.848   7.670
 1007POPC   NC317003  33.328  26.858   9.473
 1007POPC   PO417004  32.687  26.719   9.379
 1007POPC   GL117005  32.976  26.893   9.069
 1007POPC   GL217006  33.217  26.630   9.024
 1007POPC   C1A17007  33.082  26.894   8.615
 1007POPC   D2A17008  33.342  26.727   8.309
 1007POPC   C3A17009  33.184  26.956   7.977
 1007POPC   C4A17010  32.763  27.157   8.001
 1007POPC   C1B17011  32.902  26.454   8.762
 1007POPC   C2B17012  32.669  26.560   8.432
 1007POPC   C3B17013  32.782  26.403   8.042
 1007POPC   C4B17014  33.090  26.508   7.725
 1008POPC   NC317015  21.144   6.934   9.682
 1008POPC   PO417016  21.265   6.330   9.628
 1008POPC   GL117017  21.247   6.645   9.285
 1008POPC   GL217018  21.178   6.448   9.098
 1008POPC   C1A17019  21.503   6.800   8.886
 1008POPC   D2A17020  21.794   6.779   8.505
 1008POPC   C3A17021  21.579   6.703   8.086
 1008POPC   C4A17022  21.521   6.940   7.667
 1008POPC   C1B17023  20.997   6.316   8.763
 1008POPC   C2B17024  21.159   6.497   8.425
 1008POPC   C3B17025  21.184   6.316   8.044
 1008POPC   C4B17026  21.331   6.480   7.653
 1009POPC   NC317027  37.784  42.946   9.428
 1009POPC   PO417028  37.396  43.469   9.588
 1009POPC   GL117029  37.532  43.369   9.156
 1009POPC   GL217030  37.896  43.322   9.092
 1009POPC   C1A17031  37.509  43.215   8.728
 1009POPC   D2A17032  37.277  43.062   8.373
 1009POPC   C3A17033  37.389  43.221   7.987
 1009POPC   C4A17034  37.391  42.887   7.708
 1009POPC   C1B17035  37.956  42.944   8.775
 1009POPC   C2B17036  37.977  42.624   8.403
 1009POPC   C3B17037  37.782  42.716   8.010
 1009POPC   C4B17038  37.836  43.128   7.795
 1010POPC   NC317039  30.745  11.026   9.384
 1010POPC   PO417040  31.304  11.208   9.702
 1010POPC   GL117041  31.124  11.358   9.228
 1010POPC   GL217042  30.843  11.540   9.093
 1010POPC   C1A17043  31.052  11.185   8.777
 1010POPC   D2A17044  30.893  11.077   8.396
 1010POPC   C3A17045  30.704  11.371   8.122
 1010POPC   C4A17046  30.848  11.409   7.704
 1010POPC   C1B17047  30.575  11.398   8.722
 1010POPC   C2B17048  30.381  11.083   8.423
 1010POPC   C3B17049  30.476  10.934   7.994
 1010POPC   C4B17050  30.368  11.236   7.697
 1011POPC   NC317051   6.162  44.772   9.371
 1011POPC   PO417052   5.707  44.259   9.459
 1011POPC   GL117053   5.860  44.464   9.081
 1011POPC   GL217054   6.204  44.375   9.050
 1011POPC   C1A17055   5.947  44.772   8.737
 1011POPC   D2A17056   5.775   0.045   8.433
 1011POPC   C3A17057   5.611  44.904   8.068
 1011POPC   C4A17058   5.898  44.792   7.792
 1011POPC   C1B17059   6.065  44.288   8.627
 1011POPC   C2B17060   5.915  44.473   8.219
 1011POPC   C3B17061   5.773  44.298   7.804
 1011POPC   C4B17062   6.102  44.402   7.481
 1012POPC   NC317063  21.881  14.384   9.281
 1012POPC   PO417064  21.374  14.617   9.677
 1012POPC   GL117065  21.382  14.488   9.257
 1012POPC   GL217066  21.441  14.168   9.135
 1012POPC   C1A17067  21.311  14.608   8.841
 1012POPC   D2A17068  21.228  14.821   8.443
 1012POPC   C3A17069  21.565  14.720   8.196
 1012POPC   C4A17070  21.691  14.562   7.825
 1012POPC   C1B17071  21.515  14.139   8.701
 1012POPC   C2B17072  21.507  14.184   8.264
 1012POPC   C3B17073  21.688  13.994   7.889
 1012POPC   C4B17074  21.508  13.932   7.443
 1013POPC   NC317075  25.200  36.015   9.454
 1013POPC   PO417076  25.351  36.615   9.533
 1013POPC   GL117077  25.552  36.352   9.190
 1013POPC   GL217078  25.643  35.973   9.175
 1013POPC   C1A17079  25.408  36.254   8.773
 1013POPC   D2A17080  25.302  36.027   8.397
 1013POPC   C3A17081  25.346  36.261   8.019
 1013POPC   C4A17082  25.098  36.249   7.637
 1013POPC   C1B17083  25.349  35.715   8.865
 1013POPC   C2B17084  25.330  35.518   8.435
 1013POPC   C3B17085  25.583  35.732   8.079
 1013POPC   C4B17086  25.494  35.910   7.667
 1014POPC   NC317087   8.851  11.893   9.607
 1014POPC   PO417088   8.586  12.481   9.610
 1014POPC   GL117089   8.757  12.357   9.205
 1014POPC   GL217090   9.051  12.165   9.195
 1014POPC   C1A17091   8.767  12.173   8.779
 1014POPC   D2A17092   8.807  12.365   8.391
 1014POPC   C3A17093   8.798  12.131   8.023
 1014POPC   C4A17094   9.092  12.147   7.693
 1014POPC   C1B17095   9.127  11.831   8.881
 1014POPC   C2B17096   9.121  11.902   8.442
 1014POPC   C3B17097   9.172  11.771   8.042
 1014POPC   C4B17098   9.321  11.569   7.655
 1015POPC   NC317099   3.405  20.677   9.573
 1015POPC   PO417100   3.644  20.162   9.388
 1015POPC   GL117101   3.417  20.435   9.119
 1015POPC   GL217102   3.646  20.715   9.076
 1015POPC   C1A17103   3.281  20.603   8.722
 1015POPC   D2A17104   3.433  20.793   8.350
 1015POPC   C3A17105   3.551  20.525   8.030
 1015POPC   C4A17106   3.280  20.342   7.723
 1015POPC   C1B17107   3.890  20.885   8.693
 1015POPC   C2B17108   3.933  20.935   8.215
 1015POPC   C3B17109   3.695  20.962   7.818
 1015POPC   C4B17110   3.822  20.789   7.409
 1016POPC   NC317111   0.802   0.994   9.351
 1016POPC   PO417112   0.580   1.583   9.655
 1016POPC   GL117113   0.535   1.401   9.180
 1016POPC   GL217114   0.210   1.509   9.056
 1016POPC   C1A17115   0.439   1.250   8.693
 1016POPC   D2A17116   0.188   1.370   8.274
 1016POPC   C3A17117   0.426   1.331   7.848
 1016POPC   C4A17118   0.661   1.335   7.385
 1016POPC   C1B17119  44.948   1.213   8.809
 1016POPC   C2B17120  44.997   0.914   8.448
 1016POPC   C3B17121   0.195   0.869   8.015
 1016POPC   C4B17122   0.109   1.027   7.571
 1017POPC   NC317123   2.477   5.738   9.461
 1017POPC   PO417124   3.120   5.707   9.293
 1017POPC   GL117125   2.778   5.686   9.042
 1017POPC   GL217126   2.595   5.971   9.045
 1017POPC   C1A17127   2.598   5.700   8.609
 1017POPC   D2A17128   2.376   5.621   8.220
 1017POPC   C3A17129   2.598   5.871   7.882
 1017POPC   C4A17130   3.014   5.781   7.813
 1017POPC   C1B17131   2.892   6.117   8.743
 1017POPC   C2B17132   2.910   5.980   8.316
 1017POPC   C3B17133   2.975   6.270   8.019
 1017POPC   C4B17134   2.916   6.211   7.592
 1018POPC   NC317135  33.889  21.455   9.599
 1018POPC   PO417136  33.369  20.971   9.602
 1018POPC   GL117137  33.664  21.095   9.252
 1018POPC   GL217138  33.818  21.439   9.104
 1018POPC   C1A17139  33.765  21.016   8.820
 1018POPC   D2A17140  33.606  21.066   8.401
 1018POPC   C3A17141  33.841  21.169   8.031
 1018POPC   C4A17142  33.974  21.144   7.565
 1018POPC   C1B17143  33.642  21.517   8.666
 1018POPC   C2B17144  33.702  21.672   8.219
 1018POPC   C3B17145  33.930  21.606   7.813
 1018POPC   C4B17146  34.022  21.621   7.354
 1019POPC   NC317147  32.122   8.203   9.373
 1019POPC   PO417148  32.758   7.860   9.475
 1019POPC   GL117149  32.476   7.951   9.123
 1019POPC   GL217150  32.568   8.284   9.047
 1019POPC   C1A17151  32.221   8.068   8.722
 1019POPC   D2A17152  32.302   8.165   8.258
 1019POPC   C3A17153  32.139   7.941   7.888
 1019POPC   C4A17154  32.256   7.928   7.450
 1019POPC   C1B17155  32.532   8.455   8.659
 1019POPC   C2B17156  32.150   8.578   8.520
 1019POPC   C3B17157  32.149   8.626   8.092
 1019POPC   C4B17158  32.248   8.408   7.687
 1020POPC   NC317159  44.301  17.738   9.816
 1020POPC   PO417160  44.794  17.226   9.612
 1020POPC   GL117161  44.752  17.421   9.203
 1020POPC   GL217162  44.433  17.232   9.165
 1020POPC   C1A17163  44.807  17.648   8.783
 1020POPC   D2A17164  44.530  17.876   8.462
 1020POPC   C3A17165  44.560  17.833   8.031
 1020POPC   C4A17166  44.676  17.489   7.810
 1020POPC   C1B17167  44.416  17.326   8.725
 1020POPC   C2B17168  44.449  17.373   8.275
 1020POPC   C3B17169  44.371  17.097   7.926
 1020POPC   C4B17170  44.649  16.987   7.582
 1021POPC   NC317171  24.244  16.458   9.129
 1021POPC   PO417172  24.480  17.044   9.519
 1021POPC   GL117173  24.595  16.821   9.146
 1021POPC   GL217174  24.225  16.950   9.092
 1021POPC   C1A17175  24.697  16.653   8.705
 1021POPC   D2A17176  24.678  16.909   8.326
 1021POPC   C3A17177  24.733  16.717   7.947
 1021POPC   C4A17178  24.593  16.375   7.751
 1021POPC   C1B17179  24.378  17.038   8.728
 1021POPC   C2B17180  24.160  17.030   8.388
 1021POPC   C3B17181  24.218  16.785   8.043
 1021POPC   C4B17182  24.343  16.903   7.664
 1022POPC   NC317183  32.881  34.342   9.584
 1022POPC   PO417184  33.222  34.885   9.398
 1022POPC   GL117185  33.040  34.588   9.142
 1022POPC   GL217186  33.293  34.348   9.249
 1022POPC   C1A17187  32.924  34.665   8.708
 1022POPC   D2A17188  32.686  34.517   8.318
 1022POPC   C3A17189  32.933  34.545   7.939
 1022POPC   C4A17190  33.020  34.800   7.563
 1022POPC   C1B17191  33.187  34.215   8.833
 1022POPC   C2B17192  33.113  34.242   8.405
 1022POPC   C3B17193  33.286  34.065   8.049
 1022POPC   C4B17194  33.174  34.039   7.623
 1023POPC   NC317195   1.804  31.553   9.680
 1023POPC   PO417196   2.394  31.472   9.690
 1023POPC   GL117197   2.078  31.451   9.270
 1023POPC   GL217198   1.694  31.578   9.207
 1023POPC   C1A17199   2.052  31.612   8.845
 1023POPC   D2A17200   2.073  31.627   8.410
 1023POPC   C3A17201   2.182  31.302   8.107
 1023POPC   C4A17202   2.062  31.264   7.674
 1023POPC   C1B17203   1.561  31.714   8.851
 1023POPC   C2B17204   1.571  31.574   8.429
 1023POPC   C3B17205   1.769  31.573   8.007
 1023POPC   C4B17206   1.845  31.703   7.557
 1024POPC   NC317207  20.689   3.441   9.525
 1024POPC   PO417208  20.096   3.849   9.307
 1024POPC   GL117209  20.501   3.664   9.110
 1024POPC   GL217210  20.583   3.284   9.053
 1024POPC   C1A17211  20.766   3.627   8.747
 1024POPC   D2A17212  20.613   3.703   8.335
 1024POPC   C3A17213  20.881   3.686   7.955
 1024POPC   C4A17214  20.841   3.333   7.673
 1024POPC   C1B17215  20.346   3.242   8.675
 1024POPC   C2B17216  20.195   3.367   8.260
 1024POPC   C3B17217  20.412   3.500   7.892
 1024POPC   C4B17218  20.389   3.530   7.448
 1025POPC   NC317219  16.922  11.642   9.481
 1025POPC   PO417220  16.633  12.231   9.613
 1025POPC   GL117221  16.554  11.909   9.256
 1025POPC   GL217222  16.853  11.996   9.113
 1025POPC   C1A17223  16.547  11.772   8.785
 1025POPC   D2A17224  16.673  11.975   8.361
 1025POPC   C3A17225  16.604  11.924   7.949
 1025POPC   C4A17226  16.994  11.817   7.745
 1025POPC   C1B17227  16.906  12.218   8.733
 1025POPC   C2B17228  17.092  12.330   8.330
 1025POPC   C3B17229  16.924  12.323   7.927
 1025POPC   C4B17230  16.861  12.227   7.499
 1026POPC   NC317231  39.498  39.562   9.316
 1026POPC   PO417232  38.881  39.491   9.262
 1026POPC   GL117233  39.132  39.300   9.036
 1026POPC   GL217234  39.309  39.054   9.199
 1026POPC   C1A17235  39.055  39.284   8.638
 1026POPC   D2A17236  38.737  39.163   8.412
 1026POPC   C3A17237  38.971  39.219   8.070
 1026POPC   C4A17238  39.105  38.951   7.753
 1026POPC   C1B17239  39.551  39.161   8.773
 1026POPC   C2B17240  39.568  39.338   8.346
 1026POPC   C3B17241  39.548  39.084   7.953
 1026POPC   C4B17242  39.531  38.744   7.580
 1027POPC   NC317243  13.624   7.857   9.394
 1027POPC   PO417244  13.506   8.482   9.481
 1027POPC   GL117245  13.869   8.267   9.220
 1027POPC   GL217246  13.636   8.285   9.011
 1027POPC   C1A17247  13.936   8.004   8.765
 1027POPC   D2A17248  13.713   8.110   8.371
 1027POPC   C3A17249  13.924   7.906   8.061
 1027POPC   C4A17250  13.891   7.726   7.677
 1027POPC   C1B17251  13.702   8.531   8.668
 1027POPC   C2B17252  13.566   8.663   8.282
 1027POPC   C3B17253  13.588   8.430   7.928
 1027POPC   C4B17254  13.468   8.027   7.867
 1028POPC   NC317255  30.178  28.672   9.363
 1028POPC   PO417256  30.649  28.248   9.536
 1028POPC   GL117257  30.725  28.145   9.134
 1028POPC   GL217258  30.573  28.464   9.043
 1028POPC   C1A17259  31.016  28.126   8.782
 1028POPC   D2A17260  31.030  28.283   8.370
 1028POPC   C3A17261  30.674  28.228   8.085
 1028POPC   C4A17262  30.650  28.534   7.747
 1028POPC   C1B17263  30.807  28.632   8.683
 1028POPC   C2B17264  30.657  28.710   8.254
 1028POPC   C3B17265  30.326  28.893   7.979
 1028POPC   C4B17266  30.221  28.761   7.569
 1029POPC   NC317267  15.665   6.179   9.666
 1029POPC   PO417268  16.103   6.698   9.636
 1029POPC   GL117269  15.973   6.871   9.208
 1029POPC   GL217270  16.283   7.006   9.114
 1029POPC   C1A17271  15.776   6.672   8.778
 1029POPC   D2A17272  15.853   6.376   8.396
 1029POPC   C3A17273  15.656   6.435   7.992
 1029POPC   C4A17274  15.831   6.655   7.648
 1029POPC   C1B17275  16.003   7.129   8.762
 1029POPC   C2B17276  15.921   6.970   8.345
 1029POPC   C3B17277  16.141   6.690   8.075
 1029POPC   C4B17278  16.351   6.693   7.688
 1030POPC   NC317279   7.193  35.732   9.597
 1030POPC   PO417280   6.724  35.344   9.720
 1030POPC   GL117281   6.708  35.501   9.260
 1030POPC   GL217282   7.004  35.681   9.095
 1030POPC   C1A17283   6.603  35.258   8.866
 1030POPC   D2A17284   6.377  35.215   8.459
 1030POPC   C3A17285   6.584  35.267   8.019
 1030POPC   C4A17286   6.704  34.993   7.641
 1030POPC   C1B17287   6.675  35.738   8.751
 1030POPC   C2B17288   6.508  35.691   8.311
 1030POPC   C3B17289   6.266  35.674   7.917
 1030POPC   C4B17290   6.329  35.658   7.478
 1031POPC   NC317291  38.848  34.134   9.334
 1031POPC   PO417292  39.236  34.700   9.310
 1031POPC   GL117293  39.154  34.435   9.045
 1031POPC   GL217294  39.392  34.231   9.136
 1031POPC   C1A17295  39.194  34.537   8.655
 1031POPC   D2A17296  39.390  34.708   8.357
 1031POPC   C3A17297  39.116  34.742   8.012
 1031POPC   C4A17298  39.066  34.546   7.609
 1031POPC   C1B17299  39.648  34.380   8.805
 1031POPC   C2B17300  39.770  34.357   8.395
 1031POPC   C3B17301  39.584  34.447   7.962
 1031POPC   C4B17302  39.420  34.111   7.732
 1032POPC   NC317303  37.305  35.388   9.544
 1032POPC   PO417304  37.927  35.050   9.485
 1032POPC   GL117305  37.870  35.039   9.067
 1032POPC   GL217306  37.727  35.384   9.094
 1032POPC   C1A17307  37.872  35.153   8.633
 1032POPC   D2A17308  37.724  35.391   8.293
 1032POPC   C3A17309  37.676  35.207   7.921
 1032POPC   C4A17310  37.367  35.066   7.651
 1032POPC   C1B17311  37.802  35.658   8.733
 1032POPC   C2B17312  37.790  35.900   8.314
 1032POPC   C3B17313  37.790  35.718   7.879
 1032POPC   C4B17314  37.714  35.745   7.382
 1033POPC   NC317315  29.681  42.799   9.546
 1033POPC   PO417316  30.312  42.963   9.624
 1033POPC   GL117317  30.263  42.969   9.201
 1033POPC   GL217318  30.141  43.299   9.239
 1033POPC   C1A17319  29.942  43.016   8.835
 1033POPC   D2A17320  29.587  43.215   8.587
 1033POPC   C3A17321  29.642  43.253   8.128
 1033POPC   C4A17322  29.932  43.135   7.807
 1033POPC   C1B17323  30.361  43.326   8.848
 1033POPC   C2B17324  30.421  43.138   8.468
 1033POPC   C3B17325  30.228  43.326   8.161
 1033POPC   C4B17326  30.422  43.416   7.800
 1034POPC   NC317327  25.639  42.486   9.587
 1034POPC   PO417328  26.266  42.440   9.548
 1034POPC   GL117329  26.008  42.379   9.194
 1034POPC   GL217330  25.756  42.130   9.207
 1034POPC   C1A17331  26.021  42.556   8.793
 1034POPC   D2A17332  26.268  42.536   8.419
 1034POPC   C3A17333  26.065  42.478   8.032
 1034POPC   C4A17334  26.084  42.647   7.618
 1034POPC   C1B17335  25.881  42.065   8.799
 1034POPC   C2B17336  25.864  42.209   8.419
 1034POPC   C3B17337  25.860  42.006   8.038
 1034POPC   C4B17338  25.672  42.283   7.712
 1035POPC   NC317339  13.779  42.962   9.636
 1035POPC   PO417340  13.252  42.705   9.832
 1035POPC   GL117341  13.441  42.759   9.308
 1035POPC   GL217342  13.692  43.004   9.138
 1035POPC   C1A17343  13.440  42.743   8.803
 1035POPC   D2A17344  13.645  42.806   8.354
 1035POPC   C3A17345  13.518  42.991   7.923
 1035POPC   C4A17346  13.429  42.796   7.508
 1035POPC   C1B17347  13.947  42.862   8.769
 1035POPC   C2B17348  14.165  42.834   8.362
 1035POPC   C3B17349  14.076  43.033   7.924
 1035POPC   C4B17350  13.968  43.074   7.428
 1036POPC   NC317351  10.718  19.312   9.598
 1036POPC   PO417352  10.167  18.891   9.409
 1036POPC   GL117353  10.409  19.070   9.134
 1036POPC   GL217354  10.768  19.025   9.181
 1036POPC   C1A17355  10.498  18.969   8.701
 1036POPC   D2A17356  10.335  18.792   8.312
 1036POPC   C3A17357  10.550  18.971   7.955
 1036POPC   C4A17358  10.402  19.288   7.664
 1036POPC   C1B17359  10.683  19.408   8.917
 1036POPC   C2B17360  10.566  19.445   8.496
 1036POPC   C3B17361  10.668  19.537   8.090
 1036POPC   C4B17362  10.888  19.348   7.787
 1037POPC   NC317363  19.116  25.531   9.446
 1037POPC   PO417364  18.889  24.941   9.655
 1037POPC   GL117365  18.856  25.117   9.223
 1037POPC   GL217366  19.166  25.307   9.009
 1037POPC   C1A17367  18.745  25.165   8.809
 1037POPC   D2A17368  18.998  25.267   8.498
 1037POPC   C3A17369  18.834  24.996   8.223
 1037POPC   C4A17370  19.000  24.974   7.850
 1037POPC   C1B17371  19.393  25.557   8.711
 1037POPC   C2B17372  19.499  25.556   8.309
 1037POPC   C3B17373  19.195  25.442   8.042
 1037POPC   C4B17374  19.154  25.423   7.646
 1038POPC   NC317375   4.827  31.594   9.385
 1038POPC   PO417376   5.364  31.304   9.633
 1038POPC   GL117377   5.207  31.304   9.212
 1038POPC   GL217378   5.358  31.655   9.170
 1038POPC   C1A17379   5.039  31.260   8.777
 1038POPC   D2A17380   4.873  31.508   8.428
 1038POPC   C3A17381   5.002  31.403   8.012
 1038POPC   C4A17382   4.824  31.493   7.626
 1038POPC   C1B17383   5.122  31.771   8.804
 1038POPC   C2B17384   5.227  31.913   8.388
 1038POPC   C3B17385   5.230  31.849   7.937
 1038POPC   C4B17386   5.197  31.797   7.488
 1039POPC   NC317387   3.164  36.230   9.429
 1039POPC   PO417388   2.564  35.990   9.604
 1039POPC   GL117389   2.730  36.023   9.209
 1039POPC   GL217390   2.957  35.738   9.263
 1039POPC   C1A17391   2.732  36.275   8.813
 1039POPC   D2A17392   2.597  36.163   8.398
 1039POPC   C3A17393   2.379  36.386   8.094
 1039POPC   C4A17394   2.715  36.385   7.839
 1039POPC   C1B17395   3.091  35.905   8.869
 1039POPC   C2B17396   3.108  36.073   8.485
 1039POPC   C3B17397   2.944  35.896   8.121
 1039POPC   C4B17398   2.951  35.962   7.698
 1040POPC   NC317399  31.792  13.888   9.815
 1040POPC   PO417400  32.364  14.093   9.535
 1040POPC   GL117401  32.176  13.787   9.253
 1040POPC   GL217402  31.853  13.731   9.313
 1040POPC   C1A17403  32.287  13.600   8.852
 1040POPC   D2A17404  32.286  13.402   8.462
 1040POPC   C3A17405  32.299  13.714   8.141
 1040POPC   C4A17406  32.234  13.698   7.713
 1040POPC   C1B17407  31.780  13.626   8.897
 1040POPC   C2B17408  31.851  13.698   8.463
 1040POPC   C3B17409  31.791  13.757   8.027
 1040POPC   C4B17410  31.794  13.899   7.602
 1041POPC   NC317411  34.072  38.053   9.374
 1041POPC   PO417412  33.456  37.790   9.464
 1041POPC   GL117413  33.559  37.534   9.123
 1041POPC   GL217414  33.882  37.690   9.063
 1041POPC   C1A17415  33.533  37.601   8.690
 1041POPC   D2A17416  33.792  37.865   8.404
 1041POPC   C3A17417  33.681  37.750   7.998
 1041POPC   C4A17418  33.564  37.931   7.646
 1041POPC   C1B17419  34.005  37.445   8.665
 1041POPC   C2B17420  33.991  37.400   8.242
 1041POPC   C3B17421  33.920  37.336   7.834
 1041POPC   C4B17422  33.619  37.420   7.568
 1042POPC   NC317423   9.367  15.678   9.606
 1042POPC   PO417424   8.665  15.918   9.568
 1042POPC   GL117425   8.851  15.848   9.160
 1042POPC   GL217426   9.188  15.835   9.150
 1042POPC   C1A17427   8.870  16.032   8.758
 1042POPC   D2A17428   8.912  16.115   8.318
 1042POPC   C3A17429   8.640  15.851   8.104
 1042POPC   C4A17430   8.688  15.717   7.677
 1042POPC   C1B17431   9.206  15.637   8.741
 1042POPC   C2B17432   9.035  15.580   8.318
 1042POPC   C3B17433   9.131  15.801   7.943
 1042POPC   C4B17434   9.349  16.133   7.742
 1043POPC   NC317435  32.386  26.177   9.776
 1043POPC   PO417436  32.644  25.870   9.263
 1043POPC   GL117437  32.325  26.172   9.243
 1043POPC   GL217438  32.511  26.367   9.058
 1043POPC   C1A17439  32.027  26.212   8.899
 1043POPC   D2A17440  31.988  25.878   8.571
 1043POPC   C3A17441  31.882  25.982   8.136
 1043POPC   C4A17442  31.976  25.811   7.733
 1043POPC   C1B17443  32.484  26.152   8.696
 1043POPC   C2B17444  32.312  26.196   8.318
 1043POPC   C3B17445  32.383  26.046   7.942
 1043POPC   C4B17446  32.388  26.377   7.704
 1044POPC   NC317447  32.270  25.637   9.349
 1044POPC   PO417448  32.155  24.964   9.459
 1044POPC   GL117449  32.072  25.076   9.060
 1044POPC   GL217450  32.390  25.194   9.010
 1044POPC   C1A17451  32.108  25.149   8.595
 1044POPC   D2A17452  32.321  25.027   8.203
 1044POPC   C3A17453  32.414  25.371   7.922
 1044POPC   C4A17454  32.277  25.471   7.523
 1044POPC   C1B17455  32.608  24.951   8.661
 1044POPC   C2B17456  32.815  24.857   8.276
 1044POPC   C3B17457  32.727  24.903   7.855
 1044POPC   C4B17458  32.661  25.146   7.484
 1045POPC   NC317459  42.809  19.812  10.004
 1045POPC   PO417460  43.025  19.743   9.415
 1045POPC   GL117461  43.084  19.965   9.084
 1045POPC   GL217462  43.420  20.086   9.153
 1045POPC   C1A17463  43.018  19.808   8.683
 1045POPC   D2A17464  43.153  19.688   8.309
 1045POPC   C3A17465  42.872  19.642   7.969
 1045POPC   C4A17466  42.884  19.734   7.548
 1045POPC   C1B17467  43.327  20.235   8.735
 1045POPC   C2B17468  43.389  20.174   8.325
 1045POPC   C3B17469  43.061  20.138   8.052
 1045POPC   C4B17470  43.060  20.190   7.637
 1046POPC   NC317471   6.545   9.477   9.354
 1046POPC   PO417472   6.800  10.034   9.504
 1046POPC   GL117473   6.833   9.914   9.102
 1046POPC   GL217474   6.952  10.221   9.011
 1046POPC   C1A17475   6.772   9.651   8.744
 1046POPC   D2A17476   6.956   9.513   8.371
 1046POPC   C3A17477   6.668   9.598   8.053
 1046POPC   C4A17478   6.574   9.389   7.688
 1046POPC   C1B17479   6.612  10.186   8.694
 1046POPC   C2B17480   6.576  10.311   8.236
 1046POPC   C3B17481   6.751  10.077   7.874
 1046POPC   C4B17482   6.903   9.793   7.548
 1047POPC   NC317483  25.613  29.406   9.325
 1047POPC   PO417484  25.381  29.052   9.873
 1047POPC   GL117485  25.426  28.896   9.366
 1047POPC   GL217486  25.211  29.089   9.117
 1047POPC   C1A17487  25.495  28.802   8.857
 1047POPC   D2A17488  25.559  28.884   8.396
 1047POPC   C3A17489  25.250  29.096   8.136
 1047POPC   C4A17490  25.184  28.978   7.734
 1047POPC   C1B17491  25.276  29.227   8.672
 1047POPC   C2B17492  25.532  29.447   8.367
 1047POPC   C3B17493  25.730  29.261   8.008
 1047POPC   C4B17494  25.607  29.203   7.537
 1048POPC   NC317495   0.361  42.812   9.537
 1048POPC   PO417496   0.374  42.071   9.523
 1048POPC   GL117497   0.219  42.272   9.171
 1048POPC   GL217498   0.306  42.608   9.070
 1048POPC   C1A17499   0.102  42.197   8.775
 1048POPC   D2A17500   0.306  42.097   8.391
 1048POPC   C3A17501   0.315  42.429   8.087
 1048POPC   C4A17502   0.541  42.234   7.819
 1048POPC   C1B17503   0.354  42.618   8.621
 1048POPC   C2B17504   0.709  42.503   8.393
 1048POPC   C3B17505   0.840  42.668   8.045
 1048POPC   C4B17506   0.609  42.734   7.717
 1049POPC   NC317507  38.581   8.313   9.582
 1049POPC   PO417508  38.637   7.731   9.427
 1049POPC   GL117509  38.547   8.017   9.153
 1049POPC   GL217510  38.201   7.994   9.164
 1049POPC   C1A17511  38.562   7.932   8.741
 1049POPC   D2A17512  38.531   8.206   8.429
 1049POPC   C3A17513  38.683   8.011   8.104
 1049POPC   C4A17514  38.610   8.104   7.686
 1049POPC   C1B17515  38.180   8.246   8.822
 1049POPC   C2B17516  38.031   8.200   8.441
 1049POPC   C3B17517  38.216   8.205   8.027
 1049POPC   C4B17518  38.000   8.403   7.736
 1050POPC   NC317519  38.728  20.076   9.972
 1050POPC   PO417520  38.686  19.732   9.663
 1050POPC   GL117521  38.399  19.867   9.264
 1050POPC   GL217522  38.295  20.217   9.177
 1050POPC   C1A17523  38.285  19.782   8.800
 1050POPC   D2A17524  38.472  19.590   8.406
 1050POPC   C3A17525  38.400  19.674   7.952
 1050POPC   C4A17526  38.674  19.533   7.561
 1050POPC   C1B17527  38.491  20.249   8.749
 1050POPC   C2B17528  38.342  20.082   8.343
 1050POPC   C3B17529  38.369  20.210   7.902
 1050POPC   C4B17530  38.284  20.359   7.457
 1051POPC   NC317531  11.892  21.777   9.599
 1051POPC   PO417532  12.315  21.291   9.609
 1051POPC   GL117533  11.952  21.374   9.283
 1051POPC   GL217534  12.131  21.472   8.983
 1051POPC   C1A17535  11.668  21.292   8.899
 1051POPC   D2A17536  11.741  21.057   8.502
 1051POPC   C3A17537  11.757  21.308   8.145
 1051POPC   C4A17538  11.782  21.389   7.735
 1051POPC   C1B17539  11.965  21.571   8.553
 1051POPC   C2B17540  12.153  21.648   8.120
 1051POPC   C3B17541  12.127  21.739   7.670
 1051POPC   C4B17542  12.322  21.603   7.285
 1052POPC   NC317543  41.131  28.313   9.440
 1052POPC   PO417544  40.509  28.093   9.421
 1052POPC   GL117545  40.691  28.222   9.041
 1052POPC   GL217546  40.876  28.509   9.050
 1052POPC   C1A17547  40.605  28.405   8.636
 1052POPC   D2A17548  40.772  28.167   8.284
 1052POPC   C3A17549  40.786  28.413   7.911
 1052POPC   C4A17550  40.645  28.600   7.522
 1052POPC   C1B17551  41.119  28.347   8.697
 1052POPC   C2B17552  41.159  28.544   8.301
 1052POPC   C3B17553  41.297  28.354   7.924
 1052POPC   C4B17554  41.111  28.278   7.506
 1053POPC   NC317555  32.993  21.728   9.250
 1053POPC   PO417556  32.808  22.375   9.469
 1053POPC   GL117557  32.967  22.218   9.117
 1053POPC   GL217558  33.308  22.226   9.216
 1053POPC   C1A17559  32.981  22.085   8.675
 1053POPC   D2A17560  33.305  21.950   8.398
 1053POPC   C3A17561  33.090  21.861   7.988
 1053POPC   C4A17562  33.022  22.154   7.659
 1053POPC   C1B17563  33.419  22.306   8.809
 1053POPC   C2B17564  33.253  22.488   8.441
 1053POPC   C3B17565  33.275  22.337   8.068
 1053POPC   C4B17566  33.564  22.056   7.885
 1054POPC   NC317567  20.939   8.339   9.506
 1054POPC   PO417568  20.289   8.597   9.653
 1054POPC   GL117569  20.331   8.393   9.206
 1054POPC   GL217570  20.664   8.469   9.059
 1054POPC   C1A17571  20.236   8.139   8.800
 1054POPC   D2A17572  20.325   8.336   8.403
 1054POPC   C3A17573  20.566   8.257   8.055
 1054POPC   C4A17574  20.525   8.224   7.596
 1054POPC   C1B17575  20.738   8.205   8.688
 1054POPC   C2B17576  20.601   7.852   8.439
 1054POPC   C3B17577  20.646   7.747   8.004
 1054POPC   C4B17578  20.946   8.022   7.789
 1055POPC   NC317579  42.366  40.332   9.777
 1055POPC   PO417580  42.504  39.639   9.431
 1055POPC   GL117581  42.197  39.800   9.111
 1055POPC   GL217582  42.434  40.042   9.033
 1055POPC   C1A17583  42.152  39.875   8.623
 1055POPC   D2A17584  42.251  40.192   8.287
 1055POPC   C3A17585  42.241  39.965   7.891
 1055POPC   C4A17586  42.560  39.697   7.731
 1055POPC   C1B17587  42.636  40.027   8.668
 1055POPC   C2B17588  42.744  40.291   8.338
 1055POPC   C3B17589  42.720  40.141   7.940
 1055POPC   C4B17590  42.880  40.323   7.591
 1056POPC   NC317591  28.491  40.898   9.472
 1056POPC   PO417592  27.916  41.050   9.196
 1056POPC   GL117593  28.296  40.805   9.014
 1056POPC   GL217594  28.481  40.488   9.135
 1056POPC   C1A17595  28.373  40.808   8.579
 1056POPC   D2A17596  28.037  41.012   8.333
 1056POPC   C3A17597  28.104  40.982   7.921
 1056POPC   C4A17598  28.498  41.110   7.783
 1056POPC   C1B17599  28.670  40.438   8.755
 1056POPC   C2B17600  28.747  40.522   8.339
 1056POPC   C3B17601  28.485  40.644   8.023
 1056POPC   C4B17602  28.412  40.542   7.572
 1057POPC   NC317603   4.798  16.740   9.483
 1057POPC   PO417604   4.298  17.106   9.433
 1057POPC   GL117605   4.327  16.659   9.245
 1057POPC   GL217606   4.578  16.350   9.230
 1057POPC   C1A17607   4.349  16.636   8.815
 1057POPC   D2A17608   4.553  16.888   8.502
 1057POPC   C3A17609   4.344  16.795   8.108
 1057POPC   C4A17610   4.325  16.968   7.718
 1057POPC   C1B17611   4.638  16.177   8.815
 1057POPC   C2B17612   4.555  16.365   8.432
 1057POPC   C3B17613   4.807  16.605   8.143
 1057POPC   C4B17614   4.649  16.527   7.734
 1058POPC   NC317615  20.672  43.378   9.423
 1058POPC   PO417616  20.651  44.038   9.636
 1058POPC   GL117617  20.579  43.929   9.199
 1058POPC   GL217618  20.358  43.659   9.162
 1058POPC   C1A17619  20.682  44.005   8.749
 1058POPC   D2A17620  20.835  43.835   8.348
 1058POPC   C3A17621  20.866  44.131   8.009
 1058POPC   C4A17622  20.624  44.082   7.652
 1058POPC   C1B17623  20.205  43.535   8.781
 1058POPC   C2B17624  20.346  43.719   8.433
 1058POPC   C3B17625  20.395  43.940   8.086
 1058POPC   C4B17626  20.201  43.721   7.784
 1059POPC   NC317627  33.215  36.602   9.520
 1059POPC   PO417628  32.744  37.183   9.432
 1059POPC   GL117629  32.998  36.933   9.143
 1059POPC   GL217630  33.346  36.844   9.097
 1059POPC   C1A17631  33.086  37.004   8.687
 1059POPC   D2A17632  32.741  36.994   8.408
 1059POPC   C3A17633  32.797  37.148   7.986
 1059POPC   C4A17634  33.036  36.970   7.695
 1059POPC   C1B17635  33.441  36.626   8.667
 1059POPC   C2B17636  33.237  36.658   8.222
 1059POPC   C3B17637  33.272  36.502   7.762
 1059POPC   C4B17638  33.274  36.669   7.330
 1060POPC   NC317639  23.072  19.270   9.555
 1060POPC   PO417640  23.211  18.703   9.309
 1060POPC   GL117641  22.988  18.948   9.026
 1060POPC   GL217642  22.658  18.966   9.182
 1060POPC   C1A17643  22.906  19.058   8.579
 1060POPC   D2A17644  22.725  19.227   8.183
 1060POPC   C3A17645  22.963  19.238   7.786
 1060POPC   C4A17646  23.223  19.318   7.392
 1060POPC   C1B17647  22.576  18.721   8.788
 1060POPC   C2B17648  22.721  18.619   8.379
 1060POPC   C3B17649  22.823  18.772   7.985
 1060POPC   C4B17650  22.479  19.011   7.785
 1061POPC   NC317651   2.964  34.583   9.678
 1061POPC   PO417652   2.497  34.317   9.258
 1061POPC   GL117653   2.501  34.681   9.035
 1061POPC   GL217654   2.847  34.766   9.188
 1061POPC   C1A17655   2.577  34.652   8.572
 1061POPC   D2A17656   2.976  34.772   8.329
 1061POPC   C3A17657   3.005  34.561   7.905
 1061POPC   C4A17658   2.608  34.412   7.714
 1061POPC   C1B17659   2.860  34.995   8.808
 1061POPC   C2B17660   2.510  35.161   8.557
 1061POPC   C3B17661   2.299  34.938   8.234
 1061POPC   C4B17662   2.620  34.893   7.933
 1062POPC   NC317663  20.870  20.344   9.539
 1062POPC   PO417664  21.526  20.425   9.529
 1062POPC   GL117665  21.233  20.422   9.178
 1062POPC   GL217666  21.275  20.133   8.988
 1062POPC   C1A17667  21.236  20.569   8.743
 1062POPC   D2A17668  21.312  20.319   8.367
 1062POPC   C3A17669  21.474  20.536   8.043
 1062POPC   C4A17670  21.245  20.584   7.709
 1062POPC   C1B17671  21.624  20.214   8.754
 1062POPC   C2B17672  21.836  20.319   8.351
 1062POPC   C3B17673  21.857  20.224   7.896
 1062POPC   C4B17674  21.685  20.387   7.527
 1063POPC   NC317675  40.003  24.066   9.564
 1063POPC   PO417676  39.747  24.785   9.576
 1063POPC   GL117677  40.009  24.525   9.296
 1063POPC   GL217678  39.764  24.301   9.141
 1063POPC   C1A17679  40.113  24.552   8.842
 1063POPC   D2A17680  39.888  24.334   8.492
 1063POPC   C3A17681  39.954  24.409   8.056
 1063POPC   C4A17682  40.263  24.632   7.853
 1063POPC   C1B17683  40.061  24.060   8.921
 1063POPC   C2B17684  40.299  24.011   8.578
 1063POPC   C3B17685  40.343  24.032   8.137
 1063POPC   C4B17686  40.202  23.939   7.733
 1064POPC   NC317687  40.939   2.993   9.509
 1064POPC   PO417688  40.395   2.633   9.559
 1064POPC   GL117689  40.653   2.706   9.205
 1064POPC   GL217690  40.831   2.397   9.094
 1064POPC   C1A17691  40.466   2.988   8.844
 1064POPC   D2A17692  40.712   3.077   8.483
 1064POPC   C3A17693  40.671   3.188   8.064
 1064POPC   C4A17694  40.747   3.033   7.645
 1064POPC   C1B17695  40.922   2.675   8.772
 1064POPC   C2B17696  41.068   2.685   8.379
 1064POPC   C3B17697  41.066   2.817   7.980
 1064POPC   C4B17698  40.872   2.532   7.696
 1065POPC   NC317699  27.759  13.820   9.529
 1065POPC   PO417700  27.756  13.153   9.586
 1065POPC   GL117701  27.855  13.429   9.210
 1065POPC   GL217702  27.524  13.537   9.112
 1065POPC   C1A17703  27.857  13.633   8.770
 1065POPC   D2A17704  27.885  13.980   8.451
 1065POPC   C3A17705  27.916  13.860   8.021
 1065POPC   C4A17706  27.829  13.748   7.595
 1065POPC   C1B17707  27.388  13.464   8.693
 1065POPC   C2B17708  27.599  13.549   8.298
 1065POPC   C3B17709  27.419  13.521   7.875
 1065POPC   C4B17710  27.443  13.461   7.437
 1066POPC   NC317711  30.730  43.995   9.658
 1066POPC   PO417712  30.583  44.614   9.665
 1066POPC   GL117713  30.515  44.515   9.184
 1066POPC   GL217714  30.615  44.137   9.158
 1066POPC   C1A17715  30.522  44.744   8.734
 1066POPC   D2A17716  30.785  44.847   8.384
 1066POPC   C3A17717  30.674  44.800   7.970
 1066POPC   C4A17718  30.543  44.943   7.556
 1066POPC   C1B17719  30.843  44.334   8.795
 1066POPC   C2B17720  31.033  44.419   8.371
 1066POPC   C3B17721  31.078  44.496   7.917
 1066POPC   C4B17722  30.767  44.475   7.572
 1067POPC   NC317723  34.601  38.085   9.757
 1067POPC   PO417724  34.255  37.591   9.476
 1067POPC   GL117725  34.493  37.822   9.144
 1067POPC   GL217726  34.374  37.520   8.985
 1067POPC   C1A17727  34.675  37.759   8.673
 1067POPC   D2A17728  34.490  37.440   8.395
 1067POPC   C3A17729  34.680  37.493   7.994
 1067POPC   C4A17730  34.990  37.757   7.817
 1067POPC   C1B17731  34.198  37.900   8.733
 1067POPC   C2B17732  34.297  37.950   8.325
 1067POPC   C3B17733  34.221  37.751   7.943
 1067POPC   C4B17734  34.022  37.748   7.538
 1068POPC   NC317735  24.072  18.078   9.156
 1068POPC   PO417736  23.576  18.265   9.564
 1068POPC   GL117737  23.552  18.318   9.128
 1068POPC   GL217738  23.590  18.013   9.022
 1068POPC   C1A17739  23.635  18.526   8.744
 1068POPC   D2A17740  23.672  18.471   8.282
 1068POPC   C3A17741  23.747  18.684   7.882
 1068POPC   C4A17742  23.633  18.538   7.486
 1068POPC   C1B17743  23.434  18.074   8.617
 1068POPC   C2B17744  23.526  17.987   8.193
 1068POPC   C3B17745  23.600  18.159   7.842
 1068POPC   C4B17746  23.993  18.213   7.739
 1069POPC   NC317747  36.585   8.995   9.219
 1069POPC   PO417748  35.980   8.904   9.554
 1069POPC   GL117749  36.086   8.993   9.150
 1069POPC   GL217750  36.228   9.334   9.123
 1069POPC   C1A17751  36.177   8.759   8.755
 1069POPC   D2A17752  35.895   8.621   8.437
 1069POPC   C3A17753  35.775   8.864   8.088
 1069POPC   C4A17754  35.913   8.726   7.716
 1069POPC   C1B17755  35.974   9.239   8.722
 1069POPC   C2B17756  36.166   9.098   8.335
 1069POPC   C3B17757  36.249   9.144   7.887
 1069POPC   C4B17758  36.288   8.939   7.478
 1070POPC   NC317759  35.922   2.394   9.950
 1070POPC   PO417760  36.033   1.996   9.456
 1070POPC   GL117761  36.255   1.871   9.057
 1070POPC   GL217762  36.517   1.601   9.078
 1070POPC   C1A17763  36.411   1.914   8.615
 1070POPC   D2A17764  36.480   2.074   8.204
 1070POPC   C3A17765  36.129   2.178   7.978
 1070POPC   C4A17766  35.837   1.994   7.707
 1070POPC   C1B17767  36.693   1.477   8.686
 1070POPC   C2B17768  36.762   1.671   8.307
 1070POPC   C3B17769  36.703   1.619   7.878
 1070POPC   C4B17770  36.303   1.738   7.718
 1071POPC   NC317771   2.573  14.536   9.752
 1071POPC   PO417772   3.118  14.250   9.435
 1071POPC   GL117773   2.756  14.438   9.199
 1071POPC   GL217774   2.577  14.136   9.095
 1071POPC   C1A17775   2.637  14.660   8.787
 1071POPC   D2A17776   2.747  14.849   8.369
 1071POPC   C3A17777   2.658  14.679   7.972
 1071POPC   C4A17778   2.963  14.584   7.657
 1071POPC   C1B17779   2.810  14.148   8.702
 1071POPC   C2B17780   2.812  14.283   8.265
 1071POPC   C3B17781   3.038  14.142   7.922
 1071POPC   C4B17782   2.917  13.829   7.635
 1072POPC   NC317783  21.405  10.655   9.885
 1072POPC   PO417784  21.540  10.331   9.283
 1072POPC   GL117785  21.273  10.303   9.008
 1072POPC   GL217786  21.201  10.638   8.975
 1072POPC   C1A17787  21.302  10.127   8.645
 1072POPC   D2A17788  21.533  10.050   8.314
 1072POPC   C3A17789  21.612  10.409   8.041
 1072POPC   C4A17790  21.516  10.324   7.649
 1072POPC   C1B17791  20.979  10.530   8.617
 1072POPC   C2B17792  21.136  10.377   8.236
 1072POPC   C3B17793  21.095  10.507   7.863
 1072POPC   C4B17794  20.915  10.893   7.785
 1073POPC   NC317795  40.169  38.924   9.584
 1073POPC   PO417796  40.388  38.297   9.564
 1073POPC   GL117797  40.138  38.367   9.178
 1073POPC   GL217798  40.061  38.722   9.134
 1073POPC   C1A17799  40.069  38.444   8.705
 1073POPC   D2A17800  40.298  38.245   8.370
 1073POPC   C3A17801  40.176  38.001   7.998
 1073POPC   C4A17802  39.849  38.234   7.771
 1073POPC   C1B17803  40.035  38.946   8.734
 1073POPC   C2B17804  39.803  38.844   8.352
 1073POPC   C3B17805  39.921  38.719   7.925
 1073POPC   C4B17806  40.010  38.623   7.450
 1074POPC   NC317807  20.784  25.647   9.507
 1074POPC   PO417808  20.384  26.290   9.521
 1074POPC   GL117809  20.268  26.168   9.116
 1074POPC   GL217810  20.583  25.957   9.114
 1074POPC   C1A17811  20.323  26.109   8.693
 1074POPC   D2A17812  20.635  25.918   8.450
 1074POPC   C3A17813  20.551  26.051   8.034
 1074POPC   C4A17814  20.784  26.049   7.667
 1074POPC   C1B17815  20.356  25.650   8.874
 1074POPC   C2B17816  20.354  25.475   8.482
 1074POPC   C3B17817  20.488  25.537   8.100
 1074POPC   C4B17818  20.484  25.585   7.675
 1075POPC   NC317819   2.637  39.371   9.459
 1075POPC   PO417820   2.951  38.792   9.447
 1075POPC   GL117821   2.814  39.047   9.121
 1075POPC   GL217822   2.460  38.948   9.139
 1075POPC   C1A17823   2.896  39.172   8.705
 1075POPC   D2A17824   2.642  39.173   8.334
 1075POPC   C3A17825   2.835  39.175   7.941
 1075POPC   C4A17826   3.172  39.401   7.784
 1075POPC   C1B17827   2.405  39.306   8.835
 1075POPC   C2B17828   2.494  39.619   8.530
 1075POPC   C3B17829   2.501  39.622   8.063
 1075POPC   C4B17830   2.536  39.491   7.638
 1076POPC   NC317831  34.546  29.730   9.686
 1076POPC   PO417832  34.827  30.313   9.527
 1076POPC   GL117833  34.708  29.983   9.204
 1076POPC   GL217834  34.498  29.663   9.172
 1076POPC   C1A17835  34.759  29.890   8.761
 1076POPC   D2A17836  34.991  29.823   8.365
 1076POPC   C3A17837  34.876  30.035   7.996
 1076POPC   C4A17838  34.749  29.799   7.655
 1076POPC   C1B17839  34.237  29.855   8.805
 1076POPC   C2B17840  34.241  30.188   8.465
 1076POPC   C3B17841  34.328  30.198   8.017
 1076POPC   C4B17842  34.242  29.860   7.733
 1077POPC   NC317843  14.378  42.573   9.582
 1077POPC   PO417844  14.531  41.882   9.437
 1077POPC   GL117845  14.390  42.258   9.175
 1077POPC   GL217846  14.623  42.531   9.146
 1077POPC   C1A17847  14.202  42.414   8.786
 1077POPC   D2A17848  14.116  42.213   8.400
 1077POPC   C3A17849  14.139  42.436   8.024
 1077POPC   C4A17850  14.280  42.287   7.606
 1077POPC   C1B17851  14.732  42.439   8.773
 1077POPC   C2B17852  14.556  42.486   8.402
 1077POPC   C3B17853  14.639  42.323   8.013
 1077POPC   C4B17854  14.852  42.547   7.748
 1078POPC   NC317855  22.411  34.216   9.438
 1078POPC   PO417856  22.061  33.701   9.532
 1078POPC   GL117857  22.058  33.761   9.108
 1078POPC   GL217858  22.391  33.918   9.041
 1078POPC   C1A17859  22.013  33.873   8.674
 1078POPC   D2A17860  22.028  34.066   8.285
 1078POPC   C3A17861  22.110  33.783   7.981
 1078POPC   C4A17862  22.364  33.900   7.636
 1078POPC   C1B17863  22.445  33.613   8.760
 1078POPC   C2B17864  22.349  33.447   8.377
 1078POPC   C3B17865  22.504  33.449   7.945
 1078POPC   C4B17866  22.243  33.390   7.659
 1079POPC   NC317867  42.887   0.435   9.837
 1079POPC   PO417868  43.073   0.672   9.261
 1079POPC   GL117869  43.211   0.547   8.931
 1079POPC   GL217870  43.362   0.241   9.114
 1079POPC   C1A17871  42.903   0.572   8.572
 1079POPC   D2A17872  42.811   0.831   8.214
 1079POPC   C3A17873  43.192   0.721   8.017
 1079POPC   C4A17874  43.371   0.534   7.650
 1079POPC   C1B17875  43.183   0.118   8.690
 1079POPC   C2B17876  43.144   0.187   8.223
 1079POPC   C3B17877  43.310   0.041   7.821
 1079POPC   C4B17878  43.433   0.080   7.366
 1080POPC   NC317879  31.056  11.618   9.642
 1080POPC   PO417880  30.681  12.140   9.812
 1080POPC   GL117881  30.752  12.020   9.315
 1080POPC   GL217882  30.655  12.300   9.139
 1080POPC   C1A17883  30.763  11.944   8.795
 1080POPC   D2A17884  30.562  11.789   8.376
 1080POPC   C3A17885  30.679  11.849   7.908
 1080POPC   C4A17886  30.932  11.857   7.493
 1080POPC   C1B17887  30.477  12.399   8.784
 1080POPC   C2B17888  30.574  12.314   8.414
 1080POPC   C3B17889  30.611  12.383   8.036
 1080POPC   C4B17890  30.874  12.293   7.745
 1081POPC   NC317891  13.965  30.935   9.554
 1081POPC   PO417892  14.438  30.456   9.510
 1081POPC   GL117893  14.415  30.781   9.223
 1081POPC   GL217894  14.607  30.539   8.984
 1081POPC   C1A17895  14.358  30.940   8.822
 1081POPC   D2A17896  14.412  30.667   8.467
 1081POPC   C3A17897  14.550  30.839   8.086
 1081POPC   C4A17898  14.470  30.895   7.664
 1081POPC   C1B17899  14.175  30.421   8.865
 1081POPC   C2B17900  14.023  30.322   8.445
 1081POPC   C3B17901  14.140  30.492   8.034
 1081POPC   C4B17902  14.150  30.498   7.577
 1082POPC   NC317903  38.651  43.158   9.400
 1082POPC   PO417904  38.172  42.683   9.507
 1082POPC   GL117905  38.390  42.776   9.129
 1082POPC   GL217906  38.391  43.128   8.975
 1082POPC   C1A17907  38.391  42.684   8.685
 1082POPC   D2A17908  38.361  43.021   8.437
 1082POPC   C3A17909  38.256  42.953   8.039
 1082POPC   C4A17910  38.520  43.073   7.712
 1082POPC   C1B17911  38.184  43.421   8.697
 1082POPC   C2B17912  37.947  43.349   8.303
 1082POPC   C3B17913  38.193  43.468   7.919
 1082POPC   C4B17914  38.357  43.508   7.506
 1083POPC   NC317915  10.370  14.664   9.481
 1083POPC   PO417916  10.767  14.151   9.500
 1083POPC   GL117917  10.786  14.527   9.215
 1083POPC   GL217918  10.472  14.342   9.095
 1083POPC   C1A17919  10.731  14.607   8.744
 1083POPC   D2A17920  10.449  14.245   8.548
 1083POPC   C3A17921  10.422  14.169   8.113
 1083POPC   C4A17922  10.285  14.366   7.721
 1083POPC   C1B17923  10.239  14.614   8.824
 1083POPC   C2B17924  10.354  14.731   8.402
 1083POPC   C3B17925  10.230  14.793   7.976
 1083POPC   C4B17926  10.126  14.812   7.514
 1084POPC   NC317927  33.192  25.318   9.570
 1084POPC   PO417928  32.929  25.893   9.722
 1084POPC   GL117929  33.105  25.688   9.278
 1084POPC   GL217930  32.827  25.399   9.201
 1084POPC   C1A17931  33.195  25.467   8.884
 1084POPC   D2A17932  33.097  25.135   8.606
 1084POPC   C3A17933  33.245  25.178   8.187
 1084POPC   C4A17934  33.291  25.044   7.765
 1084POPC   C1B17935  32.708  25.463   8.730
 1084POPC   C2B17936  32.792  25.397   8.286
 1084POPC   C3B17937  32.922  25.389   7.856
 1084POPC   C4B17938  32.780  25.636   7.499
 1085POPC   NC317939  43.745  13.772   9.546
 1085POPC   PO417940  43.301  13.313   9.473
 1085POPC   GL117941  43.644  13.541   9.104
 1085POPC   GL217942  43.910  13.865   9.086
 1085POPC   C1A17943  44.002  13.458   8.755
 1085POPC   D2A17944  44.122  13.468   8.285
 1085POPC   C3A17945  43.972  13.333   7.861
 1085POPC   C4A17946  44.056  13.314   7.396
 1085POPC   C1B17947  43.717  13.874   8.687
 1085POPC   C2B17948  43.955  13.962   8.311
 1085POPC   C3B17949  44.099  13.835   7.892
 1085POPC   C4B17950  43.781  13.732   7.581
 1086POPC   NC317951  13.306  31.103   9.355
 1086POPC   PO417952  13.699  30.534   9.460
 1086POPC   GL117953  13.655  30.637   9.035
 1086POPC   GL217954  13.912  30.859   9.057
 1086POPC   C1A17955  13.472  30.526   8.615
 1086POPC   D2A17956  13.558  30.378   8.187
 1086POPC   C3A17957  13.382  30.574   7.787
 1086POPC   C4A17958  13.287  30.624   7.294
 1086POPC   C1B17959  13.915  30.807   8.619
 1086POPC   C2B17960  14.048  30.963   8.241
 1086POPC   C3B17961  13.777  30.839   7.924
 1086POPC   C4B17962  13.716  30.835   7.475
 1087POPC   NC317963  39.364   6.883   9.478
 1087POPC   PO417964  39.522   6.178   9.602
 1087POPC   GL117965  39.522   6.422   9.214
 1087POPC   GL217966  39.154   6.492   9.194
 1087POPC   C1A17967  39.445   6.576   8.780
 1087POPC   D2A17968  39.282   6.410   8.369
 1087POPC   C3A17969  39.438   6.592   7.968
 1087POPC   C4A17970  39.433   6.844   7.575
 1087POPC   C1B17971  38.948   6.384   8.796
 1087POPC   C2B17972  38.772   6.340   8.371
 1087POPC   C3B17973  38.908   6.483   7.983
 1087POPC   C4B17974  39.100   6.459   7.604
 1088POPC   NC317975   8.834   8.604   9.599
 1088POPC   PO417976   8.758   9.259   9.492
 1088POPC   GL117977   9.062   9.156   9.185
 1088POPC   GL217978   9.061   8.807   9.191
 1088POPC   C1A17979   9.116   9.187   8.741
 1088POPC   D2A17980   8.914   9.376   8.388
 1088POPC   C3A17981   9.036   9.134   8.039
 1088POPC   C4A17982   9.136   9.074   7.604
 1088POPC   C1B17983   9.148   8.644   8.800
 1088POPC   C2B17984   9.292   8.777   8.399
 1088POPC   C3B17985   9.096   8.624   8.045
 1088POPC   C4B17986   8.979   8.587   7.634
 1089POPC   NC317987  17.423  16.469   9.584
 1089POPC   PO417988  17.802  16.971   9.303
 1089POPC   GL117989  17.527  16.716   9.118
 1089POPC   GL217990  17.709  16.452   9.147
 1089POPC   C1A17991  17.398  16.642   8.713
 1089POPC   D2A17992  17.355  16.413   8.331
 1089POPC   C3A17993  17.484  16.714   8.019
 1089POPC   C4A17994  17.141  16.941   7.803
 1089POPC   C1B17995  17.900  16.535   8.773
 1089POPC   C2B17996  17.844  16.491   8.348
 1089POPC   C3B17997  18.005  16.528   7.928
 1089POPC   C4B17998  18.118  16.369   7.512
 1090POPC   NC317999   0.075  34.237   9.293
 1090POPC   PO418000   0.506  34.644   9.588
 1090POPC   GL118001   0.486  34.515   9.118
 1090POPC   GL218002   0.244  34.722   8.904
 1090POPC   C1A18003   0.364  34.252   8.731
 1090POPC   D2A18004   0.128  34.318   8.367
 1090POPC   C3A18005   0.340  34.375   7.967
 1090POPC   C4A18006   0.228  34.683   7.648
 1090POPC   C1B18007   0.575  35.008   8.679
 1090POPC   C2B18008   0.702  34.986   8.283
 1090POPC   C3B18009   0.682  34.765   7.907
 1090POPC   C4B18010   0.746  35.005   7.564
 1091POPC   NC318011  40.428  31.127   9.431
 1091POPC   PO418012  40.223  31.738   9.520
 1091POPC   GL118013  40.183  31.480   9.126
 1091POPC   GL218014  39.820  31.392   8.996
 1091POPC   C1A18015  40.258  31.251   8.756
 1091POPC   D2A18016  39.947  31.389   8.486
 1091POPC   C3A18017  40.032  31.411   8.061
 1091POPC   C4A18018  40.313  31.234   7.751
 1091POPC   C1B18019  39.526  31.686   8.748
 1091POPC   C2B18020  39.635  31.750   8.296
 1091POPC   C3B18021  39.559  31.519   7.909
 1091POPC   C4B18022  39.720  31.594   7.510
 1092POPC   NC318023  10.721  27.844   9.715
 1092POPC   PO418024  10.504  27.166   9.578
 1092POPC   GL118025  10.551  27.336   9.164
 1092POPC   GL218026  10.576  27.700   9.184
 1092POPC   C1A18027  10.335  27.420   8.777
 1092POPC   D2A18028  10.462  27.581   8.373
 1092POPC   C3A18029  10.368  27.408   7.958
 1092POPC   C4A18030  10.367  27.434   7.479
 1092POPC   C1B18031  10.415  27.919   8.812
 1092POPC   C2B18032  10.491  28.096   8.419
 1092POPC   C3B18033  10.651  27.946   8.045
 1092POPC   C4B18034  10.462  27.888   7.656
 1093POPC   NC318035  44.417  39.418   9.451
 1093POPC   PO418036  44.918  38.997   9.641
 1093POPC   GL118037  44.735  39.030   9.218
 1093POPC   GL218038  44.429  38.824   9.176
 1093POPC   C1A18039  44.866  39.221   8.805
 1093POPC   D2A18040   0.178  39.369   8.512
 1093POPC   C3A18041   0.086  39.295   8.085
 1093POPC   C4A18042  44.749  39.435   7.797
 1093POPC   C1B18043  44.369  39.117   8.851
 1093POPC   C2B18044  44.502  39.124   8.454
 1093POPC   C3B18045  44.373  39.340   8.112
 1093POPC   C4B18046  44.295  39.169   7.733
 1094POPC   NC318047  23.656  17.810   9.537
 1094POPC   PO418048  23.523  17.159   9.575
 1094POPC   GL118049  23.621  17.373   9.212
 1094POPC   GL218050  23.879  17.578   9.121
 1094POPC   C1A18051  23.435  17.359   8.826
 1094POPC   D2A18052  23.380  17.587   8.460
 1094POPC   C3A18053  23.498  17.508   8.029
 1094POPC   C4A18054  23.317  17.765   7.686
 1094POPC   C1B18055  23.814  17.686   8.695
 1094POPC   C2B18056  23.975  17.535   8.330
 1094POPC   C3B18057  23.999  17.745   7.998
 1094POPC   C4B18058  23.816  17.718   7.668
 1095POPC   NC318059   1.929  33.279   9.781
 1095POPC   PO418060   1.508  32.820   9.420
 1095POPC   GL118061   1.868  32.792   9.147
 1095POPC   GL218062   2.115  33.004   9.276
 1095POPC   C1A18063   2.054  32.653   8.753
 1095POPC   D2A18064   1.782  32.563   8.423
 1095POPC   C3A18065   1.950  32.770   8.113
 1095POPC   C4A18066   2.307  32.724   7.872
 1095POPC   C1B18067   2.137  33.145   8.849
 1095POPC   C2B18068   2.150  33.138   8.423
 1095POPC   C3B18069   2.063  33.263   7.999
 1095POPC   C4B18070   2.259  33.141   7.588
 1096POPC   NC318071  14.296  10.018   9.588
 1096POPC   PO418072  14.689  10.599   9.424
 1096POPC   GL118073  14.353  10.381   9.202
 1096POPC   GL218074  14.066  10.537   9.353
 1096POPC   C1A18075  14.303  10.305   8.757
 1096POPC   D2A18076  14.370  10.307   8.324
 1096POPC   C3A18077  14.526  10.699   8.142
 1096POPC   C4A18078  14.453  10.646   7.704
 1096POPC   C1B18079  14.074  10.740   8.934
 1096POPC   C2B18080  14.138  10.745   8.484
 1096POPC   C3B18081  14.010  10.642   8.039
 1096POPC   C4B18082  13.958  10.785   7.603
 1097POPC   NC318083   5.841   4.949   9.288
 1097POPC   PO418084   5.678   4.393   9.633
 1097POPC   GL118085   5.892   4.450   9.226
 1097POPC   GL218086   5.799   4.184   9.065
 1097POPC   C1A18087   5.970   4.544   8.748
 1097POPC   D2A18088   5.904   4.255   8.394
 1097POPC   C3A18089   5.862   4.483   8.018
 1097POPC   C4A18090   6.163   4.779   7.870
 1097POPC   C1B18091   5.546   4.110   8.744
 1097POPC   C2B18092   5.472   3.939   8.365
 1097POPC   C3B18093   5.541   4.096   7.954
 1097POPC   C4B18094   5.674   4.023   7.503
 1098POPC   NC318095  19.345  26.881   9.554
 1098POPC   PO418096  18.883  26.599   9.402
 1098POPC   GL118097  19.074  26.874   9.126
 1098POPC   GL218098  19.342  26.616   9.101
 1098POPC   C1A18099  18.933  27.059   8.744
 1098POPC   D2A18100  18.859  26.842   8.357
 1098POPC   C3A18101  18.820  26.897   7.909
 1098POPC   C4A18102  19.224  26.874   7.749
 1098POPC   C1B18103  19.145  26.579   8.715
 1098POPC   C2B18104  18.967  26.310   8.438
 1098POPC   C3B18105  19.090  26.464   8.069
 1098POPC   C4B18106  18.966  26.432   7.672
 1099POPC   NC318107   9.263   3.885   9.503
 1099POPC   PO418108   9.310   4.541   9.474
 1099POPC   GL118109   8.949   4.284   9.321
 1099POPC   GL218110   9.163   4.218   9.105
 1099POPC   C1A18111   8.715   4.256   8.880
 1099POPC   D2A18112   8.686   4.297   8.433
 1099POPC   C3A18113   8.901   4.586   8.123
 1099POPC   C4A18114   8.939   4.470   7.682
 1099POPC   C1B18115   9.356   4.323   8.771
 1099POPC   C2B18116   9.204   4.262   8.364
 1099POPC   C3B18117   9.340   4.312   7.946
 1099POPC   C4B18118   9.349   4.053   7.570
 1100POPC   NC318119  26.999  17.622   9.449
 1100POPC   PO418120  26.653  17.137   9.252
 1100POPC   GL118121  26.665  17.560   9.021
 1100POPC   GL218122  26.499  17.889   9.145
 1100POPC   C1A18123  26.875  17.667   8.622
 1100POPC   D2A18124  27.098  17.754   8.209
 1100POPC   C3A18125  26.960  17.482   7.874
 1100POPC   C4A18126  26.878  17.535   7.420
 1100POPC   C1B18127  26.473  17.992   8.671
 1100POPC   C2B18128  26.549  17.815   8.228
 1100POPC   C3B18129  26.621  17.822   7.767
 1100POPC   C4B18130  26.386  17.650   7.377
 1101POPC   NC318131  15.832  13.033   9.463
 1101POPC   PO418132  15.837  12.435   9.186
 1101POPC   GL118133  15.872  12.822   9.018
 1101POPC   GL218134  16.206  12.807   9.079
 1101POPC   C1A18135  15.895  13.110   8.662
 1101POPC   D2A18136  15.596  13.160   8.302
 1101POPC   C3A18137  15.731  12.981   7.914
 1101POPC   C4A18138  15.651  12.813   7.471
 1101POPC   C1B18139  16.117  12.633   8.640
 1101POPC   C2B18140  16.295  12.901   8.398
 1101POPC   C3B18141  16.218  13.075   8.037
 1101POPC   C4B18142  16.322  12.944   7.643
 1102POPC   NC318143  22.405   3.907   9.374
 1102POPC   PO418144  22.096   3.386   9.538
 1102POPC   GL118145  21.944   3.471   9.131
 1102POPC   GL218146  22.004   3.800   9.092
 1102POPC   C1A18147  22.075   3.519   8.679
 1102POPC   D2A18148  22.420   3.520   8.377
 1102POPC   C3A18149  22.186   3.503   7.974
 1102POPC   C4A18150  22.219   3.610   7.508
 1102POPC   C1B18151  22.282   3.989   8.767
 1102POPC   C2B18152  22.164   3.964   8.397
 1102POPC   C3B18153  22.375   3.955   8.065
 1102POPC   C4B18154  22.312   4.060   7.701
 1103POPC   NC318155  29.193   3.281   9.518
 1103POPC   PO418156  29.304   3.878   9.758
 1103POPC   GL118157  29.060   3.803   9.330
 1103POPC   GL218158  28.951   3.497   9.139
 1103POPC   C1A18159  29.092   3.884   8.848
 1103POPC   D2A18160  29.190   3.681   8.444
 1103POPC   C3A18161  29.063   3.737   8.022
 1103POPC   C4A18162  28.733   3.445   7.823
 1103POPC   C1B18163  29.303   3.368   8.825
 1103POPC   C2B18164  29.393   3.226   8.355
 1103POPC   C3B18165  29.312   3.300   7.890
 1103POPC   C4B18166  29.560   3.441   7.508
 1104POPC   NC318167  15.041  41.983   9.431
 1104POPC   PO418168  14.860  42.663   9.559
 1104POPC   GL118169  15.154  42.460   9.222
 1104POPC   GL218170  15.502  42.299   9.231
 1104POPC   C1A18171  15.214  42.279   8.790
 1104POPC   D2A18172  14.976  42.157   8.410
 1104POPC   C3A18173  15.171  42.262   8.020
 1104POPC   C4A18174  15.066  42.136   7.586
 1104POPC   C1B18175  15.721  42.325   8.804
 1104POPC   C2B18176  15.588  42.223   8.352
 1104POPC   C3B18177  15.668  42.226   7.879
 1104POPC   C4B18178  15.525  42.290   7.428
 1105POPC   NC318179  35.529  40.479   9.442
 1105POPC   PO418180  35.350  41.094   9.623
 1105POPC   GL118181  35.379  40.962   9.208
 1105POPC   GL218182  35.691  41.071   9.060
 1105POPC   C1A18183  35.311  40.731   8.825
 1105POPC   D2A18184  35.116  40.888   8.448
 1105POPC   C3A18185  35.274  40.767   8.054
 1105POPC   C4A18186  35.176  40.516   7.706
 1105POPC   C1B18187  35.621  41.094   8.601
 1105POPC   C2B18188  35.738  41.003   8.134
 1105POPC   C3B18189  35.812  41.043   7.702
 1105POPC   C4B18190  35.544  41.106   7.324
 1106POPC   NC318191  23.530   0.249   9.516
 1106POPC   PO418192  23.850   0.778   9.656
 1106POPC   GL118193  23.621   0.704   9.230
 1106POPC   GL218194  23.771   0.920   8.973
 1106POPC   C1A18195  23.611   0.454   8.831
 1106POPC   D2A18196  23.558   0.145   8.461
 1106POPC   C3A18197  23.695   0.206   7.995
 1106POPC   C4A18198  23.471   0.430   7.640
 1106POPC   C1B18199  24.083   0.981   8.627
 1106POPC   C2B18200  24.163   0.888   8.168
 1106POPC   C3B18201  23.918   0.667   7.829
 1106POPC   C4B18202  23.687   0.842   7.480
 1107POPC   NC318203   7.273  36.513   9.419
 1107POPC   PO418204   7.613  35.941   9.619
 1107POPC   GL118205   7.455  35.946   9.184
 1107POPC   GL218206   7.323  36.237   9.017
 1107POPC   C1A18207   7.363  35.841   8.739
 1107POPC   D2A18208   7.414  36.142   8.415
 1107POPC   C3A18209   7.391  35.949   8.043
 1107POPC   C4A18210   7.114  36.191   7.839
 1107POPC   C1B18211   7.730  36.233   8.806
 1107POPC   C2B18212   7.878  36.326   8.375
 1107POPC   C3B18213   7.765  36.286   7.966
 1107POPC   C4B18214   7.794  36.489   7.578
 1108POPC   NC318215  17.843   7.139   9.324
 1108POPC   PO418216  17.360   7.465   9.673
 1108POPC   GL118217  17.436   7.498   9.164
 1108POPC   GL218218  17.681   7.346   8.906
 1108POPC   C1A18219  17.334   7.617   8.680
 1108POPC   D2A18220  17.265   7.825   8.246
 1108POPC   C3A18221  17.395   7.672   7.820
 1108POPC   C4A18222  17.734   7.416   7.703
 1108POPC   C1B18223  17.374   7.067   8.863
 1108POPC   C2B18224  17.228   7.157   8.484
 1108POPC   C3B18225  17.422   7.296   8.151
 1108POPC   C4B18226  17.319   7.102   7.784
 1109POPC   NC318227  25.342  40.111   9.588
 1109POPC   PO418228  24.884  40.508   9.255
 1109POPC   GL118229  25.095  40.119   9.148
 1109POPC   GL218230  25.318  39.792   9.193
 1109POPC   C1A18231  25.340  40.185   8.834
 1109POPC   D2A18232  25.083  40.302   8.507
 1109POPC   C3A18233  25.187  40.275   8.092
 1109POPC   C4A18234  25.290  40.116   7.717
 1109POPC   C1B18235  25.452  39.701   8.770
 1109POPC   C2B18236  25.360  39.882   8.392
 1109POPC   C3B18237  25.152  39.762   8.053
 1109POPC   C4B18238  25.501  39.521   7.858
 1110POPC   NC318239  18.433  27.276   9.441
 1110POPC   PO418240  18.042  27.864   9.445
 1110POPC   GL118241  18.352  27.743   9.141
 1110POPC   GL218242  18.592  28.009   9.023
 1110POPC   C1A18243  18.221  27.521   8.794
 1110POPC   D2A18244  18.173  27.639   8.389
 1110POPC   C3A18245  18.085  27.343   8.107
 1110POPC   C4A18246  18.255  27.450   7.755
 1110POPC   C1B18247  18.568  27.921   8.585
 1110POPC   C2B18248  18.607  27.800   8.144
 1110POPC   C3B18249  18.675  27.979   7.726
 1110POPC   C4B18250  18.582  28.124   7.299
 1111POPC   NC318251  27.568   3.129   9.556
 1111POPC   PO418252  27.013   2.657   9.472
 1111POPC   GL118253  27.337   2.589   9.085
 1111POPC   GL218254  27.685   2.745   9.064
 1111POPC   C1A18255  27.451   2.712   8.633
 1111POPC   D2A18256  27.725   2.827   8.325
 1111POPC   C3A18257  27.529   2.662   7.986
 1111POPC   C4A18258  27.269   2.985   7.862
 1111POPC   C1B18259  27.915   2.464   8.705
 1111POPC   C2B18260  28.056   2.463   8.228
 1111POPC   C3B18261  27.992   2.792   7.856
 1111POPC   C4B18262  27.727   3.196   7.903
 1112POPC   NC318263   6.244  19.134   9.702
 1112POPC   PO418264   6.841  18.969   9.329
 1112POPC   GL118265   6.854  18.788   8.971
 1112POPC   GL218266   6.508  18.813   8.921
 1112POPC   C1A18267   6.809  18.918   8.526
 1112POPC   D2A18268   6.535  19.263   8.413
 1112POPC   C3A18269   6.434  19.298   7.988
 1112POPC   C4A18270   6.666  19.378   7.626
 1112POPC   C1B18271   6.301  18.742   8.535
 1112POPC   C2B18272   6.073  18.990   8.239
 1112POPC   C3B18273   6.150  18.905   7.836
 1112POPC   C4B18274   6.594  18.827   7.695
 1113POPC   NC318275  35.033  37.835   9.202
 1113POPC   PO418276  35.529  37.440   9.407
 1113POPC   GL118277  35.454  37.611   9.032
 1113POPC   GL218278  35.512  37.990   9.098
 1113POPC   C1A18279  35.209  37.511   8.672
 1113POPC   D2A18280  35.042  37.665   8.315
 1113POPC   C3A18281  35.299  37.421   8.028
 1113POPC   C4A18282  35.596  37.177   7.804
 1113POPC   C1B18283  35.656  37.918   8.696
 1113POPC   C2B18284  35.561  37.735   8.369
 1113POPC   C3B18285  35.403  37.944   8.079
 1113POPC   C4B18286  35.453  37.976   7.700
 1114POPC   NC318287  17.529   2.307   9.521
 1114POPC   PO418288  17.737   1.675   9.533
 1114POPC   GL118289  17.608   1.886   9.163
 1114POPC   GL218290  17.438   2.170   9.054
 1114POPC   C1A18291  17.726   1.952   8.703
 1114POPC   D2A18292  18.039   2.056   8.381
 1114POPC   C3A18293  17.924   2.094   7.951
 1114POPC   C4A18294  17.522   2.025   7.792
 1114POPC   C1B18295  17.244   2.256   8.670
 1114POPC   C2B18296  17.025   2.210   8.245
 1114POPC   C3B18297  17.068   2.230   7.760
 1114POPC   C4B18298  17.409   2.348   7.403
 1115POPC   NC318299  21.925  37.897   9.436
 1115POPC   PO418300  22.563  37.635   9.543
 1115POPC   GL118301  22.312  37.606   9.160
 1115POPC   GL218302  22.062  37.358   9.173
 1115POPC   C1A18303  22.253  37.813   8.752
 1115POPC   D2A18304  22.119  38.007   8.335
 1115POPC   C3A18305  21.941  37.692   8.060
 1115POPC   C4A18306  22.082  37.655   7.612
 1115POPC   C1B18307  22.245  37.289   8.737
 1115POPC   C2B18308  22.456  37.521   8.388
 1115POPC   C3B18309  22.439  37.706   7.989
 1115POPC   C4B18310  22.241  37.294   7.915
 1116POPC   NC318311   9.158  37.372   9.665
 1116POPC   PO418312   8.969  36.798   9.531
 1116POPC   GL118313   8.977  37.116   9.183
 1116POPC   GL218314   9.296  37.252   9.133
 1116POPC   C1A18315   9.030  37.022   8.736
 1116POPC   D2A18316   9.252  36.955   8.342
 1116POPC   C3A18317   9.124  36.711   7.981
 1116POPC   C4A18318   8.901  36.772   7.606
 1116POPC   C1B18319   9.413  37.366   8.671
 1116POPC   C2B18320   9.183  37.444   8.250
 1116POPC   C3B18321   9.103  37.204   7.861
 1116POPC   C4B18322   9.403  36.907   7.609
 1117POPC   NC318323  43.707   3.651   9.896
 1117POPC   PO418324  43.921   3.034   9.679
 1117POPC   GL118325  43.788   3.335   9.267
 1117POPC   GL218326  44.025   3.220   9.015
 1117POPC   C1A18327  43.613   3.481   8.853
 1117POPC   D2A18328  43.830   3.458   8.458
 1117POPC   C3A18329  43.641   3.545   8.060
 1117POPC   C4A18330  43.864   3.605   7.688
 1117POPC   C1B18331  44.296   3.305   8.655
 1117POPC   C2B18332  44.339   3.700   8.483
 1117POPC   C3B18333  44.175   3.749   8.095
 1117POPC   C4B18334  44.265   3.946   7.715
 1118POPC   NC318335  35.045  13.749   9.643
 1118POPC   PO418336  34.530  13.380   9.491
 1118POPC   GL118337  34.630  13.525   9.115
 1118POPC   GL218338  34.263  13.515   9.055
 1118POPC   C1A18339  34.607  13.717   8.718
 1118POPC   D2A18340  34.794  13.928   8.372
 1118POPC   C3A18341  34.923  13.635   8.048
 1118POPC   C4A18342  34.818  13.697   7.573
 1118POPC   C1B18343  34.274  13.326   8.654
 1118POPC   C2B18344  34.445  13.507   8.258
 1118POPC   C3B18345  34.482  13.839   7.924
 1118POPC   C4B18346  34.300  13.594   7.595
 1119POPC   NC318347  20.609  38.734   9.587
 1119POPC   PO418348  20.814  38.001   9.552
 1119POPC   GL118349  20.641  38.350   9.248
 1119POPC   GL218350  20.842  38.664   9.136
 1119POPC   C1A18351  20.506  38.493   8.819
 1119POPC   D2A18352  20.549  38.237   8.441
 1119POPC   C3A18353  20.445  38.393   8.022
 1119POPC   C4A18354  20.231  38.247   7.645
 1119POPC   C1B18355  21.074  38.848   8.787
 1119POPC   C2B18356  20.888  38.753   8.352
 1119POPC   C3B18357  20.742  38.815   7.914
 1119POPC   C4B18358  20.761  38.905   7.429
 1120POPC   NC318359  38.667   0.925   9.592
 1120POPC   PO418360  38.244   1.369   9.486
 1120POPC   GL118361  38.391   1.226   9.128
 1120POPC   GL218362  38.254   0.924   9.117
 1120POPC   C1A18363  38.581   1.117   8.747
 1120POPC   D2A18364  38.487   0.948   8.349
 1120POPC   C3A18365  38.771   1.123   8.088
 1120POPC   C4A18366  38.854   1.177   7.668
 1120POPC   C1B18367  38.103   0.889   8.698
 1120POPC   C2B18368  37.931   0.795   8.290
 1120POPC   C3B18369  37.982   1.012   7.925
 1120POPC   C4B18370  38.355   1.230   7.812
 1121POPC   NC318371   8.669  42.689   9.637
 1121POPC   PO418372   9.053  42.198   9.564
 1121POPC   GL118373   8.830  42.144   9.180
 1121POPC   GL218374   8.716  42.474   9.174
 1121POPC   C1A18375   8.799  42.138   8.752
 1121POPC   D2A18376   9.179  42.315   8.540
 1121POPC   C3A18377   9.195  42.374   8.099
 1121POPC   C4A18378   9.141  42.076   7.751
 1121POPC   C1B18379   8.814  42.633   8.775
 1121POPC   C2B18380   8.742  42.490   8.351
 1121POPC   C3B18381   8.738  42.387   7.919
 1121POPC   C4B18382   8.899  42.588   7.556
 1122POPC   NC318383   3.993  35.728   9.672
 1122POPC   PO418384   3.395  35.825   9.507
 1122POPC   GL118385   3.526  35.920   9.139
 1122POPC   GL218386   3.780  35.685   9.176
 1122POPC   C1A18387   3.492  36.229   8.810
 1122POPC   D2A18388   3.661  36.230   8.414
 1122POPC   C3A18389   3.348  36.272   8.076
 1122POPC   C4A18390   3.506  36.317   7.696
 1122POPC   C1B18391   3.943  35.956   8.813
 1122POPC   C2B18392   3.945  35.820   8.377
 1122POPC   C3B18393   3.875  36.050   7.980
 1122POPC   C4B18394   3.924  35.977   7.542
 1123POPC   NC318395   9.202   4.985   9.572
 1123POPC   PO418396   8.540   4.959   9.327
 1123POPC   GL118397   8.844   4.719   9.089
 1123POPC   GL218398   9.188   4.858   9.080
 1123POPC   C1A18399   8.983   4.652   8.667
 1123POPC   D2A18400   9.101   4.995   8.438
 1123POPC   C3A18401   8.823   5.128   8.138
 1123POPC   C4A18402   8.819   4.985   7.734
 1123POPC   C1B18403   9.306   5.264   8.866
 1123POPC   C2B18404   9.429   5.502   8.489
 1123POPC   C3B18405   9.280   5.372   8.092
 1123POPC   C4B18406   9.409   5.314   7.689
 1124POPC   NC318407  43.700  17.076   9.972
 1124POPC   PO418408  43.188  16.891   9.522
 1124POPC   GL118409  43.297  16.697   9.108
 1124POPC   GL218410  43.605  16.812   9.024
 1124POPC   C1A18411  43.341  16.551   8.654
 1124POPC   D2A18412  43.455  16.764   8.259
 1124POPC   C3A18413  43.267  16.594   7.908
 1124POPC   C4A18414  43.510  16.264   7.786
 1124POPC   C1B18415  43.404  17.059   8.687
 1124POPC   C2B18416  43.306  17.250   8.273
 1124POPC   C3B18417  43.364  17.098   7.811
 1124POPC   C4B18418  43.410  17.075   7.332
 1125POPC   NC318419  29.900  22.437   9.536
 1125POPC   PO418420  29.393  21.962   9.403
 1125POPC   GL118421  29.744  22.140   9.143
 1125POPC   GL218422  29.745  22.492   9.065
 1125POPC   C1A18423  30.064  22.168   8.827
 1125POPC   D2A18424  30.074  22.368   8.402
 1125POPC   C3A18425  29.809  22.126   8.112
 1125POPC   C4A18426  29.789  21.726   7.855
 1125POPC   C1B18427  29.604  22.386   8.651
 1125POPC   C2B18428  29.441  22.497   8.232
 1125POPC   C3B18429  29.677  22.645   7.870
 1125POPC   C4B18430  30.111  22.502   7.879
 1126POPC   NC318431   8.222  15.904   9.706
 1126POPC   PO418432   8.325  16.406   9.299
 1126POPC   GL118433   8.345  15.972   9.113
 1126POPC   GL218434   8.035  15.793   9.072
 1126POPC   C1A18435   8.365  15.920   8.633
 1126POPC   D2A18436   8.360  16.260   8.273
 1126POPC   C3A18437   8.227  16.115   7.859
 1126POPC   C4A18438   8.234  15.661   7.866
 1126POPC   C1B18439   7.843  15.867   8.708
 1126POPC   C2B18440   7.974  15.879   8.265
 1126POPC   C3B18441   7.758  15.816   7.869
 1126POPC   C4B18442   7.806  16.052   7.481
 1127POPC   NC318443  20.370  35.263   9.216
 1127POPC   PO418444  20.758  35.480   9.656
 1127POPC   GL118445  20.863  35.276   9.155
 1127POPC   GL218446  20.780  34.934   9.177
 1127POPC   C1A18447  20.785  35.327   8.661
 1127POPC   D2A18448  20.730  35.345   8.186
 1127POPC   C3A18449  20.448  35.559   7.843
 1127POPC   C4A18450  20.217  35.609   7.416
 1127POPC   C1B18451  20.596  34.850   8.776
 1127POPC   C2B18452  20.368  35.009   8.423
 1127POPC   C3B18453  20.356  35.032   8.005
 1127POPC   C4B18454  20.685  35.133   7.727
 1128POPC   NC318455  28.758  13.451   9.533
 1128POPC   PO418456  28.209  13.739   9.686
 1128POPC   GL118457  28.295  13.782   9.230
 1128POPC   GL218458  28.635  13.673   9.092
 1128POPC   C1A18459  28.296  13.865   8.779
 1128POPC   D2A18460  28.224  13.565   8.425
 1128POPC   C3A18461  28.377  13.671   8.028
 1128POPC   C4A18462  28.306  13.942   7.667
 1128POPC   C1B18463  28.690  13.477   8.680
 1128POPC   C2B18464  28.604  13.243   8.277
 1128POPC   C3B18465  28.651  13.319   7.816
 1128POPC   C4B18466  28.410  13.322   7.410
 1129POPC   NC318467   7.760  16.993   9.380
 1129POPC   PO418468   7.337  16.469   9.444
 1129POPC   GL118469   7.237  16.709   9.067
 1129POPC   GL218470   7.519  16.851   8.957
 1129POPC   C1A18471   7.173  16.761   8.627
 1129POPC   D2A18472   7.505  16.702   8.349
 1129POPC   C3A18473   7.465  16.818   7.937
 1129POPC   C4A18474   7.256  16.708   7.579
 1129POPC   C1B18475   7.807  16.988   8.644
 1129POPC   C2B18476   7.709  17.174   8.233
 1129POPC   C3B18477   7.910  17.063   7.802
 1129POPC   C4B18478   8.073  17.292   7.463
 1130POPC   NC318479  28.586  36.586   9.454
 1130POPC   PO418480  28.653  37.299   9.535
 1130POPC   GL118481  28.492  37.031   9.192
 1130POPC   GL218482  28.182  36.818   9.198
 1130POPC   C1A18483  28.544  36.788   8.808
 1130POPC   D2A18484  28.450  36.585   8.415
 1130POPC   C3A18485  28.690  36.759   8.064
 1130POPC   C4A18486  28.569  37.030   7.731
 1130POPC   C1B18487  28.012  36.835   8.776
 1130POPC   C2B18488  27.897  36.743   8.347
 1130POPC   C3B18489  28.178  36.790   7.993
 1130POPC   C4B18490  28.106  36.928   7.571
 1131POPC   NC318491   5.706  11.808   9.787
 1131POPC   PO418492   5.507  11.163   9.490
 1131POPC   GL118493   5.548  11.201   9.061
 1131POPC   GL218494   5.918  11.185   9.027
 1131POPC   C1A18495   5.600  11.118   8.624
 1131POPC   D2A18496   6.005  11.091   8.458
 1131POPC   C3A18497   5.957  11.243   8.081
 1131POPC   C4A18498   6.070  11.273   7.673
 1131POPC   C1B18499   5.862  11.532   8.698
 1131POPC   C2B18500   5.990  11.704   8.360
 1131POPC   C3B18501   6.114  11.709   7.956
 1131POPC   C4B18502   5.766  11.672   7.671
 1132POPC   NC318503  29.365  39.391   9.518
 1132POPC   PO418504  28.860  39.004   9.717
 1132POPC   GL118505  28.998  39.075   9.274
 1132POPC   GL218506  28.899  39.380   9.213
 1132POPC   C1A18507  29.014  38.991   8.811
 1132POPC   D2A18508  28.842  39.176   8.426
 1132POPC   C3A18509  29.055  39.036   8.059
 1132POPC   C4A18510  29.094  39.135   7.623
 1132POPC   C1B18511  29.024  39.493   8.799
 1132POPC   C2B18512  29.224  39.492   8.392
 1132POPC   C3B18513  29.059  39.552   7.980
 1132POPC   C4B18514  29.315  39.695   7.641
 1133POPC   NC318515  13.625   9.651   9.556
 1133POPC   PO418516  13.142  10.214   9.619
 1133POPC   GL118517  13.324   9.940   9.228
 1133POPC   GL218518  13.675   9.767   9.072
 1133POPC   C1A18519  13.269   9.726   8.805
 1133POPC   D2A18520  13.472   9.567   8.426
 1133POPC   C3A18521  13.612   9.835   8.094
 1133POPC   C4A18522  13.554  10.119   7.756
 1133POPC   C1B18523  13.853   9.483   8.740
 1133POPC   C2B18524  14.034   9.593   8.279
 1133POPC   C3B18525  13.963   9.619   7.791
 1133POPC   C4B18526  14.021   9.424   7.349
 1134POPC   NC318527  21.937  28.666   9.562
 1134POPC   PO418528  22.281  28.025   9.613
 1134POPC   GL118529  22.124  28.171   9.201
 1134POPC   GL218530  22.206  28.513   9.146
 1134POPC   C1A18531  21.987  28.024   8.787
 1134POPC   D2A18532  22.140  28.261   8.448
 1134POPC   C3A18533  22.252  28.161   8.053
 1134POPC   C4A18534  22.422  28.446   7.755
 1134POPC   C1B18535  21.941  28.782   8.891
 1134POPC   C2B18536  21.939  28.726   8.477
 1134POPC   C3B18537  22.151  28.702   8.104
 1134POPC   C4B18538  21.972  28.677   7.695
 1135POPC   NC318539  44.396  30.763   9.530
 1135POPC   PO418540   0.003  30.524   9.433
 1135POPC   GL118541  44.787  30.782   9.154
 1135POPC   GL218542  44.452  30.635   9.033
 1135POPC   C1A18543  44.879  30.717   8.714
 1135POPC   D2A18544  44.632  30.699   8.349
 1135POPC   C3A18545  44.892  30.685   7.997
 1135POPC   C4A18546  44.734  30.789   7.612
 1135POPC   C1B18547  44.513  30.327   8.685
 1135POPC   C2B18548  44.436  30.192   8.224
 1135POPC   C3B18549  44.481  30.405   7.823
 1135POPC   C4B18550  44.523  30.405   7.329
 1136POPC   NC318551  38.614  22.993   9.460
 1136POPC   PO418552  37.989  23.178   9.750
 1136POPC   GL118553  38.117  23.225   9.283
 1136POPC   GL218554  38.235  22.936   9.126
 1136POPC   C1A18555  38.220  23.291   8.792
 1136POPC   D2A18556  38.194  23.023   8.405
 1136POPC   C3A18557  38.204  23.149   7.962
 1136POPC   C4A18558  38.316  23.217   7.494
 1136POPC   C1B18559  38.519  22.846   8.764
 1136POPC   C2B18560  38.687  22.901   8.322
 1136POPC   C3B18561  38.645  22.871   7.873
 1136POPC   C4B18562  38.693  22.902   7.420
 1137POPC   NC318563  20.060  30.858   9.492
 1137POPC   PO418564  19.449  30.680   9.371
 1137POPC   GL118565  19.704  30.825   9.089
 1137POPC   GL218566  19.921  30.566   9.119
 1137POPC   C1A18567  19.706  30.754   8.661
 1137POPC   D2A18568  19.493  30.539   8.336
 1137POPC   C3A18569  19.668  30.766   8.030
 1137POPC   C4A18570  19.955  30.700   7.736
 1137POPC   C1B18571  20.120  30.482   8.760
 1137POPC   C2B18572  20.126  30.608   8.339
 1137POPC   C3B18573  20.355  30.514   7.975
 1137POPC   C4B18574  20.211  30.259   7.668
 1138POPC   NC318575  11.404  26.326   9.502
 1138POPC   PO418576  11.106  25.595   9.544
 1138POPC   GL118577  11.246  25.890   9.229
 1138POPC   GL218578  11.085  26.199   9.144
 1138POPC   C1A18579  11.327  25.826   8.792
 1138POPC   D2A18580  11.249  26.022   8.406
 1138POPC   C3A18581  11.414  25.988   8.037
 1138POPC   C4A18582  11.282  26.067   7.671
 1138POPC   C1B18583  11.359  26.333   8.796
 1138POPC   C2B18584  11.663  26.292   8.444
 1138POPC   C3B18585  11.713  26.400   8.023
 1138POPC   C4B18586  11.434  26.573   7.741
 1139POPC   NC318587  14.794  17.100   9.387
 1139POPC   PO418588  15.413  16.814   9.577
 1139POPC   GL118589  15.222  16.666   9.201
 1139POPC   GL218590  15.043  16.883   8.992
 1139POPC   C1A18591  15.290  16.393   8.868
 1139POPC   D2A18592  15.197  16.565   8.512
 1139POPC   C3A18593  15.047  16.468   8.135
 1139POPC   C4A18594  15.227  16.357   7.774
 1139POPC   C1B18595  14.877  16.954   8.579
 1139POPC   C2B18596  15.119  16.975   8.205
 1139POPC   C3B18597  15.107  16.852   7.804
 1139POPC   C4B18598  14.937  16.900   7.409
 1140POPC   NC318599  29.176   0.577   9.830
 1140POPC   PO418600  29.132  44.935   9.751
 1140POPC   GL118601  29.275   0.171   9.345
 1140POPC   GL218602  29.038   0.427   9.321
 1140POPC   C1A18603  29.325   0.368   8.883
 1140POPC   D2A18604  29.387   0.482   8.424
 1140POPC   C3A18605  29.382   0.279   8.012
 1140POPC   C4A18606  29.379   0.322   7.528
 1140POPC   C1B18607  28.811   0.337   8.913
 1140POPC   C2B18608  28.680   0.475   8.503
 1140POPC   C3B18609  28.931   0.481   8.138
 1140POPC   C4B18610  28.940   0.237   7.767
 1141POPC   NC318611  20.656   1.118   9.678
 1141POPC   PO418612  20.316   1.650   9.421
 1141POPC   GL118613  20.587   1.490   9.063
 1141POPC   GL218614  20.663   1.144   9.173
 1141POPC   C1A18615  20.769   1.320   8.713
 1141POPC   D2A18616  20.978   1.429   8.357
 1141POPC   C3A18617  20.666   1.429   8.047
 1141POPC   C4A18618  20.609   1.558   7.626
 1141POPC   C1B18619  20.562   0.840   8.858
 1141POPC   C2B18620  20.394   0.841   8.461
 1141POPC   C3B18621  20.511   0.869   8.063
 1141POPC   C4B18622  20.630   1.046   7.694
 1142POPC   NC318623  16.754  14.203   9.554
 1142POPC   PO418624  16.730  14.851   9.566
 1142POPC   GL118625  16.800  14.588   9.203
 1142POPC   GL218626  16.540  14.305   9.098
 1142POPC   C1A18627  16.902  14.438   8.791
 1142POPC   D2A18628  16.614  14.392   8.434
 1142POPC   C3A18629  16.745  14.283   8.006
 1142POPC   C4A18630  16.983  14.376   7.616
 1142POPC   C1B18631  16.428  14.687   8.840
 1142POPC   C2B18632  16.392  14.860   8.400
 1142POPC   C3B18633  16.402  14.678   7.984
 1142POPC   C4B18634  16.480  14.464   7.560
 1143POPC   NC318635  39.025   2.167   9.496
 1143POPC   PO418636  39.471   1.693   9.525
 1143POPC   GL118637  39.415   1.790   9.109
 1143POPC   GL218638  39.070   1.917   9.060
 1143POPC   C1A18639  39.347   1.761   8.665
 1143POPC   D2A18640  39.370   1.961   8.272
 1143POPC   C3A18641  39.469   1.811   7.849
 1143POPC   C4A18642  39.466   1.964   7.419
 1143POPC   C1B18643  38.881   1.973   8.668
 1143POPC   C2B18644  38.852   1.866   8.262
 1143POPC   C3B18645  39.014   2.011   7.922
 1143POPC   C4B18646  39.015   2.124   7.550
 1144POPC   NC318647   4.730  10.808   9.356
 1144POPC   PO418648   4.071  10.728   9.513
 1144POPC   GL118649   4.192  10.584   9.145
 1144POPC   GL218650   4.130  10.865   8.986
 1144POPC   C1A18651   4.268  10.378   8.758
 1144POPC   D2A18652   4.357  10.539   8.347
 1144POPC   C3A18653   4.460  10.287   8.008
 1144POPC   C4A18654   4.336  10.390   7.616
 1144POPC   C1B18655   4.531  10.837   8.744
 1144POPC   C2B18656   4.744  10.888   8.366
 1144POPC   C3B18657   4.562  10.794   7.936
 1144POPC   C4B18658   4.581  10.835   7.455
 1145POPC   NC318659  12.668  17.589   9.407
 1145POPC   PO418660  13.346  17.345   9.439
 1145POPC   GL118661  13.021  17.301   9.106
 1145POPC   GL218662  12.664  17.264   9.016
 1145POPC   C1A18663  12.989  17.444   8.662
 1145POPC   D2A18664  12.992  17.573   8.230
 1145POPC   C3A18665  12.923  17.354   7.855
 1145POPC   C4A18666  13.144  17.679   7.693
 1145POPC   C1B18667  12.480  17.578   8.692
 1145POPC   C2B18668  12.469  17.539   8.225
 1145POPC   C3B18669  12.590  17.754   7.833
 1145POPC   C4B18670  12.732  17.602   7.423
 1146POPC   NC318671  44.754   4.073   9.559
 1146POPC   PO418672  44.337   4.510   9.465
 1146POPC   GL118673  44.463   4.227   9.136
 1146POPC   GL218674  44.823   4.217   9.094
 1146POPC   C1A18675  44.431   4.195   8.679
 1146POPC   D2A18676  44.534   4.122   8.207
 1146POPC   C3A18677  44.356   4.434   7.873
 1146POPC   C4A18678  44.319   4.313   7.384
 1146POPC   C1B18679   0.004   4.340   8.756
 1146POPC   C2B18680   0.093   4.151   8.367
 1146POPC   C3B18681  44.980   4.311   7.989
 1146POPC   C4B18682  44.742   4.200   7.674
 1147POPC   NC318683   4.015  19.889   9.487
 1147POPC   PO418684   3.418  19.480   9.440
 1147POPC   GL118685   3.653  19.718   9.104
 1147POPC   GL218686   3.420  19.960   8.954
 1147POPC   C1A18687   3.820  19.855   8.677
 1147POPC   D2A18688   3.697  20.182   8.391
 1147POPC   C3A18689   3.608  20.017   7.972
 1147POPC   C4A18690   3.819  19.729   7.735
 1147POPC   C1B18691   3.266  19.657   8.709
 1147POPC   C2B18692   3.396  19.731   8.315
 1147POPC   C3B18693   3.459  19.482   7.953
 1147POPC   C4B18694   3.263  19.500   7.567
 1148POPC   NC318695  42.707  31.164   9.444
 1148POPC   PO418696  43.401  31.264   9.475
 1148POPC   GL118697  43.221  31.417   9.067
 1148POPC   GL218698  42.954  31.224   9.012
 1148POPC   C1A18699  43.344  31.596   8.652
 1148POPC   D2A18700  43.053  31.813   8.346
 1148POPC   C3A18701  42.844  31.741   7.948
 1148POPC   C4A18702  42.904  31.626   7.504
 1148POPC   C1B18703  42.938  31.292   8.589
 1148POPC   C2B18704  43.132  31.321   8.207
 1148POPC   C3B18705  43.006  31.246   7.810
 1148POPC   C4B18706  42.826  31.109   7.438
 1149POPC   NC318707  35.047  30.579   9.855
 1149POPC   PO418708  35.641  30.509   9.621
 1149POPC   GL118709  35.478  30.735   9.210
 1149POPC   GL218710  35.721  30.792   8.944
 1149POPC   C1A18711  35.286  30.612   8.764
 1149POPC   D2A18712  35.322  30.719   8.315
 1149POPC   C3A18713  35.030  30.580   7.992
 1149POPC   C4A18714  35.307  30.830   7.721
 1149POPC   C1B18715  35.760  30.510   8.546
 1149POPC   C2B18716  35.760  30.479   8.139
 1149POPC   C3B18717  35.449  30.350   7.856
 1149POPC   C4B18718  35.520  30.393   7.413
 1150POPC   NC318719  11.460   5.196   9.574
 1150POPC   PO418720  12.147   5.314   9.616
 1150POPC   GL118721  12.154   5.401   9.172
 1150POPC   GL218722  11.847   5.609   9.210
 1150POPC   C1A18723  12.284   5.268   8.723
 1150POPC   D2A18724  12.388   4.997   8.334
 1150POPC   C3A18725  12.234   5.019   7.882
 1150POPC   C4A18726  11.943   5.041   7.513
 1150POPC   C1B18727  11.801   5.384   8.801
 1150POPC   C2B18728  11.864   5.223   8.361
 1150POPC   C3B18729  11.853   5.348   7.923
 1150POPC   C4B18730  12.010   5.580   7.532
 1151POPC   NC318731  33.376  10.838   9.702
 1151POPC   PO418732  32.815  10.492   9.652
 1151POPC   GL118733  32.872  10.575   9.227
 1151POPC   GL218734  33.234  10.604   9.248
 1151POPC   C1A18735  32.768  10.500   8.791
 1151POPC   D2A18736  32.912  10.440   8.357
 1151POPC   C3A18737  32.905  10.683   7.971
 1151POPC   C4A18738  32.879  10.583   7.516
 1151POPC   C1B18739  33.301  10.449   8.831
 1151POPC   C2B18740  33.420  10.607   8.428
 1151POPC   C3B18741  33.353  10.463   8.016
 1151POPC   C4B18742  33.356  10.653   7.616
 1152POPC   NC318743  21.597  29.405   9.318
 1152POPC   PO418744  21.164  28.865   9.511
 1152POPC   GL118745  21.164  29.094   9.124
 1152POPC   GL218746  21.102  29.452   9.204
 1152POPC   C1A18747  21.428  29.026   8.745
 1152POPC   D2A18748  21.710  29.171   8.407
 1152POPC   C3A18749  21.678  28.895   8.068
 1152POPC   C4A18750  21.386  28.656   7.869
 1152POPC   C1B18751  21.173  29.570   8.784
 1152POPC   C2B18752  21.388  29.562   8.402
 1152POPC   C3B18753  21.434  29.343   7.995
 1152POPC   C4B18754  21.086  29.342   7.724
 1153POPC   NC318755  15.857  28.354   9.478
 1153POPC   PO418756  16.563  28.508   9.438
 1153POPC   GL118757  16.224  28.436   9.109
 1153POPC   GL218758  15.898  28.630   9.039
 1153POPC   C1A18759  16.015  28.232   8.734
 1153POPC   D2A18760  16.174  28.086   8.336
 1153POPC   C3A18761  15.952  28.076   7.934
 1153POPC   C4A18762  16.218  28.216   7.617
 1153POPC   C1B18763  15.555  28.446   8.728
 1153POPC   C2B18764  15.643  28.326   8.294
 1153POPC   C3B18765  15.797  28.561   7.945
 1153POPC   C4B18766  15.503  28.814   7.723
 1154POPC   NC318767  26.285   6.000  10.069
 1154POPC   PO418768  26.002   5.674   9.571
 1154POPC   GL118769  25.948   5.584   9.127
 1154POPC   GL218770  26.241   5.457   9.025
 1154POPC   C1A18771  26.064   5.857   8.753
 1154POPC   D2A18772  25.936   5.923   8.330
 1154POPC   C3A18773  26.122   6.040   7.929
 1154POPC   C4A18774  26.051   5.887   7.491
 1154POPC   C1B18775  26.038   5.375   8.601
 1154POPC   C2B18776  25.838   5.432   8.212
 1154POPC   C3B18777  26.080   5.543   7.862
 1154POPC   C4B18778  26.484   5.691   7.766
 1155POPC   NC318779  11.727   6.817   9.590
 1155POPC   PO418780  11.140   6.421   9.757
 1155POPC   GL118781  11.343   6.490   9.357
 1155POPC   GL218782  11.340   6.814   9.233
 1155POPC   C1A18783  11.382   6.433   8.900
 1155POPC   D2A18784  11.233   6.599   8.501
 1155POPC   C3A18785  11.255   6.311   8.155
 1155POPC   C4A18786  11.400   6.382   7.755
 1155POPC   C1B18787  11.484   6.951   8.806
 1155POPC   C2B18788  11.374   7.125   8.395
 1155POPC   C3B18789  11.327   6.885   7.994
 1155POPC   C4B18790  11.599   6.946   7.616
 1156POPC   NC318791  22.554  14.833   9.559
 1156POPC   PO418792  22.947  15.354   9.689
 1156POPC   GL118793  22.986  15.237   9.229
 1156POPC   GL218794  23.299  15.045   9.157
 1156POPC   C1A18795  22.935  15.070   8.806
 1156POPC   D2A18796  22.642  15.120   8.468
 1156POPC   C3A18797  22.760  14.936   8.092
 1156POPC   C4A18798  22.860  14.949   7.670
 1156POPC   C1B18799  23.434  14.824   8.774
 1156POPC   C2B18800  23.188  14.890   8.387
 1156POPC   C3B18801  23.273  15.053   7.987
 1156POPC   C4B18802  23.361  14.922   7.616
 1157POPC   NC318803  29.077  12.646   9.456
 1157POPC   PO418804  29.606  13.110   9.512
 1157POPC   GL118805  29.259  13.055   9.188
 1157POPC   GL218806  29.057  13.349   9.142
 1157POPC   C1A18807  29.095  12.807   8.786
 1157POPC   D2A18808  29.310  12.626   8.383
 1157POPC   C3A18809  29.194  12.685   7.931
 1157POPC   C4A18810  29.204  12.837   7.491
 1157POPC   C1B18811  29.174  13.292   8.724
 1157POPC   C2B18812  29.095  13.087   8.331
 1157POPC   C3B18813  29.119  13.181   7.919
 1157POPC   C4B18814  29.224  13.552   7.723
 1158POPC   NC318815  33.943  31.713   9.621
 1158POPC   PO418816  33.335  31.492   9.447
 1158POPC   GL118817  33.669  31.543   9.190
 1158POPC   GL218818  33.978  31.357   9.254
 1158POPC   C1A18819  33.800  31.473   8.783
 1158POPC   D2A18820  33.738  31.313   8.402
 1158POPC   C3A18821  33.959  31.528   8.093
 1158POPC   C4A18822  33.708  31.614   7.766
 1158POPC   C1B18823  34.143  31.119   8.891
 1158POPC   C2B18824  34.224  31.180   8.447
 1158POPC   C3B18825  34.074  31.038   8.027
 1158POPC   C4B18826  33.881  31.151   7.621
 1159POPC   NC318827   7.670  37.169   9.510
 1159POPC   PO418828   7.217  37.737   9.536
 1159POPC   GL118829   7.448  37.774   9.137
 1159POPC   GL218830   7.789  38.008   9.119
 1159POPC   C1A18831   7.278  37.643   8.735
 1159POPC   D2A18832   7.232  37.461   8.351
 1159POPC   C3A18833   7.444  37.537   7.993
 1159POPC   C4A18834   7.354  37.661   7.596
 1159POPC   C1B18835   7.683  37.968   8.725
 1159POPC   C2B18836   7.640  37.827   8.348
 1159POPC   C3B18837   7.817  37.907   7.959
 1159POPC   C4B18838   7.633  38.077   7.619
 1160POPC   NC318839   3.172  34.374   9.264
 1160POPC   PO418840   3.833  34.281   9.623
 1160POPC   GL118841   3.779  34.482   9.131
 1160POPC   GL218842   3.482  34.633   8.980
 1160POPC   C1A18843   3.846  34.878   8.769
 1160POPC   D2A18844   3.806  34.837   8.295
 1160POPC   C3A18845   3.398  34.875   8.046
 1160POPC   C4A18846   3.382  34.733   7.575
 1160POPC   C1B18847   3.484  34.552   8.556
 1160POPC   C2B18848   3.717  34.281   8.295
 1160POPC   C3B18849   3.522  34.410   7.925
 1160POPC   C4B18850   3.282  34.199   7.604
 1161POPC   NC318851  34.507  41.752   9.460
 1161POPC   PO418852  34.857  41.269   9.306
 1161POPC   GL118853  34.609  41.439   9.066
 1161POPC   GL218854  34.273  41.379   9.194
 1161POPC   C1A18855  34.714  41.630   8.683
 1161POPC   D2A18856  34.887  41.342   8.448
 1161POPC   C3A18857  34.882  41.165   8.042
 1161POPC   C4A18858  34.664  41.253   7.705
 1161POPC   C1B18859  34.233  41.601   8.808
 1161POPC   C2B18860  34.302  41.381   8.445
 1161POPC   C3B18861  34.495  41.522   8.110
 1161POPC   C4B18862  34.320  41.651   7.713
 1162POPC   NC318863  30.210  16.526   9.520
 1162POPC   PO418864  29.613  16.465   9.402
 1162POPC   GL118865  29.869  16.676   9.109
 1162POPC   GL218866  30.071  16.974   9.232
 1162POPC   C1A18867  29.956  16.586   8.666
 1162POPC   D2A18868  30.075  16.641   8.223
 1162POPC   C3A18869  29.821  16.612   7.902
 1162POPC   C4A18870  30.053  16.313   7.703
 1162POPC   C1B18871  29.974  17.076   8.792
 1162POPC   C2B18872  30.220  17.082   8.388
 1162POPC   C3B18873  30.007  17.110   7.961
 1162POPC   C4B18874  29.749  16.998   7.582
 1163POPC   NC318875  31.034  13.417   9.678
 1163POPC   PO418876  31.297  12.773   9.409
 1163POPC   GL118877  31.227  13.005   9.057
 1163POPC   GL218878  30.988  13.285   9.152
 1163POPC   C1A18879  31.299  12.840   8.631
 1163POPC   D2A18880  31.632  12.774   8.321
 1163POPC   C3A18881  31.554  12.770   7.905
 1163POPC   C4A18882  31.846  12.888   7.618
 1163POPC   C1B18883  30.863  13.211   8.735
 1163POPC   C2B18884  31.081  13.213   8.332
 1163POPC   C3B18885  31.055  13.233   7.885
 1163POPC   C4B18886  31.356  13.159   7.551
 1164POPC   NC318887  21.945  13.494   9.942
 1164POPC   PO418888  21.735  14.027   9.528
 1164POPC   GL118889  21.996  13.641   9.393
 1164POPC   GL218890  22.352  13.693   9.262
 1164POPC   C1A18891  22.000  13.466   8.956
 1164POPC   D2A18892  22.217  13.506   8.535
 1164POPC   C3A18893  22.075  13.726   8.153
 1164POPC   C4A18894  22.104  13.487   7.763
 1164POPC   C1B18895  22.492  13.830   8.822
 1164POPC   C2B18896  22.437  14.031   8.383
 1164POPC   C3B18897  22.493  13.991   7.939
 1164POPC   C4B18898  22.525  14.016   7.463
 1165POPC   NC318899  43.590  33.295   9.489
 1165POPC   PO418900  44.301  33.426   9.653
 1165POPC   GL118901  44.113  33.341   9.233
 1165POPC   GL218902  43.931  33.005   9.218
 1165POPC   C1A18903  44.116  33.201   8.796
 1165POPC   D2A18904  43.985  32.940   8.474
 1165POPC   C3A18905  44.115  33.130   8.098
 1165POPC   C4A18906  44.090  33.135   7.684
 1165POPC   C1B18907  43.612  33.077   8.857
 1165POPC   C2B18908  43.453  32.910   8.469
 1165POPC   C3B18909  43.633  32.838   8.071
 1165POPC   C4B18910  43.603  33.204   7.835
 1166POPC   NC318911  23.680  18.710   9.422
 1166POPC   PO418912  23.544  19.350   9.569
 1166POPC   GL118913  23.475  19.136   9.169
 1166POPC   GL218914  23.808  19.037   9.053
 1166POPC   C1A18915  23.419  18.994   8.719
 1166POPC   D2A18916  23.297  18.839   8.302
 1166POPC   C3A18917  23.426  19.087   7.962
 1166POPC   C4A18918  23.666  19.127   7.587
 1166POPC   C1B18919  23.967  18.884   8.636
 1166POPC   C2B18920  24.125  18.774   8.213
 1166POPC   C3B18921  24.150  19.013   7.809
 1166POPC   C4B18922  24.447  19.051   7.441
 1167POPC   NC318923   4.151  18.165   9.422
 1167POPC   PO418924   4.864  17.930   9.479
 1167POPC   GL118925   4.697  18.279   9.215
 1167POPC   GL218926   4.508  18.003   9.083
 1167POPC   C1A18927   4.493  18.399   8.773
 1167POPC   D2A18928   4.404  18.228   8.341
 1167POPC   C3A18929   4.411  18.500   7.985
 1167POPC   C4A18930   4.544  18.593   7.521
 1167POPC   C1B18931   4.228  17.897   8.737
 1167POPC   C2B18932   4.298  17.729   8.329
 1167POPC   C3B18933   4.252  17.881   7.921
 1167POPC   C4B18934   3.888  17.865   7.678
 1168POPC   NC318935  39.884  12.460   9.574
 1168POPC   PO418936  40.208  13.079   9.435
 1168POPC   GL118937  40.032  12.972   9.093
 1168POPC   GL218938  39.946  12.617   9.099
 1168POPC   C1A18939  40.203  12.897   8.708
 1168POPC   D2A18940  40.277  12.658   8.357
 1168POPC   C3A18941  40.303  12.985   8.076
 1168POPC   C4A18942  40.146  12.964   7.724
 1168POPC   C1B18943  39.746  12.671   8.716
 1168POPC   C2B18944  39.823  12.883   8.318
 1168POPC   C3B18945  39.734  12.711   7.892
 1168POPC   C4B18946  39.461  12.324   7.848
 1169POPC   NC318947  10.507   4.816   9.525
 1169POPC   PO418948  10.467   5.548   9.565
 1169POPC   GL118949  10.512   5.276   9.233
 1169POPC   GL218950  10.174   5.264   9.155
 1169POPC   C1A18951  10.527   5.169   8.784
 1169POPC   D2A18952  10.497   4.985   8.369
 1169POPC   C3A18953  10.736   5.180   8.046
 1169POPC   C4A18954  10.691   5.570   7.759
 1169POPC   C1B18955  10.080   4.931   8.840
 1169POPC   C2B18956  10.034   4.791   8.415
 1169POPC   C3B18957  10.128   4.957   8.011
 1169POPC   C4B18958  10.368   5.170   7.693
 1170POPC   NC318959  36.129  23.510   9.268
 1170POPC   PO418960  36.431  22.907   9.553
 1170POPC   GL118961  36.206  22.868   9.161
 1170POPC   GL218962  35.913  23.035   9.139
 1170POPC   C1A18963  36.173  22.660   8.748
 1170POPC   D2A18964  36.380  22.748   8.396
 1170POPC   C3A18965  36.105  22.665   8.071
 1170POPC   C4A18966  36.061  22.747   7.682
 1170POPC   C1B18967  36.134  23.156   8.740
 1170POPC   C2B18968  35.978  23.056   8.360
 1170POPC   C3B18969  35.774  23.104   7.991
 1170POPC   C4B18970  35.932  23.227   7.626
 1171POPC   NC318971  41.522  27.859   9.337
 1171POPC   PO418972  41.833  27.330   9.532
 1171POPC   GL118973  41.561  27.301   9.162
 1171POPC   GL218974  41.876  27.334   9.025
 1171POPC   C1A18975  41.331  27.462   8.799
 1171POPC   D2A18976  41.393  27.690   8.410
 1171POPC   C3A18977  41.482  27.500   8.002
 1171POPC   C4A18978  41.291  27.597   7.617
 1171POPC   C1B18979  41.823  27.662   8.740
 1171POPC   C2B18980  42.014  27.937   8.438
 1171POPC   C3B18981  42.055  27.760   8.037
 1171POPC   C4B18982  41.763  27.794   7.692
 1172POPC   NC318983   3.001  16.326   9.533
 1172POPC   PO418984   3.026  15.685   9.513
 1172POPC   GL118985   2.746  15.811   9.214
 1172POPC   GL218986   2.817  16.131   9.101
 1172POPC   C1A18987   2.748  15.748   8.776
 1172POPC   D2A18988   2.928  15.808   8.396
 1172POPC   C3A18989   2.643  15.640   8.143
 1172POPC   C4A18990   2.918  15.524   7.867
 1172POPC   C1B18991   2.821  16.363   8.722
 1172POPC   C2B18992   2.987  16.334   8.290
 1172POPC   C3B18993   2.844  16.063   7.933
 1172POPC   C4B18994   2.550  16.161   7.546
 1173POPC   NC318995  39.875   0.018   9.271
 1173POPC   PO418996  39.821  44.372   9.507
 1173POPC   GL118997  39.833  44.532   9.098
 1173POPC   GL218998  40.198  44.626   9.180
 1173POPC   C1A18999  39.944  44.735   8.677
 1173POPC   D2A19000  40.229  44.845   8.327
 1173POPC   C3A19001  40.085  44.811   7.902
 1173POPC   C4A19002  39.649  44.690   7.777
 1173POPC   C1B19003  40.251  44.359   8.848
 1173POPC   C2B19004  40.237  44.326   8.431
 1173POPC   C3B19005  40.449  44.443   8.067
 1173POPC   C4B19006  40.426  44.195   7.728
 1174POPC   NC319007  31.706  44.169   9.785
 1174POPC   PO419008  31.445  43.676   9.365
 1174POPC   GL119009  31.757  43.619   9.056
 1174POPC   GL219010  31.730  43.304   9.065
 1174POPC   C1A19011  31.730  43.770   8.611
 1174POPC   D2A19012  31.411  44.082   8.531
 1174POPC   C3A19013  31.456  44.238   8.151
 1174POPC   C4A19014  31.487  44.218   7.753
 1174POPC   C1B19015  31.365  43.462   8.771
 1174POPC   C2B19016  31.236  43.579   8.391
 1174POPC   C3B19017  31.419  43.748   8.075
 1174POPC   C4B19018  31.458  43.716   7.665
 1175POPC   NC319019  35.001  21.309   9.706
 1175POPC   PO419020  34.372  21.408   9.483
 1175POPC   GL119021  34.413  21.282   9.107
 1175POPC   GL219022  34.771  21.195   9.152
 1175POPC   C1A19023  34.175  21.299   8.741
 1175POPC   D2A19024  34.146  21.474   8.349
 1175POPC   C3A19025  34.465  21.377   8.070
 1175POPC   C4A19026  34.409  21.394   7.663
 1175POPC   C1B19027  34.658  21.124   8.699
 1175POPC   C2B19028  34.663  20.956   8.285
 1175POPC   C3B19029  34.801  20.998   7.835
 1175POPC   C4B19030  34.832  21.245   7.425
 1176POPC   NC319031  44.538  38.817   9.840
 1176POPC   PO419032  44.384  38.153   9.680
 1176POPC   GL119033  44.458  38.182   9.234
 1176POPC   GL219034  44.751  38.411   9.163
 1176POPC   C1A19035  44.365  38.347   8.830
 1176POPC   D2A19036  44.665  38.254   8.538
 1176POPC   C3A19037  44.645  38.392   8.145
 1176POPC   C4A19038  44.444  38.228   7.766
 1176POPC   C1B19039  44.761  38.711   8.790
 1176POPC   C2B19040  44.950  38.872   8.400
 1176POPC   C3B19041  44.714  38.925   8.017
 1176POPC   C4B19042  44.760  38.624   7.700
 1177POPC   NC319043  41.918   0.404   9.594
 1177POPC   PO419044  41.138   0.202   9.503
 1177POPC   GL119045  41.367   0.271   9.114
 1177POPC   GL219046  41.681   0.467   9.154
 1177POPC   C1A19047  41.457   0.495   8.708
 1177POPC   D2A19048  41.408   0.737   8.331
 1177POPC   C3A19049  41.491   0.445   8.051
 1177POPC   C4A19050  41.614   0.422   7.644
 1177POPC   C1B19051  41.941   0.700   8.844
 1177POPC   C2B19052  41.904   0.776   8.390
 1177POPC   C3B19053  41.796   0.846   7.937
 1177POPC   C4B19054  41.941   0.800   7.481
 1178POPC   NC319055  26.934  40.543   9.465
 1178POPC   PO419056  26.687  39.968   9.244
 1178POPC   GL119057  26.878  40.277   9.038
 1178POPC   GL219058  26.605  40.546   9.060
 1178POPC   C1A19059  26.935  40.518   8.676
 1178POPC   D2A19060  26.598  40.697   8.428
 1178POPC   C3A19061  26.630  40.519   8.012
 1178POPC   C4A19062  26.839  40.716   7.667
 1178POPC   C1B19063  26.780  40.951   8.904
 1178POPC   C2B19064  27.037  41.039   8.521
 1178POPC   C3B19065  26.915  40.976   8.104
 1178POPC   C4B19066  26.498  41.010   7.921
 1179POPC   NC319067  38.826  36.010   9.597
 1179POPC   PO419068  38.223  35.999   9.374
 1179POPC   GL119069  38.457  36.261   9.077
 1179POPC   GL219070  38.825  36.290   9.153
 1179POPC   C1A19071  38.604  36.278   8.634
 1179POPC   D2A19072  38.796  36.240   8.222
 1179POPC   C3A19073  38.550  36.280   7.862
 1179POPC   C4A19074  38.253  36.431   7.528
 1179POPC   C1B19075  38.806  35.902   8.910
 1179POPC   C2B19076  38.640  35.770   8.546
 1179POPC   C3B19077  38.684  35.740   8.131
 1179POPC   C4B19078  38.465  35.803   7.733
 1180POPC   NC319079  15.654  33.135   9.514
 1180POPC   PO419080  15.058  32.761   9.575
 1180POPC   GL119081  15.231  32.947   9.213
 1180POPC   GL219082  15.478  32.732   9.169
 1180POPC   C1A19083  15.126  33.151   8.797
 1180POPC   D2A19084  14.988  33.005   8.382
 1180POPC   C3A19085  14.917  33.288   8.082
 1180POPC   C4A19086  15.076  33.131   7.735
 1180POPC   C1B19087  15.247  32.644   8.797
 1180POPC   C2B19088  15.251  32.545   8.375
 1180POPC   C3B19089  15.284  32.679   7.925
 1180POPC   C4B19090  15.578  32.977   7.769
 1181POPC   NC319091  44.566  27.640   9.568
 1181POPC   PO419092   0.051  27.301   9.816
 1181POPC   GL119093   0.003  27.502   9.299
 1181POPC   GL219094  44.804  27.802   9.151
 1181POPC   C1A19095  44.804  27.408   8.820
 1181POPC   D2A19096  44.688  27.552   8.405
 1181POPC   C3A19097  44.597  27.304   8.080
 1181POPC   C4A19098  44.547  27.336   7.648
 1181POPC   C1B19099  44.594  27.906   8.754
 1181POPC   C2B19100  44.462  28.017   8.304
 1181POPC   C3B19101  44.657  27.815   7.933
 1181POPC   C4B19102  44.543  27.790   7.459
 1182POPC   NC319103  10.112   7.710   9.403
 1182POPC   PO419104  10.593   7.237   9.567
 1182POPC   GL119105  10.457   7.119   9.187
 1182POPC   GL219106  10.135   7.260   9.159
 1182POPC   C1A19107  10.731   7.026   8.814
 1182POPC   D2A19108  10.888   6.997   8.392
 1182POPC   C3A19109  10.661   7.135   8.026
 1182POPC   C4A19110  10.739   7.445   7.671
 1182POPC   C1B19111  10.465   7.465   8.843
 1182POPC   C2B19112  10.624   7.457   8.434
 1182POPC   C3B19113  10.540   7.687   8.064
 1182POPC   C4B19114  10.253   7.747   7.706
 1183POPC   NC319115   1.572  22.469   9.396
 1183POPC   PO419116   2.272  22.607   9.515
 1183POPC   GL119117   2.041  22.315   9.187
 1183POPC   GL219118   2.186  22.002   9.110
 1183POPC   C1A19119   1.819  22.194   8.789
 1183POPC   D2A19120   1.754  21.970   8.399
 1183POPC   C3A19121   1.980  22.276   8.148
 1183POPC   C4A19122   1.971  22.509   7.743
 1183POPC   C1B19123   2.095  21.767   8.766
 1183POPC   C2B19124   2.241  21.811   8.368
 1183POPC   C3B19125   2.089  21.780   7.978
 1183POPC   C4B19126   1.836  22.018   7.739
 1184POPC   NC319127  30.831  25.369   9.877
 1184POPC   PO419128  30.818  26.063   9.672
 1184POPC   GL119129  30.819  25.918   9.277
 1184POPC   GL219130  30.827  26.222   9.168
 1184POPC   C1A19131  30.730  25.841   8.839
 1184POPC   D2A19132  30.689  26.155   8.495
 1184POPC   C3A19133  30.650  25.964   8.090
 1184POPC   C4A19134  30.580  26.176   7.726
 1184POPC   C1B19135  31.104  26.169   8.810
 1184POPC   C2B19136  31.162  26.343   8.433
 1184POPC   C3B19137  30.985  26.367   8.030
 1184POPC   C4B19138  31.086  26.044   7.725
 1185POPC   NC319139  38.770  30.722   9.457
 1185POPC   PO419140  38.252  30.337   9.506
 1185POPC   GL119141  38.447  30.466   9.117
 1185POPC   GL219142  38.599  30.806   8.985
 1185POPC   C1A19143  38.255  30.525   8.730
 1185POPC   D2A19144  38.276  30.820   8.448
 1185POPC   C3A19145  38.268  30.683   8.078
 1185POPC   C4A19146  38.428  30.520   7.754
 1185POPC   C1B19147  39.003  30.970   8.800
 1185POPC   C2B19148  39.030  31.021   8.338
 1185POPC   C3B19149  38.643  31.054   8.065
 1185POPC   C4B19150  38.543  31.000   7.604
 1186POPC   NC319151  39.205   0.388   9.914
 1186POPC   PO419152  38.576   0.454   9.575
 1186POPC   GL119153  38.583   0.527   9.167
 1186POPC   GL219154  38.472   0.196   9.091
 1186POPC   C1A19155  38.545   0.579   8.743
 1186POPC   D2A19156  38.490   0.251   8.456
 1186POPC   C3A19157  38.357   0.507   8.115
 1186POPC   C4A19158  38.506   0.754   7.763
 1186POPC   C1B19159  38.182  44.953   8.832
 1186POPC   C2B19160  38.077  44.829   8.410
 1186POPC   C3B19161  38.302  44.980   8.056
 1186POPC   C4B19162  38.337   0.167   7.678
 1187POPC   NC319163  27.070  27.911   9.441
 1187POPC   PO419164  26.445  27.622   9.523
 1187POPC   GL119165  26.750  27.577   9.191
 1187POPC   GL219166  26.756  27.908   9.022
 1187POPC   C1A19167  26.934  27.477   8.807
 1187POPC   D2A19168  26.782  27.717   8.427
 1187POPC   C3A19169  26.755  27.482   8.052
 1187POPC   C4A19170  26.636  27.208   7.726
 1187POPC   C1B19171  27.113  27.973   8.751
 1187POPC   C2B19172  27.249  27.885   8.323
 1187POPC   C3B19173  27.006  27.916   7.938
 1187POPC   C4B19174  26.833  27.681   7.587
 1188POPC   NC319175  21.089   0.593   9.422
 1188POPC   PO419176  21.658   0.253   9.526
 1188POPC   GL119177  21.439   0.241   9.149
 1188POPC   GL219178  21.107   0.094   9.202
 1188POPC   C1A19179  21.406   0.498   8.757
 1188POPC   D2A19180  21.375   0.753   8.367
 1188POPC   C3A19181  21.470   0.510   8.007
 1188POPC   C4A19182  21.232   0.470   7.655
 1188POPC   C1B19183  21.225  44.996   8.759
 1188POPC   C2B19184  21.189   0.189   8.349
 1188POPC   C3B19185  20.956   0.037   7.982
 1188POPC   C4B19186  20.980   0.061   7.539
 1189POPC   NC319187  24.143   0.799   9.293
 1189POPC   PO419188  24.738   1.019   9.582
 1189POPC   GL119189  24.632   0.980   9.176
 1189POPC   GL219190  24.439   1.273   9.176
 1189POPC   C1A19191  24.596   1.116   8.722
 1189POPC   D2A19192  24.659   1.317   8.327
 1189POPC   C3A19193  24.540   1.124   7.916
 1189POPC   C4A19194  24.534   1.100   7.413
 1189POPC   C1B19195  24.217   1.449   8.818
 1189POPC   C2B19196  24.172   1.443   8.394
 1189POPC   C3B19197  24.157   1.445   7.967
 1189POPC   C4B19198  24.100   1.113   7.665
 1190POPC   NC319199  24.915  30.118   9.408
 1190POPC   PO419200  25.157  29.479   9.420
 1190POPC   GL119201  25.313  29.806   9.169
 1190POPC   GL219202  25.530  29.639   8.890
 1190POPC   C1A19203  25.356  30.125   8.862
 1190POPC   D2A19204  25.459  29.947   8.474
 1190POPC   C3A19205  25.250  30.100   8.103
 1190POPC   C4A19206  25.364  30.310   7.740
 1190POPC   C1B19207  25.089  29.691   8.710
 1190POPC   C2B19208  25.081  29.648   8.258
 1190POPC   C3B19209  25.328  29.534   7.866
 1190POPC   C4B19210  25.231  29.562   7.407
 1191POPC   NC319211  37.123   0.556   9.599
 1191POPC   PO419212  36.542   0.338   9.534
 1191POPC   GL119213  36.864   0.360   9.184
 1191POPC   GL219214  37.220   0.545   9.112
 1191POPC   C1A19215  36.704   0.374   8.775
 1191POPC   D2A19216  36.506   0.135   8.437
 1191POPC   C3A19217  36.573   0.342   8.031
 1191POPC   C4A19218  36.532   0.588   7.666
 1191POPC   C1B19219  37.198   0.248   8.780
 1191POPC   C2B19220  37.004   0.207   8.378
 1191POPC   C3B19221  37.119   0.316   7.982
 1191POPC   C4B19222  37.044   0.625   7.702
 1192POPC   NC319223  26.672  27.261   9.715
 1192POPC   PO419224  25.961  27.196   9.476
 1192POPC   GL119225  26.022  26.883   9.161
 1192POPC   GL219226  26.332  26.741   9.222
 1192POPC   C1A19227  25.952  26.899   8.715
 1192POPC   D2A19228  25.685  26.668   8.406
 1192POPC   C3A19229  25.869  26.669   8.004
 1192POPC   C4A19230  26.119  27.005   7.838
 1192POPC   C1B19231  26.357  26.588   8.802
 1192POPC   C2B19232  26.268  26.692   8.365
 1192POPC   C3B19233  26.534  26.820   8.046
 1192POPC   C4B19234  26.554  26.709   7.614
 1193POPC   NC319235  40.821  35.975   9.745
 1193POPC   PO419236  40.506  36.564   9.518
 1193POPC   GL119237  40.805  36.280   9.268
 1193POPC   GL219238  40.892  35.894   9.232
 1193POPC   C1A19239  40.806  36.285   8.819
 1193POPC   D2A19240  40.631  36.390   8.431
 1193POPC   C3A19241  40.895  36.307   8.109
 1193POPC   C4A19242  40.893  36.176   7.704
 1193POPC   C1B19243  40.719  35.785   8.828
 1193POPC   C2B19244  40.930  35.876   8.402
 1193POPC   C3B19245  40.834  35.741   7.986
 1193POPC   C4B19246  40.923  35.711   7.532
 1194POPC   NC319247   7.227  12.920   9.592
 1194POPC   PO419248   7.637  12.498   9.299
 1194POPC   GL119249   7.352  12.782   9.115
 1194POPC   GL219250   7.556  12.798   8.833
 1194POPC   C1A19251   7.121  13.079   8.835
 1194POPC   D2A19252   7.335  13.125   8.440
 1194POPC   C3A19253   7.173  13.153   8.021
 1194POPC   C4A19254   7.529  13.054   7.795
 1194POPC   C1B19255   7.218  12.630   8.590
 1194POPC   C2B19256   7.236  12.654   8.135
 1194POPC   C3B19257   7.458  12.513   7.765
 1194POPC   C4B19258   7.356  12.331   7.356
 1195POPC   NC319259   6.339  32.823   9.383
 1195POPC   PO419260   6.734  33.297   9.508
 1195POPC   GL119261   6.623  33.154   9.068
 1195POPC   GL219262   6.285  33.098   8.962
 1195POPC   C1A19263   6.633  33.116   8.600
 1195POPC   D2A19264   6.641  32.884   8.214
 1195POPC   C3A19265   6.752  33.018   7.807
 1195POPC   C4A19266   6.828  33.227   7.402
 1195POPC   C1B19267   6.399  32.683   8.717
 1195POPC   C2B19268   6.290  32.541   8.278
 1195POPC   C3B19269   6.417  32.605   7.830
 1195POPC   C4B19270   6.567  32.271   7.530
 1196POPC   NC319271  18.863   9.103   9.776
 1196POPC   PO419272  18.223   9.063   9.410
 1196POPC   GL119273  18.398   8.988   9.019
 1196POPC   GL219274  18.596   8.734   9.154
 1196POPC   C1A19275  18.405   9.014   8.564
 1196POPC   D2A19276  18.116   9.002   8.234
 1196POPC   C3A19277  18.319   9.172   7.905
 1196POPC   C4A19278  18.182   9.124   7.528
 1196POPC   C1B19279  18.790   8.732   8.774
 1196POPC   C2B19280  18.774   8.567   8.367
 1196POPC   C3B19281  18.513   8.711   8.046
 1196POPC   C4B19282  18.613   8.837   7.616
 1197POPC   NC319283  44.231  44.094   9.270
 1197POPC   PO419284  43.782  43.593   9.519
 1197POPC   GL119285  43.677  43.791   9.111
 1197POPC   GL219286  43.811  44.105   8.948
 1197POPC   C1A19287  43.719  43.690   8.682
 1197POPC   D2A19288  43.797  43.891   8.312
 1197POPC   C3A19289  43.638  43.708   7.964
 1197POPC   C4A19290  43.866  43.393   7.797
 1197POPC   C1B19291  44.166  43.993   8.647
 1197POPC   C2B19292  44.320  44.021   8.219
 1197POPC   C3B19293  44.144  43.909   7.811
 1197POPC   C4B19294  44.166  43.684   7.408
 1198POPC   NC319295  26.859   0.181   9.746
 1198POPC   PO419296  26.516   0.719   9.539
 1198POPC   GL119297  26.753   0.428   9.260
 1198POPC   GL219298  26.912   0.117   9.180
 1198POPC   C1A19299  26.785   0.461   8.794
 1198POPC   D2A19300  26.537   0.518   8.406
 1198POPC   C3A19301  26.551   0.200   8.093
 1198POPC   C4A19302  26.740   0.392   7.732
 1198POPC   C1B19303  27.158   0.098   8.782
 1198POPC   C2B19304  27.004   0.142   8.351
 1198POPC   C3B19305  26.980  44.969   7.928
 1198POPC   C4B19306  26.951   0.040   7.428
 1199POPC   NC319307   6.948  43.202   9.314
 1199POPC   PO419308   7.591  42.968   9.420
 1199POPC   GL119309   7.450  43.230   9.117
 1199POPC   GL219310   7.272  42.936   9.026
 1199POPC   C1A19311   7.259  43.367   8.757
 1199POPC   D2A19312   7.087  43.195   8.404
 1199POPC   C3A19313   7.265  43.394   8.086
 1199POPC   C4A19314   7.193  43.262   7.706
 1199POPC   C1B19315   7.421  42.883   8.668
 1199POPC   C2B19316   7.560  42.808   8.307
 1199POPC   C3B19317   7.550  42.992   7.967
 1199POPC   C4B19318   7.472  42.800   7.624
 1200POPC   NC319319  18.772  11.940   9.587
 1200POPC   PO419320  19.231  12.403   9.511
 1200POPC   GL119321  19.088  12.111   9.215
 1200POPC   GL219322  19.370  11.908   9.211
 1200POPC   C1A19323  18.927  11.960   8.823
 1200POPC   D2A19324  18.747  12.029   8.414
 1200POPC   C3A19325  18.763  12.018   7.963
 1200POPC   C4A19326  18.897  12.179   7.547
 1200POPC   C1B19327  19.459  11.938   8.777
 1200POPC   C2B19328  19.232  11.859   8.397
 1200POPC   C3B19329  19.267  12.044   8.009
 1200POPC   C4B19330  19.397  12.096   7.603
 1201POPC   NC319331  25.802  13.827   9.372
 1201POPC   PO419332  26.339  13.554   9.460
 1201POPC   GL119333  26.154  13.546   9.087
 1201POPC   GL219334  26.225  13.880   9.059
 1201POPC   C1A19335  25.885  13.525   8.760
 1201POPC   D2A19336  25.995  13.695   8.385
 1201POPC   C3A19337  25.819  13.535   8.005
 1201POPC   C4A19338  25.547  13.470   7.738
 1201POPC   C1B19339  25.986  14.065   8.748
 1201POPC   C2B19340  25.810  14.182   8.360
 1201POPC   C3B19341  25.961  14.019   7.992
 1201POPC   C4B19342  25.870  13.892   7.605
 1202POPC   NC319343  15.867  16.888   9.646
 1202POPC   PO419344  16.357  16.487   9.608
 1202POPC   GL119345  16.153  16.676   9.213
 1202POPC   GL219346  15.768  16.710   9.178
 1202POPC   C1A19347  16.104  16.599   8.745
 1202POPC   D2A19348  16.150  16.838   8.336
 1202POPC   C3A19349  16.160  16.630   7.918
 1202POPC   C4A19350  16.236  16.786   7.484
 1202POPC   C1B19351  15.609  16.796   8.755
 1202POPC   C2B19352  15.642  16.689   8.291
 1202POPC   C3B19353  15.623  16.733   7.835
 1202POPC   C4B19354  15.824  16.531   7.490
 1203POPC   NC319355  31.723  24.869   9.649
 1203POPC   PO419356  31.279  25.350   9.748
 1203POPC   GL119357  31.415  25.166   9.340
 1203POPC   GL219358  31.642  25.346   9.152
 1203POPC   C1A19359  31.241  25.122   8.885
 1203POPC   D2A19360  31.211  25.279   8.410
 1203POPC   C3A19361  31.381  25.131   7.978
 1203POPC   C4A19362  31.307  25.187   7.515
 1203POPC   C1B19363  31.648  25.403   8.698
 1203POPC   C2B19364  31.701  25.482   8.253
 1203POPC   C3B19365  31.877  25.306   7.862
 1203POPC   C4B19366  31.788  25.353   7.406
 1204POPC   NC319367  15.810   9.773   9.327
 1204POPC   PO419368  16.422   9.539   9.498
 1204POPC   GL119369  16.197   9.500   9.141
 1204POPC   GL219370  16.248   9.854   9.014
 1204POPC   C1A19371  16.010   9.464   8.744
 1204POPC   D2A19372  16.148   9.664   8.394
 1204POPC   C3A19373  15.900   9.583   8.044
 1204POPC   C4A19374  15.989   9.850   7.710
 1204POPC   C1B19375  15.907  10.024   8.711
 1204POPC   C2B19376  15.812  10.075   8.263
 1204POPC   C3B19377  15.531   9.967   7.923
 1204POPC   C4B19378  15.529   9.982   7.489
 1205POPC   NC319379  22.635  38.957   9.244
 1205POPC   PO419380  21.997  39.115   9.496
 1205POPC   GL119381  22.200  39.253   9.138
 1205POPC   GL219382  22.529  39.450   9.110
 1205POPC   C1A19383  22.064  39.230   8.720
 1205POPC   D2A19384  22.237  38.973   8.393
 1205POPC   C3A19385  22.162  39.115   7.995
 1205POPC   C4A19386  22.020  39.208   7.572
 1205POPC   C1B19387  22.559  39.313   8.666
 1205POPC   C2B19388  22.298  39.518   8.323
 1205POPC   C3B19389  22.185  39.610   7.876
 1205POPC   C4B19390  22.477  39.522   7.551
 1206POPC   NC319391   3.115  21.775   9.534
 1206POPC   PO419392   3.385  21.131   9.596
 1206POPC   GL119393   3.238  21.238   9.224
 1206POPC   GL219394   3.463  21.495   9.152
 1206POPC   C1A19395   3.405  21.098   8.831
 1206POPC   D2A19396   3.592  21.253   8.474
 1206POPC   C3A19397   3.368  21.539   8.241
 1206POPC   C4A19398   3.343  21.371   7.850
 1206POPC   C1B19399   3.845  21.447   8.866
 1206POPC   C2B19400   3.872  21.656   8.434
 1206POPC   C3B19401   3.848  21.430   8.048
 1206POPC   C4B19402   3.770  21.561   7.625
 1207POPC   NC319403   2.423  42.036   9.621
 1207POPC   PO419404   3.066  42.215   9.402
 1207POPC   GL119405   2.645  42.324   9.209
 1207POPC   GL219406   2.611  42.691   9.262
 1207POPC   C1A19407   2.450  42.528   8.821
 1207POPC   D2A19408   2.685  42.697   8.477
 1207POPC   C3A19409   2.699  42.367   8.190
 1207POPC   C4A19410   2.736  42.352   7.763
 1207POPC   C1B19411   2.960  42.649   8.903
 1207POPC   C2B19412   3.113  42.412   8.518
 1207POPC   C3B19413   3.204  42.470   8.076
 1207POPC   C4B19414   3.162  42.609   7.651
 1208POPC   NC319415  38.083  35.517   9.464
 1208POPC   PO419416  38.572  35.127   9.716
 1208POPC   GL119417  38.658  35.222   9.290
 1208POPC   GL219418  38.347  35.212   9.175
 1208POPC   C1A19419  38.772  35.104   8.877
 1208POPC   D2A19420  38.590  35.246   8.484
 1208POPC   C3A19421  38.707  35.081   8.110
 1208POPC   C4A19422  38.699  35.366   7.802
 1208POPC   C1B19423  38.295  35.491   8.841
 1208POPC   C2B19424  38.188  35.581   8.430
 1208POPC   C3B19425  38.230  35.472   8.052
 1208POPC   C4B19426  38.253  35.091   7.850
 1209POPC   NC319427  13.397  35.328   9.861
 1209POPC   PO419428  13.770  35.689   9.424
 1209POPC   GL119429  13.580  35.351   9.174
 1209POPC   GL219430  13.834  35.115   9.153
 1209POPC   C1A19431  13.482  35.236   8.729
 1209POPC   D2A19432  13.481  35.438   8.302
 1209POPC   C3A19433  13.489  35.199   7.883
 1209POPC   C4A19434  13.293  35.225   7.434
 1209POPC   C1B19435  13.987  35.169   8.719
 1209POPC   C2B19436  13.864  35.089   8.281
 1209POPC   C3B19437  13.999  35.079   7.830
 1209POPC   C4B19438  14.124  35.030   7.373
 1210POPC   NC319439  32.643  24.524   9.831
 1210POPC   PO419440  32.969  24.938   9.423
 1210POPC   GL119441  33.000  24.699   9.044
 1210POPC   GL219442  32.974  24.348   9.095
 1210POPC   C1A19443  33.126  24.628   8.639
 1210POPC   D2A19444  33.355  24.714   8.293
 1210POPC   C3A19445  33.152  24.610   7.957
 1210POPC   C4A19446  33.239  24.574   7.532
 1210POPC   C1B19447  32.883  24.196   8.660
 1210POPC   C2B19448  32.794  24.340   8.205
 1210POPC   C3B19449  32.867  24.252   7.735
 1210POPC   C4B19450  32.952  24.207   7.276
 1211POPC   NC319451  10.335  15.438   9.684
 1211POPC   PO419452  10.723  14.955   9.536
 1211POPC   GL119453  10.501  15.035   9.148
 1211POPC   GL219454  10.422  15.398   9.172
 1211POPC   C1A19455  10.509  15.157   8.717
 1211POPC   D2A19456  10.335  15.228   8.324
 1211POPC   C3A19457  10.647  15.045   8.081
 1211POPC   C4A19458  10.807  15.001   7.664
 1211POPC   C1B19459  10.573  15.690   8.843
 1211POPC   C2B19460  10.441  15.741   8.419
 1211POPC   C3B19461  10.473  15.573   7.982
 1211POPC   C4B19462  10.333  15.230   7.725
 1212POPC   NC319463  39.411  21.831   9.537
 1212POPC   PO419464  38.887  22.290   9.450
 1212POPC   GL119465  39.089  22.310   9.032
 1212POPC   GL219466  39.394  22.118   9.064
 1212POPC   C1A19467  39.058  22.548   8.605
 1212POPC   D2A19468  39.013  22.571   8.119
 1212POPC   C3A19469  39.066  22.228   7.822
 1212POPC   C4A19470  38.968  22.039   7.416
 1212POPC   C1B19471  39.546  22.433   8.758
 1212POPC   C2B19472  39.493  22.496   8.285
 1212POPC   C3B19473  39.511  22.505   7.812
 1212POPC   C4B19474  39.373  22.332   7.400
 1213POPC   NC319475  40.271  36.932   9.689
 1213POPC   PO419476  40.887  37.043   9.629
 1213POPC   GL119477  40.724  36.957   9.261
 1213POPC   GL219478  40.619  37.271   9.237
 1213POPC   C1A19479  40.720  36.792   8.845
 1213POPC   D2A19480  40.994  36.741   8.490
 1213POPC   C3A19481  40.811  36.806   8.110
 1213POPC   C4A19482  41.022  36.661   7.733
 1213POPC   C1B19483  40.909  37.280   8.893
 1213POPC   C2B19484  40.792  37.303   8.462
 1213POPC   C3B19485  40.928  37.312   8.043
 1213POPC   C4B19486  40.803  37.107   7.686
 1214POPC   NC319487  35.850  40.025   9.662
 1214POPC   PO419488  36.320  39.578   9.499
 1214POPC   GL119489  36.148  39.917   9.176
 1214POPC   GL219490  35.875  40.175   9.171
 1214POPC   C1A19491  36.013  39.975   8.714
 1214POPC   D2A19492  36.086  40.249   8.339
 1214POPC   C3A19493  36.148  40.095   7.939
 1214POPC   C4A19494  36.433  40.187   7.646
 1214POPC   C1B19495  35.615  40.287   8.813
 1214POPC   C2B19496  35.603  40.096   8.410
 1214POPC   C3B19497  35.789  39.809   8.160
 1214POPC   C4B19498  35.867  39.716   7.731
 1215POPC   NC319499   3.418  31.545   9.508
 1215POPC   PO419500   3.968  31.211   9.415
 1215POPC   GL119501   3.787  31.505   9.099
 1215POPC   GL219502   3.404  31.503   9.018
 1215POPC   C1A19503   3.722  31.315   8.681
 1215POPC   D2A19504   3.503  31.117   8.359
 1215POPC   C3A19505   3.678  31.247   7.986
 1215POPC   C4A19506   3.671  31.029   7.552
 1215POPC   C1B19507   3.489  31.792   8.699
 1215POPC   C2B19508   3.594  31.673   8.303
 1215POPC   C3B19509   3.496  31.730   7.887
 1215POPC   C4B19510   3.625  31.527   7.509
 1216POPC   NC319511  13.780  25.602   9.449
 1216POPC   PO419512  13.454  25.160   9.831
 1216POPC   GL119513  13.593  25.149   9.303
 1216POPC   GL219514  13.431  25.418   9.123
 1216POPC   C1A19515  13.775  25.265   8.826
 1216POPC   D2A19516  13.888  25.064   8.485
 1216POPC   C3A19517  13.908  25.276   8.107
 1216POPC   C4A19518  13.850  25.086   7.738
 1216POPC   C1B19519  13.291  25.285   8.707
 1216POPC   C2B19520  13.415  25.197   8.286
 1216POPC   C3B19521  13.329  25.128   7.829
 1216POPC   C4B19522  13.179  25.376   7.501
 1217POPC   NC319523  17.983  29.214   9.497
 1217POPC   PO419524  17.344  28.948   9.585
 1217POPC   GL119525  17.539  29.132   9.259
 1217POPC   GL219526  17.270  29.128   9.059
 1217POPC   C1A19527  17.746  29.103   8.863
 1217POPC   D2A19528  17.995  29.139   8.494
 1217POPC   C3A19529  17.847  28.980   8.095
 1217POPC   C4A19530  17.717  29.160   7.679
 1217POPC   C1B19531  17.342  28.767   8.780
 1217POPC   C2B19532  17.228  28.715   8.329
 1217POPC   C3B19533  17.341  28.872   7.927
 1217POPC   C4B19534  17.229  29.297   7.860
 1218POPC   NC319535  37.704   5.157   9.710
 1218POPC   PO419536  37.602   4.570   9.524
 1218POPC   GL119537  37.730   4.791   9.162
 1218POPC   GL219538  37.641   5.140   9.158
 1218POPC   C1A19539  37.573   4.814   8.728
 1218POPC   D2A19540  37.421   5.054   8.369
 1218POPC   C3A19541  37.608   4.881   8.022
 1218POPC   C4A19542  37.898   4.682   7.758
 1218POPC   C1B19543  37.708   5.325   8.720
 1218POPC   C2B19544  37.940   5.179   8.327
 1218POPC   C3B19545  37.963   5.199   7.872
 1218POPC   C4B19546  37.687   5.491   7.894
 1219POPC   NC319547  43.563   5.162   9.893
 1219POPC   PO419548  43.867   5.737   9.550
 1219POPC   GL119549  44.063   5.647   9.170
 1219POPC   GL219550  44.071   5.977   9.073
 1219POPC   C1A19551  44.258   5.626   8.750
 1219POPC   D2A19552  44.090   5.718   8.346
 1219POPC   C3A19553  44.155   5.732   7.924
 1219POPC   C4A19554  43.792   5.627   7.743
 1219POPC   C1B19555  44.092   6.127   8.644
 1219POPC   C2B19556  44.308   6.157   8.222
 1219POPC   C3B19557  44.207   6.214   7.763
 1219POPC   C4B19558  43.962   6.371   7.391
 1220POPC   NC319559  21.570  25.363   9.514
 1220POPC   PO419560  20.999  25.353   9.799
 1220POPC   GL119561  21.103  25.268   9.291
 1220POPC   GL219562  21.351  25.457   9.056
 1220POPC   C1A19563  21.114  25.087   8.827
 1220POPC   D2A19564  21.238  24.862   8.431
 1220POPC   C3A19565  21.192  25.132   8.109
 1220POPC   C4A19566  20.865  25.275   7.888
 1220POPC   C1B19567  21.481  25.769   8.734
 1220POPC   C2B19568  21.452  25.970   8.310
 1220POPC   C3B19569  21.663  25.774   7.962
 1220POPC   C4B19570  21.378  25.466   7.772
 1221POPC   NC319571  42.280  23.455   9.513
 1221POPC   PO419572  42.058  24.056   9.632
 1221POPC   GL119573  42.151  23.810   9.165
 1221POPC   GL219574  42.459  23.660   9.060
 1221POPC   C1A19575  42.176  23.956   8.724
 1221POPC   D2A19576  42.529  23.843   8.404
 1221POPC   C3A19577  42.514  23.954   7.960
 1221POPC   C4A19578  42.432  23.957   7.486
 1221POPC   C1B19579  42.307  23.469   8.668
 1221POPC   C2B19580  42.359  23.410   8.210
 1221POPC   C3B19581  42.419  23.471   7.754
 1221POPC   C4B19582  42.703  23.560   7.372
 1222POPC   NC319583  41.751  22.026   9.533
 1222POPC   PO419584  41.365  22.678   9.544
 1222POPC   GL119585  41.291  22.365   9.197
 1222POPC   GL219586  41.347  21.959   9.193
 1222POPC   C1A19587  41.452  22.279   8.797
 1222POPC   D2A19588  41.418  21.973   8.505
 1222POPC   C3A19589  41.530  22.209   8.179
 1222POPC   C4A19590  41.534  22.188   7.746
 1222POPC   C1B19591  41.727  21.833   8.893
 1222POPC   C2B19592  41.986  21.797   8.476
 1222POPC   C3B19593  41.881  21.857   8.001
 1222POPC   C4B19594  41.953  21.977   7.541
 1223POPC   NC319595   9.970   1.707  10.188
 1223POPC   PO419596   9.601   1.344   9.850
 1223POPC   GL119597   9.546   1.219   9.352
 1223POPC   GL219598   9.373   1.475   9.149
 1223POPC   C1A19599   9.504   1.061   8.876
 1223POPC   D2A19600   9.413   0.979   8.395
 1223POPC   C3A19601   9.659   1.147   7.990
 1223POPC   C4A19602   9.693   1.375   7.569
 1223POPC   C1B19603   9.463   1.537   8.671
 1223POPC   C2B19604   9.333   1.448   8.243
 1223POPC   C3B19605   9.271   1.570   7.781
 1223POPC   C4B19606   9.306   1.593   7.310
 1224POPC   NC319607  18.765  35.584   9.685
 1224POPC   PO419608  18.183  35.292   9.495
 1224POPC   GL119609  18.190  35.295   9.058
 1224POPC   GL219610  18.524  35.303   9.032
 1224POPC   C1A19611  18.101  35.345   8.616
 1224POPC   D2A19612  18.186  35.080   8.261
 1224POPC   C3A19613  18.293  35.291   7.880
 1224POPC   C4A19614  18.098  35.227   7.501
 1224POPC   C1B19615  18.437  34.968   8.714
 1224POPC   C2B19616  18.659  34.894   8.323
 1224POPC   C3B19617  18.545  34.857   7.911
 1224POPC   C4B19618  18.668  35.080   7.530
 1225POPC   NC319619  43.608  26.363   9.354
 1225POPC   PO419620  43.737  26.900   9.752
 1225POPC   GL119621  43.782  26.850   9.289
 1225POPC   GL219622  44.052  26.606   9.167
 1225POPC   C1A19623  43.582  26.871   8.863
 1225POPC   D2A19624  43.719  27.059   8.472
 1225POPC   C3A19625  43.727  26.865   8.067
 1225POPC   C4A19626  43.954  26.680   7.711
 1225POPC   C1B19627  44.093  26.980   8.858
 1225POPC   C2B19628  44.236  27.070   8.403
 1225POPC   C3B19629  44.200  27.054   7.933
 1225POPC   C4B19630  44.264  26.974   7.450
 1226POPC   NC319631  30.523  37.024   9.505
 1226POPC   PO419632  30.466  36.410   9.246
 1226POPC   GL119633  30.635  36.826   9.047
 1226POPC   GL219634  30.422  37.014   8.812
 1226POPC   C1A19635  30.943  36.889   8.707
 1226POPC   D2A19636  30.879  36.734   8.275
 1226POPC   C3A19637  30.684  37.017   8.032
 1226POPC   C4A19638  30.865  37.143   7.703
 1226POPC   C1B19639  30.513  36.600   8.610
 1226POPC   C2B19640  30.435  36.399   8.252
 1226POPC   C3B19641  30.590  36.548   7.864
 1226POPC   C4B19642  30.586  36.756   7.458
 1227POPC   NC319643  39.491  35.623   9.425
 1227POPC   PO419644  39.161  36.315   9.607
 1227POPC   GL119645  39.283  36.068   9.270
 1227POPC   GL219646  39.365  36.357   9.129
 1227POPC   C1A19647  39.317  35.887   8.857
 1227POPC   D2A19648  39.124  35.959   8.481
 1227POPC   C3A19649  39.203  35.829   8.086
 1227POPC   C4A19650  38.964  35.945   7.742
 1227POPC   C1B19651  39.136  36.387   8.754
 1227POPC   C2B19652  39.243  36.484   8.326
 1227POPC   C3B19653  39.199  36.371   7.894
 1227POPC   C4B19654  39.487  36.051   7.711
 1228POPC   NC319655  10.391  20.951   9.536
 1228POPC   PO419656  10.260  20.343   9.518
 1228POPC   GL119657  10.323  20.594   9.170
 1228POPC   GL219658  10.641  20.644   9.112
 1228POPC   C1A19659  10.320  20.770   8.749
 1228POPC   D2A19660  10.428  20.449   8.461
 1228POPC   C3A19661  10.336  20.560   8.092
 1228POPC   C4A19662  10.476  20.636   7.695
 1228POPC   C1B19663  10.828  20.595   8.729
 1228POPC   C2B19664  10.786  20.792   8.356
 1228POPC   C3B19665  10.924  20.965   8.011
 1228POPC   C4B19666  11.006  20.630   7.763
 1229POPC   NC319667  37.048  38.823   9.377
 1229POPC   PO419668  37.185  38.164   9.418
 1229POPC   GL119669  36.945  38.276   9.070
 1229POPC   GL219670  36.711  38.531   9.108
 1229POPC   C1A19671  36.583  38.152   8.798
 1229POPC   D2A19672  36.538  38.377   8.384
 1229POPC   C3A19673  36.907  38.365   8.075
 1229POPC   C4A19674  36.981  38.609   7.693
 1229POPC   C1B19675  36.697  38.859   8.805
 1229POPC   C2B19676  36.502  38.914   8.408
 1229POPC   C3B19677  36.607  38.804   7.998
 1229POPC   C4B19678  36.612  39.013   7.599
 1230POPC   NC319679  19.131  36.895   9.777
 1230POPC   PO419680  19.029  36.298   9.581
 1230POPC   GL119681  19.170  36.615   9.209
 1230POPC   GL219682  19.226  36.989   9.252
 1230POPC   C1A19683  19.199  36.605   8.729
 1230POPC   D2A19684  18.918  36.644   8.385
 1230POPC   C3A19685  19.054  36.703   7.956
 1230POPC   C4A19686  19.409  36.789   7.668
 1230POPC   C1B19687  19.174  37.121   8.788
 1230POPC   C2B19688  19.284  37.013   8.323
 1230POPC   C3B19689  19.071  37.200   7.903
 1230POPC   C4B19690  18.992  37.022   7.458
 1231POPC   NC319691   6.765  20.107   9.552
 1231POPC   PO419692   6.500  19.537   9.585
 1231POPC   GL119693   6.389  19.806   9.220
 1231POPC   GL219694   6.735  19.828   9.119
 1231POPC   C1A19695   6.397  19.868   8.733
 1231POPC   D2A19696   6.672  19.767   8.359
 1231POPC   C3A19697   6.513  19.798   7.931
 1231POPC   C4A19698   6.395  20.153   7.714
 1231POPC   C1B19699   6.975  19.670   8.783
 1231POPC   C2B19700   7.197  19.842   8.404
 1231POPC   C3B19701   7.014  19.870   7.979
 1231POPC   C4B19702   7.002  19.914   7.524
 1232POPC   NC319703  16.265   8.129   9.449
 1232POPC   PO419704  15.960   8.661   9.378
 1232POPC   GL119705  15.928   8.278   9.091
 1232POPC   GL219706  15.728   7.966   9.119
 1232POPC   C1A19707  15.980   8.108   8.674
 1232POPC   D2A19708  16.231   8.103   8.300
 1232POPC   C3A19709  16.015   8.146   7.924
 1232POPC   C4A19710  15.933   7.755   7.714
 1232POPC   C1B19711  15.479   8.133   8.792
 1232POPC   C2B19712  15.574   8.261   8.363
 1232POPC   C3B19713  15.366   8.446   8.009
 1232POPC   C4B19714  15.497   8.529   7.575
 1233POPC   NC319715   5.461  38.726   9.510
 1233POPC   PO419716   5.826  38.154   9.657
 1233POPC   GL119717   5.839  38.393   9.218
 1233POPC   GL219718   6.121  38.625   9.124
 1233POPC   C1A19719   5.790  38.515   8.767
 1233POPC   D2A19720   5.631  38.610   8.378
 1233POPC   C3A19721   5.805  38.464   8.048
 1233POPC   C4A19722   5.773  38.267   7.635
 1233POPC   C1B19723   6.160  38.891   8.791
 1233POPC   C2B19724   6.136  38.779   8.374
 1233POPC   C3B19725   6.000  38.933   8.005
 1233POPC   C4B19726   5.872  38.772   7.627
 1234POPC   NC319727  17.740  30.014   9.453
 1234POPC   PO419728  17.281  30.514   9.320
 1234POPC   GL119729  17.426  30.159   9.096
 1234POPC   GL219730  17.320  29.808   9.239
 1234POPC   C1A19731  17.345  29.959   8.737
 1234POPC   D2A19732  17.283  29.788   8.345
 1234POPC   C3A19733  17.480  29.950   8.020
 1234POPC   C4A19734  17.523  29.955   7.605
 1234POPC   C1B19735  17.558  29.567   8.988
 1234POPC   C2B19736  17.651  29.516   8.576
 1234POPC   C3B19737  17.640  29.444   8.148
 1234POPC   C4B19738  17.851  29.632   7.825
 1235POPC   NC319739  37.804  23.573   9.543
 1235POPC   PO419740  37.355  24.167   9.642
 1235POPC   GL119741  37.302  24.027   9.179
 1235POPC   GL219742  37.500  23.713   9.176
 1235POPC   C1A19743  37.436  23.909   8.729
 1235POPC   D2A19744  37.760  23.981   8.423
 1235POPC   C3A19745  37.581  23.895   8.025
 1235POPC   C4A19746  37.768  23.875   7.649
 1235POPC   C1B19747  37.723  23.495   8.813
 1235POPC   C2B19748  37.576  23.513   8.398
 1235POPC   C3B19749  37.743  23.397   8.015
 1235POPC   C4B19750  37.411  23.397   7.752
 1236POPC   NC319751  10.220  13.011   9.566
 1236POPC   PO419752   9.495  12.895   9.548
 1236POPC   GL119753   9.673  13.011   9.178
 1236POPC   GL219754   9.825  12.720   9.113
 1236POPC   C1A19755   9.528  12.963   8.759
 1236POPC   D2A19756   9.689  13.102   8.379
 1236POPC   C3A19757   9.564  12.966   8.008
 1236POPC   C4A19758   9.823  13.004   7.620
 1236POPC   C1B19759   9.414  12.518   9.015
 1236POPC   C2B19760   9.291  12.331   8.633
 1236POPC   C3B19761   9.278  12.320   8.165
 1236POPC   C4B19762   9.430  12.521   7.777
 1237POPC   NC319763   0.193  41.643   9.537
 1237POPC   PO419764   0.697  41.318   9.356
 1237POPC   GL119765   0.429  41.427   9.083
 1237POPC   GL219766   0.374  41.785   9.083
 1237POPC   C1A19767   0.153  41.402   8.725
 1237POPC   D2A19768   0.172  41.565   8.313
 1237POPC   C3A19769   0.349  41.410   7.935
 1237POPC   C4A19770   0.368  41.766   7.663
 1237POPC   C1B19771   0.530  41.720   8.687
 1237POPC   C2B19772   0.697  41.519   8.353
 1237POPC   C3B19773   0.700  41.770   8.022
 1237POPC   C4B19774   0.891  41.877   7.623
 1238POPC   NC319775  37.397  40.426   9.361
 1238POPC   PO419776  37.770  40.942   9.585
 1238POPC   GL119777  37.535  40.925   9.222
 1238POPC   GL219778  37.792  40.682   9.141
 1238POPC   C1A19779  37.401  40.804   8.805
 1238POPC   D2A19780  37.419  40.573   8.448
 1238POPC   C3A19781  37.436  40.748   8.047
 1238POPC   C4A19782  37.481  40.478   7.711
 1238POPC   C1B19783  37.876  40.607   8.761
 1238POPC   C2B19784  37.889  40.810   8.393
 1238POPC   C3B19785  37.918  40.599   8.036
 1238POPC   C4B19786  37.906  40.796   7.670
 1239POPC   NC319787  38.075   8.789   9.452
 1239POPC   PO419788  37.550   9.161   9.476
 1239POPC   GL119789  37.663   9.210   9.058
 1239POPC   GL219790  38.020   9.139   9.056
 1239POPC   C1A19791  37.761   9.114   8.621
 1239POPC   D2A19792  37.939   9.169   8.214
 1239POPC   C3A19793  37.609   9.071   7.917
 1239POPC   C4A19794  37.664   8.762   7.614
 1239POPC   C1B19795  38.081   8.748   8.776
 1239POPC   C2B19796  38.147   8.689   8.264
 1239POPC   C3B19797  38.131   8.897   7.802
 1239POPC   C4B19798  38.049   8.795   7.304
 1240POPC   NC319799  21.598  40.879   9.554
 1240POPC   PO419800  21.341  41.551   9.475
 1240POPC   GL119801  21.510  41.502   9.089
 1240POPC   GL219802  21.686  41.153   9.113
 1240POPC   C1A19803  21.511  41.796   8.753
 1240POPC   D2A19804  21.217  41.865   8.446
 1240POPC   C3A19805  21.399  41.791   8.069
 1240POPC   C4A19806  21.285  41.558   7.705
 1240POPC   C1B19807  21.886  41.381   8.773
 1240POPC   C2B19808  21.734  41.492   8.388
 1240POPC   C3B19809  21.616  41.313   8.028
 1240POPC   C4B19810  21.763  41.408   7.642
 1241POPC   NC319811   3.691  33.110   9.447
 1241POPC   PO419812   3.056  33.236   9.356
 1241POPC   GL119813   3.356  33.058   9.075
 1241POPC   GL219814   3.684  33.221   8.956
 1241POPC   C1A19815   3.394  32.877   8.701
 1241POPC   D2A19816   3.152  32.979   8.332
 1241POPC   C3A19817   3.473  32.874   8.035
 1241POPC   C4A19818   3.386  33.016   7.648
 1241POPC   C1B19819   3.928  32.893   8.725
 1241POPC   C2B19820   3.957  32.842   8.289
 1241POPC   C3B19821   3.958  33.149   8.034
 1241POPC   C4B19822   3.845  33.198   7.666
 1242POPC   NC319823   3.118  41.709   9.465
 1242POPC   PO419824   3.859  41.679   9.527
 1242POPC   GL119825   3.885  41.480   9.150
 1242POPC   GL219826   3.516  41.495   9.161
 1242POPC   C1A19827   3.772  41.426   8.716
 1242POPC   D2A19828   3.566  41.542   8.331
 1242POPC   C3A19829   3.849  41.402   8.016
 1242POPC   C4A19830   3.954  41.500   7.588
 1242POPC   C1B19831   3.285  41.614   8.798
 1242POPC   C2B19832   3.056  41.745   8.460
 1242POPC   C3B19833   3.098  41.487   8.121
 1242POPC   C4B19834   3.366  41.548   7.787
 1243POPC   NC319835   5.924  13.784   9.449
 1243POPC   PO419836   5.674  13.182   9.496
 1243POPC   GL119837   5.692  13.446   9.095
 1243POPC   GL219838   6.004  13.515   9.019
 1243POPC   C1A19839   5.655  13.845   8.831
 1243POPC   D2A19840   5.627  13.969   8.395
 1243POPC   C3A19841   5.765  13.731   8.037
 1243POPC   C4A19842   5.561  13.578   7.641
 1243POPC   C1B19843   6.139  13.753   8.674
 1243POPC   C2B19844   6.241  13.614   8.272
 1243POPC   C3B19845   6.348  13.774   7.889
 1243POPC   C4B19846   6.068  13.681   7.623
 1244POPC   NC319847   9.628  40.432   9.349
 1244POPC   PO419848   9.574  39.731   9.573
 1244POPC   GL119849   9.864  39.812   9.175
 1244POPC   GL219850  10.037  40.149   9.209
 1244POPC   C1A19851   9.856  39.887   8.692
 1244POPC   D2A19852   9.635  39.879   8.255
 1244POPC   C3A19853   9.633  40.110   7.875
 1244POPC   C4A19854   9.757  39.726   7.719
 1244POPC   C1B19855  10.179  40.268   8.817
 1244POPC   C2B19856  10.314  40.095   8.414
 1244POPC   C3B19857  10.101  40.014   8.025
 1244POPC   C4B19858  10.116  40.086   7.566
 1245POPC   NC319859  21.761  17.128   9.435
 1245POPC   PO419860  22.219  17.562   9.456
 1245POPC   GL119861  22.197  17.387   9.057
 1245POPC   GL219862  22.226  17.033   9.180
 1245POPC   C1A19863  22.134  17.489   8.596
 1245POPC   D2A19864  21.928  17.693   8.218
 1245POPC   C3A19865  21.975  17.541   7.791
 1245POPC   C4A19866  22.321  17.612   7.478
 1245POPC   C1B19867  21.967  17.021   8.803
 1245POPC   C2B19868  22.068  17.004   8.389
 1245POPC   C3B19869  22.009  17.073   7.991
 1245POPC   C4B19870  22.178  17.130   7.583
 1246POPC   NC319871  21.674   6.088   9.542
 1246POPC   PO419872  21.473   5.353   9.659
 1246POPC   GL119873  21.402   5.654   9.265
 1246POPC   GL219874  21.302   5.985   9.233
 1246POPC   C1A19875  21.210   5.741   8.813
 1246POPC   D2A19876  21.385   5.865   8.392
 1246POPC   C3A19877  21.296   5.719   7.956
 1246POPC   C4A19878  21.549   5.478   7.647
 1246POPC   C1B19879  21.505   6.158   8.853
 1246POPC   C2B19880  21.624   6.307   8.440
 1246POPC   C3B19881  21.672   6.134   8.027
 1246POPC   C4B19882  21.578   6.029   7.585
 1247POPC   NC319883  26.449  37.349   9.345
 1247POPC   PO419884  25.969  36.921   9.609
 1247POPC   GL119885  25.873  36.753   9.244
 1247POPC   GL219886  25.976  37.026   9.078
 1247POPC   C1A19887  25.814  36.619   8.812
 1247POPC   D2A19888  25.983  36.802   8.431
 1247POPC   C3A19889  25.795  36.682   8.030
 1247POPC   C4A19890  26.020  36.675   7.665
 1247POPC   C1B19891  25.694  37.115   8.734
 1247POPC   C2B19892  25.557  37.040   8.317
 1247POPC   C3B19893  25.767  37.176   7.952
 1247POPC   C4B19894  25.932  37.164   7.544
 1248POPC   NC319895  13.183  15.271   9.466
 1248POPC   PO419896  12.537  15.033   9.579
 1248POPC   GL119897  12.756  15.105   9.194
 1248POPC   GL219898  12.704  15.455   9.110
 1248POPC   C1A19899  12.943  15.051   8.776
 1248POPC   D2A19900  13.011  14.854   8.363
 1248POPC   C3A19901  12.991  15.129   8.001
 1248POPC   C4A19902  12.637  15.333   7.803
 1248POPC   C1B19903  12.921  15.558   8.709
 1248POPC   C2B19904  12.909  15.558   8.259
 1248POPC   C3B19905  13.068  15.614   7.841
 1248POPC   C4B19906  12.915  15.561   7.408
 1249POPC   NC319907  36.971  25.716   9.578
 1249POPC   PO419908  37.260  26.000   9.042
 1249POPC   GL119909  36.879  26.175   8.975
 1249POPC   GL219910  36.752  25.838   9.086
 1249POPC   C1A19911  36.875  26.267   8.531
 1249POPC   D2A19912  36.886  25.906   8.225
 1249POPC   C3A19913  37.077  26.008   7.822
 1249POPC   C4A19914  37.001  25.911   7.396
 1249POPC   C1B19915  36.531  25.899   8.674
 1249POPC   C2B19916  36.421  26.212   8.334
 1249POPC   C3B19917  36.635  26.278   7.953
 1249POPC   C4B19918  36.588  25.891   7.716
 1250POPC   NC319919  35.265  36.967   9.455
 1250POPC   PO419920  35.667  36.451   9.445
 1250POPC   GL119921  35.527  36.694   9.109
 1250POPC   GL219922  35.166  36.587   9.054
 1250POPC   C1A19923  35.647  36.901   8.721
 1250POPC   D2A19924  35.440  36.985   8.311
 1250POPC   C3A19925  35.507  36.707   7.957
 1250POPC   C4A19926  35.777  36.732   7.584
 1250POPC   C1B19927  35.141  36.991   8.778
 1250POPC   C2B19928  34.946  37.150   8.362
 1250POPC   C3B19929  35.029  36.980   7.946
 1250POPC   C4B19930  35.082  36.589   7.716
 1251POPC   NC319931  20.188   6.968   9.388
 1251POPC   PO419932  20.019   7.527   9.530
 1251POPC   GL119933  19.885   7.376   9.165
 1251POPC   GL219934  20.013   7.707   9.039
 1251POPC   C1A19935  19.763   7.327   8.763
 1251POPC   D2A19936  19.488   7.229   8.436
 1251POPC   C3A19937  19.660   7.157   8.027
 1251POPC   C4A19938  19.586   7.436   7.666
 1251POPC   C1B19939  20.204   7.605   8.667
 1251POPC   C2B19940  20.026   7.396   8.315
 1251POPC   C3B19941  20.027   7.549   7.890
 1251POPC   C4B19942  20.325   7.679   7.588
 1252POPC   NC319943  37.080  32.213   9.569
 1252POPC   PO419944  36.754  31.757   9.172
 1252POPC   GL119945  36.819  32.216   9.055
 1252POPC   GL219946  37.155  32.382   9.092
 1252POPC   C1A19947  36.633  32.409   8.677
 1252POPC   D2A19948  36.599  32.605   8.256
 1252POPC   C3A19949  36.675  32.370   7.899
 1252POPC   C4A19950  36.551  31.998   7.766
 1252POPC   C1B19951  37.210  32.012   8.792
 1252POPC   C2B19952  36.940  31.899   8.419
 1252POPC   C3B19953  37.011  32.006   7.997
 1252POPC   C4B19954  37.318  32.337   7.886
 1253POPC   NC319955  21.987  35.618   9.516
 1253POPC   PO419956  22.582  35.267   9.491
 1253POPC   GL119957  22.357  35.236   9.159
 1253POPC   GL219958  22.314  35.603   9.133
 1253POPC   C1A19959  22.314  35.003   8.776
 1253POPC   D2A19960  22.035  35.009   8.426
 1253POPC   C3A19961  22.008  35.242   8.048
 1253POPC   C4A19962  22.297  35.097   7.761
 1253POPC   C1B19963  22.044  35.434   8.816
 1253POPC   C2B19964  22.092  35.637   8.438
 1253POPC   C3B19965  21.962  35.759   8.068
 1253POPC   C4B19966  22.118  35.627   7.668
 1254POPC   NC319967  30.837   7.152   9.424
 1254POPC   PO419968  30.671   6.501   9.522
 1254POPC   GL119969  30.543   6.647   9.137
 1254POPC   GL219970  30.345   6.370   9.061
 1254POPC   C1A19971  30.734   6.680   8.714
 1254POPC   D2A19972  30.576   6.903   8.330
 1254POPC   C3A19973  30.700   6.713   7.918
 1254POPC   C4A19974  30.883   6.438   7.600
 1254POPC   C1B19975  30.276   6.497   8.667
 1254POPC   C2B19976  30.439   6.409   8.304
 1254POPC   C3B19977  30.531   6.225   7.934
 1254POPC   C4B19978  30.396   6.340   7.556
 1255POPC   NC319979   0.816  41.768   9.404
 1255POPC   PO419980   1.193  41.379   9.774
 1255POPC   GL119981   1.172  41.440   9.243
 1255POPC   GL219982   0.937  41.595   8.959
 1255POPC   C1A19983   1.413  41.402   8.859
 1255POPC   D2A19984   1.171  41.331   8.475
 1255POPC   C3A19985   1.177  41.644   8.153
 1255POPC   C4A19986   1.340  41.589   7.752
 1255POPC   C1B19987   1.221  41.830   8.695
 1255POPC   C2B19988   1.563  41.860   8.414
 1255POPC   C3B19989   1.523  42.044   8.028
 1255POPC   C4B19990   1.369  42.082   7.635
 1256POPC   NC319991  31.604  38.227   9.524
 1256POPC   PO419992  31.170  38.755   9.625
 1256POPC   GL119993  31.279  38.650   9.226
 1256POPC   GL219994  31.243  38.319   9.174
 1256POPC   C1A19995  31.254  38.641   8.774
 1256POPC   D2A19996  31.447  38.426   8.434
 1256POPC   C3A19997  31.299  38.609   8.103
 1256POPC   C4A19998  31.156  38.556   7.726
 1256POPC   C1B19999  31.615  38.293   8.897
 1256POPC   C2B20000  31.750  38.014   8.605
 1256POPC   C3B20001  31.825  38.148   8.204
 1256POPC   C4B20002  31.718  38.459   7.866
 1257POPC   NC320003  11.781  42.043   9.445
 1257POPC   PO420004  12.166  42.618   9.542
 1257POPC   GL120005  12.013  42.418   9.157
 1257POPC   GL220006  12.229  42.160   9.130
 1257POPC   C1A20007  12.076  42.288   8.682
 1257POPC   D2A20008  11.813  42.167   8.342
 1257POPC   C3A20009  11.868  42.408   7.987
 1257POPC   C4A20010  12.041  42.795   7.862
 1257POPC   C1B20011  12.384  41.880   8.768
 1257POPC   C2B20012  12.276  41.956   8.329
 1257POPC   C3B20013  12.320  42.156   7.948
 1257POPC   C4B20014  12.202  42.404   7.589
 1258POPC   NC320015   1.469   0.647   9.484
 1258POPC   PO420016   0.903   0.185   9.633
 1258POPC   GL120017   1.168   0.292   9.261
 1258POPC   GL220018   0.857   0.350   9.139
 1258POPC   C1A20019   1.405   0.400   8.835
 1258POPC   D2A20020   1.352   0.676   8.441
 1258POPC   C3A20021   1.344   0.494   8.027
 1258POPC   C4A20022   1.364   0.181   7.697
 1258POPC   C1B20023   0.909   0.575   8.778
 1258POPC   C2B20024   0.836   0.716   8.372
 1258POPC   C3B20025   0.663   0.567   8.018
 1258POPC   C4B20026   0.959   0.550   7.686
 1259POPC   NC320027   4.445  37.365   9.409
 1259POPC   PO420028   4.061  36.855   9.709
 1259POPC   GL120029   4.081  36.834   9.229
 1259POPC   GL220030   4.401  36.927   9.154
 1259POPC   C1A20031   4.079  37.029   8.780
 1259POPC   D2A20032   4.392  37.209   8.483
 1259POPC   C3A20033   4.341  37.052   8.075
 1259POPC   C4A20034   4.428  37.142   7.659
 1259POPC   C1B20035   4.421  36.633   8.841
 1259POPC   C2B20036   4.465  36.692   8.428
 1259POPC   C3B20037   4.651  36.612   8.032
 1259POPC   C4B20038   4.502  36.571   7.605
 1260POPC   NC320039  22.708  13.138   9.402
 1260POPC   PO420040  22.934  13.738   9.561
 1260POPC   GL120041  22.847  13.555   9.172
 1260POPC   GL220042  23.137  13.336   9.132
 1260POPC   C1A20043  22.690  13.365   8.784
 1260POPC   D2A20044  22.729  13.607   8.415
 1260POPC   C3A20045  22.525  13.455   8.088
 1260POPC   C4A20046  22.612  13.555   7.691
 1260POPC   C1B20047  23.143  13.614   8.773
 1260POPC   C2B20048  23.243  13.605   8.370
 1260POPC   C3B20049  23.069  13.564   7.962
 1260POPC   C4B20050  23.216  13.688   7.571
 1261POPC   NC320051  24.507  43.896   9.629
 1261POPC   PO420052  23.960  43.985   9.354
 1261POPC   GL120053  24.381  43.834   9.144
 1261POPC   GL220054  24.618  44.085   9.139
 1261POPC   C1A20055  24.640  43.709   8.748
 1261POPC   D2A20056  24.526  43.611   8.267
 1261POPC   C3A20057  24.738  43.850   7.889
 1261POPC   C4A20058  24.663  43.806   7.434
 1261POPC   C1B20059  24.391  44.168   8.778
 1261POPC   C2B20060  24.598  44.106   8.416
 1261POPC   C3B20061  24.469  44.238   8.050
 1261POPC   C4B20062  24.536  44.305   7.632
 1262POPC   NC320063  44.242   0.787   9.320
 1262POPC   PO420064  44.686   0.371   9.646
 1262POPC   GL120065  44.684   0.514   9.249
 1262POPC   GL220066  44.404   0.330   9.164
 1262POPC   C1A20067  44.706   0.708   8.842
 1262POPC   D2A20068  44.488   0.748   8.449
 1262POPC   C3A20069  44.739   0.583   8.132
 1262POPC   C4A20070  44.770   0.690   7.747
 1262POPC   C1B20071  44.706   0.185   8.843
 1262POPC   C2B20072  44.544   0.234   8.447
 1262POPC   C3B20073  44.463   0.115   8.039
 1262POPC   C4B20074  44.786   0.172   7.781
 1263POPC   NC320075  14.445  14.823   9.609
 1263POPC   PO420076  14.207  15.390   9.382
 1263POPC   GL120077  14.311  15.047   9.170
 1263POPC   GL220078  14.637  15.042   9.023
 1263POPC   C1A20079  14.175  14.955   8.791
 1263POPC   D2A20080  14.373  15.202   8.477
 1263POPC   C3A20081  14.367  15.092   8.067
 1263POPC   C4A20082  14.457  15.066   7.630
 1263POPC   C1B20083  14.670  15.462   8.797
 1263POPC   C2B20084  14.655  15.654   8.372
 1263POPC   C3B20085  14.610  15.551   7.932
 1263POPC   C4B20086  14.591  15.569   7.495
 1264POPC   NC320087  17.622  25.854   9.405
 1264POPC   PO420088  17.248  26.445   9.527
 1264POPC   GL120089  17.289  26.180   9.155
 1264POPC   GL220090  17.175  25.875   9.142
 1264POPC   C1A20091  17.562  26.080   8.785
 1264POPC   D2A20092  17.411  26.125   8.396
 1264POPC   C3A20093  17.547  26.218   7.978
 1264POPC   C4A20094  17.438  26.455   7.616
 1264POPC   C1B20095  17.352  25.591   8.833
 1264POPC   C2B20096  17.346  25.619   8.424
 1264POPC   C3B20097  17.205  25.808   8.071
 1264POPC   C4B20098  17.181  25.655   7.689
 1265POPC   NC320099  17.411   0.393   9.634
 1265POPC   PO420100  17.951   0.851   9.572
 1265POPC   GL120101  17.712   0.632   9.263
 1265POPC   GL220102  17.345   0.579   9.162
 1265POPC   C1A20103  17.800   0.429   8.878
 1265POPC   D2A20104  17.775   0.440   8.432
 1265POPC   C3A20105  17.745   0.669   8.060
 1265POPC   C4A20106  17.688   0.476   7.656
 1265POPC   C1B20107  17.369   0.656   8.717
 1265POPC   C2B20108  17.258   0.351   8.416
 1265POPC   C3B20109  17.349   0.356   8.013
 1265POPC   C4B20110  17.312   0.777   7.806
 1266POPC   NC320111  37.909  38.957   9.435
 1266POPC   PO420112  37.958  38.333   9.656
 1266POPC   GL120113  37.836  38.455   9.229
 1266POPC   GL220114  37.515  38.632   9.219
 1266POPC   C1A20115  37.924  38.590   8.787
 1266POPC   D2A20116  37.734  38.522   8.371
 1266POPC   C3A20117  37.952  38.526   7.967
 1266POPC   C4A20118  37.807  38.648   7.548
 1266POPC   C1B20119  37.468  38.351   8.870
 1266POPC   C2B20120  37.274  38.284   8.512
 1266POPC   C3B20121  37.408  38.177   8.126
 1266POPC   C4B20122  37.435  38.544   7.915
 1267POPC   NC320123   4.135  41.315   9.602
 1267POPC   PO420124   4.546  41.752   9.663
 1267POPC   GL120125   4.362  41.690   9.250
 1267POPC   GL220126   4.478  41.360   9.203
 1267POPC   C1A20127   4.218  41.695   8.782
 1267POPC   D2A20128   4.014  41.795   8.349
 1267POPC   C3A20129   4.244  41.789   7.912
 1267POPC   C4A20130   4.378  41.810   7.436
 1267POPC   C1B20131   4.470  41.219   8.779
 1267POPC   C2B20132   4.190  41.302   8.412
 1267POPC   C3B20133   4.347  41.303   8.010
 1267POPC   C4B20134   4.722  41.209   7.871
 1268POPC   NC320135  26.084  19.940   9.581
 1268POPC   PO420136  26.290  19.346   9.531
 1268POPC   GL120137  26.420  19.502   9.141
 1268POPC   GL220138  26.158  19.735   9.110
 1268POPC   C1A20139  26.322  19.501   8.682
 1268POPC   D2A20140  26.008  19.542   8.341
 1268POPC   C3A20141  26.154  19.651   7.919
 1268POPC   C4A20142  26.417  19.924   7.649
 1268POPC   C1B20143  26.011  19.921   8.721
 1268POPC   C2B20144  26.225  20.003   8.328
 1268POPC   C3B20145  26.083  20.192   7.938
 1268POPC   C4B20146  26.183  20.401   7.527
 1269POPC   NC320147  39.720  28.980   9.560
 1269POPC   PO420148  40.361  29.329   9.474
 1269POPC   GL120149  40.190  29.127   9.141
 1269POPC   GL220150  39.828  29.170   9.108
 1269POPC   C1A20151  40.137  29.281   8.728
 1269POPC   D2A20152  39.905  29.171   8.394
 1269POPC   C3A20153  40.074  29.068   8.011
 1269POPC   C4A20154  40.065  29.235   7.641
 1269POPC   C1B20155  39.596  29.082   8.768
 1269POPC   C2B20156  39.536  28.822   8.389
 1269POPC   C3B20157  39.569  28.989   8.013
 1269POPC   C4B20158  39.662  28.952   7.625
 1270POPC   NC320159  13.125  12.686   9.549
 1270POPC   PO420160  13.459  12.068   9.615
 1270POPC   GL120161  13.578  12.048   9.199
 1270POPC   GL220162  13.657  12.354   9.104
 1270POPC   C1A20163  13.364  11.989   8.810
 1270POPC   D2A20164  13.511  11.847   8.420
 1270POPC   C3A20165  13.567  12.097   8.085
 1270POPC   C4A20166  13.616  12.016   7.686
 1270POPC   C1B20167  13.658  12.398   8.661
 1270POPC   C2B20168  13.797  12.513   8.265
 1270POPC   C3B20169  13.924  12.411   7.862
 1270POPC   C4B20170  14.007  12.278   7.456
 1271POPC   NC320171  20.285  18.683   9.505
 1271POPC   PO420172  19.667  18.432   9.535
 1271POPC   GL120173  19.784  18.273   9.161
 1271POPC   GL220174  20.073  18.343   9.197
 1271POPC   C1A20175  19.604  18.155   8.779
 1271POPC   D2A20176  19.778  18.019   8.404
 1271POPC   C3A20177  19.588  18.268   8.108
 1271POPC   C4A20178  19.632  18.305   7.682
 1271POPC   C1B20179  20.138  18.156   8.787
 1271POPC   C2B20180  20.306  18.083   8.378
 1271POPC   C3B20181  20.101  18.141   7.994
 1271POPC   C4B20182  20.146  18.360   7.645
 1272POPC   NC320183  30.226  30.937   9.743
 1272POPC   PO420184  29.749  31.439   9.519
 1272POPC   GL120185  29.870  31.446   9.068
 1272POPC   GL220186  30.121  31.669   8.936
 1272POPC   C1A20187  29.960  31.238   8.665
 1272POPC   D2A20188  29.946  31.367   8.230
 1272POPC   C3A20189  30.199  31.190   7.912
 1272POPC   C4A20190  30.384  31.535   7.788
 1272POPC   C1B20191  29.815  31.724   8.592
 1272POPC   C2B20192  29.702  31.932   8.200
 1272POPC   C3B20193  29.600  31.950   7.749
 1272POPC   C4B20194  29.538  31.654   7.375
 1273POPC   NC320195  33.834  14.833   9.290
 1273POPC   PO420196  34.004  14.230   9.515
 1273POPC   GL120197  33.868  14.347   9.124
 1273POPC   GL220198  33.547  14.286   9.162
 1273POPC   C1A20199  33.714  14.552   8.737
 1273POPC   D2A20200  33.565  14.780   8.422
 1273POPC   C3A20201  33.638  14.542   8.085
 1273POPC   C4A20202  33.815  14.411   7.715
 1273POPC   C1B20203  33.598  14.066   8.771
 1273POPC   C2B20204  33.777  14.129   8.376
 1273POPC   C3B20205  33.570  14.039   7.951
 1273POPC   C4B20206  33.514  14.075   7.464
 1274POPC   NC320207  29.442  17.660   9.479
 1274POPC   PO420208  29.052  17.178   9.220
 1274POPC   GL120209  28.927  17.574   9.077
 1274POPC   GL220210  29.213  17.815   9.058
 1274POPC   C1A20211  28.946  17.508   8.647
 1274POPC   D2A20212  29.071  17.168   8.371
 1274POPC   C3A20213  28.941  17.265   7.951
 1274POPC   C4A20214  28.902  17.423   7.514
 1274POPC   C1B20215  29.366  17.790   8.653
 1274POPC   C2B20216  29.328  17.601   8.240
 1274POPC   C3B20217  29.138  17.743   7.867
 1274POPC   C4B20218  29.261  17.809   7.405
 1275POPC   NC320219  38.730  39.072   9.444
 1275POPC   PO420220  38.748  39.650   9.762
 1275POPC   GL120221  38.415  39.399   9.228
 1275POPC   GL220222  38.627  39.153   8.960
 1275POPC   C1A20223  38.447  39.582   8.763
 1275POPC   D2A20224  38.336  39.456   8.340
 1275POPC   C3A20225  38.545  39.514   7.942
 1275POPC   C4A20226  38.689  39.214   7.636
 1275POPC   C1B20227  38.240  39.119   8.739
 1275POPC   C2B20228  38.073  38.970   8.380
 1275POPC   C3B20229  38.204  39.119   7.986
 1275POPC   C4B20230  38.239  38.896   7.647
 1276POPC   NC320231   4.631  44.377   9.405
 1276POPC   PO420232   4.124  44.916   9.456
 1276POPC   GL120233   4.237  44.740   9.047
 1276POPC   GL220234   4.567  44.731   9.049
 1276POPC   C1A20235   4.402  44.650   8.584
 1276POPC   D2A20236   4.359  44.299   8.299
 1276POPC   C3A20237   4.529  44.291   7.890
 1276POPC   C4A20238   4.306  44.459   7.543
 1276POPC   C1B20239   4.799  44.371   8.783
 1276POPC   C2B20240   4.869  44.428   8.356
 1276POPC   C3B20241   4.697  44.731   8.090
 1276POPC   C4B20242   4.860  44.646   7.678
 1277POPC   NC320243  25.128  14.681   9.568
 1277POPC   PO420244  25.466  14.146   9.365
 1277POPC   GL120245  25.064  14.321   9.190
 1277POPC   GL220246  25.051  14.068   8.941
 1277POPC   C1A20247  24.927  14.585   8.843
 1277POPC   D2A20248  25.129  14.705   8.392
 1277POPC   C3A20249  25.130  14.503   8.011
 1277POPC   C4A20250  25.295  14.601   7.626
 1277POPC   C1B20251  25.370  14.362   8.750
 1277POPC   C2B20252  25.309  14.215   8.363
 1277POPC   C3B20253  25.444  14.089   7.958
 1277POPC   C4B20254  25.362  14.104   7.538
 1278POPC   NC320255  11.305  11.725   9.478
 1278POPC   PO420256  11.587  11.101   9.460
 1278POPC   GL120257  11.252  11.253   9.206
 1278POPC   GL220258  11.391  11.534   9.009
 1278POPC   C1A20259  11.091  11.203   8.780
 1278POPC   D2A20260  11.253  11.430   8.405
 1278POPC   C3A20261  11.102  11.282   7.993
 1278POPC   C4A20262  10.962  11.217   7.559
 1278POPC   C1B20263  11.705  11.476   8.699
 1278POPC   C2B20264  11.730  11.333   8.281
 1278POPC   C3B20265  11.763  11.425   7.875
 1278POPC   C4B20266  11.473  11.193   7.656
 1279POPC   NC320267  39.390   9.312  10.152
 1279POPC   PO420268  39.302   9.444   9.483
 1279POPC   GL120269  39.222   9.195   9.124
 1279POPC   GL220270  38.850   9.251   9.112
 1279POPC   C1A20271  39.430   9.019   8.737
 1279POPC   D2A20272  39.647   8.959   8.341
 1279POPC   C3A20273  39.451   9.055   7.967
 1279POPC   C4A20274  39.405   8.843   7.573
 1279POPC   C1B20275  38.929   8.961   8.749
 1279POPC   C2B20276  39.134   8.845   8.345
 1279POPC   C3B20277  39.030   8.763   7.922
 1279POPC   C4B20278  38.889   8.735   7.484
 1280POPC   NC320279   3.044   6.539   9.653
 1280POPC   PO420280   3.669   6.740   9.541
 1280POPC   GL120281   3.392   6.633   9.225
 1280POPC   GL220282   3.121   6.839   9.158
 1280POPC   C1A20283   3.429   6.625   8.784
 1280POPC   D2A20284   3.562   6.788   8.394
 1280POPC   C3A20285   3.644   6.503   8.059
 1280POPC   C4A20286   3.366   6.439   7.711
 1280POPC   C1B20287   3.121   7.064   8.741
 1280POPC   C2B20288   3.210   7.161   8.294
 1280POPC   C3B20289   3.314   6.896   7.946
 1280POPC   C4B20290   3.295   6.910   7.469
 1281POPC   NC320291  23.874  37.906   9.509
 1281POPC   PO420292  23.527  37.322   9.640
 1281POPC   GL120293  23.680  37.369   9.193
 1281POPC   GL220294  23.357  37.307   9.141
 1281POPC   C1A20295  23.971  37.602   8.881
 1281POPC   D2A20296  24.065  37.895   8.501
 1281POPC   C3A20297  24.127  37.747   8.048
 1281POPC   C4A20298  23.928  37.656   7.607
 1281POPC   C1B20299  23.467  37.520   8.746
 1281POPC   C2B20300  23.773  37.469   8.429
 1281POPC   C3B20301  23.678  37.516   8.023
 1281POPC   C4B20302  23.532  37.305   7.682
 1282POPC   NC320303  20.151   7.966   9.465
 1282POPC   PO420304  19.607   8.395   9.545
 1282POPC   GL120305  19.475   8.412   9.147
 1282POPC   GL220306  19.705   8.132   9.026
 1282POPC   C1A20307  19.625   8.546   8.758
 1282POPC   D2A20308  19.838   8.320   8.485
 1282POPC   C3A20309  19.684   8.259   8.087
 1282POPC   C4A20310  19.662   8.568   7.794
 1282POPC   C1B20311  19.760   7.854   8.628
 1282POPC   C2B20312  20.084   7.911   8.270
 1282POPC   C3B20313  20.100   8.081   7.848
 1282POPC   C4B20314  19.732   8.082   7.566
 1283POPC   NC320315  33.265  15.783   9.458
 1283POPC   PO420316  32.694  16.134   9.705
 1283POPC   GL120317  32.789  15.945   9.226
 1283POPC   GL220318  33.123  16.034   9.030
 1283POPC   C1A20319  32.897  15.627   8.846
 1283POPC   D2A20320  33.116  15.771   8.467
 1283POPC   C3A20321  32.906  15.726   8.046
 1283POPC   C4A20322  33.017  15.645   7.604
 1283POPC   C1B20323  32.765  16.100   8.730
 1283POPC   C2B20324  32.709  16.109   8.302
 1283POPC   C3B20325  32.867  16.213   7.908
 1283POPC   C4B20326  32.738  16.557   7.727
 1284POPC   NC320327  16.483  30.058   9.360
 1284POPC   PO420328  17.111  30.050   9.644
 1284POPC   GL120329  16.927  30.108   9.152
 1284POPC   GL220330  16.810  29.745   9.095
 1284POPC   C1A20331  16.702  30.081   8.720
 1284POPC   D2A20332  16.774  29.840   8.338
 1284POPC   C3A20333  16.957  29.967   7.930
 1284POPC   C4A20334  17.184  30.337   7.768
 1284POPC   C1B20335  17.081  29.527   8.775
 1284POPC   C2B20336  17.001  29.369   8.341
 1284POPC   C3B20337  16.756  29.469   7.967
 1284POPC   C4B20338  16.852  29.455   7.528
 1285POPC   NC320339  14.001   4.310   9.662
 1285POPC   PO420340  14.553   4.189   9.408
 1285POPC   GL120341  14.382   4.155   9.043
 1285POPC   GL220342  14.651   4.382   8.937
 1285POPC   C1A20343  14.425   4.098   8.590
 1285POPC   D2A20344  14.751   4.390   8.393
 1285POPC   C3A20345  14.663   4.346   7.956
 1285POPC   C4A20346  14.676   4.104   7.581
 1285POPC   C1B20347  14.317   4.565   8.759
 1285POPC   C2B20348  14.259   4.504   8.329
 1285POPC   C3B20349  14.241   4.656   7.946
 1285POPC   C4B20350  14.239   4.361   7.607
 1286POPC   NC320351  21.270  18.526   9.570
 1286POPC   PO420352  21.547  17.878   9.530
 1286POPC   GL120353  21.518  18.246   9.224
 1286POPC   GL220354  21.139  18.315   9.139
 1286POPC   C1A20355  21.516  18.432   8.806
 1286POPC   D2A20356  21.261  18.315   8.457
 1286POPC   C3A20357  21.500  18.232   8.113
 1286POPC   C4A20358  21.681  17.970   7.849
 1286POPC   C1B20359  21.023  18.612   8.828
 1286POPC   C2B20360  21.218  18.843   8.473
 1286POPC   C3B20361  21.216  18.665   8.042
 1286POPC   C4B20362  21.061  18.278   7.853
 1287POPC   NC320363  25.046   6.639   9.392
 1287POPC   PO420364  24.500   6.487   9.484
 1287POPC   GL120365  24.562   6.557   9.090
 1287POPC   GL220366  24.312   6.825   9.046
 1287POPC   C1A20367  24.557   6.565   8.655
 1287POPC   D2A20368  24.353   6.900   8.452
 1287POPC   C3A20369  24.369   6.835   8.026
 1287POPC   C4A20370  24.554   6.599   7.703
 1287POPC   C1B20371  24.675   7.031   8.822
 1287POPC   C2B20372  24.847   7.008   8.375
 1287POPC   C3B20373  24.832   7.013   7.902
 1287POPC   C4B20374  24.608   7.096   7.502
 1288POPC   NC320375  44.095  29.586   9.650
 1288POPC   PO420376  44.296  30.260   9.407
 1288POPC   GL120377  44.158  30.148   9.018
 1288POPC   GL220378  43.965  29.864   9.047
 1288POPC   C1A20379  44.077  30.074   8.571
 1288POPC   D2A20380  43.809  30.017   8.231
 1288POPC   C3A20381  44.098  29.905   7.938
 1288POPC   C4A20382  44.185  29.476   7.861
 1288POPC   C1B20383  43.651  30.143   8.807
 1288POPC   C2B20384  43.597  30.421   8.473
 1288POPC   C3B20385  43.510  30.383   8.011
 1288POPC   C4B20386  43.661  30.051   7.699
 1289POPC   NC320387  14.643  32.554   9.629
 1289POPC   PO420388  14.085  32.227   9.602
 1289POPC   GL120389  14.360  32.320   9.256
 1289POPC   GL220390  14.615  32.085   9.198
 1289POPC   C1A20391  14.377  32.418   8.820
 1289POPC   D2A20392  14.213  32.184   8.448
 1289POPC   C3A20393  14.380  32.276   8.040
 1289POPC   C4A20394  14.419  32.530   7.672
 1289POPC   C1B20395  14.548  31.930   8.747
 1289POPC   C2B20396  14.588  31.853   8.298
 1289POPC   C3B20397  14.543  31.828   7.854
 1289POPC   C4B20398  14.410  32.074   7.469
 1290POPC   NC320399  19.664   3.634   9.265
 1290POPC   PO420400  20.231   3.500   9.664
 1290POPC   GL120401  20.084   3.392   9.116
 1290POPC   GL220402  19.823   3.223   8.944
 1290POPC   C1A20403  20.048   3.657   8.690
 1290POPC   D2A20404  20.149   3.920   8.331
 1290POPC   C3A20405  20.030   3.799   7.945
 1290POPC   C4A20406  19.920   3.524   7.617
 1290POPC   C1B20407  19.574   3.451   8.639
 1290POPC   C2B20408  19.683   3.553   8.224
 1290POPC   C3B20409  19.466   3.451   7.853
 1290POPC   C4B20410  19.045   3.393   7.661
 1291POPC   NC320411  18.454  12.724   9.488
 1291POPC   PO420412  17.843  12.668   9.261
 1291POPC   GL120413  18.199  12.939   9.090
 1291POPC   GL220414  18.523  12.743   8.996
 1291POPC   C1A20415  18.420  13.166   8.768
 1291POPC   D2A20416  18.450  12.879   8.468
 1291POPC   C3A20417  18.492  12.932   8.028
 1291POPC   C4A20418  18.281  12.947   7.632
 1291POPC   C1B20419  18.697  12.475   8.675
 1291POPC   C2B20420  18.505  12.434   8.239
 1291POPC   C3B20421  18.213  12.501   7.887
 1291POPC   C4B20422  18.584  12.534   7.684
 1292POPC   NC320423  18.995   3.384   9.578
 1292POPC   PO420424  19.627   3.169   9.401
 1292POPC   GL120425  19.305   3.276   9.081
 1292POPC   GL220426  19.056   3.553   9.104
 1292POPC   C1A20427  19.080   3.270   8.673
 1292POPC   D2A20428  19.105   3.442   8.269
 1292POPC   C3A20429  19.243   3.811   8.142
 1292POPC   C4A20430  19.145   3.875   7.738
 1292POPC   C1B20431  18.759   3.694   8.790
 1292POPC   C2B20432  18.750   3.885   8.382
 1292POPC   C3B20433  18.741   3.728   7.990
 1292POPC   C4B20434  18.539   3.360   7.805
 1293POPC   NC320435  13.388  19.028   9.606
 1293POPC   PO420436  12.778  18.951   9.370
 1293POPC   GL120437  13.183  18.867   9.093
 1293POPC   GL220438  13.425  19.134   9.104
 1293POPC   C1A20439  13.399  18.690   8.704
 1293POPC   D2A20440  13.576  18.877   8.303
 1293POPC   C3A20441  13.366  19.070   7.930
 1293POPC   C4A20442  13.310  18.927   7.480
 1293POPC   C1B20443  13.727  19.116   8.769
 1293POPC   C2B20444  13.917  19.261   8.379
 1293POPC   C3B20445  13.866  19.198   7.937
 1293POPC   C4B20446  13.681  19.290   7.536
 1294POPC   NC320447   4.026  32.279   9.597
 1294POPC   PO420448   4.571  31.970   9.490
 1294POPC   GL120449   4.352  32.261   9.183
 1294POPC   GL220450   3.975  32.348   9.105
 1294POPC   C1A20451   4.310  32.299   8.732
 1294POPC   D2A20452   4.359  32.534   8.408
 1294POPC   C3A20453   4.555  32.344   8.065
 1294POPC   C4A20454   4.443  32.417   7.670
 1294POPC   C1B20455   3.965  31.951   8.861
 1294POPC   C2B20456   4.013  31.983   8.408
 1294POPC   C3B20457   4.048  32.294   8.058
 1294POPC   C4B20458   3.893  32.322   7.630
 1295POPC   NC320459  19.412   7.126   9.488
 1295POPC   PO420460  19.280   6.445   9.625
 1295POPC   GL120461  19.135   6.679   9.250
 1295POPC   GL220462  18.894   6.991   9.276
 1295POPC   C1A20463  19.189   6.614   8.802
 1295POPC   D2A20464  19.057   6.368   8.460
 1295POPC   C3A20465  19.148   6.419   8.065
 1295POPC   C4A20466  19.102   6.432   7.637
 1295POPC   C1B20467  18.734   6.851   8.862
 1295POPC   C2B20468  18.637   6.698   8.450
 1295POPC   C3B20469  18.718   6.696   8.029
 1295POPC   C4B20470  18.836   6.847   7.596
 1296POPC   NC320471  23.088   4.045   9.685
 1296POPC   PO420472  22.531   4.359   9.454
 1296POPC   GL120473  22.952   4.355   9.264
 1296POPC   GL220474  22.983   4.694   9.153
 1296POPC   C1A20475  23.308   4.336   8.944
 1296POPC   D2A20476  23.417   4.380   8.483
 1296POPC   C3A20477  23.078   4.391   8.147
 1296POPC   C4A20478  23.028   4.161   7.753
 1296POPC   C1B20479  22.856   4.457   8.754
 1296POPC   C2B20480  22.596   4.298   8.392
 1296POPC   C3B20481  22.589   4.412   7.946
 1296POPC   C4B20482  22.813   4.601   7.595
 1297POPC   NC320483   6.414  19.209   9.251
 1297POPC   PO420484   5.850  18.898   9.567
 1297POPC   GL120485   5.718  18.972   9.085
 1297POPC   GL220486   5.526  18.768   8.829
 1297POPC   C1A20487   5.798  19.152   8.654
 1297POPC   D2A20488   5.653  19.345   8.256
 1297POPC   C3A20489   5.935  19.394   7.903
 1297POPC   C4A20490   5.732  19.423   7.504
 1297POPC   C1B20491   5.775  18.626   8.520
 1297POPC   C2B20492   5.595  18.824   8.162
 1297POPC   C3B20493   5.649  19.011   7.792
 1297POPC   C4B20494   5.839  18.904   7.391
 1298POPC   NC320495  14.947  29.739   9.392
 1298POPC   PO420496  14.236  29.693   9.530
 1298POPC   GL120497  14.488  29.656   9.168
 1298POPC   GL220498  14.585  30.017   9.098
 1298POPC   C1A20499  14.665  29.616   8.760
 1298POPC   D2A20500  14.695  29.480   8.324
 1298POPC   C3A20501  14.383  29.723   8.121
 1298POPC   C4A20502  14.232  30.028   7.833
 1298POPC   C1B20503  14.563  30.128   8.636
 1298POPC   C2B20504  14.571  30.250   8.184
 1298POPC   C3B20505  14.637  30.416   7.761
 1298POPC   C4B20506  14.648  30.254   7.341
 1299POPC   NC320507  28.940  34.706   9.496
 1299POPC   PO420508  29.433  34.113   9.468
 1299POPC   GL120509  29.275  34.384   9.110
 1299POPC   GL220510  29.217  34.772   9.080
 1299POPC   C1A20511  29.148  34.492   8.675
 1299POPC   D2A20512  29.317  34.411   8.283
 1299POPC   C3A20513  29.128  34.584   7.943
 1299POPC   C4A20514  28.962  34.254   7.779
 1299POPC   C1B20515  29.411  34.957   8.724
 1299POPC   C2B20516  29.345  34.902   8.296
 1299POPC   C3B20517  29.384  35.037   7.858
 1299POPC   C4B20518  29.428  34.826   7.461
 1300POPC   NC320519  21.331  39.961   9.523
 1300POPC   PO420520  21.948  40.109   9.397
 1300POPC   GL120521  21.620  39.920   9.098
 1300POPC   GL220522  21.325  40.160   9.064
 1300POPC   C1A20523  21.467  39.937   8.640
 1300POPC   D2A20524  21.271  40.028   8.248
 1300POPC   C3A20525  21.407  39.812   7.873
 1300POPC   C4A20526  21.179  39.647   7.530
 1300POPC   C1B20527  21.657  40.365   8.816
 1300POPC   C2B20528  21.680  40.340   8.347
 1300POPC   C3B20529  21.547  40.311   7.881
 1300POPC   C4B20530  21.651  40.426   7.426
 1301POPC   NC320531  25.004  29.067   9.590
 1301POPC   PO420532  24.314  28.942   9.453
 1301POPC   GL120533  24.370  29.092   9.048
 1301POPC   GL220534  24.702  29.168   9.177
 1301POPC   C1A20535  24.355  29.128   8.595
 1301POPC   D2A20536  24.480  28.834   8.328
 1301POPC   C3A20537  24.594  28.963   7.920
 1301POPC   C4A20538  24.324  28.890   7.581
 1301POPC   C1B20539  24.819  29.018   8.778
 1301POPC   C2B20540  24.813  29.236   8.388
 1301POPC   C3B20541  24.692  29.455   8.012
 1301POPC   C4B20542  24.846  29.339   7.643
 1302POPC   NC320543  23.116  18.248   9.396
 1302POPC   PO420544  22.421  18.349   9.417
 1302POPC   GL120545  22.699  18.166   9.080
 1302POPC   GL220546  22.895  18.425   8.996
 1302POPC   C1A20547  22.927  18.012   8.654
 1302POPC   D2A20548  23.028  17.853   8.201
 1302POPC   C3A20549  22.922  18.133   7.833
 1302POPC   C4A20550  22.841  18.512   7.530
 1302POPC   C1B20551  23.129  18.514   8.668
 1302POPC   C2B20552  23.151  18.349   8.257
 1302POPC   C3B20553  23.258  18.528   7.869
 1302POPC   C4B20554  23.211  18.840   7.570
 1303POPC   NC320555  26.685  14.637   9.234
 1303POPC   PO420556  26.638  15.223   9.650
 1303POPC   GL120557  26.833  15.137   9.243
 1303POPC   GL220558  26.528  15.126   9.117
 1303POPC   C1A20559  27.107  15.138   8.842
 1303POPC   D2A20560  27.011  15.313   8.422
 1303POPC   C3A20561  27.154  15.136   8.022
 1303POPC   C4A20562  26.947  14.881   7.736
 1303POPC   C1B20563  26.641  15.033   8.694
 1303POPC   C2B20564  26.553  15.103   8.305
 1303POPC   C3B20565  26.706  15.374   8.001
 1303POPC   C4B20566  26.605  15.255   7.629
 1304POPC   NC320567  19.946  41.155   9.589
 1304POPC   PO420568  19.766  41.785   9.397
 1304POPC   GL120569  19.733  41.399   9.183
 1304POPC   GL220570  20.044  41.219   9.111
 1304POPC   C1A20571  19.602  41.322   8.774
 1304POPC   D2A20572  19.558  41.235   8.327
 1304POPC   C3A20573  19.649  41.640   8.071
 1304POPC   C4A20574  19.857  41.733   7.697
 1304POPC   C1B20575  20.124  41.471   8.804
 1304POPC   C2B20576  20.005  41.554   8.416
 1304POPC   C3B20577  20.045  41.319   8.046
 1304POPC   C4B20578  20.247  41.415   7.675
 1305POPC   NC320579  22.691  44.879   9.915
 1305POPC   PO420580  23.187  44.551   9.617
 1305POPC   GL120581  23.092  44.494   9.165
 1305POPC   GL220582  22.739  44.493   9.233
 1305POPC   C1A20583  23.159  44.618   8.731
 1305POPC   D2A20584  22.901  44.704   8.387
 1305POPC   C3A20585  22.984  44.806   7.967
 1305POPC   C4A20586  23.281  44.998   7.783
 1305POPC   C1B20587  22.676  44.359   8.819
 1305POPC   C2B20588  22.799  44.199   8.447
 1305POPC   C3B20589  22.700  44.356   8.059
 1305POPC   C4B20590  22.763  44.454   7.647
 1306POPC   NC320591  35.865  41.156   9.540
 1306POPC   PO420592  35.975  40.464   9.575
 1306POPC   GL120593  36.098  40.653   9.203
 1306POPC   GL220594  36.450  40.719   9.068
 1306POPC   C1A20595  36.079  40.495   8.784
 1306POPC   D2A20596  35.756  40.623   8.469
 1306POPC   C3A20597  35.750  40.493   8.033
 1306POPC   C4A20598  36.084  40.567   7.740
 1306POPC   C1B20599  36.138  40.997   8.838
 1306POPC   C2B20600  36.120  41.110   8.446
 1306POPC   C3B20601  36.245  41.024   8.024
 1306POPC   C4B20602  36.318  41.322   7.720
 1307POPC   NC320603  18.517   9.402   9.294
 1307POPC   PO420604  18.567  10.004   9.161
 1307POPC   GL120605  18.271   9.835   8.910
 1307POPC   GL220606  18.022   9.650   9.117
 1307POPC   C1A20607  18.519   9.602   8.614
 1307POPC   D2A20608  18.700   9.599   8.200
 1307POPC   C3A20609  18.363   9.741   7.901
 1307POPC   C4A20610  18.113   9.968   7.588
 1307POPC   C1B20611  18.079   9.390   8.731
 1307POPC   C2B20612  18.161   9.493   8.288
 1307POPC   C3B20613  17.928   9.488   7.908
 1307POPC   C4B20614  17.887   9.517   7.461
 1308POPC   NC320615  19.225  28.605   9.764
 1308POPC   PO420616  18.921  29.190   9.674
 1308POPC   GL120617  18.827  29.107   9.206
 1308POPC   GL220618  18.664  28.811   9.171
 1308POPC   C1A20619  18.858  29.242   8.770
 1308POPC   D2A20620  19.208  29.125   8.484
 1308POPC   C3A20621  19.175  29.222   8.037
 1308POPC   C4A20622  18.802  29.366   7.776
 1308POPC   C1B20623  18.877  28.736   8.799
 1308POPC   C2B20624  18.780  28.679   8.394
 1308POPC   C3B20625  18.788  28.890   8.003
 1308POPC   C4B20626  19.056  28.926   7.640
 1309POPC   NC320627   3.865   5.321   9.436
 1309POPC   PO420628   3.276   5.032   9.652
 1309POPC   GL120629   3.400   4.937   9.243
 1309POPC   GL220630   3.722   4.774   9.338
 1309POPC   C1A20631   3.291   5.071   8.810
 1309POPC   D2A20632   3.504   5.276   8.456
 1309POPC   C3A20633   3.351   5.224   8.055
 1309POPC   C4A20634   3.081   5.214   7.721
 1309POPC   C1B20635   3.754   4.851   8.880
 1309POPC   C2B20636   3.834   4.848   8.442
 1309POPC   C3B20637   3.919   5.121   8.112
 1309POPC   C4B20638   3.740   5.165   7.708
 1310POPC   NC320639   0.656  35.723   9.464
 1310POPC   PO420640   0.163  36.265   9.368
 1310POPC   GL120641   0.385  36.309   9.002
 1310POPC   GL220642   0.563  36.009   9.066
 1310POPC   C1A20643   0.293  36.124   8.613
 1310POPC   D2A20644   0.083  35.788   8.423
 1310POPC   C3A20645   0.136  35.954   8.032
 1310POPC   C4A20646   0.394  36.311   8.013
 1310POPC   C1B20647   0.779  36.056   8.700
 1310POPC   C2B20648   0.629  35.918   8.299
 1310POPC   C3B20649   0.721  35.897   7.900
 1310POPC   C4B20650   0.412  35.748   7.662
 1311POPC   NC320651  18.167  30.918   9.453
 1311POPC   PO420652  18.738  30.807   9.854
 1311POPC   GL120653  18.537  30.597   9.357
 1311POPC   GL220654  18.463  30.831   9.058
 1311POPC   C1A20655  18.257  30.424   8.912
 1311POPC   D2A20656  18.148  30.269   8.487
 1311POPC   C3A20657  18.237  30.473   8.077
 1311POPC   C4A20658  18.445  30.260   7.754
 1311POPC   C1B20659  18.057  30.900   8.821
 1311POPC   C2B20660  17.973  30.735   8.433
 1311POPC   C3B20661  17.903  30.870   8.031
 1311POPC   C4B20662  18.132  30.806   7.656
 1312POPC   NC320663  44.012  35.398   9.453
 1312POPC   PO420664  43.403  35.023   9.342
 1312POPC   GL120665  43.747  35.145   9.068
 1312POPC   GL220666  43.756  35.524   9.001
 1312POPC   C1A20667  43.846  35.185   8.624
 1312POPC   D2A20668  43.740  35.581   8.403
 1312POPC   C3A20669  43.785  35.499   7.981
 1312POPC   C4A20670  43.764  35.412   7.555
 1312POPC   C1B20671  44.150  35.588   8.741
 1312POPC   C2B20672  44.222  35.553   8.276
 1312POPC   C3B20673  44.274  35.599   7.836
 1312POPC   C4B20674  44.228  35.536   7.403
 1313POPC   NC320675   0.134   0.363   9.476
 1313POPC   PO420676   0.336   0.948   9.323
 1313POPC   GL120677   0.434   0.648   9.025
 1313POPC   GL220678   0.139   0.405   8.978
 1313POPC   C1A20679   0.389   0.592   8.586
 1313POPC   D2A20680   0.089   0.311   8.426
 1313POPC   C3A20681   0.196   0.332   8.005
 1313POPC   C4A20682   0.218   0.535   7.590
 1313POPC   C1B20683   0.493   0.155   8.845
 1313POPC   C2B20684   0.584   0.116   8.422
 1313POPC   C3B20685   0.510  44.908   8.037
 1313POPC   C4B20686   0.558   0.169   7.682
 1314POPC   NC320687   9.377  13.387   9.414
 1314POPC   PO420688   9.932  13.789   9.454
 1314POPC   GL120689   9.793  13.533   9.138
 1314POPC   GL220690   9.539  13.772   9.064
 1314POPC   C1A20691   9.700  13.480   8.704
 1314POPC   D2A20692   9.619  13.614   8.279
 1314POPC   C3A20693   9.876  13.387   7.995
 1314POPC   C4A20694  10.088  13.462   7.633
 1314POPC   C1B20695   9.814  13.989   8.796
 1314POPC   C2B20696  10.041  13.914   8.429
 1314POPC   C3B20697   9.952  13.951   8.000
 1314POPC   C4B20698   9.690  13.762   7.707
 1315POPC   NC320699   7.748  36.821   9.966
 1315POPC   PO420700   7.232  36.976   9.530
 1315POPC   GL120701   7.430  36.961   9.117
 1315POPC   GL220702   7.603  36.678   9.056
 1315POPC   C1A20703   7.306  37.105   8.719
 1315POPC   D2A20704   7.119  36.977   8.322
 1315POPC   C3A20705   7.189  37.106   7.915
 1315POPC   C4A20706   7.038  36.879   7.555
 1315POPC   C1B20707   7.411  36.605   8.672
 1315POPC   C2B20708   7.506  36.648   8.270
 1315POPC   C3B20709   7.380  36.632   7.880
 1315POPC   C4B20710   7.534  36.914   7.574
 1316POPC   NC320711  32.704  40.233   9.460
 1316POPC   PO420712  33.430  40.211   9.557
 1316POPC   GL120713  33.313  39.991   9.189
 1316POPC   GL220714  32.981  39.836   9.223
 1316POPC   C1A20715  33.259  40.164   8.782
 1316POPC   D2A20716  33.050  40.261   8.393
 1316POPC   C3A20717  33.160  40.013   8.072
 1316POPC   C4A20718  33.389  40.195   7.772
 1316POPC   C1B20719  32.984  39.719   8.785
 1316POPC   C2B20720  32.758  39.840   8.412
 1316POPC   C3B20721  32.656  40.093   8.044
 1316POPC   C4B20722  32.859  39.882   7.673
 1317POPC   NC320723   3.524  14.052   9.513
 1317POPC   PO420724   3.833  14.628   9.740
 1317POPC   GL120725   3.762  14.605   9.227
 1317POPC   GL220726   3.693  14.294   9.104
 1317POPC   C1A20727   3.459  14.683   8.876
 1317POPC   D2A20728   3.118  14.548   8.582
 1317POPC   C3A20729   3.210  14.593   8.133
 1317POPC   C4A20730   3.607  14.750   7.969
 1317POPC   C1B20731   3.374  14.148   8.813
 1317POPC   C2B20732   3.313  14.119   8.370
 1317POPC   C3B20733   3.577  14.226   8.021
 1317POPC   C4B20734   3.850  13.941   7.822
 1318POPC   NC320735  36.532  28.439   9.543
 1318POPC   PO420736  35.985  28.125   9.734
 1318POPC   GL120737  36.076  28.212   9.262
 1318POPC   GL220738  36.410  28.321   9.079
 1318POPC   C1A20739  35.955  28.463   8.897
 1318POPC   D2A20740  36.235  28.695   8.629
 1318POPC   C3A20741  36.211  28.603   8.150
 1318POPC   C4A20742  35.978  28.469   7.753
 1318POPC   C1B20743  36.285  28.103   8.723
 1318POPC   C2B20744  36.239  27.995   8.294
 1318POPC   C3B20745  36.291  28.066   7.879
 1318POPC   C4B20746  36.552  28.392   7.820
 1319POPC   NC320747   1.367  19.592   9.419
 1319POPC   PO420748   1.300  20.247   9.419
 1319POPC   GL120749   1.088  20.189   9.034
 1319POPC   GL220750   1.104  19.841   9.066
 1319POPC   C1A20751   1.226  20.122   8.614
 1319POPC   D2A20752   1.652  20.073   8.431
 1319POPC   C3A20753   1.557  19.905   8.046
 1319POPC   C4A20754   1.233  19.942   7.741
 1319POPC   C1B20755   1.022  19.545   8.763
 1319POPC   C2B20756   0.963  19.724   8.386
 1319POPC   C3B20757   0.939  19.636   8.008
 1319POPC   C4B20758   0.802  19.625   7.654
 1320POPC   NC320759  14.017  28.550   9.371
 1320POPC   PO420760  13.495  28.133   9.580
 1320POPC   GL120761  13.518  28.392   9.204
 1320POPC   GL220762  13.755  28.187   9.064
 1320POPC   C1A20763  13.588  28.530   8.734
 1320POPC   D2A20764  13.769  28.329   8.343
 1320POPC   C3A20765  13.624  28.497   7.968
 1320POPC   C4A20766  13.717  28.629   7.545
 1320POPC   C1B20767  13.382  28.071   8.816
 1320POPC   C2B20768  13.280  28.228   8.421
 1320POPC   C3B20769  13.310  28.063   8.020
 1320POPC   C4B20770  13.746  27.995   7.943
 1321POPC   NC320771   1.497   1.623   9.700
 1321POPC   PO420772   1.259   1.092   9.408
 1321POPC   GL120773   1.340   1.488   9.183
 1321POPC   GL220774   1.061   1.672   9.042
 1321POPC   C1A20775   1.455   1.525   8.738
 1321POPC   D2A20776   1.338   1.254   8.395
 1321POPC   C3A20777   1.483   1.286   7.970
 1321POPC   C4A20778   1.431   0.904   7.718
 1321POPC   C1B20779   0.956   1.333   8.765
 1321POPC   C2B20780   0.808   1.233   8.342
 1321POPC   C3B20781   0.966   1.052   7.966
 1321POPC   C4B20782   1.056   1.394   7.712
 1322POPC   NC320783   1.101  28.965   9.515
 1322POPC   PO420784   1.294  29.589   9.441
 1322POPC   GL120785   1.287  29.270   9.136
 1322POPC   GL220786   0.953  29.214   9.089
 1322POPC   C1A20787   1.262  28.986   8.772
 1322POPC   D2A20788   1.305  28.843   8.348
 1322POPC   C3A20789   1.412  29.130   8.043
 1322POPC   C4A20790   1.560  28.933   7.726
 1322POPC   C1B20791   0.794  29.242   8.714
 1322POPC   C2B20792   0.972  29.246   8.320
 1322POPC   C3B20793   0.917  28.986   7.970
 1322POPC   C4B20794   0.989  28.867   7.561
 1323POPC   NC320795   9.687   6.507   9.813
 1323POPC   PO420796   9.487   7.156   9.727
 1323POPC   GL120797   9.647   7.047   9.267
 1323POPC   GL220798   9.674   6.664   9.186
 1323POPC   C1A20799   9.625   6.964   8.776
 1323POPC   D2A20800   9.539   6.851   8.310
 1323POPC   C3A20801   9.817   6.834   7.908
 1323POPC   C4A20802  10.078   6.895   7.544
 1323POPC   C1B20803   9.855   6.507   8.741
 1323POPC   C2B20804   9.877   6.471   8.273
 1323POPC   C3B20805   9.654   6.337   7.880
 1323POPC   C4B20806   9.991   6.275   7.545
 1324POPC   NC320807  33.535  33.687   9.608
 1324POPC   PO420808  34.093  33.729   9.880
 1324POPC   GL120809  33.958  33.889   9.418
 1324POPC   GL220810  34.100  33.760   9.140
 1324POPC   C1A20811  33.742  34.094   8.999
 1324POPC   D2A20812  33.619  34.162   8.526
 1324POPC   C3A20813  33.812  34.129   8.107
 1324POPC   C4A20814  33.666  34.064   7.709
 1324POPC   C1B20815  33.841  33.650   8.766
 1324POPC   C2B20816  33.857  33.656   8.325
 1324POPC   C3B20817  33.589  33.612   7.968
 1324POPC   C4B20818  33.617  33.244   7.719
 1325POPC   NC320819  24.750  39.347   9.510
 1325POPC   PO420820  24.160  39.826   9.358
 1325POPC   GL120821  24.345  39.428   9.176
 1325POPC   GL220822  24.233  39.124   9.053
 1325POPC   C1A20823  24.600  39.352   8.772
 1325POPC   D2A20824  24.741  39.485   8.333
 1325POPC   C3A20825  24.540  39.217   8.012
 1325POPC   C4A20826  24.685  38.952   7.711
 1325POPC   C1B20827  24.264  38.861   8.702
 1325POPC   C2B20828  24.391  38.797   8.294
 1325POPC   C3B20829  24.223  38.786   7.875
 1325POPC   C4B20830  24.298  38.752   7.428
 1326POPC   NC320831  16.218  12.369   9.434
 1326POPC   PO420832  15.714  11.816   9.522
 1326POPC   GL120833  15.827  11.921   9.086
 1326POPC   GL220834  16.150  12.075   9.013
 1326POPC   C1A20835  15.762  12.096   8.659
 1326POPC   D2A20836  15.525  12.055   8.308
 1326POPC   C3A20837  15.771  12.157   7.948
 1326POPC   C4A20838  16.147  12.014   7.720
 1326POPC   C1B20839  16.289  12.162   8.628
 1326POPC   C2B20840  16.201  12.261   8.238
 1326POPC   C3B20841  15.979  12.589   8.146
 1326POPC   C4B20842  15.982  12.583   7.759
 1327POPC   NC320843  31.237   9.075   9.575
 1327POPC   PO420844  30.686   9.316   9.725
 1327POPC   GL120845  30.807   9.164   9.269
 1327POPC   GL220846  30.972   8.844   9.177
 1327POPC   C1A20847  30.730   9.172   8.792
 1327POPC   D2A20848  30.807   9.402   8.377
 1327POPC   C3A20849  30.700   9.163   7.998
 1327POPC   C4A20850  30.983   8.877   7.797
 1327POPC   C1B20851  31.224   9.099   8.871
 1327POPC   C2B20852  31.290   9.161   8.426
 1327POPC   C3B20853  31.195   9.334   8.019
 1327POPC   C4B20854  31.343   9.222   7.634
 1328POPC   NC320855  21.438   2.172   9.475
 1328POPC   PO420856  21.304   1.589   9.565
 1328POPC   GL120857  21.593   1.679   9.201
 1328POPC   GL220858  21.444   1.925   9.047
 1328POPC   C1A20859  21.726   1.633   8.749
 1328POPC   D2A20860  21.444   1.767   8.396
 1328POPC   C3A20861  21.578   1.833   7.983
 1328POPC   C4A20862  21.376   1.936   7.566
 1328POPC   C1B20863  21.266   2.130   8.731
 1328POPC   C2B20864  21.138   2.397   8.404
 1328POPC   C3B20865  21.240   2.258   8.004
 1328POPC   C4B20866  21.240   2.428   7.609
 1329POPC   NC320867   4.967  20.171   9.600
 1329POPC   PO420868   5.556  20.228   9.331
 1329POPC   GL120869   5.163  20.314   9.103
 1329POPC   GL220870   4.785  20.399   9.189
 1329POPC   C1A20871   5.168  20.335   8.658
 1329POPC   D2A20872   5.193  20.745   8.433
 1329POPC   C3A20873   5.033  20.946   8.047
 1329POPC   C4A20874   5.163  20.896   7.565
 1329POPC   C1B20875   4.567  20.349   8.821
 1329POPC   C2B20876   4.732  20.435   8.417
 1329POPC   C3B20877   5.077  20.335   8.141
 1329POPC   C4B20878   4.939  20.512   7.776
 1330POPC   NC320879  30.231  25.528   9.276
 1330POPC   PO420880  29.724  25.074   9.417
 1330POPC   GL120881  29.784  25.226   9.023
 1330POPC   GL220882  29.696  25.538   8.994
 1330POPC   C1A20883  29.518  25.244   8.624
 1330POPC   D2A20884  29.761  25.133   8.299
 1330POPC   C3A20885  29.813  25.256   7.897
 1330POPC   C4A20886  30.066  24.920   7.706
 1330POPC   C1B20887  29.957  25.515   8.637
 1330POPC   C2B20888  30.075  25.611   8.241
 1330POPC   C3B20889  30.340  25.554   7.920
 1330POPC   C4B20890  30.196  25.405   7.566
 1331POPC   NC320891  22.492  36.481   9.480
 1331POPC   PO420892  22.995  36.114   9.486
 1331POPC   GL120893  22.915  36.047   9.093
 1331POPC   GL220894  22.581  36.126   9.099
 1331POPC   C1A20895  22.919  35.839   8.714
 1331POPC   D2A20896  23.037  35.755   8.302
 1331POPC   C3A20897  22.878  36.097   8.064
 1331POPC   C4A20898  22.927  36.211   7.674
 1331POPC   C1B20899  22.354  35.953   8.774
 1331POPC   C2B20900  22.521  35.902   8.370
 1331POPC   C3B20901  22.439  35.900   7.927
 1331POPC   C4B20902  22.614  35.838   7.512
 1332POPC   NC320903  36.690  34.670   9.499
 1332POPC   PO420904  37.265  34.318   9.324
 1332POPC   GL120905  37.056  34.680   9.143
 1332POPC   GL220906  36.717  34.495   9.027
 1332POPC   C1A20907  36.928  34.863   8.764
 1332POPC   D2A20908  36.665  34.607   8.518
 1332POPC   C3A20909  36.865  34.522   8.144
 1332POPC   C4A20910  36.784  34.635   7.722
 1332POPC   C1B20911  37.067  34.373   8.731
 1332POPC   C2B20912  37.354  34.423   8.413
 1332POPC   C3B20913  37.260  34.200   8.041
 1332POPC   C4B20914  36.922  34.126   7.798
 1333POPC   NC320915  20.484  12.276   9.428
 1333POPC   PO420916  20.921  11.834   9.501
 1333POPC   GL120917  20.905  12.106   9.173
 1333POPC   GL220918  20.933  12.480   9.219
 1333POPC   C1A20919  20.767  12.001   8.800
 1333POPC   D2A20920  20.581  11.726   8.535
 1333POPC   C3A20921  20.706  11.833   8.137
 1333POPC   C4A20922  20.515  11.809   7.743
 1333POPC   C1B20923  20.629  12.505   8.849
 1333POPC   C2B20924  20.534  12.302   8.460
 1333POPC   C3B20925  20.545  12.337   8.019
 1333POPC   C4B20926  20.221  12.236   7.759
 1334POPC   NC320927   3.292   6.130   9.304
 1334POPC   PO420928   3.908   5.787   9.389
 1334POPC   GL120929   3.588   5.748   9.080
 1334POPC   GL220930   3.497   5.419   9.093
 1334POPC   C1A20931   3.356   5.835   8.684
 1334POPC   D2A20932   3.350   6.209   8.414
 1334POPC   C3A20933   3.424   6.025   8.016
 1334POPC   C4A20934   3.760   6.063   7.748
 1334POPC   C1B20935   3.857   5.415   8.789
 1334POPC   C2B20936   3.832   5.678   8.424
 1334POPC   C3B20937   3.727   5.596   8.024
 1334POPC   C4B20938   3.453   5.588   7.696
 1335POPC   NC320939  19.387  37.770   9.446
 1335POPC   PO420940  18.933  37.292   9.641
 1335POPC   GL120941  18.953  37.466   9.213
 1335POPC   GL220942  18.988  37.822   9.140
 1335POPC   C1A20943  18.803  37.500   8.781
 1335POPC   D2A20944  19.039  37.448   8.395
 1335POPC   C3A20945  18.900  37.674   8.056
 1335POPC   C4A20946  18.805  37.666   7.628
 1335POPC   C1B20947  19.244  37.750   8.760
 1335POPC   C2B20948  19.263  37.908   8.337
 1335POPC   C3B20949  19.387  37.787   7.926
 1335POPC   C4B20950  19.320  37.744   7.514
 1336POPC   NC320951  20.149  21.905   9.529
 1336POPC   PO420952  19.964  21.182   9.623
 1336POPC   GL120953  19.956  21.209   9.159
 1336POPC   GL220954  19.813  21.473   9.052
 1336POPC   C1A20955  19.836  21.069   8.731
 1336POPC   D2A20956  19.745  21.259   8.331
 1336POPC   C3A20957  19.931  21.222   7.940
 1336POPC   C4A20958  19.861  21.512   7.638
 1336POPC   C1B20959  20.010  21.564   8.658
 1336POPC   C2B20960  20.229  21.470   8.288
 1336POPC   C3B20961  20.326  21.564   7.841
 1336POPC   C4B20962  20.261  21.687   7.378
 1337POPC   NC320963  26.466  43.710   9.192
 1337POPC   PO420964  26.796  44.143   9.514
 1337POPC   GL120965  26.887  44.030   9.084
 1337POPC   GL220966  27.042  43.710   9.091
 1337POPC   C1A20967  26.647  44.147   8.692
 1337POPC   D2A20968  26.670  44.177   8.238
 1337POPC   C3A20969  26.940  43.844   8.111
 1337POPC   C4A20970  27.211  43.804   7.758
 1337POPC   C1B20971  26.896  43.691   8.648
 1337POPC   C2B20972  26.785  43.390   8.322
 1337POPC   C3B20973  26.534  43.449   7.963
 1337POPC   C4B20974  26.708  43.726   7.656
 1338POPC   NC320975  28.407  14.143   9.582
 1338POPC   PO420976  28.929  14.547   9.623
 1338POPC   GL120977  28.737  14.554   9.262
 1338POPC   GL220978  28.702  14.207   9.170
 1338POPC   C1A20979  28.453  14.559   8.907
 1338POPC   D2A20980  28.263  14.338   8.557
 1338POPC   C3A20981  28.304  14.611   8.189
 1338POPC   C4A20982  28.149  14.384   7.865
 1338POPC   C1B20983  28.772  14.072   8.778
 1338POPC   C2B20984  28.642  13.919   8.407
 1338POPC   C3B20985  28.532  14.162   8.105
 1338POPC   C4B20986  28.656  14.302   7.710
 1339POPC   NC320987  19.956  44.011   9.856
 1339POPC   PO420988  20.315  43.510   9.691
 1339POPC   GL120989  19.921  43.606   9.419
 1339POPC   GL220990  19.962  43.953   9.307
 1339POPC   C1A20991  19.743  43.674   8.964
 1339POPC   D2A20992  19.840  43.801   8.538
 1339POPC   C3A20993  19.901  43.516   8.179
 1339POPC   C4A20994  19.674  43.533   7.779
 1339POPC   C1B20995  20.161  44.054   8.880
 1339POPC   C2B20996  20.145  44.208   8.460
 1339POPC   C3B20997  19.901  44.060   8.094
 1339POPC   C4B20998  20.067  44.201   7.729
 1340POPC   NC320999  23.882  31.254   9.264
 1340POPC   PO421000  23.409  31.474   9.695
 1340POPC   GL121001  23.418  31.606   9.243
 1340POPC   GL221002  23.755  31.736   9.125
 1340POPC   C1A21003  23.185  31.765   8.876
 1340POPC   D2A21004  23.271  31.986   8.467
 1340POPC   C3A21005  23.504  31.702   8.183
 1340POPC   C4A21006  23.408  31.413   7.847
 1340POPC   C1B21007  24.032  31.625   8.731
 1340POPC   C2B21008  23.999  31.651   8.295
 1340POPC   C3B21009  23.898  31.400   7.958
 1340POPC   C4B21010  23.803  31.498   7.504
 1341POPC   NC321011   2.100  26.495   9.567
 1341POPC   PO421012   1.668  27.054   9.488
 1341POPC   GL121013   2.001  26.948   9.203
 1341POPC   GL221014   1.889  26.607   9.113
 1341POPC   C1A21015   2.223  26.856   8.805
 1341POPC   D2A21016   2.042  26.684   8.463
 1341POPC   C3A21017   2.222  26.818   8.092
 1341POPC   C4A21018   2.117  26.845   7.676
 1341POPC   C1B21019   1.627  26.583   8.756
 1341POPC   C2B21020   1.591  26.363   8.367
 1341POPC   C3B21021   1.841  26.505   7.992
 1341POPC   C4B21022   1.757  26.515   7.554
 1342POPC   NC321023  24.513  40.213   9.244
 1342POPC   PO421024  24.929  39.814   9.567
 1342POPC   GL121025  24.799  39.698   9.118
 1342POPC   GL221026  24.479  39.835   8.908
 1342POPC   C1A21027  24.942  39.815   8.700
 1342POPC   D2A21028  24.654  40.017   8.402
 1342POPC   C3A21029  24.719  40.110   7.973
 1342POPC   C4A21030  24.408  40.196   7.671
 1342POPC   C1B21031  24.264  39.670   8.516
 1342POPC   C2B21032  24.310  39.670   8.055
 1342POPC   C3B21033  24.668  39.663   7.760
 1342POPC   C4B21034  24.839  40.017   7.460
 1343POPC   NC321035  34.780  33.277   9.521
 1343POPC   PO421036  34.329  32.849   9.810
 1343POPC   GL121037  34.308  32.939   9.278
 1343POPC   GL221038  34.575  33.114   9.107
 1343POPC   C1A21039  34.353  32.812   8.794
 1343POPC   D2A21040  34.573  32.912   8.425
 1343POPC   C3A21041  34.394  32.877   8.031
 1343POPC   C4A21042  34.721  32.817   7.752
 1343POPC   C1B21043  34.698  33.321   8.745
 1343POPC   C2B21044  34.889  33.315   8.370
 1343POPC   C3B21045  34.687  33.300   7.983
 1343POPC   C4B21046  34.846  33.388   7.570
 1344POPC   NC321047  19.580  38.513   9.335
 1344POPC   PO421048  20.154  38.601   9.653
 1344POPC   GL121049  20.130  38.432   9.198
 1344POPC   GL221050  19.932  38.133   9.184
 1344POPC   C1A21051  20.028  38.362   8.725
 1344POPC   D2A21052  19.791  38.624   8.395
 1344POPC   C3A21053  19.862  38.655   7.917
 1344POPC   C4A21054  19.558  38.562   7.583
 1344POPC   C1B21055  19.607  38.086   8.864
 1344POPC   C2B21056  19.716  38.072   8.446
 1344POPC   C3B21057  19.609  38.236   8.050
 1344POPC   C4B21058  19.735  38.088   7.650
 1345POPC   NC321059  36.593  39.987   9.460
 1345POPC   PO421060  37.108  39.611   9.458
 1345POPC   GL121061  36.957  39.755   9.046
 1345POPC   GL221062  36.630  39.645   9.095
 1345POPC   C1A21063  36.991  39.946   8.592
 1345POPC   D2A21064  37.152  39.903   8.113
 1345POPC   C3A21065  36.999  40.168   7.727
 1345POPC   C4A21066  37.209  40.274   7.314
 1345POPC   C1B21067  36.527  39.985   8.820
 1345POPC   C2B21068  36.453  39.911   8.413
 1345POPC   C3B21069  36.644  39.948   8.050
 1345POPC   C4B21070  36.676  39.729   7.688
 1346POPC   NC321071   0.095  18.326   9.661
 1346POPC   PO421072   0.528  17.905   9.620
 1346POPC   GL121073   0.354  18.129   9.266
 1346POPC   GL221074   0.653  18.196   9.188
 1346POPC   C1A21075   0.311  18.418   8.874
 1346POPC   D2A21076   0.543  18.359   8.472
 1346POPC   C3A21077   0.357  18.402   8.068
 1346POPC   C4A21078   0.092  18.335   7.704
 1346POPC   C1B21079   0.772  18.013   8.836
 1346POPC   C2B21080   0.936  18.019   8.448
 1346POPC   C3B21081   0.813  18.122   8.046
 1346POPC   C4B21082   0.505  18.033   7.756
 1347POPC   NC321083   0.710  25.161   9.471
 1347POPC   PO421084   0.127  25.607   9.594
 1347POPC   GL121085   0.323  25.436   9.226
 1347POPC   GL221086   0.247  25.052   9.218
 1347POPC   C1A21087   0.416  25.318   8.801
 1347POPC   D2A21088   0.140  25.344   8.470
 1347POPC   C3A21089   0.361  25.396   8.102
 1347POPC   C4A21090   0.355  25.525   7.689
 1347POPC   C1B21091   0.057  24.924   8.821
 1347POPC   C2B21092  44.943  24.818   8.409
 1347POPC   C3B21093  44.941  25.091   8.068
 1347POPC   C4B21094   0.037  25.074   7.638
 1348POPC   NC321095  21.717  19.150   9.595
 1348POPC   PO421096  21.135  18.971   9.614
 1348POPC   GL121097  21.129  18.906   9.223
 1348POPC   GL221098  21.451  18.849   9.184
 1348POPC   C1A21099  21.000  19.132   8.866
 1348POPC   D2A21100  20.990  19.372   8.472
 1348POPC   C3A21101  21.149  19.187   8.088
 1348POPC   C4A21102  20.994  19.022   7.725
 1348POPC   C1B21103  21.737  18.882   8.878
 1348POPC   C2B21104  21.849  18.972   8.491
 1348POPC   C3B21105  21.658  18.934   8.121
 1348POPC   C4B21106  21.498  19.012   7.739
 1349POPC   NC321107  26.076   0.900   9.450
 1349POPC   PO421108  25.826   1.488   9.691
 1349POPC   GL121109  25.756   1.320   9.213
 1349POPC   GL221110  25.924   1.578   9.023
 1349POPC   C1A21111  25.905   1.109   8.804
 1349POPC   D2A21112  26.038   0.788   8.465
 1349POPC   C3A21113  26.024   0.965   8.041
 1349POPC   C4A21114  25.820   1.250   7.770
 1349POPC   C1B21115  26.283   1.409   8.702
 1349POPC   C2B21116  26.086   1.353   8.372
 1349POPC   C3B21117  26.185   1.526   8.018
 1349POPC   C4B21118  26.561   1.391   7.812
 1350POPC   NC321119  43.505  34.555   9.412
 1350POPC   PO421120  44.067  34.655   9.611
 1350POPC   GL121121  43.992  34.688   9.171
 1350POPC   GL221122  44.308  34.889   9.139
 1350POPC   C1A21123  43.709  34.680   8.769
 1350POPC   D2A21124  43.634  34.412   8.365
 1350POPC   C3A21125  43.699  34.663   7.955
 1350POPC   C4A21126  43.984  35.006   7.754
 1350POPC   C1B21127  44.263  34.666   8.743
 1350POPC   C2B21128  44.054  34.709   8.376
 1350POPC   C3B21129  44.224  34.642   8.014
 1350POPC   C4B21130  44.411  34.670   7.657
 1351POPC   NC321131  32.520  44.119   9.351
 1351POPC   PO421132  32.082  43.842   9.811
 1351POPC   GL121133  32.192  43.701   9.336
 1351POPC   GL221134  32.554  43.651   9.200
 1351POPC   C1A21135  32.190  43.792   8.851
 1351POPC   D2A21136  32.182  43.895   8.377
 1351POPC   C3A21137  31.928  43.764   8.032
 1351POPC   C4A21138  31.941  43.976   7.629
 1351POPC   C1B21139  32.469  43.363   8.851
 1351POPC   C2B21140  32.178  43.382   8.509
 1351POPC   C3B21141  32.265  43.363   8.097
 1351POPC   C4B21142  32.256  43.524   7.704
 1352POPC   NC321143  10.627  37.623   9.546
 1352POPC   PO421144  10.193  37.258   9.353
 1352POPC   GL121145  10.311  37.541   9.013
 1352POPC   GL221146  10.399  37.866   9.128
 1352POPC   C1A21147  10.402  37.659   8.584
 1352POPC   D2A21148  10.178  37.677   8.181
 1352POPC   C3A21149  10.490  37.568   7.879
 1352POPC   C4A21150  10.893  37.619   7.674
 1352POPC   C1B21151  10.143  38.033   8.796
 1352POPC   C2B21152  10.261  38.136   8.396
 1352POPC   C3B21153  10.454  38.076   7.985
 1352POPC   C4B21154  10.533  37.957   7.539
 1353POPC   NC321155  15.607   3.526   9.535
 1353POPC   PO421156  16.263   3.793   9.537
 1353POPC   GL121157  16.025   3.654   9.154
 1353POPC   GL221158  15.674   3.711   9.069
 1353POPC   C1A21159  16.220   3.520   8.764
 1353POPC   D2A21160  16.209   3.711   8.352
 1353POPC   C3A21161  16.245   3.391   8.023
 1353POPC   C4A21162  15.968   3.399   7.674
 1353POPC   C1B21163  15.725   3.548   8.630
 1353POPC   C2B21164  15.763   3.526   8.169
 1353POPC   C3B21165  15.664   3.795   7.810
 1353POPC   C4B21166  15.615   3.854   7.353
 1354POPC   NC321167  12.429  12.790   9.682
 1354POPC   PO421168  12.967  13.156   9.468
 1354POPC   GL121169  12.953  12.933   9.100
 1354POPC   GL221170  12.764  12.655   9.182
 1354POPC   C1A21171  12.774  12.903   8.683
 1354POPC   D2A21172  12.578  12.940   8.266
 1354POPC   C3A21173  12.826  13.088   7.890
 1354POPC   C4A21174  12.934  13.138   7.428
 1354POPC   C1B21175  12.593  12.432   8.840
 1354POPC   C2B21176  12.717  12.450   8.398
 1354POPC   C3B21177  12.827  12.579   7.973
 1354POPC   C4B21178  12.686  12.477   7.569
 1355POPC   NC321179  16.372  16.194   9.243
 1355POPC   PO421180  16.962  16.119   9.587
 1355POPC   GL121181  16.888  16.115   9.184
 1355POPC   GL221182  17.164  16.356   9.122
 1355POPC   C1A21183  16.755  15.867   8.816
 1355POPC   D2A21184  16.755  15.594   8.462
 1355POPC   C3A21185  16.807  15.686   8.048
 1355POPC   C4A21186  16.805  15.971   7.712
 1355POPC   C1B21187  16.981  16.337   8.720
 1355POPC   C2B21188  16.993  16.040   8.399
 1355POPC   C3B21189  17.187  16.013   8.046
 1355POPC   C4B21190  17.152  16.372   7.843
 1356POPC   NC321191  42.828   4.727   9.373
 1356POPC   PO421192  43.460   4.824   9.583
 1356POPC   GL121193  43.284   4.840   9.150
 1356POPC   GL221194  43.148   5.161   9.190
 1356POPC   C1A21195  43.015   4.883   8.734
 1356POPC   D2A21196  42.833   4.959   8.303
 1356POPC   C3A21197  43.015   4.784   7.914
 1356POPC   C4A21198  43.074   5.112   7.607
 1356POPC   C1B21199  43.392   5.246   8.798
 1356POPC   C2B21200  43.302   5.223   8.362
 1356POPC   C3B21201  43.408   5.335   7.920
 1356POPC   C4B21202  43.555   5.282   7.478
 1357POPC   NC321203   9.362  41.845   9.469
 1357POPC   PO421204   9.935  41.452   9.623
 1357POPC   GL121205   9.784  41.613   9.226
 1357POPC   GL221206   9.914  41.303   9.047
 1357POPC   C1A21207   9.628  41.609   8.784
 1357POPC   D2A21208   9.766  41.458   8.380
 1357POPC   C3A21209   9.813  41.669   7.991
 1357POPC   C4A21210   9.520  41.719   7.673
 1357POPC   C1B21211  10.069  41.115   8.633
 1357POPC   C2B21212   9.936  40.977   8.258
 1357POPC   C3B21213  10.032  41.220   7.936
 1357POPC   C4B21214   9.879  41.338   7.546
 1358POPC   NC321215  44.533  26.647   9.607
 1358POPC   PO421216  44.616  27.211   9.388
 1358POPC   GL121217  44.762  26.935   9.097
 1358POPC   GL221218  44.564  26.685   9.090
 1358POPC   C1A21219  44.900  26.812   8.690
 1358POPC   D2A21220   0.060  27.123   8.466
 1358POPC   C3A21221  44.981  26.966   8.094
 1358POPC   C4A21222  44.977  27.109   7.700
 1358POPC   C1B21223  44.435  26.654   8.676
 1358POPC   C2B21224  44.555  26.686   8.247
 1358POPC   C3B21225  44.607  26.738   7.806
 1358POPC   C4B21226  44.969  26.598   7.586
 1359POPC   NC321227  29.015  14.982   9.481
 1359POPC   PO421228  28.415  15.178   9.706
 1359POPC   GL121229  28.656  15.374   9.374
 1359POPC   GL221230  28.610  15.066   9.197
 1359POPC   C1A21231  28.639  15.500   8.929
 1359POPC   D2A21232  28.573  15.531   8.461
 1359POPC   C3A21233  28.244  15.288   8.190
 1359POPC   C4A21234  28.299  15.276   7.746
 1359POPC   C1B21235  28.759  14.999   8.798
 1359POPC   C2B21236  28.609  14.997   8.407
 1359POPC   C3B21237  28.703  15.104   8.003
 1359POPC   C4B21238  28.525  14.808   7.715
 1360POPC   NC321239  15.422  17.295   9.616
 1360POPC   PO421240  14.880  17.439   9.707
 1360POPC   GL121241  15.217  17.601   9.296
 1360POPC   GL221242  15.353  17.272   9.101
 1360POPC   C1A21243  15.471  17.703   8.869
 1360POPC   D2A21244  15.626  17.679   8.411
 1360POPC   C3A21245  15.413  17.415   8.084
 1360POPC   C4A21246  15.135  17.592   7.755
 1360POPC   C1B21247  15.289  17.284   8.609
 1360POPC   C2B21248  14.941  17.436   8.295
 1360POPC   C3B21249  14.783  17.255   7.879
 1360POPC   C4B21250  14.830  17.381   7.400
 1361POPC   NC321251  21.593  38.864   9.469
 1361POPC   PO421252  21.514  39.552   9.672
 1361POPC   GL121253  21.592  39.382   9.249
 1361POPC   GL221254  21.350  39.142   9.113
 1361POPC   C1A21255  21.612  39.478   8.802
 1361POPC   D2A21256  21.352  39.500   8.403
 1361POPC   C3A21257  21.220  39.142   8.164
 1361POPC   C4A21258  21.398  39.267   7.784
 1361POPC   C1B21259  21.605  38.971   8.781
 1361POPC   C2B21260  21.726  39.070   8.337
 1361POPC   C3B21261  21.702  38.897   7.908
 1361POPC   C4B21262  21.635  38.904   7.438
 1362POPC   NC321263   5.517  20.678   9.415
 1362POPC   PO421264   6.207  20.466   9.589
 1362POPC   GL121265   6.291  20.349   9.172
 1362POPC   GL221266   5.938  20.497   9.130
 1362POPC   C1A21267   6.170  20.343   8.726
 1362POPC   D2A21268   6.048  20.142   8.374
 1362POPC   C3A21269   6.073  20.430   8.027
 1362POPC   C4A21270   5.889  20.760   7.736
 1362POPC   C1B21271   5.694  20.628   8.746
 1362POPC   C2B21272   5.627  20.484   8.310
 1362POPC   C3B21273   5.442  20.664   7.954
 1362POPC   C4B21274   5.501  21.120   7.860
 1363POPC   NC321275  39.513  32.925   9.461
 1363POPC   PO421276  39.080  33.348   9.686
 1363POPC   GL121277  39.128  33.267   9.233
 1363POPC   GL221278  39.440  33.241   9.098
 1363POPC   C1A21279  38.991  33.018   8.844
 1363POPC   D2A21280  39.151  32.731   8.503
 1363POPC   C3A21281  39.021  32.829   8.098
 1363POPC   C4A21282  38.730  33.145   7.912
 1363POPC   C1B21283  39.509  32.974   8.777
 1363POPC   C2B21284  39.419  33.136   8.371
 1363POPC   C3B21285  39.414  33.094   7.946
 1363POPC   C4B21286  39.524  33.051   7.522
 1364POPC   NC321287  10.501  11.588   9.698
 1364POPC   PO421288  10.763  11.051   9.450
 1364POPC   GL121289  10.714  11.327   9.100
 1364POPC   GL221290  10.900  11.602   9.142
 1364POPC   C1A21291  10.554  11.363   8.664
 1364POPC   D2A21292  10.325  11.036   8.417
 1364POPC   C3A21293  10.307  11.037   7.956
 1364POPC   C4A21294  10.121  10.980   7.532
 1364POPC   C1B21295  10.948  11.693   8.706
 1364POPC   C2B21296  10.814  11.638   8.255
 1364POPC   C3B21297  10.563  11.488   7.898
 1364POPC   C4B21298  10.120  11.487   7.755
 1365POPC   NC321299  34.776  14.678   9.587
 1365POPC   PO421300  34.179  14.928   9.584
 1365POPC   GL121301  34.433  15.169   9.301
 1365POPC   GL221302  34.740  15.038   9.194
 1365POPC   C1A21303  34.467  15.193   8.818
 1365POPC   D2A21304  34.526  14.961   8.445
 1365POPC   C3A21305  34.628  15.209   8.124
 1365POPC   C4A21306  34.437  15.199   7.770
 1365POPC   C1B21307  34.975  15.126   8.812
 1365POPC   C2B21308  35.045  15.311   8.383
 1365POPC   C3B21309  35.142  15.379   7.939
 1365POPC   C4B21310  34.907  15.187   7.581
 1366POPC   NC321311  21.356  30.357   9.509
 1366POPC   PO421312  21.599  31.054   9.512
 1366POPC   GL121313  21.491  30.837   9.160
 1366POPC   GL221314  21.177  30.765   9.217
 1366POPC   C1A21315  21.397  30.841   8.728
 1366POPC   D2A21316  21.575  30.675   8.370
 1366POPC   C3A21317  21.369  30.825   8.019
 1366POPC   C4A21318  21.487  30.658   7.615
 1366POPC   C1B21319  21.129  30.445   8.898
 1366POPC   C2B21320  21.106  30.470   8.465
 1366POPC   C3B21321  21.335  30.331   8.084
 1366POPC   C4B21322  21.205  30.230   7.690
 1367POPC   NC321323   8.308  20.385   9.988
 1367POPC   PO421324   7.848  20.516   9.529
 1367POPC   GL121325   8.132  20.441   9.176
 1367POPC   GL221326   8.464  20.608   9.032
 1367POPC   C1A21327   8.144  20.234   8.809
 1367POPC   D2A21328   8.157  20.485   8.460
 1367POPC   C3A21329   8.207  20.388   8.077
 1367POPC   C4A21330   8.065  20.551   7.703
 1367POPC   C1B21331   8.543  20.766   8.606
 1367POPC   C2B21332   8.500  20.799   8.167
 1367POPC   C3B21333   8.415  20.896   7.763
 1367POPC   C4B21334   8.435  20.736   7.359
 1368POPC   NC321335  41.057  23.240   9.491
 1368POPC   PO421336  40.488  22.735   9.540
 1368POPC   GL121337  40.724  22.924   9.170
 1368POPC   GL221338  41.069  22.851   9.139
 1368POPC   C1A21339  40.658  23.029   8.732
 1368POPC   D2A21340  40.841  22.857   8.338
 1368POPC   C3A21341  40.638  23.022   8.014
 1368POPC   C4A21342  40.548  22.983   7.634
 1368POPC   C1B21343  41.168  22.906   8.728
 1368POPC   C2B21344  41.344  22.668   8.402
 1368POPC   C3B21345  41.194  22.576   8.019
 1368POPC   C4B21346  41.041  22.855   7.742
 1369POPC   NC321347  35.358  30.218   9.365
 1369POPC   PO421348  35.453  29.534   9.500
 1369POPC   GL121349  35.291  29.742   9.160
 1369POPC   GL221350  35.004  29.563   9.177
 1369POPC   C1A21351  35.288  29.925   8.764
 1369POPC   D2A21352  35.363  30.206   8.420
 1369POPC   C3A21353  35.641  29.983   8.187
 1369POPC   C4A21354  35.460  29.808   7.842
 1369POPC   C1B21355  35.036  29.439   8.746
 1369POPC   C2B21356  35.209  29.371   8.315
 1369POPC   C3B21357  35.086  29.440   7.907
 1369POPC   C4B21358  35.196  29.550   7.492
 1370POPC   NC321359  13.182  16.918   9.557
 1370POPC   PO421360  13.776  16.837   9.768
 1370POPC   GL121361  13.838  16.747   9.241
 1370POPC   GL221362  13.485  16.780   9.161
 1370POPC   C1A21363  13.815  16.838   8.774
 1370POPC   D2A21364  13.726  16.640   8.379
 1370POPC   C3A21365  13.768  16.874   7.999
 1370POPC   C4A21366  13.727  16.642   7.605
 1370POPC   C1B21367  13.369  16.549   8.770
 1370POPC   C2B21368  13.328  16.341   8.360
 1370POPC   C3B21369  13.380  16.532   7.957
 1370POPC   C4B21370  13.137  16.860   7.738
 1371POPC   NC321371  44.222  14.202   9.452
 1371POPC   PO421372  44.685  14.663   9.501
 1371POPC   GL121373  44.619  14.426   9.144
 1371POPC   GL221374  44.670  14.093   9.225
 1371POPC   C1A21375  44.847  14.306   8.766
 1371POPC   D2A21376  44.933  14.528   8.357
 1371POPC   C3A21377  44.676  14.450   8.026
 1371POPC   C4A21378  44.523  14.331   7.640
 1371POPC   C1B21379  44.443  13.974   8.832
 1371POPC   C2B21380  44.454  13.836   8.386
 1371POPC   C3B21381  44.609  13.935   7.960
 1371POPC   C4B21382  44.986  14.116   7.762
 1372POPC   NC321383   7.720  13.346   9.402
 1372POPC   PO421384   8.131  13.888   9.483
 1372POPC   GL121385   8.345  13.767   9.148
 1372POPC   GL221386   8.258  13.447   9.219
 1372POPC   C1A21387   8.260  13.914   8.760
 1372POPC   D2A21388   8.034  13.738   8.440
 1372POPC   C3A21389   8.187  13.750   8.051
 1372POPC   C4A21390   8.181  13.926   7.668
 1372POPC   C1B21391   8.141  13.381   8.807
 1372POPC   C2B21392   8.295  13.273   8.392
 1372POPC   C3B21393   8.116  13.259   7.956
 1372POPC   C4B21394   8.255  13.389   7.523
 1373POPC   NC321395  12.736  27.210   9.540
 1373POPC   PO421396  13.207  26.689   9.497
 1373POPC   GL121397  12.934  26.766   9.153
 1373POPC   GL221398  13.088  27.072   9.092
 1373POPC   C1A21399  12.685  26.640   8.764
 1373POPC   D2A21400  12.565  26.854   8.355
 1373POPC   C3A21401  12.641  26.690   7.966
 1373POPC   C4A21402  12.769  26.609   7.555
 1373POPC   C1B21403  13.098  26.908   8.661
 1373POPC   C2B21404  13.049  26.918   8.212
 1373POPC   C3B21405  13.151  26.582   7.930
 1373POPC   C4B21406  13.410  26.610   7.591
 1374POPC   NC321407   8.802  28.547   9.547
 1374POPC   PO421408   9.306  28.167   9.702
 1374POPC   GL121409   9.046  28.170   9.301
 1374POPC   GL221410   9.165  28.478   9.188
 1374POPC   C1A21411   8.877  28.288   8.857
 1374POPC   D2A21412   9.112  28.208   8.463
 1374POPC   C3A21413   9.084  28.412   8.043
 1374POPC   C4A21414   8.958  28.240   7.628
 1374POPC   C1B21415   9.172  28.702   8.819
 1374POPC   C2B21416   8.885  28.653   8.464
 1374POPC   C3B21417   8.706  28.781   8.104
 1374POPC   C4B21418   8.822  28.718   7.685
 1375POPC   NC321419  12.566   7.260   9.495
 1375POPC   PO421420  13.247   7.570   9.427
 1375POPC   GL121421  12.880   7.521   9.146
 1375POPC   GL221422  12.840   7.184   9.055
 1375POPC   C1A21423  12.644   7.595   8.791
 1375POPC   D2A21424  12.700   7.371   8.400
 1375POPC   C3A21425  12.790   7.559   8.038
 1375POPC   C4A21426  13.198   7.611   7.893
 1375POPC   C1B21427  12.467   7.118   8.792
 1375POPC   C2B21428  12.386   6.978   8.327
 1375POPC   C3B21429  12.524   7.152   7.887
 1375POPC   C4B21430  12.479   7.139   7.378
 1376POPC   NC321431  36.839  37.159   9.555
 1376POPC   PO421432  37.143  36.568   9.516
 1376POPC   GL121433  36.911  36.819   9.188
 1376POPC   GL221434  37.178  37.036   9.175
 1376POPC   C1A21435  36.615  36.830   8.822
 1376POPC   D2A21436  36.563  36.662   8.382
 1376POPC   C3A21437  36.860  36.853   8.072
 1376POPC   C4A21438  37.014  36.924   7.656
 1376POPC   C1B21439  37.051  37.107   8.735
 1376POPC   C2B21440  37.067  37.368   8.340
 1376POPC   C3B21441  36.890  37.382   7.889
 1376POPC   C4B21442  36.607  37.267   7.525
 1377POPC   NC321443  19.390  27.652   9.508
 1377POPC   PO421444  18.772  27.591   9.469
 1377POPC   GL121445  19.098  27.427   9.171
 1377POPC   GL221446  19.090  27.810   9.069
 1377POPC   C1A21447  19.252  27.470   8.733
 1377POPC   D2A21448  19.042  27.759   8.456
 1377POPC   C3A21449  19.127  27.784   7.999
 1377POPC   C4A21450  19.256  27.376   7.848
 1377POPC   C1B21451  18.745  27.541   8.845
 1377POPC   C2B21452  18.612  27.379   8.490
 1377POPC   C3B21453  18.849  27.337   8.169
 1377POPC   C4B21454  18.758  27.449   7.771
 1378POPC   NC321455  35.780  44.901   9.599
 1378POPC   PO421456  36.348  44.582   9.680
 1378POPC   GL121457  36.326  44.591   9.244
 1378POPC   GL221458  35.957  44.583   9.187
 1378POPC   C1A21459  36.330  44.754   8.828
 1378POPC   D2A21460  36.160  44.753   8.411
 1378POPC   C3A21461  36.383  44.488   8.143
 1378POPC   C4A21462  36.411  44.712   7.774
 1378POPC   C1B21463  35.777  44.571   8.760
 1378POPC   C2B21464  35.787  44.423   8.316
 1378POPC   C3B21465  35.942  44.502   7.902
 1378POPC   C4B21466  35.655  44.603   7.577
 1379POPC   NC321467  37.279  22.042   9.406
 1379POPC   PO421468  37.974  21.890   9.531
 1379POPC   GL121469  37.790  22.158   9.208
 1379POPC   GL221470  37.673  22.512   9.112
 1379POPC   C1A21471  37.738  22.129   8.784
 1379POPC   D2A21472  37.704  22.395   8.447
 1379POPC   C3A21473  37.830  22.186   8.087
 1379POPC   C4A21474  37.883  22.368   7.710
 1379POPC   C1B21475  37.307  22.401   8.794
 1379POPC   C2B21476  37.232  22.208   8.372
 1379POPC   C3B21477  37.409  22.407   7.987
 1379POPC   C4B21478  37.424  22.579   7.573
 1380POPC   NC321479   3.343  38.588   9.392
 1380POPC   PO421480   3.884  38.916   9.526
 1380POPC   GL121481   3.814  38.505   9.242
 1380POPC   GL221482   3.758  38.771   9.032
 1380POPC   C1A21483   3.553  38.340   8.832
 1380POPC   D2A21484   3.196  38.315   8.537
 1380POPC   C3A21485   3.189  38.398   8.062
 1380POPC   C4A21486   3.395  38.508   7.647
 1380POPC   C1B21487   4.021  38.535   8.771
 1380POPC   C2B21488   3.776  38.577   8.425
 1380POPC   C3B21489   3.716  38.473   8.032
 1380POPC   C4B21490   3.787  38.806   7.730
 1381POPC   NC321491  30.641  43.244   9.479
 1381POPC   PO421492  31.091  43.749   9.755
 1381POPC   GL121493  30.951  43.724   9.282
 1381POPC   GL221494  30.698  43.604   9.092
 1381POPC   C1A21495  31.058  43.863   8.848
 1381POPC   D2A21496  30.897  43.950   8.444
 1381POPC   C3A21497  30.972  44.006   8.016
 1381POPC   C4A21498  30.668  43.871   7.713
 1381POPC   C1B21499  30.532  43.826   8.758
 1381POPC   C2B21500  30.242  43.776   8.461
 1381POPC   C3B21501  30.297  43.841   8.052
 1381POPC   C4B21502  30.115  43.770   7.627
 1382POPC   NC321503  40.523  28.557   9.407
 1382POPC   PO421504  39.799  28.502   9.443
 1382POPC   GL121505  39.877  28.310   9.052
 1382POPC   GL221506  40.209  28.412   9.024
 1382POPC   C1A21507  39.903  28.335   8.583
 1382POPC   D2A21508  40.249  28.204   8.326
 1382POPC   C3A21509  40.279  28.242   7.891
 1382POPC   C4A21510  39.887  28.217   7.700
 1382POPC   C1B21511  40.028  28.770   8.813
 1382POPC   C2B21512  40.158  28.736   8.401
 1382POPC   C3B21513  39.928  28.592   8.055
 1382POPC   C4B21514  40.121  28.699   7.657
 1383POPC   NC321515  16.371  17.683   9.309
 1383POPC   PO421516  15.878  17.361   9.689
 1383POPC   GL121517  16.078  17.214   9.292
 1383POPC   GL221518  15.858  17.437   9.105
 1383POPC   C1A21519  16.107  17.098   8.825
 1383POPC   D2A21520  15.797  17.197   8.478
 1383POPC   C3A21521  15.927  17.382   8.080
 1383POPC   C4A21522  15.961  17.166   7.714
 1383POPC   C1B21523  16.062  17.592   8.700
 1383POPC   C2B21524  16.122  17.808   8.302
 1383POPC   C3B21525  15.853  17.919   7.959
 1383POPC   C4B21526  15.855  18.083   7.503
 1384POPC   NC321527  33.142  38.235   9.438
 1384POPC   PO421528  32.739  38.850   9.474
 1384POPC   GL121529  32.778  38.482   9.188
 1384POPC   GL221530  32.488  38.263   9.094
 1384POPC   C1A21531  33.059  38.504   8.810
 1384POPC   D2A21532  33.233  38.770   8.474
 1384POPC   C3A21533  33.127  38.558   8.079
 1384POPC   C4A21534  33.011  38.767   7.711
 1384POPC   C1B21535  32.693  38.162   8.745
 1384POPC   C2B21536  32.900  38.167   8.378
 1384POPC   C3B21537  32.710  38.186   8.019
 1384POPC   C4B21538  32.802  38.297   7.608
 1385POPC   NC321539  30.662  33.821   9.638
 1385POPC   PO421540  30.883  34.388   9.672
 1385POPC   GL121541  30.807  34.068   9.220
 1385POPC   GL221542  30.527  33.801   9.150
 1385POPC   C1A21543  30.872  33.790   8.791
 1385POPC   D2A21544  31.083  33.729   8.366
 1385POPC   C3A21545  30.995  34.042   8.021
 1385POPC   C4A21546  30.856  34.080   7.600
 1385POPC   C1B21547  30.310  33.685   8.745
 1385POPC   C2B21548  30.165  33.805   8.324
 1385POPC   C3B21549  30.221  33.624   7.920
 1385POPC   C4B21550  30.359  33.649   7.446
 1386POPC   NC321551  41.951  44.597   9.378
 1386POPC   PO421552  42.546  44.940   9.397
 1386POPC   GL121553  42.404  44.622   9.112
 1386POPC   GL221554  42.152  44.767   8.956
 1386POPC   C1A21555  42.477  44.345   8.766
 1386POPC   D2A21556  42.706  44.428   8.375
 1386POPC   C3A21557  42.531  44.353   7.954
 1386POPC   C4A21558  42.107  44.401   7.740
 1386POPC   C1B21559  42.385  44.820   8.599
 1386POPC   C2B21560  42.165  44.620   8.251
 1386POPC   C3B21561  42.045  44.876   7.910
 1386POPC   C4B21562  42.471   0.009   7.811
 1387POPC   NC321563  41.283   0.645   9.462
 1387POPC   PO421564  40.561   0.596   9.599
 1387POPC   GL121565  40.780   0.406   9.154
 1387POPC   GL221566  40.869   0.001   9.105
 1387POPC   C1A21567  40.587   0.443   8.738
 1387POPC   D2A21568  40.481   0.729   8.401
 1387POPC   C3A21569  40.515   0.503   8.038
 1387POPC   C4A21570  40.624   0.682   7.652
 1387POPC   C1B21571  41.042   0.156   8.736
 1387POPC   C2B21572  40.981   0.485   8.420
 1387POPC   C3B21573  41.010   0.590   7.996
 1387POPC   C4B21574  41.099   0.263   7.722
 1388POPC   NC321575  12.564  42.391   9.437
 1388POPC   PO421576  13.029  42.129   9.829
 1388POPC   GL121577  13.022  42.081   9.244
 1388POPC   GL221578  12.733  42.053   9.099
 1388POPC   C1A21579  13.120  42.312   8.799
 1388POPC   D2A21580  13.193  42.225   8.361
 1388POPC   C3A21581  13.009  42.275   7.919
 1388POPC   C4A21582  12.680  42.161   7.565
 1388POPC   C1B21583  12.609  42.330   8.744
 1388POPC   C2B21584  12.718  42.450   8.315
 1388POPC   C3B21585  12.584  42.583   7.892
 1388POPC   C4B21586  12.534  42.782   7.498
 1389POPC   NC321587  16.512   9.993   9.458
 1389POPC   PO421588  17.164   9.796   9.523
 1389POPC   GL121589  16.875   9.790   9.160
 1389POPC   GL221590  16.703   9.525   9.091
 1389POPC   C1A21591  16.703   9.864   8.737
 1389POPC   D2A21592  16.860  10.135   8.430
 1389POPC   C3A21593  16.814   9.996   8.041
 1389POPC   C4A21594  16.634   9.828   7.723
 1389POPC   C1B21595  16.532   9.348   8.762
 1389POPC   C2B21596  16.435   9.220   8.360
 1389POPC   C3B21597  16.422   9.456   7.979
 1389POPC   C4B21598  16.566   9.362   7.549
 1390POPC   NC321599  22.378   2.288   9.545
 1390POPC   PO421600  22.086   1.660   9.509
 1390POPC   GL121601  22.074   1.842   9.109
 1390POPC   GL221602  21.925   2.148   9.199
 1390POPC   C1A21603  22.241   1.643   8.727
 1390POPC   D2A21604  22.630   1.617   8.480
 1390POPC   C3A21605  22.449   1.818   8.114
 1390POPC   C4A21606  22.070   1.657   7.896
 1390POPC   C1B21607  21.806   2.132   8.747
 1390POPC   C2B21608  21.967   1.932   8.361
 1390POPC   C3B21609  22.042   2.147   7.972
 1390POPC   C4B21610  21.716   2.261   7.742
 1391POPC   NC321611  43.635  27.330   9.607
 1391POPC   PO421612  44.115  27.814   9.604
 1391POPC   GL121613  43.886  27.627   9.240
 1391POPC   GL221614  43.704  27.878   9.027
 1391POPC   C1A21615  43.665  27.392   8.885
 1391POPC   D2A21616  43.610  27.556   8.459
 1391POPC   C3A21617  43.800  27.387   8.070
 1391POPC   C4A21618  43.792  27.180   7.662
 1391POPC   C1B21619  44.055  27.718   8.759
 1391POPC   C2B21620  44.182  27.584   8.348
 1391POPC   C3B21621  44.183  27.677   7.910
 1391POPC   C4B21622  43.842  27.866   7.702
 1392POPC   NC321623   4.418  27.696   9.489
 1392POPC   PO421624   3.795  27.682   9.476
 1392POPC   GL121625   4.073  27.812   9.138
 1392POPC   GL221626   4.058  28.157   9.183
 1392POPC   C1A21627   4.147  27.597   8.728
 1392POPC   D2A21628   3.933  27.414   8.338
 1392POPC   C3A21629   4.168  27.421   7.940
 1392POPC   C4A21630   4.419  27.398   7.535
 1392POPC   C1B21631   4.091  28.105   8.718
 1392POPC   C2B21632   4.111  27.886   8.299
 1392POPC   C3B21633   4.360  27.882   7.919
 1392POPC   C4B21634   4.202  27.849   7.493
 1393POPC   NC321635  31.974   9.750   9.597
 1393POPC   PO421636  32.649   9.561   9.621
 1393POPC   GL121637  32.540   9.701   9.227
 1393POPC   GL221638  32.332   9.986   9.302
 1393POPC   C1A21639  32.466   9.584   8.782
 1393POPC   D2A21640  32.192   9.559   8.419
 1393POPC   C3A21641  32.416   9.616   8.078
 1393POPC   C4A21642  32.349   9.432   7.706
 1393POPC   C1B21643  32.446  10.080   8.900
 1393POPC   C2B21644  32.357  10.063   8.483
 1393POPC   C3B21645  32.346  10.140   8.062
 1393POPC   C4B21646  32.363   9.934   7.675
 1394POPC   NC321647  39.134   5.923   9.643
 1394POPC   PO421648  39.647   5.512   9.387
 1394POPC   GL121649  39.302   5.791   9.150
 1394POPC   GL221650  38.999   5.990   9.164
 1394POPC   C1A21651  39.286   5.994   8.710
 1394POPC   D2A21652  39.231   5.622   8.394
 1394POPC   C3A21653  39.358   5.627   7.961
 1394POPC   C4A21654  39.303   5.995   7.627
 1394POPC   C1B21655  38.878   5.738   8.823
 1394POPC   C2B21656  38.758   5.839   8.414
 1394POPC   C3B21657  38.998   5.982   8.074
 1394POPC   C4B21658  38.806   5.933   7.692
 1395POPC   NC321659   1.317  42.577   9.710
 1395POPC   PO421660   1.355  41.990   9.346
 1395POPC   GL121661   1.029  42.114   9.095
 1395POPC   GL221662   0.735  42.301   9.234
 1395POPC   C1A21663   1.101  42.332   8.742
 1395POPC   D2A21664   1.300  42.290   8.428
 1395POPC   C3A21665   1.338  42.543   8.109
 1395POPC   C4A21666   1.571  42.523   7.779
 1395POPC   C1B21667   0.614  42.205   8.812
 1395POPC   C2B21668   0.837  42.024   8.431
 1395POPC   C3B21669   1.012  42.159   8.038
 1395POPC   C4B21670   0.988  42.383   7.655
 1396POPC   NC321671  29.786  43.761   9.423
 1396POPC   PO421672  30.455  43.664   9.504
 1396POPC   GL121673  30.207  43.782   9.124
 1396POPC   GL221674  30.089  44.094   9.165
 1396POPC   C1A21675  29.906  43.582   8.808
 1396POPC   D2A21676  29.595  43.726   8.481
 1396POPC   C3A21677  29.802  43.735   8.088
 1396POPC   C4A21678  29.629  43.597   7.697
 1396POPC   C1B21679  29.874  44.091   8.745
 1396POPC   C2B21680  30.021  44.228   8.328
 1396POPC   C3B21681  29.963  44.193   7.900
 1396POPC   C4B21682  30.121  44.252   7.472
 1397POPC   NC321683  33.620   7.000   9.806
 1397POPC   PO421684  33.863   6.410   9.740
 1397POPC   GL121685  34.012   6.606   9.360
 1397POPC   GL221686  33.782   6.861   9.267
 1397POPC   C1A21687  33.989   6.522   8.899
 1397POPC   D2A21688  33.747   6.675   8.529
 1397POPC   C3A21689  33.867   6.597   8.106
 1397POPC   C4A21690  33.716   6.636   7.677
 1397POPC   C1B21691  33.944   7.029   8.870
 1397POPC   C2B21692  33.864   7.171   8.456
 1397POPC   C3B21693  33.687   7.067   8.070
 1397POPC   C4B21694  33.941   7.093   7.733
 1398POPC   NC321695  13.377   4.610   9.556
 1398POPC   PO421696  14.044   4.759   9.495
 1398POPC   GL121697  13.944   4.486   9.126
 1398POPC   GL221698  13.589   4.458   9.108
 1398POPC   C1A21699  13.849   4.408   8.649
 1398POPC   D2A21700  13.785   4.619   8.249
 1398POPC   C3A21701  13.889   4.279   7.992
 1398POPC   C4A21702  13.779   4.142   7.590
 1398POPC   C1B21703  13.345   4.313   8.762
 1398POPC   C2B21704  13.442   4.189   8.323
 1398POPC   C3B21705  13.388   4.288   7.883
 1398POPC   C4B21706  13.399   4.454   7.434
 1399POPC   NC321707  18.379  31.710   9.378
 1399POPC   PO421708  18.387  32.401   9.510
 1399POPC   GL121709  18.175  32.188   9.210
 1399POPC   GL221710  17.914  31.907   9.312
 1399POPC   C1A21711  18.341  32.308   8.820
 1399POPC   D2A21712  18.466  32.419   8.405
 1399POPC   C3A21713  18.483  32.099   8.105
 1399POPC   C4A21714  18.512  32.270   7.702
 1399POPC   C1B21715  17.931  31.933   8.843
 1399POPC   C2B21716  18.091  32.065   8.437
 1399POPC   C3B21717  18.006  32.213   8.000
 1399POPC   C4B21718  18.037  32.136   7.536
 1400POPC   NC321719   7.902  12.186   9.515
 1400POPC   PO421720   8.391  11.637   9.522
 1400POPC   GL121721   8.342  12.032   9.210
 1400POPC   GL221722   8.235  12.420   9.215
 1400POPC   C1A21723   8.265  12.034   8.747
 1400POPC   D2A21724   8.125  11.749   8.411
 1400POPC   C3A21725   8.142  11.937   8.019
 1400POPC   C4A21726   8.416  12.023   7.669
 1400POPC   C1B21727   8.411  12.535   8.823
 1400POPC   C2B21728   8.283  12.451   8.382
 1400POPC   C3B21729   8.286  12.443   7.929
 1400POPC   C4B21730   8.296  12.477   7.453
 1401POPC   NC321731   9.773  26.022   9.645
 1401POPC   PO421732   9.440  25.615   9.521
 1401POPC   GL121733   9.791  25.694   9.224
 1401POPC   GL221734   9.762  26.040   9.116
 1401POPC   C1A21735   9.904  25.680   8.786
 1401POPC   D2A21736   9.915  26.010   8.476
 1401POPC   C3A21737   9.928  25.913   8.072
 1401POPC   C4A21738   9.613  26.149   7.813
 1401POPC   C1B21739   9.472  25.921   8.733
 1401POPC   C2B21740   9.527  25.701   8.289
 1401POPC   C3B21741   9.560  25.643   7.792
 1401POPC   C4B21742   9.670  25.566   7.326
 1402POPC   NC321743  42.451  35.793   9.308
 1402POPC   PO421744  42.111  36.319   9.576
 1402POPC   GL121745  42.370  36.309   9.176
 1402POPC   GL221746  42.138  36.361   8.934
 1402POPC   C1A21747  42.557  36.168   8.736
 1402POPC   D2A21748  42.319  36.153   8.335
 1402POPC   C3A21749  42.503  35.896   8.016
 1402POPC   C4A21750  42.627  35.927   7.589
 1402POPC   C1B21751  42.095  35.932   8.768
 1402POPC   C2B21752  41.919  35.815   8.386
 1402POPC   C3B21753  41.946  35.958   8.004
 1402POPC   C4B21754  42.123  35.857   7.640
 1403POPC   NC321755   8.774  19.085   9.509
 1403POPC   PO421756   8.641  18.554   9.197
 1403POPC   GL121757   8.962  18.766   9.004
 1403POPC   GL221758   9.097  19.124   9.110
 1403POPC   C1A21759   8.851  18.672   8.563
 1403POPC   D2A21760   8.712  18.981   8.269
 1403POPC   C3A21761   8.879  18.980   7.907
 1403POPC   C4A21762   8.782  18.938   7.493
 1403POPC   C1B21763   8.974  19.146   8.679
 1403POPC   C2B21764   9.028  19.380   8.333
 1403POPC   C3B21765   8.995  19.472   7.935
 1403POPC   C4B21766   9.241  19.254   7.679
 1404POPC   NC321767   7.980  29.344   9.590
 1404POPC   PO421768   8.447  28.858   9.569
 1404POPC   GL121769   8.220  28.874   9.168
 1404POPC   GL221770   8.018  29.158   9.125
 1404POPC   C1A21771   8.284  29.027   8.721
 1404POPC   D2A21772   8.111  29.271   8.390
 1404POPC   C3A21773   8.247  29.067   8.065
 1404POPC   C4A21774   8.405  29.001   7.681
 1404POPC   C1B21775   7.772  29.079   8.747
 1404POPC   C2B21776   7.705  28.923   8.307
 1404POPC   C3B21777   7.830  28.884   7.872
 1404POPC   C4B21778   7.939  29.245   7.663
 1405POPC   NC321779  21.756  42.740   9.515
 1405POPC   PO421780  22.351  42.574   9.428
 1405POPC   GL121781  22.049  42.516   9.146
 1405POPC   GL221782  22.140  42.176   9.105
 1405POPC   C1A21783  22.097  42.618   8.742
 1405POPC   D2A21784  22.045  42.429   8.352
 1405POPC   C3A21785  22.411  42.446   8.116
 1405POPC   C4A21786  22.492  42.658   7.740
 1405POPC   C1B21787  22.001  41.907   8.797
 1405POPC   C2B21788  21.992  41.924   8.366
 1405POPC   C3B21789  22.020  42.103   7.965
 1405POPC   C4B21790  21.731  41.946   7.718
 1406POPC   NC321791  26.467   3.690   9.520
 1406POPC   PO421792  27.101   3.406   9.578
 1406POPC   GL121793  26.835   3.464   9.216
 1406POPC   GL221794  26.880   3.814   9.228
 1406POPC   C1A21795  26.729   3.289   8.785
 1406POPC   D2A21796  26.977   3.158   8.431
 1406POPC   C3A21797  26.767   3.197   8.031
 1406POPC   C4A21798  26.386   3.305   7.785
 1406POPC   C1B21799  26.813   3.787   8.784
 1406POPC   C2B21800  26.657   3.604   8.385
 1406POPC   C3B21801  26.746   3.724   7.971
 1406POPC   C4B21802  26.653   3.721   7.558
 1407POPC   NC321803  23.370   5.482   9.386
 1407POPC   PO421804  23.033   6.001   9.634
 1407POPC   GL121805  23.033   5.875   9.247
 1407POPC   GL221806  23.315   6.094   9.172
 1407POPC   C1A21807  22.794   5.756   8.898
 1407POPC   D2A21808  22.896   5.883   8.472
 1407POPC   C3A21809  22.782   5.728   8.093
 1407POPC   C4A21810  22.698   5.857   7.705
 1407POPC   C1B21811  23.282   5.830   8.806
 1407POPC   C2B21812  23.406   5.924   8.420
 1407POPC   C3B21813  23.240   5.982   8.034
 1407POPC   C4B21814  23.182   5.641   7.762
 1408POPC   NC321815  31.189  41.700   9.420
 1408POPC   PO421816  31.851  41.383   9.438
 1408POPC   GL121817  31.644  41.619   9.129
 1408POPC   GL221818  31.888  41.840   9.008
 1408POPC   C1A21819  31.345  41.614   8.764
 1408POPC   D2A21820  31.209  41.377   8.373
 1408POPC   C3A21821  31.371  41.466   7.960
 1408POPC   C4A21822  31.203  41.420   7.548
 1408POPC   C1B21823  31.846  41.659   8.646
 1408POPC   C2B21824  31.585  41.756   8.324
 1408POPC   C3B21825  31.533  41.966   7.955
 1408POPC   C4B21826  31.496  41.867   7.519
 1409POPC   NC321827   9.009   9.726   9.587
 1409POPC   PO421828   8.356   9.895   9.585
 1409POPC   GL121829   8.689   9.897   9.205
 1409POPC   GL221830   9.061  10.010   9.156
 1409POPC   C1A21831   8.902   9.705   8.799
 1409POPC   D2A21832   9.089   9.937   8.447
 1409POPC   C3A21833   9.236   9.690   8.120
 1409POPC   C4A21834   9.097   9.554   7.771
 1409POPC   C1B21835   8.761  10.206   8.796
 1409POPC   C2B21836   8.616  10.153   8.339
 1409POPC   C3B21837   8.843   9.982   7.978
 1409POPC   C4B21838   8.710   9.811   7.587
 1410POPC   NC321839  14.762  43.124   9.545
 1410POPC   PO421840  14.215  42.971   9.769
 1410POPC   GL121841  14.342  42.972   9.277
 1410POPC   GL221842  14.177  43.215   9.093
 1410POPC   C1A21843  14.467  42.874   8.823
 1410POPC   D2A21844  14.734  42.998   8.471
 1410POPC   C3A21845  14.587  42.854   8.055
 1410POPC   C4A21846  14.400  42.775   7.642
 1410POPC   C1B21847  14.450  43.368   8.731
 1410POPC   C2B21848  14.375  43.307   8.281
 1410POPC   C3B21849  14.564  43.321   7.882
 1410POPC   C4B21850  14.427  43.261   7.484
 1411POPC   NC321851  22.663   8.928   9.551
 1411POPC   PO421852  23.246   8.568   9.555
 1411POPC   GL121853  22.970   8.672   9.190
 1411POPC   GL221854  22.865   9.009   9.107
 1411POPC   C1A21855  22.841   8.686   8.742
 1411POPC   D2A21856  22.974   8.977   8.440
 1411POPC   C3A21857  22.962   8.935   8.024
 1411POPC   C4A21858  22.997   8.651   7.701
 1411POPC   C1B21859  22.687   9.262   8.757
 1411POPC   C2B21860  22.911   9.492   8.431
 1411POPC   C3B21861  23.068   9.443   8.054
 1411POPC   C4B21862  22.955   9.319   7.672
 1412POPC   NC321863  11.911  13.906   9.610
 1412POPC   PO421864  11.621  13.285   9.352
 1412POPC   GL121865  11.880  13.626   9.199
 1412POPC   GL221866  11.654  13.822   9.101
 1412POPC   C1A21867  12.208  13.663   8.860
 1412POPC   D2A21868  12.483  13.391   8.601
 1412POPC   C3A21869  12.417  13.421   8.147
 1412POPC   C4A21870  12.183  13.241   7.796
 1412POPC   C1B21871  11.701  13.540   8.750
 1412POPC   C2B21872  11.918  13.541   8.366
 1412POPC   C3B21873  11.813  13.595   7.935
 1412POPC   C4B21874  12.159  13.748   7.686
 1413POPC   NC321875  42.536  22.616   9.548
 1413POPC   PO421876  42.213  22.007   9.583
 1413POPC   GL121877  42.111  22.283   9.246
 1413POPC   GL221878  41.941  22.603   9.335
 1413POPC   C1A21879  42.202  22.138   8.834
 1413POPC   D2A21880  42.533  22.055   8.533
 1413POPC   C3A21881  42.285  22.118   8.179
 1413POPC   C4A21882  42.340  22.196   7.762
 1413POPC   C1B21883  42.151  22.689   8.918
 1413POPC   C2B21884  42.362  22.535   8.529
 1413POPC   C3B21885  42.484  22.584   8.098
 1413POPC   C4B21886  42.504  22.736   7.693
 1414POPC   NC321887  25.078  13.857   9.397
 1414POPC   PO421888  25.613  13.394   9.395
 1414POPC   GL121889  25.417  13.631   9.089
 1414POPC   GL221890  25.111  13.468   9.024
 1414POPC   C1A21891  25.494  13.868   8.731
 1414POPC   D2A21892  25.499  13.744   8.320
 1414POPC   C3A21893  25.155  13.680   8.034
 1414POPC   C4A21894  25.120  13.670   7.569
 1414POPC   C1B21895  25.387  13.366   8.642
 1414POPC   C2B21896  25.387  13.243   8.191
 1414POPC   C3B21897  25.435  12.983   7.805
 1414POPC   C4B21898  25.420  13.165   7.348
 1415POPC   NC321899   8.342   1.738   9.398
 1415POPC   PO421900   7.977   2.247   9.637
 1415POPC   GL121901   7.957   2.046   9.196
 1415POPC   GL221902   7.800   1.720   9.227
 1415POPC   C1A21903   8.168   2.035   8.753
 1415POPC   D2A21904   8.275   2.000   8.292
 1415POPC   C3A21905   8.333   2.220   7.868
 1415POPC   C4A21906   8.303   2.208   7.389
 1415POPC   C1B21907   7.727   1.804   8.784
 1415POPC   C2B21908   7.656   1.811   8.362
 1415POPC   C3B21909   7.895   1.830   7.983
 1415POPC   C4B21910   7.885   2.083   7.652
 1416POPC   NC321911  27.293  35.384   9.485
 1416POPC   PO421912  27.885  35.746   9.506
 1416POPC   GL121913  27.713  35.547   9.103
 1416POPC   GL221914  27.507  35.266   9.058
 1416POPC   C1A21915  27.672  35.463   8.638
 1416POPC   D2A21916  27.432  35.622   8.339
 1416POPC   C3A21917  27.564  35.412   8.001
 1416POPC   C4A21918  27.658  35.539   7.596
 1416POPC   C1B21919  27.233  35.212   8.717
 1416POPC   C2B21920  27.236  35.032   8.328
 1416POPC   C3B21921  27.365  34.927   7.907
 1416POPC   C4B21922  27.802  34.934   7.765
 1417POPC   NC321923  36.120  27.754   9.503
 1417POPC   PO421924  36.496  27.245   9.529
 1417POPC   GL121925  36.353  27.461   9.149
 1417POPC   GL221926  35.966  27.441   9.111
 1417POPC   C1A21927  36.258  27.590   8.729
 1417POPC   D2A21928  36.054  27.511   8.346
 1417POPC   C3A21929  36.271  27.556   7.965
 1417POPC   C4A21930  36.153  27.657   7.572
 1417POPC   C1B21931  35.722  27.609   8.723
 1417POPC   C2B21932  35.555  27.544   8.278
 1417POPC   C3B21933  35.775  27.511   7.892
 1417POPC   C4B21934  35.656  27.674   7.470
 1418POPC   NC321935  24.739   3.163   9.440
 1418POPC   PO421936  24.466   3.827   9.601
 1418POPC   GL121937  24.503   3.655   9.177
 1418POPC   GL221938  24.397   3.308   9.093
 1418POPC   C1A21939  24.596   3.647   8.734
 1418POPC   D2A21940  24.897   3.557   8.411
 1418POPC   C3A21941  24.722   3.655   8.018
 1418POPC   C4A21942  24.748   3.445   7.662
 1418POPC   C1B21943  24.274   3.212   8.704
 1418POPC   C2B21944  24.479   3.242   8.309
 1418POPC   C3B21945  24.294   3.409   7.970
 1418POPC   C4B21946  24.201   3.813   7.758
 1419POPC   NC321947  41.409  30.471   9.542
 1419POPC   PO421948  42.035  30.719   9.368
 1419POPC   GL121949  41.651  30.821   9.233
 1419POPC   GL221950  41.668  30.506   9.090
 1419POPC   C1A21951  41.554  30.896   8.786
 1419POPC   D2A21952  41.783  31.025   8.386
 1419POPC   C3A21953  41.576  30.911   7.983
 1419POPC   C4A21954  41.375  30.823   7.556
 1419POPC   C1B21955  41.421  30.410   8.735
 1419POPC   C2B21956  41.445  30.213   8.356
 1419POPC   C3B21957  41.288  30.336   7.978
 1419POPC   C4B21958  41.640  30.436   7.807
 1420POPC   NC321959  41.153  44.081   9.521
 1420POPC   PO421960  40.591  43.734   9.504
 1420POPC   GL121961  40.725  43.944   9.133
 1420POPC   GL221962  41.052  43.804   9.122
 1420POPC   C1A21963  40.667  44.111   8.686
 1420POPC   D2A21964  40.571  43.956   8.242
 1420POPC   C3A21965  40.871  44.014   7.899
 1420POPC   C4A21966  40.906  44.314   7.535
 1420POPC   C1B21967  41.157  44.007   8.741
 1420POPC   C2B21968  41.111  43.891   8.346
 1420POPC   C3B21969  41.204  43.601   8.014
 1420POPC   C4B21970  41.013  43.551   7.622
 1421POPC   NC321971  41.445  28.930   9.509
 1421POPC   PO421972  41.603  28.303   9.495
 1421POPC   GL121973  41.687  28.424   9.125
 1421POPC   GL221974  41.384  28.574   9.077
 1421POPC   C1A21975  41.641  28.160   8.765
 1421POPC   D2A21976  41.523  28.183   8.361
 1421POPC   C3A21977  41.816  28.213   8.044
 1421POPC   C4A21978  41.720  28.294   7.655
 1421POPC   C1B21979  41.559  28.650   8.646
 1421POPC   C2B21980  41.682  28.670   8.208
 1421POPC   C3B21981  41.575  28.773   7.795
 1421POPC   C4B21982  41.118  28.758   7.669
 1422POPC   NC321983  36.176  11.308   9.770
 1422POPC   PO421984  36.908  11.329   9.837
 1422POPC   GL121985  36.853  11.272   9.349
 1422POPC   GL221986  37.137  11.099   9.217
 1422POPC   C1A21987  36.745  11.422   8.915
 1422POPC   D2A21988  36.989  11.544   8.544
 1422POPC   C3A21989  36.987  11.309   8.186
 1422POPC   C4A21990  36.974  11.323   7.744
 1422POPC   C1B21991  37.059  11.020   8.776
 1422POPC   C2B21992  37.272  10.947   8.366
 1422POPC   C3B21993  37.129  10.871   7.939
 1422POPC   C4B21994  37.249  10.987   7.496
 1423POPC   NC321995  29.570  26.299   9.460
 1423POPC   PO421996  29.037  25.799   9.476
 1423POPC   GL121997  29.165  26.060   9.182
 1423POPC   GL221998  29.485  26.001   9.058
 1423POPC   C1A21999  29.141  26.222   8.762
 1423POPC   D2A22000  29.129  25.984   8.392
 1423POPC   C3A22001  29.151  26.182   8.033
 1423POPC   C4A22002  29.062  26.066   7.645
 1423POPC   C1B22003  29.562  25.843   8.628
 1423POPC   C2B22004  29.566  25.624   8.256
 1423POPC   C3B22005  29.344  25.697   7.889
 1423POPC   C4B22006  29.435  25.774   7.463
 1424POPC   NC322007  28.794  26.210   9.555
 1424POPC   PO422008  28.164  26.243   9.518
 1424POPC   GL122009  28.198  26.180   9.098
 1424POPC   GL222010  28.206  25.845   9.136
 1424POPC   C1A22011  28.277  26.301   8.659
 1424POPC   D2A22012  28.682  26.296   8.400
 1424POPC   C3A22013  28.623  26.204   7.963
 1424POPC   C4A22014  28.246  26.148   7.741
 1424POPC   C1B22015  28.107  25.690   8.757
 1424POPC   C2B22016  27.999  25.863   8.357
 1424POPC   C3B22017  28.295  25.765   8.068
 1424POPC   C4B22018  28.643  25.724   7.796
 1425POPC   NC322019  34.602  11.607   9.350
 1425POPC   PO422020  34.763  10.940   9.710
 1425POPC   GL122021  34.641  10.850   9.228
 1425POPC   GL222022  34.470  11.170   9.040
 1425POPC   C1A22023  34.612  10.791   8.774
 1425POPC   D2A22024  34.659  11.059   8.414
 1425POPC   C3A22025  34.382  11.363   8.198
 1425POPC   C4A22026  34.473  11.337   7.765
 1425POPC   C1B22027  34.459  11.458   8.695
 1425POPC   C2B22028  34.738  11.698   8.405
 1425POPC   C3B22029  34.637  11.776   7.975
 1425POPC   C4B22030  34.842  11.648   7.594
 1426POPC   NC322031  43.145  33.885   9.552
 1426POPC   PO422032  42.523  34.083   9.348
 1426POPC   GL122033  42.859  33.847   9.076
 1426POPC   GL222034  43.262  33.770   9.069
 1426POPC   C1A22035  42.998  33.907   8.642
 1426POPC   D2A22036  43.127  34.210   8.336
 1426POPC   C3A22037  43.100  33.966   7.963
 1426POPC   C4A22038  43.411  33.682   7.766
 1426POPC   C1B22039  43.488  33.996   8.703
 1426POPC   C2B22040  43.543  33.919   8.244
 1426POPC   C3B22041  43.542  34.177   7.851
 1426POPC   C4B22042  43.719  33.980   7.483
 1427POPC   NC322043   3.930  42.907   9.731
 1427POPC   PO422044   3.323  43.178   9.486
 1427POPC   GL122045   3.630  42.986   9.246
 1427POPC   GL222046   3.730  43.326   9.144
 1427POPC   C1A22047   3.714  42.957   8.795
 1427POPC   D2A22048   3.721  43.118   8.348
 1427POPC   C3A22049   3.573  42.849   7.976
 1427POPC   C4A22050   3.576  42.858   7.503
 1427POPC   C1B22051   3.765  43.509   8.709
 1427POPC   C2B22052   3.769  43.669   8.255
 1427POPC   C3B22053   3.607  43.397   7.920
 1427POPC   C4B22054   3.577  43.390   7.473
 1428POPC   NC322055  26.786   1.156   9.535
 1428POPC   PO422056  26.242   1.335   9.324
 1428POPC   GL122057  26.634   1.266   9.068
 1428POPC   GL222058  26.753   0.909   9.092
 1428POPC   C1A22059  26.872   1.164   8.675
 1428POPC   D2A22060  27.006   0.974   8.285
 1428POPC   C3A22061  27.035   1.313   7.970
 1428POPC   C4A22062  27.054   1.415   7.524
 1428POPC   C1B22063  26.434   0.900   8.768
 1428POPC   C2B22064  26.477   1.025   8.315
 1428POPC   C3B22065  26.558   0.870   7.881
 1428POPC   C4B22066  26.727   1.041   7.453
 1429POPC   NC322067  15.320   7.809   9.422
 1429POPC   PO422068  15.206   8.443   9.455
 1429POPC   GL122069  14.892   8.272   9.207
 1429POPC   GL222070  14.808   7.912   9.208
 1429POPC   C1A22071  14.823   8.389   8.813
 1429POPC   D2A22072  15.053   8.363   8.418
 1429POPC   C3A22073  14.887   8.232   8.022
 1429POPC   C4A22074  14.986   8.474   7.646
 1429POPC   C1B22075  14.996   7.897   8.796
 1429POPC   C2B22076  15.220   7.877   8.417
 1429POPC   C3B22077  15.265   7.860   8.013
 1429POPC   C4B22078  15.525   8.046   7.748
 1430POPC   NC322079  16.699   0.900   9.647
 1430POPC   PO422080  16.452   1.524   9.495
 1430POPC   GL122081  16.775   1.445   9.183
 1430POPC   GL222082  16.883   1.101   9.198
 1430POPC   C1A22083  16.888   1.420   8.744
 1430POPC   D2A22084  17.027   1.321   8.335
 1430POPC   C3A22085  16.815   1.433   7.960
 1430POPC   C4A22086  16.789   1.345   7.525
 1430POPC   C1B22087  16.921   0.895   8.806
 1430POPC   C2B22088  16.976   0.802   8.346
 1430POPC   C3B22089  16.840   0.931   7.915
 1430POPC   C4B22090  16.957   0.871   7.454
 1431POPC   NC322091   7.187  39.833   9.508
 1431POPC   PO422092   7.505  40.461   9.510
 1431POPC   GL122093   7.429  40.124   9.164
 1431POPC   GL222094   7.269  39.785   9.030
 1431POPC   C1A22095   7.399  40.187   8.769
 1431POPC   D2A22096   7.139  39.961   8.531
 1431POPC   C3A22097   7.310  39.984   8.147
 1431POPC   C4A22098   7.192  40.212   7.780
 1431POPC   C1B22099   7.579  39.703   8.796
 1431POPC   C2B22100   7.728  39.864   8.457
 1431POPC   C3B22101   7.736  39.669   8.094
 1431POPC   C4B22102   7.634  39.919   7.766
 1432POPC   NC322103  16.640   5.733   9.527
 1432POPC   PO422104  16.904   6.304   9.709
 1432POPC   GL122105  16.974   5.977   9.260
 1432POPC   GL222106  17.111   5.622   9.195
 1432POPC   C1A22107  16.821   5.888   8.843
 1432POPC   D2A22108  16.705   5.703   8.471
 1432POPC   C3A22109  16.857   5.946   8.145
 1432POPC   C4A22110  16.729   5.887   7.728
 1432POPC   C1B22111  17.256   5.638   8.732
 1432POPC   C2B22112  17.149   5.496   8.301
 1432POPC   C3B22113  16.862   5.431   7.923
 1432POPC   C4B22114  16.978   5.517   7.454
 1433POPC   NC322115   2.339   0.605   9.485
 1433POPC   PO422116   1.724   0.253   9.433
 1433POPC   GL122117   2.057   0.319   9.166
 1433POPC   GL222118   2.178   0.015   9.030
 1433POPC   C1A22119   2.073   0.588   8.811
 1433POPC   D2A22120   1.861   0.470   8.413
 1433POPC   C3A22121   1.814   0.700   8.033
 1433POPC   C4A22122   1.757   0.521   7.618
 1433POPC   C1B22123   1.836   0.062   8.745
 1433POPC   C2B22124   1.894  44.947   8.300
 1433POPC   C3B22125   1.822   0.102   7.908
 1433POPC   C4B22126   2.013   0.080   7.493
 1434POPC   NC322127  28.624  20.303   9.658
 1434POPC   PO422128  28.320  20.845   9.469
 1434POPC   GL122129  28.420  20.424   9.208
 1434POPC   GL222130  28.792  20.388   9.169
 1434POPC   C1A22131  28.281  20.190   8.829
 1434POPC   D2A22132  28.261  20.357   8.396
 1434POPC   C3A22133  28.550  20.654   8.147
 1434POPC   C4A22134  28.412  20.743   7.730
 1434POPC   C1B22135  28.710  20.448   8.720
 1434POPC   C2B22136  28.748  20.226   8.322
 1434POPC   C3B22137  28.863  20.317   7.878
 1434POPC   C4B22138  28.665  20.377   7.461
 1435POPC   NC322139  32.923  14.842   9.470
 1435POPC   PO422140  32.887  15.518   9.485
 1435POPC   GL122141  33.129  15.257   9.172
 1435POPC   GL222142  33.340  14.954   9.202
 1435POPC   C1A22143  33.052  15.141   8.738
 1435POPC   D2A22144  32.868  15.329   8.383
 1435POPC   C3A22145  33.107  15.276   8.006
 1435POPC   C4A22146  33.314  15.204   7.632
 1435POPC   C1B22147  33.238  14.681   8.873
 1435POPC   C2B22148  33.021  14.679   8.492
 1435POPC   C3B22149  33.157  14.771   8.107
 1435POPC   C4B22150  32.944  14.864   7.765
 1436POPC   NC322151  30.267  31.569   9.407
 1436POPC   PO422152  30.663  31.082   9.711
 1436POPC   GL122153  30.623  31.261   9.249
 1436POPC   GL222154  30.901  31.282   9.077
 1436POPC   C1A22155  30.457  31.344   8.792
 1436POPC   D2A22156  30.464  31.328   8.335
 1436POPC   C3A22157  30.766  31.612   8.110
 1436POPC   C4A22158  30.768  31.851   7.716
 1436POPC   C1B22159  30.872  31.097   8.738
 1436POPC   C2B22160  30.965  31.193   8.356
 1436POPC   C3B22161  30.812  31.095   7.975
 1436POPC   C4B22162  30.837  31.324   7.644
 1437POPC   NC322163   6.302  35.282   9.554
 1437POPC   PO422164   5.685  35.575   9.441
 1437POPC   GL122165   5.789  35.340   9.067
 1437POPC   GL222166   6.128  35.245   9.050
 1437POPC   C1A22167   5.666  35.284   8.645
 1437POPC   D2A22168   5.463  35.472   8.262
 1437POPC   C3A22169   5.517  35.190   7.946
 1437POPC   C4A22170   5.764  35.415   7.686
 1437POPC   C1B22171   6.147  35.595   8.756
 1437POPC   C2B22172   5.998  35.541   8.345
 1437POPC   C3B22173   6.039  35.209   8.057
 1437POPC   C4B22174   6.230  35.195   7.651
 1438POPC   NC322175  41.895  26.443   9.629
 1438POPC   PO422176  42.515  26.038   9.618
 1438POPC   GL122177  42.280  26.124   9.268
 1438POPC   GL222178  42.590  26.197   9.117
 1438POPC   C1A22179  42.172  26.028   8.834
 1438POPC   D2A22180  42.287  25.908   8.423
 1438POPC   C3A22181  42.239  26.088   8.021
 1438POPC   C4A22182  42.425  25.891   7.692
 1438POPC   C1B22183  42.562  26.442   8.752
 1438POPC   C2B22184  42.432  26.423   8.343
 1438POPC   C3B22185  42.646  26.389   7.936
 1438POPC   C4B22186  42.647  26.594   7.527
 1439POPC   NC322187   2.163   7.842   9.569
 1439POPC   PO422188   2.086   8.492   9.550
 1439POPC   GL122189   2.185   8.342   9.135
 1439POPC   GL222190   2.295   8.005   9.111
 1439POPC   C1A22191   1.974   8.444   8.763
 1439POPC   D2A22192   2.006   8.538   8.333
 1439POPC   C3A22193   1.775   8.343   8.019
 1439POPC   C4A22194   1.637   8.417   7.608
 1439POPC   C1B22195   2.303   8.060   8.695
 1439POPC   C2B22196   2.300   8.042   8.293
 1439POPC   C3B22197   2.241   8.176   7.906
 1439POPC   C4B22198   2.340   7.790   7.666
 1440POPC   NC322199  10.139   9.940   9.437
 1440POPC   PO422200   9.479   9.710   9.519
 1440POPC   GL122201   9.532   9.692   9.113
 1440POPC   GL222202   9.893   9.578   9.111
 1440POPC   C1A22203   9.433   9.614   8.707
 1440POPC   D2A22204   9.628   9.845   8.394
 1440POPC   C3A22205   9.750   9.691   8.022
 1440POPC   C4A22206   9.873   9.627   7.622
 1440POPC   C1B22207   9.894   9.911   8.818
 1440POPC   C2B22208   9.966  10.233   8.512
 1440POPC   C3B22209   9.987  10.178   8.075
 1440POPC   C4B22210  10.114  10.072   7.651
 1441POPC   NC322211  42.330  25.589   9.622
 1441POPC   PO422212  42.197  25.016   9.389
 1441POPC   GL122213  42.511  25.283   9.190
 1441POPC   GL222214  42.572  25.676   9.192
 1441POPC   C1A22215  42.567  25.082   8.775
 1441POPC   D2A22216  42.309  24.863   8.444
 1441POPC   C3A22217  42.172  25.048   8.039
 1441POPC   C4A22218  42.418  24.874   7.691
 1441POPC   C1B22219  42.412  25.565   8.780
 1441POPC   C2B22220  42.233  25.393   8.412
 1441POPC   C3B22221  42.104  25.571   8.024
 1441POPC   C4B22222  42.276  25.380   7.669
 1442POPC   NC322223  21.518   8.725   9.567
 1442POPC   PO422224  21.570   9.351   9.323
 1442POPC   GL122225  21.508   8.998   9.132
 1442POPC   GL222226  21.848   8.914   9.200
 1442POPC   C1A22227  21.234   8.927   8.808
 1442POPC   D2A22228  21.076   9.014   8.393
 1442POPC   C3A22229  21.208   8.831   8.021
 1442POPC   C4A22230  21.249   9.184   7.779
 1442POPC   C1B22231  21.861   8.782   8.787
 1442POPC   C2B22232  21.598   8.830   8.442
 1442POPC   C3B22233  21.645   9.055   8.090
 1442POPC   C4B22234  21.661   8.907   7.701
 1443POPC   NC322235  43.644  37.196   9.380
 1443POPC   PO422236  43.635  36.540   9.588
 1443POPC   GL122237  43.759  36.572   9.148
 1443POPC   GL222238  43.796  36.907   8.993
 1443POPC   C1A22239  43.811  36.486   8.691
 1443POPC   D2A22240  43.911  36.710   8.316
 1443POPC   C3A22241  43.923  36.479   7.921
 1443POPC   C4A22242  43.711  36.665   7.542
 1443POPC   C1B22243  43.528  37.233   8.753
 1443POPC   C2B22244  43.621  37.426   8.373
 1443POPC   C3B22245  43.521  37.258   7.967
 1443POPC   C4B22246  43.608  37.167   7.545
 1444POPC   NC322247  25.078  41.726   9.638
 1444POPC   PO422248  25.458  41.246   9.384
 1444POPC   GL122249  25.235  41.491   9.115
 1444POPC   GL222250  25.232  41.800   9.157
 1444POPC   C1A22251  25.177  41.505   8.694
 1444POPC   D2A22252  25.315  41.203   8.429
 1444POPC   C3A22253  25.284  41.297   8.006
 1444POPC   C4A22254  24.971  41.346   7.717
 1444POPC   C1B22255  25.403  41.943   8.822
 1444POPC   C2B22256  25.511  41.839   8.423
 1444POPC   C3B22257  25.366  42.015   8.076
 1444POPC   C4B22258  25.153  41.797   7.847
 1445POPC   NC322259  22.596  42.183   9.404
 1445POPC   PO422260  22.902  42.818   9.574
 1445POPC   GL122261  22.855  42.540   9.168
 1445POPC   GL222262  22.541  42.466   8.959
 1445POPC   C1A22263  22.931  42.266   8.740
 1445POPC   D2A22264  22.935  42.150   8.286
 1445POPC   C3A22265  23.205  42.379   8.003
 1445POPC   C4A22266  23.091  42.630   7.691
 1445POPC   C1B22267  22.432  42.138   8.611
 1445POPC   C2B22268  22.476  41.943   8.169
 1445POPC   C3B22269  22.475  42.104   7.705
 1445POPC   C4B22270  22.443  42.042   7.198
 1446POPC   NC322271  11.104  35.533   9.533
 1446POPC   PO422272  11.136  35.036   9.300
 1446POPC   GL122273  11.223  35.384   9.032
 1446POPC   GL222274  10.924  35.511   8.934
 1446POPC   C1A22275  11.324  35.418   8.585
 1446POPC   D2A22276  11.573  35.145   8.345
 1446POPC   C3A22277  11.494  35.239   7.925
 1446POPC   C4A22278  11.419  35.616   7.689
 1446POPC   C1B22279  10.932  35.122   8.652
 1446POPC   C2B22280  11.086  35.033   8.220
 1446POPC   C3B22281  11.000  35.249   7.802
 1446POPC   C4B22282  10.816  35.113   7.382
 1447POPC   NC322283  33.212   7.792   9.441
 1447POPC   PO422284  33.088   7.214   9.648
 1447POPC   GL122285  33.062   7.382   9.187
 1447POPC   GL222286  32.759   7.526   9.085
 1447POPC   C1A22287  33.156   7.623   8.778
 1447POPC   D2A22288  32.986   7.670   8.382
 1447POPC   C3A22289  33.173   7.870   8.085
 1447POPC   C4A22290  33.059   7.765   7.697
 1447POPC   C1B22291  32.780   7.284   8.690
 1447POPC   C2B22292  33.017   7.180   8.278
 1447POPC   C3B22293  32.984   7.248   7.816
 1447POPC   C4B22294  32.937   6.946   7.455
 1448POPC   NC322295  20.691  19.009   9.629
 1448POPC   PO422296  20.336  19.381   9.175
 1448POPC   GL122297  20.513  19.100   8.948
 1448POPC   GL222298  20.624  18.855   9.141
 1448POPC   C1A22299  20.660  18.870   8.576
 1448POPC   D2A22300  20.767  18.880   8.165
 1448POPC   C3A22301  20.637  19.273   7.983
 1448POPC   C4A22302  20.420  19.368   7.607
 1448POPC   C1B22303  20.319  18.643   8.881
 1448POPC   C2B22304  20.241  18.589   8.468
 1448POPC   C3B22305  20.267  18.941   8.202
 1448POPC   C4B22306  20.324  18.909   7.761
 1449POPC   NC322307  43.692  44.883   9.563
 1449POPC   PO422308  43.812  44.187   9.460
 1449POPC   GL122309  43.671  44.511   9.231
 1449POPC   GL222310  43.980  44.636   9.181
 1449POPC   C1A22311  43.538  44.798   8.912
 1449POPC   D2A22312  43.784  44.864   8.587
 1449POPC   C3A22313  43.621  44.900   8.211
 1449POPC   C4A22314  43.859  44.760   7.879
 1449POPC   C1B22315  44.097  44.492   8.776
 1449POPC   C2B22316  43.911  44.394   8.375
 1449POPC   C3B22317  43.793  44.247   7.962
 1449POPC   C4B22318  43.911  44.332   7.560
 1450POPC   NC322319   9.175  43.395   9.558
 1450POPC   PO422320   9.674  42.981   9.614
 1450POPC   GL122321   9.580  43.014   9.182
 1450POPC   GL222322   9.653  42.677   9.190
 1450POPC   C1A22323   9.688  43.072   8.709
 1450POPC   D2A22324   9.910  42.928   8.302
 1450POPC   C3A22325   9.810  43.166   7.921
 1450POPC   C4A22326   9.520  43.412   7.653
 1450POPC   C1B22327   9.795  42.580   8.793
 1450POPC   C2B22328   9.622  42.516   8.391
 1450POPC   C3B22329   9.596  42.690   7.968
 1450POPC   C4B22330   9.712  42.860   7.528
 1451POPC   NC322331  28.125  12.893   9.611
 1451POPC   PO422332  28.789  12.998   9.473
 1451POPC   GL122333  28.455  13.063   9.183
 1451POPC   GL222334  28.361  12.708   9.191
 1451POPC   C1A22335  28.531  12.977   8.734
 1451POPC   D2A22336  28.758  12.704   8.416
 1451POPC   C3A22337  28.677  12.817   7.992
 1451POPC   C4A22338  28.305  12.954   7.767
 1451POPC   C1B22339  28.141  12.638   8.790
 1451POPC   C2B22340  28.232  12.736   8.355
 1451POPC   C3B22341  28.224  12.497   7.963
 1451POPC   C4B22342  28.290  12.495   7.500
 1452POPC   NC322343  40.964  33.480   9.660
 1452POPC   PO422344  40.550  33.966   9.383
 1452POPC   GL122345  40.851  33.703   9.185
 1452POPC   GL222346  40.643  33.517   9.021
 1452POPC   C1A22347  41.064  33.759   8.778
 1452POPC   D2A22348  41.071  33.710   8.324
 1452POPC   C3A22349  41.038  34.075   8.014
 1452POPC   C4A22350  40.788  34.159   7.644
 1452POPC   C1B22351  40.595  33.935   8.736
 1452POPC   C2B22352  40.621  33.962   8.305
 1452POPC   C3B22353  40.658  33.738   7.921
 1452POPC   C4B22354  40.324  33.987   7.727
 1453POPC   NC322355  16.797  43.534   9.544
 1453POPC   PO422356  16.476  42.980   9.538
 1453POPC   GL122357  16.604  42.928   9.116
 1453POPC   GL222358  16.839  43.202   9.141
 1453POPC   C1A22359  16.535  42.966   8.659
 1453POPC   D2A22360  16.564  43.215   8.280
 1453POPC   C3A22361  16.796  43.153   7.902
 1453POPC   C4A22362  17.090  43.451   7.827
 1453POPC   C1B22363  17.050  42.973   8.822
 1453POPC   C2B22364  17.011  42.967   8.381
 1453POPC   C3B22365  17.232  42.895   7.989
 1453POPC   C4B22366  17.177  43.027   7.529
 1454POPC   NC322367  36.131  10.318   9.506
 1454POPC   PO422368  36.383  10.949   9.586
 1454POPC   GL122369  36.216  10.712   9.183
 1454POPC   GL222370  36.392  10.395   9.095
 1454POPC   C1A22371  36.133  10.615   8.706
 1454POPC   D2A22372  35.798  10.687   8.385
 1454POPC   C3A22373  35.897  10.823   7.964
 1454POPC   C4A22374  36.261  10.805   7.689
 1454POPC   C1B22375  36.379  10.154   8.757
 1454POPC   C2B22376  36.532  10.268   8.405
 1454POPC   C3B22377  36.308  10.585   8.193
 1454POPC   C4B22378  36.098  10.358   7.854
 1455POPC   NC322379   2.764  32.883   9.405
 1455POPC   PO422380   2.326  33.382   9.539
 1455POPC   GL122381   2.556  33.237   9.104
 1455POPC   GL222382   2.512  32.812   8.975
 1455POPC   C1A22383   2.827  33.105   8.742
 1455POPC   D2A22384   2.649  32.811   8.422
 1455POPC   C3A22385   2.589  33.094   8.078
 1455POPC   C4A22386   2.945  33.239   7.843
 1455POPC   C1B22387   2.957  32.614   8.820
 1455POPC   C2B22388   3.211  32.491   8.448
 1455POPC   C3B22389   3.071  32.561   8.035
 1455POPC   C4B22390   2.830  32.747   7.757
 1456POPC   NC322391  26.331  16.346   9.483
 1456POPC   PO422392  25.952  15.792   9.558
 1456POPC   GL122393  26.108  15.965   9.188
 1456POPC   GL222394  25.895  16.206   9.020
 1456POPC   C1A22395  26.151  15.830   8.748
 1456POPC   D2A22396  25.870  15.973   8.419
 1456POPC   C3A22397  25.862  15.762   8.032
 1456POPC   C4A22398  25.994  15.996   7.673
 1456POPC   C1B22399  26.336  16.291   8.847
 1456POPC   C2B22400  26.435  16.193   8.436
 1456POPC   C3B22401  26.219  16.267   8.079
 1456POPC   C4B22402  26.443  16.254   7.688
 1457POPC   NC322403  44.969   3.116   9.366
 1457POPC   PO422404  44.508   2.714   9.742
 1457POPC   GL122405  44.512   2.847   9.273
 1457POPC   GL222406  44.444   2.546   9.106
 1457POPC   C1A22407  44.627   2.895   8.793
 1457POPC   D2A22408  44.826   2.723   8.393
 1457POPC   C3A22409  44.760   2.952   7.984
 1457POPC   C4A22410  44.939   2.796   7.588
 1457POPC   C1B22411  44.350   2.371   8.727
 1457POPC   C2B22412  44.492   2.337   8.311
 1457POPC   C3B22413  44.472   2.559   7.921
 1457POPC   C4B22414  44.550   2.472   7.514
 1458POPC   NC322415  18.442   7.660   9.260
 1458POPC   PO422416  19.028   7.412   9.592
 1458POPC   GL122417  19.192   7.507   9.205
 1458POPC   GL222418  18.882   7.483   9.030
 1458POPC   C1A22419  19.310   7.624   8.776
 1458POPC   D2A22420  19.015   7.495   8.454
 1458POPC   C3A22421  19.207   7.454   8.067
 1458POPC   C4A22422  19.079   7.468   7.672
 1458POPC   C1B22423  19.150   7.143   8.842
 1458POPC   C2B22424  19.058   6.959   8.447
 1458POPC   C3B22425  19.151   6.949   8.042
 1458POPC   C4B22426  19.313   7.008   7.678
 1459POPC   NC322427  17.160  40.921   9.628
 1459POPC   PO422428  17.790  40.933   9.725
 1459POPC   GL122429  17.580  41.046   9.295
 1459POPC   GL222430  17.873  41.089   9.090
 1459POPC   C1A22431  17.483  40.916   8.816
 1459POPC   D2A22432  17.618  40.784   8.381
 1459POPC   C3A22433  17.333  40.820   8.030
 1459POPC   C4A22434  17.345  40.709   7.583
 1459POPC   C1B22435  18.041  40.957   8.680
 1459POPC   C2B22436  18.092  40.955   8.230
 1459POPC   C3B22437  17.798  40.947   7.877
 1459POPC   C4B22438  17.752  40.969   7.404
 1460POPC   NC322439   8.886  21.815   9.581
 1460POPC   PO422440   9.129  22.353   9.553
 1460POPC   GL122441   8.908  22.191   9.227
 1460POPC   GL222442   8.888  22.497   9.042
 1460POPC   C1A22443   8.795  22.037   8.827
 1460POPC   D2A22444   9.102  21.930   8.499
 1460POPC   C3A22445   9.122  22.132   8.114
 1460POPC   C4A22446   8.927  22.047   7.715
 1460POPC   C1B22447   9.255  22.274   8.845
 1460POPC   C2B22448   9.539  22.234   8.509
 1460POPC   C3B22449   9.559  22.426   8.107
 1460POPC   C4B22450   9.370  22.382   7.716
 1461POPC   NC322451  27.273   0.484   9.376
 1461POPC   PO422452  27.950   0.746   9.497
 1461POPC   GL122453  27.722   0.599   9.182
 1461POPC   GL222454  27.577   0.904   9.057
 1461POPC   C1A22455  27.640   0.355   8.791
 1461POPC   D2A22456  27.694   0.079   8.422
 1461POPC   C3A22457  27.668   0.251   7.997
 1461POPC   C4A22458  27.394   0.088   7.674
 1461POPC   C1B22459  27.277   0.732   8.746
 1461POPC   C2B22460  27.366   0.505   8.367
 1461POPC   C3B22461  27.200   0.478   7.967
 1461POPC   C4B22462  27.061   0.822   7.746
 1462POPC   NC322463  37.128   9.055   9.631
 1462POPC   PO422464  36.722   8.605   9.401
 1462POPC   GL122465  37.068   8.778   9.154
 1462POPC   GL222466  37.102   9.172   9.137
 1462POPC   C1A22467  36.904   8.749   8.748
 1462POPC   D2A22468  36.623   9.082   8.621
 1462POPC   C3A22469  36.677   9.079   8.184
 1462POPC   C4A22470  36.692   8.858   7.803
 1462POPC   C1B22471  37.248   9.109   8.721
 1462POPC   C2B22472  37.261   8.776   8.402
 1462POPC   C3B22473  37.172   8.782   7.991
 1462POPC   C4B22474  37.069   9.215   7.839
 1463POPC   NC322475  40.923  20.672   9.586
 1463POPC   PO422476  40.543  20.181   9.426
 1463POPC   GL122477  40.718  20.541   9.125
 1463POPC   GL222478  40.807  20.912   9.151
 1463POPC   C1A22479  40.835  20.645   8.681
 1463POPC   D2A22480  40.630  20.569   8.259
 1463POPC   C3A22481  40.809  20.464   7.836
 1463POPC   C4A22482  40.715  20.663   7.431
 1463POPC   C1B22483  40.770  21.144   8.771
 1463POPC   C2B22484  40.793  21.045   8.309
 1463POPC   C3B22485  40.875  20.970   7.866
 1463POPC   C4B22486  41.125  20.985   7.478
 1464POPC   NC322487  26.550  42.073   9.581
 1464POPC   PO422488  27.013  42.580   9.498
 1464POPC   GL122489  26.893  42.336   9.156
 1464POPC   GL222490  26.544  42.316   9.139
 1464POPC   C1A22491  26.773  42.470   8.717
 1464POPC   D2A22492  26.946  42.483   8.301
 1464POPC   C3A22493  26.609  42.481   8.005
 1464POPC   C4A22494  26.662  42.263   7.640
 1464POPC   C1B22495  26.371  42.158   8.777
 1464POPC   C2B22496  26.546  42.099   8.377
 1464POPC   C3B22497  26.375  41.974   7.992
 1464POPC   C4B22498  26.170  42.142   7.666
 1465POPC   NC322499  19.546  21.267   9.439
 1465POPC   PO422500  18.981  21.053   9.688
 1465POPC   GL122501  19.081  21.241   9.211
 1465POPC   GL222502  19.290  21.579   9.128
 1465POPC   C1A22503  18.991  21.229   8.735
 1465POPC   D2A22504  18.824  21.218   8.279
 1465POPC   C3A22505  18.963  21.366   7.879
 1465POPC   C4A22506  18.671  21.637   7.623
 1465POPC   C1B22507  19.444  21.442   8.716
 1465POPC   C2B22508  19.239  21.521   8.322
 1465POPC   C3B22509  19.448  21.524   7.935
 1465POPC   C4B22510  19.360  21.387   7.501
 1466POPC   NC322511  28.958  43.943   9.606
 1466POPC   PO422512  29.411  43.466   9.434
 1466POPC   GL122513  29.146  43.771   9.171
 1466POPC   GL222514  29.214  44.154   9.219
 1466POPC   C1A22515  28.881  43.937   8.815
 1466POPC   D2A22516  29.081  43.976   8.391
 1466POPC   C3A22517  28.890  43.944   7.986
 1466POPC   C4A22518  29.072  44.108   7.602
 1466POPC   C1B22519  29.375  44.098   8.796
 1466POPC   C2B22520  29.513  44.237   8.355
 1466POPC   C3B22521  29.445  44.065   7.944
 1466POPC   C4B22522  29.624  44.096   7.530
 1467POPC   NC322523  40.656   0.133   9.544
 1467POPC   PO422524  40.819  44.440   9.514
 1467POPC   GL122525  40.708  44.473   9.101
 1467POPC   GL222526  41.056  44.348   9.079
 1467POPC   C1A22527  40.548  44.774   8.752
 1467POPC   D2A22528  40.695   0.050   8.379
 1467POPC   C3A22529  40.780  44.856   7.975
 1467POPC   C4A22530  40.560  44.681   7.606
 1467POPC   C1B22531  41.011  44.558   8.699
 1467POPC   C2B22532  40.920  44.388   8.306
 1467POPC   C3B22533  41.132  44.480   7.951
 1467POPC   C4B22534  41.154  44.770   7.571
 1468POPC   NC322535  10.250  23.428   9.755
 1468POPC   PO422536  10.453  22.910   9.549
 1468POPC   GL122537  10.586  22.790   9.140
 1468POPC   GL222538  10.614  23.135   9.105
 1468POPC   C1A22539  10.410  22.675   8.712
 1468POPC   D2A22540  10.288  22.734   8.266
 1468POPC   C3A22541  10.580  22.821   7.923
 1468POPC   C4A22542  10.678  22.588   7.528
 1468POPC   C1B22543  10.540  23.314   8.707
 1468POPC   C2B22544  10.367  23.269   8.292
 1468POPC   C3B22545  10.558  23.361   7.892
 1468POPC   C4B22546  10.343  23.423   7.488
 1469POPC   NC322547  28.374  35.877   9.516
 1469POPC   PO422548  28.157  36.430   9.535
 1469POPC   GL122549  28.210  36.256   9.158
 1469POPC   GL222550  27.951  36.034   9.109
 1469POPC   C1A22551  28.406  36.198   8.761
 1469POPC   D2A22552  28.498  36.043   8.341
 1469POPC   C3A22553  28.415  36.326   7.969
 1469POPC   C4A22554  28.498  36.564   7.581
 1469POPC   C1B22555  28.028  35.836   8.708
 1469POPC   C2B22556  27.977  35.715   8.297
 1469POPC   C3B22557  28.188  35.864   7.949
 1469POPC   C4B22558  28.639  35.867   7.872
 1470POPC   NC322559  43.735  28.076   9.502
 1470POPC   PO422560  44.057  28.731   9.342
 1470POPC   GL122561  43.930  28.366   9.118
 1470POPC   GL222562  44.177  28.074   9.163
 1470POPC   C1A22563  43.691  28.283   8.718
 1470POPC   D2A22564  43.711  28.020   8.324
 1470POPC   C3A22565  43.562  28.212   7.953
 1470POPC   C4A22566  43.743  28.588   7.983
 1470POPC   C1B22567  44.198  28.206   8.726
 1470POPC   C2B22568  44.067  28.399   8.360
 1470POPC   C3B22569  44.083  28.209   7.997
 1470POPC   C4B22570  44.364  28.179   7.721
 1471POPC   NC322571  25.906  32.700   9.712
 1471POPC   PO422572  26.229  33.239   9.485
 1471POPC   GL122573  25.960  33.004   9.205
 1471POPC   GL222574  26.032  32.654   9.212
 1471POPC   C1A22575  25.949  33.063   8.744
 1471POPC   D2A22576  25.905  33.301   8.330
 1471POPC   C3A22577  26.036  33.079   7.966
 1471POPC   C4A22578  26.456  33.239   7.928
 1471POPC   C1B22579  26.223  32.588   8.801
 1471POPC   C2B22580  26.152  32.764   8.381
 1471POPC   C3B22581  26.371  32.716   8.020
 1471POPC   C4B22582  26.167  32.480   7.751
 1472POPC   NC322583  38.358   3.471   9.725
 1472POPC   PO422584  38.850   3.656   9.304
 1472POPC   GL122585  38.450   3.655   9.055
 1472POPC   GL222586  38.266   3.390   9.212
 1472POPC   C1A22587  38.441   3.672   8.577
 1472POPC   D2A22588  38.730   3.492   8.228
 1472POPC   C3A22589  38.647   3.700   7.834
 1472POPC   C4A22590  38.226   3.845   7.740
 1472POPC   C1B22591  38.315   3.159   8.836
 1472POPC   C2B22592  38.242   3.231   8.401
 1472POPC   C3B22593  38.266   3.393   8.004
 1472POPC   C4B22594  38.482   3.183   7.679
 1473POPC   NC322595   3.515   8.697   9.517
 1473POPC   PO422596   3.735   9.298   9.678
 1473POPC   GL122597   3.840   9.128   9.259
 1473POPC   GL222598   3.934   8.755   9.223
 1473POPC   C1A22599   3.570   9.057   8.875
 1473POPC   D2A22600   3.492   8.863   8.454
 1473POPC   C3A22601   3.288   8.992   8.081
 1473POPC   C4A22602   3.062   8.758   7.748
 1473POPC   C1B22603   4.075   8.919   8.852
 1473POPC   C2B22604   3.957   9.106   8.494
 1473POPC   C3B22605   3.809   9.051   8.097
 1473POPC   C4B22606   3.605   9.199   7.743
 1474POPC   NC322607  13.005  11.852   9.616
 1474POPC   PO422608  12.683  12.415   9.630
 1474POPC   GL122609  12.777  12.146   9.270
 1474POPC   GL222610  13.109  12.241   9.241
 1474POPC   C1A22611  12.798  11.962   8.834
 1474POPC   D2A22612  12.559  11.868   8.432
 1474POPC   C3A22613  12.573  12.088   8.039
 1474POPC   C4A22614  12.690  11.972   7.620
 1474POPC   C1B22615  13.122  12.462   8.844
 1474POPC   C2B22616  13.211  12.308   8.432
 1474POPC   C3B22617  13.070  12.144   8.054
 1474POPC   C4B22618  13.166  12.287   7.646
 1475POPC   NC322619  11.495  24.383   9.230
 1475POPC   PO422620  10.999  24.602   9.575
 1475POPC   GL122621  10.957  24.489   9.104
 1475POPC   GL222622  10.905  24.178   8.950
 1475POPC   C1A22623  10.954  24.627   8.665
 1475POPC   D2A22624  11.156  24.524   8.239
 1475POPC   C3A22625  11.011  24.710   7.843
 1475POPC   C4A22626  11.187  24.638   7.443
 1475POPC   C1B22627  11.263  24.238   8.649
 1475POPC   C2B22628  11.594  24.160   8.376
 1475POPC   C3B22629  11.534  24.183   7.962
 1475POPC   C4B22630  11.132  24.225   7.773
 1476POPC   NC322631  22.562  30.137   9.353
 1476POPC   PO422632  23.126  30.240   9.712
 1476POPC   GL122633  23.078  30.135   9.259
 1476POPC   GL222634  22.951  29.788   9.237
 1476POPC   C1A22635  23.174  30.114   8.832
 1476POPC   D2A22636  22.890  30.240   8.531
 1476POPC   C3A22637  22.902  30.210   8.083
 1476POPC   C4A22638  23.115  30.141   7.687
 1476POPC   C1B22639  22.773  29.815   8.802
 1476POPC   C2B22640  23.058  29.754   8.442
 1476POPC   C3B22641  23.012  29.689   7.992
 1476POPC   C4B22642  23.379  29.523   7.788
 1477POPC   NC322643  34.379  37.133   9.485
 1477POPC   PO422644  34.854  36.721   9.472
 1477POPC   GL122645  34.634  36.677   9.109
 1477POPC   GL222646  34.302  36.618   9.204
 1477POPC   C1A22647  34.663  36.839   8.696
 1477POPC   D2A22648  34.616  36.700   8.291
 1477POPC   C3A22649  34.497  37.007   8.002
 1477POPC   C4A22650  34.582  36.817   7.638
 1477POPC   C1B22651  34.255  36.540   8.747
 1477POPC   C2B22652  34.144  36.457   8.314
 1477POPC   C3B22653  34.254  36.469   7.857
 1477POPC   C4B22654  34.255  36.501   7.395
 1478POPC   NC322655  30.557  42.561   9.552
 1478POPC   PO422656  30.776  41.911   9.410
 1478POPC   GL122657  30.811  42.297   9.117
 1478POPC   GL222658  30.549  42.547   9.064
 1478POPC   C1A22659  30.753  42.362   8.651
 1478POPC   D2A22660  30.526  42.271   8.284
 1478POPC   C3A22661  30.827  42.053   7.980
 1478POPC   C4A22662  31.000  41.861   7.593
 1478POPC   C1B22663  30.361  42.720   8.750
 1478POPC   C2B22664  30.148  42.667   8.376
 1478POPC   C3B22665  30.295  42.801   7.981
 1478POPC   C4B22666  30.603  42.732   7.641
 1479POPC   NC322667   6.906  17.505   9.476
 1479POPC   PO422668   6.540  18.033   9.513
 1479POPC   GL122669   6.580  17.755   9.131
 1479POPC   GL222670   6.676  17.426   9.021
 1479POPC   C1A22671   6.656  17.803   8.695
 1479POPC   D2A22672   6.880  17.567   8.357
 1479POPC   C3A22673   6.687  17.494   7.970
 1479POPC   C4A22674   6.456  17.677   7.607
 1479POPC   C1B22675   6.887  17.182   8.670
 1479POPC   C2B22676   7.172  17.141   8.271
 1479POPC   C3B22677   7.056  17.146   7.830
 1479POPC   C4B22678   6.743  17.261   7.512
 1480POPC   NC322679  11.427  18.697   9.532
 1480POPC   PO422680  10.934  18.254   9.490
 1480POPC   GL122681  11.049  18.581   9.156
 1480POPC   GL222682  11.412  18.575   9.050
 1480POPC   C1A22683  11.056  18.568   8.691
 1480POPC   D2A22684  11.060  18.190   8.427
 1480POPC   C3A22685  11.193  18.235   8.008
 1480POPC   C4A22686  11.496  18.163   7.706
 1480POPC   C1B22687  11.492  18.244   8.756
 1480POPC   C2B22688  11.595  18.189   8.322
 1480POPC   C3B22689  11.587  18.550   8.025
 1480POPC   C4B22690  11.666  18.771   7.663
 1481POPC   NC322691  33.249  28.560   9.579
 1481POPC   PO422692  32.627  28.570   9.288
 1481POPC   GL122693  33.009  28.557   9.101
 1481POPC   GL222694  32.967  28.253   8.922
 1481POPC   C1A22695  33.211  28.657   8.714
 1481POPC   D2A22696  33.096  28.424   8.333
 1481POPC   C3A22697  32.958  28.616   7.940
 1481POPC   C4A22698  32.663  28.431   7.653
 1481POPC   C1B22699  33.386  28.174   8.691
 1481POPC   C2B22700  33.625  28.295   8.327
 1481POPC   C3B22701  33.405  28.347   7.913
 1481POPC   C4B22702  33.204  28.397   7.515
 1482POPC   NC322703   1.781  10.640   9.395
 1482POPC   PO422704   2.322  10.066   9.407
 1482POPC   GL122705   2.176  10.327   9.076
 1482POPC   GL222706   1.819  10.285   9.018
 1482POPC   C1A22707   2.118  10.560   8.678
 1482POPC   D2A22708   2.343  10.751   8.317
 1482POPC   C3A22709   2.194  10.723   7.924
 1482POPC   C4A22710   2.176  10.361   7.687
 1482POPC   C1B22711   1.713  10.298   8.550
 1482POPC   C2B22712   1.907  10.370   8.158
 1482POPC   C3B22713   1.693  10.390   7.778
 1482POPC   C4B22714   1.282  10.329   7.623
 1483POPC   NC322715  40.216  42.665   9.517
 1483POPC   PO422716  39.795  42.227   9.448
 1483POPC   GL122717  40.156  42.217   9.172
 1483POPC   GL222718  40.099  42.559   9.043
 1483POPC   C1A22719  40.404  42.239   8.782
 1483POPC   D2A22720  40.483  42.531   8.457
 1483POPC   C3A22721  40.257  42.425   8.053
 1483POPC   C4A22722  40.312  42.269   7.638
 1483POPC   C1B22723  39.767  42.444   8.808
 1483POPC   C2B22724  39.820  42.330   8.426
 1483POPC   C3B22725  39.690  42.499   8.071
 1483POPC   C4B22726  39.817  42.446   7.692
 1484POPC   NC322727  10.051  39.882   9.657
 1484POPC   PO422728  10.743  39.894   9.608
 1484POPC   GL122729  10.446  39.853   9.299
 1484POPC   GL222730  10.629  40.096   9.122
 1484POPC   C1A22731  10.356  39.782   8.860
 1484POPC   D2A22732  10.619  39.687   8.505
 1484POPC   C3A22733  10.385  39.620   8.162
 1484POPC   C4A22734  10.367  39.699   7.747
 1484POPC   C1B22735  10.775  40.153   8.705
 1484POPC   C2B22736  10.729  40.412   8.328
 1484POPC   C3B22737  10.478  40.351   7.960
 1484POPC   C4B22738  10.646  40.272   7.575
 1485POPC   NC322739  23.742  27.999   9.408
 1485POPC   PO422740  23.440  27.398   9.426
 1485POPC   GL122741  23.756  27.532   9.123
 1485POPC   GL222742  23.653  27.827   8.922
 1485POPC   C1A22743  23.982  27.496   8.710
 1485POPC   D2A22744  23.902  27.691   8.305
 1485POPC   C3A22745  23.793  27.580   7.873
 1485POPC   C4A22746  23.577  27.192   7.796
 1485POPC   C1B22747  24.031  28.021   8.717
 1485POPC   C2B22748  24.210  28.068   8.295
 1485POPC   C3B22749  23.978  28.073   7.883
 1485POPC   C4B22750  23.913  27.921   7.434
 1486POPC   NC322751  34.344  10.754   9.622
 1486POPC   PO422752  34.892  10.362   9.432
 1486POPC   GL122753  34.635  10.345   9.085
 1486POPC   GL222754  34.280  10.442   9.175
 1486POPC   C1A22755  34.819  10.338   8.688
 1486POPC   D2A22756  34.904  10.173   8.314
 1486POPC   C3A22757  34.899  10.486   8.002
 1486POPC   C4A22758  34.562  10.488   7.714
 1486POPC   C1B22759  34.251  10.433   8.713
 1486POPC   C2B22760  34.471  10.537   8.320
 1486POPC   C3B22761  34.426  10.869   8.001
 1486POPC   C4B22762  34.319  10.910   7.540
 1487POPC   NC322763  20.559  17.077   9.319
 1487POPC   PO422764  20.780  17.659   9.699
 1487POPC   GL122765  20.715  17.564   9.274
 1487POPC   GL222766  20.341  17.553   9.300
 1487POPC   C1A22767  20.911  17.459   8.833
 1487POPC   D2A22768  21.090  17.399   8.406
 1487POPC   C3A22769  20.743  17.271   8.138
 1487POPC   C4A22770  20.640  17.501   7.783
 1487POPC   C1B22771  20.423  17.674   8.863
 1487POPC   C2B22772  20.499  17.600   8.450
 1487POPC   C3B22773  20.267  17.668   8.077
 1487POPC   C4B22774  20.222  17.738   7.631
 1488POPC   NC322775  30.848  19.303   9.458
 1488POPC   PO422776  30.333  18.762   9.555
 1488POPC   GL122777  30.553  18.951   9.236
 1488POPC   GL222778  30.394  19.258   9.193
 1488POPC   C1A22779  30.738  19.094   8.834
 1488POPC   D2A22780  30.699  19.220   8.399
 1488POPC   C3A22781  30.851  19.035   8.052
 1488POPC   C4A22782  30.729  18.746   7.725
 1488POPC   C1B22783  30.353  19.412   8.748
 1488POPC   C2B22784  30.304  19.544   8.292
 1488POPC   C3B22785  30.281  19.429   7.845
 1488POPC   C4B22786  30.601  19.227   7.606
 1489POPC   NC322787  11.410  19.453   9.475
 1489POPC   PO422788  10.838  19.822   9.530
 1489POPC   GL122789  10.908  19.814   9.100
 1489POPC   GL222790  11.205  19.958   9.081
 1489POPC   C1A22791  10.978  19.718   8.638
 1489POPC   D2A22792  11.198  19.407   8.350
 1489POPC   C3A22793  11.276  19.606   7.938
 1489POPC   C4A22794  10.925  19.845   7.726
 1489POPC   C1B22795  11.462  19.813   8.725
 1489POPC   C2B22796  11.446  19.940   8.282
 1489POPC   C3B22797  11.690  19.906   7.873
 1489POPC   C4B22798  11.687  20.189   7.518
 1490POPC   NC322799   1.859  44.089   9.404
 1490POPC   PO422800   2.080  43.415   9.481
 1490POPC   GL122801   1.923  43.623   9.166
 1490POPC   GL222802   2.187  43.887   9.057
 1490POPC   C1A22803   1.747  43.763   8.802
 1490POPC   D2A22804   2.012  43.998   8.508
 1490POPC   C3A22805   1.924  43.997   8.076
 1490POPC   C4A22806   1.791  43.732   7.736
 1490POPC   C1B22807   2.219  43.554   8.751
 1490POPC   C2B22808   2.351  43.594   8.325
 1490POPC   C3B22809   2.269  43.653   7.871
 1490POPC   C4B22810   2.188  43.538   7.422
 1491POPC   NC322811  32.262  41.079   9.509
 1491POPC   PO422812  31.911  40.486   9.634
 1491POPC   GL122813  32.190  40.548   9.277
 1491POPC   GL222814  32.369  40.816   9.064
 1491POPC   C1A22815  32.056  40.466   8.846
 1491POPC   D2A22816  31.892  40.479   8.394
 1491POPC   C3A22817  32.183  40.679   8.090
 1491POPC   C4A22818  32.106  40.803   7.655
 1491POPC   C1B22819  32.659  41.000   8.745
 1491POPC   C2B22820  32.607  41.212   8.319
 1491POPC   C3B22821  32.436  41.128   7.901
 1491POPC   C4B22822  32.607  40.845   7.545
 1492POPC   NC322823  27.293  38.101   9.977
 1492POPC   PO422824  27.697  37.602   9.596
 1492POPC   GL122825  27.568  37.771   9.232
 1492POPC   GL222826  27.894  37.732   9.083
 1492POPC   C1A22827  27.373  37.697   8.847
 1492POPC   D2A22828  27.518  37.815   8.447
 1492POPC   C3A22829  27.780  37.604   8.163
 1492POPC   C4A22830  27.567  37.540   7.808
 1492POPC   C1B22831  28.071  38.009   8.759
 1492POPC   C2B22832  27.915  38.122   8.370
 1492POPC   C3B22833  27.638  38.109   8.036
 1492POPC   C4B22834  27.834  37.976   7.689
 1493POPC   NC322835   2.962  24.495   9.421
 1493POPC   PO422836   2.313  24.202   9.590
 1493POPC   GL122837   2.510  24.350   9.202
 1493POPC   GL222838   2.503  24.634   9.158
 1493POPC   C1A22839   2.721  24.368   8.760
 1493POPC   D2A22840   2.557  24.291   8.338
 1493POPC   C3A22841   2.825  24.364   8.002
 1493POPC   C4A22842   3.144  24.499   7.724
 1493POPC   C1B22843   2.564  24.885   8.784
 1493POPC   C2B22844   2.694  24.807   8.356
 1493POPC   C3B22845   2.580  24.832   7.914
 1493POPC   C4B22846   2.890  24.923   7.577
 1494POPC   NC322847  29.603  32.291   9.377
 1494POPC   PO422848  30.255  32.066   9.414
 1494POPC   GL122849  30.002  32.143   9.056
 1494POPC   GL222850  29.674  31.936   9.021
 1494POPC   C1A22851  30.171  32.080   8.646
 1494POPC   D2A22852  30.216  31.805   8.262
 1494POPC   C3A22853  30.149  32.080   7.907
 1494POPC   C4A22854  29.892  32.371   7.702
 1494POPC   C1B22855  29.685  32.242   8.640
 1494POPC   C2B22856  29.675  32.446   8.198
 1494POPC   C3B22857  29.398  32.469   7.814
 1494POPC   C4B22858  29.437  32.731   7.429
 1495POPC   NC322859  42.029  34.071   9.364
 1495POPC   PO422860  42.168  33.395   9.535
 1495POPC   GL122861  42.278  33.648   9.181
 1495POPC   GL222862  42.475  33.453   9.035
 1495POPC   C1A22863  42.324  33.853   8.753
 1495POPC   D2A22864  42.154  33.748   8.352
 1495POPC   C3A22865  42.140  34.019   8.005
 1495POPC   C4A22866  41.986  33.712   7.694
 1495POPC   C1B22867  42.698  33.499   8.668
 1495POPC   C2B22868  42.681  33.681   8.290
 1495POPC   C3B22869  42.460  33.613   7.930
 1495POPC   C4B22870  42.468  33.911   7.634
 1496POPC   NC322871  29.999  36.417   9.386
 1496POPC   PO422872  29.708  35.841   9.620
 1496POPC   GL122873  29.778  35.999   9.231
 1496POPC   GL222874  29.532  36.269   9.168
 1496POPC   C1A22875  29.871  36.053   8.792
 1496POPC   D2A22876  30.000  35.785   8.451
 1496POPC   C3A22877  30.033  36.065   8.096
 1496POPC   C4A22878  30.081  36.455   7.879
 1496POPC   C1B22879  29.400  35.860   8.934
 1496POPC   C2B22880  29.346  35.819   8.505
 1496POPC   C3B22881  29.591  35.769   8.142
 1496POPC   C4B22882  29.583  36.109   7.846
 1497POPC   NC322883  11.904  29.681   9.471
 1497POPC   PO422884  12.493  29.963   9.419
 1497POPC   GL122885  12.379  29.629   9.068
 1497POPC   GL222886  12.043  29.601   8.982
 1497POPC   C1A22887  12.344  29.541   8.576
 1497POPC   D2A22888  12.012  29.624   8.274
 1497POPC   C3A22889  12.075  29.951   8.050
 1497POPC   C4A22890  12.194  29.896   7.668
 1497POPC   C1B22891  12.061  29.959   8.675
 1497POPC   C2B22892  11.857  30.270   8.389
 1497POPC   C3B22893  11.656  30.248   7.956
 1497POPC   C4B22894  11.754  30.128   7.522
 1498POPC   NC322895  38.137  40.576   9.511
 1498POPC   PO422896  38.535  41.109   9.320
 1498POPC   GL122897  38.396  40.823   9.134
 1498POPC   GL222898  38.676  40.561   9.159
 1498POPC   C1A22899  38.258  40.939   8.735
 1498POPC   D2A22900  38.449  40.976   8.363
 1498POPC   C3A22901  38.218  41.019   8.032
 1498POPC   C4A22902  38.410  41.134   7.693
 1498POPC   C1B22903  38.375  40.453   8.827
 1498POPC   C2B22904  38.227  40.401   8.433
 1498POPC   C3B22905  38.420  40.537   8.090
 1498POPC   C4B22906  38.383  40.609   7.684
 1499POPC   NC322907  17.772  35.399   9.340
 1499POPC   PO422908  17.594  34.763   9.299
 1499POPC   GL122909  17.463  35.057   9.034
 1499POPC   GL222910  17.110  35.020   9.042
 1499POPC   C1A22911  17.584  35.288   8.672
 1499POPC   D2A22912  17.699  35.214   8.261
 1499POPC   C3A22913  17.789  35.413   7.886
 1499POPC   C4A22914  17.598  35.400   7.482
 1499POPC   C1B22915  17.083  35.246   8.632
 1499POPC   C2B22916  17.215  35.385   8.207
 1499POPC   C3B22917  17.152  35.493   7.753
 1499POPC   C4B22918  16.800  35.345   7.487
 1500POPC   NC322919  11.807   7.653   9.422
 1500POPC   PO422920  12.478   7.725   9.473
 1500POPC   GL122921  12.251   7.634   9.140
 1500POPC   GL222922  12.156   7.319   9.184
 1500POPC   C1A22923  12.032   7.676   8.781
 1500POPC   D2A22924  12.219   7.459   8.505
 1500POPC   C3A22925  12.201   7.472   8.115
 1500POPC   C4A22926  11.957   7.698   7.872
 1500POPC   C1B22927  11.950   7.164   8.853
 1500POPC   C2B22928  11.877   7.083   8.439
 1500POPC   C3B22929  11.951   6.967   8.027
 1500POPC   C4B22930  12.055   7.212   7.692
 1501POPC   NC322931  38.397  26.986   9.662
 1501POPC   PO422932  37.892  26.605   9.526
 1501POPC   GL122933  38.284  26.712   9.236
 1501POPC   GL222934  38.274  27.069   9.171
 1501POPC   C1A22935  38.596  26.811   8.879
 1501POPC   D2A22936  38.801  26.797   8.469
 1501POPC   C3A22937  38.619  26.739   8.061
 1501POPC   C4A22938  38.411  26.413   7.778
 1501POPC   C1B22939  38.130  27.144   8.781
 1501POPC   C2B22940  38.357  27.043   8.431
 1501POPC   C3B22941  38.532  27.283   8.143
 1501POPC   C4B22942  38.518  27.148   7.741
 1502POPC   NC322943  16.413  33.049   9.579
 1502POPC   PO422944  15.811  32.684   9.611
 1502POPC   GL122945  15.962  32.862   9.220
 1502POPC   GL222946  16.135  33.177   9.176
 1502POPC   C1A22947  15.989  32.875   8.792
 1502POPC   D2A22948  16.146  32.612   8.530
 1502POPC   C3A22949  16.192  32.766   8.137
 1502POPC   C4A22950  16.089  32.884   7.733
 1502POPC   C1B22951  15.812  33.326   8.913
 1502POPC   C2B22952  15.885  33.415   8.503
 1502POPC   C3B22953  15.830  33.506   8.096
 1502POPC   C4B22954  15.954  33.367   7.723
 1503POPC   NC322955   4.161  31.632   9.468
 1503POPC   PO422956   4.632  31.187   9.314
 1503POPC   GL122957   4.344  31.390   9.070
 1503POPC   GL222958   4.436  31.753   9.039
 1503POPC   C1A22959   4.223  31.195   8.726
 1503POPC   D2A22960   4.516  31.127   8.384
 1503POPC   C3A22961   4.467  31.356   7.991
 1503POPC   C4A22962   4.099  31.286   7.733
 1503POPC   C1B22963   4.379  31.656   8.599
 1503POPC   C2B22964   4.068  31.461   8.304
 1503POPC   C3B22965   3.992  31.723   7.954
 1503POPC   C4B22966   4.303  31.947   7.776
 1504POPC   NC322967  11.165  13.338   9.549
 1504POPC   PO422968  11.436  13.966   9.549
 1504POPC   GL122969  11.171  13.910   9.192
 1504POPC   GL222970  11.207  13.569   9.109
 1504POPC   C1A22971  11.321  13.888   8.713
 1504POPC   D2A22972  11.402  13.626   8.340
 1504POPC   C3A22973  11.306  13.825   7.974
 1504POPC   C4A22974  11.408  13.686   7.589
 1504POPC   C1B22975  11.199  13.382   8.739
 1504POPC   C2B22976  11.074  13.143   8.414
 1504POPC   C3B22977  11.068  13.349   8.044
 1504POPC   C4B22978  11.096  13.307   7.647
 1505POPC   NC322979  37.389  36.228   9.349
 1505POPC   PO422980  37.660  35.712   9.536
 1505POPC   GL122981  37.753  35.937   9.138
 1505POPC   GL222982  37.901  36.265   9.050
 1505POPC   C1A22983  37.548  36.098   8.736
 1505POPC   D2A22984  37.330  36.243   8.393
 1505POPC   C3A22985  37.340  35.985   8.055
 1505POPC   C4A22986  37.501  36.091   7.681
 1505POPC   C1B22987  38.128  36.069   8.695
 1505POPC   C2B22988  38.291  36.051   8.258
 1505POPC   C3B22989  38.053  36.143   7.889
 1505POPC   C4B22990  37.789  36.502   7.793
 1506POPC   NC322991  24.062  43.547   9.409
 1506POPC   PO422992  23.489  43.868   9.688
 1506POPC   GL122993  23.501  43.829   9.190
 1506POPC   GL222994  23.785  43.694   9.005
 1506POPC   C1A22995  23.374  43.644   8.747
 1506POPC   D2A22996  23.567  43.575   8.335
 1506POPC   C3A22997  23.443  43.877   8.017
 1506POPC   C4A22998  23.597  44.136   7.688
 1506POPC   C1B22999  24.116  43.720   8.723
 1506POPC   C2B23000  24.127  43.929   8.354
 1506POPC   C3B23001  23.968  43.824   7.975
 1506POPC   C4B23002  24.234  43.892   7.670
 1507POPC   NC323003  38.807   7.329   9.556
 1507POPC   PO423004  39.421   7.415   9.648
 1507POPC   GL123005  39.230   7.387   9.232
 1507POPC   GL223006  38.904   7.360   9.056
 1507POPC   C1A23007  39.288   7.562   8.810
 1507POPC   D2A23008  39.174   7.331   8.428
 1507POPC   C3A23009  39.068   7.577   8.089
 1507POPC   C4A23010  39.412   7.704   7.847
 1507POPC   C1B23011  39.032   6.972   8.752
 1507POPC   C2B23012  38.936   6.846   8.347
 1507POPC   C3B23013  39.164   7.025   8.004
 1507POPC   C4B23014  39.150   7.297   7.646
 1508POPC   NC323015  18.162  16.393   9.381
 1508POPC   PO423016  18.713  16.804   9.590
 1508POPC   GL123017  18.600  16.591   9.181
 1508POPC   GL223018  18.300  16.798   9.106
 1508POPC   C1A23019  18.416  16.461   8.740
 1508POPC   D2A23020  18.313  16.674   8.351
 1508POPC   C3A23021  18.519  16.604   7.958
 1508POPC   C4A23022  18.579  16.630   7.501
 1508POPC   C1B23023  18.133  16.971   8.732
 1508POPC   C2B23024  17.932  17.018   8.346
 1508POPC   C3B23025  18.130  17.002   7.988
 1508POPC   C4B23026  18.111  16.878   7.538
 1509POPC   NC323027  21.589  26.277   9.580
 1509POPC   PO423028  21.231  25.766   9.429
 1509POPC   GL123029  21.123  25.970   9.067
 1509POPC   GL223030  21.381  26.244   9.095
 1509POPC   C1A23031  21.096  26.171   8.659
 1509POPC   D2A23032  21.204  26.463   8.322
 1509POPC   C3A23033  21.125  26.275   7.972
 1509POPC   C4A23034  21.280  25.976   7.705
 1509POPC   C1B23035  21.528  26.488   8.730
 1509POPC   C2B23036  21.732  26.453   8.333
 1509POPC   C3B23037  21.642  26.279   7.933
 1509POPC   C4B23038  21.495  26.404   7.527
 1510POPC   NC323039   4.809  30.109   9.345
 1510POPC   PO423040   4.336  29.715   9.630
 1510POPC   GL123041   4.330  29.869   9.183
 1510POPC   GL223042   4.059  30.051   9.058
 1510POPC   C1A23043   4.150  29.637   8.800
 1510POPC   D2A23044   4.147  29.477   8.378
 1510POPC   C3A23045   4.076  29.723   8.024
 1510POPC   C4A23046   4.399  29.860   7.789
 1510POPC   C1B23047   4.221  30.176   8.699
 1510POPC   C2B23048   4.077  30.385   8.337
 1510POPC   C3B23049   4.256  30.328   7.970
 1510POPC   C4B23050   4.109  30.256   7.607
 1511POPC   NC323051  33.624  29.370   9.547
 1511POPC   PO423052  33.981  28.831   9.370
 1511POPC   GL123053  33.802  29.153   9.114
 1511POPC   GL223054  34.022  29.450   9.137
 1511POPC   C1A23055  33.579  29.130   8.698
 1511POPC   D2A23056  33.733  29.301   8.325
 1511POPC   C3A23057  33.702  29.133   7.891
 1511POPC   C4A23058  33.409  28.861   7.643
 1511POPC   C1B23059  34.082  29.204   8.712
 1511POPC   C2B23060  34.244  29.210   8.302
 1511POPC   C3B23061  34.076  29.455   7.978
 1511POPC   C4B23062  34.137  29.398   7.527
 1512POPC   NC323063   2.618  10.827   9.601
 1512POPC   PO423064   2.633  11.417   9.779
 1512POPC   GL123065   2.747  11.212   9.299
 1512POPC   GL223066   2.883  11.443   9.075
 1512POPC   C1A23067   2.891  10.993   8.868
 1512POPC   D2A23068   2.799  10.970   8.415
 1512POPC   C3A23069   3.049  11.037   8.040
 1512POPC   C4A23070   2.867  11.136   7.630
 1512POPC   C1B23071   2.723  11.418   8.669
 1512POPC   C2B23072   2.976  11.468   8.322
 1512POPC   C3B23073   2.886  11.671   7.948
 1512POPC   C4B23074   2.709  11.639   7.532
 1513POPC   NC323075  43.402   4.069   9.511
 1513POPC   PO423076  42.748   4.258   9.454
 1513POPC   GL123077  42.848   4.087   9.080
 1513POPC   GL223078  43.160   4.217   9.097
 1513POPC   C1A23079  42.945   4.159   8.648
 1513POPC   D2A23080  43.010   4.471   8.342
 1513POPC   C3A23081  42.899   4.288   7.969
 1513POPC   C4A23082  42.917   3.927   7.721
 1513POPC   C1B23083  43.320   4.473   8.774
 1513POPC   C2B23084  43.536   4.440   8.387
 1513POPC   C3B23085  43.415   4.377   7.948
 1513POPC   C4B23086  43.182   4.340   7.557
 1514POPC   NC323087  34.778  43.331   9.391
 1514POPC   PO423088  34.467  42.739   9.247
 1514POPC   GL123089  34.490  43.133   9.033
 1514POPC   GL223090  34.864  43.063   8.962
 1514POPC   C1A23091  34.423  43.180   8.629
 1514POPC   D2A23092  34.662  42.921   8.355
 1514POPC   C3A23093  34.372  42.890   8.009
 1514POPC   C4A23094  34.330  43.206   7.724
 1514POPC   C1B23095  34.860  43.436   8.724
 1514POPC   C2B23096  34.744  43.430   8.323
 1514POPC   C3B23097  34.820  43.213   7.970
 1514POPC   C4B23098  34.859  43.427   7.616
 1515POPC   NC323099  36.625  40.955   9.490
 1515POPC   PO423100  36.946  40.311   9.387
 1515POPC   GL123101  36.989  40.612   9.060
 1515POPC   GL223102  37.004  40.961   9.098
 1515POPC   C1A23103  36.810  40.705   8.656
 1515POPC   D2A23104  36.398  40.667   8.408
 1515POPC   C3A23105  36.540  40.598   7.976
 1515POPC   C4A23106  36.965  40.694   7.859
 1515POPC   C1B23107  37.105  41.195   8.695
 1515POPC   C2B23108  37.146  41.125   8.241
 1515POPC   C3B23109  37.181  41.171   7.776
 1515POPC   C4B23110  37.221  41.449   7.366
 1516POPC   NC323111  25.526  37.045   9.540
 1516POPC   PO423112  24.914  37.182   9.749
 1516POPC   GL123113  25.087  36.963   9.257
 1516POPC   GL223114  25.414  36.885   9.082
 1516POPC   C1A23115  25.039  36.649   8.868
 1516POPC   D2A23116  25.089  36.831   8.423
 1516POPC   C3A23117  25.009  36.658   8.012
 1516POPC   C4A23118  24.916  36.830   7.626
 1516POPC   C1B23119  25.188  37.174   8.802
 1516POPC   C2B23120  25.185  37.366   8.399
 1516POPC   C3B23121  25.194  37.160   7.963
 1516POPC   C4B23122  25.458  36.920   7.632
 1517POPC   NC323123   9.073   5.960   9.512
 1517POPC   PO423124   9.010   5.351   9.771
 1517POPC   GL123125   9.119   5.504   9.290
 1517POPC   GL223126   8.809   5.662   9.106
 1517POPC   C1A23127   9.246   5.790   8.882
 1517POPC   D2A23128   9.060   5.978   8.469
 1517POPC   C3A23129   8.893   5.776   8.085
 1517POPC   C4A23130   8.907   5.484   7.742
 1517POPC   C1B23131   8.628   5.928   8.745
 1517POPC   C2B23132   8.518   6.196   8.361
 1517POPC   C3B23133   8.490   6.078   7.927
 1517POPC   C4B23134   8.465   5.724   7.698
 1518POPC   NC323135  29.862  30.060   9.523
 1518POPC   PO423136  30.176  29.446   9.593
 1518POPC   GL123137  29.899  29.656   9.190
 1518POPC   GL223138  29.698  29.986   9.060
 1518POPC   C1A23139  29.974  29.742   8.725
 1518POPC   D2A23140  29.815  29.968   8.375
 1518POPC   C3A23141  29.761  29.755   7.981
 1518POPC   C4A23142  30.003  29.892   7.688
 1518POPC   C1B23143  29.615  30.312   8.749
 1518POPC   C2B23144  29.710  30.502   8.341
 1518POPC   C3B23145  29.760  30.281   7.961
 1518POPC   C4B23146  29.596  30.157   7.575
 1519POPC   NC323147  38.408   6.608   9.586
 1519POPC   PO423148  38.922   6.938   9.352
 1519POPC   GL123149  38.668   6.721   9.071
 1519POPC   GL223150  38.395   6.485   9.099
 1519POPC   C1A23151  38.518   6.653   8.656
 1519POPC   D2A23152  38.301   6.568   8.296
 1519POPC   C3A23153  38.472   6.744   7.922
 1519POPC   C4A23154  38.812   6.896   7.664
 1519POPC   C1B23155  38.063   6.413   8.746
 1519POPC   C2B23156  37.832   6.367   8.339
 1519POPC   C3B23157  37.992   6.464   7.904
 1519POPC   C4B23158  38.091   6.422   7.441
 1520POPC   NC323159  25.442  28.592   9.878
 1520POPC   PO423160  25.655  28.123   9.663
 1520POPC   GL123161  25.313  28.432   9.168
 1520POPC   GL223162  25.172  28.106   8.960
 1520POPC   C1A23163  25.055  28.544   8.771
 1520POPC   D2A23164  24.986  28.737   8.375
 1520POPC   C3A23165  24.860  28.546   7.972
 1520POPC   C4A23166  25.112  28.473   7.613
 1520POPC   C1B23167  25.167  27.848   8.632
 1520POPC   C2B23168  24.992  28.001   8.297
 1520POPC   C3B23169  25.142  28.105   7.952
 1520POPC   C4B23170  25.579  28.191   7.873
 1521POPC   NC323171  28.009  18.751   9.722
 1521POPC   PO423172  28.693  18.888   9.601
 1521POPC   GL123173  28.494  18.945   9.219
 1521POPC   GL223174  28.161  18.880   9.252
 1521POPC   C1A23175  28.511  19.134   8.826
 1521POPC   D2A23176  28.641  19.204   8.399
 1521POPC   C3A23177  28.391  19.013   8.079
 1521POPC   C4A23178  28.551  19.057   7.681
 1521POPC   C1B23179  28.144  18.698   8.844
 1521POPC   C2B23180  28.028  18.832   8.414
 1521POPC   C3B23181  27.906  18.775   7.988
 1521POPC   C4B23182  28.037  19.060   7.682
 1522POPC   NC323183  17.791  38.057   9.640
 1522POPC   PO423184  17.484  37.448   9.654
 1522POPC   GL123185  17.631  37.652   9.237
 1522POPC   GL223186  17.585  37.995   9.138
 1522POPC   C1A23187  17.528  37.624   8.754
 1522POPC   D2A23188  17.331  37.756   8.315
 1522POPC   C3A23189  17.432  37.463   7.966
 1522POPC   C4A23190  17.698  37.410   7.589
 1522POPC   C1B23191  17.573  38.115   8.671
 1522POPC   C2B23192  17.782  38.010   8.261
 1522POPC   C3B23193  17.678  37.876   7.824
 1522POPC   C4B23194  17.255  37.904   7.650
 1523POPC   NC323195  25.712  16.262   9.515
 1523POPC   PO423196  25.274  15.739   9.390
 1523POPC   GL123197  25.343  16.090   9.156
 1523POPC   GL223198  25.035  16.336   9.218
 1523POPC   C1A23199  25.456  15.962   8.750
 1523POPC   D2A23200  25.129  15.835   8.463
 1523POPC   C3A23201  25.252  15.938   8.082
 1523POPC   C4A23202  25.407  15.977   7.676
 1523POPC   C1B23203  25.047  16.278   8.750
 1523POPC   C2B23204  24.931  16.309   8.288
 1523POPC   C3B23205  25.157  16.401   7.907
 1523POPC   C4B23206  25.135  16.377   7.450
 1524POPC   NC323207  30.701  22.634   9.558
 1524POPC   PO423208  30.754  23.276   9.446
 1524POPC   GL123209  30.688  22.962   9.157
 1524POPC   GL223210  31.043  22.825   9.228
 1524POPC   C1A23211  30.542  23.014   8.708
 1524POPC   D2A23212  30.601  23.110   8.253
 1524POPC   C3A23213  30.552  22.782   7.900
 1524POPC   C4A23214  30.556  22.701   7.435
 1524POPC   C1B23215  30.955  22.703   8.820
 1524POPC   C2B23216  31.017  22.839   8.420
 1524POPC   C3B23217  30.983  22.583   8.090
 1524POPC   C4B23218  31.021  22.668   7.703
 1525POPC   NC323219  39.339  29.905   9.544
 1525POPC   PO423220  38.764  29.606   9.534
 1525POPC   GL123221  39.027  29.742   9.158
 1525POPC   GL223222  39.092  30.077   9.133
 1525POPC   C1A23223  38.992  29.875   8.695
 1525POPC   D2A23224  39.030  30.199   8.379
 1525POPC   C3A23225  39.187  30.009   8.040
 1525POPC   C4A23226  39.199  29.750   7.697
 1525POPC   C1B23227  39.386  30.183   8.816
 1525POPC   C2B23228  39.500  29.950   8.461
 1525POPC   C3B23229  39.692  29.976   8.087
 1525POPC   C4B23230  39.590  30.107   7.721
 1526POPC   NC323231   5.361  42.479   9.495
 1526POPC   PO423232   5.072  41.983   9.868
 1526POPC   GL123233   4.932  42.076   9.429
 1526POPC   GL223234   4.833  42.432   9.404
 1526POPC   C1A23235   5.064  42.105   8.966
 1526POPC   D2A23236   4.931  42.219   8.522
 1526POPC   C3A23237   5.174  42.277   8.115
 1526POPC   C4A23238   5.120  42.101   7.708
 1526POPC   C1B23239   4.789  42.536   8.951
 1526POPC   C2B23240   4.617  42.624   8.529
 1526POPC   C3B23241   4.725  42.540   8.104
 1526POPC   C4B23242   4.881  42.557   7.676
 1527POPC   NC323243  24.958  42.610   9.552
 1527POPC   PO423244  25.420  42.056   9.582
 1527POPC   GL123245  25.278  42.323   9.255
 1527POPC   GL223246  24.945  42.180   9.279
 1527POPC   C1A23247  25.509  42.448   8.884
 1527POPC   D2A23248  25.363  42.354   8.490
 1527POPC   C3A23249  25.431  42.519   8.107
 1527POPC   C4A23250  25.236  42.590   7.710
 1527POPC   C1B23251  24.982  42.223   8.848
 1527POPC   C2B23252  24.988  42.025   8.463
 1527POPC   C3B23253  24.873  42.153   8.082
 1527POPC   C4B23254  24.888  42.195   7.650
 1528POPC   NC323255  36.927  27.218   9.332
 1528POPC   PO423256  36.746  27.898   9.430
 1528POPC   GL123257  36.829  27.698   9.095
 1528POPC   GL223258  37.156  27.626   9.138
 1528POPC   C1A23259  36.751  27.848   8.691
 1528POPC   D2A23260  36.584  27.632   8.345
 1528POPC   C3A23261  36.756  27.670   7.932
 1528POPC   C4A23262  36.633  27.466   7.574
 1528POPC   C1B23263  37.156  27.495   8.715
 1528POPC   C2B23264  37.088  27.709   8.339
 1528POPC   C3B23265  37.276  27.709   7.975
 1528POPC   C4B23266  37.110  27.314   7.841
 1529POPC   NC323267  20.056  39.027   9.799
 1529POPC   PO423268  19.452  39.238   9.569
 1529POPC   GL123269  19.657  39.021   9.218
 1529POPC   GL223270  20.027  38.952   9.281
 1529POPC   C1A23271  19.646  39.083   8.761
 1529POPC   D2A23272  19.800  39.143   8.333
 1529POPC   C3A23273  19.612  39.393   7.989
 1529POPC   C4A23274  19.528  39.087   7.708
 1529POPC   C1B23275  20.111  38.851   8.841
 1529POPC   C2B23276  20.290  38.754   8.413
 1529POPC   C3B23277  20.210  39.007   8.050
 1529POPC   C4B23278  20.028  39.291   7.738
 1530POPC   NC323279  24.674  38.348   9.568
 1530POPC   PO423280  24.428  38.952   9.499
 1530POPC   GL123281  24.409  38.623   9.160
 1530POPC   GL223282  24.320  38.264   9.199
 1530POPC   C1A23283  24.647  38.535   8.768
 1530POPC   D2A23284  24.876  38.669   8.403
 1530POPC   C3A23285  24.665  38.497   8.001
 1530POPC   C4A23286  24.613  38.350   7.565
 1530POPC   C1B23287  24.174  38.340   8.775
 1530POPC   C2B23288  24.367  38.296   8.387
 1530POPC   C3B23289  24.158  38.295   8.015
 1530POPC   C4B23290  24.185  38.078   7.651
 1531POPC   NC323291   6.504  36.439   9.438
 1531POPC   PO423292   7.016  36.116   9.421
 1531POPC   GL123293   6.706  36.087   9.137
 1531POPC   GL223294   6.827  36.394   9.052
 1531POPC   C1A23295   6.374  36.140   8.836
 1531POPC   D2A23296   6.170  36.029   8.455
 1531POPC   C3A23297   6.356  36.171   8.073
 1531POPC   C4A23298   6.302  36.152   7.627
 1531POPC   C1B23299   6.944  36.175   8.689
 1531POPC   C2B23300   6.987  35.880   8.366
 1531POPC   C3B23301   6.930  35.684   7.991
 1531POPC   C4B23302   6.708  35.901   7.728
 1532POPC   NC323303   9.491  18.441   9.503
 1532POPC   PO423304  10.062  18.063   9.642
 1532POPC   GL123305  10.063  18.176   9.201
 1532POPC   GL223306   9.921  18.486   9.199
 1532POPC   C1A23307   9.674  18.050   8.972
 1532POPC   D2A23308   9.527  18.070   8.544
 1532POPC   C3A23309   9.662  18.269   8.160
 1532POPC   C4A23310   9.589  18.388   7.728
 1532POPC   C1B23311   9.692  18.513   8.795
 1532POPC   C2B23312   9.797  18.737   8.410
 1532POPC   C3B23313   9.529  18.788   8.044
 1532POPC   C4B23314   9.608  18.924   7.620
 1533POPC   NC323315   0.917   1.856   9.481
 1533POPC   PO423316   1.441   2.074   9.787
 1533POPC   GL123317   1.229   2.149   9.242
 1533POPC   GL223318   0.951   2.185   9.090
 1533POPC   C1A23319   1.322   2.027   8.784
 1533POPC   D2A23320   1.086   1.772   8.477
 1533POPC   C3A23321   1.224   1.905   8.059
 1533POPC   C4A23322   1.428   1.775   7.668
 1533POPC   C1B23323   0.826   2.206   8.698
 1533POPC   C2B23324   0.820   2.167   8.295
 1533POPC   C3B23325   0.732   2.171   7.912
 1533POPC   C4B23326   1.015   2.046   7.587
 1534POPC   NC323327  21.125   9.318   9.429
 1534POPC   PO423328  21.440   9.839   9.732
 1534POPC   GL123329  21.520   9.835   9.231
 1534POPC   GL223330  21.163   9.739   9.091
 1534POPC   C1A23331  21.562   9.712   8.777
 1534POPC   D2A23332  21.526   9.356   8.503
 1534POPC   C3A23333  21.490   9.551   8.098
 1534POPC   C4A23334  21.685   9.886   7.871
 1534POPC   C1B23335  20.876   9.877   8.735
 1534POPC   C2B23336  20.814   9.994   8.296
 1534POPC   C3B23337  21.140   9.941   7.950
 1534POPC   C4B23338  21.196   9.650   7.581
 1535POPC   NC323339  22.092  11.294   9.533
 1535POPC   PO423340  22.410  10.836   9.267
 1535POPC   GL123341  22.246  11.135   9.057
 1535POPC   GL223342  21.873  11.127   9.070
 1535POPC   C1A23343  22.243  11.150   8.634
 1535POPC   D2A23344  21.954  11.249   8.337
 1535POPC   C3A23345  22.062  11.160   7.906
 1535POPC   C4A23346  22.322  11.339   7.595
 1535POPC   C1B23347  21.993  11.530   8.825
 1535POPC   C2B23348  21.956  11.761   8.440
 1535POPC   C3B23349  22.108  11.649   8.055
 1535POPC   C4B23350  21.936  11.736   7.706
 1536POPC   NC323351  29.972  19.019   9.690
 1536POPC   PO423352  29.695  19.585   9.682
 1536POPC   GL123353  29.885  19.312   9.274
 1536POPC   GL223354  29.978  18.951   9.193
 1536POPC   C1A23355  29.859  19.223   8.795
 1536POPC   D2A23356  29.714  18.990   8.428
 1536POPC   C3A23357  29.883  19.182   8.077
 1536POPC   C4A23358  29.800  19.352   7.705
 1536POPC   C1B23359  30.243  18.879   8.840
 1536POPC   C2B23360  30.228  19.029   8.434
 1536POPC   C3B23361  30.352  18.971   8.033
 1536POPC   C4B23362  30.180  18.810   7.680
 1537POPC   NC323363   9.964  15.907   9.561
 1537POPC   PO423364   9.438  16.128   9.520
 1537POPC   GL123365   9.695  15.916   9.141
 1537POPC   GL223366  10.056  15.769   9.088
 1537POPC   C1A23367   9.700  15.850   8.705
 1537POPC   D2A23368   9.456  15.849   8.349
 1537POPC   C3A23369   9.682  15.913   8.020
 1537POPC   C4A23370   9.861  16.153   7.655
 1537POPC   C1B23371  10.102  15.514   8.736
 1537POPC   C2B23372   9.895  15.493   8.325
 1537POPC   C3B23373   9.950  15.532   7.861
 1537POPC   C4B23374   9.651  15.705   7.546
 1538POPC   NC323375  21.509  10.788   9.339
 1538POPC   PO423376  21.275  11.378   9.618
 1538POPC   GL123377  21.349  11.269   9.194
 1538POPC   GL223378  21.048  11.097   9.168
 1538POPC   C1A23379  21.490  11.401   8.773
 1538POPC   D2A23380  21.440  11.257   8.348
 1538POPC   C3A23381  21.626  11.443   7.982
 1538POPC   C4A23382  21.449  11.697   7.637
 1538POPC   C1B23383  21.100  11.055   8.706
 1538POPC   C2B23384  21.106  10.884   8.272
 1538POPC   C3B23385  21.419  10.910   7.942
 1538POPC   C4B23386  21.312  11.207   7.640
 1539POPC   NC323387  44.306  21.100   9.836
 1539POPC   PO423388  44.820  21.416   9.540
 1539POPC   GL123389  44.650  21.404   9.148
 1539POPC   GL223390  44.802  21.072   9.129
 1539POPC   C1A23391  44.444  21.317   8.731
 1539POPC   D2A23392  44.513  21.379   8.320
 1539POPC   C3A23393  44.722  21.499   7.944
 1539POPC   C4A23394  44.410  21.409   7.632
 1539POPC   C1B23395  44.954  21.288   8.732
 1539POPC   C2B23396  44.913  21.092   8.330
 1539POPC   C3B23397  44.682  20.992   7.953
 1539POPC   C4B23398  44.830  21.118   7.548
 1540POPC   NC323399  33.279  40.650   9.567
 1540POPC   PO423400  32.667  40.807   9.473
 1540POPC   GL123401  32.935  40.735   9.152
 1540POPC   GL223402  33.158  40.998   9.072
 1540POPC   C1A23403  33.050  40.651   8.717
 1540POPC   D2A23404  32.903  40.795   8.301
 1540POPC   C3A23405  32.892  40.542   7.916
 1540POPC   C4A23406  33.059  40.534   7.501
 1540POPC   C1B23407  33.410  41.018   8.687
 1540POPC   C2B23408  33.368  40.994   8.242
 1540POPC   C3B23409  33.330  40.853   7.813
 1540POPC   C4B23410  33.405  40.883   7.354
 1541POPC   NC323411   8.307   7.276   9.410
 1541POPC   PO423412   8.052   7.901   9.428
 1541POPC   GL123413   8.236   7.680   9.087
 1541POPC   GL223414   8.060   7.367   8.980
 1541POPC   C1A23415   8.509   7.462   8.761
 1541POPC   D2A23416   8.448   7.220   8.366
 1541POPC   C3A23417   8.311   7.426   7.998
 1541POPC   C4A23418   8.517   7.687   7.690
 1541POPC   C1B23419   7.858   7.086   8.697
 1541POPC   C2B23420   7.951   7.111   8.276
 1541POPC   C3B23421   7.731   7.185   7.906
 1541POPC   C4B23422   7.804   7.287   7.442
 1542POPC   NC323423  15.612   1.917   9.757
 1542POPC   PO423424  16.144   2.180   9.506
 1542POPC   GL123425  16.182   1.856   9.181
 1542POPC   GL223426  15.991   1.592   9.072
 1542POPC   C1A23427  16.342   1.836   8.774
 1542POPC   D2A23428  16.261   1.814   8.351
 1542POPC   C3A23429  16.193   2.066   7.983
 1542POPC   C4A23430  16.152   1.952   7.566
 1542POPC   C1B23431  15.836   1.882   8.747
 1542POPC   C2B23432  15.761   1.824   8.309
 1542POPC   C3B23433  15.822   1.716   7.904
 1542POPC   C4B23434  15.471   1.588   7.714
 1543POPC   NC323435   5.910  14.706   9.381
 1543POPC   PO423436   5.523  14.050   9.476
 1543POPC   GL123437   5.577  14.376   9.169
 1543POPC   GL223438   5.909  14.237   9.127
 1543POPC   C1A23439   5.418  14.635   8.809
 1543POPC   D2A23440   5.403  14.440   8.392
 1543POPC   C3A23441   5.755  14.360   8.099
 1543POPC   C4A23442   5.931  14.148   7.759
 1543POPC   C1B23443   5.820  14.340   8.704
 1543POPC   C2B23444   5.948  14.694   8.430
 1543POPC   C3B23445   6.114  14.722   7.998
 1543POPC   C4B23446   6.267  14.722   7.577
 1544POPC   NC323447   4.985   1.055   9.555
 1544POPC   PO423448   5.530   1.396   9.688
 1544POPC   GL123449   5.326   1.392   9.227
 1544POPC   GL223450   5.275   1.033   9.133
 1544POPC   C1A23451   5.120   1.399   8.768
 1544POPC   D2A23452   5.262   1.314   8.290
 1544POPC   C3A23453   5.196   1.369   7.855
 1544POPC   C4A23454   5.395   1.187   7.478
 1544POPC   C1B23455   4.856   0.998   8.905
 1544POPC   C2B23456   4.853   1.044   8.459
 1544POPC   C3B23457   4.951   0.860   8.052
 1544POPC   C4B23458   4.983   0.944   7.610
 1545POPC   NC323459   6.424   3.546   9.534
 1545POPC   PO423460   7.114   3.657   9.736
 1545POPC   GL123461   6.866   3.650   9.276
 1545POPC   GL223462   6.879   3.346   9.091
 1545POPC   C1A23463   6.521   3.629   8.856
 1545POPC   D2A23464   6.328   3.480   8.414
 1545POPC   C3A23465   6.400   3.683   7.970
 1545POPC   C4A23466   6.526   3.595   7.528
 1545POPC   C1B23467   7.033   3.693   8.813
 1545POPC   C2B23468   6.815   3.772   8.453
 1545POPC   C3B23469   6.808   3.465   8.173
 1545POPC   C4B23470   6.954   3.417   7.781
 1546POPC   NC323471  16.036  42.890   9.629
 1546POPC   PO423472  15.573  43.319   9.803
 1546POPC   GL123473  15.715  43.143   9.320
 1546POPC   GL223474  16.075  43.073   9.158
 1546POPC   C1A23475  15.627  42.850   8.932
 1546POPC   D2A23476  15.601  42.730   8.478
 1546POPC   C3A23477  15.615  43.020   8.117
 1546POPC   C4A23478  15.875  43.124   7.757
 1546POPC   C1B23479  16.006  43.207   8.723
 1546POPC   C2B23480  16.093  43.001   8.315
 1546POPC   C3B23481  16.324  42.966   7.914
 1546POPC   C4B23482  16.339  43.270   7.583
 1547POPC   NC323483  24.061  41.083   9.442
 1547POPC   PO423484  23.580  40.630   9.491
 1547POPC   GL123485  23.746  40.807   9.148
 1547POPC   GL223486  23.624  41.164   9.170
 1547POPC   C1A23487  23.945  40.646   8.795
 1547POPC   D2A23488  24.231  40.782   8.482
 1547POPC   C3A23489  24.040  40.725   8.098
 1547POPC   C4A23490  23.982  40.609   7.691
 1547POPC   C1B23491  23.790  41.156   8.767
 1547POPC   C2B23492  23.950  41.227   8.371
 1547POPC   C3B23493  23.807  41.162   7.977
 1547POPC   C4B23494  23.716  41.046   7.580
 1548POPC   NC323495   7.742   8.240   9.389
 1548POPC   PO423496   8.399   8.513   9.455
 1548POPC   GL123497   8.263   8.244   9.077
 1548POPC   GL223498   7.955   8.164   8.934
 1548POPC   C1A23499   8.402   7.993   8.730
 1548POPC   D2A23500   8.202   7.720   8.426
 1548POPC   C3A23501   8.286   7.954   8.054
 1548POPC   C4A23502   8.249   8.152   7.651
 1548POPC   C1B23503   7.892   8.590   8.739
 1548POPC   C2B23504   8.116   8.744   8.354
 1548POPC   C3B23505   8.071   8.437   8.031
 1548POPC   C4B23506   7.775   8.049   8.021
 1549POPC   NC323507   0.985  17.900   9.500
 1549POPC   PO423508   1.514  18.437   9.546
 1549POPC   GL123509   1.363  18.134   9.235
 1549POPC   GL223510   1.120  18.386   9.193
 1549POPC   C1A23511   1.298  18.143   8.771
 1549POPC   D2A23512   1.486  18.119   8.324
 1549POPC   C3A23513   1.301  18.348   7.968
 1549POPC   C4A23514   1.300  18.826   7.890
 1549POPC   C1B23515   0.919  18.506   8.809
 1549POPC   C2B23516   1.035  18.522   8.370
 1549POPC   C3B23517   0.839  18.618   7.962
 1549POPC   C4B23518   0.566  18.556   7.625
 1550POPC   NC323519  38.791  27.464   9.551
 1550POPC   PO423520  39.197  27.928   9.437
 1550POPC   GL123521  39.017  27.570   9.108
 1550POPC   GL223522  38.803  27.220   9.122
 1550POPC   C1A23523  39.080  27.639   8.659
 1550POPC   D2A23524  39.325  27.816   8.347
 1550POPC   C3A23525  39.318  27.738   7.931
 1550POPC   C4A23526  39.268  28.003   7.592
 1550POPC   C1B23527  38.725  27.275   8.691
 1550POPC   C2B23528  39.010  27.248   8.329
 1550POPC   C3B23529  39.006  27.234   7.895
 1550POPC   C4B23530  38.978  27.553   7.593
 1551POPC   NC323531  44.409  42.523   9.431
 1551POPC   PO423532  43.840  42.826   9.629
 1551POPC   GL123533  43.939  42.638   9.208
 1551POPC   GL223534  44.223  42.483   8.980
 1551POPC   C1A23535  43.796  42.661   8.778
 1551POPC   D2A23536  43.692  42.816   8.379
 1551POPC   C3A23537  43.791  42.578   8.003
 1551POPC   C4A23538  44.200  42.452   7.834
 1551POPC   C1B23539  43.960  42.162   8.743
 1551POPC   C2B23540  43.799  42.163   8.310
 1551POPC   C3B23541  43.859  42.065   7.863
 1551POPC   C4B23542  43.978  41.922   7.398
 1552POPC   NC323543  22.099  18.015   9.461
 1552POPC   PO423544  21.809  18.694   9.525
 1552POPC   GL123545  21.989  18.505   9.130
 1552POPC   GL223546  22.170  18.188   8.993
 1552POPC   C1A23547  22.098  18.585   8.696
 1552POPC   D2A23548  21.857  18.497   8.349
 1552POPC   C3A23549  22.061  18.203   8.136
 1552POPC   C4A23550  22.189  17.999   7.794
 1552POPC   C1B23551  22.459  18.225   8.633
 1552POPC   C2B23552  22.581  18.159   8.211
 1552POPC   C3B23553  22.464  18.432   7.860
 1552POPC   C4B23554  22.364  18.646   7.436
 1553POPC   NC323555  39.233  37.620   9.416
 1553POPC   PO423556  39.728  38.140   9.450
 1553POPC   GL123557  39.460  37.957   9.081
 1553POPC   GL223558  39.073  37.856   8.998
 1553POPC   C1A23559  39.432  37.748   8.655
 1553POPC   D2A23560  39.080  37.707   8.328
 1553POPC   C3A23561  39.225  37.598   7.906
 1553POPC   C4A23562  39.584  37.328   7.750
 1553POPC   C1B23563  38.806  38.023   8.649
 1553POPC   C2B23564  38.771  38.129   8.217
 1553POPC   C3B23565  38.884  37.987   7.782
 1553POPC   C4B23566  39.034  37.954   7.341
 1554POPC   NC323567  37.002  33.144   9.506
 1554POPC   PO423568  36.654  32.518   9.492
 1554POPC   GL123569  36.727  32.743   9.108
 1554POPC   GL223570  37.062  32.890   9.064
 1554POPC   C1A23571  36.691  32.929   8.690
 1554POPC   D2A23572  36.763  33.270   8.388
 1554POPC   C3A23573  36.672  33.170   7.956
 1554POPC   C4A23574  36.476  32.811   7.760
 1554POPC   C1B23575  37.023  33.321   8.878
 1554POPC   C2B23576  37.206  33.492   8.523
 1554POPC   C3B23577  37.271  33.325   8.090
 1554POPC   C4B23578  37.067  33.372   7.670
 1555POPC   NC323579  41.832  37.540   9.467
 1555POPC   PO423580  41.225  37.928   9.406
 1555POPC   GL123581  41.407  37.589   9.158
 1555POPC   GL223582  41.639  37.807   9.039
 1555POPC   C1A23583  41.644  37.327   8.842
 1555POPC   D2A23584  41.794  37.392   8.419
 1555POPC   C3A23585  41.484  37.453   8.081
 1555POPC   C4A23586  41.506  37.694   7.704
 1555POPC   C1B23587  41.828  37.962   8.687
 1555POPC   C2B23588  41.707  37.877   8.265
 1555POPC   C3B23589  41.942  37.652   7.966
 1555POPC   C4B23590  41.971  38.037   7.763
 1556POPC   NC323591   7.497   5.915   9.633
 1556POPC   PO423592   7.808   5.408   9.482
 1556POPC   GL123593   7.474   5.556   9.194
 1556POPC   GL223594   7.298   5.907   9.172
 1556POPC   C1A23595   7.392   5.617   8.761
 1556POPC   D2A23596   7.299   5.776   8.393
 1556POPC   C3A23597   7.347   5.519   8.042
 1556POPC   C4A23598   7.610   5.757   7.800
 1556POPC   C1B23599   7.050   6.021   8.814
 1556POPC   C2B23600   6.912   6.107   8.387
 1556POPC   C3B23601   7.117   6.064   7.982
 1556POPC   C4B23602   6.984   6.297   7.656
 1557POPC   NC323603  36.101  30.162   9.376
 1557POPC   PO423604  36.203  29.499   9.420
 1557POPC   GL123605  36.156  29.801   9.031
 1557POPC   GL223606  36.450  30.038   8.979
 1557POPC   C1A23607  35.883  29.832   8.645
 1557POPC   D2A23608  36.002  29.585   8.270
 1557POPC   C3A23609  35.969  29.738   7.873
 1557POPC   C4A23610  35.877  30.150   7.719
 1557POPC   C1B23611  36.373  29.898   8.556
 1557POPC   C2B23612  36.170  30.085   8.185
 1557POPC   C3B23613  36.365  30.106   7.789
 1557POPC   C4B23614  36.697  30.333   7.783
 1558POPC   NC323615   2.041  29.861   9.629
 1558POPC   PO423616   1.807  30.321   9.348
 1558POPC   GL123617   1.792  29.908   9.159
 1558POPC   GL223618   2.142  29.824   9.118
 1558POPC   C1A23619   1.715  29.729   8.750
 1558POPC   D2A23620   1.676  29.985   8.367
 1558POPC   C3A23621   1.943  29.836   8.071
 1558POPC   C4A23622   2.008  29.935   7.670
 1558POPC   C1B23623   2.259  30.177   8.848
 1558POPC   C2B23624   2.420  30.290   8.450
 1558POPC   C3B23625   2.245  30.267   8.033
 1558POPC   C4B23626   2.381  30.346   7.600
 1559POPC   NC323627  13.848  14.951   9.385
 1559POPC   PO423628  13.562  15.505   9.590
 1559POPC   GL123629  13.613  15.342   9.170
 1559POPC   GL223630  13.876  15.505   8.998
 1559POPC   C1A23631  13.450  15.139   8.802
 1559POPC   D2A23632  13.314  15.290   8.406
 1559POPC   C3A23633  13.511  15.148   8.024
 1559POPC   C4A23634  13.417  14.795   7.713
 1559POPC   C1B23635  13.858  15.319   8.565
 1559POPC   C2B23636  13.878  14.891   8.355
 1559POPC   C3B23637  13.909  14.844   7.919
 1559POPC   C4B23638  13.990  15.250   7.775
 1560POPC   NC323639  32.552  24.791   9.282
 1560POPC   PO423640  32.255  24.321   9.667
 1560POPC   GL123641  32.135  24.494   9.230
 1560POPC   GL223642  31.847  24.610   9.223
 1560POPC   C1A23643  32.156  24.666   8.781
 1560POPC   D2A23644  32.376  24.547   8.422
 1560POPC   C3A23645  32.152  24.543   8.058
 1560POPC   C4A23646  32.414  24.489   7.740
 1560POPC   C1B23647  31.795  24.327   8.851
 1560POPC   C2B23648  31.985  24.194   8.469
 1560POPC   C3B23649  31.840  24.080   8.072
 1560POPC   C4B23650  32.023  24.167   7.667
 1561POPC   NC323651   6.394  29.717   9.634
 1561POPC   PO423652   6.914  30.137   9.459
 1561POPC   GL123653   6.688  29.979   9.094
 1561POPC   GL223654   6.334  29.908   9.124
 1561POPC   C1A23655   6.602  29.934   8.610
 1561POPC   D2A23656   6.850  29.989   8.231
 1561POPC   C3A23657   6.735  29.939   7.788
 1561POPC   C4A23658   6.670  30.109   7.376
 1561POPC   C1B23659   6.180  29.694   8.720
 1561POPC   C2B23660   6.068  29.763   8.283
 1561POPC   C3B23661   6.114  29.549   7.886
 1561POPC   C4B23662   6.521  29.496   7.703
 1562POPC   NC323663  34.514   7.713   9.879
 1562POPC   PO423664  34.990   7.389   9.547
 1562POPC   GL123665  34.679   7.412   9.203
 1562POPC   GL223666  34.404   7.174   9.256
 1562POPC   C1A23667  34.642   7.609   8.800
 1562POPC   D2A23668  34.787   7.535   8.403
 1562POPC   C3A23669  34.489   7.688   8.152
 1562POPC   C4A23670  34.432   7.586   7.753
 1562POPC   C1B23671  34.456   7.099   8.817
 1562POPC   C2B23672  34.360   7.254   8.405
 1562POPC   C3B23673  34.403   7.129   7.987
 1562POPC   C4B23674  34.417   7.093   7.540
 1563POPC   NC323675  25.648  41.675   9.412
 1563POPC   PO423676  26.130  41.339   9.603
 1563POPC   GL123677  26.349  41.502   9.239
 1563POPC   GL223678  26.073  41.721   9.129
 1563POPC   C1A23679  26.428  41.644   8.792
 1563POPC   D2A23680  26.153  41.766   8.446
 1563POPC   C3A23681  26.223  41.496   8.094
 1563POPC   C4A23682  26.257  41.517   7.660
 1563POPC   C1B23683  25.788  41.564   8.773
 1563POPC   C2B23684  25.779  41.390   8.333
 1563POPC   C3B23685  25.733  41.521   7.891
 1563POPC   C4B23686  25.823  41.793   7.532
 1564POPC   NC323687  36.592  25.178   9.304
 1564POPC   PO423688  37.266  25.342   9.491
 1564POPC   GL123689  37.025  25.395   9.123
 1564POPC   GL223690  37.123  25.080   8.972
 1564POPC   C1A23691  36.917  25.494   8.683
 1564POPC   D2A23692  36.981  25.254   8.278
 1564POPC   C3A23693  36.714  25.351   7.900
 1564POPC   C4A23694  36.685  25.488   7.434
 1564POPC   C1B23695  37.388  25.264   8.621
 1564POPC   C2B23696  37.514  25.416   8.223
 1564POPC   C3B23697  37.216  25.510   7.891
 1564POPC   C4B23698  37.089  25.194   7.596
 1565POPC   NC323699  41.139   2.072   9.475
 1565POPC   PO423700  41.723   1.762   9.400
 1565POPC   GL123701  41.483   1.893   9.084
 1565POPC   GL223702  41.440   2.284   9.123
 1565POPC   C1A23703  41.585   1.652   8.713
 1565POPC   D2A23704  41.872   1.778   8.400
 1565POPC   C3A23705  41.692   1.959   8.054
 1565POPC   C4A23706  41.768   2.255   7.769
 1565POPC   C1B23707  41.290   2.279   8.702
 1565POPC   C2B23708  41.156   2.155   8.263
 1565POPC   C3B23709  41.265   2.206   7.813
 1565POPC   C4B23710  41.194   2.333   7.355
 1566POPC   NC323711  42.364  19.593   9.565
 1566POPC   PO423712  42.246  20.199   9.385
 1566POPC   GL123713  42.359  19.902   9.067
 1566POPC   GL223714  42.618  19.668   9.088
 1566POPC   C1A23715  42.574  20.067   8.717
 1566POPC   D2A23716  42.404  20.289   8.367
 1566POPC   C3A23717  42.552  20.067   7.986
 1566POPC   C4A23718  42.402  19.759   7.720
 1566POPC   C1B23719  42.470  19.578   8.654
 1566POPC   C2B23720  42.436  19.521   8.205
 1566POPC   C3B23721  42.350  19.272   7.827
 1566POPC   C4B23722  42.576  19.344   7.460
 1567POPC   NC323723   4.575  13.090   9.830
 1567POPC   PO423724   4.146  12.758   9.374
 1567POPC   GL123725   4.141  12.942   9.013
 1567POPC   GL223726   4.426  12.670   8.963
 1567POPC   C1A23727   4.378  13.047   8.636
 1567POPC   D2A23728   4.640  13.048   8.296
 1567POPC   C3A23729   4.328  13.127   7.983
 1567POPC   C4A23730   4.218  13.016   7.561
 1567POPC   C1B23731   4.093  12.608   8.655
 1567POPC   C2B23732   4.119  12.728   8.227
 1567POPC   C3B23733   4.317  12.599   7.847
 1567POPC   C4B23734   4.688  12.411   7.607
 1568POPC   NC323735  21.827  23.338   9.921
 1568POPC   PO423736  21.785  22.727   9.630
 1568POPC   GL123737  21.791  22.822   9.146
 1568POPC   GL223738  22.052  23.081   9.067
 1568POPC   C1A23739  21.872  22.821   8.651
 1568POPC   D2A23740  21.812  22.675   8.209
 1568POPC   C3A23741  21.934  22.938   7.833
 1568POPC   C4A23742  21.923  23.099   7.388
 1568POPC   C1B23743  22.356  22.953   8.718
 1568POPC   C2B23744  22.311  22.645   8.373
 1568POPC   C3B23745  22.348  22.636   7.925
 1568POPC   C4B23746  22.437  22.979   7.636
 1569POPC   NC323747  34.706   9.295   9.281
 1569POPC   PO423748  34.235   8.762   9.428
 1569POPC   GL123749  34.545   8.799   9.149
 1569POPC   GL223750  34.372   9.058   9.006
 1569POPC   C1A23751  34.775   8.784   8.770
 1569POPC   D2A23752  34.834   9.004   8.381
 1569POPC   C3A23753  34.631   8.838   8.003
 1569POPC   C4A23754  34.349   9.096   7.767
 1569POPC   C1B23755  34.266   8.806   8.711
 1569POPC   C2B23756  34.394   8.565   8.386
 1569POPC   C3B23757  34.121   8.643   8.064
 1569POPC   C4B23758  33.983   8.775   7.661
 1570POPC   NC323759  29.336  24.735   9.488
 1570POPC   PO423760  29.131  24.118   9.384
 1570POPC   GL123761  29.171  24.430   9.061
 1570POPC   GL223762  29.498  24.460   9.089
 1570POPC   C1A23763  29.045  24.507   8.610
 1570POPC   D2A23764  29.073  24.215   8.246
 1570POPC   C3A23765  29.223  24.327   7.831
 1570POPC   C4A23766  29.077  24.310   7.405
 1570POPC   C1B23767  29.472  24.749   8.744
 1570POPC   C2B23768  29.396  24.744   8.295
 1570POPC   C3B23769  29.536  24.794   7.857
 1570POPC   C4B23770  29.552  24.521   7.483
 1571POPC   NC323771  39.471  42.590   9.471
 1571POPC   PO423772  38.993  42.126   9.633
 1571POPC   GL123773  39.120  42.332   9.239
 1571POPC   GL223774  39.429  42.180   9.111
 1571POPC   C1A23775  39.242  42.546   8.818
 1571POPC   D2A23776  39.319  42.341   8.410
 1571POPC   C3A23777  39.158  42.517   8.046
 1571POPC   C4A23778  39.318  42.663   7.657
 1571POPC   C1B23779  39.504  41.977   8.718
 1571POPC   C2B23780  39.601  41.887   8.291
 1571POPC   C3B23781  39.432  42.101   7.920
 1571POPC   C4B23782  39.421  42.214   7.446
 1572POPC   NC323783  44.221  41.591   9.558
 1572POPC   PO423784  44.086  42.188   9.443
 1572POPC   GL123785  43.949  41.788   9.173
 1572POPC   GL223786  43.969  41.366   9.172
 1572POPC   C1A23787  43.985  41.621   8.765
 1572POPC   D2A23788  43.810  41.658   8.403
 1572POPC   C3A23789  44.042  41.420   8.161
 1572POPC   C4A23790  44.088  41.626   7.792
 1572POPC   C1B23791  43.620  41.265   8.820
 1572POPC   C2B23792  43.432  41.336   8.372
 1572POPC   C3B23793  43.587  41.241   7.987
 1572POPC   C4B23794  43.519  40.999   7.591
 1573POPC   NC323795  37.397  31.390   9.450
 1573POPC   PO423796  36.854  31.781   9.671
 1573POPC   GL123797  36.955  31.320   9.258
 1573POPC   GL223798  36.654  31.247   9.035
 1573POPC   C1A23799  37.097  31.269   8.782
 1573POPC   D2A23800  37.230  31.460   8.379
 1573POPC   C3A23801  37.045  31.491   7.949
 1573POPC   C4A23802  37.185  31.342   7.508
 1573POPC   C1B23803  36.652  31.022   8.667
 1573POPC   C2B23804  36.807  31.144   8.255
 1573POPC   C3B23805  36.686  31.170   7.791
 1573POPC   C4B23806  36.468  31.238   7.371
 1574POPC   NC323807  22.421  10.395   9.395
 1574POPC   PO423808  21.802  10.597   9.674
 1574POPC   GL123809  21.976  10.574   9.176
 1574POPC   GL223810  21.714  10.614   8.901
 1574POPC   C1A23811  22.171  10.642   8.710
 1574POPC   D2A23812  21.908  10.738   8.353
 1574POPC   C3A23813  22.118  10.665   7.979
 1574POPC   C4A23814  22.518  10.402   7.906
 1574POPC   C1B23815  21.852  10.235   8.666
 1574POPC   C2B23816  22.041  10.227   8.238
 1574POPC   C3B23817  22.030  10.237   7.754
 1574POPC   C4B23818  21.896  10.295   7.337
 1575POPC   NC323819   5.823  34.335   9.471
 1575POPC   PO423820   5.979  34.973   9.455
 1575POPC   GL123821   5.768  34.815   9.057
 1575POPC   GL223822   5.688  34.396   8.995
 1575POPC   C1A23823   5.590  34.745   8.659
 1575POPC   D2A23824   5.690  34.359   8.464
 1575POPC   C3A23825   5.746  34.433   8.055
 1575POPC   C4A23826   5.669  34.142   7.775
 1575POPC   C1B23827   6.070  34.523   8.777
 1575POPC   C2B23828   6.236  34.349   8.398
 1575POPC   C3B23829   6.217  34.262   7.964
 1575POPC   C4B23830   6.409  34.408   7.580
 1576POPC   NC323831  27.357  22.018   9.643
 1576POPC   PO423832  27.909  22.041   9.700
 1576POPC   GL123833  27.742  21.964   9.256
 1576POPC   GL223834  27.405  22.077   9.133
 1576POPC   C1A23835  27.809  22.019   8.773
 1576POPC   D2A23836  27.947  21.916   8.320
 1576POPC   C3A23837  27.970  22.251   7.967
 1576POPC   C4A23838  27.702  22.286   7.551
 1576POPC   C1B23839  27.304  22.193   8.687
 1576POPC   C2B23840  27.489  22.194   8.252
 1576POPC   C3B23841  27.605  21.913   7.920
 1576POPC   C4B23842  27.463  21.834   7.535
 1577POPC   NC323843   4.645  40.653   9.446
 1577POPC   PO423844   3.982  40.884   9.671
 1577POPC   GL123845   4.169  40.952   9.215
 1577POPC   GL223846   4.385  40.702   9.006
 1577POPC   C1A23847   4.030  40.966   8.775
 1577POPC   D2A23848   4.297  40.800   8.455
 1577POPC   C3A23849   4.116  40.844   8.067
 1577POPC   C4A23850   4.288  40.904   7.680
 1577POPC   C1B23851   4.157  40.382   8.715
 1577POPC   C2B23852   4.074  40.315   8.270
 1577POPC   C3B23853   4.311  40.378   7.900
 1577POPC   C4B23854   4.425  40.421   7.489
 1578POPC   NC323855  21.694  36.499   9.451
 1578POPC   PO423856  22.270  36.019   9.493
 1578POPC   GL123857  22.085  36.258   9.213
 1578POPC   GL223858  21.839  36.010   9.191
 1578POPC   C1A23859  21.982  36.331   8.804
 1578POPC   D2A23860  22.066  36.165   8.393
 1578POPC   C3A23861  22.408  36.356   8.156
 1578POPC   C4A23862  22.423  36.385   7.727
 1578POPC   C1B23863  21.782  35.855   8.776
 1578POPC   C2B23864  21.569  35.895   8.400
 1578POPC   C3B23865  21.658  36.188   8.099
 1578POPC   C4B23866  21.939  36.214   7.795
 1579POPC   NC323867  21.063  35.148   9.595
 1579POPC   PO423868  21.537  35.569   9.458
 1579POPC   GL123869  21.359  35.338   9.166
 1579POPC   GL223870  21.298  34.989   9.177
 1579POPC   C1A23871  21.387  35.414   8.764
 1579POPC   D2A23872  21.665  35.392   8.448
 1579POPC   C3A23873  21.513  35.454   8.079
 1579POPC   C4A23874  21.559  35.244   7.705
 1579POPC   C1B23875  21.115  34.952   8.785
 1579POPC   C2B23876  21.187  35.156   8.380
 1579POPC   C3B23877  21.134  35.098   7.975
 1579POPC   C4B23878  21.086  35.449   7.756
 1580POPC   NC323879   9.189  27.727   9.664
 1580POPC   PO423880   8.681  27.389   9.648
 1580POPC   GL123881   8.793  27.708   9.292
 1580POPC   GL223882   9.172  27.684   9.165
 1580POPC   C1A23883   8.828  27.794   8.824
 1580POPC   D2A23884   8.902  27.705   8.398
 1580POPC   C3A23885   9.094  27.899   8.061
 1580POPC   C4A23886   8.846  27.772   7.754
 1580POPC   C1B23887   9.287  27.570   8.720
 1580POPC   C2B23888   9.357  27.486   8.241
 1580POPC   C3B23889   9.370  27.543   7.742
 1580POPC   C4B23890   9.390  27.381   7.288
 1581POPC   NC323891  14.250  27.079   9.303
 1581POPC   PO423892  14.732  26.849   9.720
 1581POPC   GL123893  14.769  26.988   9.270
 1581POPC   GL223894  14.542  26.730   9.085
 1581POPC   C1A23895  14.708  27.134   8.833
 1581POPC   D2A23896  14.470  26.891   8.516
 1581POPC   C3A23897  14.483  27.019   8.070
 1581POPC   C4A23898  14.593  26.881   7.636
 1581POPC   C1B23899  14.226  26.533   8.822
 1581POPC   C2B23900  14.222  26.434   8.384
 1581POPC   C3B23901  14.270  26.562   7.936
 1581POPC   C4B23902  14.325  26.473   7.454
 1582POPC   NC323903  16.854  12.610   9.744
 1582POPC   PO423904  16.299  12.925   9.574
 1582POPC   GL123905  16.667  12.838   9.315
 1582POPC   GL223906  16.687  12.496   9.192
 1582POPC   C1A23907  16.885  12.998   8.953
 1582POPC   D2A23908  16.787  13.017   8.500
 1582POPC   C3A23909  16.944  12.797   8.140
 1582POPC   C4A23910  16.855  12.790   7.669
 1582POPC   C1B23911  16.590  12.618   8.798
 1582POPC   C2B23912  16.617  12.504   8.396
 1582POPC   C3B23913  16.486  12.619   8.006
 1582POPC   C4B23914  16.439  12.423   7.645
 1583POPC   NC323915  16.240  17.782   9.895
 1583POPC   PO423916  16.631  17.357   9.501
 1583POPC   GL123917  16.846  17.441   9.124
 1583POPC   GL223918  17.175  17.639   9.131
 1583POPC   C1A23919  16.637  17.344   8.715
 1583POPC   D2A23920  16.373  17.312   8.327
 1583POPC   C3A23921  16.412  17.584   7.932
 1583POPC   C4A23922  16.308  17.990   7.758
 1583POPC   C1B23923  17.180  17.450   8.729
 1583POPC   C2B23924  16.988  17.328   8.340
 1583POPC   C3B23925  16.950  17.448   7.932
 1583POPC   C4B23926  16.866  17.301   7.536
 1584POPC   NC323927  26.855  18.544   9.960
 1584POPC   PO423928  27.043  17.926   9.782
 1584POPC   GL123929  26.956  18.156   9.379
 1584POPC   GL223930  26.789  18.503   9.370
 1584POPC   C1A23931  26.908  18.119   8.927
 1584POPC   D2A23932  26.927  18.153   8.468
 1584POPC   C3A23933  26.745  18.294   8.108
 1584POPC   C4A23934  26.551  18.309   7.725
 1584POPC   C1B23935  26.742  18.603   8.921
 1584POPC   C2B23936  26.481  18.490   8.540
 1584POPC   C3B23937  26.374  18.644   8.115
 1584POPC   C4B23938  26.522  18.817   7.705
 1585POPC   NC323939  15.290  28.999   9.527
 1585POPC   PO423940  15.487  29.641   9.597
 1585POPC   GL123941  15.365  29.447   9.231
 1585POPC   GL223942  15.216  29.173   9.058
 1585POPC   C1A23943  15.525  29.484   8.809
 1585POPC   D2A23944  15.411  29.361   8.396
 1585POPC   C3A23945  15.182  29.570   8.091
 1585POPC   C4A23946  15.422  29.320   7.797
 1585POPC   C1B23947  15.014  29.247   8.711
 1585POPC   C2B23948  15.009  29.063   8.334
 1585POPC   C3B23949  14.958  29.130   7.905
 1585POPC   C4B23950  14.792  29.099   7.453
 1586POPC   NC323951  20.331  22.823   9.570
 1586POPC   PO423952  20.870  23.100   9.474
 1586POPC   GL123953  20.588  23.039   9.148
 1586POPC   GL223954  20.421  22.743   9.085
 1586POPC   C1A23955  20.564  23.151   8.736
 1586POPC   D2A23956  20.419  23.129   8.295
 1586POPC   C3A23957  20.756  23.153   7.987
 1586POPC   C4A23958  20.990  22.903   7.664
 1586POPC   C1B23959  20.262  22.750   8.697
 1586POPC   C2B23960  20.248  22.615   8.305
 1586POPC   C3B23961  20.370  22.684   7.862
 1586POPC   C4B23962  20.241  22.495   7.476
 1587POPC   NC323963   6.204  16.325   9.462
 1587POPC   PO423964   5.887  15.764   9.514
 1587POPC   GL123965   5.905  16.006   9.161
 1587POPC   GL223966   6.250  15.943   9.108
 1587POPC   C1A23967   5.907  15.969   8.722
 1587POPC   D2A23968   5.845  15.690   8.377
 1587POPC   C3A23969   5.684  15.921   8.024
 1587POPC   C4A23970   5.931  16.079   7.690
 1587POPC   C1B23971   6.321  15.645   8.774
 1587POPC   C2B23972   6.374  15.616   8.336
 1587POPC   C3B23973   6.154  15.655   7.947
 1587POPC   C4B23974   6.105  15.641   7.487
 1588POPC   NC323975   9.149  21.150   9.533
 1588POPC   PO423976   8.488  21.583   9.605
 1588POPC   GL123977   8.775  21.411   9.270
 1588POPC   GL223978   8.723  21.025   9.261
 1588POPC   C1A23979   9.019  21.582   8.893
 1588POPC   D2A23980   9.121  21.417   8.487
 1588POPC   C3A23981   9.091  21.612   8.092
 1588POPC   C4A23982   9.038  21.547   7.650
 1588POPC   C1B23983   8.826  21.120   8.825
 1588POPC   C2B23984   8.660  21.222   8.379
 1588POPC   C3B23985   8.785  21.202   7.927
 1588POPC   C4B23986   8.717  21.180   7.444
 1589POPC   NC323987  35.001  24.596   9.240
 1589POPC   PO423988  34.507  24.394   9.689
 1589POPC   GL123989  34.537  24.394   9.266
 1589POPC   GL223990  34.612  24.118   9.152
 1589POPC   C1A23991  34.472  24.451   8.817
 1589POPC   D2A23992  34.639  24.503   8.399
 1589POPC   C3A23993  34.276  24.475   8.137
 1589POPC   C4A23994  34.179  24.508   7.690
 1589POPC   C1B23995  34.853  24.064   8.762
 1589POPC   C2B23996  35.027  23.921   8.361
 1589POPC   C3B23997  35.041  24.178   8.045
 1589POPC   C4B23998  34.710  24.438   7.867
 1590POPC   NC323999   1.562  25.006   9.475
 1590POPC   PO424000   1.030  25.505   9.518
 1590POPC   GL124001   1.242  25.367   9.197
 1590POPC   GL224002   0.992  25.562   9.002
 1590POPC   C1A24003   1.412  25.319   8.796
 1590POPC   D2A24004   1.310  25.108   8.430
 1590POPC   C3A24005   1.316  25.331   8.059
 1590POPC   C4A24006   1.200  25.105   7.705
 1590POPC   C1B24007   0.933  25.150   8.833
 1590POPC   C2B24008   0.817  25.246   8.447
 1590POPC   C3B24009   0.813  25.167   8.037
 1590POPC   C4B24010   0.885  25.535   7.773
 1591POPC   NC324011   6.460   1.896   9.596
 1591POPC   PO424012   7.003   2.179   9.418
 1591POPC   GL124013   6.726   1.975   9.152
 1591POPC   GL224014   6.741   1.635   9.270
 1591POPC   C1A24015   6.534   2.119   8.764
 1591POPC   D2A24016   6.799   2.205   8.400
 1591POPC   C3A24017   6.794   1.998   7.985
 1591POPC   C4A24018   6.425   2.078   7.715
 1591POPC   C1B24019   6.574   1.609   8.834
 1591POPC   C2B24020   6.600   1.721   8.424
 1591POPC   C3B24021   6.403   1.648   8.053
 1591POPC   C4B24022   6.580   1.576   7.681
 1592POPC   NC324023  14.436  17.517   9.587
 1592POPC   PO424024  14.832  17.410   9.060
 1592POPC   GL124025  14.357  17.431   9.101
 1592POPC   GL224026  14.099  17.163   9.039
 1592POPC   C1A24027  14.206  17.650   8.776
 1592POPC   D2A24028  14.468  17.730   8.432
 1592POPC   C3A24029  14.342  17.607   8.042
 1592POPC   C4A24030  14.438  17.570   7.642
 1592POPC   C1B24031  14.392  17.094   8.730
 1592POPC   C2B24032  14.492  17.196   8.319
 1592POPC   C3B24033  14.284  17.102   7.937
 1592POPC   C4B24034  14.465  17.055   7.530
 1593POPC   NC324035  42.340   4.433   9.616
 1593POPC   PO424036  41.931   3.948   9.522
 1593POPC   GL124037  42.302   4.049   9.218
 1593POPC   GL224038  42.408   4.412   9.112
 1593POPC   C1A24039  42.450   3.988   8.775
 1593POPC   D2A24040  42.548   4.198   8.364
 1593POPC   C3A24041  42.512   3.974   8.059
 1593POPC   C4A24042  42.445   4.111   7.683
 1593POPC   C1B24043  42.567   4.569   8.733
 1593POPC   C2B24044  42.396   4.698   8.338
 1593POPC   C3B24045  42.478   4.555   7.930
 1593POPC   C4B24046  42.713   4.542   7.535
 1594POPC   NC324047  41.171  32.597   9.552
 1594POPC   PO424048  40.656  33.129   9.605
 1594POPC   GL124049  40.762  33.017   9.170
 1594POPC   GL224050  40.489  32.776   9.095
 1594POPC   C1A24051  41.016  33.102   8.754
 1594POPC   D2A24052  40.874  33.224   8.308
 1594POPC   C3A24053  41.098  33.223   7.889
 1594POPC   C4A24054  41.031  32.858   7.586
 1594POPC   C1B24055  40.502  33.047   8.724
 1594POPC   C2B24056  40.347  32.943   8.335
 1594POPC   C3B24057  40.311  33.088   7.945
 1594POPC   C4B24058  40.639  33.186   7.680
 1595POPC   NC324059  42.184  30.307   9.233
 1595POPC   PO424060  42.495  30.808   9.637
 1595POPC   GL124061  42.462  30.847   9.150
 1595POPC   GL224062  42.618  30.568   9.115
 1595POPC   C1A24063  42.265  30.755   8.734
 1595POPC   D2A24064  42.366  30.884   8.320
 1595POPC   C3A24065  42.147  31.097   7.997
 1595POPC   C4A24066  42.030  30.772   7.771
 1595POPC   C1B24067  42.630  30.379   8.716
 1595POPC   C2B24068  42.643  30.257   8.300
 1595POPC   C3B24069  42.531  30.481   7.953
 1595POPC   C4B24070  42.596  30.890   7.844
 1596POPC   NC324071  26.869  37.599   9.839
 1596POPC   PO424072  26.961  38.274   9.686
 1596POPC   GL124073  26.819  38.042   9.252
 1596POPC   GL224074  26.921  37.685   9.229
 1596POPC   C1A24075  26.910  37.926   8.761
 1596POPC   D2A24076  27.069  37.589   8.405
 1596POPC   C3A24077  27.009  37.674   7.953
 1596POPC   C4A24078  26.610  37.698   7.756
 1596POPC   C1B24079  26.903  37.390   8.852
 1596POPC   C2B24080  26.607  37.369   8.503
 1596POPC   C3B24081  26.698  37.290   8.067
 1596POPC   C4B24082  26.774  37.230   7.608
 1597POPC   NC324083  34.006  12.393   9.518
 1597POPC   PO424084  33.499  11.934   9.404
 1597POPC   GL124085  33.707  12.244   9.083
 1597POPC   GL224086  34.091  12.247   9.064
 1597POPC   C1A24087  33.854  12.212   8.634
 1597POPC   D2A24088  34.131  12.363   8.326
 1597POPC   C3A24089  33.924  12.346   7.972
 1597POPC   C4A24090  34.013  12.213   7.595
 1597POPC   C1B24091  34.158  11.859   8.843
 1597POPC   C2B24092  34.253  11.857   8.420
 1597POPC   C3B24093  34.111  11.875   8.042
 1597POPC   C4B24094  34.074  11.642   7.710
 1598POPC   NC324095  43.459  31.719   9.391
 1598POPC   PO424096  42.992  32.176   9.421
 1598POPC   GL124097  43.136  32.336   9.039
 1598POPC   GL224098  43.172  31.984   8.944
 1598POPC   C1A24099  43.294  32.429   8.600
 1598POPC   D2A24100  43.428  32.142   8.234
 1598POPC   C3A24101  43.231  32.164   7.802
 1598POPC   C4A24102  43.231  31.974   7.351
 1598POPC   C1B24103  42.864  32.173   8.645
 1598POPC   C2B24104  42.919  32.315   8.191
 1598POPC   C3B24105  42.724  32.234   7.750
 1598POPC   C4B24106  42.701  32.035   7.309
 1599POPC   NC324107  26.500  11.508   9.738
 1599POPC   PO424108  26.738  11.025   9.570
 1599POPC   GL124109  26.698  11.316   9.207
 1599POPC   GL224110  26.673  11.694   9.236
 1599POPC   C1A24111  26.785  11.235   8.746
 1599POPC   D2A24112  26.960  11.069   8.339
 1599POPC   C3A24113  26.874  11.237   7.939
 1599POPC   C4A24114  26.575  11.437   7.664
 1599POPC   C1B24115  26.856  11.735   8.786
 1599POPC   C2B24116  26.798  11.581   8.340
 1599POPC   C3B24117  26.908  11.753   7.906
 1599POPC   C4B24118  26.910  11.762   7.428
 1600POPC   NC324119  20.055  43.051   9.604
 1600POPC   PO424120  19.447  43.147   9.354
 1600POPC   GL124121  19.733  43.185   9.040
 1600POPC   GL224122  20.068  43.202   9.133
 1600POPC   C1A24123  19.750  43.264   8.610
 1600POPC   D2A24124  19.859  42.981   8.287
 1600POPC   C3A24125  19.847  43.052   7.857
 1600POPC   C4A24126  19.833  43.096   7.393
 1600POPC   C1B24127  20.159  42.993   8.758
 1600POPC   C2B24128  20.325  43.192   8.408
 1600POPC   C3B24129  20.375  43.023   8.025
 1600POPC   C4B24130  20.263  43.233   7.659
 1601POPC   NC324131  14.838  24.644   9.998
 1601POPC   PO424132  14.402  24.863   9.720
 1601POPC   GL124133  14.343  24.850   9.200
 1601POPC   GL224134  14.024  24.905   9.034
 1601POPC   C1A24135  14.408  25.003   8.725
 1601POPC   D2A24136  14.356  25.080   8.281
 1601POPC   C3A24137  14.532  24.728   8.023
 1601POPC   C4A24138  14.481  24.351   7.762
 1601POPC   C1B24139  14.046  24.625   8.700
 1601POPC   C2B24140  14.081  24.642   8.243
 1601POPC   C3B24141  14.027  24.609   7.786
 1601POPC   C4B24142  13.832  24.298   7.475
 1602POPC   NC324143   9.329  42.638   9.613
 1602POPC   PO424144   9.747  42.120   9.490
 1602POPC   GL124145   9.636  42.163   9.094
 1602POPC   GL224146   9.309  42.297   9.107
 1602POPC   C1A24147   9.741  42.087   8.672
 1602POPC   D2A24148  10.016  42.002   8.345
 1602POPC   C3A24149  10.034  42.385   8.108
 1602POPC   C4A24150  10.070  42.591   7.738
 1602POPC   C1B24151   9.254  41.931   8.841
 1602POPC   C2B24152   9.379  41.856   8.385
 1602POPC   C3B24153   9.592  42.099   8.081
 1602POPC   C4B24154   9.780  42.174   7.716
 1603POPC   NC324155  19.965   0.938   9.727
 1603POPC   PO424156  19.878   0.271   9.585
 1603POPC   GL124157  19.887   0.580   9.221
 1603POPC   GL224158  19.612   0.441   8.977
 1603POPC   C1A24159  20.030   0.654   8.792
 1603POPC   D2A24160  19.731   0.462   8.481
 1603POPC   C3A24161  19.775   0.594   8.080
 1603POPC   C4A24162  19.572   0.715   7.707
 1603POPC   C1B24163  19.953   0.159   8.863
 1603POPC   C2B24164  20.134  44.921   8.518
 1603POPC   C3B24165  19.932   0.065   8.136
 1603POPC   C4B24166  19.753   0.205   7.762
 1604POPC   NC324167   7.415  14.294   9.488
 1604POPC   PO424168   7.295  13.574   9.384
 1604POPC   GL124169   7.341  13.936   9.116
 1604POPC   GL224170   7.714  13.983   9.201
 1604POPC   C1A24171   7.118  13.994   8.703
 1604POPC   D2A24172   7.163  13.990   8.250
 1604POPC   C3A24173   7.198  13.669   7.956
 1604POPC   C4A24174   7.186  13.787   7.541
 1604POPC   C1B24175   7.735  13.713   8.857
 1604POPC   C2B24176   7.508  13.674   8.479
 1604POPC   C3B24177   7.668  13.805   8.089
 1604POPC   C4B24178   7.772  13.601   7.697
 1605POPC   NC324179  27.060  44.535   9.430
 1605POPC   PO424180  26.565  44.905   9.531
 1605POPC   GL124181  26.524  44.797   9.119
 1605POPC   GL224182  26.659  44.491   9.097
 1605POPC   C1A24183  26.678  44.882   8.712
 1605POPC   D2A24184  26.828  44.649   8.363
 1605POPC   C3A24185  26.575  44.667   8.039
 1605POPC   C4A24186  26.531  44.877   7.669
 1605POPC   C1B24187  27.033  44.476   8.801
 1605POPC   C2B24188  27.152  44.221   8.454
 1605POPC   C3B24189  27.143  44.347   8.049
 1605POPC   C4B24190  26.883  44.215   7.738
 1606POPC   NC324191  38.153  28.760   9.347
 1606POPC   PO424192  38.518  28.248   9.619
 1606POPC   GL124193  38.511  28.361   9.188
 1606POPC   GL224194  38.198  28.248   9.123
 1606POPC   C1A24195  38.505  28.603   8.778
 1606POPC   D2A24196  38.757  28.630   8.403
 1606POPC   C3A24197  38.586  28.540   7.981
 1606POPC   C4A24198  38.233  28.734   7.753
 1606POPC   C1B24199  38.335  28.130   8.719
 1606POPC   C2B24200  38.341  28.299   8.339
 1606POPC   C3B24201  38.270  28.133   7.906
 1606POPC   C4B24202  37.969  28.250   7.577
 1607POPC   NC324203  11.093  27.045   9.506
 1607POPC   PO424204  11.670  26.753   9.470
 1607POPC   GL124205  11.470  26.991   9.164
 1607POPC   GL224206  11.232  26.750   9.083
 1607POPC   C1A24207  11.392  27.075   8.716
 1607POPC   D2A24208  11.188  26.787   8.401
 1607POPC   C3A24209  11.072  27.031   8.017
 1607POPC   C4A24210  11.208  27.008   7.586
 1607POPC   C1B24211  10.909  26.563   8.822
 1607POPC   C2B24212  10.852  26.329   8.447
 1607POPC   C3B24213  11.061  26.374   8.066
 1607POPC   C4B24214  10.921  26.624   7.743
 1608POPC   NC324215   6.981  18.519   9.419
 1608POPC   PO424216   6.369  18.757   9.448
 1608POPC   GL124217   6.462  18.393   9.178
 1608POPC   GL224218   6.754  18.231   9.060
 1608POPC   C1A24219   6.310  18.281   8.783
 1608POPC   D2A24220   6.420  18.173   8.413
 1608POPC   C3A24221   6.489  18.453   8.087
 1608POPC   C4A24222   6.559  18.256   7.699
 1608POPC   C1B24223   6.785  18.414   8.658
 1608POPC   C2B24224   6.981  18.477   8.286
 1608POPC   C3B24225   6.986  18.512   7.864
 1608POPC   C4B24226   7.026  18.250   7.531
 1609POPC   NC324227   4.695  15.745   9.479
 1609POPC   PO424228   4.159  16.116   9.446
 1609POPC   GL124229   4.343  15.863   9.138
 1609POPC   GL224230   4.028  15.772   9.041
 1609POPC   C1A24231   4.403  15.701   8.722
 1609POPC   D2A24232   4.283  15.914   8.352
 1609POPC   C3A24233   4.391  15.758   7.966
 1609POPC   C4A24234   4.202  15.897   7.631
 1609POPC   C1B24235   4.124  16.172   8.790
 1609POPC   C2B24236   4.027  16.359   8.387
 1609POPC   C3B24237   4.253  16.286   7.980
 1609POPC   C4B24238   4.163  16.450   7.550
 1610POPC   NC324239   8.287  44.822  10.143
 1610POPC   PO424240   8.214  44.526   9.556
 1610POPC   GL124241   8.148  44.555   9.122
 1610POPC   GL224242   8.484  44.510   9.062
 1610POPC   C1A24243   7.943  44.615   8.711
 1610POPC   D2A24244   7.967  44.502   8.258
 1610POPC   C3A24245   8.231  44.798   7.959
 1610POPC   C4A24246   8.202   0.082   7.582
 1610POPC   C1B24247   8.349  44.298   8.704
 1610POPC   C2B24248   8.293  44.117   8.319
 1610POPC   C3B24249   8.313  44.289   7.897
 1610POPC   C4B24250   8.657  44.566   7.749
 1611POPC   NC324251  37.243  43.880   9.434
 1611POPC   PO424252  37.010  44.508   9.545
 1611POPC   GL124253  36.754  44.255   9.242
 1611POPC   GL224254  36.940  43.972   9.033
 1611POPC   C1A24255  36.666  44.350   8.804
 1611POPC   D2A24256  36.608  44.079   8.432
 1611POPC   C3A24257  36.845  44.087   8.042
 1611POPC   C4A24258  36.766  43.954   7.624
 1611POPC   C1B24259  37.236  43.679   8.794
 1611POPC   C2B24260  37.334  43.583   8.372
 1611POPC   C3B24261  37.198  43.691   7.957
 1611POPC   C4B24262  37.464  43.649   7.625
 1612POPC   NC324263  43.145  38.031   9.608
 1612POPC   PO424264  43.227  37.330   9.528
 1612POPC   GL124265  43.197  37.559   9.181
 1612POPC   GL224266  43.532  37.606   9.103
 1612POPC   C1A24267  43.023  37.578   8.778
 1612POPC   D2A24268  42.763  37.775   8.446
 1612POPC   C3A24269  42.840  37.657   8.018
 1612POPC   C4A24270  43.033  37.596   7.606
 1612POPC   C1B24271  43.524  37.839   8.738
 1612POPC   C2B24272  43.285  37.818   8.400
 1612POPC   C3B24273  43.356  37.734   7.982
 1612POPC   C4B24274  43.433  38.048   7.662
 1613POPC   NC324275   8.209   2.589   9.860
 1613POPC   PO424276   8.359   3.114   9.468
 1613POPC   GL124277   8.262   2.793   9.110
 1613POPC   GL224278   7.922   2.852   8.954
 1613POPC   C1A24279   8.208   2.549   8.707
 1613POPC   D2A24280   7.988   2.798   8.417
 1613POPC   C3A24281   8.236   2.872   8.075
 1613POPC   C4A24282   8.621   2.946   7.864
 1613POPC   C1B24283   7.759   3.151   8.719
 1613POPC   C2B24284   7.665   3.234   8.345
 1613POPC   C3B24285   7.897   3.250   7.984
 1613POPC   C4B24286   8.189   3.176   7.676
 1614POPC   NC324287  27.015  31.363   9.475
 1614POPC   PO424288  26.642  31.952   9.551
 1614POPC   GL124289  26.777  31.654   9.133
 1614POPC   GL224290  27.047  31.411   8.983
 1614POPC   C1A24291  26.600  31.429   8.763
 1614POPC   D2A24292  26.654  31.127   8.453
 1614POPC   C3A24293  26.728  31.325   8.065
 1614POPC   C4A24294  26.636  31.282   7.633
 1614POPC   C1B24295  27.063  31.727   8.699
 1614POPC   C2B24296  26.920  31.837   8.272
 1614POPC   C3B24297  27.126  31.627   7.918
 1614POPC   C4B24298  27.108  31.500   7.483
 1615POPC   NC324299  21.729  43.880   9.384
 1615POPC   PO424300  21.260  43.678   9.788
 1615POPC   GL124301  21.101  43.882   9.375
 1615POPC   GL224302  20.992  43.633   9.113
 1615POPC   C1A24303  21.190  44.099   8.938
 1615POPC   D2A24304  21.175  44.178   8.459
 1615POPC   C3A24305  21.370  44.092   8.049
 1615POPC   C4A24306  21.553  43.852   7.727
 1615POPC   C1B24307  21.203  43.618   8.696
 1615POPC   C2B24308  21.295  43.620   8.256
 1615POPC   C3B24309  21.084  43.680   7.882
 1615POPC   C4B24310  21.174  43.631   7.445
 1616POPC   NC324311   9.653  39.338   9.798
 1616POPC   PO424312   9.794  38.722   9.550
 1616POPC   GL124313   9.741  39.124   9.282
 1616POPC   GL224314   9.394  39.287   9.352
 1616POPC   C1A24315   9.849  39.310   8.831
 1616POPC   D2A24316   9.944  39.488   8.381
 1616POPC   C3A24317   9.989  39.335   7.963
 1616POPC   C4A24318  10.019  39.177   7.522
 1616POPC   C1B24319   9.359  39.260   8.916
 1616POPC   C2B24320   9.467  39.494   8.534
 1616POPC   C3B24321   9.489  39.380   8.097
 1616POPC   C4B24322   9.589  39.059   7.764
 1617POPC   NC324323  22.533   1.508   9.547
 1617POPC   PO424324  22.106   0.993   9.613
 1617POPC   GL124325  22.289   1.147   9.266
 1617POPC   GL224326  22.014   1.330   9.125
 1617POPC   C1A24327  22.468   1.214   8.887
 1617POPC   D2A24328  22.434   1.077   8.500
 1617POPC   C3A24329  22.399   1.304   8.143
 1617POPC   C4A24330  22.366   1.134   7.781
 1617POPC   C1B24331  21.961   1.177   8.721
 1617POPC   C2B24332  21.923   1.361   8.310
 1617POPC   C3B24333  21.867   1.205   7.868
 1617POPC   C4B24334  21.562   1.469   7.632
 1618POPC   NC324335  38.592  10.564   9.473
 1618POPC   PO424336  37.963  10.752   9.518
 1618POPC   GL124337  38.188  10.588   9.146
 1618POPC   GL224338  37.972  10.328   9.129
 1618POPC   C1A24339  38.418  10.551   8.720
 1618POPC   D2A24340  38.635  10.335   8.344
 1618POPC   C3A24341  38.694  10.553   7.942
 1618POPC   C4A24342  38.410  10.770   7.703
 1618POPC   C1B24343  37.927  10.106   8.734
 1618POPC   C2B24344  38.090  10.010   8.307
 1618POPC   C3B24345  38.214  10.368   8.065
 1618POPC   C4B24346  38.003  10.494   7.767
 1619POPC   NC324347  10.368  22.468   9.477
 1619POPC   PO424348  10.555  21.823   9.595
 1619POPC   GL124349  10.572  21.984   9.203
 1619POPC   GL224350  10.776  22.279   9.204
 1619POPC   C1A24351  10.458  22.084   8.783
 1619POPC   D2A24352  10.637  22.117   8.354
 1619POPC   C3A24353  10.426  22.306   7.989
 1619POPC   C4A24354  10.329  21.971   7.697
 1619POPC   C1B24355  10.840  22.427   8.788
 1619POPC   C2B24356  10.794  22.591   8.347
 1619POPC   C3B24357  10.961  22.472   7.954
 1619POPC   C4B24358  10.828  22.093   7.760
 1620POPC   NC324359  27.950  15.338   9.584
 1620POPC   PO424360  27.309  14.980   9.443
 1620POPC   GL124361  27.593  15.193   9.205
 1620POPC   GL224362  27.643  15.518   9.078
 1620POPC   C1A24363  27.662  15.074   8.788
 1620POPC   D2A24364  27.442  14.998   8.422
 1620POPC   C3A24365  27.669  15.021   8.044
 1620POPC   C4A24366  28.021  14.873   7.815
 1620POPC   C1B24367  27.412  15.517   8.668
 1620POPC   C2B24368  27.477  15.522   8.194
 1620POPC   C3B24369  27.842  15.505   7.867
 1620POPC   C4B24370  27.949  15.416   7.406
 1621POPC   NC324371  28.613  17.110   9.376
 1621POPC   PO424372  28.146  17.660   9.433
 1621POPC   GL124373  28.391  17.629   9.085
 1621POPC   GL224374  28.221  17.320   9.024
 1621POPC   C1A24375  28.470  17.703   8.639
 1621POPC   D2A24376  28.756  17.771   8.264
 1621POPC   C3A24377  28.589  17.631   7.891
 1621POPC   C4A24378  28.430  17.675   7.475
 1621POPC   C1B24379  28.516  17.168   8.729
 1621POPC   C2B24380  28.580  17.288   8.328
 1621POPC   C3B24381  28.440  17.091   8.006
 1621POPC   C4B24382  28.432  17.198   7.621
 1622POPC   NC324383  23.398  36.884   9.571
 1622POPC   PO424384  22.771  37.006   9.567
 1622POPC   GL124385  22.934  36.711   9.267
 1622POPC   GL224386  22.978  36.984   9.081
 1622POPC   C1A24387  23.044  36.550   8.828
 1622POPC   D2A24388  22.801  36.498   8.445
 1622POPC   C3A24389  22.932  36.613   8.035
 1622POPC   C4A24390  22.800  36.673   7.564
 1622POPC   C1B24391  23.226  37.055   8.729
 1622POPC   C2B24392  23.339  37.222   8.344
 1622POPC   C3B24393  23.251  37.029   8.002
 1622POPC   C4B24394  23.045  37.084   7.669
 1623POPC   NC324395   6.039  10.107   9.594
 1623POPC   PO424396   6.087   9.471   9.381
 1623POPC   GL124397   5.980   9.850   9.176
 1623POPC   GL224398   6.327  10.037   9.172
 1623POPC   C1A24399   5.757   9.861   8.823
 1623POPC   D2A24400   5.658   9.649   8.479
 1623POPC   C3A24401   5.781   9.713   8.021
 1623POPC   C4A24402   5.822   9.922   7.592
 1623POPC   C1B24403   6.282   9.767   8.794
 1623POPC   C2B24404   6.165   9.696   8.398
 1623POPC   C3B24405   6.258   9.918   8.053
 1623POPC   C4B24406   6.361   9.842   7.661
 1624POPC   NC324407   6.151  17.189   9.448
 1624POPC   PO424408   5.806  16.568   9.495
 1624POPC   GL124409   5.883  16.734   9.101
 1624POPC   GL224410   5.765  17.054   9.130
 1624POPC   C1A24411   5.871  16.608   8.665
 1624POPC   D2A24412   5.922  16.307   8.327
 1624POPC   C3A24413   5.719  16.442   7.973
 1624POPC   C4A24414   5.923  16.593   7.655
 1624POPC   C1B24415   5.851  17.155   8.745
 1624POPC   C2B24416   5.812  17.027   8.371
 1624POPC   C3B24417   6.003  16.879   8.053
 1624POPC   C4B24418   5.862  17.080   7.683
 1625POPC   NC324419  19.294  41.759   9.369
 1625POPC   PO424420  18.704  41.516   9.368
 1625POPC   GL124421  18.977  41.569   9.011
 1625POPC   GL224422  19.122  41.929   8.922
 1625POPC   C1A24423  19.086  41.304   8.662
 1625POPC   D2A24424  18.921  41.295   8.263
 1625POPC   C3A24425  19.212  41.442   7.968
 1625POPC   C4A24426  19.272  41.389   7.536
 1625POPC   C1B24427  18.939  41.799   8.544
 1625POPC   C2B24428  18.899  41.816   8.100
 1625POPC   C3B24429  18.836  41.680   7.686
 1625POPC   C4B24430  18.900  41.846   7.267
 1626POPC   NC324431  24.850  37.390   9.345
 1626POPC   PO424432  24.423  37.937   9.599
 1626POPC   GL124433  24.639  37.851   9.220
 1626POPC   GL224434  24.476  37.566   9.038
 1626POPC   C1A24435  24.578  38.002   8.783
 1626POPC   D2A24436  24.558  37.758   8.388
 1626POPC   C3A24437  24.584  37.983   7.982
 1626POPC   C4A24438  24.583  37.789   7.575
 1626POPC   C1B24439  24.721  37.362   8.707
 1626POPC   C2B24440  24.717  37.214   8.307
 1626POPC   C3B24441  24.598  37.438   7.966
 1626POPC   C4B24442  24.644  37.272   7.592
 1627POPC   NC324443  16.556   6.622   9.771
 1627POPC   PO424444  16.483   6.241   9.266
 1627POPC   GL124445  16.881   6.410   9.020
 1627POPC   GL224446  17.034   6.744   9.109
 1627POPC   C1A24447  16.913   6.339   8.570
 1627POPC   D2A24448  16.599   6.556   8.311
 1627POPC   C3A24449  16.629   6.362   7.936
 1627POPC   C4A24450  16.627   6.319   7.494
 1627POPC   C1B24451  16.885   6.837   8.658
 1627POPC   C2B24452  17.017   6.805   8.172
 1627POPC   C3B24453  16.904   6.766   7.696
 1627POPC   C4B24454  16.963   6.980   7.265
 1628POPC   NC324455   1.846  14.864   9.321
 1628POPC   PO424456   2.212  15.364   9.503
 1628POPC   GL124457   2.369  15.379   9.113
 1628POPC   GL224458   2.375  14.993   9.108
 1628POPC   C1A24459   2.232  15.607   8.735
 1628POPC   D2A24460   1.839  15.539   8.498
 1628POPC   C3A24461   1.976  15.579   8.080
 1628POPC   C4A24462   1.993  15.514   7.661
 1628POPC   C1B24463   2.089  15.115   8.756
 1628POPC   C2B24464   1.860  15.066   8.358
 1628POPC   C3B24465   1.787  15.108   7.942
 1628POPC   C4B24466   1.543  14.800   7.740
 1629POPC   NC324467  34.024  15.559   9.473
 1629POPC   PO424468  33.658  16.155   9.460
 1629POPC   GL124469  33.659  15.843   9.125
 1629POPC   GL224470  33.401  15.627   8.947
 1629POPC   C1A24471  33.577  16.064   8.736
 1629POPC   D2A24472  33.893  16.161   8.454
 1629POPC   C3A24473  33.773  16.138   8.041
 1629POPC   C4A24474  33.894  15.902   7.698
 1629POPC   C1B24475  33.785  15.594   8.687
 1629POPC   C2B24476  33.809  15.653   8.242
 1629POPC   C3B24477  33.507  15.627   7.878
 1629POPC   C4B24478  33.687  15.515   7.454
 1630POPC   NC324479   6.369  43.072   9.683
 1630POPC   PO424480   6.530  43.376   9.168
 1630POPC   GL124481   6.742  43.119   8.861
 1630POPC   GL224482   6.789  42.819   9.031
 1630POPC   C1A24483   6.578  43.042   8.481
 1630POPC   D2A24484   6.426  43.329   8.199
 1630POPC   C3A24485   6.701  43.213   7.882
 1630POPC   C4A24486   6.544  43.066   7.507
 1630POPC   C1B24487   6.535  42.615   8.788
 1630POPC   C2B24488   6.496  42.529   8.392
 1630POPC   C3B24489   6.552  42.742   7.998
 1630POPC   C4B24490   6.356  42.622   7.597
 1631POPC   NC324491  43.926  25.981   9.768
 1631POPC   PO424492  43.545  25.913   9.246
 1631POPC   GL124493  43.988  26.057   9.163
 1631POPC   GL224494  44.253  25.849   9.285
 1631POPC   C1A24495  44.142  26.257   8.777
 1631POPC   D2A24496  44.015  26.568   8.410
 1631POPC   C3A24497  43.846  26.326   8.056
 1631POPC   C4A24498  43.807  26.211   7.587
 1631POPC   C1B24499  44.313  25.752   8.803
 1631POPC   C2B24500  44.214  25.791   8.328
 1631POPC   C3B24501  43.968  25.839   7.926
 1631POPC   C4B24502  43.942  25.675   7.491
 1632POPC   NC324503   0.929  34.762   9.498
 1632POPC   PO424504   1.601  34.705   9.476
 1632POPC   GL124505   1.354  34.784   9.164
 1632POPC   GL224506   1.184  34.474   9.138
 1632POPC   C1A24507   1.449  34.748   8.749
 1632POPC   D2A24508   1.240  34.481   8.477
 1632POPC   C3A24509   1.382  34.599   8.099
 1632POPC   C4A24510   1.654  34.359   7.865
 1632POPC   C1B24511   0.910  34.659   8.842
 1632POPC   C2B24512   0.704  34.516   8.474
 1632POPC   C3B24513   0.873  34.338   8.122
 1632POPC   C4B24514   1.087  34.411   7.740
 1633POPC   NC324515  30.430   7.626   9.561
 1633POPC   PO424516  30.287   7.042   9.419
 1633POPC   GL124517  30.513   7.152   9.023
 1633POPC   GL224518  30.687   7.482   9.067
 1633POPC   C1A24519  30.851   7.162   8.700
 1633POPC   D2A24520  31.185   7.271   8.429
 1633POPC   C3A24521  30.972   7.222   8.025
 1633POPC   C4A24522  30.509   7.180   7.893
 1633POPC   C1B24523  30.939   7.665   8.727
 1633POPC   C2B24524  31.083   7.741   8.286
 1633POPC   C3B24525  30.961   7.703   7.845
 1633POPC   C4B24526  30.609   7.751   7.493
 1634POPC   NC324527  13.889   5.287   9.478
 1634POPC   PO424528  13.184   5.037   9.489
 1634POPC   GL124529  13.575   4.958   9.218
 1634POPC   GL224530  13.672   5.263   9.038
 1634POPC   C1A24531  13.676   4.851   8.781
 1634POPC   D2A24532  13.492   5.158   8.544
 1634POPC   C3A24533  13.533   5.099   8.144
 1634POPC   C4A24534  13.511   5.192   7.711
 1634POPC   C1B24535  13.927   5.387   8.688
 1634POPC   C2B24536  13.931   5.397   8.225
 1634POPC   C3B24537  13.964   5.080   7.879
 1634POPC   C4B24538  13.730   4.700   7.737
 1635POPC   NC324539  27.756  44.638   9.733
 1635POPC   PO424540  27.247   0.036   9.540
 1635POPC   GL124541  27.514  44.727   9.258
 1635POPC   GL224542  27.858  44.534   9.222
 1635POPC   C1A24543  27.541  44.737   8.807
 1635POPC   D2A24544  27.316  44.725   8.424
 1635POPC   C3A24545  27.509  44.741   8.036
 1635POPC   C4A24546  27.606  44.388   7.799
 1635POPC   C1B24547  27.973  44.458   8.781
 1635POPC   C2B24548  27.782  44.424   8.361
 1635POPC   C3B24549  28.028  44.597   7.981
 1635POPC   C4B24550  28.098   0.009   7.814
 1636POPC   NC324551  21.077  24.521   9.482
 1636POPC   PO424552  21.651  24.863   9.510
 1636POPC   GL124553  21.355  24.817   9.171
 1636POPC   GL224554  21.461  24.467   9.147
 1636POPC   C1A24555  21.087  24.581   8.834
 1636POPC   D2A24556  21.222  24.258   8.543
 1636POPC   C3A24557  21.199  24.339   8.076
 1636POPC   C4A24558  21.361  24.720   7.879
 1636POPC   C1B24559  21.590  24.647   8.741
 1636POPC   C2B24560  21.621  24.513   8.297
 1636POPC   C3B24561  21.808  24.464   7.873
 1636POPC   C4B24562  22.006  24.841   7.720
 1637POPC   NC324563  43.896  40.136   9.441
 1637POPC   PO424564  43.447  39.633   9.386
 1637POPC   GL124565  43.761  39.756   9.089
 1637POPC   GL224566  44.066  39.640   9.132
 1637POPC   C1A24567  43.810  40.108   8.777
 1637POPC   D2A24568  43.949  40.254   8.350
 1637POPC   C3A24569  43.660  40.213   7.988
 1637POPC   C4A24570  43.890  40.106   7.624
 1637POPC   C1B24571  44.279  39.647   8.760
 1637POPC   C2B24572  44.005  39.678   8.428
 1637POPC   C3B24573  44.006  39.842   8.049
 1637POPC   C4B24574  44.212  39.687   7.738
 1638POPC   NC324575   9.807  12.503   9.599
 1638POPC   PO424576   9.309  12.024   9.605
 1638POPC   GL124577   9.532  11.950   9.200
 1638POPC   GL224578   9.817  12.189   9.166
 1638POPC   C1A24579   9.605  11.878   8.736
 1638POPC   D2A24580   9.687  12.076   8.321
 1638POPC   C3A24581   9.582  12.006   7.859
 1638POPC   C4A24582   9.772  11.811   7.483
 1638POPC   C1B24583   9.820  12.370   8.740
 1638POPC   C2B24584   9.715  12.596   8.365
 1638POPC   C3B24585   9.919  12.594   7.947
 1638POPC   C4B24586   9.878  12.340   7.602
 1639POPC   NC324587  17.818   7.801   9.586
 1639POPC   PO424588  17.494   8.426   9.429
 1639POPC   GL124589  17.569   8.542   8.992
 1639POPC   GL224590  17.825   8.323   8.846
 1639POPC   C1A24591  17.398   8.469   8.579
 1639POPC   D2A24592  17.650   8.221   8.322
 1639POPC   C3A24593  17.540   8.148   7.934
 1639POPC   C4A24594  17.206   8.150   7.699
 1639POPC   C1B24595  17.775   7.872   8.689
 1639POPC   C2B24596  17.768   7.686   8.263
 1639POPC   C3B24597  17.943   7.870   7.892
 1639POPC   C4B24598  17.761   7.885   7.477
 1640POPC   NC324599  38.798  23.917   9.796
 1640POPC   PO424600  39.472  23.930   9.537
 1640POPC   GL124601  39.538  23.830   9.145
 1640POPC   GL224602  39.175  23.741   9.112
 1640POPC   C1A24603  39.566  23.999   8.754
 1640POPC   D2A24604  39.261  23.942   8.436
 1640POPC   C3A24605  39.447  23.797   8.069
 1640POPC   C4A24606  39.688  23.952   7.755
 1640POPC   C1B24607  39.322  23.492   8.757
 1640POPC   C2B24608  39.111  23.451   8.371
 1640POPC   C3B24609  38.950  23.704   8.082
 1640POPC   C4B24610  39.100  23.662   7.692
 1641POPC   NC324611  44.783  33.513   9.463
 1641POPC   PO424612  44.661  34.111   9.543
 1641POPC   GL124613  44.700  33.922   9.142
 1641POPC   GL224614  44.393  33.786   9.199
 1641POPC   C1A24615  44.891  34.007   8.729
 1641POPC   D2A24616  44.707  33.916   8.350
 1641POPC   C3A24617  44.935  34.018   7.993
 1641POPC   C4A24618  44.773  33.825   7.666
 1641POPC   C1B24619  44.279  33.678   8.809
 1641POPC   C2B24620  44.390  33.465   8.431
 1641POPC   C3B24621  44.447  33.593   8.016
 1641POPC   C4B24622  44.529  33.364   7.627
 1642POPC   NC324623   4.614  42.907   9.535
 1642POPC   PO424624   4.190  43.335   9.730
 1642POPC   GL124625   4.169  43.072   9.294
 1642POPC   GL224626   4.359  42.774   9.129
 1642POPC   C1A24627   4.167  43.229   8.848
 1642POPC   D2A24628   4.226  43.544   8.479
 1642POPC   C3A24629   4.154  43.335   8.078
 1642POPC   C4A24630   3.970  43.118   7.726
 1642POPC   C1B24631   4.634  43.021   8.868
 1642POPC   C2B24632   4.525  43.134   8.461
 1642POPC   C3B24633   4.588  43.046   8.051
 1642POPC   C4B24634   4.436  42.799   7.762
 1643POPC   NC324635  23.221  26.369   9.558
 1643POPC   PO424636  23.916  26.095   9.488
 1643POPC   GL124637  23.614  26.272   9.166
 1643POPC   GL224638  23.332  26.015   9.202
 1643POPC   C1A24639  23.766  26.484   8.741
 1643POPC   D2A24640  23.827  26.476   8.245
 1643POPC   C3A24641  23.889  26.092   7.945
 1643POPC   C4A24642  24.181  26.068   7.558
 1643POPC   C1B24643  23.563  25.872   8.833
 1643POPC   C2B24644  23.554  25.802   8.385
 1643POPC   C3B24645  23.293  25.736   8.028
 1643POPC   C4B24646  23.314  25.987   7.691
 1644POPC   NC324647  32.454  20.027   9.552
 1644POPC   PO424648  31.955  19.625   9.358
 1644POPC   GL124649  32.175  19.905   9.079
 1644POPC   GL224650  32.556  19.917   9.079
 1644POPC   C1A24651  32.174  19.928   8.619
 1644POPC   D2A24652  31.946  19.910   8.194
 1644POPC   C3A24653  32.172  19.830   7.787
 1644POPC   C4A24654  32.218  19.979   7.339
 1644POPC   C1B24655  32.758  20.026   8.724
 1644POPC   C2B24656  32.616  20.020   8.318
 1644POPC   C3B24657  32.685  19.830   7.939
 1644POPC   C4B24658  32.656  20.019   7.566
 1645POPC   NC324659  36.246  24.985   9.712
 1645POPC   PO424660  35.872  25.439   9.434
 1645POPC   GL124661  35.922  25.245   9.084
 1645POPC   GL224662  36.111  25.001   9.204
 1645POPC   C1A24663  35.830  25.228   8.671
 1645POPC   D2A24664  35.688  25.157   8.258
 1645POPC   C3A24665  35.870  25.353   7.902
 1645POPC   C4A24666  36.255  25.473   7.724
 1645POPC   C1B24667  36.306  24.991   8.774
 1645POPC   C2B24668  36.595  24.911   8.413
 1645POPC   C3B24669  36.481  24.857   7.970
 1645POPC   C4B24670  36.126  24.969   7.674
 1646POPC   NC324671  11.388  16.956   9.744
 1646POPC   PO424672  10.858  16.601   9.577
 1646POPC   GL124673  11.266  16.684   9.264
 1646POPC   GL224674  11.172  16.907   8.980
 1646POPC   C1A24675  11.624  16.732   8.894
 1646POPC   D2A24676  11.710  16.928   8.473
 1646POPC   C3A24677  11.525  16.824   8.061
 1646POPC   C4A24678  11.558  16.518   7.704
 1646POPC   C1B24679  11.209  16.469   8.765
 1646POPC   C2B24680  11.279  16.431   8.322
 1646POPC   C3B24681  11.017  16.659   8.019
 1646POPC   C4B24682  10.695  16.419   7.795
 1647POPC   NC324683   4.059   6.813   9.767
 1647POPC   PO424684   4.615   6.422   9.591
 1647POPC   GL124685   4.401   6.631   9.212
 1647POPC   GL224686   4.095   6.860   9.237
 1647POPC   C1A24687   4.444   6.576   8.740
 1647POPC   D2A24688   4.594   6.330   8.372
 1647POPC   C3A24689   4.431   6.529   8.017
 1647POPC   C4A24690   4.071   6.482   7.752
 1647POPC   C1B24691   4.001   6.904   8.782
 1647POPC   C2B24692   4.075   6.747   8.354
 1647POPC   C3B24693   4.155   6.969   7.982
 1647POPC   C4B24694   4.475   6.919   7.704
 1648POPC   NC324695  43.367  36.161   9.487
 1648POPC   PO424696  42.920  35.797   9.306
 1648POPC   GL124697  43.233  35.961   9.018
 1648POPC   GL224698  43.121  36.336   9.084
 1648POPC   C1A24699  43.290  35.862   8.556
 1648POPC   D2A24700  42.979  35.975   8.222
 1648POPC   C3A24701  43.111  35.944   7.777
 1648POPC   C4A24702  43.409  35.873   7.437
 1648POPC   C1B24703  43.062  36.310   8.659
 1648POPC   C2B24704  43.334  36.368   8.326
 1648POPC   C3B24705  43.084  36.438   7.979
 1648POPC   C4B24706  42.942  36.408   7.589
 1649POPC   NC324707  37.485  25.607   9.169
 1649POPC   PO424708  37.486  26.182   9.502
 1649POPC   GL124709  37.757  26.046   9.069
 1649POPC   GL224710  37.996  26.315   9.058
 1649POPC   C1A24711  37.780  25.802   8.648
 1649POPC   D2A24712  37.425  25.897   8.377
 1649POPC   C3A24713  37.558  25.893   7.962
 1649POPC   C4A24714  37.563  26.059   7.565
 1649POPC   C1B24715  37.793  26.310   8.642
 1649POPC   C2B24716  37.912  26.127   8.269
 1649POPC   C3B24717  37.924  26.271   7.884
 1649POPC   C4B24718  38.068  26.194   7.469
 1650POPC   NC324719  42.568   0.982   9.610
 1650POPC   PO424720  42.562   1.620   9.617
 1650POPC   GL124721  42.407   1.326   9.243
 1650POPC   GL224722  42.177   0.986   9.280
 1650POPC   C1A24723  42.610   1.426   8.822
 1650POPC   D2A24724  42.776   1.311   8.409
 1650POPC   C3A24725  42.571   1.342   8.027
 1650POPC   C4A24726  42.622   1.216   7.623
 1650POPC   C1B24727  42.406   0.942   8.889
 1650POPC   C2B24728  42.364   1.046   8.466
 1650POPC   C3B24729  42.290   0.920   8.044
 1650POPC   C4B24730  42.122   1.201   7.756
 1651POPC   NC324731  37.773  25.121   9.538
 1651POPC   PO424732  38.030  25.644   9.283
 1651POPC   GL124733  37.988  25.268   9.041
 1651POPC   GL224734  37.666  25.121   9.029
 1651POPC   C1A24735  37.929  25.293   8.572
 1651POPC   D2A24736  38.131  25.338   8.154
 1651POPC   C3A24737  37.898  25.537   7.844
 1651POPC   C4A24738  37.614  25.228   7.744
 1651POPC   C1B24739  37.499  24.786   8.759
 1651POPC   C2B24740  37.241  24.776   8.429
 1651POPC   C3B24741  37.291  24.925   8.020
 1651POPC   C4B24742  37.429  24.784   7.629
 1652POPC   NC324743   6.253  13.063   9.388
 1652POPC   PO424744   6.813  12.672   9.499
 1652POPC   GL124745   6.574  12.741   9.146
 1652POPC   GL224746   6.849  12.628   8.948
 1652POPC   C1A24747   6.598  13.039   8.768
 1652POPC   D2A24748   6.847  12.940   8.378
 1652POPC   C3A24749   6.660  12.932   7.952
 1652POPC   C4A24750   6.378  13.267   7.763
 1652POPC   C1B24751   6.440  12.563   8.692
 1652POPC   C2B24752   6.302  12.625   8.263
 1652POPC   C3B24753   6.433  12.407   7.879
 1652POPC   C4B24754   6.548  12.615   7.478
 1653POPC   NC324755   5.861   6.468   9.533
 1653POPC   PO424756   6.077   7.087   9.524
 1653POPC   GL124757   5.977   6.824   9.160
 1653POPC   GL224758   5.680   6.568   9.077
 1653POPC   C1A24759   5.966   6.887   8.720
 1653POPC   D2A24760   5.852   6.717   8.312
 1653POPC   C3A24761   5.889   6.907   7.937
 1653POPC   C4A24762   6.294   7.071   7.814
 1653POPC   C1B24763   5.506   6.538   8.666
 1653POPC   C2B24764   5.636   6.272   8.312
 1653POPC   C3B24765   5.758   6.400   7.888
 1653POPC   C4B24766   5.682   6.556   7.435
 1654POPC   NC324767   9.765  28.101   9.674
 1654POPC   PO424768  10.074  28.705   9.533
 1654POPC   GL124769   9.878  28.440   9.198
 1654POPC   GL224770   9.596  28.251   9.233
 1654POPC   C1A24771   9.675  28.516   8.788
 1654POPC   D2A24772   9.445  28.606   8.410
 1654POPC   C3A24773   9.586  28.365   8.118
 1654POPC   C4A24774   9.819  28.500   7.812
 1654POPC   C1B24775   9.372  28.076   8.886
 1654POPC   C2B24776   9.531  27.935   8.466
 1654POPC   C3B24777   9.634  27.862   8.048
 1654POPC   C4B24778   9.442  28.078   7.712
 1655POPC   NC324779   4.271   6.082   9.502
 1655POPC   PO424780   4.781   5.745   9.802
 1655POPC   GL124781   4.687   5.842   9.302
 1655POPC   GL224782   4.749   5.580   9.068
 1655POPC   C1A24783   4.543   6.050   8.868
 1655POPC   D2A24784   4.258   5.937   8.518
 1655POPC   C3A24785   4.161   6.102   8.112
 1655POPC   C4A24786   4.450   6.098   7.766
 1655POPC   C1B24787   4.360   5.559   8.858
 1655POPC   C2B24788   4.277   5.411   8.436
 1655POPC   C3B24789   4.393   5.635   8.073
 1655POPC   C4B24790   4.126   5.715   7.741
 1656POPC   NC324791  19.845  31.744   9.881
 1656POPC   PO424792  19.706  31.181   9.537
 1656POPC   GL124793  19.970  31.259   9.176
 1656POPC   GL224794  19.987  31.619   9.185
 1656POPC   C1A24795  19.764  31.329   8.775
 1656POPC   D2A24796  19.776  31.637   8.418
 1656POPC   C3A24797  19.572  31.425   8.086
 1656POPC   C4A24798  19.829  31.199   7.796
 1656POPC   C1B24799  20.222  31.541   8.813
 1656POPC   C2B24800  20.302  31.597   8.401
 1656POPC   C3B24801  20.183  31.854   8.058
 1656POPC   C4B24802  19.855  31.748   7.813
 1657POPC   NC324803  42.698  44.510   9.504
 1657POPC   PO424804  43.222  44.990   9.546
 1657POPC   GL124805  43.105  44.731   9.225
 1657POPC   GL224806  43.182  44.395   9.329
 1657POPC   C1A24807  42.913  44.666   8.819
 1657POPC   D2A24808  43.138  44.703   8.413
 1657POPC   C3A24809  42.912  44.738   7.992
 1657POPC   C4A24810  43.008  44.432   7.663
 1657POPC   C1B24811  43.321  44.348   8.895
 1657POPC   C2B24812  43.416  44.267   8.437
 1657POPC   C3B24813  43.369  44.494   8.017
 1657POPC   C4B24814  43.474  44.622   7.585
 1658POPC   NC324815   2.477   4.738   9.430
 1658POPC   PO424816   2.826   4.145   9.555
 1658POPC   GL124817   2.542   4.099   9.203
 1658POPC   GL224818   2.564   4.416   9.034
 1658POPC   C1A24819   2.683   3.959   8.799
 1658POPC   D2A24820   3.071   3.927   8.527
 1658POPC   C3A24821   2.969   4.175   8.166
 1658POPC   C4A24822   2.658   4.341   7.885
 1658POPC   C1B24823   2.806   4.430   8.632
 1658POPC   C2B24824   2.844   4.683   8.270
 1658POPC   C3B24825   3.027   4.727   7.919
 1658POPC   C4B24826   3.207   4.361   7.744
 1659POPC   NC324827   0.902  40.888   9.346
 1659POPC   PO424828   0.317  41.096   9.739
 1659POPC   GL124829   0.324  40.903   9.234
 1659POPC   GL224830   0.544  40.931   9.015
 1659POPC   C1A24831   0.228  40.670   8.759
 1659POPC   D2A24832   0.297  40.510   8.336
 1659POPC   C3A24833   0.192  40.767   7.985
 1659POPC   C4A24834   0.314  40.818   7.562
 1659POPC   C1B24835   0.539  41.112   8.631
 1659POPC   C2B24836   0.600  41.020   8.205
 1659POPC   C3B24837   0.737  40.728   7.892
 1659POPC   C4B24838   0.726  40.530   7.487
 1660POPC   NC324839  18.209   1.576   9.483
 1660POPC   PO424840  18.579   2.100   9.279
 1660POPC   GL124841  18.149   1.965   9.144
 1660POPC   GL224842  17.937   2.267   9.130
 1660POPC   C1A24843  18.174   1.700   8.774
 1660POPC   D2A24844  18.450   1.750   8.401
 1660POPC   C3A24845  18.212   1.570   8.048
 1660POPC   C4A24846  18.176   1.690   7.611
 1660POPC   C1B24847  18.208   2.346   8.793
 1660POPC   C2B24848  18.494   2.361   8.472
 1660POPC   C3B24849  18.360   2.342   8.082
 1660POPC   C4B24850  18.442   1.989   7.913
 1661POPC   NC324851   2.210  11.533   9.578
 1661POPC   PO424852   1.548  11.401   9.487
 1661POPC   GL124853   1.880  11.167   9.235
 1661POPC   GL224854   2.246  11.217   9.182
 1661POPC   C1A24855   1.882  11.008   8.786
 1661POPC   D2A24856   1.854  10.870   8.326
 1661POPC   C3A24857   1.986  11.182   7.989
 1661POPC   C4A24858   1.992  11.620   7.823
 1661POPC   C1B24859   2.384  11.048   8.786
 1661POPC   C2B24860   2.329  11.245   8.393
 1661POPC   C3B24861   2.522  11.204   8.002
 1661POPC   C4B24862   2.352  11.247   7.584
 1662POPC   NC324863  44.890  21.863   9.541
 1662POPC   PO424864  44.554  22.445   9.620
 1662POPC   GL124865  44.625  22.284   9.223
 1662POPC   GL224866  44.585  21.931   9.153
 1662POPC   C1A24867  44.790  22.257   8.810
 1662POPC   D2A24868  44.963  22.266   8.420
 1662POPC   C3A24869  44.811  22.558   8.092
 1662POPC   C4A24870  44.427  22.519   7.887
 1662POPC   C1B24871  44.742  21.746   8.786
 1662POPC   C2B24872  44.860  21.759   8.365
 1662POPC   C3B24873  44.693  22.032   8.050
 1662POPC   C4B24874  44.563  21.932   7.667
 1663POPC   NC324875   4.927  29.286   9.465
 1663POPC   PO424876   5.500  29.181   9.617
 1663POPC   GL124877   5.383  29.305   9.112
 1663POPC   GL224878   5.038  29.276   8.983
 1663POPC   C1A24879   5.338  29.213   8.595
 1663POPC   D2A24880   5.036  29.135   8.263
 1663POPC   C3A24881   5.169  29.138   7.811
 1663POPC   C4A24882   5.362  29.078   7.372
 1663POPC   C1B24883   4.816  28.936   8.764
 1663POPC   C2B24884   4.768  28.664   8.382
 1663POPC   C3B24885   4.785  28.808   7.961
 1663POPC   C4B24886   4.696  29.028   7.597
 1664POPC   NC324887   7.462   0.477   9.911
 1664POPC   PO424888   7.357  44.970   9.411
 1664POPC   GL124889   7.378   0.353   9.165
 1664POPC   GL224890   7.505   0.617   9.398
 1664POPC   C1A24891   7.216   0.459   8.767
 1664POPC   D2A24892   7.226   0.285   8.363
 1664POPC   C3A24893   7.376   0.462   8.007
 1664POPC   C4A24894   7.486   0.355   7.582
 1664POPC   C1B24895   7.619   0.761   8.967
 1664POPC   C2B24896   7.578   0.713   8.489
 1664POPC   C3B24897   7.657   0.875   8.065
 1664POPC   C4B24898   7.857   0.735   7.678
 1665POPC   NC324899  18.552  41.966   9.419
 1665POPC   PO424900  18.043  42.462   9.402
 1665POPC   GL124901  18.284  42.291   9.105
 1665POPC   GL224902  18.612  42.405   9.180
 1665POPC   C1A24903  18.153  42.126   8.716
 1665POPC   D2A24904  17.930  42.200   8.342
 1665POPC   C3A24905  18.108  42.287   7.942
 1665POPC   C4A24906  17.897  42.346   7.540
 1665POPC   C1B24907  18.691  42.243   8.783
 1665POPC   C2B24908  18.508  42.398   8.426
 1665POPC   C3B24909  18.622  42.237   8.014
 1665POPC   C4B24910  18.481  42.118   7.593
 1666POPC   NC324911  17.385  17.168   9.277
 1666POPC   PO424912  17.554  17.741   9.499
 1666POPC   GL124913  17.691  17.529   9.109
 1666POPC   GL224914  17.937  17.738   9.037
 1666POPC   C1A24915  17.670  17.235   8.722
 1666POPC   D2A24916  17.420  17.065   8.403
 1666POPC   C3A24917  17.471  17.278   8.011
 1666POPC   C4A24918  17.376  17.373   7.592
 1666POPC   C1B24919  17.646  17.730   8.657
 1666POPC   C2B24920  17.394  17.666   8.338
 1666POPC   C3B24921  17.323  17.847   8.007
 1666POPC   C4B24922  17.621  17.795   7.764
 1667POPC   NC324923  33.992  32.662   9.547
 1667POPC   PO424924  33.658  32.063   9.583
 1667POPC   GL124925  33.900  32.006   9.210
 1667POPC   GL224926  33.887  32.332   9.155
 1667POPC   C1A24927  33.874  31.973   8.764
 1667POPC   D2A24928  33.742  32.220   8.414
 1667POPC   C3A24929  33.763  32.012   8.056
 1667POPC   C4A24930  34.064  32.005   7.739
 1667POPC   C1B24931  34.010  32.457   8.768
 1667POPC   C2B24932  34.123  32.582   8.347
 1667POPC   C3B24933  33.899  32.482   7.953
 1667POPC   C4B24934  33.970  32.442   7.479
 1668POPC   NC324935  11.311  12.118   9.946
 1668POPC   PO424936  11.087  12.312   9.379
 1668POPC   GL124937  11.180  12.030   9.047
 1668POPC   GL224938  11.494  12.037   9.115
 1668POPC   C1A24939  11.417  11.900   8.635
 1668POPC   D2A24940  11.568  11.837   8.223
 1668POPC   C3A24941  11.229  11.943   7.987
 1668POPC   C4A24942  10.994  11.711   7.750
 1668POPC   C1B24943  11.490  12.380   8.801
 1668POPC   C2B24944  11.706  12.333   8.398
 1668POPC   C3B24945  11.602  12.284   7.940
 1668POPC   C4B24946  11.756  11.915   7.706
 1669POPC   NC324947  10.871   9.934   9.301
 1669POPC   PO424948  10.343   9.526   9.408
 1669POPC   GL124949  10.475   9.667   9.075
 1669POPC   GL224950  10.751   9.450   9.071
 1669POPC   C1A24951  10.290   9.566   8.696
 1669POPC   D2A24952  10.139   9.761   8.348
 1669POPC   C3A24953  10.405   9.873   8.008
 1669POPC   C4A24954  10.571  10.286   7.895
 1669POPC   C1B24955  10.797   9.599   8.661
 1669POPC   C2B24956  10.614   9.487   8.276
 1669POPC   C3B24957  10.799   9.577   7.870
 1669POPC   C4B24958  10.882   9.505   7.418
 1670POPC   NC324959  18.489  29.058   9.586
 1670POPC   PO424960  18.035  29.673   9.574
 1670POPC   GL124961  18.042  29.500   9.096
 1670POPC   GL224962  18.227  29.137   9.056
 1670POPC   C1A24963  18.250  29.550   8.708
 1670POPC   D2A24964  18.482  29.354   8.373
 1670POPC   C3A24965  18.214  29.323   8.029
 1670POPC   C4A24966  18.199  29.344   7.583
 1670POPC   C1B24967  18.423  28.949   8.696
 1670POPC   C2B24968  18.332  28.850   8.247
 1670POPC   C3B24969  18.321  28.882   7.790
 1670POPC   C4B24970  18.576  29.030   7.426
 1671POPC   NC324971  21.647  15.247   9.643
 1671POPC   PO424972  20.984  15.264   9.776
 1671POPC   GL124973  21.234  15.084   9.375
 1671POPC   GL224974  21.023  14.855   9.210
 1671POPC   C1A24975  21.317  15.139   8.888
 1671POPC   D2A24976  21.551  15.291   8.526
 1671POPC   C3A24977  21.496  15.426   8.087
 1671POPC   C4A24978  21.634  15.095   7.831
 1671POPC   C1B24979  20.870  14.881   8.809
 1671POPC   C2B24980  20.916  15.237   8.523
 1671POPC   C3B24981  21.045  15.188   8.092
 1671POPC   C4B24982  21.192  14.818   7.847
 1672POPC   NC324983   1.695  17.307   9.369
 1672POPC   PO424984   2.107  17.652   9.724
 1672POPC   GL124985   1.977  17.748   9.261
 1672POPC   GL224986   1.645  17.698   9.050
 1672POPC   C1A24987   2.142  17.691   8.858
 1672POPC   D2A24988   2.342  17.536   8.481
 1672POPC   C3A24989   2.146  17.432   8.105
 1672POPC   C4A24990   2.158  17.606   7.730
 1672POPC   C1B24991   1.781  17.384   8.693
 1672POPC   C2B24992   1.710  17.209   8.266
 1672POPC   C3B24993   1.740  17.207   7.808
 1672POPC   C4B24994   1.721  17.056   7.339
 1673POPC   NC324995   6.915  41.977   9.418
 1673POPC   PO424996   6.639  42.673   9.502
 1673POPC   GL124997   6.669  42.343   9.179
 1673POPC   GL224998   6.394  42.125   9.138
 1673POPC   C1A24999   6.747  42.154   8.750
 1673POPC   D2A25000   6.939  42.206   8.348
 1673POPC   C3A25001   6.699  42.264   7.981
 1673POPC   C4A25002   6.790  42.345   7.544
 1673POPC   C1B25003   6.314  41.911   8.761
 1673POPC   C2B25004   6.422  42.010   8.358
 1673POPC   C3B25005   6.302  41.901   7.972
 1673POPC   C4B25006   6.346  42.127   7.608
 1674POPC   NC325007   0.945  10.175   9.703
 1674POPC   PO425008   1.499  10.284   9.505
 1674POPC   GL125009   1.506   9.916   9.201
 1674POPC   GL225010   1.328   9.597   9.232
 1674POPC   C1A25011   1.610   9.854   8.769
 1674POPC   D2A25012   1.410   9.864   8.364
 1674POPC   C3A25013   1.535   9.919   7.948
 1674POPC   C4A25014   1.290   9.790   7.631
 1674POPC   C1B25015   1.546   9.373   8.885
 1674POPC   C2B25016   1.722   9.444   8.457
 1674POPC   C3B25017   1.513   9.408   8.055
 1674POPC   C4B25018   1.288   9.275   7.655
 1675POPC   NC325019  13.475  41.045   9.584
 1675POPC   PO425020  13.802  40.437   9.574
 1675POPC   GL125021  13.773  40.703   9.203
 1675POPC   GL225022  13.607  41.009   9.102
 1675POPC   C1A25023  13.653  40.635   8.764
 1675POPC   D2A25024  13.834  40.812   8.412
 1675POPC   C3A25025  13.697  40.742   8.015
 1675POPC   C4A25026  13.887  40.506   7.716
 1675POPC   C1B25027  13.542  41.140   8.684
 1675POPC   C2B25028  13.422  41.248   8.243
 1675POPC   C3B25029  13.356  41.053   7.817
 1675POPC   C4B25030  13.177  40.786   7.459
 1676POPC   NC325031  17.229  15.735   9.478
 1676POPC   PO425032  17.800  16.106   9.523
 1676POPC   GL125033  17.518  15.994   9.167
 1676POPC   GL225034  17.250  15.844   8.971
 1676POPC   C1A25035  17.547  16.158   8.742
 1676POPC   D2A25036  17.608  15.946   8.364
 1676POPC   C3A25037  17.668  16.162   7.981
 1676POPC   C4A25038  17.616  16.414   7.602
 1676POPC   C1B25039  17.645  15.638   8.816
 1676POPC   C2B25040  17.821  15.456   8.451
 1676POPC   C3B25041  17.863  15.641   8.042
 1676POPC   C4B25042  17.508  15.680   7.849
 1677POPC   NC325043  40.999  21.669   9.571
 1677POPC   PO425044  40.666  21.084   9.627
 1677POPC   GL125045  40.668  21.409   9.273
 1677POPC   GL225046  40.997  21.443   9.132
 1677POPC   C1A25047  40.629  21.661   8.882
 1677POPC   D2A25048  40.564  21.496   8.484
 1677POPC   C3A25049  40.536  21.716   8.162
 1677POPC   C4A25050  40.488  21.360   7.931
 1677POPC   C1B25051  41.226  21.573   8.810
 1677POPC   C2B25052  41.105  21.397   8.450
 1677POPC   C3B25053  40.980  21.457   8.029
 1677POPC   C4B25054  41.286  21.466   7.686
 1678POPC   NC325055  42.447  20.744  10.000
 1678POPC   PO425056  42.507  20.103   9.840
 1678POPC   GL125057  42.602  20.549   9.439
 1678POPC   GL225058  42.319  20.683   9.175
 1678POPC   C1A25059  42.704  20.516   8.916
 1678POPC   D2A25060  42.909  20.403   8.478
 1678POPC   C3A25061  42.713  20.546   8.073
 1678POPC   C4A25062  42.336  20.503   7.773
 1678POPC   C1B25063  42.329  20.838   8.708
 1678POPC   C2B25064  42.275  20.814   8.214
 1678POPC   C3B25065  42.107  20.979   7.783
 1678POPC   C4B25066  41.978  21.082   7.349
 1679POPC   NC325067  39.856  43.954   9.678
 1679POPC   PO425068  39.247  43.874   9.666
 1679POPC   GL125069  39.537  43.799   9.297
 1679POPC   GL225070  39.500  44.104   9.180
 1679POPC   C1A25071  39.772  43.616   8.890
 1679POPC   D2A25072  39.813  43.382   8.474
 1679POPC   C3A25073  39.466  43.492   8.210
 1679POPC   C4A25074  39.537  43.811   7.911
 1679POPC   C1B25075  39.324  43.875   8.840
 1679POPC   C2B25076  39.370  43.966   8.415
 1679POPC   C3B25077  39.073  43.875   8.099
 1679POPC   C4B25078  39.102  43.950   7.661
 1680POPC   NC325079   5.333  22.219   9.635
 1680POPC   PO425080   5.078  21.733   9.561
 1680POPC   GL125081   5.004  21.938   9.131
 1680POPC   GL225082   5.145  22.275   9.139
 1680POPC   C1A25083   5.022  22.086   8.659
 1680POPC   D2A25084   5.085  21.936   8.218
 1680POPC   C3A25085   4.912  22.159   7.837
 1680POPC   C4A25086   4.805  22.298   7.400
 1680POPC   C1B25087   5.354  22.469   8.771
 1680POPC   C2B25088   5.318  22.407   8.310
 1680POPC   C3B25089   5.418  22.218   7.896
 1680POPC   C4B25090   5.658  22.326   7.506
 1681POPC   NC325091  26.128  30.985   9.396
 1681POPC   PO425092  25.739  30.497   9.518
 1681POPC   GL125093  25.947  30.561   9.144
 1681POPC   GL225094  25.746  30.835   9.059
 1681POPC   C1A25095  26.274  30.690   8.844
 1681POPC   D2A25096  26.316  30.582   8.403
 1681POPC   C3A25097  26.305  30.895   8.072
 1681POPC   C4A25098  26.105  30.724   7.715
 1681POPC   C1B25099  25.827  30.694   8.617
 1681POPC   C2B25100  25.787  30.691   8.138
 1681POPC   C3B25101  25.597  30.813   7.706
 1681POPC   C4B25102  25.670  30.982   7.269
 1682POPC   NC325103  32.376  36.799   9.443
 1682POPC   PO425104  31.937  37.386   9.434
 1682POPC   GL125105  31.931  37.115   9.038
 1682POPC   GL225106  32.192  36.831   8.972
 1682POPC   C1A25107  31.961  37.059   8.566
 1682POPC   D2A25108  32.267  36.841   8.289
 1682POPC   C3A25109  32.220  36.887   7.879
 1682POPC   C4A25110  32.503  36.983   7.585
 1682POPC   C1B25111  32.315  36.526   8.665
 1682POPC   C2B25112  32.158  36.331   8.304
 1682POPC   C3B25113  32.294  36.350   7.873
 1682POPC   C4B25114  32.265  36.535   7.463
 1683POPC   NC325115  32.729  30.153   9.559
 1683POPC   PO425116  33.307  29.722   9.583
 1683POPC   GL125117  33.056  29.801   9.261
 1683POPC   GL225118  33.157  30.122   9.238
 1683POPC   C1A25119  32.813  29.947   8.892
 1683POPC   D2A25120  32.686  29.859   8.473
 1683POPC   C3A25121  32.760  30.174   8.157
 1683POPC   C4A25122  32.745  30.051   7.750
 1683POPC   C1B25123  33.325  30.001   8.845
 1683POPC   C2B25124  33.174  30.013   8.445
 1683POPC   C3B25125  33.061  29.765   8.096
 1683POPC   C4B25126  33.231  29.894   7.724
 1684POPC   NC325127  17.196  14.814   9.584
 1684POPC   PO425128  17.575  15.384   9.511
 1684POPC   GL125129  17.469  15.094   9.206
 1684POPC   GL225130  17.303  15.357   9.088
 1684POPC   C1A25131  17.605  15.093   8.778
 1684POPC   D2A25132  17.423  15.061   8.397
 1684POPC   C3A25133  17.669  15.157   8.065
 1684POPC   C4A25134  17.515  15.172   7.687
 1684POPC   C1B25135  17.156  15.413   8.715
 1684POPC   C2B25136  17.269  15.558   8.337
 1684POPC   C3B25137  17.160  15.327   8.007
 1684POPC   C4B25138  17.108  15.503   7.605
 1685POPC   NC325139  24.590  35.784   9.550
 1685POPC   PO425140  24.494  35.134   9.554
 1685POPC   GL125141  24.547  35.203   9.146
 1685POPC   GL225142  24.383  35.524   9.120
 1685POPC   C1A25143  24.380  35.177   8.736
 1685POPC   D2A25144  24.310  35.394   8.357
 1685POPC   C3A25145  24.480  35.149   8.021
 1685POPC   C4A25146  24.595  35.292   7.623
 1685POPC   C1B25147  24.496  35.721   8.732
 1685POPC   C2B25148  24.735  35.722   8.356
 1685POPC   C3B25149  24.545  35.712   7.957
 1685POPC   C4B25150  24.698  35.866   7.575
 1686POPC   NC325151  41.030  43.419   9.519
 1686POPC   PO425152  40.630  42.881   9.532
 1686POPC   GL125153  40.833  43.042   9.205
 1686POPC   GL225154  40.696  43.400   9.129
 1686POPC   C1A25155  40.795  43.072   8.758
 1686POPC   D2A25156  40.451  43.047   8.494
 1686POPC   C3A25157  40.472  42.910   8.093
 1686POPC   C4A25158  40.409  42.974   7.673
 1686POPC   C1B25159  40.767  43.602   8.745
 1686POPC   C2B25160  40.867  43.433   8.376
 1686POPC   C3B25161  40.741  43.325   7.991
 1686POPC   C4B25162  40.894  43.029   7.714
 1687POPC   NC325163   2.012   7.189  10.311
 1687POPC   PO425164   1.950   7.413   9.669
 1687POPC   GL125165   2.023   7.196   9.268
 1687POPC   GL225166   1.796   7.432   9.124
 1687POPC   C1A25167   2.178   7.239   8.846
 1687POPC   D2A25168   2.131   7.575   8.530
 1687POPC   C3A25169   2.191   7.433   8.116
 1687POPC   C4A25170   2.184   7.308   7.704
 1687POPC   C1B25171   1.866   7.842   8.899
 1687POPC   C2B25172   1.829   8.018   8.466
 1687POPC   C3B25173   1.884   7.831   8.039
 1687POPC   C4B25174   1.861   7.948   7.603
 1688POPC   NC325175  39.532  32.229   9.614
 1688POPC   PO425176  39.059  32.731   9.442
 1688POPC   GL125177  39.338  32.487   9.205
 1688POPC   GL225178  39.327  32.113   9.179
 1688POPC   C1A25179  39.453  32.431   8.799
 1688POPC   D2A25180  39.596  32.234   8.449
 1688POPC   C3A25181  39.304  32.371   8.152
 1688POPC   C4A25182  39.365  32.587   7.792
 1688POPC   C1B25183  39.098  32.004   8.838
 1688POPC   C2B25184  39.177  31.946   8.442
 1688POPC   C3B25185  38.992  31.949   8.072
 1688POPC   C4B25186  38.965  32.134   7.692
 1689POPC   NC325187  36.801  22.613   9.536
 1689POPC   PO425188  36.835  21.993   9.531
 1689POPC   GL125189  36.813  22.215   9.182
 1689POPC   GL225190  36.480  22.419   9.194
 1689POPC   C1A25191  36.923  22.043   8.780
 1689POPC   D2A25192  36.657  21.914   8.450
 1689POPC   C3A25193  36.870  21.958   8.046
 1689POPC   C4A25194  37.099  22.138   7.700
 1689POPC   C1B25195  36.627  22.456   8.782
 1689POPC   C2B25196  36.767  22.408   8.386
 1689POPC   C3B25197  36.524  22.398   8.051
 1689POPC   C4B25198  36.618  22.234   7.715
 1690POPC   NC325199   5.699  32.066   9.515
 1690POPC   PO425200   5.911  32.729   9.503
 1690POPC   GL125201   5.712  32.467   9.105
 1690POPC   GL225202   5.678  32.075   9.012
 1690POPC   C1A25203   5.682  32.415   8.622
 1690POPC   D2A25204   5.801  32.689   8.291
 1690POPC   C3A25205   5.911  32.609   7.918
 1690POPC   C4A25206   5.691  32.466   7.604
 1690POPC   C1B25207   5.924  31.955   8.644
 1690POPC   C2B25208   5.944  32.162   8.246
 1690POPC   C3B25209   5.602  32.196   8.019
 1690POPC   C4B25210   5.637  31.977   7.622
 1691POPC   NC325211  41.597   5.661   9.746
 1691POPC   PO425212  41.246   6.206   9.515
 1691POPC   GL125213  41.496   5.889   9.239
 1691POPC   GL225214  41.451   5.542   9.163
 1691POPC   C1A25215  41.460   5.925   8.786
 1691POPC   D2A25216  41.341   5.657   8.463
 1691POPC   C3A25217  41.395   5.708   8.068
 1691POPC   C4A25218  41.498   5.819   7.690
 1691POPC   C1B25219  41.741   5.520   8.811
 1691POPC   C2B25220  41.889   5.741   8.443
 1691POPC   C3B25221  41.898   5.611   8.006
 1691POPC   C4B25222  41.908   5.562   7.555
 1692POPC   NC325223  37.826  27.275   9.370
 1692POPC   PO425224  37.394  27.677   9.617
 1692POPC   GL125225  37.637  27.710   9.233
 1692POPC   GL225226  37.977  27.789   9.184
 1692POPC   C1A25227  37.671  27.553   8.817
 1692POPC   D2A25228  37.572  27.648   8.432
 1692POPC   C3A25229  37.568  27.319   8.129
 1692POPC   C4A25230  37.616  27.420   7.713
 1692POPC   C1B25231  37.856  28.012   8.767
 1692POPC   C2B25232  37.972  27.957   8.354
 1692POPC   C3B25233  37.799  27.812   8.009
 1692POPC   C4B25234  37.984  27.760   7.669
 1693POPC   NC325235  37.121   3.770   9.457
 1693POPC   PO425236  36.500   3.444   9.408
 1693POPC   GL125237  36.744   3.437   9.049
 1693POPC   GL225238  36.774   3.787   9.071
 1693POPC   C1A25239  36.836   3.455   8.601
 1693POPC   D2A25240  36.908   3.801   8.325
 1693POPC   C3A25241  36.697   3.691   7.958
 1693POPC   C4A25242  36.856   3.345   7.700
 1693POPC   C1B25243  37.120   3.811   8.806
 1693POPC   C2B25244  37.342   3.452   8.590
 1693POPC   C3B25245  37.282   3.436   8.141
 1693POPC   C4B25246  37.186   3.731   7.858
 1694POPC   NC325247  40.560  27.595   9.405
 1694POPC   PO425248  41.096  27.925   9.209
 1694POPC   GL125249  40.807  27.721   8.975
 1694POPC   GL225250  40.779  27.337   8.990
 1694POPC   C1A25251  40.873  27.685   8.564
 1694POPC   D2A25252  40.781  27.328   8.348
 1694POPC   C3A25253  40.975  27.471   8.016
 1694POPC   C4A25254  41.006  27.917   7.885
 1694POPC   C1B25255  40.440  27.467   8.702
 1694POPC   C2B25256  40.382  27.707   8.338
 1694POPC   C3B25257  40.439  27.572   7.931
 1694POPC   C4B25258  40.710  27.565   7.589
 1695POPC   NC325259  41.213  44.720   9.408
 1695POPC   PO425260  41.743   0.020   9.415
 1695POPC   GL125261  41.638  44.845   9.035
 1695POPC   GL225262  41.507  44.530   8.935
 1695POPC   C1A25263  41.503  44.948   8.626
 1695POPC   D2A25264  41.223  44.882   8.279
 1695POPC   C3A25265  41.485  44.955   7.908
 1695POPC   C4A25266  41.681  44.929   7.510
 1695POPC   C1B25267  41.451  44.401   8.489
 1695POPC   C2B25268  41.656  44.520   8.107
 1695POPC   C3B25269  41.547  44.454   7.683
 1695POPC   C4B25270  41.336  44.367   7.258
 1696POPC   NC325271  33.020  32.835   9.699
 1696POPC   PO425272  32.517  33.239   9.400
 1696POPC   GL125273  32.806  33.006   9.121
 1696POPC   GL225274  33.159  32.980   9.233
 1696POPC   C1A25275  32.927  33.070   8.670
 1696POPC   D2A25276  33.139  32.776   8.372
 1696POPC   C3A25277  32.906  32.782   7.991
 1696POPC   C4A25278  32.722  33.164   7.857
 1696POPC   C1B25279  33.354  32.913   8.862
 1696POPC   C2B25280  33.445  33.211   8.508
 1696POPC   C3B25281  33.283  33.179   8.091
 1696POPC   C4B25282  33.402  32.789   7.882
 1697POPC   NC325283  29.245  33.739   9.687
 1697POPC   PO425284  28.606  33.716   9.625
 1697POPC   GL125285  28.889  33.943   9.314
 1697POPC   GL225286  29.193  33.748   9.191
 1697POPC   C1A25287  28.948  34.056   8.867
 1697POPC   D2A25288  29.289  34.004   8.574
 1697POPC   C3A25289  29.100  33.937   8.165
 1697POPC   C4A25290  28.783  33.785   7.832
 1697POPC   C1B25291  29.187  33.565   8.811
 1697POPC   C2B25292  29.106  33.452   8.390
 1697POPC   C3B25293  29.200  33.486   7.960
 1697POPC   C4B25294  29.431  33.654   7.571
 1698POPC   NC325295   0.998  30.966   9.615
 1698POPC   PO425296   1.474  30.468   9.760
 1698POPC   GL125297   1.330  30.592   9.317
 1698POPC   GL225298   1.413  30.354   9.047
 1698POPC   C1A25299   1.335  30.835   8.916
 1698POPC   D2A25300   1.164  30.908   8.494
 1698POPC   C3A25301   1.298  30.779   8.094
 1698POPC   C4A25302   1.199  30.959   7.686
 1698POPC   C1B25303   1.013  30.446   8.854
 1698POPC   C2B25304   0.855  30.316   8.460
 1698POPC   C3B25305   0.854  30.515   8.058
 1698POPC   C4B25306   1.163  30.441   7.681
 1699POPC   NC325307  24.703  31.203   9.407
 1699POPC   PO425308  24.218  31.664   9.339
 1699POPC   GL125309  24.566  31.599   9.109
 1699POPC   GL225310  24.441  31.312   8.978
 1699POPC   C1A25311  24.669  31.746   8.729
 1699POPC   D2A25312  24.498  31.629   8.332
 1699POPC   C3A25313  24.674  31.748   7.917
 1699POPC   C4A25314  24.534  31.573   7.526
 1699POPC   C1B25315  24.672  31.208   8.622
 1699POPC   C2B25316  24.649  31.028   8.221
 1699POPC   C3B25317  24.418  31.286   7.941
 1699POPC   C4B25318  24.182  31.159   7.613
 1700POPC   NC325319   0.709   2.831   9.412
 1700POPC   PO425320   0.011   2.652   9.329
 1700POPC   GL125321   0.276   2.606   8.964
 1700POPC   GL225322   0.639   2.585   8.985
 1700POPC   C1A25323   0.351   2.704   8.518
 1700POPC   D2A25324   0.495   3.061   8.240
 1700POPC   C3A25325   0.372   2.882   7.850
 1700POPC   C4A25326   0.298   2.446   7.828
 1700POPC   C1B25327   0.811   2.799   8.708
 1700POPC   C2B25328   0.868   2.691   8.316
 1700POPC   C3B25329   0.869   2.871   7.925
 1700POPC   C4B25330   0.840   2.577   7.603
 1701POPC   NC325331   5.468  16.999   9.528
 1701POPC   PO425332   5.116  16.401   9.502
 1701POPC   GL125333   5.080  16.544   9.100
 1701POPC   GL225334   5.177  16.861   9.139
 1701POPC   C1A25335   4.960  16.582   8.688
 1701POPC   D2A25336   5.076  16.239   8.433
 1701POPC   C3A25337   5.224  16.348   8.025
 1701POPC   C4A25338   5.146  16.626   7.710
 1701POPC   C1B25339   5.430  16.844   8.797
 1701POPC   C2B25340   5.411  16.677   8.390
 1701POPC   C3B25341   5.464  16.879   8.014
 1701POPC   C4B25342   5.357  17.086   7.662
 1702POPC   NC325343  39.332  44.348   9.585
 1702POPC   PO425344  39.126   0.028   9.602
 1702POPC   GL125345  39.361  44.745   9.246
 1702POPC   GL225346  39.146  44.466   9.139
 1702POPC   C1A25347  39.429  44.857   8.770
 1702POPC   D2A25348  39.544  44.876   8.316
 1702POPC   C3A25349  39.214  44.878   7.989
 1702POPC   C4A25350  39.219  44.895   7.511
 1702POPC   C1B25351  39.317  44.375   8.757
 1702POPC   C2B25352  39.209  44.467   8.355
 1702POPC   C3B25353  39.374  44.303   8.001
 1702POPC   C4B25354  39.150  44.452   7.706
 1703POPC   NC325355  19.189  26.250   9.445
 1703POPC   PO425356  19.560  25.717   9.446
 1703POPC   GL125357  19.254  25.847   9.093
 1703POPC   GL225358  19.123  26.149   8.961
 1703POPC   C1A25359  18.903  25.722   8.802
 1703POPC   D2A25360  19.004  25.773   8.376
 1703POPC   C3A25361  18.877  26.000   8.031
 1703POPC   C4A25362  19.127  25.935   7.673
 1703POPC   C1B25363  19.384  26.046   8.587
 1703POPC   C2B25364  19.402  26.033   8.104
 1703POPC   C3B25365  19.447  26.339   7.722
 1703POPC   C4B25366  19.313  26.214   7.286
 1704POPC   NC325367   2.795  20.998   9.590
 1704POPC   PO425368   2.599  21.665   9.581
 1704POPC   GL125369   2.800  21.559   9.200
 1704POPC   GL225370   2.776  21.923   9.158
 1704POPC   C1A25371   3.023  21.461   8.799
 1704POPC   D2A25372   3.081  21.165   8.432
 1704POPC   C3A25373   2.882  21.256   8.051
 1704POPC   C4A25374   2.640  21.024   7.771
 1704POPC   C1B25375   2.595  21.787   8.789
 1704POPC   C2B25376   2.686  21.586   8.410
 1704POPC   C3B25377   2.607  21.699   8.005
 1704POPC   C4B25378   2.886  21.627   7.672
 1705POPC   NC325379  26.353  27.254   9.260
 1705POPC   PO425380  26.639  26.807   9.633
 1705POPC   GL125381  26.806  26.960   9.253
 1705POPC   GL225382  26.990  26.639   9.183
 1705POPC   C1A25383  26.744  26.945   8.804
 1705POPC   D2A25384  26.751  27.110   8.403
 1705POPC   C3A25385  27.016  27.026   8.046
 1705POPC   C4A25386  27.035  26.802   7.684
 1705POPC   C1B25387  26.870  26.447   8.821
 1705POPC   C2B25388  26.726  26.478   8.441
 1705POPC   C3B25389  26.858  26.432   8.050
 1705POPC   C4B25390  26.957  26.287   7.669
 1706POPC   NC325391  19.879   3.793   9.721
 1706POPC   PO425392  19.914   4.420   9.517
 1706POPC   GL125393  19.865   4.282   9.132
 1706POPC   GL225394  19.560   4.144   9.248
 1706POPC   C1A25395  20.051   4.234   8.720
 1706POPC   D2A25396  20.034   4.431   8.288
 1706POPC   C3A25397  20.066   4.289   7.880
 1706POPC   C4A25398  19.775   4.407   7.529
 1706POPC   C1B25399  19.461   4.159   8.828
 1706POPC   C2B25400  19.649   4.073   8.432
 1706POPC   C3B25401  19.576   4.196   8.028
 1706POPC   C4B25402  19.629   3.939   7.689
 1707POPC   NC325403  28.505  16.441   9.545
 1707POPC   PO425404  28.169  16.953   9.377
 1707POPC   GL125405  28.346  16.677   9.115
 1707POPC   GL225406  28.134  16.404   9.148
 1707POPC   C1A25407  28.431  16.540   8.709
 1707POPC   D2A25408  28.625  16.768   8.378
 1707POPC   C3A25409  28.461  16.570   8.090
 1707POPC   C4A25410  28.440  16.687   7.692
 1707POPC   C1B25411  27.888  16.410   8.766
 1707POPC   C2B25412  27.973  16.366   8.319
 1707POPC   C3B25413  27.986  16.507   7.889
 1707POPC   C4B25414  28.069  16.420   7.453
 1708POPC   NC325415   5.651  12.339   9.274
 1708POPC   PO425416   5.241  11.908   9.677
 1708POPC   GL125417   5.031  11.947   9.242
 1708POPC   GL225418   5.089  12.299   9.167
 1708POPC   C1A25419   4.837  11.971   8.833
 1708POPC   D2A25420   4.757  12.087   8.412
 1708POPC   C3A25421   5.046  11.959   8.124
 1708POPC   C4A25422   4.902  11.949   7.726
 1708POPC   C1B25423   5.160  12.361   8.700
 1708POPC   C2B25424   5.406  12.295   8.314
 1708POPC   C3B25425   5.355  12.529   7.953
 1708POPC   C4B25426   5.152  12.578   7.605
 1709POPC   NC325427  33.416  27.758   9.552
 1709POPC   PO425428  34.100  27.859   9.328
 1709POPC   GL125429  33.694  27.790   9.123
 1709POPC   GL225430  33.536  27.478   9.115
 1709POPC   C1A25431  33.722  27.793   8.697
 1709POPC   D2A25432  33.433  27.714   8.413
 1709POPC   C3A25433  33.543  27.879   8.030
 1709POPC   C4A25434  33.746  27.760   7.656
 1709POPC   C1B25435  33.919  27.359   8.881
 1709POPC   C2B25436  34.026  27.370   8.453
 1709POPC   C3B25437  33.810  27.449   8.066
 1709POPC   C4B25438  33.950  27.298   7.668
 1710POPC   NC325439  28.365   0.920   9.629
 1710POPC   PO425440  28.079   1.497   9.580
 1710POPC   GL125441  28.198   1.225   9.208
 1710POPC   GL225442  28.474   1.425   9.132
 1710POPC   C1A25443  28.374   1.062   8.781
 1710POPC   D2A25444  28.287   0.824   8.395
 1710POPC   C3A25445  28.369   1.012   8.014
 1710POPC   C4A25446  28.274   0.962   7.595
 1710POPC   C1B25447  28.297   1.551   8.724
 1710POPC   C2B25448  28.498   1.397   8.364
 1710POPC   C3B25449  28.560   1.522   7.969
 1710POPC   C4B25450  28.325   1.476   7.647
 1711POPC   NC325451  22.705  27.326   9.312
 1711POPC   PO425452  22.953  26.740   9.411
 1711POPC   GL125453  22.887  26.896   9.079
 1711POPC   GL225454  23.138  27.130   9.107
 1711POPC   C1A25455  22.855  26.725   8.682
 1711POPC   D2A25456  23.007  26.572   8.305
 1711POPC   C3A25457  22.670  26.470   8.045
 1711POPC   C4A25458  22.470  26.347   7.672
 1711POPC   C1B25459  22.975  27.254   8.723
 1711POPC   C2B25460  23.110  27.077   8.378
 1711POPC   C3B25461  23.077  27.115   7.974
 1711POPC   C4B25462  22.734  26.902   7.782
 1712POPC   NC325463  20.737  34.345   9.604
 1712POPC   PO425464  20.309  34.843   9.403
 1712POPC   GL125465  20.474  34.502   9.153
 1712POPC   GL225466  20.813  34.420   9.101
 1712POPC   C1A25467  20.373  34.386   8.747
 1712POPC   D2A25468  20.503  34.429   8.320
 1712POPC   C3A25469  20.267  34.411   7.960
 1712POPC   C4A25470  20.459  34.680   7.654
 1712POPC   C1B25471  20.924  34.477   8.687
 1712POPC   C2B25472  20.854  34.786   8.340
 1712POPC   C3B25473  20.887  34.640   7.933
 1712POPC   C4B25474  20.994  34.793   7.533
 1713POPC   NC325475  40.119  37.926   9.630
 1713POPC   PO425476  39.698  37.396   9.478
 1713POPC   GL125477  39.739  37.533   9.086
 1713POPC   GL225478  39.964  37.797   9.159
 1713POPC   C1A25479  39.934  37.496   8.692
 1713POPC   D2A25480  39.767  37.368   8.303
 1713POPC   C3A25481  40.041  37.425   7.961
 1713POPC   C4A25482  40.087  37.269   7.515
 1713POPC   C1B25483  40.085  37.964   8.812
 1713POPC   C2B25484  39.844  37.957   8.405
 1713POPC   C3B25485  39.698  37.796   7.989
 1713POPC   C4B25486  39.947  37.756   7.592
 1714POPC   NC325487   5.202  33.552   9.509
 1714POPC   PO425488   4.694  33.883   9.416
 1714POPC   GL125489   5.043  33.823   9.121
 1714POPC   GL225490   5.253  34.075   8.970
 1714POPC   C1A25491   5.263  33.476   8.860
 1714POPC   D2A25492   5.319  33.455   8.387
 1714POPC   C3A25493   5.093  33.667   8.041
 1714POPC   C4A25494   5.242  33.885   7.662
 1714POPC   C1B25495   5.003  33.840   8.628
 1714POPC   C2B25496   4.689  33.983   8.356
 1714POPC   C3B25497   4.740  34.036   7.937
 1714POPC   C4B25498   4.765  33.831   7.550
 1715POPC   NC325499  36.601  35.603   9.849
 1715POPC   PO425500  36.928  35.092   9.501
 1715POPC   GL125501  36.795  35.208   9.105
 1715POPC   GL225502  37.032  35.453   9.123
 1715POPC   C1A25503  36.887  35.358   8.645
 1715POPC   D2A25504  36.818  35.050   8.298
 1715POPC   C3A25505  36.895  35.145   7.883
 1715POPC   C4A25506  36.836  35.578   7.734
 1715POPC   C1B25507  37.326  35.662   8.920
 1715POPC   C2B25508  37.341  35.681   8.486
 1715POPC   C3B25509  37.225  35.470   8.118
 1715POPC   C4B25510  37.343  35.569   7.707
 1716POPC   NC325511  22.720   0.714   9.561
 1716POPC   PO425512  23.037   1.348   9.539
 1716POPC   GL125513  22.861   1.160   9.208
 1716POPC   GL225514  23.051   0.870   9.204
 1716POPC   C1A25515  22.960   1.280   8.769
 1716POPC   D2A25516  23.201   1.541   8.483
 1716POPC   C3A25517  23.216   1.344   8.085
 1716POPC   C4A25518  22.844   1.311   7.856
 1716POPC   C1B25519  22.793   0.781   8.860
 1716POPC   C2B25520  22.840   0.690   8.449
 1716POPC   C3B25521  22.675   0.841   8.111
 1716POPC   C4B25522  22.811   0.814   7.755
 1717POPC   NC325523  16.151  27.282   9.501
 1717POPC   PO425524  15.954  27.905   9.497
 1717POPC   GL125525  15.916  27.606   9.167
 1717POPC   GL225526  15.591  27.459   9.116
 1717POPC   C1A25527  16.089  27.722   8.773
 1717POPC   D2A25528  16.343  27.594   8.454
 1717POPC   C3A25529  16.145  27.641   8.084
 1717POPC   C4A25530  16.245  27.705   7.672
 1717POPC   C1B25531  15.663  27.441   8.730
 1717POPC   C2B25532  15.855  27.321   8.381
 1717POPC   C3B25533  15.744  27.355   7.991
 1717POPC   C4B25534  15.761  27.595   7.658
 1718POPC   NC325535  19.630  44.954   9.799
 1718POPC   PO425536  19.853  44.375   9.586
 1718POPC   GL125537  19.962  44.737   9.346
 1718POPC   GL225538  19.682  44.968   9.240
 1718POPC   C1A25539  19.954  44.637   8.896
 1718POPC   D2A25540  19.729  44.583   8.491
 1718POPC   C3A25541  19.978  44.565   8.122
 1718POPC   C4A25542  20.039  44.761   7.723
 1718POPC   C1B25543  19.495  44.943   8.823
 1718POPC   C2B25544  19.466   0.018   8.383
 1718POPC   C3B25545  19.535  44.793   7.995
 1718POPC   C4B25546  19.630  44.461   7.715
 1719POPC   NC325547  34.914  36.259   9.449
 1719POPC   PO425548  34.220  36.075   9.418
 1719POPC   GL125549  34.546  36.143   9.119
 1719POPC   GL225550  34.792  35.856   9.138
 1719POPC   C1A25551  34.719  36.304   8.739
 1719POPC   D2A25552  34.568  36.161   8.331
 1719POPC   C3A25553  34.729  36.312   7.946
 1719POPC   C4A25554  34.720  36.317   7.483
 1719POPC   C1B25555  34.673  35.784   8.706
 1719POPC   C2B25556  34.925  35.752   8.305
 1719POPC   C3B25557  34.871  35.813   7.861
 1719POPC   C4B25558  34.447  35.926   7.736
 1720POPC   NC325559  25.249  18.518   9.678
 1720POPC   PO425560  24.888  17.955   9.577
 1720POPC   GL125561  25.148  18.145   9.234
 1720POPC   GL225562  24.991  18.439   9.171
 1720POPC   C1A25563  25.391  18.254   8.825
 1720POPC   D2A25564  25.234  18.158   8.353
 1720POPC   C3A25565  25.493  18.279   7.981
 1720POPC   C4A25566  25.531  18.586   7.623
 1720POPC   C1B25567  24.903  18.336   8.724
 1720POPC   C2B25568  24.992  18.605   8.334
 1720POPC   C3B25569  25.086  18.579   7.883
 1720POPC   C4B25570  25.138  18.889   7.522
 1721POPC   NC325571  30.856  44.952   9.883
 1721POPC   PO425572  30.351   0.224   9.505
 1721POPC   GL125573  30.521   0.045   9.150
 1721POPC   GL225574  30.200   0.021   9.015
 1721POPC   C1A25575  30.806   0.165   8.792
 1721POPC   D2A25576  30.732   0.349   8.357
 1721POPC   C3A25577  30.783   0.293   7.897
 1721POPC   C4A25578  30.844   0.674   7.651
 1721POPC   C1B25579  30.323   0.247   8.673
 1721POPC   C2B25580  30.241   0.484   8.303
 1721POPC   C3B25581  30.377   0.604   7.906
 1721POPC   C4B25582  30.394   0.435   7.491
 1722POPC   NC325583  37.451  41.299   9.588
 1722POPC   PO425584  37.836  41.766   9.593
 1722POPC   GL125585  37.808  41.496   9.208
 1722POPC   GL225586  38.020  41.183   9.196
 1722POPC   C1A25587  37.701  41.649   8.782
 1722POPC   D2A25588  37.469  41.785   8.418
 1722POPC   C3A25589  37.684  41.679   8.099
 1722POPC   C4A25590  37.515  41.543   7.747
 1722POPC   C1B25591  37.787  41.133   8.824
 1722POPC   C2B25592  37.598  41.250   8.441
 1722POPC   C3B25593  37.718  41.164   8.019
 1722POPC   C4B25594  37.987  41.390   7.748
 1723POPC   NC325595  41.455  39.925   9.707
 1723POPC   PO425596  41.895  40.402   9.643
 1723POPC   GL125597  41.782  40.083   9.322
 1723POPC   GL225598  41.422  39.977   9.220
 1723POPC   C1A25599  41.768  40.060   8.882
 1723POPC   D2A25600  41.553  40.119   8.505
 1723POPC   C3A25601  41.804  39.992   8.179
 1723POPC   C4A25602  41.745  40.051   7.750
 1723POPC   C1B25603  41.307  39.792   8.837
 1723POPC   C2B25604  41.094  39.859   8.426
 1723POPC   C3B25605  41.311  39.971   8.064
 1723POPC   C4B25606  41.258  39.834   7.683
 1724POPC   NC325607  27.698  40.655   9.336
 1724POPC   PO425608  27.051  40.990   9.560
 1724POPC   GL125609  27.232  40.871   9.175
 1724POPC   GL225610  27.426  41.161   9.221
 1724POPC   C1A25611  27.392  40.759   8.755
 1724POPC   D2A25612  27.277  40.632   8.316
 1724POPC   C3A25613  27.598  40.464   8.066
 1724POPC   C4A25614  27.755  40.653   7.700
 1724POPC   C1B25615  27.385  41.292   8.830
 1724POPC   C2B25616  27.565  41.147   8.459
 1724POPC   C3B25617  27.570  40.987   8.064
 1724POPC   C4B25618  27.280  40.981   7.725
 1725POPC   NC325619  33.098  37.490   9.404
 1725POPC   PO425620  32.698  38.033   9.486
 1725POPC   GL125621  32.884  37.893   9.135
 1725POPC   GL225622  32.591  37.736   9.029
 1725POPC   C1A25623  33.160  37.950   8.772
 1725POPC   D2A25624  33.293  37.852   8.322
 1725POPC   C3A25625  33.151  37.947   7.925
 1725POPC   C4A25626  33.140  37.529   7.722
 1725POPC   C1B25627  32.885  37.482   8.787
 1725POPC   C2B25628  33.010  37.434   8.369
 1725POPC   C3B25629  32.758  37.660   8.077
 1725POPC   C4B25630  32.717  37.805   7.662
 1726POPC   NC325631  42.836  17.233   9.564
 1726POPC   PO425632  42.242  17.211   9.568
 1726POPC   GL125633  42.237  17.391   9.129
 1726POPC   GL225634  42.632  17.414   9.104
 1726POPC   C1A25635  41.989  17.506   8.703
 1726POPC   D2A25636  41.927  17.800   8.322
 1726POPC   C3A25637  41.951  17.592   7.905
 1726POPC   C4A25638  42.076  17.493   7.452
 1726POPC   C1B25639  42.500  17.528   8.675
 1726POPC   C2B25640  42.317  17.452   8.249
 1726POPC   C3B25641  42.445  17.383   7.806
 1726POPC   C4B25642  42.597  17.530   7.406
 1727POPC   NC325643  44.282  21.107   9.321
 1727POPC   PO425644  44.648  20.593   9.606
 1727POPC   GL125645  44.729  20.476   9.188
 1727POPC   GL225646  44.428  20.629   9.131
 1727POPC   C1A25647  44.808  20.299   8.781
 1727POPC   D2A25648  44.805  20.537   8.425
 1727POPC   C3A25649  44.832  20.478   8.042
 1727POPC   C4A25650  44.619  20.523   7.728
 1727POPC   C1B25651  44.577  20.814   8.766
 1727POPC   C2B25652  44.413  20.879   8.374
 1727POPC   C3B25653  44.220  20.742   7.994
 1727POPC   C4B25654  44.305  20.905   7.575
 1728POPC   NC325655  35.612  25.063   9.468
 1728POPC   PO425656  34.934  25.115   9.315
 1728POPC   GL125657  35.278  25.188   9.065
 1728POPC   GL225658  35.411  25.472   9.224
 1728POPC   C1A25659  35.307  25.218   8.614
 1728POPC   D2A25660  35.229  25.369   8.173
 1728POPC   C3A25661  35.403  25.107   7.837
 1728POPC   C4A25662  35.216  24.980   7.506
 1728POPC   C1B25663  35.583  25.719   8.905
 1728POPC   C2B25664  35.593  25.632   8.483
 1728POPC   C3B25665  35.603  25.747   8.094
 1728POPC   C4B25666  35.449  25.579   7.708
 1729POPC   NC325667  10.429  19.966   9.706
 1729POPC   PO425668  10.251  19.352   9.649
 1729POPC   GL125669  10.401  19.617   9.279
 1729POPC   GL225670  10.435  19.997   9.190
 1729POPC   C1A25671  10.263  19.708   8.827
 1729POPC   D2A25672  10.118  20.049   8.548
 1729POPC   C3A25673  10.366  20.004   8.181
 1729POPC   C4A25674  10.332  19.788   7.777
 1729POPC   C1B25675  10.635  20.094   8.766
 1729POPC   C2B25676  10.869  20.194   8.362
 1729POPC   C3B25677  10.725  20.256   7.930
 1729POPC   C4B25678  10.565  20.170   7.489
 1730POPC   NC325679   0.031  16.056   9.417
 1730POPC   PO425680   0.614  15.633   9.545
 1730POPC   GL125681   0.391  15.742   9.188
 1730POPC   GL225682   0.506  16.068   9.089
 1730POPC   C1A25683   0.486  15.586   8.771
 1730POPC   D2A25684   0.427  15.811   8.392
 1730POPC   C3A25685   0.449  15.639   8.002
 1730POPC   C4A25686   0.413  15.799   7.606
 1730POPC   C1B25687   0.179  16.026   8.788
 1730POPC   C2B25688   0.022  16.158   8.387
 1730POPC   C3B25689   0.188  16.098   7.990
 1730POPC   C4B25690  44.986  16.156   7.600
 1731POPC   NC325691  30.825  18.500   9.531
 1731POPC   PO425692  30.738  17.877   9.322
 1731POPC   GL125693  30.914  18.225   9.041
 1731POPC   GL225694  30.876  18.624   9.007
 1731POPC   C1A25695  30.863  18.350   8.585
 1731POPC   D2A25696  30.607  18.676   8.373
 1731POPC   C3A25697  30.419  18.457   8.027
 1731POPC   C4A25698  30.461  18.015   7.885
 1731POPC   C1B25699  31.064  18.826   8.557
 1731POPC   C2B25700  31.084  18.583   8.137
 1731POPC   C3B25701  31.127  18.442   7.667
 1731POPC   C4B25702  30.874  18.508   7.250
 1732POPC   NC325703  23.896   5.672   9.730
 1732POPC   PO425704  23.692   6.267   9.504
 1732POPC   GL125705  23.776   5.832   9.239
 1732POPC   GL225706  24.043   5.857   8.953
 1732POPC   C1A25707  23.699   5.540   8.837
 1732POPC   D2A25708  23.862   5.687   8.449
 1732POPC   C3A25709  23.652   5.623   8.075
 1732POPC   C4A25710  23.875   5.756   7.763
 1732POPC   C1B25711  23.712   6.084   8.797
 1732POPC   C2B25712  23.647   6.378   8.493
 1732POPC   C3B25713  23.784   6.128   8.145
 1732POPC   C4B25714  23.623   6.203   7.759
 1733POPC   NC325715   8.386   9.005   9.412
 1733POPC   PO425716   7.793   9.065   9.668
 1733POPC   GL125717   7.956   8.930   9.178
 1733POPC   GL225718   8.279   8.742   9.013
 1733POPC   C1A25719   8.087   9.103   8.737
 1733POPC   D2A25720   8.403   9.182   8.394
 1733POPC   C3A25721   8.221   9.165   7.972
 1733POPC   C4A25722   7.971   8.864   7.755
 1733POPC   C1B25723   8.641   8.977   8.826
 1733POPC   C2B25724   8.804   8.861   8.446
 1733POPC   C3B25725   8.616   8.845   8.067
 1733POPC   C4B25726   8.490   8.778   7.682
 1734POPC   NC325727  21.806  44.827   9.453
 1734POPC   PO425728  22.441  44.607   9.631
 1734POPC   GL125729  22.262  44.706   9.209
 1734POPC   GL225730  21.943  44.732   8.986
 1734POPC   C1A25731  22.422  44.807   8.806
 1734POPC   D2A25732  22.420  44.607   8.415
 1734POPC   C3A25733  22.482  44.809   7.994
 1734POPC   C4A25734  22.335  44.721   7.569
 1734POPC   C1B25735  22.125  44.352   8.814
 1734POPC   C2B25736  22.071  44.257   8.392
 1734POPC   C3B25737  22.031  44.615   8.090
 1734POPC   C4B25738  21.835  44.708   7.726
 1735POPC   NC325739  17.180  34.598   9.426
 1735POPC   PO425740  16.567  34.195   9.425
 1735POPC   GL125741  16.867  34.273   9.120
 1735POPC   GL225742  16.772  34.617   9.086
 1735POPC   C1A25743  16.929  34.318   8.659
 1735POPC   D2A25744  16.911  34.537   8.249
 1735POPC   C3A25745  16.539  34.515   7.990
 1735POPC   C4A25746  16.343  34.120   7.883
 1735POPC   C1B25747  16.786  34.822   8.681
 1735POPC   C2B25748  16.778  35.032   8.270
 1735POPC   C3B25749  16.883  34.946   7.833
 1735POPC   C4B25750  16.783  34.833   7.380
 1736POPC   NC325751  31.671  11.387   9.492
 1736POPC   PO425752  31.169  10.858   9.291
 1736POPC   GL125753  31.527  11.102   9.097
 1736POPC   GL225754  31.890  11.263   9.058
 1736POPC   C1A25755  31.435  11.507   8.833
 1736POPC   D2A25756  31.112  11.566   8.447
 1736POPC   C3A25757  31.213  11.308   8.051
 1736POPC   C4A25758  31.351  11.506   7.672
 1736POPC   C1B25759  31.774  11.143   8.672
 1736POPC   C2B25760  31.605  11.338   8.362
 1736POPC   C3B25761  31.748  11.397   7.961
 1736POPC   C4B25762  31.765  11.131   7.608
 1737POPC   NC325763  22.541  16.547   9.656
 1737POPC   PO425764  21.898  16.615   9.479
 1737POPC   GL125765  21.997  16.407   9.135
 1737POPC   GL225766  22.330  16.515   9.199
 1737POPC   C1A25767  21.963  16.516   8.724
 1737POPC   D2A25768  21.739  16.582   8.370
 1737POPC   C3A25769  21.994  16.546   8.038
 1737POPC   C4A25770  21.971  16.661   7.639
 1737POPC   C1B25771  22.408  16.735   8.795
 1737POPC   C2B25772  22.447  16.697   8.344
 1737POPC   C3B25773  22.421  16.778   7.874
 1737POPC   C4B25774  22.453  16.767   7.389
 1738POPC   NC325775  13.130   5.514   9.381
 1738POPC   PO425776  12.735   6.118   9.532
 1738POPC   GL125777  12.696   5.981   9.113
 1738POPC   GL225778  13.036   5.961   9.123
 1738POPC   C1A25779  12.847   6.125   8.687
 1738POPC   D2A25780  12.700   5.858   8.387
 1738POPC   C3A25781  12.908   5.743   8.016
 1738POPC   C4A25782  12.807   5.880   7.638
 1738POPC   C1B25783  13.017   5.652   8.745
 1738POPC   C2B25784  13.091   5.422   8.383
 1738POPC   C3B25785  13.086   5.272   7.974
 1738POPC   C4B25786  13.092   5.441   7.559
 1739POPC   NC325787  31.698  20.106   9.416
 1739POPC   PO425788  31.172  19.662   9.512
 1739POPC   GL125789  31.418  19.772   9.136
 1739POPC   GL225790  31.356  20.135   9.060
 1739POPC   C1A25791  31.375  19.789   8.670
 1739POPC   D2A25792  31.692  19.523   8.433
 1739POPC   C3A25793  31.668  19.494   7.983
 1739POPC   C4A25794  31.280  19.640   7.833
 1739POPC   C1B25795  31.381  20.375   8.719
 1739POPC   C2B25796  31.486  20.196   8.354
 1739POPC   C3B25797  31.371  20.139   7.954
 1739POPC   C4B25798  31.682  19.942   7.710
 1740POPC   NC325799  30.491  30.446   9.423
 1740POPC   PO425800  30.146  31.077   9.315
 1740POPC   GL125801  30.420  30.807   9.080
 1740POPC   GL225802  30.788  30.788   9.193
 1740POPC   C1A25803  30.497  30.577   8.716
 1740POPC   D2A25804  30.637  30.809   8.393
 1740POPC   C3A25805  30.466  30.729   8.042
 1740POPC   C4A25806  30.434  30.786   7.653
 1740POPC   C1B25807  30.991  30.633   8.845
 1740POPC   C2B25808  31.161  30.721   8.510
 1740POPC   C3B25809  31.149  30.706   8.109
 1740POPC   C4B25810  30.883  30.607   7.773
 1741POPC   NC325811  31.182  14.641   9.428
 1741POPC   PO425812  31.516  14.066   9.494
 1741POPC   GL125813  31.453  14.315   9.157
 1741POPC   GL225814  31.123  14.288   9.056
 1741POPC   C1A25815  31.513  14.581   8.812
 1741POPC   D2A25816  31.720  14.535   8.436
 1741POPC   C3A25817  31.584  14.730   8.062
 1741POPC   C4A25818  31.475  14.489   7.694
 1741POPC   C1B25819  31.032  14.168   8.664
 1741POPC   C2B25820  31.189  14.473   8.391
 1741POPC   C3B25821  31.084  14.548   8.001
 1741POPC   C4B25822  30.885  14.260   7.734
 1742POPC   NC325823  15.873  29.390   9.535
 1742POPC   PO425824  16.070  30.081   9.570
 1742POPC   GL125825  16.029  30.034   9.146
 1742POPC   GL225826  16.096  29.670   9.156
 1742POPC   C1A25827  16.137  30.272   8.773
 1742POPC   D2A25828  15.884  30.377   8.413
 1742POPC   C3A25829  15.944  30.187   8.011
 1742POPC   C4A25830  16.029  29.970   7.628
 1742POPC   C1B25831  16.176  29.765   8.731
 1742POPC   C2B25832  16.279  30.014   8.360
 1742POPC   C3B25833  16.430  29.913   7.952
 1742POPC   C4B25834  16.368  29.579   7.633
 1743POPC   NC325835  35.486   7.769   9.651
 1743POPC   PO425836  35.318   8.419   9.523
 1743POPC   GL125837  35.305   8.209   9.145
 1743POPC   GL225838  35.618   8.302   9.023
 1743POPC   C1A25839  35.201   8.315   8.709
 1743POPC   D2A25840  34.930   8.494   8.370
 1743POPC   C3A25841  35.166   8.291   8.032
 1743POPC   C4A25842  35.535   8.443   7.863
 1743POPC   C1B25843  35.747   8.098   8.686
 1743POPC   C2B25844  35.593   8.160   8.314
 1743POPC   C3B25845  35.586   7.952   7.947
 1743POPC   C4B25846  35.522   8.055   7.526
 1744POPC   NC325847  16.261   9.025   9.434
 1744POPC   PO425848  15.636   9.343   9.375
 1744POPC   GL125849  15.880   9.093   9.106
 1744POPC   GL225850  15.648   8.974   8.906
 1744POPC   C1A25851  16.168   8.975   8.763
 1744POPC   D2A25852  15.936   9.066   8.383
 1744POPC   C3A25853  16.084   9.089   7.961
 1744POPC   C4A25854  16.061   9.368   7.579
 1744POPC   C1B25855  15.835   8.601   8.717
 1744POPC   C2B25856  16.011   8.557   8.321
 1744POPC   C3B25857  15.826   8.637   7.945
 1744POPC   C4B25858  15.789   8.935   7.581
 1745POPC   NC325859  25.615  44.172   9.438
 1745POPC   PO425860  24.947  43.898   9.493
 1745POPC   GL125861  25.041  43.771   9.086
 1745POPC   GL225862  25.382  43.852   9.074
 1745POPC   C1A25863  25.154  43.598   8.687
 1745POPC   D2A25864  24.996  43.788   8.335
 1745POPC   C3A25865  25.257  43.833   7.963
 1745POPC   C4A25866  25.515  43.569   7.720
 1745POPC   C1B25867  25.233  44.105   8.688
 1745POPC   C2B25868  25.079  44.285   8.284
 1745POPC   C3B25869  25.031  44.271   7.847
 1745POPC   C4B25870  25.396  44.334   7.553
 1746POPC   NC325871  40.608   1.371   9.617
 1746POPC   PO425872  41.061   1.022   9.281
 1746POPC   GL125873  40.863   1.340   9.065
 1746POPC   GL225874  40.496   1.383   9.129
 1746POPC   C1A25875  40.973   1.301   8.620
 1746POPC   D2A25876  40.949   0.993   8.297
 1746POPC   C3A25877  40.859   1.123   7.867
 1746POPC   C4A25878  41.095   1.327   7.547
 1746POPC   C1B25879  40.475   1.171   8.712
 1746POPC   C2B25880  40.513   1.258   8.291
 1746POPC   C3B25881  40.380   1.030   7.947
 1746POPC   C4B25882  40.320   1.321   7.604
 1747POPC   NC325883  18.600  13.492   9.322
 1747POPC   PO425884  18.996  13.954   9.550
 1747POPC   GL125885  19.225  13.887   9.159
 1747POPC   GL225886  19.068  13.548   9.139
 1747POPC   C1A25887  19.276  13.730   8.720
 1747POPC   D2A25888  19.049  13.717   8.340
 1747POPC   C3A25889  19.257  13.910   8.071
 1747POPC   C4A25890  19.318  13.788   7.677
 1747POPC   C1B25891  18.826  13.493   8.735
 1747POPC   C2B25892  18.714  13.299   8.353
 1747POPC   C3B25893  18.680  13.419   7.953
 1747POPC   C4B25894  18.819  13.797   7.813
 1748POPC   NC325895  34.914  15.438   9.508
 1748POPC   PO425896  34.354  15.904   9.457
 1748POPC   GL125897  34.331  15.652   9.077
 1748POPC   GL225898  34.653  15.574   9.095
 1748POPC   C1A25899  34.293  15.643   8.623
 1748POPC   D2A25900  34.368  15.996   8.359
 1748POPC   C3A25901  34.348  15.975   7.932
 1748POPC   C4A25902  34.637  16.234   7.697
 1748POPC   C1B25903  34.801  15.604   8.707
 1748POPC   C2B25904  34.846  15.767   8.288
 1748POPC   C3B25905  34.732  15.659   7.871
 1748POPC   C4B25906  34.947  15.710   7.512
 1749POPC   NC325907  28.785  29.282   9.361
 1749POPC   PO425908  29.294  29.108   9.648
 1749POPC   GL125909  29.184  28.981   9.222
 1749POPC   GL225910  29.286  29.275   9.109
 1749POPC   C1A25911  28.905  28.912   8.852
 1749POPC   D2A25912  28.869  29.157   8.512
 1749POPC   C3A25913  28.902  29.059   8.083
 1749POPC   C4A25914  28.913  28.769   7.748
 1749POPC   C1B25915  29.460  29.571   8.821
 1749POPC   C2B25916  29.448  29.612   8.357
 1749POPC   C3B25917  29.318  29.428   7.935
 1749POPC   C4B25918  29.012  29.282   7.623
 1750POPC   NC325919  22.085   8.460   9.402
 1750POPC   PO425920  21.414   8.295   9.666
 1750POPC   GL125921  21.413   8.234   9.260
 1750POPC   GL225922  21.615   8.472   9.105
 1750POPC   C1A25923  21.208   8.243   8.885
 1750POPC   D2A25924  21.192   8.503   8.534
 1750POPC   C3A25925  21.061   8.365   8.139
 1750POPC   C4A25926  21.315   8.370   7.754
 1750POPC   C1B25927  21.674   8.309   8.661
 1750POPC   C2B25928  21.572   8.353   8.215
 1750POPC   C3B25929  21.819   8.439   7.852
 1750POPC   C4B25930  21.908   8.249   7.438
 1751POPC   NC325931   4.255  14.630   9.924
 1751POPC   PO425932   4.111  14.215   9.408
 1751POPC   GL125933   4.447  14.330   9.064
 1751POPC   GL225934   4.271  14.593   9.000
 1751POPC   C1A25935   4.421  14.474   8.548
 1751POPC   D2A25936   4.593  14.859   8.299
 1751POPC   C3A25937   4.537  14.739   7.870
 1751POPC   C4A25938   4.514  14.306   7.776
 1751POPC   C1B25939   4.058  14.200   8.778
 1751POPC   C2B25940   3.855  14.171   8.439
 1751POPC   C3B25941   4.137  14.226   8.128
 1751POPC   C4B25942   4.009  14.425   7.785
 1752POPC   NC325943  22.396   6.837   9.346
 1752POPC   PO425944  22.099   6.285   9.455
 1752POPC   GL125945  22.347   6.410   9.098
 1752POPC   GL225946  22.637   6.204   9.165
 1752POPC   C1A25947  22.304   6.630   8.664
 1752POPC   D2A25948  22.233   7.065   8.447
 1752POPC   C3A25949  21.963   7.042   8.084
 1752POPC   C4A25950  22.160   6.862   7.764
 1752POPC   C1B25951  22.510   6.132   8.732
 1752POPC   C2B25952  22.617   6.302   8.375
 1752POPC   C3B25953  22.774   6.266   7.986
 1752POPC   C4B25954  22.415   6.325   7.737
 1753POPC   NC325955  40.194  39.672   9.463
 1753POPC   PO425956  39.781  39.071   9.384
 1753POPC   GL125957  40.023  39.282   9.118
 1753POPC   GL225958  40.359  39.215   9.205
 1753POPC   C1A25959  39.985  39.449   8.680
 1753POPC   D2A25960  40.078  39.276   8.284
 1753POPC   C3A25961  39.923  39.435   7.894
 1753POPC   C4A25962  39.914  39.102   7.593
 1753POPC   C1B25963  40.462  39.477   8.851
 1753POPC   C2B25964  40.465  39.598   8.407
 1753POPC   C3B25965  40.463  39.440   7.980
 1753POPC   C4B25966  40.307  39.446   7.540
 1754POPC   NC325967  43.507   0.831   9.303
 1754POPC   PO425968  44.030   0.432   9.541
 1754POPC   GL125969  43.894   0.473   9.136
 1754POPC   GL225970  43.891   0.132   9.074
 1754POPC   C1A25971  44.139   0.463   8.728
 1754POPC   D2A25972  44.032   0.240   8.331
 1754POPC   C3A25973  44.134   0.495   7.972
 1754POPC   C4A25974  44.334   0.875   7.977
 1754POPC   C1B25975  43.651   0.332   8.725
 1754POPC   C2B25976  43.430   0.552   8.449
 1754POPC   C3B25977  43.608   0.414   8.076
 1754POPC   C4B25978  43.784   0.224   7.716
 1755POPC   NC325979  28.169  38.341   9.556
 1755POPC   PO425980  28.716  38.636   9.297
 1755POPC   GL125981  28.397  38.463   9.110
 1755POPC   GL225982  28.158  38.701   9.173
 1755POPC   C1A25983  28.494  38.319   8.724
 1755POPC   D2A25984  28.727  38.430   8.342
 1755POPC   C3A25985  28.536  38.378   7.943
 1755POPC   C4A25986  28.559  38.389   7.463
 1755POPC   C1B25987  28.046  38.575   8.753
 1755POPC   C2B25988  28.216  38.512   8.337
 1755POPC   C3B25989  28.040  38.408   7.929
 1755POPC   C4B25990  28.192  38.692   7.631
 1756POPC   NC325991  30.111  24.794   9.489
 1756POPC   PO425992  29.659  24.397   9.593
 1756POPC   GL125993  29.970  24.371   9.246
 1756POPC   GL225994  29.892  24.103   9.110
 1756POPC   C1A25995  29.909  24.502   8.793
 1756POPC   D2A25996  29.904  24.632   8.342
 1756POPC   C3A25997  29.714  24.351   8.024
 1756POPC   C4A25998  29.911  24.178   7.656
 1756POPC   C1B25999  30.260  24.138   8.806
 1756POPC   C2B26000  30.421  24.048   8.398
 1756POPC   C3B26001  30.291  24.269   8.030
 1756POPC   C4B26002  30.425  24.199   7.634
 1757POPC   NC326003   1.457  11.844   9.559
 1757POPC   PO426004   1.013  12.335   9.549
 1757POPC   GL126005   1.306  12.242   9.195
 1757POPC   GL226006   1.673  12.272   9.243
 1757POPC   C1A26007   1.215  12.299   8.750
 1757POPC   D2A26008   0.998  12.395   8.360
 1757POPC   C3A26009   1.149  12.111   8.032
 1757POPC   C4A26010   1.498  11.841   7.918
 1757POPC   C1B26011   1.598  12.598   8.891
 1757POPC   C2B26012   1.391  12.712   8.478
 1757POPC   C3B26013   1.478  12.535   8.074
 1757POPC   C4B26014   1.433  12.344   7.675
 1758POPC   NC326015  44.965  22.602   9.824
 1758POPC   PO426016  44.696  23.058   9.379
 1758POPC   GL126017  44.499  23.002   8.992
 1758POPC   GL226018  44.404  22.650   8.932
 1758POPC   C1A26019  44.482  23.221   8.592
 1758POPC   D2A26020  44.457  23.348   8.155
 1758POPC   C3A26021  44.426  23.025   7.827
 1758POPC   C4A26022  44.476  23.219   7.423
 1758POPC   C1B26023  44.748  22.744   8.606
 1758POPC   C2B26024  44.992  23.054   8.361
 1758POPC   C3B26025  44.898  23.159   7.945
 1758POPC   C4B26026  44.854  22.906   7.557
 1759POPC   NC326027  22.060  24.858   9.694
 1759POPC   PO426028  22.059  25.493   9.582
 1759POPC   GL126029  21.889  25.482   9.126
 1759POPC   GL226030  21.768  25.135   9.084
 1759POPC   C1A26031  21.988  25.500   8.659
 1759POPC   D2A26032  22.106  25.572   8.194
 1759POPC   C3A26033  22.323  25.266   7.855
 1759POPC   C4A26034  22.456  25.376   7.410
 1759POPC   C1B26035  21.582  25.184   8.684
 1759POPC   C2B26036  21.590  25.398   8.301
 1759POPC   C3B26037  21.813  25.281   7.910
 1759POPC   C4B26038  22.007  25.573   7.609
 1760POPC   NC326039  26.300   0.284   9.483
 1760POPC   PO426040  25.626   0.566   9.492
 1760POPC   GL126041  25.917   0.397   9.187
 1760POPC   GL226042  25.898   0.676   9.030
 1760POPC   C1A26043  26.239   0.402   8.809
 1760POPC   D2A26044  26.077   0.263   8.375
 1760POPC   C3A26045  26.131   0.464   8.006
 1760POPC   C4A26046  26.259   0.291   7.617
 1760POPC   C1B26047  25.735   0.449   8.699
 1760POPC   C2B26048  25.559   0.554   8.308
 1760POPC   C3B26049  25.651   0.611   7.885
 1760POPC   C4B26050  25.950   0.708   7.595
 1761POPC   NC326051   4.166  39.775   9.418
 1761POPC   PO426052   4.076  40.458   9.348
 1761POPC   GL126053   4.471  40.219   9.195
 1761POPC   GL226054   4.499  39.840   9.048
 1761POPC   C1A26055   4.655  40.258   8.792
 1761POPC   D2A26056   4.460  39.949   8.542
 1761POPC   C3A26057   4.486  39.958   8.130
 1761POPC   C4A26058   4.539  39.955   7.692
 1761POPC   C1B26059   4.100  39.675   8.778
 1761POPC   C2B26060   3.997  39.635   8.315
 1761POPC   C3B26061   4.085  39.784   7.879
 1761POPC   C4B26062   4.258  39.614   7.445
 1762POPC   NC326063   8.484   4.508   9.431
 1762POPC   PO426064   8.089   4.962   9.732
 1762POPC   GL126065   8.039   5.016   9.214
 1762POPC   GL226066   8.068   4.683   9.179
 1762POPC   C1A26067   8.247   5.118   8.783
 1762POPC   D2A26068   8.216   5.230   8.329
 1762POPC   C3A26069   8.376   5.263   7.922
 1762POPC   C4A26070   8.148   5.001   7.645
 1762POPC   C1B26071   8.334   4.619   8.798
 1762POPC   C2B26072   8.529   4.808   8.448
 1762POPC   C3B26073   8.441   4.773   8.024
 1762POPC   C4B26074   8.454   4.607   7.618
 1763POPC   NC326075  30.642  20.184   9.340
 1763POPC   PO426076  30.573  20.892   9.245
 1763POPC   GL126077  30.658  20.541   8.977
 1763POPC   GL226078  30.999  20.507   9.083
 1763POPC   C1A26079  30.492  20.562   8.541
 1763POPC   D2A26080  30.181  20.889   8.319
 1763POPC   C3A26081  30.205  20.758   7.871
 1763POPC   C4A26082  30.568  20.522   7.689
 1763POPC   C1B26083  30.993  20.711   8.649
 1763POPC   C2B26084  30.928  20.752   8.169
 1763POPC   C3B26085  31.093  20.578   7.761
 1763POPC   C4B26086  30.964  20.491   7.322
 1764POPC   NC326087   4.391  33.207   9.529
 1764POPC   PO426088   3.890  32.703   9.498
 1764POPC   GL126089   4.232  32.811   9.201
 1764POPC   GL226090   4.185  33.164   9.076
 1764POPC   C1A26091   4.483  32.844   8.805
 1764POPC   D2A26092   4.409  33.069   8.406
 1764POPC   C3A26093   4.428  32.843   8.016
 1764POPC   C4A26094   4.093  32.771   7.719
 1764POPC   C1B26095   4.529  33.383   8.819
 1764POPC   C2B26096   4.760  33.448   8.401
 1764POPC   C3B26097   4.583  33.531   7.981
 1764POPC   C4B26098   4.363  33.236   7.723
 1765POPC   NC326099  13.592  17.943   9.548
 1765POPC   PO426100  13.429  18.583   9.546
 1765POPC   GL126101  13.383  18.363   9.127
 1765POPC   GL226102  13.647  18.099   9.072
 1765POPC   C1A26103  13.276  18.140   8.721
 1765POPC   D2A26104  13.395  18.018   8.309
 1765POPC   C3A26105  13.589  18.367   8.162
 1765POPC   C4A26106  13.479  18.590   7.839
 1765POPC   C1B26107  13.746  17.890   8.689
 1765POPC   C2B26108  13.930  17.786   8.298
 1765POPC   C3B26109  13.855  18.010   7.892
 1765POPC   C4B26110  13.423  18.088   7.753
 1766POPC   NC326111  32.646  18.388   9.331
 1766POPC   PO426112  32.121  18.228   9.714
 1766POPC   GL126113  32.172  18.267   9.208
 1766POPC   GL226114  32.405  18.052   9.013
 1766POPC   C1A26115  32.322  18.453   8.748
 1766POPC   D2A26116  32.164  18.486   8.325
 1766POPC   C3A26117  32.261  18.188   8.022
 1766POPC   C4A26118  32.202  18.243   7.595
 1766POPC   C1B26119  32.080  17.991   8.691
 1766POPC   C2B26120  31.837  18.076   8.301
 1766POPC   C3B26121  31.837  17.942   7.872
 1766POPC   C4B26122  32.169  17.748   7.632
 1767POPC   NC326123  36.068  41.955   9.438
 1767POPC   PO426124  36.320  41.305   9.502
 1767POPC   GL126125  36.269  41.426   9.076
 1767POPC   GL226126  36.180  41.747   9.007
 1767POPC   C1A26127  36.414  41.540   8.624
 1767POPC   D2A26128  36.311  41.518   8.199
 1767POPC   C3A26129  36.466  41.805   7.900
 1767POPC   C4A26130  36.332  41.744   7.459
 1767POPC   C1B26131  35.907  41.512   8.710
 1767POPC   C2B26132  35.799  41.500   8.278
 1767POPC   C3B26133  35.892  41.602   7.845
 1767POPC   C4B26134  35.864  41.939   7.524
 1768POPC   NC326135  18.974  22.878   9.930
 1768POPC   PO426136  18.962  23.404   9.543
 1768POPC   GL126137  18.943  23.039   9.190
 1768POPC   GL226138  19.234  22.920   8.974
 1768POPC   C1A26139  18.804  22.868   8.752
 1768POPC   D2A26140  18.850  23.053   8.336
 1768POPC   C3A26141  18.969  22.862   7.959
 1768POPC   C4A26142  18.715  22.586   7.692
 1768POPC   C1B26143  19.306  22.965   8.553
 1768POPC   C2B26144  19.385  23.113   8.150
 1768POPC   C3B26145  19.306  23.210   7.713
 1768POPC   C4B26146  19.432  23.066   7.300
 1769POPC   NC326147  43.497   2.288   9.663
 1769POPC   PO426148  44.198   2.102   9.518
 1769POPC   GL126149  44.052   2.153   9.118
 1769POPC   GL226150  43.684   2.215   9.129
 1769POPC   C1A26151  43.976   2.013   8.706
 1769POPC   D2A26152  43.695   2.049   8.376
 1769POPC   C3A26153  43.697   1.978   7.969
 1769POPC   C4A26154  44.003   1.838   7.771
 1769POPC   C1B26155  43.686   2.443   8.714
 1769POPC   C2B26156  43.980   2.470   8.358
 1769POPC   C3B26157  44.013   2.361   7.927
 1769POPC   C4B26158  43.675   2.383   7.604
 1770POPC   NC326159  35.112  39.665   9.341
 1770POPC   PO426160  35.074  40.379   9.435
 1770POPC   GL126161  35.317  40.087   9.165
 1770POPC   GL226162  35.558  39.802   9.031
 1770POPC   C1A26163  35.168  40.059   8.756
 1770POPC   D2A26164  35.203  40.380   8.454
 1770POPC   C3A26165  35.219  40.197   8.079
 1770POPC   C4A26166  35.532  40.119   7.749
 1770POPC   C1B26167  35.334  39.573   8.708
 1770POPC   C2B26168  35.134  39.732   8.340
 1770POPC   C3B26169  35.292  39.708   7.961
 1770POPC   C4B26170  35.129  39.753   7.586
 1771POPC   NC326171  38.319  31.519   9.316
 1771POPC   PO426172  37.724  31.757   9.425
 1771POPC   GL126173  37.859  31.590   9.070
 1771POPC   GL226174  38.098  31.879   9.031
 1771POPC   C1A26175  37.669  31.376   8.694
 1771POPC   D2A26176  37.740  31.430   8.249
 1771POPC   C3A26177  37.473  31.244   7.941
 1771POPC   C4A26178  37.583  31.042   7.556
 1771POPC   C1B26179  37.791  31.928   8.700
 1771POPC   C2B26180  37.919  31.967   8.309
 1771POPC   C3B26181  38.077  31.751   8.015
 1771POPC   C4B26182  37.816  31.531   7.715
 1772POPC   NC326183   1.914   8.921   9.611
 1772POPC   PO426184   2.452   9.077   9.342
 1772POPC   GL126185   2.174   8.870   9.096
 1772POPC   GL226186   1.850   9.027   9.119
 1772POPC   C1A26187   2.268   8.861   8.661
 1772POPC   D2A26188   2.323   9.014   8.253
 1772POPC   C3A26189   2.181   8.778   7.887
 1772POPC   C4A26190   2.146   8.948   7.464
 1772POPC   C1B26191   1.775   8.958   8.662
 1772POPC   C2B26192   1.804   8.992   8.198
 1772POPC   C3B26193   1.718   8.994   7.748
 1772POPC   C4B26194   1.375   8.816   7.452
 1773POPC   NC326195  42.148   1.894   9.525
 1773POPC   PO426196  42.557   2.364   9.229
 1773POPC   GL126197  42.282   2.122   9.075
 1773POPC   GL226198  42.455   1.821   9.129
 1773POPC   C1A26199  42.251   2.087   8.660
 1773POPC   D2A26200  42.433   2.087   8.311
 1773POPC   C3A26201  42.167   2.209   8.071
 1773POPC   C4A26202  42.314   2.153   7.695
 1773POPC   C1B26203  42.155   1.635   8.845
 1773POPC   C2B26204  42.329   1.583   8.417
 1773POPC   C3B26205  42.197   1.696   7.988
 1773POPC   C4B26206  42.319   1.639   7.558
 1774POPC   NC326207  12.001  41.352   9.491
 1774POPC   PO426208  12.422  41.800   9.431
 1774POPC   GL126209  12.018  41.711   9.110
 1774POPC   GL226210  11.820  41.413   9.028
 1774POPC   C1A26211  11.924  41.725   8.637
 1774POPC   D2A26212  12.165  41.446   8.340
 1774POPC   C3A26213  12.212  41.633   7.932
 1774POPC   C4A26214  11.861  41.923   7.849
 1774POPC   C1B26215  11.536  41.417   8.708
 1774POPC   C2B26216  11.632  41.377   8.287
 1774POPC   C3B26217  11.747  41.410   7.874
 1774POPC   C4B26218  11.734  41.132   7.538
 1775POPC   NC326219  23.147  35.185   9.511
 1775POPC   PO426220  23.007  34.532   9.656
 1775POPC   GL126221  23.165  34.712   9.218
 1775POPC   GL226222  23.262  34.380   9.039
 1775POPC   C1A26223  23.233  34.834   8.759
 1775POPC   D2A26224  23.004  34.850   8.319
 1775POPC   C3A26225  23.223  34.830   7.879
 1775POPC   C4A26226  23.162  34.795   7.408
 1775POPC   C1B26227  23.191  34.344   8.578
 1775POPC   C2B26228  22.940  34.345   8.185
 1775POPC   C3B26229  22.964  34.409   7.712
 1775POPC   C4B26230  22.696  34.574   7.371
 1776POPC   NC326231  26.433  21.664   9.774
 1776POPC   PO426232  26.914  21.943   9.665
 1776POPC   GL126233  26.873  22.132   9.237
 1776POPC   GL226234  26.512  22.067   9.179
 1776POPC   C1A26235  26.724  22.389   8.844
 1776POPC   D2A26236  26.531  22.353   8.419
 1776POPC   C3A26237  26.833  22.139   8.149
 1776POPC   C4A26238  27.161  22.149   7.831
 1776POPC   C1B26239  26.229  22.176   8.813
 1776POPC   C2B26240  26.128  22.002   8.392
 1776POPC   C3B26241  26.359  21.942   8.014
 1776POPC   C4B26242  26.661  22.056   7.678
 1777POPC   NC326243  15.397  15.222   9.565
 1777POPC   PO426244  14.782  15.119   9.519
 1777POPC   GL126245  15.061  15.324   9.150
 1777POPC   GL226246  15.445  15.414   9.081
 1777POPC   C1A26247  15.070  15.150   8.698
 1777POPC   D2A26248  14.853  14.891   8.355
 1777POPC   C3A26249  14.868  15.076   7.934
 1777POPC   C4A26250  15.071  15.426   7.700
 1777POPC   C1B26251  15.504  14.978   8.924
 1777POPC   C2B26252  15.454  14.786   8.500
 1777POPC   C3B26253  15.354  15.013   8.120
 1777POPC   C4B26254  15.303  14.905   7.697
 1778POPC   NC326255   3.511  22.353   9.652
 1778POPC   PO426256   3.589  21.795   9.549
 1778POPC   GL126257   3.449  22.029   9.194
 1778POPC   GL226258   3.760  21.925   9.042
 1778POPC   C1A26259   3.335  22.266   8.786
 1778POPC   D2A26260   3.117  22.382   8.339
 1778POPC   C3A26261   3.337  22.326   7.926
 1778POPC   C4A26262   3.793  22.381   7.860
 1778POPC   C1B26263   3.473  21.772   8.728
 1778POPC   C2B26264   3.506  22.020   8.357
 1778POPC   C3B26265   3.646  21.903   7.984
 1778POPC   C4B26266   3.344  21.846   7.696
 1779POPC   NC326267   6.302  29.014   9.429
 1779POPC   PO426268   6.829  29.396   9.677
 1779POPC   GL126269   6.630  29.469   9.246
 1779POPC   GL226270   6.316  29.384   9.084
 1779POPC   C1A26271   6.772  29.282   8.867
 1779POPC   D2A26272   6.744  29.005   8.518
 1779POPC   C3A26273   6.718  29.196   8.111
 1779POPC   C4A26274   6.851  29.081   7.717
 1779POPC   C1B26275   6.278  29.162   8.682
 1779POPC   C2B26276   6.267  28.964   8.250
 1779POPC   C3B26277   6.284  29.063   7.795
 1779POPC   C4B26278   6.298  29.208   7.355
 1780POPC   NC326279  44.164  38.513   9.490
 1780POPC   PO426280  43.628  38.194   9.831
 1780POPC   GL126281  43.700  38.349   9.364
 1780POPC   GL226282  43.740  38.699   9.261
 1780POPC   C1A26283  43.648  38.379   8.877
 1780POPC   D2A26284  43.500  38.294   8.458
 1780POPC   C3A26285  43.807  38.391   8.135
 1780POPC   C4A26286  43.757  38.449   7.691
 1780POPC   C1B26287  44.017  38.747   8.861
 1780POPC   C2B26288  44.196  38.655   8.439
 1780POPC   C3B26289  44.250  38.679   7.987
 1780POPC   C4B26290  44.264  38.704   7.546
 1781POPC   NC326291  10.249  29.110   9.667
 1781POPC   PO426292  10.898  28.975   9.604
 1781POPC   GL126293  10.562  28.955   9.299
 1781POPC   GL226294  10.424  29.267   9.199
 1781POPC   C1A26295  10.578  28.890   8.851
 1781POPC   D2A26296  10.902  28.971   8.506
 1781POPC   C3A26297  10.715  28.971   8.089
 1781POPC   C4A26298  10.817  28.789   7.713
 1781POPC   C1B26299  10.248  29.289   8.768
 1781POPC   C2B26300  10.285  29.174   8.314
 1781POPC   C3B26301  10.170  29.373   7.922
 1781POPC   C4B26302  10.380  29.574   7.530
 1782POPC   NC326303  19.451  28.294   9.377
 1782POPC   PO426304  18.875  28.354   9.580
 1782POPC   GL126305  18.997  28.396   9.154
 1782POPC   GL226306  19.195  28.716   9.226
 1782POPC   C1A26307  19.058  28.264   8.700
 1782POPC   D2A26308  18.924  28.202   8.265
 1782POPC   C3A26309  19.026  28.444   7.926
 1782POPC   C4A26310  18.717  28.534   7.616
 1782POPC   C1B26311  19.376  28.723   8.804
 1782POPC   C2B26312  19.281  28.637   8.358
 1782POPC   C3B26313  19.447  28.747   7.957
 1782POPC   C4B26314  19.417  28.595   7.542
 1783POPC   NC326315  41.443  25.968   9.359
 1783POPC   PO426316  41.837  26.484   9.182
 1783POPC   GL126317  41.574  26.267   8.973
 1783POPC   GL226318  41.230  26.313   9.008
 1783POPC   C1A26319  41.651  25.977   8.664
 1783POPC   D2A26320  41.797  25.955   8.245
 1783POPC   C3A26321  41.429  25.977   7.978
 1783POPC   C4A26322  41.091  25.675   7.877
 1783POPC   C1B26323  41.343  26.528   8.608
 1783POPC   C2B26324  41.653  26.673   8.292
 1783POPC   C3B26325  41.781  26.371   7.965
 1783POPC   C4B26326  41.549  26.304   7.561
 1784POPC   NC326327  40.859  24.879   9.468
 1784POPC   PO426328  40.399  24.300   9.580
 1784POPC   GL126329  40.483  24.292   9.159
 1784POPC   GL226330  40.540  24.656   9.139
 1784POPC   C1A26331  40.597  24.384   8.730
 1784POPC   D2A26332  40.427  24.514   8.356
 1784POPC   C3A26333  40.735  24.378   8.063
 1784POPC   C4A26334  40.599  24.281   7.665
 1784POPC   C1B26335  40.891  24.799   8.825
 1784POPC   C2B26336  40.878  24.800   8.395
 1784POPC   C3B26337  40.691  24.891   8.012
 1784POPC   C4B26338  40.899  24.711   7.680
 1785POPC   NC326339   3.788  21.387   9.558
 1785POPC   PO426340   4.384  21.155   9.569
 1785POPC   GL126341   4.449  21.413   9.217
 1785POPC   GL226342   4.160  21.643   9.229
 1785POPC   C1A26343   4.508  21.349   8.800
 1785POPC   D2A26344   4.208  21.283   8.491
 1785POPC   C3A26345   4.357  21.295   8.075
 1785POPC   C4A26346   4.160  21.118   7.761
 1785POPC   C1B26347   4.244  21.780   8.774
 1785POPC   C2B26348   4.340  21.767   8.296
 1785POPC   C3B26349   4.203  21.738   7.826
 1785POPC   C4B26350   4.167  21.762   7.344
 1786POPC   NC326351   3.440  30.548   9.582
 1786POPC   PO426352   4.074  30.371   9.436
 1786POPC   GL126353   3.832  30.605   9.094
 1786POPC   GL226354   3.442  30.662   9.094
 1786POPC   C1A26355   3.668  30.708   8.654
 1786POPC   D2A26356   3.380  30.472   8.377
 1786POPC   C3A26357   3.450  30.561   7.938
 1786POPC   C4A26358   3.677  30.502   7.570
 1786POPC   C1B26359   3.254  31.025   8.877
 1786POPC   C2B26360   3.003  31.085   8.501
 1786POPC   C3B26361   3.081  30.861   8.143
 1786POPC   C4B26362   3.260  31.039   7.833
 1787POPC   NC326363  20.153  13.219   9.435
 1787POPC   PO426364  20.612  12.798   9.737
 1787POPC   GL126365  20.549  12.855   9.285
 1787POPC   GL226366  20.241  12.736   9.206
 1787POPC   C1A26367  20.541  13.008   8.832
 1787POPC   D2A26368  20.487  12.828   8.399
 1787POPC   C3A26369  20.769  12.987   8.069
 1787POPC   C4A26370  20.759  13.154   7.649
 1787POPC   C1B26371  20.112  12.713   8.776
 1787POPC   C2B26372  20.066  12.491   8.365
 1787POPC   C3B26373  20.087  12.677   7.977
 1787POPC   C4B26374  20.427  12.772   7.703
 1788POPC   NC326375  26.881  25.571   9.433
 1788POPC   PO426376  26.684  24.936   9.325
 1788POPC   GL126377  26.903  25.230   9.021
 1788POPC   GL226378  27.231  25.392   9.034
 1788POPC   C1A26379  26.931  25.480   8.635
 1788POPC   D2A26380  27.182  25.495   8.267
 1788POPC   C3A26381  26.940  25.377   7.878
 1788POPC   C4A26382  26.544  25.154   7.733
 1788POPC   C1B26383  27.364  25.177   8.661
 1788POPC   C2B26384  27.486  24.999   8.253
 1788POPC   C3B26385  27.338  25.029   7.827
 1788POPC   C4B26386  26.985  24.964   7.544
 1789POPC   NC326387  39.956   6.196   9.441
 1789POPC   PO426388  39.838   6.835   9.435
 1789POPC   GL126389  40.001   6.635   9.097
 1789POPC   GL226390  40.155   6.315   8.995
 1789POPC   C1A26391  39.922   6.784   8.713
 1789POPC   D2A26392  39.748   6.653   8.361
 1789POPC   C3A26393  39.979   6.678   8.022
 1789POPC   C4A26394  39.932   6.772   7.627
 1789POPC   C1B26395  39.892   6.260   8.655
 1789POPC   C2B26396  40.036   6.186   8.235
 1789POPC   C3B26397  40.081   6.235   7.807
 1789POPC   C4B26398  39.692   6.327   7.612
 1790POPC   NC326399  36.453  26.784   9.546
 1790POPC   PO426400  35.988  26.384   9.494
 1790POPC   GL126401  36.060  26.785   9.217
 1790POPC   GL226402  36.260  26.571   9.029
 1790POPC   C1A26403  36.134  27.059   8.812
 1790POPC   D2A26404  36.349  27.099   8.407
 1790POPC   C3A26405  36.087  27.095   8.031
 1790POPC   C4A26406  36.239  27.147   7.631
 1790POPC   C1B26407  35.854  26.621   8.779
 1790POPC   C2B26408  35.964  26.741   8.396
 1790POPC   C3B26409  36.195  26.610   8.087
 1790POPC   C4B26410  36.014  26.701   7.671
 1791POPC   NC326411  21.412  27.316   9.704
 1791POPC   PO426412  21.311  26.664   9.549
 1791POPC   GL126413  21.383  26.780   9.129
 1791POPC   GL226414  21.536  27.121   9.164
 1791POPC   C1A26415  21.079  26.727   8.756
 1791POPC   D2A26416  20.914  26.939   8.376
 1791POPC   C3A26417  21.066  26.852   7.967
 1791POPC   C4A26418  21.039  26.591   7.583
 1791POPC   C1B26419  21.337  27.171   8.748
 1791POPC   C2B26420  21.423  26.920   8.371
 1791POPC   C3B26421  21.555  26.772   7.938
 1791POPC   C4B26422  21.482  26.916   7.505
 1792POPC   NC326423   1.772  28.899   9.575
 1792POPC   PO426424   2.052  29.424   9.718
 1792POPC   GL126425   2.043  29.223   9.287
 1792POPC   GL226426   2.268  29.342   9.070
 1792POPC   C1A26427   1.767  29.109   8.938
 1792POPC   D2A26428   1.643  29.216   8.521
 1792POPC   C3A26429   1.918  29.306   8.184
 1792POPC   C4A26430   1.804  29.421   7.797
 1792POPC   C1B26431   2.137  29.364   8.667
 1792POPC   C2B26432   2.259  29.004   8.432
 1792POPC   C3B26433   2.303  28.903   8.029
 1792POPC   C4B26434   2.064  29.011   7.691
 1793POPC   NC326435   2.551   2.996   9.403
 1793POPC   PO426436   2.676   2.345   9.441
 1793POPC   GL126437   2.683   2.586   9.119
 1793POPC   GL226438   2.985   2.776   9.172
 1793POPC   C1A26439   2.551   2.693   8.735
 1793POPC   D2A26440   2.446   2.486   8.359
 1793POPC   C3A26441   2.690   2.680   8.060
 1793POPC   C4A26442   2.992   2.615   7.813
 1793POPC   C1B26443   3.100   2.555   8.780
 1793POPC   C2B26444   3.155   2.675   8.333
 1793POPC   C3B26445   3.116   3.040   8.023
 1793POPC   C4B26446   2.946   3.042   7.548
 1794POPC   NC326447  13.961   6.284   9.455
 1794POPC   PO426448  13.610   5.656   9.416
 1794POPC   GL126449  13.455   5.705   9.020
 1794POPC   GL226450  13.772   5.776   8.950
 1794POPC   C1A26451  13.356   6.030   8.736
 1794POPC   D2A26452  13.242   5.959   8.353
 1794POPC   C3A26453  13.459   5.660   8.106
 1794POPC   C4A26454  13.353   5.830   7.733
 1794POPC   C1B26455  13.770   5.829   8.507
 1794POPC   C2B26456  13.957   6.057   8.212
 1794POPC   C3B26457  13.830   5.959   7.867
 1794POPC   C4B26458  13.827   5.573   7.722
 1795POPC   NC326459  32.459  39.166   9.279
 1795POPC   PO426460  33.037  39.412   9.500
 1795POPC   GL126461  32.932  39.304   9.089
 1795POPC   GL226462  32.878  38.964   9.009
 1795POPC   C1A26463  33.185  39.245   8.710
 1795POPC   D2A26464  33.362  39.501   8.392
 1795POPC   C3A26465  33.085  39.508   8.029
 1795POPC   C4A26466  33.104  39.270   7.648
 1795POPC   C1B26467  32.694  39.116   8.646
 1795POPC   C2B26468  32.850  39.096   8.227
 1795POPC   C3B26469  32.663  39.147   7.835
 1795POPC   C4B26470  32.615  39.452   7.534
 1796POPC   NC326471   7.993  38.668   9.454
 1796POPC   PO426472   8.148  38.019   9.493
 1796POPC   GL126473   8.258  38.328   9.179
 1796POPC   GL226474   8.503  38.608   9.313
 1796POPC   C1A26475   8.018  38.379   8.801
 1796POPC   D2A26476   7.989  38.229   8.385
 1796POPC   C3A26477   7.850  38.526   8.107
 1796POPC   C4A26478   7.960  38.428   7.732
 1796POPC   C1B26479   8.390  38.753   8.882
 1796POPC   C2B26480   8.178  38.763   8.459
 1796POPC   C3B26481   8.358  38.595   8.056
 1796POPC   C4B26482   8.520  38.762   7.665
 1797POPC   NC326483   0.456  33.350   9.253
 1797POPC   PO426484  44.927  33.063   9.484
 1797POPC   GL126485   0.173  32.927   9.089
 1797POPC   GL226486   0.555  32.843   9.158
 1797POPC   C1A26487   0.319  33.123   8.669
 1797POPC   D2A26488   0.397  33.302   8.252
 1797POPC   C3A26489   0.160  32.981   8.035
 1797POPC   C4A26490   0.178  32.859   7.589
 1797POPC   C1B26491   0.733  32.800   8.735
 1797POPC   C2B26492   0.582  32.832   8.295
 1797POPC   C3B26493   0.628  33.001   7.839
 1797POPC   C4B26494   0.642  32.797   7.415
 1798POPC   NC326495   5.855   3.979   9.532
 1798POPC   PO426496   5.956   3.389   9.536
 1798POPC   GL126497   6.047   3.443   9.135
 1798POPC   GL226498   5.767   3.670   9.063
 1798POPC   C1A26499   5.969   3.243   8.739
 1798POPC   D2A26500   5.781   3.323   8.334
 1798POPC   C3A26501   6.054   3.289   7.971
 1798POPC   C4A26502   5.818   3.200   7.570
 1798POPC   C1B26503   5.925   3.757   8.633
 1798POPC   C2B26504   5.933   3.793   8.177
 1798POPC   C3B26505   5.729   3.640   7.818
 1798POPC   C4B26506   6.013   3.639   7.455
 1799POPC   NC326507  40.344  32.111   9.271
 1799POPC   PO426508  39.841  32.589   9.502
 1799POPC   GL126509  39.831  32.271   9.174
 1799POPC   GL226510  39.809  31.891   9.199
 1799POPC   C1A26511  39.961  32.376   8.781
 1799POPC   D2A26512  40.178  32.441   8.419
 1799POPC   C3A26513  39.931  32.350   8.067
 1799POPC   C4A26514  40.098  32.422   7.670
 1799POPC   C1B26515  39.986  31.868   8.753
 1799POPC   C2B26516  40.144  31.893   8.308
 1799POPC   C3B26517  39.946  31.884   7.892
 1799POPC   C4B26518  39.506  32.026   7.834
 1800POPC   NC326519   8.208   6.319   9.478
 1800POPC   PO426520   8.537   6.908   9.569
 1800POPC   GL126521   8.304   6.790   9.202
 1800POPC   GL226522   8.411   6.459   9.024
 1800POPC   C1A26523   8.346   6.920   8.775
 1800POPC   D2A26524   8.274   6.666   8.407
 1800POPC   C3A26525   8.399   6.829   8.007
 1800POPC   C4A26526   8.159   7.039   7.709
 1800POPC   C1B26527   7.960   6.582   8.864
 1800POPC   C2B26528   7.755   6.622   8.451
 1800POPC   C3B26529   7.865   6.681   8.027
 1800POPC   C4B26530   8.086   6.534   7.668
 1801POPC   NC326531  29.746  35.298   9.515
 1801POPC   PO426532  30.211  35.645   9.179
 1801POPC   GL126533  29.801  35.520   9.033
 1801POPC   GL226534  29.788  35.167   9.035
 1801POPC   C1A26535  29.639  35.422   8.624
 1801POPC   D2A26536  29.781  35.167   8.286
 1801POPC   C3A26537  29.801  35.339   7.910
 1801POPC   C4A26538  29.922  35.716   7.741
 1801POPC   C1B26539  30.070  35.070   8.695
 1801POPC   C2B26540  30.270  34.888   8.310
 1801POPC   C3B26541  30.234  35.075   7.929
 1801POPC   C4B26542  30.182  35.323   7.547
 1802POPC   NC326543  31.565  13.143   9.430
 1802POPC   PO426544  31.996  12.676   9.469
 1802POPC   GL126545  31.900  12.917   9.131
 1802POPC   GL226546  32.029  13.252   9.146
 1802POPC   C1A26547  31.917  12.877   8.723
 1802POPC   D2A26548  32.135  12.585   8.454
 1802POPC   C3A26549  32.116  12.741   8.049
 1802POPC   C4A26550  32.276  12.633   7.665
 1802POPC   C1B26551  32.375  13.059   8.863
 1802POPC   C2B26552  32.527  12.947   8.419
 1802POPC   C3B26553  32.605  12.955   7.946
 1802POPC   C4B26554  32.333  13.163   7.626
 1803POPC   NC326555   3.704  15.624   9.419
 1803POPC   PO426556   3.447  16.294   9.403
 1803POPC   GL126557   3.540  15.988   9.096
 1803POPC   GL226558   3.245  15.795   9.063
 1803POPC   C1A26559   3.709  15.920   8.679
 1803POPC   D2A26560   3.904  15.595   8.470
 1803POPC   C3A26561   3.872  15.714   8.016
 1803POPC   C4A26562   3.778  16.124   7.765
 1803POPC   C1B26563   3.234  16.073   8.695
 1803POPC   C2B26564   3.411  16.041   8.255
 1803POPC   C3B26565   3.318  16.306   7.881
 1803POPC   C4B26566   2.990  16.392   7.578
 1804POPC   NC326567  26.019  27.828   9.588
 1804POPC   PO426568  25.641  28.086   9.153
 1804POPC   GL126569  25.913  27.725   9.052
 1804POPC   GL226570  26.280  27.718   9.038
 1804POPC   C1A26571  26.039  27.693   8.604
 1804POPC   D2A26572  26.293  27.922   8.321
 1804POPC   C3A26573  26.081  27.996   7.941
 1804POPC   C4A26574  25.783  27.757   7.752
 1804POPC   C1B26575  26.447  27.417   8.675
 1804POPC   C2B26576  26.226  27.205   8.360
 1804POPC   C3B26577  26.041  27.458   8.069
 1804POPC   C4B26578  26.296  27.592   7.724
 1805POPC   NC326579  44.038  36.288   9.530
 1805POPC   PO426580  43.608  35.732   9.445
 1805POPC   GL126581  43.747  36.048   9.147
 1805POPC   GL226582  44.088  36.199   9.032
 1805POPC   C1A26583  43.770  35.974   8.724
 1805POPC   D2A26584  43.914  36.079   8.332
 1805POPC   C3A26585  43.581  35.992   8.067
 1805POPC   C4A26586  43.496  36.265   7.750
 1805POPC   C1B26587  44.341  36.448   8.727
 1805POPC   C2B26588  44.338  36.427   8.269
 1805POPC   C3B26589  44.287  36.102   7.961
 1805POPC   C4B26590  44.317  36.068   7.514
 1806POPC   NC326591  41.365  13.197   9.582
 1806POPC   PO426592  41.885  12.778   9.540
 1806POPC   GL126593  41.667  12.845   9.178
 1806POPC   GL226594  41.311  12.869   9.222
 1806POPC   C1A26595  41.521  12.956   8.773
 1806POPC   D2A26596  41.673  12.862   8.395
 1806POPC   C3A26597  41.587  13.109   8.086
 1806POPC   C4A26598  41.633  12.839   7.761
 1806POPC   C1B26599  41.172  12.589   8.931
 1806POPC   C2B26600  41.120  12.608   8.501
 1806POPC   C3B26601  41.270  12.679   8.095
 1806POPC   C4B26602  41.164  12.609   7.669
 1807POPC   NC326603   7.350  25.979   9.561
 1807POPC   PO426604   7.112  26.321   9.355
 1807POPC   GL126605   7.282  26.048   9.033
 1807POPC   GL226606   7.205  25.717   9.134
 1807POPC   C1A26607   7.435  25.982   8.604
 1807POPC   D2A26608   7.687  26.178   8.280
 1807POPC   C3A26609   7.732  25.990   7.862
 1807POPC   C4A26610   7.604  25.876   7.439
 1807POPC   C1B26611   6.952  25.748   8.763
 1807POPC   C2B26612   7.002  25.854   8.357
 1807POPC   C3B26613   7.258  25.933   8.050
 1807POPC   C4B26614   7.285  26.273   7.790
 1808POPC   NC326615  41.171   6.698   9.507
 1808POPC   PO426616  40.576   6.932   9.571
 1808POPC   GL126617  40.520   6.599   9.259
 1808POPC   GL226618  40.827   6.474   9.077
 1808POPC   C1A26619  40.438   6.702   8.830
 1808POPC   D2A26620  40.295   6.569   8.445
 1808POPC   C3A26621  40.521   6.726   8.103
 1808POPC   C4A26622  40.415   6.604   7.727
 1808POPC   C1B26623  40.733   6.294   8.638
 1808POPC   C2B26624  40.978   6.023   8.319
 1808POPC   C3B26625  41.179   6.165   7.924
 1808POPC   C4B26626  41.030   6.546   7.718
 1809POPC   NC326627   3.216  32.186   9.562
 1809POPC   PO426628   3.767  31.876   9.553
 1809POPC   GL126629   3.570  32.003   9.186
 1809POPC   GL226630   3.238  31.972   9.113
 1809POPC   C1A26631   3.519  32.314   8.846
 1809POPC   D2A26632   3.741  32.427   8.479
 1809POPC   C3A26633   3.545  32.341   8.066
 1809POPC   C4A26634   3.405  32.501   7.664
 1809POPC   C1B26635   3.052  32.085   8.721
 1809POPC   C2B26636   3.207  32.012   8.291
 1809POPC   C3B26637   3.126  32.077   7.880
 1809POPC   C4B26638   3.238  31.904   7.477
 1810POPC   NC326639   1.169  39.825   9.438
 1810POPC   PO426640   1.023  40.442   9.469
 1810POPC   GL126641   1.208  40.223   9.132
 1810POPC   GL226642   0.933  39.958   9.024
 1810POPC   C1A26643   1.391  40.012   8.774
 1810POPC   D2A26644   1.276  40.161   8.367
 1810POPC   C3A26645   1.423  39.936   8.028
 1810POPC   C4A26646   1.449  40.025   7.635
 1810POPC   C1B26647   0.905  39.849   8.592
 1810POPC   C2B26648   0.917  39.867   8.147
 1810POPC   C3B26649   0.966  39.840   7.701
 1810POPC   C4B26650   0.965  39.689   7.247
 1811POPC   NC326651  15.440  32.397   9.565
 1811POPC   PO426652  15.016  31.889   9.468
 1811POPC   GL126653  15.265  32.124   9.187
 1811POPC   GL226654  15.052  32.409   9.213
 1811POPC   C1A26655  15.371  32.073   8.772
 1811POPC   D2A26656  15.087  31.963   8.454
 1811POPC   C3A26657  15.225  32.136   8.089
 1811POPC   C4A26658  15.381  32.206   7.698
 1811POPC   C1B26659  14.902  32.277   8.835
 1811POPC   C2B26660  14.739  32.342   8.447
 1811POPC   C3B26661  14.841  32.484   8.067
 1811POPC   C4B26662  14.843  32.216   7.747
 1812POPC   NC326663   7.758  40.760   9.765
 1812POPC   PO426664   8.333  40.785   9.398
 1812POPC   GL126665   8.100  40.583   9.057
 1812POPC   GL226666   7.760  40.685   9.110
 1812POPC   C1A26667   8.134  40.647   8.594
 1812POPC   D2A26668   8.268  41.073   8.474
 1812POPC   C3A26669   8.203  41.151   8.069
 1812POPC   C4A26670   8.181  40.937   7.702
 1812POPC   C1B26671   7.846  41.013   8.764
 1812POPC   C2B26672   7.774  40.923   8.319
 1812POPC   C3B26673   7.717  40.971   7.892
 1812POPC   C4B26674   7.687  40.975   7.448
 1813POPC   NC326675  37.740   2.741   9.430
 1813POPC   PO426676  37.247   3.249   9.412
 1813POPC   GL126677  37.470   3.022   9.099
 1813POPC   GL226678  37.818   3.148   9.092
 1813POPC   C1A26679  37.428   2.764   8.719
 1813POPC   D2A26680  37.451   2.997   8.308
 1813POPC   C3A26681  37.566   2.836   7.908
 1813POPC   C4A26682  37.844   2.536   7.658
 1813POPC   C1B26683  37.818   3.083   8.655
 1813POPC   C2B26684  37.947   2.841   8.271
 1813POPC   C3B26685  38.068   2.942   7.844
 1813POPC   C4B26686  38.127   2.892   7.388
 1814POPC   NC326687  42.720  26.495   9.507
 1814POPC   PO426688  42.245  26.917   9.596
 1814POPC   GL126689  42.442  26.939   9.184
 1814POPC   GL226690  42.318  26.644   9.134
 1814POPC   C1A26691  42.622  26.956   8.711
 1814POPC   D2A26692  42.761  26.809   8.306
 1814POPC   C3A26693  42.673  26.962   7.897
 1814POPC   C4A26694  42.583  27.268   7.573
 1814POPC   C1B26695  42.135  26.859   8.747
 1814POPC   C2B26696  42.243  26.920   8.330
 1814POPC   C3B26697  42.209  26.707   7.943
 1814POPC   C4B26698  42.246  26.894   7.552
 1815POPC   NC326699  32.334  42.779   9.912
 1815POPC   PO426700  32.305  42.273   9.494
 1815POPC   GL126701  32.300  42.152   9.090
 1815POPC   GL226702  32.391  41.827   9.101
 1815POPC   C1A26703  32.161  42.380   8.681
 1815POPC   D2A26704  32.398  42.371   8.324
 1815POPC   C3A26705  32.218  42.543   7.995
 1815POPC   C4A26706  32.319  42.513   7.608
 1815POPC   C1B26707  32.276  41.905   8.659
 1815POPC   C2B26708  32.023  42.020   8.282
 1815POPC   C3B26709  32.022  42.081   7.827
 1815POPC   C4B26710  31.829  42.278   7.459
 1816POPC   NC326711  27.747   1.213   9.459
 1816POPC   PO426712  27.171   0.931   9.396
 1816POPC   GL126713  27.199   1.251   9.076
 1816POPC   GL226714  27.535   1.459   9.077
 1816POPC   C1A26715  27.382   1.224   8.655
 1816POPC   D2A26716  27.496   1.394   8.278
 1816POPC   C3A26717  27.457   1.038   8.041
 1816POPC   C4A26718  27.536   0.972   7.632
 1816POPC   C1B26719  27.872   1.271   8.802
 1816POPC   C2B26720  28.006   1.278   8.362
 1816POPC   C3B26721  27.936   1.261   7.913
 1816POPC   C4B26722  27.899   1.254   7.446
 1817POPC   NC326723  40.982   3.616   9.731
 1817POPC   PO426724  41.567   3.328   9.589
 1817POPC   GL126725  41.518   3.287   9.160
 1817POPC   GL226726  41.254   3.453   9.100
 1817POPC   C1A26727  41.602   3.462   8.741
 1817POPC   D2A26728  41.823   3.398   8.389
 1817POPC   C3A26729  41.596   3.431   8.014
 1817POPC   C4A26730  41.616   3.658   7.647
 1817POPC   C1B26731  41.141   3.685   8.702
 1817POPC   C2B26732  41.392   3.778   8.337
 1817POPC   C3B26733  41.211   3.838   7.910
 1817POPC   C4B26734  41.126   3.695   7.484
 1818POPC   NC326735  37.062  14.114   9.458
 1818POPC   PO426736  36.829  14.827   9.465
 1818POPC   GL126737  36.905  14.596   9.142
 1818POPC   GL226738  36.717  14.350   9.178
 1818POPC   C1A26739  36.956  14.576   8.712
 1818POPC   D2A26740  36.867  14.751   8.326
 1818POPC   C3A26741  36.994  14.490   7.999
 1818POPC   C4A26742  37.123  14.630   7.609
 1818POPC   C1B26743  36.815  14.112   8.815
 1818POPC   C2B26744  36.905  14.007   8.405
 1818POPC   C3B26745  36.708  14.050   8.000
 1818POPC   C4B26746  37.022  14.073   7.676
 1819POPC   NC326747   0.936  15.257   9.450
 1819POPC   PO426748   1.405  14.783   9.435
 1819POPC   GL126749   1.210  15.020   9.076
 1819POPC   GL226750   1.322  15.361   9.104
 1819POPC   C1A26751   1.399  15.089   8.650
 1819POPC   D2A26752   1.400  14.838   8.254
 1819POPC   C3A26753   1.259  15.158   7.965
 1819POPC   C4A26754   1.486  15.473   7.759
 1819POPC   C1B26755   0.993  15.421   8.788
 1819POPC   C2B26756   0.830  15.481   8.370
 1819POPC   C3B26757   0.946  15.565   7.930
 1819POPC   C4B26758   0.802  15.406   7.548
 1820POPC   NC326759  29.389  16.881   9.386
 1820POPC   PO426760  28.779  16.795   9.679
 1820POPC   GL126761  28.872  16.698   9.214
 1820POPC   GL226762  29.186  16.513   9.124
 1820POPC   C1A26763  28.935  16.702   8.750
 1820POPC   D2A26764  29.154  16.666   8.329
 1820POPC   C3A26765  28.929  16.744   7.942
 1820POPC   C4A26766  28.889  16.425   7.634
 1820POPC   C1B26767  29.457  16.633   8.755
 1820POPC   C2B26768  29.636  16.879   8.387
 1820POPC   C3B26769  29.467  17.094   8.024
 1820POPC   C4B26770  29.243  17.044   7.610
 1821POPC   NC326771  42.940  25.853   9.651
 1821POPC   PO426772  43.498  26.128   9.770
 1821POPC   GL126773  43.134  26.208   9.361
 1821POPC   GL226774  43.023  25.906   9.146
 1821POPC   C1A26775  43.055  26.323   8.894
 1821POPC   D2A26776  42.942  26.343   8.413
 1821POPC   C3A26777  43.133  26.142   8.038
 1821POPC   C4A26778  43.322  26.067   7.631
 1821POPC   C1B26779  42.755  25.943   8.717
 1821POPC   C2B26780  42.763  25.839   8.253
 1821POPC   C3B26781  42.913  25.716   7.821
 1821POPC   C4B26782  42.776  25.639   7.381
 1822POPC   NC326783   4.709   7.560   9.624
 1822POPC   PO426784   4.155   7.237   9.626
 1822POPC   GL126785   4.468   7.225   9.296
 1822POPC   GL226786   4.519   7.572   9.155
 1822POPC   C1A26787   4.473   7.154   8.862
 1822POPC   D2A26788   4.317   7.199   8.452
 1822POPC   C3A26789   4.582   7.243   8.107
 1822POPC   C4A26790   4.546   7.421   7.712
 1822POPC   C1B26791   4.132   7.559   8.896
 1822POPC   C2B26792   4.049   7.645   8.470
 1822POPC   C3B26793   4.136   7.563   8.022
 1822POPC   C4B26794   4.261   7.817   7.594
 1823POPC   NC326795   5.405  18.819   9.468
 1823POPC   PO426796   5.016  19.359   9.261
 1823POPC   GL126797   5.152  19.033   9.019
 1823POPC   GL226798   5.076  18.673   9.126
 1823POPC   C1A26799   5.157  19.064   8.546
 1823POPC   D2A26800   4.864  19.235   8.201
 1823POPC   C3A26801   5.031  19.202   7.754
 1823POPC   C4A26802   5.355  19.119   7.388
 1823POPC   C1B26803   4.962  18.613   8.719
 1823POPC   C2B26804   4.748  18.703   8.322
 1823POPC   C3B26805   4.877  18.690   7.896
 1823POPC   C4B26806   5.242  18.740   7.707
 1824POPC   NC326807  17.990  15.646   9.557
 1824POPC   PO426808  18.515  16.103   9.351
 1824POPC   GL126809  18.281  15.805   9.148
 1824POPC   GL226810  18.008  15.995   9.065
 1824POPC   C1A26811  18.189  15.610   8.765
 1824POPC   D2A26812  18.291  15.653   8.328
 1824POPC   C3A26813  18.330  15.578   7.857
 1824POPC   C4A26814  18.013  15.421   7.565
 1824POPC   C1B26815  18.047  16.070   8.638
 1824POPC   C2B26816  18.247  16.171   8.294
 1824POPC   C3B26817  18.204  16.058   7.908
 1824POPC   C4B26818  18.548  16.160   7.676
 1825POPC   NC326819  17.840   8.774   9.372
 1825POPC   PO426820  17.225   9.033   9.463
 1825POPC   GL126821  17.460   9.035   9.085
 1825POPC   GL226822  17.781   9.186   9.079
 1825POPC   C1A26823  17.322   8.996   8.652
 1825POPC   D2A26824  17.257   9.203   8.243
 1825POPC   C3A26825  17.179   8.971   7.900
 1825POPC   C4A26826  17.411   8.610   7.817
 1825POPC   C1B26827  17.836   8.909   8.702
 1825POPC   C2B26828  17.637   8.824   8.283
 1825POPC   C3B26829  17.708   9.025   7.890
 1825POPC   C4B26830  17.471   9.340   7.678
 1826POPC   NC326831  19.938  16.502   9.467
 1826POPC   PO426832  20.145  17.095   9.102
 1826POPC   GL126833  19.753  16.944   8.938
 1826POPC   GL226834  19.672  16.604   9.010
 1826POPC   C1A26835  19.733  16.896   8.508
 1826POPC   D2A26836  19.764  16.532   8.233
 1826POPC   C3A26837  19.978  16.714   7.888
 1826POPC   C4A26838  20.205  17.042   7.714
 1826POPC   C1B26839  19.392  16.542   8.642
 1826POPC   C2B26840  19.271  16.867   8.329
 1826POPC   C3B26841  19.504  16.918   7.953
 1826POPC   C4B26842  19.504  16.529   7.739
 1827POPC   NC326843  13.962  24.854   9.565
 1827POPC   PO426844  13.574  24.326   9.559
 1827POPC   GL126845  13.639  24.629   9.240
 1827POPC   GL226846  13.948  24.441   9.187
 1827POPC   C1A26847  13.553  24.814   8.843
 1827POPC   D2A26848  13.594  24.643   8.449
 1827POPC   C3A26849  13.620  24.792   8.082
 1827POPC   C4A26850  13.507  24.652   7.714
 1827POPC   C1B26851  13.652  24.306   8.851
 1827POPC   C2B26852  13.273  24.289   8.585
 1827POPC   C3B26853  13.273  24.376   8.112
 1827POPC   C4B26854  13.263  24.214   7.674
 1828POPC   NC326855   4.305  10.207   9.508
 1828POPC   PO426856   4.673   9.632   9.641
 1828POPC   GL126857   4.425   9.762   9.247
 1828POPC   GL226858   4.115   9.572   9.181
 1828POPC   C1A26859   4.292   9.849   8.796
 1828POPC   D2A26860   4.250  10.019   8.385
 1828POPC   C3A26861   4.415   9.756   8.066
 1828POPC   C4A26862   4.495   9.771   7.638
 1828POPC   C1B26863   3.899   9.486   8.831
 1828POPC   C2B26864   3.968   9.603   8.408
 1828POPC   C3B26865   3.814   9.579   8.007
 1828POPC   C4B26866   3.864   9.601   7.549
 1829POPC   NC326867  29.365  11.732   9.741
 1829POPC   PO426868  29.327  12.357   9.697
 1829POPC   GL126869  29.475  12.313   9.286
 1829POPC   GL226870  29.390  11.969   9.229
 1829POPC   C1A26871  29.318  12.352   8.862
 1829POPC   D2A26872  29.058  12.210   8.499
 1829POPC   C3A26873  29.222  12.191   8.050
 1829POPC   C4A26874  29.012  11.975   7.687
 1829POPC   C1B26875  29.408  11.816   8.790
 1829POPC   C2B26876  29.323  11.781   8.349
 1829POPC   C3B26877  29.398  11.705   7.920
 1829POPC   C4B26878  29.705  11.418   7.805
 1830POPC   NC326879  39.449  23.390   9.422
 1830POPC   PO426880  40.037  23.620   9.651
 1830POPC   GL126881  40.043  23.626   9.220
 1830POPC   GL226882  40.359  23.782   9.225
 1830POPC   C1A26883  39.898  23.602   8.782
 1830POPC   D2A26884  39.864  23.827   8.378
 1830POPC   C3A26885  39.964  23.597   8.031
 1830POPC   C4A26886  39.917  23.510   7.587
 1830POPC   C1B26887  40.432  23.568   8.824
 1830POPC   C2B26888  40.338  23.540   8.388
 1830POPC   C3B26889  40.502  23.544   7.970
 1830POPC   C4B26890  40.436  23.529   7.550
 1831POPC   NC326891  10.647  16.125   9.762
 1831POPC   PO426892  11.198  15.824   9.396
 1831POPC   GL126893  11.223  15.996   8.998
 1831POPC   GL226894  11.517  16.206   9.077
 1831POPC   C1A26895  11.087  15.952   8.559
 1831POPC   D2A26896  11.240  15.856   8.144
 1831POPC   C3A26897  11.176  16.197   7.858
 1831POPC   C4A26898  11.088  16.187   7.425
 1831POPC   C1B26899  11.606  15.955   8.695
 1831POPC   C2B26900  11.774  15.852   8.297
 1831POPC   C3B26901  11.663  16.081   7.960
 1831POPC   C4B26902  11.519  15.960   7.543
 1832POPC   NC326903  10.128  17.686   9.355
 1832POPC   PO426904  10.638  17.315   9.625
 1832POPC   GL126905  10.547  17.361   9.146
 1832POPC   GL226906  10.510  17.064   8.964
 1832POPC   C1A26907  10.441  17.519   8.685
 1832POPC   D2A26908  10.553  17.848   8.384
 1832POPC   C3A26909  10.426  17.716   7.950
 1832POPC   C4A26910  10.188  17.743   7.544
 1832POPC   C1B26911  10.841  17.227   8.706
 1832POPC   C2B26912  10.719  17.351   8.282
 1832POPC   C3B26913  10.798  17.391   7.849
 1832POPC   C4B26914  10.610  17.427   7.445
 1833POPC   NC326915  24.187  42.690   9.378
 1833POPC   PO426916  24.490  43.358   9.517
 1833POPC   GL126917  24.412  43.318   9.090
 1833POPC   GL226918  24.171  43.050   9.039
 1833POPC   C1A26919  24.384  43.284   8.656
 1833POPC   D2A26920  24.328  43.096   8.308
 1833POPC   C3A26921  24.575  43.087   8.024
 1833POPC   C4A26922  24.511  43.429   7.772
 1833POPC   C1B26923  24.164  42.657   8.742
 1833POPC   C2B26924  24.326  42.597   8.294
 1833POPC   C3B26925  24.159  42.704   7.890
 1833POPC   C4B26926  24.326  42.993   7.593
 1834POPC   NC326927  39.625   4.573   9.583
 1834POPC   PO426928  40.187   4.157   9.378
 1834POPC   GL126929  39.984   4.242   9.022
 1834POPC   GL226930  39.710   4.342   9.155
 1834POPC   C1A26931  39.927   4.321   8.595
 1834POPC   D2A26932  40.231   4.453   8.286
 1834POPC   C3A26933  40.147   4.458   7.843
 1834POPC   C4A26934  40.271   4.684   7.463
 1834POPC   C1B26935  39.566   4.642   8.890
 1834POPC   C2B26936  39.514   4.644   8.461
 1834POPC   C3B26937  39.766   4.716   8.101
 1834POPC   C4B26938  39.629   4.505   7.738
 1835POPC   NC326939  16.968  24.432   9.682
 1835POPC   PO426940  17.612  24.541   9.555
 1835POPC   GL126941  17.496  24.732   9.194
 1835POPC   GL226942  17.854  24.816   9.171
 1835POPC   C1A26943  17.298  24.648   8.815
 1835POPC   D2A26944  17.454  24.683   8.435
 1835POPC   C3A26945  17.444  24.500   8.054
 1835POPC   C4A26946  17.173  24.640   7.778
 1835POPC   C1B26947  17.844  24.633   8.788
 1835POPC   C2B26948  17.926  24.822   8.415
 1835POPC   C3B26949  17.929  24.665   8.009
 1835POPC   C4B26950  17.715  24.700   7.611
 1836POPC   NC326951  31.595  19.305   9.366
 1836POPC   PO426952  31.057  18.892   9.417
 1836POPC   GL126953  31.222  19.000   9.071
 1836POPC   GL226954  31.531  18.874   9.062
 1836POPC   C1A26955  31.220  19.315   8.797
 1836POPC   D2A26956  31.207  19.353   8.360
 1836POPC   C3A26957  31.353  19.027   8.139
 1836POPC   C4A26958  31.238  18.924   7.741
 1836POPC   C1B26959  31.567  18.988   8.614
 1836POPC   C2B26960  31.845  19.070   8.219
 1836POPC   C3B26961  31.743  18.960   7.787
 1836POPC   C4B26962  31.585  18.777   7.393
 1837POPC   NC326963  38.278  12.553   9.407
 1837POPC   PO426964  38.721  13.017   9.600
 1837POPC   GL126965  38.509  12.978   9.157
 1837POPC   GL226966  38.139  12.968   9.151
 1837POPC   C1A26967  38.326  13.203   8.743
 1837POPC   D2A26968  38.327  13.052   8.323
 1837POPC   C3A26969  38.500  12.707   8.105
 1837POPC   C4A26970  38.493  12.809   7.680
 1837POPC   C1B26971  38.268  12.723   8.738
 1837POPC   C2B26972  38.021  12.673   8.337
 1837POPC   C3B26973  38.028  12.730   7.892
 1837POPC   C4B26974  38.061  12.638   7.428
 1838POPC   NC326975   7.023  14.749   9.676
 1838POPC   PO426976   7.733  14.586   9.666
 1838POPC   GL126977   7.688  14.485   9.140
 1838POPC   GL226978   7.288  14.470   9.009
 1838POPC   C1A26979   7.584  14.203   8.742
 1838POPC   D2A26980   7.333  14.431   8.433
 1838POPC   C3A26981   7.514  14.305   8.041
 1838POPC   C4A26982   7.571  14.075   7.672
 1838POPC   C1B26983   7.589  14.758   8.745
 1838POPC   C2B26984   7.714  14.939   8.376
 1838POPC   C3B26985   7.467  14.809   8.070
 1838POPC   C4B26986   7.395  14.635   7.662
 1839POPC   NC326987   0.669  40.113   9.497
 1839POPC   PO426988   0.120  40.537   9.596
 1839POPC   GL126989   0.338  40.382   9.165
 1839POPC   GL226990   0.695  40.440   9.084
 1839POPC   C1A26991   0.438  40.160   8.720
 1839POPC   D2A26992   0.445  39.796   8.386
 1839POPC   C3A26993   0.174  39.800   8.017
 1839POPC   C4A26994   0.156  40.076   7.673
 1839POPC   C1B26995   0.935  40.343   8.712
 1839POPC   C2B26996   0.795  40.354   8.279
 1839POPC   C3B26997   0.614  40.196   7.872
 1839POPC   C4B26998   0.587  40.031   7.405
 1840POPC   NC326999  23.420  28.377  10.276
 1840POPC   PO427000  23.499  28.381   9.597
 1840POPC   GL127001  23.633  28.455   9.172
 1840POPC   GL227002  23.899  28.742   9.167
 1840POPC   C1A27003  23.562  28.287   8.734
 1840POPC   D2A27004  23.617  28.102   8.329
 1840POPC   C3A27005  23.372  28.119   7.933
 1840POPC   C4A27006  23.596  28.307   7.588
 1840POPC   C1B27007  23.616  28.786   8.800
 1840POPC   C2B27008  23.499  28.683   8.393
 1840POPC   C3B27009  23.668  28.539   8.037
 1840POPC   C4B27010  23.871  28.713   7.683
 1841POPC   NC327011  24.821  37.716   9.768
 1841POPC   PO427012  25.337  37.482   9.400
 1841POPC   GL127013  25.167  37.818   9.184
 1841POPC   GL227014  25.445  37.992   8.998
 1841POPC   C1A27015  25.030  37.768   8.767
 1841POPC   D2A27016  25.281  37.871   8.409
 1841POPC   C3A27017  25.009  37.732   8.092
 1841POPC   C4A27018  25.033  37.564   7.698
 1841POPC   C1B27019  25.501  37.590   8.784
 1841POPC   C2B27020  25.687  37.525   8.402
 1841POPC   C3B27021  25.492  37.597   8.008
 1841POPC   C4B27022  25.506  37.451   7.600
 1842POPC   NC327023  35.930  25.906   9.484
 1842POPC   PO427024  36.535  25.550   9.565
 1842POPC   GL127025  36.283  25.653   9.192
 1842POPC   GL227026  36.278  26.037   9.127
 1842POPC   C1A27027  36.082  25.657   8.788
 1842POPC   D2A27028  36.094  25.537   8.348
 1842POPC   C3A27029  36.145  25.857   8.044
 1842POPC   C4A27030  35.898  25.849   7.678
 1842POPC   C1B27031  36.079  26.167   8.736
 1842POPC   C2B27032  35.908  26.234   8.330
 1842POPC   C3B27033  35.882  26.276   7.915
 1842POPC   C4B27034  36.254  26.256   7.619
 1843POPC   NC327035  20.346  37.878   9.435
 1843POPC   PO427036  20.740  37.414   9.256
 1843POPC   GL127037  20.721  37.838   9.075
 1843POPC   GL227038  20.406  38.003   8.938
 1843POPC   C1A27039  20.884  37.896   8.688
 1843POPC   D2A27040  21.033  37.694   8.334
 1843POPC   C3A27041  20.877  37.808   7.971
 1843POPC   C4A27042  20.778  37.482   7.708
 1843POPC   C1B27043  20.462  37.620   8.662
 1843POPC   C2B27044  20.494  37.540   8.199
 1843POPC   C3B27045  20.351  37.770   7.830
 1843POPC   C4B27046  20.217  37.813   7.381
 1844POPC   NC327047  40.174   7.157   9.522
 1844POPC   PO427048  39.919   7.823   9.407
 1844POPC   GL127049  39.747   7.374   9.237
 1844POPC   GL227050  39.996   7.168   9.056
 1844POPC   C1A27051  39.539   7.121   8.857
 1844POPC   D2A27052  39.677   7.156   8.401
 1844POPC   C3A27053  39.770   7.222   7.927
 1844POPC   C4A27054  40.015   7.594   7.717
 1844POPC   C1B27055  40.256   7.171   8.693
 1844POPC   C2B27056  40.177   7.072   8.263
 1844POPC   C3B27057  40.273   7.103   7.803
 1844POPC   C4B27058  40.426   7.319   7.426
 1845POPC   NC327059  20.499   2.308   9.484
 1845POPC   PO427060  20.604   2.981   9.451
 1845POPC   GL127061  20.698   2.634   9.153
 1845POPC   GL227062  20.377   2.486   9.034
 1845POPC   C1A27063  20.811   2.350   8.818
 1845POPC   D2A27064  20.560   2.236   8.525
 1845POPC   C3A27065  20.684   2.314   8.096
 1845POPC   C4A27066  20.513   2.568   7.757
 1845POPC   C1B27067  20.483   2.734   8.708
 1845POPC   C2B27068  20.392   2.731   8.286
 1845POPC   C3B27069  20.557   3.017   7.992
 1845POPC   C4B27070  20.265   3.071   7.658
 1846POPC   NC327071   2.677  18.592   9.511
 1846POPC   PO427072   3.001  18.030   9.546
 1846POPC   GL127073   2.739  18.185   9.199
 1846POPC   GL227074   3.010  18.401   9.155
 1846POPC   C1A27075   2.725  18.366   8.759
 1846POPC   D2A27076   2.985  18.299   8.414
 1846POPC   C3A27077   2.756  18.250   8.044
 1846POPC   C4A27078   2.405  18.305   7.781
 1846POPC   C1B27079   3.130  18.688   8.816
 1846POPC   C2B27080   3.171  18.774   8.403
 1846POPC   C3B27081   3.267  18.504   8.055
 1846POPC   C4B27082   3.035  18.434   7.676
 1847POPC   NC327083  25.807  40.996   9.591
 1847POPC   PO427084  26.407  40.632   9.518
 1847POPC   GL127085  26.227  40.946   9.209
 1847POPC   GL227086  25.941  41.199   9.138
 1847POPC   C1A27087  26.234  40.922   8.771
 1847POPC   D2A27088  26.197  41.045   8.347
 1847POPC   C3A27089  26.139  40.681   8.091
 1847POPC   C4A27090  26.242  40.642   7.647
 1847POPC   C1B27091  25.723  41.065   8.758
 1847POPC   C2B27092  25.732  40.845   8.404
 1847POPC   C3B27093  25.686  40.973   8.011
 1847POPC   C4B27094  26.018  41.095   7.820
 1848POPC   NC327095  43.905   4.614   9.584
 1848POPC   PO427096  43.851   3.926   9.555
 1848POPC   GL127097  43.930   4.232   9.226
 1848POPC   GL227098  43.628   4.429   9.181
 1848POPC   C1A27099  43.983   4.414   8.795
 1848POPC   D2A27100  44.073   4.338   8.346
 1848POPC   C3A27101  43.901   4.581   8.039
 1848POPC   C4A27102  43.902   4.518   7.608
 1848POPC   C1B27103  43.612   4.056   8.847
 1848POPC   C2B27104  43.709   3.956   8.385
 1848POPC   C3B27105  43.834   4.087   7.943
 1848POPC   C4B27106  43.816   4.046   7.454
 1849POPC   NC327107  40.586   3.919   9.380
 1849POPC   PO427108  40.617   3.327   9.657
 1849POPC   GL127109  40.745   3.399   9.226
 1849POPC   GL227110  40.895   3.121   9.029
 1849POPC   C1A27111  40.647   3.509   8.797
 1849POPC   D2A27112  40.487   3.553   8.387
 1849POPC   C3A27113  40.746   3.704   8.071
 1849POPC   C4A27114  40.669   3.547   7.670
 1849POPC   C1B27115  41.163   3.170   8.691
 1849POPC   C2B27116  41.110   3.357   8.289
 1849POPC   C3B27117  41.113   3.336   7.860
 1849POPC   C4B27118  41.294   3.205   7.506
 1850POPC   NC327119  44.851  43.211   9.445
 1850POPC   PO427120  44.402  43.603   9.764
 1850POPC   GL127121  44.455  43.477   9.244
 1850POPC   GL227122  44.710  43.256   8.964
 1850POPC   C1A27123  44.335  43.502   8.758
 1850POPC   D2A27124  44.603  43.297   8.456
 1850POPC   C3A27125  44.536  43.204   8.041
 1850POPC   C4A27126  44.808  43.256   7.696
 1850POPC   C1B27127  44.701  42.858   8.700
 1850POPC   C2B27128  44.555  42.764   8.293
 1850POPC   C3B27129  44.936  42.857   8.072
 1850POPC   C4B27130   0.102  42.700   7.699
 1851POPC   NC327131  23.900   1.651   9.513
 1851POPC   PO427132  23.555   2.191   9.459
 1851POPC   GL127133  23.596   1.981   9.076
 1851POPC   GL227134  23.931   1.874   9.062
 1851POPC   C1A27135  23.448   2.046   8.661
 1851POPC   D2A27136  23.434   1.918   8.224
 1851POPC   C3A27137  23.619   2.199   7.928
 1851POPC   C4A27138  23.494   2.127   7.513
 1851POPC   C1B27139  23.871   1.782   8.636
 1851POPC   C2B27140  23.950   1.894   8.209
 1851POPC   C3B27141  23.806   1.762   7.794
 1851POPC   C4B27142  24.039   1.584   7.468
 1852POPC   NC327143   7.435   2.118   9.579
 1852POPC   PO427144   7.304   1.508   9.619
 1852POPC   GL127145   7.252   1.716   9.206
 1852POPC   GL227146   7.403   2.034   9.095
 1852POPC   C1A27147   7.258   1.642   8.756
 1852POPC   D2A27148   7.119   1.807   8.378
 1852POPC   C3A27149   7.309   1.736   8.000
 1852POPC   C4A27150   7.326   1.930   7.611
 1852POPC   C1B27151   7.190   2.183   8.756
 1852POPC   C2B27152   7.323   2.294   8.369
 1852POPC   C3B27153   7.497   2.206   8.008
 1852POPC   C4B27154   7.502   2.393   7.624
 1853POPC   NC327155   5.718   4.851   9.795
 1853POPC   PO427156   6.005   5.364   9.394
 1853POPC   GL127157   5.716   5.329   9.026
 1853POPC   GL227158   6.018   5.254   8.904
 1853POPC   C1A27159   5.623   5.079   8.655
 1853POPC   D2A27160   5.896   4.969   8.301
 1853POPC   C3A27161   5.638   4.939   7.931
 1853POPC   C4A27162   5.581   4.878   7.477
 1853POPC   C1B27163   6.296   5.516   8.735
 1853POPC   C2B27164   6.173   5.422   8.354
 1853POPC   C3B27165   6.083   5.459   7.956
 1853POPC   C4B27166   5.963   5.195   7.658
 1854POPC   NC327167  28.756  27.943   9.566
 1854POPC   PO427168  29.143  27.476   9.383
 1854POPC   GL127169  29.122  27.444   8.980
 1854POPC   GL227170  28.936  27.171   8.920
 1854POPC   C1A27171  29.349  27.594   8.632
 1854POPC   D2A27172  29.421  27.491   8.215
 1854POPC   C3A27173  29.101  27.559   7.969
 1854POPC   C4A27174  28.700  27.507   8.042
 1854POPC   C1B27175  29.182  27.107   8.562
 1854POPC   C2B27176  29.153  27.055   8.119
 1854POPC   C3B27177  29.325  27.151   7.733
 1854POPC   C4B27178  29.244  27.138   7.279
 1855POPC   NC327179  33.909  40.467   9.532
 1855POPC   PO427180  33.444  41.075   9.507
 1855POPC   GL127181  33.633  40.817   9.191
 1855POPC   GL227182  33.414  40.554   9.080
 1855POPC   C1A27183  33.891  40.963   8.847
 1855POPC   D2A27184  34.060  40.856   8.443
 1855POPC   C3A27185  33.851  40.899   8.062
 1855POPC   C4A27186  33.777  41.080   7.686
 1855POPC   C1B27187  33.629  40.530   8.654
 1855POPC   C2B27188  33.766  40.420   8.206
 1855POPC   C3B27189  33.745  40.548   7.736
 1855POPC   C4B27190  33.555  40.419   7.353
 1856POPC   NC327191  43.447  19.579   9.322
 1856POPC   PO427192  43.976  20.026   9.537
 1856POPC   GL127193  43.874  19.854   9.098
 1856POPC   GL227194  43.789  19.500   8.972
 1856POPC   C1A27195  44.096  19.783   8.705
 1856POPC   D2A27196  43.995  19.983   8.348
 1856POPC   C3A27197  44.100  19.761   7.992
 1856POPC   C4A27198  43.826  19.755   7.639
 1856POPC   C1B27199  43.589  19.768   8.615
 1856POPC   C2B27200  43.610  19.756   8.131
 1856POPC   C3B27201  43.343  19.790   7.802
 1856POPC   C4B27202  43.380  19.548   7.447
 1857POPC   NC327203   1.077  38.907   9.459
 1857POPC   PO427204   1.245  39.462   9.695
 1857POPC   GL127205   1.277  39.348   9.247
 1857POPC   GL227206   1.496  39.045   9.182
 1857POPC   C1A27207   1.162  39.477   8.827
 1857POPC   D2A27208   1.344  39.623   8.424
 1857POPC   C3A27209   1.225  39.486   7.975
 1857POPC   C4A27210   1.041  39.336   7.604
 1857POPC   C1B27211   1.236  38.963   8.810
 1857POPC   C2B27212   1.107  38.878   8.386
 1857POPC   C3B27213   1.007  38.977   7.971
 1857POPC   C4B27214   1.202  38.850   7.579
 1858POPC   NC327215  31.630  44.075   9.229
 1858POPC   PO427216  31.583  44.616   9.679
 1858POPC   GL127217  31.603  44.583   9.215
 1858POPC   GL227218  31.290  44.420   9.055
 1858POPC   C1A27219  31.675  44.623   8.762
 1858POPC   D2A27220  31.446  44.690   8.365
 1858POPC   C3A27221  31.609  44.699   7.943
 1858POPC   C4A27222  31.574  44.935   7.573
 1858POPC   C1B27223  31.143  44.767   8.779
 1858POPC   C2B27224  31.214   0.118   8.468
 1858POPC   C3B27225  31.193   0.009   8.036
 1858POPC   C4B27226  31.054  44.919   7.634
 1859POPC   NC327227  12.290  12.129   9.626
 1859POPC   PO427228  11.633  12.031   9.631
 1859POPC   GL127229  11.944  12.190   9.250
 1859POPC   GL227230  12.291  12.092   9.123
 1859POPC   C1A27231  12.004  12.378   8.829
 1859POPC   D2A27232  12.243  12.256   8.493
 1859POPC   C3A27233  12.080  12.198   8.086
 1859POPC   C4A27234  12.219  12.224   7.686
 1859POPC   C1B27235  12.022  11.866   8.834
 1859POPC   C2B27236  12.040  11.766   8.400
 1859POPC   C3B27237  12.228  11.691   8.002
 1859POPC   C4B27238  12.218  11.723   7.557
 1860POPC   NC327239  38.795  43.929   9.697
 1860POPC   PO427240  38.365  43.545   9.354
 1860POPC   GL127241  38.632  43.810   9.096
 1860POPC   GL227242  38.977  43.952   9.216
 1860POPC   C1A27243  38.420  43.945   8.700
 1860POPC   D2A27244  38.184  43.804   8.348
 1860POPC   C3A27245  38.263  43.985   7.959
 1860POPC   C4A27246  38.630  43.823   7.791
 1860POPC   C1B27247  38.849  44.191   8.844
 1860POPC   C2B27248  38.737  44.250   8.430
 1860POPC   C3B27249  38.799  44.290   8.023
 1860POPC   C4B27250  38.610  44.303   7.636
 1861POPC   NC327251  17.026  32.072   9.474
 1861POPC   PO427252  16.643  32.563   9.740
 1861POPC   GL127253  16.653  32.300   9.247
 1861POPC   GL227254  16.956  32.474   9.141
 1861POPC   C1A27255  16.567  32.393   8.740
 1861POPC   D2A27256  16.642  32.584   8.312
 1861POPC   C3A27257  16.699  32.239   7.983
 1861POPC   C4A27258  16.648  32.275   7.516
 1861POPC   C1B27259  16.998  32.147   8.809
 1861POPC   C2B27260  17.061  32.311   8.388
 1861POPC   C3B27261  17.173  32.418   7.983
 1861POPC   C4B27262  17.086  32.080   7.665
 1862POPC   NC327263  33.414  24.298   9.402
 1862POPC   PO427264  34.078  24.601   9.378
 1862POPC   GL127265  33.774  24.517   9.098
 1862POPC   GL227266  33.821  24.193   9.080
 1862POPC   C1A27267  33.643  24.642   8.700
 1862POPC   D2A27268  33.852  24.803   8.311
 1862POPC   C3A27269  33.697  24.649   7.884
 1862POPC   C4A27270  33.737  24.677   7.418
 1862POPC   C1B27271  34.002  24.298   8.671
 1862POPC   C2B27272  33.814  24.282   8.261
 1862POPC   C3B27273  34.026  24.069   7.914
 1862POPC   C4B27274  34.088  23.891   7.500
 1863POPC   NC327275  35.251  23.506   9.407
 1863POPC   PO427276  35.022  24.147   9.424
 1863POPC   GL127277  35.202  23.913   9.115
 1863POPC   GL227278  35.573  23.815   9.160
 1863POPC   C1A27279  35.380  23.913   8.713
 1863POPC   D2A27280  35.550  23.914   8.302
 1863POPC   C3A27281  35.335  23.641   8.039
 1863POPC   C4A27282  35.042  23.754   7.781
 1863POPC   C1B27283  35.582  23.461   8.832
 1863POPC   C2B27284  35.641  23.429   8.400
 1863POPC   C3B27285  35.854  23.609   8.023
 1863POPC   C4B27286  35.668  23.687   7.650
 1864POPC   NC327287  15.604  41.285   9.874
 1864POPC   PO427288  15.527  41.840   9.515
 1864POPC   GL127289  15.367  41.827   9.051
 1864POPC   GL227290  15.086  41.591   9.033
 1864POPC   C1A27291  15.278  41.777   8.576
 1864POPC   D2A27292  15.105  41.739   8.128
 1864POPC   C3A27293  15.394  41.811   7.783
 1864POPC   C4A27294  15.374  41.814   7.304
 1864POPC   C1B27295  15.265  41.273   8.721
 1864POPC   C2B27296  15.297  41.269   8.258
 1864POPC   C3B27297  14.991  41.246   7.933
 1864POPC   C4B27298  14.938  41.118   7.476
 1865POPC   NC327299  38.318   5.533   9.640
 1865POPC   PO427300  38.700   6.070   9.702
 1865POPC   GL127301  38.498   5.988   9.258
 1865POPC   GL227302  38.541   5.642   9.187
 1865POPC   C1A27303  38.502   6.121   8.780
 1865POPC   D2A27304  38.268   6.041   8.372
 1865POPC   C3A27305  38.454   6.186   7.970
 1865POPC   C4A27306  38.590   6.399   7.572
 1865POPC   C1B27307  38.396   5.642   8.751
 1865POPC   C2B27308  38.322   5.492   8.408
 1865POPC   C3B27309  38.185   5.625   8.050
 1865POPC   C4B27310  38.402   5.607   7.695
 1866POPC   NC327311   0.656  44.884   9.883
 1866POPC   PO427312   0.152  44.912   9.473
 1866POPC   GL127313   0.083  44.839   9.041
 1866POPC   GL227314   0.294  44.510   9.022
 1866POPC   C1A27315   0.223  44.787   8.607
 1866POPC   D2A27316   0.437  44.491   8.351
 1866POPC   C3A27317   0.179  44.515   8.004
 1866POPC   C4A27318   0.152  44.794   7.642
 1866POPC   C1B27319   0.693  44.661   8.782
 1866POPC   C2B27320   0.910  44.733   8.371
 1866POPC   C3B27321   0.875  44.464   8.053
 1866POPC   C4B27322   0.568  44.474   7.694
 1867POPC   NC327323  12.200  25.616   9.466
 1867POPC   PO427324  11.824  26.121   9.459
 1867POPC   GL127325  11.719  26.084   9.070
 1867POPC   GL227326  11.714  25.701   9.121
 1867POPC   C1A27327  12.035  26.232   8.767
 1867POPC   D2A27328  12.276  26.040   8.445
 1867POPC   C3A27329  12.167  26.135   7.998
 1867POPC   C4A27330  12.333  26.359   7.662
 1867POPC   C1B27331  11.856  25.754   8.695
 1867POPC   C2B27332  11.833  25.837   8.277
 1867POPC   C3B27333  11.954  25.702   7.881
 1867POPC   C4B27334  11.793  26.042   7.633
 1868POPC   NC327335   1.065  27.351   9.399
 1868POPC   PO427336   1.510  27.819   9.392
 1868POPC   GL127337   1.175  27.755   9.097
 1868POPC   GL227338   1.275  27.442   8.952
 1868POPC   C1A27339   1.114  27.814   8.642
 1868POPC   D2A27340   1.259  27.814   8.228
 1868POPC   C3A27341   0.975  27.553   7.992
 1868POPC   C4A27342   0.884  27.570   7.559
 1868POPC   C1B27343   1.512  27.508   8.576
 1868POPC   C2B27344   1.436  27.334   8.176
 1868POPC   C3B27345   1.432  27.528   7.797
 1868POPC   C4B27346   1.333  27.398   7.392
 1869POPC   NC327347  31.488  40.411   9.792
 1869POPC   PO427348  31.470  39.821   9.568
 1869POPC   GL127349  31.486  40.122   9.210
 1869POPC   GL227350  31.183  40.189   9.062
 1869POPC   C1A27351  31.619  40.186   8.763
 1869POPC   D2A27352  31.680  39.993   8.342
 1869POPC   C3A27353  31.420  40.178   8.017
 1869POPC   C4A27354  31.337  40.208   7.541
 1869POPC   C1B27355  31.200  39.895   8.693
 1869POPC   C2B27356  31.051  39.893   8.254
 1869POPC   C3B27357  31.152  39.813   7.809
 1869POPC   C4B27358  31.090  39.799   7.332
 1870POPC   NC327359  34.017  26.726   9.540
 1870POPC   PO427360  33.575  27.229   9.556
 1870POPC   GL127361  33.742  26.996   9.192
 1870POPC   GL227362  33.696  26.649   9.155
 1870POPC   C1A27363  33.555  26.998   8.791
 1870POPC   D2A27364  33.541  27.185   8.392
 1870POPC   C3A27365  33.760  26.949   8.026
 1870POPC   C4A27366  33.866  26.784   7.575
 1870POPC   C1B27367  33.714  26.519   8.744
 1870POPC   C2B27368  33.722  26.386   8.303
 1870POPC   C3B27369  33.575  26.507   7.890
 1870POPC   C4B27370  33.520  26.357   7.482
 1871POPC   NC327371   4.240  30.840   9.359
 1871POPC   PO427372   4.760  30.508   9.616
 1871POPC   GL127373   4.708  30.656   9.202
 1871POPC   GL227374   4.449  30.442   9.063
 1871POPC   C1A27375   4.693  30.806   8.762
 1871POPC   D2A27376   4.568  30.564   8.381
 1871POPC   C3A27377   4.441  30.796   7.997
 1871POPC   C4A27378   4.545  30.584   7.610
 1871POPC   C1B27379   4.191  30.688   8.730
 1871POPC   C2B27380   4.026  30.915   8.343
 1871POPC   C3B27381   3.928  30.776   7.941
 1871POPC   C4B27382   4.106  30.789   7.538
 1872POPC   NC327383  34.428  20.908   9.456
 1872POPC   PO427384  34.662  20.244   9.487
 1872POPC   GL127385  34.499  20.416   9.126
 1872POPC   GL227386  34.603  20.734   9.022
 1872POPC   C1A27387  34.596  20.340   8.716
 1872POPC   D2A27388  34.731  20.213   8.334
 1872POPC   C3A27389  34.548  20.497   8.093
 1872POPC   C4A27390  34.549  20.531   7.706
 1872POPC   C1B27391  34.247  20.760   8.763
 1872POPC   C2B27392  34.142  20.914   8.359
 1872POPC   C3B27393  34.273  20.910   7.910
 1872POPC   C4B27394  34.437  20.921   7.457
 1873POPC   NC327395  22.290  44.199   9.450
 1873POPC   PO427396  21.985  43.505   9.425
 1873POPC   GL127397  22.125  43.731   9.065
 1873POPC   GL227398  22.351  43.535   8.884
 1873POPC   C1A27399  21.895  43.855   8.676
 1873POPC   D2A27400  21.782  43.814   8.220
 1873POPC   C3A27401  21.871  44.165   7.945
 1873POPC   C4A27402  22.268  44.282   7.805
 1873POPC   C1B27403  22.400  43.927   8.649
 1873POPC   C2B27404  22.423  43.940   8.199
 1873POPC   C3B27405  22.187  43.757   7.872
 1873POPC   C4B27406  21.968  43.519   7.600
 1874POPC   NC327407  32.256  28.843   9.398
 1874POPC   PO427408  32.408  28.301   9.714
 1874POPC   GL127409  32.245  28.230   9.272
 1874POPC   GL227410  31.951  28.004   9.249
 1874POPC   C1A27411  32.327  28.242   8.820
 1874POPC   D2A27412  32.427  28.010   8.440
 1874POPC   C3A27413  32.357  28.259   8.053
 1874POPC   C4A27414  32.152  28.535   7.752
 1874POPC   C1B27415  31.820  28.150   8.845
 1874POPC   C2B27416  31.961  28.244   8.437
 1874POPC   C3B27417  31.826  28.259   8.028
 1874POPC   C4B27418  32.015  28.068   7.685
 1875POPC   NC327419   4.309  38.831   9.716
 1875POPC   PO427420   4.518  39.505   9.549
 1875POPC   GL127421   4.551  39.306   9.156
 1875POPC   GL227422   4.700  38.998   9.216
 1875POPC   C1A27423   4.516  39.396   8.717
 1875POPC   D2A27424   4.440  39.267   8.314
 1875POPC   C3A27425   4.447  39.457   7.949
 1875POPC   C4A27426   4.107  39.222   7.713
 1875POPC   C1B27427   4.631  38.814   8.833
 1875POPC   C2B27428   4.760  38.904   8.457
 1875POPC   C3B27429   4.701  38.766   8.049
 1875POPC   C4B27430   4.568  39.021   7.731
 1876POPC   NC327431  34.828   8.508   9.505
 1876POPC   PO427432  34.717   7.857   9.468
 1876POPC   GL127433  34.544   8.037   9.150
 1876POPC   GL227434  34.412   8.314   9.283
 1876POPC   C1A27435  34.710   8.258   8.822
 1876POPC   D2A27436  34.819   8.025   8.487
 1876POPC   C3A27437  34.682   8.158   8.089
 1876POPC   C4A27438  34.709   8.023   7.679
 1876POPC   C1B27439  34.224   8.344   8.891
 1876POPC   C2B27440  34.314   8.077   8.511
 1876POPC   C3B27441  34.185   8.106   8.074
 1876POPC   C4B27442  34.385   8.408   7.730
 1877POPC   NC327443   8.998   6.954   9.588
 1877POPC   PO427444   9.341   6.354   9.562
 1877POPC   GL127445   9.144   6.491   9.172
 1877POPC   GL227446   8.924   6.197   9.082
 1877POPC   C1A27447   9.143   6.778   8.787
 1877POPC   D2A27448   8.791   6.854   8.452
 1877POPC   C3A27449   8.927   6.860   8.005
 1877POPC   C4A27450   9.316   6.731   7.832
 1877POPC   C1B27451   8.850   6.392   8.698
 1877POPC   C2B27452   9.144   6.487   8.347
 1877POPC   C3B27453   9.106   6.269   7.989
 1877POPC   C4B27454   8.770   6.451   7.742
 1878POPC   NC327455  39.265  15.965   9.558
 1878POPC   PO427456  38.851  15.779   9.451
 1878POPC   GL127457  39.095  15.881   9.072
 1878POPC   GL227458  39.125  16.241   9.109
 1878POPC   C1A27459  39.269  15.743   8.672
 1878POPC   D2A27460  39.323  15.917   8.267
 1878POPC   C3A27461  39.435  15.760   7.892
 1878POPC   C4A27462  39.219  15.857   7.524
 1878POPC   C1B27463  39.193  16.258   8.629
 1878POPC   C2B27464  39.198  16.406   8.149
 1878POPC   C3B27465  39.334  16.315   7.729
 1878POPC   C4B27466  39.534  16.449   7.348
 1879POPC   NC327467  37.375   2.092   9.521
 1879POPC   PO427468  37.988   2.331   9.398
 1879POPC   GL127469  37.696   2.080   9.135
 1879POPC   GL227470  37.460   2.353   9.081
 1879POPC   C1A27471  37.653   1.705   8.848
 1879POPC   D2A27472  37.692   1.567   8.399
 1879POPC   C3A27473  37.593   1.874   8.062
 1879POPC   C4A27474  37.952   2.080   7.863
 1879POPC   C1B27475  37.387   2.163   8.685
 1879POPC   C2B27476  37.444   2.341   8.265
 1879POPC   C3B27477  37.372   2.369   7.822
 1879POPC   C4B27478  37.539   2.186   7.442
 1880POPC   NC327479  19.443  35.321   9.585
 1880POPC   PO427480  18.877  35.112   9.730
 1880POPC   GL127481  19.012  35.415   9.300
 1880POPC   GL227482  19.304  35.392   9.108
 1880POPC   C1A27483  18.913  35.623   8.872
 1880POPC   D2A27484  19.047  35.682   8.404
 1880POPC   C3A27485  18.926  35.323   8.103
 1880POPC   C4A27486  19.138  35.109   7.759
 1880POPC   C1B27487  19.259  35.269   8.666
 1880POPC   C2B27488  19.414  35.299   8.243
 1880POPC   C3B27489  19.402  35.518   7.862
 1880POPC   C4B27490  19.370  35.379   7.390
 1881POPC   NC327491  29.855  20.800   9.310
 1881POPC   PO427492  30.246  20.301   9.533
 1881POPC   GL127493  30.169  20.378   9.099
 1881POPC   GL227494  30.185  20.725   8.934
 1881POPC   C1A27495  30.096  20.259   8.687
 1881POPC   D2A27496  30.049  20.403   8.293
 1881POPC   C3A27497  29.829  20.245   7.976
 1881POPC   C4A27498  29.779  20.445   7.652
 1881POPC   C1B27499  29.811  20.678   8.692
 1881POPC   C2B27500  29.586  20.904   8.426
 1881POPC   C3B27501  29.706  20.776   8.051
 1881POPC   C4B27502  29.527  20.896   7.687
 1882POPC   NC327503  18.867  44.314   9.714
 1882POPC   PO427504  19.251  44.896   9.521
 1882POPC   GL127505  18.987  44.763   9.173
 1882POPC   GL227506  18.853  44.395   9.205
 1882POPC   C1A27507  19.066  44.645   8.751
 1882POPC   D2A27508  19.198  44.572   8.338
 1882POPC   C3A27509  19.030  44.866   8.051
 1882POPC   C4A27510  19.193  44.802   7.630
 1882POPC   C1B27511  18.615  44.391   8.819
 1882POPC   C2B27512  18.674  44.542   8.377
 1882POPC   C3B27513  18.825  44.408   7.994
 1882POPC   C4B27514  19.220  44.246   7.877
 1883POPC   NC327515  21.666  19.992   9.475
 1883POPC   PO427516  21.025  19.934   9.370
 1883POPC   GL127517  21.184  19.641   9.088
 1883POPC   GL227518  21.371  19.390   9.286
 1883POPC   C1A27519  21.337  19.750   8.664
 1883POPC   D2A27520  21.578  19.873   8.297
 1883POPC   C3A27521  21.362  20.035   7.911
 1883POPC   C4A27522  21.278  20.065   7.451
 1883POPC   C1B27523  21.463  19.293   8.858
 1883POPC   C2B27524  21.504  19.332   8.424
 1883POPC   C3B27525  21.563  19.448   8.017
 1883POPC   C4B27526  21.340  19.545   7.680
 1884POPC   NC327527  13.536  27.109   9.452
 1884POPC   PO427528  14.120  26.661   9.461
 1884POPC   GL127529  13.821  26.590   9.124
 1884POPC   GL227530  13.481  26.727   9.075
 1884POPC   C1A27531  13.772  26.690   8.663
 1884POPC   D2A27532  13.468  26.679   8.370
 1884POPC   C3A27533  13.672  26.544   8.025
 1884POPC   C4A27534  13.891  26.375   7.670
 1884POPC   C1B27535  13.537  27.112   8.803
 1884POPC   C2B27536  13.508  27.184   8.361
 1884POPC   C3B27537  13.502  27.011   7.936
 1884POPC   C4B27538  13.891  26.881   7.709
 1885POPC   NC327539  43.325  43.731   9.484
 1885POPC   PO427540  42.832  44.069   9.553
 1885POPC   GL127541  42.977  43.953   9.152
 1885POPC   GL227542  42.875  43.640   9.048
 1885POPC   C1A27543  43.237  43.878   8.777
 1885POPC   D2A27544  43.305  43.761   8.367
 1885POPC   C3A27545  43.206  44.001   8.020
 1885POPC   C4A27546  43.200  43.785   7.677
 1885POPC   C1B27547  42.719  43.891   8.715
 1885POPC   C2B27548  42.795  43.926   8.311
 1885POPC   C3B27549  42.719  43.738   7.931
 1885POPC   C4B27550  42.728  44.015   7.593
 1886POPC   NC327551  28.690  31.009   9.461
 1886POPC   PO427552  28.542  30.354   9.545
 1886POPC   GL127553  28.454  30.610   9.196
 1886POPC   GL227554  28.806  30.629   9.132
 1886POPC   C1A27555  28.248  30.724   8.798
 1886POPC   D2A27556  28.105  30.770   8.361
 1886POPC   C3A27557  28.364  30.544   8.046
 1886POPC   C4A27558  28.438  30.731   7.677
 1886POPC   C1B27559  28.768  30.822   8.766
 1886POPC   C2B27560  28.659  30.775   8.371
 1886POPC   C3B27561  28.791  30.964   7.984
 1886POPC   C4B27562  28.681  31.233   7.643
 1887POPC   NC327563  19.093  30.594   9.643
 1887POPC   PO427564  18.721  31.107   9.380
 1887POPC   GL127565  18.984  30.788   9.136
 1887POPC   GL227566  18.984  30.453   9.164
 1887POPC   C1A27567  19.192  30.789   8.722
 1887POPC   D2A27568  19.168  30.971   8.276
 1887POPC   C3A27569  19.187  30.744   7.870
 1887POPC   C4A27570  19.485  30.751   7.530
 1887POPC   C1B27571  18.743  30.498   8.807
 1887POPC   C2B27572  18.542  30.601   8.464
 1887POPC   C3B27573  18.749  30.581   8.082
 1887POPC   C4B27574  18.644  30.706   7.682
 1888POPC   NC327575  30.250  13.443   9.655
 1888POPC   PO427576  29.729  13.957   9.513
 1888POPC   GL127577  30.023  13.724   9.273
 1888POPC   GL227578  29.947  13.380   9.205
 1888POPC   C1A27579  30.165  13.776   8.872
 1888POPC   D2A27580  29.995  13.671   8.473
 1888POPC   C3A27581  30.222  13.669   8.124
 1888POPC   C4A27582  30.132  13.746   7.688
 1888POPC   C1B27583  29.964  13.212   8.793
 1888POPC   C2B27584  30.026  13.177   8.333
 1888POPC   C3B27585  30.030  13.255   7.881
 1888POPC   C4B27586  30.217  13.291   7.459
 1889POPC   NC327587  18.367  43.056   9.618
 1889POPC   PO427588  17.874  43.274   9.228
 1889POPC   GL127589  18.208  43.116   9.014
 1889POPC   GL227590  18.340  42.833   9.152
 1889POPC   C1A27591  18.353  43.085   8.592
 1889POPC   D2A27592  18.442  43.368   8.294
 1889POPC   C3A27593  18.409  43.150   7.882
 1889POPC   C4A27594  18.391  43.224   7.421
 1889POPC   C1B27595  18.172  42.649   8.763
 1889POPC   C2B27596  18.096  42.700   8.324
 1889POPC   C3B27597  18.410  42.690   8.024
 1889POPC   C4B27598  18.611  42.614   7.650
 1890POPC   NC327599  37.428  28.883   9.515
 1890POPC   PO427600  37.945  29.230   9.350
 1890POPC   GL127601  37.730  28.994   9.071
 1890POPC   GL227602  37.477  29.217   9.096
 1890POPC   C1A27603  37.660  28.885   8.633
 1890POPC   D2A27604  37.577  28.853   8.212
 1890POPC   C3A27605  37.896  29.063   7.979
 1890POPC   C4A27606  37.974  29.149   7.529
 1890POPC   C1B27607  37.609  29.391   8.699
 1890POPC   C2B27608  37.567  29.384   8.244
 1890POPC   C3B27609  37.825  29.588   7.952
 1890POPC   C4B27610  37.962  29.699   7.551
 1891POPC   NC327611   2.688  31.122   9.585
 1891POPC   PO427612   3.004  31.769   9.523
 1891POPC   GL127613   2.935  31.447   9.267
 1891POPC   GL227614   2.576  31.450   9.215
 1891POPC   C1A27615   2.914  31.430   8.852
 1891POPC   D2A27616   2.956  31.631   8.498
 1891POPC   C3A27617   3.147  31.448   8.155
 1891POPC   C4A27618   3.064  31.497   7.734
 1891POPC   C1B27619   2.399  31.251   8.859
 1891POPC   C2B27620   2.543  31.318   8.463
 1891POPC   C3B27621   2.696  31.198   8.068
 1891POPC   C4B27622   2.551  31.402   7.738
 1892POPC   NC327623  44.446  24.132   9.622
 1892POPC   PO427624  44.883  24.713   9.518
 1892POPC   GL127625  44.788  24.484   9.142
 1892POPC   GL227626  44.493  24.268   9.133
 1892POPC   C1A27627  44.863  24.394   8.706
 1892POPC   D2A27628  44.679  24.399   8.274
 1892POPC   C3A27629  44.854  24.616   7.935
 1892POPC   C4A27630   0.121  24.570   7.614
 1892POPC   C1B27631  44.353  24.364   8.729
 1892POPC   C2B27632  44.029  24.390   8.443
 1892POPC   C3B27633  44.207  24.353   8.067
 1892POPC   C4B27634  44.486  24.319   7.745
 1893POPC   NC327635  22.519   7.978   9.461
 1893POPC   PO427636  21.897   8.072   9.254
 1893POPC   GL127637  22.234   8.101   9.011
 1893POPC   GL227638  22.239   8.429   8.931
 1893POPC   C1A27639  22.115   7.980   8.604
 1893POPC   D2A27640  21.897   7.962   8.229
 1893POPC   C3A27641  22.149   8.047   7.877
 1893POPC   C4A27642  22.166   7.780   7.545
 1893POPC   C1B27643  22.465   8.366   8.584
 1893POPC   C2B27644  22.355   8.478   8.180
 1893POPC   C3B27645  22.545   8.417   7.797
 1893POPC   C4B27646  22.397   8.230   7.419
 1894POPC   NC327647  23.414   3.512   9.331
 1894POPC   PO427648  22.770   3.692   9.557
 1894POPC   GL127649  22.740   3.431   9.164
 1894POPC   GL227650  22.467   3.565   8.996
 1894POPC   C1A27651  22.836   3.366   8.703
 1894POPC   D2A27652  23.150   3.565   8.417
 1894POPC   C3A27653  23.164   3.517   7.957
 1894POPC   C4A27654  22.981   3.171   7.771
 1894POPC   C1B27655  22.814   3.888   8.877
 1894POPC   C2B27656  23.035   4.040   8.527
 1894POPC   C3B27657  22.865   3.899   8.143
 1894POPC   C4B27658  22.712   3.710   7.738
 1895POPC   NC327659   2.945   5.314   9.458
 1895POPC   PO427660   2.906   4.730   9.251
 1895POPC   GL127661   2.664   5.044   9.080
 1895POPC   GL227662   2.314   4.907   8.990
 1895POPC   C1A27663   2.794   5.266   8.775
 1895POPC   D2A27664   2.974   5.165   8.414
 1895POPC   C3A27665   2.853   5.442   8.143
 1895POPC   C4A27666   2.603   5.379   7.782
 1895POPC   C1B27667   2.528   4.867   8.619
 1895POPC   C2B27668   2.489   5.068   8.216
 1895POPC   C3B27669   2.525   4.848   7.834
 1895POPC   C4B27670   2.496   4.943   7.423
 1896POPC   NC327671  14.515  27.242   9.797
 1896POPC   PO427672  13.949  27.551   9.804
 1896POPC   GL127673  14.343  27.582   9.400
 1896POPC   GL227674  14.642  27.712   9.205
 1896POPC   C1A27675  14.349  27.526   8.861
 1896POPC   D2A27676  14.457  27.405   8.448
 1896POPC   C3A27677  14.208  27.500   8.075
 1896POPC   C4A27678  14.232  27.260   7.681
 1896POPC   C1B27679  14.857  27.675   8.796
 1896POPC   C2B27680  14.817  27.732   8.359
 1896POPC   C3B27681  14.718  27.496   7.997
 1896POPC   C4B27682  14.897  27.743   7.713
 1897POPC   NC327683  18.170  25.780   9.598
 1897POPC   PO427684  18.804  25.914   9.442
 1897POPC   GL127685  18.412  25.933   9.130
 1897POPC   GL227686  18.304  26.278   8.996
 1897POPC   C1A27687  18.251  25.929   8.676
 1897POPC   D2A27688  18.485  26.056   8.359
 1897POPC   C3A27689  18.295  25.869   8.013
 1897POPC   C4A27690  17.935  25.945   7.747
 1897POPC   C1B27691  18.043  26.428   8.721
 1897POPC   C2B27692  17.831  26.423   8.375
 1897POPC   C3B27693  18.061  26.346   8.042
 1897POPC   C4B27694  17.944  26.474   7.662
 1898POPC   NC327695  35.022  16.343   9.487
 1898POPC   PO427696  35.269  15.742   9.556
 1898POPC   GL127697  35.097  15.823   9.160
 1898POPC   GL227698  35.176  15.502   9.064
 1898POPC   C1A27699  35.082  16.021   8.736
 1898POPC   D2A27700  35.326  16.007   8.339
 1898POPC   C3A27701  35.202  15.914   7.904
 1898POPC   C4A27702  35.177  16.173   7.498
 1898POPC   C1B27703  35.358  15.592   8.661
 1898POPC   C2B27704  35.533  15.554   8.227
 1898POPC   C3B27705  35.609  15.604   7.776
 1898POPC   C4B27706  35.589  15.874   7.384
 1899POPC   NC327707  42.032  13.934   9.470
 1899POPC   PO427708  42.471  14.483   9.508
 1899POPC   GL127709  42.177  14.383   9.167
 1899POPC   GL227710  42.425  14.428   8.919
 1899POPC   C1A27711  41.967  14.237   8.777
 1899POPC   D2A27712  42.242  14.317   8.435
 1899POPC   C3A27713  42.233  14.361   7.995
 1899POPC   C4A27714  42.642  14.372   7.809
 1899POPC   C1B27715  42.434  14.763   8.629
 1899POPC   C2B27716  42.252  14.885   8.242
 1899POPC   C3B27717  42.263  14.923   7.785
 1899POPC   C4B27718  42.457  14.967   7.398
 1900POPC   NC327719  17.450  10.206   9.585
 1900POPC   PO427720  17.225  10.799   9.537
 1900POPC   GL127721  17.379  10.600   9.156
 1900POPC   GL227722  17.703  10.422   9.143
 1900POPC   C1A27723  17.374  10.436   8.727
 1900POPC   D2A27724  17.638  10.400   8.352
 1900POPC   C3A27725  17.570  10.703   8.052
 1900POPC   C4A27726  17.454  10.940   7.717
 1900POPC   C1B27727  17.765  10.120   8.786
 1900POPC   C2B27728  17.919   9.886   8.489
 1900POPC   C3B27729  17.948  10.017   8.087
 1900POPC   C4B27730  17.806  10.341   7.790
 1901POPC   NC327731  19.452  13.899   9.651
 1901POPC   PO427732  20.101  13.649   9.639
 1901POPC   GL127733  19.917  13.635   9.215
 1901POPC   GL227734  19.582  13.485   9.194
 1901POPC   C1A27735  19.795  13.699   8.775
 1901POPC   D2A27736  19.613  13.541   8.395
 1901POPC   C3A27737  19.738  13.714   8.012
 1901POPC   C4A27738  19.895  13.543   7.694
 1901POPC   C1B27739  19.354  13.249   8.851
 1901POPC   C2B27740  19.220  13.237   8.409
 1901POPC   C3B27741  19.325  13.387   7.995
 1901POPC   C4B27742  19.501  13.224   7.600
 1902POPC   NC327743   1.650  33.244   9.298
 1902POPC   PO427744   0.910  33.211   9.372
 1902POPC   GL127745   1.197  33.077   9.044
 1902POPC   GL227746   1.367  33.375   8.933
 1902POPC   C1A27747   1.153  33.087   8.589
 1902POPC   D2A27748   0.937  33.189   8.255
 1902POPC   C3A27749   1.040  32.803   8.054
 1902POPC   C4A27750   1.099  32.828   7.641
 1902POPC   C1B27751   1.641  33.030   8.707
 1902POPC   C2B27752   1.634  33.158   8.309
 1902POPC   C3B27753   1.502  33.026   7.943
 1902POPC   C4B27754   1.797  32.965   7.677
 1903POPC   NC327755   7.896  16.226   9.353
 1903POPC   PO427756   7.588  15.760   9.632
 1903POPC   GL127757   7.468  15.886   9.180
 1903POPC   GL227758   7.166  16.115   9.118
 1903POPC   C1A27759   7.304  15.810   8.733
 1903POPC   D2A27760   7.482  15.726   8.319
 1903POPC   C3A27761   7.247  15.759   7.923
 1903POPC   C4A27762   7.407  15.743   7.477
 1903POPC   C1B27763   7.484  16.311   8.834
 1903POPC   C2B27764   7.612  16.219   8.434
 1903POPC   C3B27765   7.737  16.310   8.041
 1903POPC   C4B27766   7.423  16.225   7.762
 1904POPC   NC327767  29.833  34.323   9.391
 1904POPC   PO427768  30.064  34.920   9.461
 1904POPC   GL127769  30.051  34.711   9.097
 1904POPC   GL227770  29.712  34.673   9.063
 1904POPC   C1A27771  30.187  34.574   8.697
 1904POPC   D2A27772  30.245  34.359   8.300
 1904POPC   C3A27773  30.150  34.573   7.889
 1904POPC   C4A27774  29.934  34.855   7.572
 1904POPC   C1B27775  29.665  34.510   8.683
 1904POPC   C2B27776  29.807  34.659   8.295
 1904POPC   C3B27777  29.633  34.547   7.913
 1904POPC   C4B27778  29.470  34.097   7.855
 1905POPC   NC327779  28.979  22.353   9.532
 1905POPC   PO427780  28.710  21.761   9.380
 1905POPC   GL127781  29.002  22.073   9.082
 1905POPC   GL227782  29.291  21.954   8.905
 1905POPC   C1A27783  29.071  22.346   8.676
 1905POPC   D2A27784  28.918  22.510   8.255
 1905POPC   C3A27785  29.087  22.262   7.909
 1905POPC   C4A27786  29.496  22.171   7.707
 1905POPC   C1B27787  28.960  21.817   8.638
 1905POPC   C2B27788  28.837  21.992   8.271
 1905POPC   C3B27789  28.818  21.818   7.870
 1905POPC   C4B27790  29.130  21.679   7.576
 1906POPC   NC327791  18.813  15.303   9.490
 1906POPC   PO427792  19.195  14.740   9.658
 1906POPC   GL127793  19.205  14.875   9.228
 1906POPC   GL227794  19.299  15.236   9.183
 1906POPC   C1A27795  19.010  15.000   8.825
 1906POPC   D2A27796  19.202  15.143   8.444
 1906POPC   C3A27797  18.980  15.120   8.054
 1906POPC   C4A27798  19.014  14.928   7.661
 1906POPC   C1B27799  19.090  15.500   8.855
 1906POPC   C2B27800  19.008  15.632   8.442
 1906POPC   C3B27801  19.144  15.597   8.034
 1906POPC   C4B27802  18.833  15.568   7.725
 1907POPC   NC327803  38.216  41.512   9.539
 1907POPC   PO427804  38.679  41.276   9.834
 1907POPC   GL127805  38.656  41.573   9.307
 1907POPC   GL227806  38.322  41.727   9.116
 1907POPC   C1A27807  38.741  41.591   8.850
 1907POPC   D2A27808  38.526  41.692   8.441
 1907POPC   C3A27809  38.569  41.421   8.097
 1907POPC   C4A27810  38.643  41.608   7.703
 1907POPC   C1B27811  38.191  41.461   8.773
 1907POPC   C2B27812  38.085  41.454   8.318
 1907POPC   C3B27813  38.214  41.775   7.972
 1907POPC   C4B27814  38.231  41.773   7.464
 1908POPC   NC327815  34.436  18.887   9.679
 1908POPC   PO427816  34.422  19.547   9.702
 1908POPC   GL127817  34.595  19.172   9.295
 1908POPC   GL227818  34.389  18.856   9.171
 1908POPC   C1A27819  34.557  19.130   8.771
 1908POPC   D2A27820  34.560  18.969   8.311
 1908POPC   C3A27821  34.455  19.199   7.900
 1908POPC   C4A27822  34.780  19.169   7.571
 1908POPC   C1B27823  34.125  18.837   8.786
 1908POPC   C2B27824  34.062  18.924   8.325
 1908POPC   C3B27825  34.200  18.734   7.913
 1908POPC   C4B27826  34.372  18.849   7.480
 1909POPC   NC327827  34.419  44.033   9.405
 1909POPC   PO427828  35.109  43.690   9.417
 1909POPC   GL127829  34.895  44.008   9.197
 1909POPC   GL227830  34.687  43.744   9.080
 1909POPC   C1A27831  34.765  44.159   8.791
 1909POPC   D2A27832  34.817  43.922   8.431
 1909POPC   C3A27833  34.710  44.094   8.012
 1909POPC   C4A27834  34.948  44.163   7.641
 1909POPC   C1B27835  34.433  43.718   8.731
 1909POPC   C2B27836  34.355  43.756   8.317
 1909POPC   C3B27837  34.495  43.635   7.928
 1909POPC   C4B27838  34.487  43.820   7.527
 1910POPC   NC327839  41.078  34.133   9.338
 1910POPC   PO427840  41.363  33.677   9.755
 1910POPC   GL127841  41.385  33.567   9.237
 1910POPC   GL227842  41.764  33.636   9.115
 1910POPC   C1A27843  41.468  33.467   8.745
 1910POPC   D2A27844  41.613  33.650   8.328
 1910POPC   C3A27845  41.384  33.704   7.931
 1910POPC   C4A27846  41.090  33.734   7.615
 1910POPC   C1B27847  41.808  33.926   8.715
 1910POPC   C2B27848  41.737  34.150   8.294
 1910POPC   C3B27849  41.673  34.112   7.830
 1910POPC   C4B27850  41.554  33.902   7.470
 1911POPC   NC327851   1.751  30.773   9.551
 1911POPC   PO427852   2.383  30.808   9.446
 1911POPC   GL127853   2.053  30.920   9.119
 1911POPC   GL227854   1.719  31.077   9.148
 1911POPC   C1A27855   1.814  30.684   8.799
 1911POPC   D2A27856   1.928  30.420   8.474
 1911POPC   C3A27857   1.751  30.501   8.096
 1911POPC   C4A27858   1.902  30.452   7.691
 1911POPC   C1B27859   1.781  31.192   8.705
 1911POPC   C2B27860   1.740  31.046   8.257
 1911POPC   C3B27861   1.696  30.933   7.799
 1911POPC   C4B27862   1.546  30.665   7.413
 1912POPC   NC327863  33.759  23.366   9.506
 1912POPC   PO427864  34.017  22.691   9.453
 1912POPC   GL127865  33.902  22.874   9.094
 1912POPC   GL227866  33.597  22.961   9.213
 1912POPC   C1A27867  33.922  23.035   8.677
 1912POPC   D2A27868  33.906  23.256   8.279
 1912POPC   C3A27869  34.004  22.994   7.913
 1912POPC   C4A27870  33.687  22.951   7.593
 1912POPC   C1B27871  33.465  22.820   8.794
 1912POPC   C2B27872  33.607  22.830   8.348
 1912POPC   C3B27873  33.372  22.830   7.984
 1912POPC   C4B27874  33.387  22.547   7.622
 1913POPC   NC327875  23.643  30.822   9.545
 1913POPC   PO427876  23.977  30.441   9.778
 1913POPC   GL127877  24.016  30.449   9.257
 1913POPC   GL227878  23.973  30.757   9.125
 1913POPC   C1A27879  23.845  30.457   8.748
 1913POPC   D2A27880  23.843  30.463   8.245
 1913POPC   C3A27881  23.487  30.474   7.925
 1913POPC   C4A27882  23.396  30.626   7.491
 1913POPC   C1B27883  24.214  30.919   8.755
 1913POPC   C2B27884  24.184  31.167   8.395
 1913POPC   C3B27885  24.079  30.910   8.045
 1913POPC   C4B27886  23.999  30.642   7.708
 1914POPC   NC327887  41.717  33.433   9.601
 1914POPC   PO427888  41.569  32.809   9.435
 1914POPC   GL127889  41.689  33.122   9.148
 1914POPC   GL227890  42.039  33.171   9.098
 1914POPC   C1A27891  41.678  33.000   8.729
 1914POPC   D2A27892  41.546  32.683   8.465
 1914POPC   C3A27893  41.445  32.969   8.170
 1914POPC   C4A27894  41.513  32.933   7.748
 1914POPC   C1B27895  42.006  33.412   8.723
 1914POPC   C2B27896  41.914  33.239   8.313
 1914POPC   C3B27897  41.724  33.345   7.919
 1914POPC   C4B27898  41.475  33.390   7.518
 1915POPC   NC327899  16.463  24.437   9.257
 1915POPC   PO427900  16.789  24.853   9.604
 1915POPC   GL127901  16.932  24.742   9.191
 1915POPC   GL227902  16.961  24.386   9.112
 1915POPC   C1A27903  16.797  24.747   8.739
 1915POPC   D2A27904  16.963  24.723   8.282
 1915POPC   C3A27905  16.699  24.567   7.914
 1915POPC   C4A27906  16.760  24.734   7.470
 1915POPC   C1B27907  16.934  24.280   8.637
 1915POPC   C2B27908  17.023  24.232   8.193
 1915POPC   C3B27909  16.978  24.148   7.766
 1915POPC   C4B27910  17.170  23.863   7.468
 1916POPC   NC327911  42.215  30.438   9.728
 1916POPC   PO427912  42.415  29.808   9.529
 1916POPC   GL127913  42.434  29.877   9.115
 1916POPC   GL227914  42.727  30.056   9.129
 1916POPC   C1A27915  42.228  29.765   8.745
 1916POPC   D2A27916  42.181  29.428   8.446
 1916POPC   C3A27917  42.116  29.612   8.032
 1916POPC   C4A27918  42.117  29.721   7.589
 1916POPC   C1B27919  42.768  29.890   8.717
 1916POPC   C2B27920  42.550  29.764   8.334
 1916POPC   C3B27921  42.532  29.902   7.898
 1916POPC   C4B27922  42.665  30.156   7.559
 1917POPC   NC327923   3.169   8.087   9.400
 1917POPC   PO427924   3.825   8.357   9.523
 1917POPC   GL127925   3.575   8.322   9.173
 1917POPC   GL227926   3.610   7.983   9.100
 1917POPC   C1A27927   3.634   8.534   8.815
 1917POPC   D2A27928   3.925   8.587   8.472
 1917POPC   C3A27929   3.695   8.530   8.086
 1917POPC   C4A27930   3.544   8.446   7.652
 1917POPC   C1B27931   3.933   8.097   8.737
 1917POPC   C2B27932   3.936   8.096   8.253
 1917POPC   C3B27933   3.978   8.190   7.794
 1917POPC   C4B27934   3.822   8.105   7.351
 1918POPC   NC327935   2.729  22.698   9.551
 1918POPC   PO427936   2.550  23.234   9.670
 1918POPC   GL127937   2.473  23.048   9.209
 1918POPC   GL227938   2.772  22.935   9.103
 1918POPC   C1A27939   2.534  23.230   8.744
 1918POPC   D2A27940   2.739  23.298   8.339
 1918POPC   C3A27941   2.673  23.090   7.946
 1918POPC   C4A27942   2.886  23.132   7.540
 1918POPC   C1B27943   2.539  22.728   8.787
 1918POPC   C2B27944   2.685  22.696   8.384
 1918POPC   C3B27945   2.797  22.577   7.976
 1918POPC   C4B27946   2.614  22.686   7.592
 1919POPC   NC327947  26.021   4.379   9.560
 1919POPC   PO427948  25.609   3.846   9.395
 1919POPC   GL127949  25.841   4.149   9.129
 1919POPC   GL227950  26.225   4.186   9.123
 1919POPC   C1A27951  25.922   4.261   8.695
 1919POPC   D2A27952  25.778   4.444   8.314
 1919POPC   C3A27953  25.912   4.229   7.911
 1919POPC   C4A27954  25.895   4.115   7.444
 1919POPC   C1B27955  26.370   4.476   8.794
 1919POPC   C2B27956  26.278   4.392   8.357
 1919POPC   C3B27957  26.192   4.643   8.003
 1919POPC   C4B27958  26.332   4.655   7.571
 1920POPC   NC327959  23.616  33.251   9.508
 1920POPC   PO427960  23.675  33.949   9.529
 1920POPC   GL127961  23.723  33.646   9.203
 1920POPC   GL227962  23.458  33.747   9.039
 1920POPC   C1A27963  23.889  33.582   8.797
 1920POPC   D2A27964  23.702  33.687   8.432
 1920POPC   C3A27965  23.911  33.786   8.077
 1920POPC   C4A27966  23.830  33.554   7.731
 1920POPC   C1B27967  23.276  33.850   8.685
 1920POPC   C2B27968  23.208  33.901   8.276
 1920POPC   C3B27969  23.416  33.785   7.934
 1920POPC   C4B27970  23.332  33.962   7.543
 1921POPC   NC327971  23.856  12.250   9.436
 1921POPC   PO427972  24.172  11.681   9.441
 1921POPC   GL127973  23.937  11.885   9.085
 1921POPC   GL227974  23.577  11.928   9.092
 1921POPC   C1A27975  23.888  12.223   8.741
 1921POPC   D2A27976  24.038  12.115   8.319
 1921POPC   C3A27977  23.800  12.331   8.022
 1921POPC   C4A27978  23.840  12.367   7.603
 1921POPC   C1B27979  23.650  11.765   8.656
 1921POPC   C2B27980  23.592  11.838   8.228
 1921POPC   C3B27981  23.671  11.906   7.817
 1921POPC   C4B27982  23.325  12.101   7.720
 1922POPC   NC327983   9.441  38.236   9.527
 1922POPC   PO427984  10.171  38.081   9.542
 1922POPC   GL127985   9.833  38.129   9.178
 1922POPC   GL227986   9.791  38.472   9.137
 1922POPC   C1A27987   9.661  38.294   8.714
 1922POPC   D2A27988   9.755  38.546   8.338
 1922POPC   C3A27989   9.985  38.359   8.012
 1922POPC   C4A27990  10.065  38.146   7.637
 1922POPC   C1B27991   9.730  38.807   8.825
 1922POPC   C2B27992   9.521  38.995   8.493
 1922POPC   C3B27993   9.316  38.866   8.140
 1922POPC   C4B27994   9.501  38.546   7.839
 1923POPC   NC327995  11.153  10.798   9.446
 1923POPC   PO427996  11.682  10.344   9.465
 1923POPC   GL127997  11.397  10.463   9.129
 1923POPC   GL227998  11.459  10.821   9.043
 1923POPC   C1A27999  11.123  10.625   8.751
 1923POPC   D2A28000  10.847  10.540   8.394
 1923POPC   C3A28001  11.043  10.372   8.036
 1923POPC   C4A28002  11.193  10.286   7.645
 1923POPC   C1B28003  11.535  11.000   8.670
 1923POPC   C2B28004  11.363  10.950   8.290
 1923POPC   C3B28005  11.299  10.785   7.914
 1923POPC   C4B28006  11.185  10.765   7.505
 1924POPC   NC328007  26.750  33.229   9.623
 1924POPC   PO428008  26.442  32.610   9.821
 1924POPC   GL128009  26.539  32.856   9.349
 1924POPC   GL228010  26.927  32.960   9.243
 1924POPC   C1A28011  26.552  32.971   8.885
 1924POPC   D2A28012  26.577  33.035   8.420
 1924POPC   C3A28013  26.862  32.828   8.125
 1924POPC   C4A28014  26.883  32.993   7.725
 1924POPC   C1B28015  27.032  33.221   8.907
 1924POPC   C2B28016  27.087  33.158   8.476
 1924POPC   C3B28017  26.909  33.343   8.130
 1924POPC   C4B28018  26.856  33.512   7.728
 1925POPC   NC328019  16.169  26.010   9.777
 1925POPC   PO428020  15.657  26.340   9.576
 1925POPC   GL128021  15.942  26.163   9.315
 1925POPC   GL228022  15.663  25.982   9.187
 1925POPC   C1A28023  15.976  26.215   8.866
 1925POPC   D2A28024  15.749  26.315   8.466
 1925POPC   C3A28025  15.889  26.060   8.098
 1925POPC   C4A28026  16.127  25.841   7.792
 1925POPC   C1B28027  15.467  26.023   8.786
 1925POPC   C2B28028  15.535  25.818   8.376
 1925POPC   C3B28029  15.519  25.725   7.907
 1925POPC   C4B28030  15.765  25.641   7.498
 1926POPC   NC328031  25.657  15.497   9.356
 1926POPC   PO428032  25.585  14.863   9.600
 1926POPC   GL128033  25.453  14.973   9.186
 1926POPC   GL228034  25.216  15.257   9.203
 1926POPC   C1A28035  25.231  14.989   8.780
 1926POPC   D2A28036  25.085  15.229   8.371
 1926POPC   C3A28037  25.192  15.010   7.947
 1926POPC   C4A28038  25.439  15.092   7.550
 1926POPC   C1B28039  25.308  15.478   8.790
 1926POPC   C2B28040  25.538  15.536   8.394
 1926POPC   C3B28041  25.364  15.475   7.984
 1926POPC   C4B28042  25.162  15.538   7.582
 1927POPC   NC328043   5.582   5.555   9.442
 1927POPC   PO428044   6.181   6.085   9.528
 1927POPC   GL128045   6.011   6.118   9.097
 1927POPC   GL228046   5.950   5.768   9.040
 1927POPC   C1A28047   6.009   6.032   8.613
 1927POPC   D2A28048   5.864   5.841   8.199
 1927POPC   C3A28049   6.095   6.022   7.878
 1927POPC   C4A28050   6.263   6.471   7.914
 1927POPC   C1B28051   5.737   5.599   8.629
 1927POPC   C2B28052   5.605   5.400   8.242
 1927POPC   C3B28053   5.578   5.524   7.816
 1927POPC   C4B28054   5.900   5.664   7.521
 1928POPC   NC328055   1.942  13.924   9.622
 1928POPC   PO428056   2.140  13.443   9.313
 1928POPC   GL128057   2.043  13.591   8.958
 1928POPC   GL228058   2.091  13.933   9.067
 1928POPC   C1A28059   2.118  13.412   8.586
 1928POPC   D2A28060   2.279  13.513   8.224
 1928POPC   C3A28061   1.975  13.359   7.942
 1928POPC   C4A28062   1.552  13.475   7.838
 1928POPC   C1B28063   1.863  13.957   8.665
 1928POPC   C2B28064   1.831  13.750   8.267
 1928POPC   C3B28065   2.026  13.873   7.874
 1928POPC   C4B28066   1.979  13.739   7.422
 1929POPC   NC328067  42.372  19.091  10.095
 1929POPC   PO428068  42.078  19.235   9.591
 1929POPC   GL128069  42.342  19.217   9.184
 1929POPC   GL228070  42.563  18.900   9.117
 1929POPC   C1A28071  42.225  19.107   8.735
 1929POPC   D2A28072  42.394  19.017   8.306
 1929POPC   C3A28073  42.225  18.777   7.897
 1929POPC   C4A28074  41.951  18.606   7.529
 1929POPC   C1B28075  42.716  19.175   8.805
 1929POPC   C2B28076  42.878  19.276   8.423
 1929POPC   C3B28077  42.793  19.131   8.025
 1929POPC   C4B28078  42.668  18.871   7.650
 1930POPC   NC328079  33.556  39.722   9.571
 1930POPC   PO428080  34.141  40.028   9.510
 1930POPC   GL128081  33.846  39.921   9.193
 1930POPC   GL228082  33.778  40.218   9.081
 1930POPC   C1A28083  33.596  39.774   8.807
 1930POPC   D2A28084  33.560  39.984   8.395
 1930POPC   C3A28085  33.610  39.757   8.008
 1930POPC   C4A28086  33.346  39.711   7.642
 1930POPC   C1B28087  33.963  40.114   8.681
 1930POPC   C2B28088  34.121  40.026   8.247
 1930POPC   C3B28089  33.957  40.089   7.808
 1930POPC   C4B28090  34.047  40.314   7.406
 1931POPC   NC328091  16.573   1.973   9.486
 1931POPC   PO428092  17.084   2.441   9.515
 1931POPC   GL128093  16.942   2.231   9.151
 1931POPC   GL228094  17.041   1.885   9.233
 1931POPC   C1A28095  16.814   2.015   8.765
 1931POPC   D2A28096  16.773   1.770   8.377
 1931POPC   C3A28097  16.683   1.942   7.948
 1931POPC   C4A28098  16.552   2.298   7.660
 1931POPC   C1B28099  17.247   1.751   8.846
 1931POPC   C2B28100  17.320   1.766   8.439
 1931POPC   C3B28101  17.182   1.764   8.049
 1931POPC   C4B28102  17.081   1.739   7.635
 1932POPC   NC328103  39.016   9.102   9.584
 1932POPC   PO428104  38.337   9.183   9.513
 1932POPC   GL128105  38.466   8.921   9.140
 1932POPC   GL228106  38.411   8.545   9.156
 1932POPC   C1A28107  38.437   9.085   8.703
 1932POPC   D2A28108  38.703   9.266   8.382
 1932POPC   C3A28109  38.611   9.096   7.974
 1932POPC   C4A28110  38.880   9.208   7.658
 1932POPC   C1B28111  38.566   8.592   8.756
 1932POPC   C2B28112  38.641   8.736   8.357
 1932POPC   C3B28113  38.582   8.545   7.970
 1932POPC   C4B28114  38.435   8.572   7.554
 1933POPC   NC328115   7.776  19.221   9.843
 1933POPC   PO428116   8.340  18.989   9.644
 1933POPC   GL128117   8.340  18.965   9.189
 1933POPC   GL228118   8.584  19.161   9.035
 1933POPC   C1A28119   8.132  18.962   8.795
 1933POPC   D2A28120   8.225  18.942   8.364
 1933POPC   C3A28121   8.061  19.188   8.058
 1933POPC   C4A28122   7.958  19.157   7.639
 1933POPC   C1B28123   8.499  19.311   8.622
 1933POPC   C2B28124   8.512  19.464   8.197
 1933POPC   C3B28125   8.534  19.314   7.763
 1933POPC   C4B28126   8.371  19.189   7.351
 1934POPC   NC328127  31.889   8.762   9.473
 1934POPC   PO428128  31.265   8.579   9.524
 1934POPC   GL128129  31.489   8.806   9.169
 1934POPC   GL228130  31.692   9.119   9.134
 1934POPC   C1A28131  31.670   8.838   8.728
 1934POPC   D2A28132  31.680   8.658   8.331
 1934POPC   C3A28133  31.545   8.901   7.979
 1934POPC   C4A28134  31.410   8.701   7.587
 1934POPC   C1B28135  31.636   9.400   8.754
 1934POPC   C2B28136  31.685   9.473   8.308
 1934POPC   C3B28137  31.913   9.297   7.958
 1934POPC   C4B28138  31.871   9.229   7.529
 1935POPC   NC328139   0.292  26.021   9.761
 1935POPC   PO428140   0.749  26.389   9.585
 1935POPC   GL128141   0.521  26.065   9.280
 1935POPC   GL228142   0.162  26.029   9.257
 1935POPC   C1A28143   0.535  25.815   8.879
 1935POPC   D2A28144   0.711  25.753   8.427
 1935POPC   C3A28145   0.538  25.882   8.001
 1935POPC   C4A28146   0.588  25.942   7.523
 1935POPC   C1B28147   0.189  26.217   8.848
 1935POPC   C2B28148   0.017  26.371   8.454
 1935POPC   C3B28149   0.101  26.464   8.049
 1935POPC   C4B28150   0.162  26.143   7.746
 1936POPC   NC328151   5.611   2.258   9.551
 1936POPC   PO428152   5.051   2.216   9.397
 1936POPC   GL128153   5.321   1.934   9.235
 1936POPC   GL228154   5.052   1.854   9.002
 1936POPC   C1A28155   5.557   1.824   8.877
 1936POPC   D2A28156   5.296   1.778   8.493
 1936POPC   C3A28157   5.398   1.838   8.064
 1936POPC   C4A28158   5.131   1.877   7.695
 1936POPC   C1B28159   5.216   2.220   8.753
 1936POPC   C2B28160   5.154   2.243   8.308
 1936POPC   C3B28161   5.155   2.368   7.896
 1936POPC   C4B28162   4.870   2.310   7.563
 1937POPC   NC328163   5.916  33.585   9.542
 1937POPC   PO428164   5.381  33.982   9.498
 1937POPC   GL128165   5.574  33.747   9.167
 1937POPC   GL228166   5.872  33.874   9.117
 1937POPC   C1A28167   5.588  33.815   8.677
 1937POPC   D2A28168   5.496  33.934   8.241
 1937POPC   C3A28169   5.615  33.658   7.919
 1937POPC   C4A28170   5.893  33.450   7.639
 1937POPC   C1B28171   6.040  34.019   8.760
 1937POPC   C2B28172   6.000  33.894   8.347
 1937POPC   C3B28173   6.115  33.761   7.967
 1937POPC   C4B28174   6.099  33.933   7.584
 1938POPC   NC328175  41.511  38.282   9.279
 1938POPC   PO428176  42.074  38.685   9.295
 1938POPC   GL128177  41.758  38.634   9.002
 1938POPC   GL228178  41.395  38.712   8.989
 1938POPC   C1A28179  41.634  38.479   8.609
 1938POPC   D2A28180  41.616  38.720   8.284
 1938POPC   C3A28181  41.718  38.441   8.003
 1938POPC   C4A28182  41.432  38.156   7.872
 1938POPC   C1B28183  41.133  38.409   8.721
 1938POPC   C2B28184  41.151  38.382   8.259
 1938POPC   C3B28185  41.274  38.662   7.892
 1938POPC   C4B28186  41.429  38.536   7.506
 1939POPC   NC328187   5.483  40.108   9.448
 1939POPC   PO428188   6.068  39.743   9.616
 1939POPC   GL128189   5.961  39.906   9.221
 1939POPC   GL228190   5.703  39.684   9.211
 1939POPC   C1A28191   6.136  39.932   8.786
 1939POPC   D2A28192   6.163  39.793   8.333
 1939POPC   C3A28193   5.879  39.984   8.000
 1939POPC   C4A28194   6.030  40.345   7.747
 1939POPC   C1B28195   5.606  39.912   8.827
 1939POPC   C2B28196   5.528  40.060   8.395
 1939POPC   C3B28197   5.324  40.045   8.005
 1939POPC   C4B28198   5.505  40.031   7.614
 1940POPC   NC328199  18.502   4.770   9.568
 1940POPC   PO428200  18.088   5.251   9.637
 1940POPC   GL128201  17.996   5.135   9.235
 1940POPC   GL228202  18.328   5.072   9.162
 1940POPC   C1A28203  17.921   5.180   8.796
 1940POPC   D2A28204  18.078   5.376   8.406
 1940POPC   C3A28205  18.104   5.118   7.998
 1940POPC   C4A28206  18.080   4.843   7.605
 1940POPC   C1B28207  18.429   5.220   8.762
 1940POPC   C2B28208  18.430   4.997   8.369
 1940POPC   C3B28209  18.623   5.188   8.021
 1940POPC   C4B28210  18.592   5.097   7.597
 1941POPC   NC328211   1.599   2.376   9.454
 1941POPC   PO428212   2.139   2.744   9.401
 1941POPC   GL128213   1.962   2.890   9.027
 1941POPC   GL228214   1.629   2.778   9.075
 1941POPC   C1A28215   2.068   2.827   8.585
 1941POPC   D2A28216   2.258   2.924   8.198
 1941POPC   C3A28217   2.231   2.620   7.847
 1941POPC   C4A28218   2.126   2.827   7.429
 1941POPC   C1B28219   1.575   2.940   8.657
 1941POPC   C2B28220   1.750   3.152   8.296
 1941POPC   C3B28221   1.829   2.948   7.936
 1941POPC   C4B28222   1.757   2.630   7.698
 1942POPC   NC328223  23.419  28.935   9.446
 1942POPC   PO428224  23.784  29.576   9.519
 1942POPC   GL128225  23.781  29.256   9.215
 1942POPC   GL228226  23.478  29.274   9.079
 1942POPC   C1A28227  23.907  29.182   8.800
 1942POPC   D2A28228  23.909  28.973   8.393
 1942POPC   C3A28229  24.098  29.034   8.019
 1942POPC   C4A28230  24.273  29.361   7.755
 1942POPC   C1B28231  23.479  29.478   8.669
 1942POPC   C2B28232  23.476  29.230   8.332
 1942POPC   C3B28233  23.545  29.035   7.957
 1942POPC   C4B28234  23.752  29.190   7.596
 1943POPC   NC328235  42.701   3.737   9.426
 1943POPC   PO428236  43.375   3.604   9.590
 1943POPC   GL128237  43.217   3.681   9.216
 1943POPC   GL228238  42.987   3.417   9.158
 1943POPC   C1A28239  43.185   3.758   8.818
 1943POPC   D2A28240  43.105   3.649   8.423
 1943POPC   C3A28241  43.239   3.943   8.151
 1943POPC   C4A28242  43.420   3.897   7.745
 1943POPC   C1B28243  42.719   3.532   8.796
 1943POPC   C2B28244  42.595   3.568   8.369
 1943POPC   C3B28245  42.862   3.308   8.117
 1943POPC   C4B28246  43.138   3.500   7.894
 1944POPC   NC328247  41.949  32.546   9.484
 1944POPC   PO428248  41.343  32.182   9.728
 1944POPC   GL128249  41.447  32.332   9.231
 1944POPC   GL228250  41.731  32.377   9.048
 1944POPC   C1A28251  41.260  32.361   8.793
 1944POPC   D2A28252  41.207  32.229   8.334
 1944POPC   C3A28253  41.296  32.523   7.981
 1944POPC   C4A28254  41.392  32.508   7.513
 1944POPC   C1B28255  41.724  32.189   8.640
 1944POPC   C2B28256  41.693  32.256   8.206
 1944POPC   C3B28257  41.784  32.366   7.826
 1944POPC   C4B28258  41.894  31.933   7.760
 1945POPC   NC328259  26.984  36.522   9.517
 1945POPC   PO428260  26.906  37.252   9.502
 1945POPC   GL128261  26.754  36.897   9.216
 1945POPC   GL228262  26.405  36.770   9.246
 1945POPC   C1A28263  26.892  36.749   8.801
 1945POPC   D2A28264  26.992  37.019   8.432
 1945POPC   C3A28265  26.903  36.805   8.039
 1945POPC   C4A28266  26.695  36.706   7.682
 1945POPC   C1B28267  26.406  36.960   8.783
 1945POPC   C2B28268  26.472  36.899   8.316
 1945POPC   C3B28269  26.327  37.020   7.858
 1945POPC   C4B28270  26.354  36.916   7.364
 1946POPC   NC328271   0.431  34.226   9.735
 1946POPC   PO428272   0.173  33.746   9.302
 1946POPC   GL128273   0.453  33.844   9.034
 1946POPC   GL228274   0.607  34.047   9.261
 1946POPC   C1A28275   0.534  33.771   8.603
 1946POPC   D2A28276   0.392  33.902   8.213
 1946POPC   C3A28277   0.327  33.715   7.806
 1946POPC   C4A28278   0.232  34.066   7.551
 1946POPC   C1B28279   0.844  34.150   8.888
 1946POPC   C2B28280   0.996  34.014   8.509
 1946POPC   C3B28281   0.891  33.800   8.125
 1946POPC   C4B28282   0.716  34.017   7.770
 1947POPC   NC328283  16.892  31.057   9.419
 1947POPC   PO428284  16.670  31.756   9.367
 1947POPC   GL128285  16.701  31.414   9.098
 1947POPC   GL228286  17.063  31.386   9.080
 1947POPC   C1A28287  16.486  31.300   8.728
 1947POPC   D2A28288  16.716  31.380   8.347
 1947POPC   C3A28289  16.553  31.585   8.003
 1947POPC   C4A28290  16.688  31.318   7.666
 1947POPC   C1B28291  16.955  31.635   8.728
 1947POPC   C2B28292  17.027  31.806   8.328
 1947POPC   C3B28293  17.072  31.638   7.920
 1947POPC   C4B28294  17.033  31.616   7.442
 1948POPC   NC328295  12.872  30.188   9.549
 1948POPC   PO428296  13.143  30.701   9.238
 1948POPC   GL128297  12.875  30.761   8.945
 1948POPC   GL228298  12.956  31.104   8.930
 1948POPC   C1A28299  12.817  30.552   8.566
 1948POPC   D2A28300  13.074  30.560   8.216
 1948POPC   C3A28301  12.905  30.707   7.819
 1948POPC   C4A28302  13.180  31.009   7.590
 1948POPC   C1B28303  13.202  30.965   8.556
 1948POPC   C2B28304  13.187  31.082   8.097
 1948POPC   C3B28305  12.790  31.203   7.839
 1948POPC   C4B28306  12.431  30.918   7.720
 1949POPC   NC328307  20.633  40.623   9.617
 1949POPC   PO428308  21.277  40.560   9.603
 1949POPC   GL128309  21.361  40.674   9.145
 1949POPC   GL228310  21.006  40.582   9.098
 1949POPC   C1A28311  21.520  40.855   8.713
 1949POPC   D2A28312  21.724  40.839   8.281
 1949POPC   C3A28313  21.578  40.824   7.871
 1949POPC   C4A28314  21.403  40.871   7.478
 1949POPC   C1B28315  21.171  40.485   8.670
 1949POPC   C2B28316  21.240  40.622   8.247
 1949POPC   C3B28317  21.089  40.916   7.918
 1949POPC   C4B28318  20.959  40.684   7.572
 1950POPC   NC328319  29.413  20.916   9.692
 1950POPC   PO428320  29.122  20.355   9.633
 1950POPC   GL128321  29.360  20.520   9.257
 1950POPC   GL228322  29.657  20.305   9.224
 1950POPC   C1A28323  29.297  20.629   8.796
 1950POPC   D2A28324  29.072  20.617   8.374
 1950POPC   C3A28325  29.110  20.871   7.994
 1950POPC   C4A28326  29.082  20.691   7.571
 1950POPC   C1B28327  29.608  20.210   8.785
 1950POPC   C2B28328  29.529  20.380   8.374
 1950POPC   C3B28329  29.351  20.419   7.962
 1950POPC   C4B28330  29.315  20.231   7.566
 1951POPC   NC328331  18.685   0.057   9.490
 1951POPC   PO428332  18.405  44.424   9.645
 1951POPC   GL128333  18.274  44.446   9.217
 1951POPC   GL228334  18.463  44.730   9.178
 1951POPC   C1A28335  18.139  44.638   8.817
 1951POPC   D2A28336  18.247  44.804   8.413
 1951POPC   C3A28337  18.166  44.585   8.018
 1951POPC   C4A28338  18.449  44.551   7.685
 1951POPC   C1B28339  18.616  44.890   8.760
 1951POPC   C2B28340  18.677   0.132   8.368
 1951POPC   C3B28341  18.502   0.024   7.949
 1951POPC   C4B28342  18.219   0.184   7.596
 1952POPC   NC328343  42.670  34.529   9.460
 1952POPC   PO428344  42.005  34.587   9.539
 1952POPC   GL128345  42.245  34.531   9.183
 1952POPC   GL228346  42.374  34.848   9.138
 1952POPC   C1A28347  42.286  34.390   8.774
 1952POPC   D2A28348  42.167  34.440   8.349
 1952POPC   C3A28349  42.406  34.614   8.024
 1952POPC   C4A28350  42.327  34.411   7.675
 1952POPC   C1B28351  42.615  34.818   8.770
 1952POPC   C2B28352  42.743  34.929   8.350
 1952POPC   C3B28353  42.639  35.060   7.939
 1952POPC   C4B28354  42.457  34.892   7.547
 1953POPC   NC328355  43.086  24.008   9.359
 1953POPC   PO428356  42.760  23.458   9.470
 1953POPC   GL128357  42.963  23.582   9.091
 1953POPC   GL228358  43.308  23.697   9.036
 1953POPC   C1A28359  42.928  23.682   8.673
 1953POPC   D2A28360  42.891  23.402   8.335
 1953POPC   C3A28361  42.902  23.582   7.917
 1953POPC   C4A28362  42.928  23.968   7.646
 1953POPC   C1B28363  43.498  23.693   8.652
 1953POPC   C2B28364  43.298  23.680   8.285
 1953POPC   C3B28365  43.351  23.866   7.919
 1953POPC   C4B28366  43.440  24.104   7.594
 1954POPC   NC328367  33.977  44.638   9.507
 1954POPC   PO428368  34.629  44.491   9.406
 1954POPC   GL128369  34.284  44.456   9.149
 1954POPC   GL228370  34.183  44.791   9.067
 1954POPC   C1A28371  34.235  44.384   8.761
 1954POPC   D2A28372  34.407  44.246   8.391
 1954POPC   C3A28373  34.341  44.480   7.992
 1954POPC   C4A28374  34.747  44.601   7.808
 1954POPC   C1B28375  34.310  44.867   8.635
 1954POPC   C2B28376  34.245  44.953   8.209
 1954POPC   C3B28377  34.527   0.079   7.867
 1954POPC   C4B28378  34.803  44.997   7.496
 1955POPC   NC328379  38.882  31.706   9.593
 1955POPC   PO428380  38.601  31.162   9.382
 1955POPC   GL128381  38.703  31.348   9.013
 1955POPC   GL228382  38.689  31.741   9.045
 1955POPC   C1A28383  38.600  31.189   8.576
 1955POPC   D2A28384  38.228  31.299   8.291
 1955POPC   C3A28385  38.272  31.336   7.832
 1955POPC   C4A28386  38.065  31.121   7.444
 1955POPC   C1B28387  38.494  31.668   8.640
 1955POPC   C2B28388  38.655  31.565   8.201
 1955POPC   C3B28389  38.605  31.748   7.762
 1955POPC   C4B28390  38.739  31.847   7.315
 1956POPC   NC328391  17.121   2.953   9.729
 1956POPC   PO428392  16.590   2.877   9.306
 1956POPC   GL128393  16.585   2.597   8.982
 1956POPC   GL228394  16.442   2.282   9.042
 1956POPC   C1A28395  16.841   2.563   8.616
 1956POPC   D2A28396  17.088   2.708   8.305
 1956POPC   C3A28397  16.871   2.681   7.898
 1956POPC   C4A28398  16.965   2.616   7.446
 1956POPC   C1B28399  16.438   2.286   8.550
 1956POPC   C2B28400  16.404   2.516   8.150
 1956POPC   C3B28401  16.378   2.790   7.781
 1956POPC   C4B28402  16.233   3.051   7.421
 1957POPC   NC328403  37.332  26.441   9.127
 1957POPC   PO428404  36.915  26.798   9.536
 1957POPC   GL128405  36.779  26.727   9.125
 1957POPC   GL228406  36.550  26.995   9.075
 1957POPC   C1A28407  36.796  26.791   8.675
 1957POPC   D2A28408  36.673  26.706   8.259
 1957POPC   C3A28409  37.011  26.736   7.939
 1957POPC   C4A28410  37.318  26.457   7.730
 1957POPC   C1B28411  36.683  27.299   8.744
 1957POPC   C2B28412  36.877  27.224   8.329
 1957POPC   C3B28413  36.637  27.140   7.968
 1957POPC   C4B28414  36.533  26.756   7.766
 1958POPC   NC328415   4.893   9.208   9.647
 1958POPC   PO428416   5.376   8.778   9.436
 1958POPC   GL128417   5.170   9.113   9.219
 1958POPC   GL228418   4.924   8.912   9.213
 1958POPC   C1A28419   4.904   9.303   8.862
 1958POPC   D2A28420   5.023   9.496   8.490
 1958POPC   C3A28421   4.878   9.426   8.075
 1958POPC   C4A28422   5.173   9.374   7.746
 1958POPC   C1B28423   5.080   8.858   8.789
 1958POPC   C2B28424   5.040   8.991   8.399
 1958POPC   C3B28425   5.207   8.914   8.011
 1958POPC   C4B28426   4.969   8.934   7.662
 1959POPC   NC328427  25.572  38.625   9.549
 1959POPC   PO428428  25.074  38.124   9.613
 1959POPC   GL128429  25.199  38.376   9.251
 1959POPC   GL228430  24.902  38.278   9.117
 1959POPC   C1A28431  25.149  38.739   8.922
 1959POPC   D2A28432  25.394  38.868   8.527
 1959POPC   C3A28433  25.262  38.753   8.083
 1959POPC   C4A28434  25.047  38.615   7.689
 1959POPC   C1B28435  25.074  38.263   8.732
 1959POPC   C2B28436  24.878  38.169   8.378
 1959POPC   C3B28437  25.102  38.231   8.023
 1959POPC   C4B28438  25.022  38.057   7.660
 1960POPC   NC328439  41.537  34.692   9.555
 1960POPC   PO428440  41.542  34.054   9.291
 1960POPC   GL128441  41.449  34.456   9.127
 1960POPC   GL228442  41.756  34.636   9.094
 1960POPC   C1A28443  41.255  34.545   8.778
 1960POPC   D2A28444  41.240  34.286   8.434
 1960POPC   C3A28445  41.392  34.455   8.054
 1960POPC   C4A28446  41.181  34.453   7.675
 1960POPC   C1B28447  41.760  34.478   8.691
 1960POPC   C2B28448  41.748  34.716   8.307
 1960POPC   C3B28449  41.883  34.575   7.900
 1960POPC   C4B28450  41.952  34.748   7.484
 1961POPC   NC328451  19.643  12.364   9.339
 1961POPC   PO428452  20.152  11.952   9.463
 1961POPC   GL128453  19.910  11.968   9.094
 1961POPC   GL228454  20.056  12.284   9.027
 1961POPC   C1A28455  19.991  11.934   8.645
 1961POPC   D2A28456  20.201  11.972   8.245
 1961POPC   C3A28457  20.059  11.713   7.943
 1961POPC   C4A28458  19.857  11.881   7.642
 1961POPC   C1B28459  19.717  12.381   8.717
 1961POPC   C2B28460  19.637  12.196   8.344
 1961POPC   C3B28461  19.744  12.277   7.940
 1961POPC   C4B28462  19.813  12.367   7.480
 1962POPC   NC328463  24.480   0.628   9.669
 1962POPC   PO428464  24.074   0.265   9.291
 1962POPC   GL128465  24.510   0.453   9.166
 1962POPC   GL228466  24.752   0.192   9.087
 1962POPC   C1A28467  24.763   0.641   8.814
 1962POPC   D2A28468  24.879   0.788   8.382
 1962POPC   C3A28469  24.631   0.580   8.075
 1962POPC   C4A28470  24.421   0.688   7.712
 1962POPC   C1B28471  24.725   0.069   8.635
 1962POPC   C2B28472  24.476   0.092   8.258
 1962POPC   C3B28473  24.261   0.228   7.866
 1962POPC   C4B28474  24.425   0.280   7.437
 1963POPC   NC328475   5.388  13.555   9.479
 1963POPC   PO428476   4.714  13.462   9.492
 1963POPC   GL128477   4.984  13.636   9.162
 1963POPC   GL228478   4.841  13.958   9.099
 1963POPC   C1A28479   5.250  13.536   8.800
 1963POPC   D2A28480   5.169  13.368   8.389
 1963POPC   C3A28481   5.223  13.587   8.023
 1963POPC   C4A28482   5.068  13.496   7.604
 1963POPC   C1B28483   4.643  13.996   8.694
 1963POPC   C2B28484   4.661  14.077   8.226
 1963POPC   C3B28485   4.791  13.891   7.794
 1963POPC   C4B28486   4.685  14.054   7.345
 1964POPC   NC328487  22.776   7.339   9.687
 1964POPC   PO428488  22.202   7.679   9.647
 1964POPC   GL128489  22.231   7.627   9.201
 1964POPC   GL228490  21.893   7.579   9.080
 1964POPC   C1A28491  22.324   7.492   8.768
 1964POPC   D2A28492  22.304   7.582   8.307
 1964POPC   C3A28493  22.403   7.295   7.977
 1964POPC   C4A28494  22.525   7.412   7.595
 1964POPC   C1B28495  21.857   7.257   8.759
 1964POPC   C2B28496  21.808   7.447   8.362
 1964POPC   C3B28497  21.930   7.536   7.937
 1964POPC   C4B28498  22.000   7.299   7.562
 1965POPC   NC328499  15.480  16.350   9.500
 1965POPC   PO428500  15.379  15.694   9.501
 1965POPC   GL128501  15.336  15.950   9.159
 1965POPC   GL228502  15.039  16.163   9.252
 1965POPC   C1A28503  15.390  15.926   8.694
 1965POPC   D2A28504  15.407  16.135   8.259
 1965POPC   C3A28505  15.356  15.866   7.874
 1965POPC   C4A28506  15.407  15.720   7.440
 1965POPC   C1B28507  14.905  15.950   8.876
 1965POPC   C2B28508  14.910  16.095   8.455
 1965POPC   C3B28509  14.856  16.017   7.991
 1965POPC   C4B28510  14.958  15.947   7.545
 1966POPC   NC328511   0.577  19.036   9.159
 1966POPC   PO428512   0.032  18.800   9.509
 1966POPC   GL128513   0.048  19.046   9.109
 1966POPC   GL228514   0.181  19.402   9.098
 1966POPC   C1A28515   0.186  19.000   8.665
 1966POPC   D2A28516   0.113  19.144   8.265
 1966POPC   C3A28517   0.412  18.930   7.979
 1966POPC   C4A28518   0.479  19.050   7.538
 1966POPC   C1B28519   0.441  19.457   8.689
 1966POPC   C2B28520   0.560  19.408   8.269
 1966POPC   C3B28521   0.362  19.425   7.881
 1966POPC   C4B28522   0.330  19.536   7.471
 1967POPC   NC328523   4.984  41.568   9.663
 1967POPC   PO428524   5.669  41.243   9.636
 1967POPC   GL128525   5.350  41.408   9.293
 1967POPC   GL228526   4.989  41.450   9.170
 1967POPC   C1A28527   5.337  41.671   8.884
 1967POPC   D2A28528   5.400  41.979   8.520
 1967POPC   C3A28529   5.307  41.773   8.106
 1967POPC   C4A28530   5.190  41.385   7.899
 1967POPC   C1B28531   4.741  41.680   8.860
 1967POPC   C2B28532   4.624  41.588   8.412
 1967POPC   C3B28533   4.772  41.714   7.997
 1967POPC   C4B28534   4.866  41.674   7.561
 1968POPC   NC328535  32.541  43.744   9.746
 1968POPC   PO428536  33.122  43.620   9.438
 1968POPC   GL128537  33.248  43.992   9.207
 1968POPC   GL228538  32.934  44.038   9.063
 1968POPC   C1A28539  33.345  44.046   8.764
 1968POPC   D2A28540  33.251  43.859   8.366
 1968POPC   C3A28541  33.040  43.976   7.949
 1968POPC   C4A28542  33.103  43.975   7.475
 1968POPC   C1B28543  32.896  43.724   8.755
 1968POPC   C2B28544  32.622  43.651   8.405
 1968POPC   C3B28545  32.520  43.867   7.984
 1968POPC   C4B28546  32.657  43.771   7.549
 1969POPC   NC328547   1.679  13.496   9.285
 1969POPC   PO428548   1.246  13.942   9.615
 1969POPC   GL128549   1.212  13.771   9.182
 1969POPC   GL228550   1.475  13.730   8.911
 1969POPC   C1A28551   0.991  13.478   8.887
 1969POPC   D2A28552   0.824  13.332   8.469
 1969POPC   C3A28553   1.012  13.353   8.010
 1969POPC   C4A28554   1.062  13.493   7.579
 1969POPC   C1B28555   1.192  13.905   8.653
 1969POPC   C2B28556   1.245  13.692   8.301
 1969POPC   C3B28557   1.222  13.850   7.911
 1969POPC   C4B28558   1.562  13.972   7.690
 1970POPC   NC328559  22.886  12.427   9.221
 1970POPC   PO428560  22.707  11.912   9.588
 1970POPC   GL128561  22.700  11.936   9.152
 1970POPC   GL228562  23.053  11.931   9.181
 1970POPC   C1A28563  22.831  12.009   8.710
 1970POPC   D2A28564  23.144  12.102   8.389
 1970POPC   C3A28565  22.919  12.189   8.008
 1970POPC   C4A28566  22.855  11.861   7.708
 1970POPC   C1B28567  23.179  11.654   8.869
 1970POPC   C2B28568  23.201  11.528   8.470
 1970POPC   C3B28569  23.097  11.646   8.096
 1970POPC   C4B28570  23.283  11.591   7.722
 1971POPC   NC328571   7.620  20.121   9.434
 1971POPC   PO428572   7.497  19.528   9.659
 1971POPC   GL128573   7.388  19.658   9.202
 1971POPC   GL228574   7.263  19.990   9.050
 1971POPC   C1A28575   7.491  19.582   8.760
 1971POPC   D2A28576   7.593  19.458   8.344
 1971POPC   C3A28577   7.503  19.710   7.997
 1971POPC   C4A28578   7.651  19.604   7.592
 1971POPC   C1B28579   7.598  20.095   8.760
 1971POPC   C2B28580   7.862  20.036   8.401
 1971POPC   C3B28581   7.785  20.144   7.943
 1971POPC   C4B28582   7.360  20.207   7.844
 1972POPC   NC328583   1.742  36.757   9.709
 1972POPC   PO428584   2.207  37.197   9.855
 1972POPC   GL128585   2.050  37.140   9.355
 1972POPC   GL228586   1.722  36.960   9.257
 1972POPC   C1A28587   2.053  36.979   8.875
 1972POPC   D2A28588   2.006  36.755   8.467
 1972POPC   C3A28589   2.113  36.867   8.018
 1972POPC   C4A28590   2.154  36.620   7.631
 1972POPC   C1B28591   1.581  37.189   8.917
 1972POPC   C2B28592   1.611  37.088   8.509
 1972POPC   C3B28593   1.612  36.837   8.146
 1972POPC   C4B28594   1.578  36.958   7.730
 1973POPC   NC328595  39.126  13.084   9.383
 1973POPC   PO428596  39.466  13.627   9.477
 1973POPC   GL128597  39.383  13.432   9.110
 1973POPC   GL228598  39.054  13.541   9.136
 1973POPC   C1A28599  39.273  13.494   8.684
 1973POPC   D2A28600  39.162  13.343   8.290
 1973POPC   C3A28601  39.384  13.622   8.050
 1973POPC   C4A28602  39.463  13.609   7.662
 1973POPC   C1B28603  38.838  13.768   8.769
 1973POPC   C2B28604  38.941  13.814   8.319
 1973POPC   C3B28605  38.902  13.624   7.902
 1973POPC   C4B28606  38.994  13.960   7.618
 1974POPC   NC328607  28.803  14.978   9.962
 1974POPC   PO428608  29.172  15.425   9.490
 1974POPC   GL128609  29.110  15.250   9.079
 1974POPC   GL228610  29.423  15.183   9.000
 1974POPC   C1A28611  29.069  15.394   8.663
 1974POPC   D2A28612  29.198  15.429   8.271
 1974POPC   C3A28613  28.910  15.669   8.093
 1974POPC   C4A28614  28.709  15.574   7.734
 1974POPC   C1B28615  29.277  14.921   8.703
 1974POPC   C2B28616  29.103  14.926   8.344
 1974POPC   C3B28617  29.197  15.019   7.933
 1974POPC   C4B28618  29.428  14.920   7.544
 1975POPC   NC328619   9.048  16.363   9.435
 1975POPC   PO428620   8.856  16.977   9.687
 1975POPC   GL128621   8.895  16.939   9.175
 1975POPC   GL228622   8.691  16.678   9.006
 1975POPC   C1A28623   9.163  16.818   8.750
 1975POPC   D2A28624   9.348  16.746   8.292
 1975POPC   C3A28625   9.117  16.501   7.991
 1975POPC   C4A28626   8.758  16.249   7.801
 1975POPC   C1B28627   8.710  17.044   8.730
 1975POPC   C2B28628   8.671  17.066   8.328
 1975POPC   C3B28629   8.635  16.728   8.060
 1975POPC   C4B28630   8.812  16.747   7.669
 1976POPC   NC328631  26.379  31.594   9.424
 1976POPC   PO428632  25.800  31.295   9.499
 1976POPC   GL128633  25.838  31.339   9.107
 1976POPC   GL228634  25.947  31.646   9.103
 1976POPC   C1A28635  25.981  31.173   8.744
 1976POPC   D2A28636  26.110  31.281   8.353
 1976POPC   C3A28637  25.850  31.188   8.001
 1976POPC   C4A28638  25.981  31.206   7.591
 1976POPC   C1B28639  26.161  31.671   8.711
 1976POPC   C2B28640  26.396  31.712   8.312
 1976POPC   C3B28641  26.264  31.527   7.903
 1976POPC   C4B28642  26.114  31.687   7.496
 1977POPC   NC328643  28.997  30.303   9.462
 1977POPC   PO428644  29.161  30.989   9.417
 1977POPC   GL128645  29.246  30.886   9.030
 1977POPC   GL228646  29.362  30.542   9.134
 1977POPC   C1A28647  29.475  30.843   8.659
 1977POPC   D2A28648  29.571  31.046   8.280
 1977POPC   C3A28649  29.310  30.934   7.954
 1977POPC   C4A28650  29.346  30.540   7.801
 1977POPC   C1B28651  29.126  30.465   8.746
 1977POPC   C2B28652  29.140  30.608   8.311
 1977POPC   C3B28653  28.874  30.489   7.947
 1977POPC   C4B28654  28.878  30.551   7.498
 1978POPC   NC328655  26.398  29.209   9.422
 1978POPC   PO428656  27.080  28.930   9.627
 1978POPC   GL128657  26.823  28.910   9.207
 1978POPC   GL228658  26.743  29.202   9.023
 1978POPC   C1A28659  26.952  28.885   8.720
 1978POPC   D2A28660  27.280  28.962   8.394
 1978POPC   C3A28661  27.144  29.134   7.977
 1978POPC   C4A28662  26.936  29.029   7.574
 1978POPC   C1B28663  26.620  29.419   8.667
 1978POPC   C2B28664  26.457  29.257   8.283
 1978POPC   C3B28665  26.612  29.325   7.864
 1978POPC   C4B28666  26.906  29.673   7.776
 1979POPC   NC328667  18.330  30.044   9.639
 1979POPC   PO428668  18.469  29.460   9.365
 1979POPC   GL128669  18.451  29.838   9.137
 1979POPC   GL228670  18.142  30.005   9.150
 1979POPC   C1A28671  18.542  30.026   8.721
 1979POPC   D2A28672  18.587  30.103   8.258
 1979POPC   C3A28673  18.328  29.818   7.981
 1979POPC   C4A28674  18.230  29.858   7.533
 1979POPC   C1B28675  17.894  29.928   8.773
 1979POPC   C2B28676  17.925  29.860   8.287
 1979POPC   C3B28677  17.938  30.129   7.853
 1979POPC   C4B28678  17.889  30.178   7.341
 1980POPC   NC328679   0.287   1.951   9.627
 1980POPC   PO428680   0.843   2.327   9.566
 1980POPC   GL128681   0.471   2.205   9.245
 1980POPC   GL228682   0.518   1.902   9.173
 1980POPC   C1A28683   0.309   2.135   8.770
 1980POPC   D2A28684   0.315   2.202   8.292
 1980POPC   C3A28685   0.254   1.872   7.942
 1980POPC   C4A28686   0.180   1.845   7.444
 1980POPC   C1B28687   0.624   1.731   8.797
 1980POPC   C2B28688   0.545   1.727   8.396
 1980POPC   C3B28689   0.768   1.671   8.048
 1980POPC   C4B28690   0.643   1.741   7.650
 1981POPC   NC328691  11.601   9.924   9.634
 1981POPC   PO428692  11.152   9.572   9.382
 1981POPC   GL128693  11.348   9.899   9.144
 1981POPC   GL228694  11.453   9.621   8.935
 1981POPC   C1A28695  11.233  10.117   8.756
 1981POPC   D2A28696  10.975  10.023   8.401
 1981POPC   C3A28697  11.202   9.874   8.038
 1981POPC   C4A28698  11.515   9.910   7.717
 1981POPC   C1B28699  11.290   9.617   8.509
 1981POPC   C2B28700  11.079   9.271   8.290
 1981POPC   C3B28701  11.039   9.137   7.854
 1981POPC   C4B28702  11.303   9.445   7.731
 1982POPC   NC328703  36.722  39.333   9.484
 1982POPC   PO428704  37.391  39.139   9.333
 1982POPC   GL128705  37.033  39.236   9.066
 1982POPC   GL228706  37.252  39.282   8.774
 1982POPC   C1A28707  36.755  39.351   8.718
 1982POPC   D2A28708  36.829  39.544   8.339
 1982POPC   C3A28709  36.721  39.318   8.003
 1982POPC   C4A28710  37.011  39.319   7.671
 1982POPC   C1B28711  37.217  38.813   8.764
 1982POPC   C2B28712  37.008  38.729   8.401
 1982POPC   C3B28713  37.114  38.962   8.036
 1982POPC   C4B28714  37.367  38.969   7.659
 1983POPC   NC328715   5.248  14.441   9.555
 1983POPC   PO428716   4.645  14.681   9.681
 1983POPC   GL128717   4.741  14.783   9.239
 1983POPC   GL228718   4.999  14.499   9.109
 1983POPC   C1A28719   4.750  14.789   8.792
 1983POPC   D2A28720   4.915  14.426   8.546
 1983POPC   C3A28721   4.934  14.509   8.106
 1983POPC   C4A28722   5.338  14.595   7.907
 1983POPC   C1B28723   5.232  14.156   8.856
 1983POPC   C2B28724   5.117  13.924   8.494
 1983POPC   C3B28725   5.172  14.075   8.107
 1983POPC   C4B28726   5.434  14.048   7.799
 1984POPC   NC328727  40.378  44.175   9.459
 1984POPC   PO428728  39.972  43.549   9.513
 1984POPC   GL128729  40.196  43.749   9.174
 1984POPC   GL228730  39.999  44.030   9.153
 1984POPC   C1A28731  40.198  43.873   8.708
 1984POPC   D2A28732  39.897  43.883   8.328
 1984POPC   C3A28733  40.075  43.831   7.911
 1984POPC   C4A28734  40.465  43.679   7.754
 1984POPC   C1B28735  39.775  44.147   8.763
 1984POPC   C2B28736  39.721  44.377   8.389
 1984POPC   C3B28737  39.927  44.320   8.000
 1984POPC   C4B28738  39.761  44.160   7.624
 1985POPC   NC328739  20.993  44.354   9.617
 1985POPC   PO428740  21.695  44.360   9.406
 1985POPC   GL128741  21.424  44.631   9.142
 1985POPC   GL228742  21.053  44.580   9.158
 1985POPC   C1A28743  21.477  44.521   8.723
 1985POPC   D2A28744  21.602  44.469   8.309
 1985POPC   C3A28745  21.589  44.885   8.151
 1985POPC   C4A28746  21.439   0.029   7.779
 1985POPC   C1B28747  20.962  44.542   8.740
 1985POPC   C2B28748  21.137  44.674   8.339
 1985POPC   C3B28749  21.217  44.570   7.918
 1985POPC   C4B28750  20.855  44.567   7.680
 1986POPC   NC328751   6.214  42.529   9.403
 1986POPC   PO428752   5.632  42.115   9.385
 1986POPC   GL128753   5.890  42.256   9.108
 1986POPC   GL228754   5.763  42.591   9.150
 1986POPC   C1A28755   6.091  42.360   8.749
 1986POPC   D2A28756   5.946  42.456   8.381
 1986POPC   C3A28757   6.165  42.389   8.038
 1986POPC   C4A28758   5.895  42.417   7.751
 1986POPC   C1B28759   5.460  42.483   8.834
 1986POPC   C2B28760   5.447  42.581   8.421
 1986POPC   C3B28761   5.628  42.742   8.046
 1986POPC   C4B28762   5.394  42.578   7.700
 1987POPC   NC328763  35.946  30.841   9.503
 1987POPC   PO428764  35.739  30.299   9.118
 1987POPC   GL128765  36.084  30.396   8.924
 1987POPC   GL228766  36.198  30.648   9.091
 1987POPC   C1A28767  36.266  30.426   8.559
 1987POPC   D2A28768  36.433  30.710   8.272
 1987POPC   C3A28769  36.209  30.584   7.905
 1987POPC   C4A28770  35.836  30.672   7.665
 1987POPC   C1B28771  36.145  30.905   8.702
 1987POPC   C2B28772  35.796  30.976   8.405
 1987POPC   C3B28773  35.765  31.031   8.016
 1987POPC   C4B28774  36.140  31.085   7.746
 1988POPC   NC328775  27.875  24.120   9.405
 1988POPC   PO428776  27.684  24.669   9.423
 1988POPC   GL128777  27.657  24.606   8.998
 1988POPC   GL228778  27.690  24.258   8.933
 1988POPC   C1A28779  27.496  24.570   8.568
 1988POPC   D2A28780  27.664  24.490   8.171
 1988POPC   C3A28781  27.510  24.540   7.757
 1988POPC   C4A28782  27.111  24.471   7.550
 1988POPC   C1B28783  28.001  24.458   8.646
 1988POPC   C2B28784  28.162  24.343   8.243
 1988POPC   C3B28785  28.037  24.465   7.830
 1988POPC   C4B28786  27.909  24.638   7.442
 1989POPC   NC328787   1.083  12.779   9.601
 1989POPC   PO428788   1.696  13.061   9.465
 1989POPC   GL128789   1.380  13.037   9.120
 1989POPC   GL228790   1.147  12.736   9.088
 1989POPC   C1A28791   1.379  13.186   8.691
 1989POPC   D2A28792   1.610  13.202   8.300
 1989POPC   C3A28793   1.388  13.009   7.943
 1989POPC   C4A28794   1.494  12.837   7.556
 1989POPC   C1B28795   0.956  12.873   8.690
 1989POPC   C2B28796   0.977  12.889   8.225
 1989POPC   C3B28797   1.012  12.585   7.876
 1989POPC   C4B28798   0.941  12.241   7.561
 1990POPC   NC328799  15.576   5.451   9.429
 1990POPC   PO428800  15.243   6.001   9.564
 1990POPC   GL128801  15.106   5.824   9.226
 1990POPC   GL228802  15.023   5.478   9.260
 1990POPC   C1A28803  15.175   5.958   8.814
 1990POPC   D2A28804  15.352   5.857   8.418
 1990POPC   C3A28805  15.220   6.081   8.082
 1990POPC   C4A28806  15.304   6.218   7.667
 1990POPC   C1B28807  14.743   5.673   8.924
 1990POPC   C2B28808  14.771   5.867   8.506
 1990POPC   C3B28809  14.756   5.769   8.088
 1990POPC   C4B28810  15.013   5.746   7.741
 1991POPC   NC328811   0.430  34.991   9.297
 1991POPC   PO428812   0.198  35.580   9.542
 1991POPC   GL128813   0.228  35.483   9.133
 1991POPC   GL228814   0.102  35.797   8.974
 1991POPC   C1A28815   0.125  35.241   8.741
 1991POPC   D2A28816   0.149  34.870   8.428
 1991POPC   C3A28817   0.248  35.020   8.022
 1991POPC   C4A28818   0.235  35.185   7.577
 1991POPC   C1B28819   0.475  35.626   8.717
 1991POPC   C2B28820   0.410  35.411   8.319
 1991POPC   C3B28821   0.635  35.359   7.932
 1991POPC   C4B28822   0.882  35.508   7.589
 1992POPC   NC328823  37.293  14.850   9.436
 1992POPC   PO428824  37.482  14.309   9.483
 1992POPC   GL128825  37.349  14.367   9.080
 1992POPC   GL228826  37.687  14.397   8.958
 1992POPC   C1A28827  37.314  14.177   8.661
 1992POPC   D2A28828  37.332  14.197   8.219
 1992POPC   C3A28829  37.484  13.996   7.870
 1992POPC   C4A28830  37.871  14.174   7.711
 1992POPC   C1B28831  37.473  14.662   8.658
 1992POPC   C2B28832  37.388  14.716   8.232
 1992POPC   C3B28833  37.563  14.566   7.843
 1992POPC   C4B28834  37.574  14.751   7.400
 1993POPC   NC328835   0.378  39.108   9.516
 1993POPC   PO428836   0.724  39.670   9.405
 1993POPC   GL128837   0.680  39.336   9.123
 1993POPC   GL228838   0.309  39.289   9.045
 1993POPC   C1A28839   0.668  39.359   8.682
 1993POPC   D2A28840   0.901  39.371   8.343
 1993POPC   C3A28841   0.668  39.442   7.983
 1993POPC   C4A28842   0.554  39.125   7.709
 1993POPC   C1B28843   0.359  38.939   8.738
 1993POPC   C2B28844   0.486  38.999   8.285
 1993POPC   C3B28845   0.242  38.794   7.942
 1993POPC   C4B28846   0.041  39.042   7.645
 1994POPC   NC328847  44.755  25.897   9.572
 1994POPC   PO428848  44.211  26.296   9.582
 1994POPC   GL128849  44.589  26.210   9.230
 1994POPC   GL228850  44.721  25.822   9.091
 1994POPC   C1A28851  44.667  26.206   8.788
 1994POPC   D2A28852  44.701  25.942   8.421
 1994POPC   C3A28853  44.665  26.210   8.049
 1994POPC   C4A28854  44.296  26.296   7.785
 1994POPC   C1B28855   0.040  25.735   8.796
 1994POPC   C2B28856   0.201  25.857   8.384
 1994POPC   C3B28857  44.955  25.758   7.989
 1994POPC   C4B28858  44.473  25.795   7.845
 1995POPC   NC328859   0.964  44.815   9.374
 1995POPC   PO428860   1.563  44.451   9.466
 1995POPC   GL128861   1.300  44.509   9.123
 1995POPC   GL228862   1.383  44.878   9.060
 1995POPC   C1A28863   1.246  44.554   8.701
 1995POPC   D2A28864   1.417  44.876   8.451
 1995POPC   C3A28865   1.336  44.781   8.028
 1995POPC   C4A28866   1.257  44.428   7.717
 1995POPC   C1B28867   1.045   0.043   8.775
 1995POPC   C2B28868   1.071   0.251   8.402
 1995POPC   C3B28869   0.960   0.144   8.014
 1995POPC   C4B28870   0.935  44.826   7.716
 1996POPC   NC328871  26.055  13.186   9.436
 1996POPC   PO428872  26.153  12.560   9.506
 1996POPC   GL128873  26.050  12.725   9.123
 1996POPC   GL228874  25.888  12.430   9.072
 1996POPC   C1A28875  25.930  12.997   8.769
 1996POPC   D2A28876  25.870  13.180   8.368
 1996POPC   C3A28877  26.242  13.315   8.134
 1996POPC   C4A28878  26.453  13.090   7.855
 1996POPC   C1B28879  25.919  12.507   8.649
 1996POPC   C2B28880  25.901  12.659   8.259
 1996POPC   C3B28881  25.738  12.578   7.886
 1996POPC   C4B28882  25.950  12.481   7.544
 1997POPC   NC328883  21.787   5.195   9.326
 1997POPC   PO428884  22.462   5.355   9.510
 1997POPC   GL128885  22.288   5.151   9.165
 1997POPC   GL228886  22.158   5.419   9.058
 1997POPC   C1A28887  22.133   5.009   8.768
 1997POPC   D2A28888  22.105   5.245   8.393
 1997POPC   C3A28889  21.909   5.032   8.044
 1997POPC   C4A28890  22.144   4.781   7.800
 1997POPC   C1B28891  22.480   5.394   8.737
 1997POPC   C2B28892  22.597   5.299   8.302
 1997POPC   C3B28893  22.291   5.372   7.925
 1997POPC   C4B28894  22.324   5.588   7.477
 1998POPC   NC328895   2.514  28.388   9.523
 1998POPC   PO428896   3.129  28.413   9.567
 1998POPC   GL128897   2.925  28.466   9.124
 1998POPC   GL228898   2.592  28.492   9.038
 1998POPC   C1A28899   2.858  28.269   8.666
 1998POPC   D2A28900   2.880  28.414   8.249
 1998POPC   C3A28901   2.814  28.145   7.884
 1998POPC   C4A28902   2.678  28.170   7.398
 1998POPC   C1B28903   2.777  28.757   8.684
 1998POPC   C2B28904   2.777  28.919   8.243
 1998POPC   C3B28905   2.708  28.655   7.818
 1998POPC   C4B28906   2.763  28.681   7.319
 1999POPC   NC328907  37.430  26.604   9.661
 1999POPC   PO428908  37.387  27.149   9.264
 1999POPC   GL128909  37.499  26.926   8.963
 1999POPC   GL228910  37.819  26.805   9.035
 1999POPC   C1A28911  37.641  27.099   8.600
 1999POPC   D2A28912  37.881  26.937   8.324
 1999POPC   C3A28913  37.637  26.707   8.058
 1999POPC   C4A28914  37.444  26.949   7.743
 1999POPC   C1B28915  38.142  26.653   8.718
 1999POPC   C2B28916  38.207  26.550   8.281
 1999POPC   C3B28917  38.111  26.788   7.894
 1999POPC   C4B28918  37.810  26.639   7.565
 2000POPC   NC328919  23.492  13.108   9.432
 2000POPC   PO428920  23.996  12.678   9.482
 2000POPC   GL128921  23.848  12.930   9.112
 2000POPC   GL228922  23.491  12.914   8.974
 2000POPC   C1A28923  23.938  12.898   8.685
 2000POPC   D2A28924  23.697  12.668   8.400
 2000POPC   C3A28925  23.732  12.845   7.993
 2000POPC   C4A28926  23.786  12.917   7.560
 2000POPC   C1B28927  23.278  12.615   8.728
 2000POPC   C2B28928  23.040  12.627   8.367
 2000POPC   C3B28929  23.315  12.498   8.069
 2000POPC   C4B28930  23.414  12.592   7.684
 2001POPC   NC328931  11.187  30.293   9.807
 2001POPC   PO428932  11.447  29.772   9.545
 2001POPC   GL128933  11.526  29.573   9.128
 2001POPC   GL228934  11.210  29.622   9.075
 2001POPC   C1A28935  11.651  29.603   8.662
 2001POPC   D2A28936  11.561  29.861   8.296
 2001POPC   C3A28937  11.627  29.732   7.863
 2001POPC   C4A28938  11.330  29.733   7.503
 2001POPC   C1B28939  11.243  29.904   8.739
 2001POPC   C2B28940  11.050  29.927   8.339
 2001POPC   C3B28941  11.182  29.993   7.917
 2001POPC   C4B28942  11.268  30.263   7.555
 2002POPC   NC328943   1.426  30.072   9.486
 2002POPC   PO428944   0.818  30.063   9.344
 2002POPC   GL128945   1.108  29.915   9.073
 2002POPC   GL228946   0.895  29.706   8.905
 2002POPC   C1A28947   1.274  30.028   8.691
 2002POPC   D2A28948   1.397  30.425   8.514
 2002POPC   C3A28949   1.306  30.273   8.142
 2002POPC   C4A28950   1.546  30.105   7.816
 2002POPC   C1B28951   1.240  29.512   8.693
 2002POPC   C2B28952   1.386  29.585   8.274
 2002POPC   C3B28953   1.355  29.642   7.834
 2002POPC   C4B28954   1.612  29.678   7.416
 2003POPC   NC328955  37.950  26.104   9.512
 2003POPC   PO428956  38.486  25.812   9.666
 2003POPC   GL128957  38.408  25.997   9.222
 2003POPC   GL228958  38.594  26.305   9.089
 2003POPC   C1A28959  38.259  25.990   8.769
 2003POPC   D2A28960  38.256  25.762   8.380
 2003POPC   C3A28961  38.295  25.909   7.930
 2003POPC   C4A28962  38.627  25.981   7.580
 2003POPC   C1B28963  38.565  26.365   8.624
 2003POPC   C2B28964  38.603  26.211   8.206
 2003POPC   C3B28965  38.902  26.324   7.860
 2003POPC   C4B28966  38.962  26.339   7.386
 2004POPC   NC328967  19.428   9.172   9.394
 2004POPC   PO428968  18.982   8.670   9.639
 2004POPC   GL128969  19.116   8.795   9.214
 2004POPC   GL228970  18.941   9.090   9.123
 2004POPC   C1A28971  19.270   8.914   8.784
 2004POPC   D2A28972  19.297   8.704   8.397
 2004POPC   C3A28973  19.338   8.929   8.043
 2004POPC   C4A28974  19.101   8.740   7.783
 2004POPC   C1B28975  18.870   9.247   8.736
 2004POPC   C2B28976  18.923   9.066   8.369
 2004POPC   C3B28977  18.828   9.123   7.980
 2004POPC   C4B28978  18.713   9.443   7.706
 2005POPC   NC328979  25.780  34.518   9.606
 2005POPC   PO428980  26.339  34.450   9.212
 2005POPC   GL128981  25.917  34.388   9.138
 2005POPC   GL228982  25.739  34.702   9.116
 2005POPC   C1A28983  25.777  34.218   8.774
 2005POPC   D2A28984  25.945  34.237   8.366
 2005POPC   C3A28985  25.776  34.444   7.993
 2005POPC   C4A28986  26.152  34.545   7.784
 2005POPC   C1B28987  25.947  34.690   8.701
 2005POPC   C2B28988  26.143  34.709   8.299
 2005POPC   C3B28989  26.308  34.969   7.995
 2005POPC   C4B28990  25.929  35.003   7.797
 2006POPC   NC328991  26.633  28.836   9.719
 2006POPC   PO428992  27.068  28.385   9.517
 2006POPC   GL128993  27.008  28.352   9.091
 2006POPC   GL228994  26.694  28.437   9.079
 2006POPC   C1A28995  27.214  28.476   8.704
 2006POPC   D2A28996  27.173  28.373   8.329
 2006POPC   C3A28997  27.022  28.635   8.075
 2006POPC   C4A28998  27.052  28.556   7.704
 2006POPC   C1B28999  26.728  28.349   8.638
 2006POPC   C2B29000  26.693  28.231   8.206
 2006POPC   C3B29001  26.558  28.148   7.779
 2006POPC   C4B29002  26.533  28.013   7.341
 2007POPC   NC329003  10.891  23.089   9.536
 2007POPC   PO429004  11.593  23.149   9.508
 2007POPC   GL129005  11.374  23.048   9.112
 2007POPC   GL229006  11.080  22.891   9.073
 2007POPC   C1A29007  11.361  22.931   8.652
 2007POPC   D2A29008  11.297  22.639   8.326
 2007POPC   C3A29009  11.489  22.766   7.948
 2007POPC   C4A29010  11.540  23.186   7.745
 2007POPC   C1B29011  10.862  22.934   8.711
 2007POPC   C2B29012  10.844  23.106   8.310
 2007POPC   C3B29013  11.048  23.062   7.928
 2007POPC   C4B29014  11.163  22.822   7.558
 2008POPC   NC329015   3.463  28.074   9.480
 2008POPC   PO429016   3.802  28.681   9.501
 2008POPC   GL129017   3.614  28.459   9.155
 2008POPC   GL229018   3.367  28.672   8.989
 2008POPC   C1A29019   3.610  28.285   8.741
 2008POPC   D2A29020   3.310  28.144   8.419
 2008POPC   C3A29021   3.337  28.333   8.017
 2008POPC   C4A29022   3.577  28.267   7.653
 2008POPC   C1B29023   3.261  28.637   8.575
 2008POPC   C2B29024   3.610  28.607   8.348
 2008POPC   C3B29025   3.773  28.676   7.978
 2008POPC   C4B29026   3.492  28.790   7.710
 2009POPC   NC329027  22.969  31.560   9.534
 2009POPC   PO429028  23.411  31.092   9.273
 2009POPC   GL129029  23.045  31.244   9.104
 2009POPC   GL229030  22.722  31.066   9.120
 2009POPC   C1A29031  22.952  31.196   8.673
 2009POPC   D2A29032  22.746  31.424   8.366
 2009POPC   C3A29033  22.918  31.404   7.981
 2009POPC   C4A29034  23.046  31.583   7.558
 2009POPC   C1B29035  22.613  31.495   8.919
 2009POPC   C2B29036  22.377  31.682   8.590
 2009POPC   C3B29037  22.402  31.692   8.092
 2009POPC   C4B29038  22.552  31.529   7.668
 2010POPC   NC329039  26.586  42.790   9.478
 2010POPC   PO429040  26.979  43.437   9.522
 2010POPC   GL129041  26.836  43.230   9.152
 2010POPC   GL229042  26.895  42.862   9.084
 2010POPC   C1A29043  26.670  43.168   8.752
 2010POPC   D2A29044  26.643  42.869   8.408
 2010POPC   C3A29045  26.742  42.989   7.985
 2010POPC   C4A29046  27.035  43.333   7.881
 2010POPC   C1B29047  27.121  42.846   8.721
 2010POPC   C2B29048  27.138  43.001   8.325
 2010POPC   C3B29049  27.208  42.829   7.941
 2010POPC   C4B29050  27.336  43.009   7.596
 2011POPC   NC329051  22.271  15.620   9.629
 2011POPC   PO429052  22.028  14.962   9.728
 2011POPC   GL129053  22.175  15.119   9.302
 2011POPC   GL229054  22.296  15.439   9.145
 2011POPC   C1A29055  22.235  14.997   8.836
 2011POPC   D2A29056  21.945  14.981   8.457
 2011POPC   C3A29057  22.057  14.871   8.037
 2011POPC   C4A29058  22.362  15.047   7.786
 2011POPC   C1B29059  21.995  15.472   8.777
 2011POPC   C2B29060  21.902  15.633   8.349
 2011POPC   C3B29061  22.017  15.434   7.937
 2011POPC   C4B29062  22.214  15.465   7.520
 2012POPC   NC329063   8.485   3.548   9.351
 2012POPC   PO429064   8.014   3.230   9.817
 2012POPC   GL129065   7.986   3.498   9.383
 2012POPC   GL229066   8.057   3.321   9.122
 2012POPC   C1A29067   7.982   3.739   8.888
 2012POPC   D2A29068   7.823   3.932   8.473
 2012POPC   C3A29069   8.110   3.895   8.138
 2012POPC   C4A29070   8.152   3.669   7.761
 2012POPC   C1B29071   8.245   3.290   8.768
 2012POPC   C2B29072   8.105   3.468   8.419
 2012POPC   C3B29073   8.399   3.407   8.110
 2012POPC   C4B29074   8.642   3.456   7.744
 2013POPC   NC329075  31.427  21.676   9.619
 2013POPC   PO429076  31.064  22.293   9.565
 2013POPC   GL129077  31.236  22.342   9.164
 2013POPC   GL229078  31.408  22.031   9.241
 2013POPC   C1A29079  31.533  22.334   8.835
 2013POPC   D2A29080  31.312  22.435   8.478
 2013POPC   C3A29081  31.481  22.450   8.088
 2013POPC   C4A29082  31.382  22.283   7.720
 2013POPC   C1B29083  31.151  21.895   8.943
 2013POPC   C2B29084  31.305  21.930   8.568
 2013POPC   C3B29085  31.381  21.957   8.156
 2013POPC   C4B29086  31.366  21.767   7.796
 2014POPC   NC329087   1.164  33.569   9.561
 2014POPC   PO429088   0.923  34.280   9.577
 2014POPC   GL129089   1.139  33.974   9.259
 2014POPC   GL229090   0.942  33.676   9.116
 2014POPC   C1A29091   1.370  33.882   8.863
 2014POPC   D2A29092   1.593  34.023   8.487
 2014POPC   C3A29093   1.338  34.077   8.143
 2014POPC   C4A29094   1.268  33.938   7.760
 2014POPC   C1B29095   0.971  33.547   8.697
 2014POPC   C2B29096   1.293  33.562   8.377
 2014POPC   C3B29097   1.220  33.449   7.915
 2014POPC   C4B29098   0.919  33.582   7.606
 2015POPC   NC329099   5.426   3.241   9.551
 2015POPC   PO429100   5.084   3.836   9.682
 2015POPC   GL129101   5.125   3.679   9.249
 2015POPC   GL229102   5.324   3.986   9.184
 2015POPC   C1A29103   5.132   3.380   8.840
 2015POPC   D2A29104   5.194   3.183   8.393
 2015POPC   C3A29105   4.895   3.213   8.031
 2015POPC   C4A29106   4.790   3.555   7.760
 2015POPC   C1B29107   5.074   3.885   8.776
 2015POPC   C2B29108   5.013   3.664   8.401
 2015POPC   C3B29109   5.245   3.608   8.036
 2015POPC   C4B29110   5.221   3.834   7.665
 2016POPC   NC329111  33.052  19.226   9.526
 2016POPC   PO429112  32.527  18.825   9.540
 2016POPC   GL129113  32.805  18.912   9.178
 2016POPC   GL229114  33.185  18.872   9.188
 2016POPC   C1A29115  33.004  19.242   8.879
 2016POPC   D2A29116  33.259  19.258   8.496
 2016POPC   C3A29117  32.966  19.142   8.170
 2016POPC   C4A29118  32.981  19.099   7.721
 2016POPC   C1B29119  33.094  18.741   8.772
 2016POPC   C2B29120  33.273  18.749   8.362
 2016POPC   C3B29121  33.450  19.015   8.035
 2016POPC   C4B29122  33.445  18.898   7.600
 2017POPC   NC329123  41.394   1.400   9.351
 2017POPC   PO429124  41.717   0.816   9.543
 2017POPC   GL129125  41.654   1.002   9.147
 2017POPC   GL229126  41.838   1.334   9.116
 2017POPC   C1A29127  41.453   1.032   8.744
 2017POPC   D2A29128  41.429   1.279   8.361
 2017POPC   C3A29129  41.353   1.096   7.959
 2017POPC   C4A29130  41.561   1.125   7.568
 2017POPC   C1B29131  41.934   1.202   8.703
 2017POPC   C2B29132  41.950   1.271   8.263
 2017POPC   C3B29133  41.737   1.446   7.962
 2017POPC   C4B29134  41.441   1.628   7.755
 2018POPC   NC329135  31.052  14.001   9.474
 2018POPC   PO429136  31.528  13.536   9.668
 2018POPC   GL129137  31.367  13.581   9.252
 2018POPC   GL229138  31.332  13.831   9.072
 2018POPC   C1A29139  31.325  13.426   8.788
 2018POPC   D2A29140  31.614  13.247   8.507
 2018POPC   C3A29141  31.560  13.269   8.051
 2018POPC   C4A29142  31.808  13.384   7.676
 2018POPC   C1B29143  31.538  14.055   8.737
 2018POPC   C2B29144  31.508  14.087   8.309
 2018POPC   C3B29145  31.346  14.044   7.915
 2018POPC   C4B29146  31.357  13.644   7.739
 2019POPC   NC329147  10.209  27.512   9.486
 2019POPC   PO429148   9.635  27.660   9.603
 2019POPC   GL129149   9.688  27.746   9.197
 2019POPC   GL229150   9.988  27.907   9.218
 2019POPC   C1A29151   9.798  27.546   8.790
 2019POPC   D2A29152   9.984  27.357   8.405
 2019POPC   C3A29153   9.811  27.337   8.013
 2019POPC   C4A29154   9.906  27.549   7.678
 2019POPC   C1B29155   9.883  28.040   8.826
 2019POPC   C2B29156  10.034  27.862   8.461
 2019POPC   C3B29157  10.141  27.853   8.063
 2019POPC   C4B29158   9.978  28.036   7.708
 2020POPC   NC329159  17.257  44.414   9.502
 2020POPC   PO429160  16.663  44.761   9.613
 2020POPC   GL129161  16.846  44.663   9.223
 2020POPC   GL229162  16.869  44.328   9.182
 2020POPC   C1A29163  16.730  44.722   8.788
 2020POPC   D2A29164  16.465  44.675   8.444
 2020POPC   C3A29165  16.620  44.836   8.044
 2020POPC   C4A29166  16.572  44.597   7.668
 2020POPC   C1B29167  17.144  44.445   8.832
 2020POPC   C2B29168  17.041  44.591   8.397
 2020POPC   C3B29169  16.887  44.393   8.022
 2020POPC   C4B29170  16.955  44.141   7.666
 2021POPC   NC329171  19.448   0.474   9.444
 2021POPC   PO429172  18.709   0.527   9.513
 2021POPC   GL129173  19.028   0.326   9.216
 2021POPC   GL229174  19.135   0.648   9.067
 2021POPC   C1A29175  19.048   0.192   8.780
 2021POPC   D2A29176  19.168   0.442   8.415
 2021POPC   C3A29177  19.297   0.319   7.996
 2021POPC   C4A29178  18.925   0.276   7.757
 2021POPC   C1B29179  19.370   0.826   8.714
 2021POPC   C2B29180  19.380   0.881   8.267
 2021POPC   C3B29181  19.108   0.795   7.924
 2021POPC   C4B29182  19.103   0.652   7.476
 2022POPC   NC329183  19.679  15.601   9.519
 2022POPC   PO429184  20.145  16.063   9.487
 2022POPC   GL129185  19.758  16.050   9.256
 2022POPC   GL229186  19.927  15.775   9.094
 2022POPC   C1A29187  19.704  16.140   8.823
 2022POPC   D2A29188  20.019  16.118   8.523
 2022POPC   C3A29189  19.934  15.943   8.152
 2022POPC   C4A29190  19.912  16.210   7.810
 2022POPC   C1B29191  19.591  15.615   8.846
 2022POPC   C2B29192  19.514  15.558   8.413
 2022POPC   C3B29193  19.661  15.496   7.993
 2022POPC   C4B29194  19.917  15.689   7.702
 2023POPC   NC329195   7.061  29.691   9.407
 2023POPC   PO429196   7.692  29.894   9.589
 2023POPC   GL129197   7.599  30.069   9.198
 2023POPC   GL229198   7.260  30.016   9.087
 2023POPC   C1A29199   7.642  29.960   8.780
 2023POPC   D2A29200   7.367  29.873   8.450
 2023POPC   C3A29201   7.538  29.886   8.053
 2023POPC   C4A29202   7.222  30.036   7.822
 2023POPC   C1B29203   7.024  29.736   8.799
 2023POPC   C2B29204   6.956  29.526   8.456
 2023POPC   C3B29205   7.117  29.580   8.076
 2023POPC   C4B29206   7.044  29.543   7.683
 2024POPC   NC329207   8.044   9.533   9.588
 2024POPC   PO429208   7.671  10.092   9.583
 2024POPC   GL129209   7.967   9.912   9.211
 2024POPC   GL229210   8.232   9.664   9.149
 2024POPC   C1A29211   7.977   9.767   8.729
 2024POPC   D2A29212   7.968   9.462   8.381
 2024POPC   C3A29213   7.890   9.566   7.958
 2024POPC   C4A29214   8.220   9.610   7.637
 2024POPC   C1B29215   8.432   9.490   8.822
 2024POPC   C2B29216   8.463   9.685   8.434
 2024POPC   C3B29217   8.567   9.557   8.030
 2024POPC   C4B29218   8.658   9.289   7.703
 2025POPC   NC329219  10.200   3.834   9.546
 2025POPC   PO429220  10.300   4.415   9.412
 2025POPC   GL129221  10.465   4.666   9.042
 2025POPC   GL229222  10.787   4.849   9.096
 2025POPC   C1A29223  10.416   4.538   8.619
 2025POPC   D2A29224  10.134   4.300   8.328
 2025POPC   C3A29225  10.290   4.243   7.897
 2025POPC   C4A29226  10.416   3.866   7.627
 2025POPC   C1B29227  10.876   4.798   8.657
 2025POPC   C2B29228  10.813   4.597   8.253
 2025POPC   C3B29229  10.989   4.422   7.865
 2025POPC   C4B29230  11.084   4.400   7.407
 2026POPC   NC329231  10.679  28.485   9.544
 2026POPC   PO429232  10.266  27.935   9.649
 2026POPC   GL129233  10.402  28.196   9.223
 2026POPC   GL229234  10.378  28.513   9.156
 2026POPC   C1A29235  10.707  28.380   8.813
 2026POPC   D2A29236  10.537  28.604   8.429
 2026POPC   C3A29237  10.778  28.438   8.102
 2026POPC   C4A29238  10.743  28.300   7.676
 2026POPC   C1B29239  10.207  28.402   8.785
 2026POPC   C2B29240  10.043  28.362   8.378
 2026POPC   C3B29241  10.282  28.348   8.003
 2026POPC   C4B29242  10.273  28.440   7.579
 2027POPC   NC329243  16.277  34.555   9.320
 2027POPC   PO429244  15.714  34.304   9.674
 2027POPC   GL129245  15.861  34.258   9.198
 2027POPC   GL229246  15.835  34.589   9.046
 2027POPC   C1A29247  16.120  34.283   8.754
 2027POPC   D2A29248  16.122  34.381   8.282
 2027POPC   C3A29249  15.972  34.452   7.836
 2027POPC   C4A29250  16.055  34.163   7.457
 2027POPC   C1B29251  15.660  34.453   8.623
 2027POPC   C2B29252  15.676  34.664   8.211
 2027POPC   C3B29253  15.433  34.661   7.837
 2027POPC   C4B29254  15.419  34.795   7.405
 2028POPC   NC329255  25.488  31.812   9.520
 2028POPC   PO429256  25.142  31.296   9.440
 2028POPC   GL129257  25.097  31.591   9.107
 2028POPC   GL229258  25.428  31.652   9.048
 2028POPC   C1A29259  25.135  31.552   8.639
 2028POPC   D2A29260  24.969  31.445   8.232
 2028POPC   C3A29261  25.203  31.557   7.861
 2028POPC   C4A29262  25.472  31.327   7.582
 2028POPC   C1B29263  25.654  31.602   8.667
 2028POPC   C2B29264  25.552  31.553   8.241
 2028POPC   C3B29265  25.727  31.678   7.854
 2028POPC   C4B29266  25.619  31.787   7.422
 2029POPC   NC329267  11.530  25.342   9.510
 2029POPC   PO429268  11.315  24.822   9.195
 2029POPC   GL129269  11.148  25.114   8.945
 2029POPC   GL229270  11.272  25.393   9.082
 2029POPC   C1A29271  11.133  25.085   8.550
 2029POPC   D2A29272  11.392  24.995   8.323
 2029POPC   C3A29273  11.209  25.127   8.010
 2029POPC   C4A29274  11.277  25.128   7.603
 2029POPC   C1B29275  11.531  25.355   8.734
 2029POPC   C2B29276  11.375  25.522   8.359
 2029POPC   C3B29277  11.508  25.508   7.968
 2029POPC   C4B29278  11.519  25.620   7.570
 2030POPC   NC329279  23.056  15.738   9.910
 2030POPC   PO429280  22.469  16.076   9.702
 2030POPC   GL129281  22.795  16.161   9.359
 2030POPC   GL229282  22.983  15.832   9.361
 2030POPC   C1A29283  22.925  16.132   8.892
 2030POPC   D2A29284  23.163  16.058   8.493
 2030POPC   C3A29285  22.938  15.949   8.124
 2030POPC   C4A29286  22.709  15.971   7.725
 2030POPC   C1B29287  23.166  15.709   8.961
 2030POPC   C2B29288  22.946  15.562   8.575
 2030POPC   C3B29289  22.998  15.447   8.130
 2030POPC   C4B29290  23.144  15.691   7.745
 2031POPC   NC329291  36.539  31.417   9.484
 2031POPC   PO429292  35.896  31.528   9.542
 2031POPC   GL129293  35.780  31.231   9.224
 2031POPC   GL229294  36.123  31.168   9.140
 2031POPC   C1A29295  35.776  31.279   8.795
 2031POPC   D2A29296  35.702  31.481   8.426
 2031POPC   C3A29297  36.051  31.450   8.176
 2031POPC   C4A29298  35.831  31.529   7.825
 2031POPC   C1B29299  36.242  31.480   8.835
 2031POPC   C2B29300  36.585  31.537   8.547
 2031POPC   C3B29301  36.582  31.619   8.111
 2031POPC   C4B29302  36.335  31.553   7.744
 2032POPC   NC329303  12.247   8.549   9.477
 2032POPC   PO429304  11.671   8.107   9.443
 2032POPC   GL129305  11.942   8.095   9.101
 2032POPC   GL229306  12.298   8.141   9.188
 2032POPC   C1A29307  11.874   8.158   8.670
 2032POPC   D2A29308  12.040   7.947   8.326
 2032POPC   C3A29309  12.002   8.208   7.959
 2032POPC   C4A29310  11.644   8.062   7.708
 2032POPC   C1B29311  12.392   8.038   8.778
 2032POPC   C2B29312  12.550   7.890   8.379
 2032POPC   C3B29313  12.420   7.924   7.969
 2032POPC   C4B29314  12.373   8.158   7.568
 2033POPC   NC329315  20.989  36.573   9.555
 2033POPC   PO429316  20.561  37.108   9.752
 2033POPC   GL129317  20.608  36.904   9.331
 2033POPC   GL229318  20.273  36.866   9.212
 2033POPC   C1A29319  20.621  36.814   8.853
 2033POPC   D2A29320  20.808  36.729   8.438
 2033POPC   C3A29321  20.726  36.938   8.051
 2033POPC   C4A29322  20.868  36.627   7.780
 2033POPC   C1B29323  20.093  36.681   8.880
 2033POPC   C2B29324  20.280  36.603   8.502
 2033POPC   C3B29325  20.231  36.791   8.116
 2033POPC   C4B29326  20.367  36.760   7.719
 2034POPC   NC329327  22.880   9.903   9.523
 2034POPC   PO429328  23.056   9.265   9.604
 2034POPC   GL129329  22.919   9.498   9.203
 2034POPC   GL229330  23.212   9.687   9.086
 2034POPC   C1A29331  22.772   9.777   8.839
 2034POPC   D2A29332  22.910  10.053   8.479
 2034POPC   C3A29333  22.767   9.886   8.080
 2034POPC   C4A29334  23.039   9.831   7.722
 2034POPC   C1B29335  23.315   9.753   8.616
 2034POPC   C2B29336  23.496   9.692   8.172
 2034POPC   C3B29337  23.472   9.563   7.728
 2034POPC   C4B29338  23.330   9.419   7.315
 2035POPC   NC329339  17.586  11.335   9.632
 2035POPC   PO429340  16.972  11.245   9.710
 2035POPC   GL129341  17.235  11.257   9.284
 2035POPC   GL229342  17.574  11.069   9.207
 2035POPC   C1A29343  17.439  11.451   8.896
 2035POPC   D2A29344  17.632  11.418   8.486
 2035POPC   C3A29345  17.386  11.217   8.180
 2035POPC   C4A29346  17.230  11.383   7.814
 2035POPC   C1B29347  17.861  11.093   8.840
 2035POPC   C2B29348  17.843  10.940   8.405
 2035POPC   C3B29349  17.857  11.138   8.002
 2035POPC   C4B29350  17.784  11.308   7.581
 2036POPC   NC329351  15.054  33.966   9.521
 2036POPC   PO429352  15.318  33.434   9.381
 2036POPC   GL129353  15.192  33.719   9.104
 2036POPC   GL229354  15.472  33.899   9.111
 2036POPC   C1A29355  15.184  34.032   8.717
 2036POPC   D2A29356  15.189  33.856   8.290
 2036POPC   C3A29357  15.350  34.038   7.910
 2036POPC   C4A29358  15.282  33.885   7.466
 2036POPC   C1B29359  15.432  33.590   8.702
 2036POPC   C2B29360  15.369  33.370   8.327
 2036POPC   C3B29361  15.349  33.527   7.904
 2036POPC   C4B29362  15.490  33.418   7.526
 2037POPC   NC329363  34.939  25.574   9.439
 2037POPC   PO429364  35.466  25.953   9.557
 2037POPC   GL129365  35.223  26.184   9.260
 2037POPC   GL229366  35.150  25.901   9.131
 2037POPC   C1A29367  35.379  26.316   8.877
 2037POPC   D2A29368  35.496  26.116   8.566
 2037POPC   C3A29369  35.418  26.223   8.144
 2037POPC   C4A29370  35.437  26.088   7.746
 2037POPC   C1B29371  35.094  25.681   8.756
 2037POPC   C2B29372  35.120  25.852   8.361
 2037POPC   C3B29373  35.064  25.805   7.944
 2037POPC   C4B29374  35.013  25.966   7.505
 2038POPC   NC329375  10.139  42.876   9.542
 2038POPC   PO429376  10.553  43.369   9.355
 2038POPC   GL129377  10.353  43.026   9.094
 2038POPC   GL229378  10.451  42.679   9.121
 2038POPC   C1A29379  10.228  42.848   8.689
 2038POPC   D2A29380  10.448  42.922   8.289
 2038POPC   C3A29381  10.315  43.037   7.836
 2038POPC   C4A29382  10.466  43.352   7.498
 2038POPC   C1B29383  10.722  42.704   8.745
 2038POPC   C2B29384  10.887  42.629   8.328
 2038POPC   C3B29385  10.952  42.845   7.932
 2038POPC   C4B29386  10.738  42.934   7.543
 2039POPC   NC329387  23.569  31.918   9.615
 2039POPC   PO429388  24.128  32.318   9.679
 2039POPC   GL129389  23.856  32.261   9.283
 2039POPC   GL229390  23.749  32.577   9.112
 2039POPC   C1A29391  23.651  32.145   8.855
 2039POPC   D2A29392  23.794  32.145   8.415
 2039POPC   C3A29393  23.539  32.197   8.043
 2039POPC   C4A29394  23.540  31.898   7.693
 2039POPC   C1B29395  24.060  32.474   8.808
 2039POPC   C2B29396  24.191  32.568   8.402
 2039POPC   C3B29397  23.970  32.535   8.007
 2039POPC   C4B29398  23.949  32.242   7.696
 2040POPC   NC329399  20.419  21.134   9.526
 2040POPC   PO429400  20.572  21.728   9.469
 2040POPC   GL129401  20.314  21.568   9.152
 2040POPC   GL229402  20.182  21.875   9.008
 2040POPC   C1A29403  20.345  21.231   8.813
 2040POPC   D2A29404  20.646  21.169   8.484
 2040POPC   C3A29405  20.610  21.197   8.036
 2040POPC   C4A29406  20.856  21.146   7.655
 2040POPC   C1B29407  20.518  21.724   8.707
 2040POPC   C2B29408  20.645  21.757   8.261
 2040POPC   C3B29409  20.829  21.654   7.859
 2040POPC   C4B29410  20.737  21.595   7.438
 2041POPC   NC329411  24.362  28.463   9.470
 2041POPC   PO429412  25.079  28.497   9.591
 2041POPC   GL129413  24.805  28.338   9.236
 2041POPC   GL229414  24.648  28.640   9.080
 2041POPC   C1A29415  24.669  28.180   8.807
 2041POPC   D2A29416  24.619  28.351   8.390
 2041POPC   C3A29417  24.607  28.106   7.982
 2041POPC   C4A29418  24.781  28.090   7.538
 2041POPC   C1B29419  24.265  28.630   8.800
 2041POPC   C2B29420  23.996  28.488   8.461
 2041POPC   C3B29421  24.193  28.520   8.040
 2041POPC   C4B29422  24.355  28.381   7.643
 2042POPC   NC329423  43.576   5.391   9.405
 2042POPC   PO429424  44.010   5.029   9.778
 2042POPC   GL129425  44.055   5.148   9.337
 2042POPC   GL229426  43.792   4.946   9.221
 2042POPC   C1A29427  43.932   5.257   8.867
 2042POPC   D2A29428  44.122   5.236   8.476
 2042POPC   C3A29429  43.940   5.273   8.085
 2042POPC   C4A29430  43.881   5.006   7.758
 2042POPC   C1B29431  43.681   4.820   8.820
 2042POPC   C2B29432  43.732   4.918   8.407
 2042POPC   C3B29433  43.490   4.864   8.058
 2042POPC   C4B29434  43.451   4.773   7.623
 2043POPC   NC329435   1.880  10.031   9.526
 2043POPC   PO429436   1.961   9.383   9.618
 2043POPC   GL129437   1.871   9.535   9.232
 2043POPC   GL229438   2.014   9.810   9.095
 2043POPC   C1A29439   2.076   9.389   8.830
 2043POPC   D2A29440   2.272   9.515   8.440
 2043POPC   C3A29441   2.058   9.417   8.037
 2043POPC   C4A29442   2.227   9.428   7.617
 2043POPC   C1B29443   2.096   9.960   8.691
 2043POPC   C2B29444   1.944   9.881   8.274
 2043POPC   C3B29445   2.024   9.898   7.820
 2043POPC   C4B29446   1.745   9.994   7.464
 2044POPC   NC329447  40.667  31.937   9.739
 2044POPC   PO429448  41.021  31.521   9.388
 2044POPC   GL129449  40.979  31.696   9.029
 2044POPC   GL229450  40.638  31.743   9.101
 2044POPC   C1A29451  40.905  31.484   8.654
 2044POPC   D2A29452  40.898  31.166   8.331
 2044POPC   C3A29453  40.850  31.359   7.941
 2044POPC   C4A29454  40.972  31.791   7.780
 2044POPC   C1B29455  40.458  31.717   8.703
 2044POPC   C2B29456  40.465  31.478   8.323
 2044POPC   C3B29457  40.460  31.685   7.919
 2044POPC   C4B29458  40.634  31.538   7.499
 2045POPC   NC329459  32.262  11.701   9.273
 2045POPC   PO429460  32.102  11.089   9.486
 2045POPC   GL129461  32.403  11.161   9.126
 2045POPC   GL229462  32.691  11.432   9.170
 2045POPC   C1A29463  32.309  11.259   8.673
 2045POPC   D2A29464  32.085  11.085   8.280
 2045POPC   C3A29465  32.242  11.310   7.904
 2045POPC   C4A29466  32.122  11.614   7.568
 2045POPC   C1B29467  32.725  11.620   8.758
 2045POPC   C2B29468  32.717  11.377   8.383
 2045POPC   C3B29469  32.572  11.011   8.181
 2045POPC   C4B29470  32.547  10.938   7.722
 2046POPC   NC329471  15.475   4.533   9.463
 2046POPC   PO429472  14.837   4.524   9.691
 2046POPC   GL129473  15.002   4.482   9.275
 2046POPC   GL229474  15.178   4.229   9.127
 2046POPC   C1A29475  15.080   4.630   8.831
 2046POPC   D2A29476  15.377   4.591   8.482
 2046POPC   C3A29477  15.176   4.506   8.091
 2046POPC   C4A29478  15.425   4.295   7.805
 2046POPC   C1B29479  15.406   4.155   8.755
 2046POPC   C2B29480  15.290   4.080   8.320
 2046POPC   C3B29481  15.170   3.891   7.899
 2046POPC   C4B29482  15.152   4.034   7.438
 2047POPC   NC329483   1.745  28.220   9.338
 2047POPC   PO429484   2.173  28.687   9.462
 2047POPC   GL129485   2.073  28.526   9.055
 2047POPC   GL229486   2.209  28.833   8.911
 2047POPC   C1A29487   1.887  28.293   8.663
 2047POPC   D2A29488   1.675  28.330   8.221
 2047POPC   C3A29489   1.805  28.054   7.855
 2047POPC   C4A29490   1.967  28.195   7.427
 2047POPC   C1B29491   2.348  28.515   8.593
 2047POPC   C2B29492   2.199  28.361   8.204
 2047POPC   C3B29493   2.023  28.518   7.830
 2047POPC   C4B29494   2.314  28.575   7.504
 2048POPC   NC329495   3.871  12.398   9.458
 2048POPC   PO429496   3.403  12.880   9.520
 2048POPC   GL129497   3.590  12.771   9.114
 2048POPC   GL229498   3.485  12.443   9.105
 2048POPC   C1A29499   3.653  12.872   8.671
 2048POPC   D2A29500   3.886  13.161   8.384
 2048POPC   C3A29501   3.791  13.065   7.937
 2048POPC   C4A29502   3.383  12.920   7.714
 2048POPC   C1B29503   3.453  12.293   8.680
 2048POPC   C2B29504   3.707  12.441   8.363
 2048POPC   C3B29505   3.667  12.581   7.973
 2048POPC   C4B29506   3.472  12.434   7.614
 2049POPC   NC329507   8.490  11.252   9.810
 2049POPC   PO429508   7.901  11.053   9.431
 2049POPC   GL129509   7.922  11.230   9.049
 2049POPC   GL229510   8.030  11.595   9.137
 2049POPC   C1A29511   8.207  11.321   8.714
 2049POPC   D2A29512   8.526  11.314   8.427
 2049POPC   C3A29513   8.406  11.141   8.056
 2049POPC   C4A29514   8.332  11.320   7.670
 2049POPC   C1B29515   7.774  11.613   8.758
 2049POPC   C2B29516   7.830  11.330   8.367
 2049POPC   C3B29517   7.922  11.412   7.938
 2049POPC   C4B29518   8.009  11.696   7.578
 2050POPC   NC329519  35.133   6.959   9.659
 2050POPC   PO429520  35.534   6.404   9.718
 2050POPC   GL129521  35.359   6.604   9.324
 2050POPC   GL229522  35.516   6.921   9.294
 2050POPC   C1A29523  35.299   6.726   8.869
 2050POPC   D2A29524  35.291   6.844   8.440
 2050POPC   C3A29525  35.199   6.714   7.986
 2050POPC   C4A29526  35.422   6.401   7.778
 2050POPC   C1B29527  35.763   7.014   8.911
 2050POPC   C2B29528  35.794   7.106   8.451
 2050POPC   C3B29529  35.611   7.010   8.072
 2050POPC   C4B29530  35.741   7.083   7.677
 2051POPC   NC329531  35.142   2.899   9.579
 2051POPC   PO429532  35.757   2.780   9.490
 2051POPC   GL129533  35.454   2.776   9.158
 2051POPC   GL229534  35.404   2.452   9.097
 2051POPC   C1A29535  35.323   2.932   8.737
 2051POPC   D2A29536  35.498   3.164   8.393
 2051POPC   C3A29537  35.419   3.097   7.958
 2051POPC   C4A29538  35.600   2.998   7.592
 2051POPC   C1B29539  35.387   2.424   8.636
 2051POPC   C2B29540  35.339   2.675   8.266
 2051POPC   C3B29541  35.325   2.603   7.829
 2051POPC   C4B29542  34.958   2.487   7.561
 2052POPC   NC329543  29.674  12.658   9.624
 2052POPC   PO429544  30.267  12.361   9.475
 2052POPC   GL129545  29.963  12.489   9.195
 2052POPC   GL229546  29.902  12.844   9.194
 2052POPC   C1A29547  30.012  12.582   8.747
 2052POPC   D2A29548  29.832  12.631   8.356
 2052POPC   C3A29549  30.028  12.503   7.985
 2052POPC   C4A29550  30.182  12.807   7.700
 2052POPC   C1B29551  29.592  12.807   8.891
 2052POPC   C2B29552  29.566  13.034   8.531
 2052POPC   C3B29553  29.588  13.000   8.088
 2052POPC   C4B29554  29.565  13.147   7.690
 2053POPC   NC329555  28.211  32.376   9.618
 2053POPC   PO429556  28.312  31.765   9.629
 2053POPC   GL129557  28.287  32.003   9.204
 2053POPC   GL229558  28.205  32.365   9.127
 2053POPC   C1A29559  28.451  32.127   8.760
 2053POPC   D2A29560  28.422  31.923   8.389
 2053POPC   C3A29561  28.542  32.160   8.025
 2053POPC   C4A29562  28.391  32.161   7.603
 2053POPC   C1B29563  28.000  32.363   8.732
 2053POPC   C2B29564  28.195  32.385   8.356
 2053POPC   C3B29565  28.041  32.357   7.947
 2053POPC   C4B29566  28.089  32.562   7.565
 2054POPC   NC329567  27.505  18.920   9.406
 2054POPC   PO429568  28.014  19.246   9.670
 2054POPC   GL129569  27.914  19.320   9.210
 2054POPC   GL229570  27.581  19.186   9.008
 2054POPC   C1A29571  28.009  19.214   8.767
 2054POPC   D2A29572  27.657  19.176   8.491
 2054POPC   C3A29573  27.704  19.233   8.073
 2054POPC   C4A29574  27.536  19.072   7.701
 2054POPC   C1B29575  27.646  18.766   8.783
 2054POPC   C2B29576  27.546  18.676   8.355
 2054POPC   C3B29577  27.272  18.791   8.044
 2054POPC   C4B29578  26.993  18.607   7.724
 2055POPC   NC329579   4.961  35.894   9.664
 2055POPC   PO429580   5.305  36.403   9.488
 2055POPC   GL129581   5.017  36.250   9.187
 2055POPC   GL229582   4.789  36.551   9.205
 2055POPC   C1A29583   5.155  36.082   8.759
 2055POPC   D2A29584   5.291  36.224   8.324
 2055POPC   C3A29585   5.338  35.997   7.924
 2055POPC   C4A29586   5.459  36.161   7.510
 2055POPC   C1B29587   4.915  36.550   8.775
 2055POPC   C2B29588   4.778  36.290   8.443
 2055POPC   C3B29589   4.839  36.132   8.056
 2055POPC   C4B29590   4.944  36.251   7.685
 2056POPC   NC329591  30.011   0.516   9.514
 2056POPC   PO429592  29.747  44.973   9.395
 2056POPC   GL129593  29.761   0.256   9.102
 2056POPC   GL229594  29.663  44.983   8.890
 2056POPC   C1A29595  29.839   0.388   8.664
 2056POPC   D2A29596  29.827   0.212   8.248
 2056POPC   C3A29597  29.851   0.535   7.903
 2056POPC   C4A29598  30.044   0.825   7.575
 2056POPC   C1B29599  29.977  44.836   8.583
 2056POPC   C2B29600  30.282  44.937   8.265
 2056POPC   C3B29601  30.186   0.126   7.878
 2056POPC   C4B29602  29.760   0.055   7.762
 2057POPC   NC329603  18.841   6.266   9.722
 2057POPC   PO429604  19.313   5.876   9.433
 2057POPC   GL129605  19.043   6.116   9.174
 2057POPC   GL229606  18.730   5.994   9.252
 2057POPC   C1A29607  19.054   5.941   8.740
 2057POPC   D2A29608  19.341   5.686   8.446
 2057POPC   C3A29609  19.266   5.649   7.970
 2057POPC   C4A29610  19.382   6.038   7.770
 2057POPC   C1B29611  18.714   5.616   8.970
 2057POPC   C2B29612  18.797   5.507   8.525
 2057POPC   C3B29613  18.889   5.840   8.248
 2057POPC   C4B29614  18.854   6.043   7.881
 2058POPC   NC329615  30.634  29.496   9.701
 2058POPC   PO429616  30.338  29.983   9.324
 2058POPC   GL129617  30.496  30.027   8.943
 2058POPC   GL229618  30.733  30.247   9.036
 2058POPC   C1A29619  30.477  29.911   8.503
 2058POPC   D2A29620  30.705  29.695   8.175
 2058POPC   C3A29621  30.469  29.711   7.788
 2058POPC   C4A29622  30.416  30.015   7.443
 2058POPC   C1B29623  30.900  30.192   8.625
 2058POPC   C2B29624  30.786  30.346   8.247
 2058POPC   C3B29625  30.731  30.138   7.879
 2058POPC   C4B29626  30.937  30.024   7.534
 2059POPC   NC329627   7.237  16.057   9.633
 2059POPC   PO429628   6.625  16.134   9.438
 2059POPC   GL129629   6.677  16.196   9.019
 2059POPC   GL229630   6.839  16.440   8.854
 2059POPC   C1A29631   6.690  15.976   8.663
 2059POPC   D2A29632   6.936  15.817   8.331
 2059POPC   C3A29633   6.680  15.922   8.015
 2059POPC   C4A29634   6.442  16.002   7.682
 2059POPC   C1B29635   7.080  16.277   8.518
 2059POPC   C2B29636   7.111  16.430   8.104
 2059POPC   C3B29637   6.886  16.311   7.729
 2059POPC   C4B29638   6.921  15.885   7.549
 2060POPC   NC329639   6.749   5.329   9.463
 2060POPC   PO429640   6.175   4.954   9.645
 2060POPC   GL129641   6.343   4.947   9.168
 2060POPC   GL229642   6.591   5.184   9.006
 2060POPC   C1A29643   6.315   4.947   8.656
 2060POPC   D2A29644   6.636   5.166   8.387
 2060POPC   C3A29645   6.557   5.270   7.927
 2060POPC   C4A29646   6.542   4.986   7.574
 2060POPC   C1B29647   6.785   4.807   8.799
 2060POPC   C2B29648   6.985   4.737   8.381
 2060POPC   C3B29649   6.928   4.925   8.013
 2060POPC   C4B29650   7.086   5.184   7.710
 2061POPC   NC329651   2.427   1.276   9.582
 2061POPC   PO429652   2.987   1.517   9.346
 2061POPC   GL129653   2.794   1.164   9.155
 2061POPC   GL229654   2.458   1.036   9.139
 2061POPC   C1A29655   2.785   0.952   8.756
 2061POPC   D2A29656   2.605   1.044   8.363
 2061POPC   C3A29657   2.880   1.294   8.133
 2061POPC   C4A29658   2.914   1.335   7.687
 2061POPC   C1B29659   2.474   1.422   8.827
 2061POPC   C2B29660   2.567   1.736   8.463
 2061POPC   C3B29661   2.511   1.624   8.022
 2061POPC   C4B29662   2.453   1.196   7.865
 2062POPC   NC329663   5.570  32.777  10.021
 2062POPC   PO429664   5.573  33.267   9.510
 2062POPC   GL129665   5.820  33.304   9.129
 2062POPC   GL229666   5.790  32.993   9.095
 2062POPC   C1A29667   5.738  33.310   8.688
 2062POPC   D2A29668   5.846  33.400   8.278
 2062POPC   C3A29669   5.671  33.116   7.965
 2062POPC   C4A29670   5.810  32.959   7.560
 2062POPC   C1B29671   5.920  32.835   8.757
 2062POPC   C2B29672   6.148  33.024   8.439
 2062POPC   C3B29673   6.186  33.051   7.993
 2062POPC   C4B29674   6.299  33.071   7.567
 2063POPC   NC329675  35.346  44.099   9.436
 2063POPC   PO429676  35.968  43.721   9.368
 2063POPC   GL129677  35.599  43.811   9.104
 2063POPC   GL229678  35.667  44.172   9.066
 2063POPC   C1A29679  35.252  43.852   8.777
 2063POPC   D2A29680  35.227  43.614   8.401
 2063POPC   C3A29681  35.060  43.719   8.016
 2063POPC   C4A29682  35.311  43.719   7.678
 2063POPC   C1B29683  35.745  44.029   8.669
 2063POPC   C2B29684  35.571  43.964   8.292
 2063POPC   C3B29685  35.596  44.118   7.890
 2063POPC   C4B29686  35.436  44.168   7.484
 2064POPC   NC329687  38.444  37.323   9.415
 2064POPC   PO429688  38.838  37.906   9.447
 2064POPC   GL129689  38.548  37.735   9.049
 2064POPC   GL229690  38.297  37.425   8.955
 2064POPC   C1A29691  38.342  37.770   8.598
 2064POPC   D2A29692  38.361  37.819   8.141
 2064POPC   C3A29693  38.678  37.557   7.960
 2064POPC   C4A29694  38.848  37.531   7.539
 2064POPC   C1B29695  37.912  37.479   8.704
 2064POPC   C2B29696  37.918  37.540   8.292
 2064POPC   C3B29697  37.857  37.251   7.975
 2064POPC   C4B29698  38.156  37.470   7.788
 2065POPC   NC329699   2.765  40.563   9.540
 2065POPC   PO429700   2.993  41.220   9.329
 2065POPC   GL129701   2.750  40.878   9.124
 2065POPC   GL229702   2.781  40.502   9.050
 2065POPC   C1A29703   2.523  40.905   8.757
 2065POPC   D2A29704   2.496  40.710   8.387
 2065POPC   C3A29705   2.657  40.941   8.079
 2065POPC   C4A29706   2.423  41.022   7.742
 2065POPC   C1B29707   2.992  40.604   8.676
 2065POPC   C2B29708   2.931  40.481   8.262
 2065POPC   C3B29709   2.916  40.560   7.851
 2065POPC   C4B29710   2.574  40.531   7.563
 2066POPC   NC329711  19.004   1.201   9.645
 2066POPC   PO429712  19.600   0.948   9.449
 2066POPC   GL129713  19.297   1.158   9.169
 2066POPC   GL229714  18.906   1.170   9.157
 2066POPC   C1A29715  19.258   1.358   8.759
 2066POPC   D2A29716  19.526   1.383   8.389
 2066POPC   C3A29717  19.257   1.321   8.017
 2066POPC   C4A29718  19.244   1.154   7.589
 2066POPC   C1B29719  18.673   1.380   8.835
 2066POPC   C2B29720  18.821   1.385   8.410
 2066POPC   C3B29721  18.789   1.592   8.019
 2066POPC   C4B29722  18.753   1.317   7.683
 2067POPC   NC329723  24.015  42.715   9.868
 2067POPC   PO429724  24.538  42.366   9.501
 2067POPC   GL129725  24.591  42.506   9.079
 2067POPC   GL229726  24.658  42.854   9.144
 2067POPC   C1A29727  24.510  42.277   8.668
 2067POPC   D2A29728  24.437  41.989   8.320
 2067POPC   C3A29729  24.383  42.223   7.934
 2067POPC   C4A29730  24.471  42.466   7.513
 2067POPC   C1B29731  24.628  42.818   8.670
 2067POPC   C2B29732  24.840  42.571   8.369
 2067POPC   C3B29733  24.736  42.616   7.919
 2067POPC   C4B29734  24.830  42.944   7.605
 2068POPC   NC329735   3.776  38.016   9.491
 2068POPC   PO429736   3.599  37.474   9.764
 2068POPC   GL129737   3.582  37.604   9.232
 2068POPC   GL229738   3.550  37.889   9.055
 2068POPC   C1A29739   3.772  37.520   8.782
 2068POPC   D2A29740   3.678  37.547   8.346
 2068POPC   C3A29741   3.966  37.459   8.008
 2068POPC   C4A29742   3.791  37.639   7.633
 2068POPC   C1B29743   3.368  37.832   8.664
 2068POPC   C2B29744   3.355  37.920   8.215
 2068POPC   C3B29745   3.472  38.027   7.797
 2068POPC   C4B29746   3.499  38.060   7.353
 2069POPC   NC329747  31.164  34.738   9.526
 2069POPC   PO429748  31.621  34.272   9.345
 2069POPC   GL129749  31.528  34.662   9.107
 2069POPC   GL229750  31.253  34.897   9.055
 2069POPC   C1A29751  31.440  34.543   8.703
 2069POPC   D2A29752  31.214  34.337   8.384
 2069POPC   C3A29753  31.389  34.374   7.979
 2069POPC   C4A29754  31.402  34.127   7.575
 2069POPC   C1B29755  31.087  34.893   8.646
 2069POPC   C2B29756  31.287  34.841   8.255
 2069POPC   C3B29757  31.213  34.829   7.835
 2069POPC   C4B29758  31.116  34.525   7.550
 2070POPC   NC329759  15.902  14.687   9.751
 2070POPC   PO429760  16.242  14.199   9.516
 2070POPC   GL129761  16.037  14.396   9.163
 2070POPC   GL229762  15.801  14.668   9.242
 2070POPC   C1A29763  16.149  14.244   8.703
 2070POPC   D2A29764  15.985  14.060   8.288
 2070POPC   C3A29765  16.008  14.301   7.916
 2070POPC   C4A29766  15.627  14.433   7.673
 2070POPC   C1B29767  15.883  14.671   8.782
 2070POPC   C2B29768  15.923  14.566   8.366
 2070POPC   C3B29769  15.782  14.749   8.008
 2070POPC   C4B29770  16.036  14.727   7.616
 2071POPC   NC329771  35.154  29.167   9.531
 2071POPC   PO429772  35.549  28.743   9.422
 2071POPC   GL129773  35.311  28.968   9.100
 2071POPC   GL229774  35.422  29.257   9.080
 2071POPC   C1A29775  35.294  28.984   8.659
 2071POPC   D2A29776  35.238  28.828   8.258
 2071POPC   C3A29777  35.317  28.951   7.835
 2071POPC   C4A29778  35.388  29.092   7.440
 2071POPC   C1B29779  35.539  29.448   8.718
 2071POPC   C2B29780  35.671  29.215   8.383
 2071POPC   C3B29781  35.637  29.334   7.964
 2071POPC   C4B29782  35.714  29.460   7.540
 2072POPC   NC329783  22.398  19.597  10.030
 2072POPC   PO429784  21.891  19.585   9.587
 2072POPC   GL129785  22.031  19.749   9.180
 2072POPC   GL229786  21.705  19.760   9.010
 2072POPC   C1A29787  22.353  19.570   8.888
 2072POPC   D2A29788  22.481  19.607   8.438
 2072POPC   C3A29789  22.399  19.579   7.964
 2072POPC   C4A29790  22.331  19.967   7.671
 2072POPC   C1B29791  22.007  19.901   8.661
 2072POPC   C2B29792  22.091  19.891   8.219
 2072POPC   C3B29793  21.922  19.723   7.827
 2072POPC   C4B29794  21.715  19.853   7.476
 2073POPC   NC329795  30.113  27.054   9.826
 2073POPC   PO429796  29.672  26.774   9.355
 2073POPC   GL129797  29.819  26.582   9.067
 2073POPC   GL229798  30.129  26.478   9.125
 2073POPC   C1A29799  29.951  26.832   8.713
 2073POPC   D2A29800  30.326  26.943   8.448
 2073POPC   C3A29801  30.194  26.954   8.019
 2073POPC   C4A29802  29.763  26.930   7.855
 2073POPC   C1B29803  30.297  26.461   8.679
 2073POPC   C2B29804  30.001  26.554   8.311
 2073POPC   C3B29805  29.983  26.490   7.917
 2073POPC   C4B29806  30.076  26.346   7.557
 2074POPC   NC329807   0.086  14.382   9.473
 2074POPC   PO429808   0.682  14.101   9.542
 2074POPC   GL129809   0.544  14.401   9.211
 2074POPC   GL229810   0.796  14.607   9.036
 2074POPC   C1A29811   0.326  14.580   8.830
 2074POPC   D2A29812   0.520  14.628   8.425
 2074POPC   C3A29813   0.298  14.782   8.099
 2074POPC   C4A29814   0.118  14.603   7.737
 2074POPC   C1B29815   0.777  14.242   8.703
 2074POPC   C2B29816   0.823  14.006   8.260
 2074POPC   C3B29817   0.837  14.145   7.791
 2074POPC   C4B29818   0.496  14.317   7.514
 2075POPC   NC329819  20.734  28.901   9.360
 2075POPC   PO429820  20.753  29.464   9.576
 2075POPC   GL129821  20.587  29.369   9.143
 2075POPC   GL229822  20.523  29.044   8.946
 2075POPC   C1A29823  20.651  29.539   8.725
 2075POPC   D2A29824  20.867  29.478   8.326
 2075POPC   C3A29825  20.587  29.402   7.974
 2075POPC   C4A29826  20.607  29.238   7.555
 2075POPC   C1B29827  20.872  29.060   8.666
 2075POPC   C2B29828  20.893  28.834   8.257
 2075POPC   C3B29829  20.872  28.857   7.788
 2075POPC   C4B29830  20.806  28.822   7.328
 2076POPC   NC329831  23.403   0.958   9.611
 2076POPC   PO429832  23.962   1.237   9.341
 2076POPC   GL129833  23.681   1.424   9.083
 2076POPC   GL229834  23.383   1.235   9.119
 2076POPC   C1A29835  23.641   1.313   8.663
 2076POPC   D2A29836  23.680   1.460   8.270
 2076POPC   C3A29837  23.721   1.149   8.008
 2076POPC   C4A29838  23.625   1.310   7.633
 2076POPC   C1B29839  23.308   0.898   8.763
 2076POPC   C2B29840  23.331   0.854   8.288
 2076POPC   C3B29841  23.305   0.909   7.817
 2076POPC   C4B29842  23.168   0.785   7.390
 2077POPC   NC329843  42.302  12.577   9.594
 2077POPC   PO429844  42.497  11.989   9.581
 2077POPC   GL129845  42.360  12.260   9.183
 2077POPC   GL229846  42.035  12.436   9.172
 2077POPC   C1A29847  42.192  12.172   8.744
 2077POPC   D2A29848  42.380  12.235   8.339
 2077POPC   C3A29849  42.326  12.118   7.915
 2077POPC   C4A29850  42.493  12.306   7.548
 2077POPC   C1B29851  41.866  12.567   8.772
 2077POPC   C2B29852  41.823  12.366   8.349
 2077POPC   C3B29853  41.970  12.487   7.917
 2077POPC   C4B29854  41.918  12.522   7.453
 2078POPC   NC329855  11.005  41.393   9.567
 2078POPC   PO429856  11.625  41.610   9.455
 2078POPC   GL129857  11.303  41.556   9.164
 2078POPC   GL229858  11.071  41.814   9.248
 2078POPC   C1A29859  11.046  41.400   8.811
 2078POPC   D2A29860  11.149  41.517   8.381
 2078POPC   C3A29861  11.117  41.250   8.002
 2078POPC   C4A29862  11.255  41.243   7.562
 2078POPC   C1B29863  11.116  41.895   8.832
 2078POPC   C2B29864  11.411  41.923   8.546
 2078POPC   C3B29865  11.394  41.924   8.122
 2078POPC   C4B29866  11.345  41.720   7.745
 2079POPC   NC329867  23.672   7.172  10.100
 2079POPC   PO429868  23.800   7.201   9.466
 2079POPC   GL129869  23.606   7.354   9.064
 2079POPC   GL229870  23.323   7.603   9.081
 2079POPC   C1A29871  23.462   7.253   8.663
 2079POPC   D2A29872  23.265   7.367   8.294
 2079POPC   C3A29873  23.393   7.431   7.871
 2079POPC   C4A29874  23.384   7.159   7.561
 2079POPC   C1B29875  23.398   7.774   8.643
 2079POPC   C2B29876  23.529   7.818   8.173
 2079POPC   C3B29877  23.784   7.723   7.752
 2079POPC   C4B29878  23.930   7.855   7.316
 2080POPC   NC329879  32.328  27.872   9.622
 2080POPC   PO429880  31.960  27.398   9.481
 2080POPC   GL129881  32.254  27.587   9.188
 2080POPC   GL229882  32.550  27.845   9.121
 2080POPC   C1A29883  32.136  27.754   8.816
 2080POPC   D2A29884  32.060  27.553   8.468
 2080POPC   C3A29885  32.023  27.776   8.119
 2080POPC   C4A29886  32.083  27.579   7.712
 2080POPC   C1B29887  32.591  27.510   8.793
 2080POPC   C2B29888  32.601  27.545   8.336
 2080POPC   C3B29889  32.501  27.766   7.971
 2080POPC   C4B29890  32.518  27.893   7.549
 2081POPC   NC329891  33.782   0.482   9.724
 2081POPC   PO429892  33.536  44.845   9.592
 2081POPC   GL129893  33.801   0.074   9.276
 2081POPC   GL229894  33.604   0.341   9.174
 2081POPC   C1A29895  33.983   0.204   8.836
 2081POPC   D2A29896  33.904   0.351   8.376
 2081POPC   C3A29897  34.054   0.439   7.935
 2081POPC   C4A29898  33.845   0.517   7.507
 2081POPC   C1B29899  33.510   0.374   8.717
 2081POPC   C2B29900  33.425   0.159   8.304
 2081POPC   C3B29901  33.556   0.249   7.869
 2081POPC   C4B29902  33.357   0.326   7.469
 2082POPC   NC329903  24.443  18.109   9.661
 2082POPC   PO429904  24.099  18.506   9.303
 2082POPC   GL129905  24.462  18.385   9.045
 2082POPC   GL229906  24.615  18.087   9.171
 2082POPC   C1A29907  24.411  18.341   8.595
 2082POPC   D2A29908  24.659  18.244   8.226
 2082POPC   C3A29909  24.585  18.595   7.939
 2082POPC   C4A29910  24.743  18.574   7.491
 2082POPC   C1B29911  24.617  17.903   8.784
 2082POPC   C2B29912  24.367  17.868   8.397
 2082POPC   C3B29913  24.499  17.806   7.984
 2082POPC   C4B29914  24.532  18.147   7.700
 2083POPC   NC329915  39.674  10.670   9.340
 2083POPC   PO429916  39.041  10.660   9.543
 2083POPC   GL129917  39.196  10.605   9.157
 2083POPC   GL229918  39.284  10.238   9.087
 2083POPC   C1A29919  39.269  10.616   8.741
 2083POPC   D2A29920  39.118  10.331   8.464
 2083POPC   C3A29921  39.179  10.494   8.077
 2083POPC   C4A29922  39.193  10.713   7.688
 2083POPC   C1B29923  39.450  10.038   8.708
 2083POPC   C2B29924  39.527  10.125   8.232
 2083POPC   C3B29925  39.510  10.236   7.777
 2083POPC   C4B29926  39.622  10.170   7.333
 2084POPC   NC329927  12.771  14.610   9.433
 2084POPC   PO429928  13.184  14.007   9.537
 2084POPC   GL129929  13.054  14.255   9.156
 2084POPC   GL229930  13.107  14.604   9.027
 2084POPC   C1A29931  13.094  14.215   8.697
 2084POPC   D2A29932  12.893  14.357   8.315
 2084POPC   C3A29933  13.036  14.230   7.929
 2084POPC   C4A29934  13.034  13.943   7.610
 2084POPC   C1B29935  12.729  14.577   8.759
 2084POPC   C2B29936  12.477  14.661   8.383
 2084POPC   C3B29937  12.548  14.544   7.964
 2084POPC   C4B29938  12.901  14.697   7.773
 2085POPC   NC329939  14.046  16.480   9.622
 2085POPC   PO429940  14.309  17.075   9.478
 2085POPC   GL129941  14.374  16.733   9.220
 2085POPC   GL229942  14.697  16.575   9.270
 2085POPC   C1A29943  14.271  16.602   8.812
 2085POPC   D2A29944  14.194  16.791   8.386
 2085POPC   C3A29945  14.165  16.555   8.034
 2085POPC   C4A29946  14.239  16.624   7.631
 2085POPC   C1B29947  14.787  16.475   8.844
 2085POPC   C2B29948  14.624  16.526   8.430
 2085POPC   C3B29949  14.641  16.761   8.056
 2085POPC   C4B29950  14.735  16.527   7.698
 2086POPC   NC329951  25.929  39.508   9.245
 2086POPC   PO429952  26.252  38.978   9.659
 2086POPC   GL129953  26.209  39.083   9.218
 2086POPC   GL229954  25.873  38.967   9.250
 2086POPC   C1A29955  26.237  39.216   8.758
 2086POPC   D2A29956  26.447  39.360   8.376
 2086POPC   C3A29957  26.235  39.592   8.025
 2086POPC   C4A29958  25.962  39.380   7.721
 2086POPC   C1B29959  25.912  38.817   8.842
 2086POPC   C2B29960  25.906  38.788   8.406
 2086POPC   C3B29961  26.198  38.748   8.058
 2086POPC   C4B29962  26.189  38.943   7.670
 2087POPC   NC329963  11.463   3.637  10.129
 2087POPC   PO429964  11.414   3.605   9.627
 2087POPC   GL129965  11.283   3.558   9.143
 2087POPC   GL229966  10.918   3.479   9.163
 2087POPC   C1A29967  11.360   3.573   8.641
 2087POPC   D2A29968  11.407   3.470   8.162
 2087POPC   C3A29969  11.376   3.803   7.831
 2087POPC   C4A29970  11.345   3.942   7.374
 2087POPC   C1B29971  10.946   3.281   8.759
 2087POPC   C2B29972  10.928   3.377   8.313
 2087POPC   C3B29973  10.969   3.476   7.857
 2087POPC   C4B29974  10.791   3.512   7.427
 2088POPC   NC329975  32.431  12.529   9.408
 2088POPC   PO429976  31.961  12.046   9.232
 2088POPC   GL129977  32.321  12.177   9.043
 2088POPC   GL229978  32.163  12.495   8.973
 2088POPC   C1A29979  32.423  12.058   8.627
 2088POPC   D2A29980  32.334  11.700   8.339
 2088POPC   C3A29981  32.433  11.810   7.913
 2088POPC   C4A29982  32.171  12.110   7.669
 2088POPC   C1B29983  32.571  12.547   8.766
 2088POPC   C2B29984  32.692  12.469   8.361
 2088POPC   C3B29985  32.475  12.323   8.022
 2088POPC   C4B29986  32.649  12.188   7.612
 2089POPC   NC329987  44.029  19.305   9.884
 2089POPC   PO429988  43.545  19.128   9.458
 2089POPC   GL129989  43.653  18.998   9.042
 2089POPC   GL229990  43.996  19.003   9.127
 2089POPC   C1A29991  43.896  19.129   8.633
 2089POPC   D2A29992  44.116  19.288   8.241
 2089POPC   C3A29993  43.817  19.310   7.875
 2089POPC   C4A29994  43.507  19.066   7.604
 2089POPC   C1B29995  44.005  18.670   8.814
 2089POPC   C2B29996  44.150  18.697   8.407
 2089POPC   C3B29997  43.951  18.830   8.028
 2089POPC   C4B29998  43.985  18.926   7.568
 2090POPC   NC329999  24.721  17.449   9.584
 2090POPC   PO430000  24.154  17.782   9.501
 2090POPC   GL130001  24.394  17.626   9.164
 2090POPC   GL230002  24.568  17.331   9.111
 2090POPC   C1A30003  24.286  17.515   8.741
 2090POPC   D2A30004  24.520  17.394   8.340
 2090POPC   C3A30005  24.321  17.314   7.977
 2090POPC   C4A30006  24.220  17.443   7.577
 2090POPC   C1B30007  24.810  17.424   8.746
 2090POPC   C2B30008  24.896  17.749   8.379
 2090POPC   C3B30009  24.986  17.635   7.948
 2090POPC   C4B30010  24.806  17.230   7.772
 2091POPC   NC330011  27.813  17.237   9.417
 2091POPC   PO430012  27.446  16.616   9.568
 2091POPC   GL130013  27.526  16.493   9.165
 2091POPC   GL230014  27.766  16.773   9.103
 2091POPC   C1A30015  27.369  16.601   8.791
 2091POPC   D2A30016  27.632  16.767   8.487
 2091POPC   C3A30017  27.550  16.596   8.122
 2091POPC   C4A30018  27.505  16.781   7.747
 2091POPC   C1B30019  28.048  16.908   8.759
 2091POPC   C2B30020  28.129  16.854   8.364
 2091POPC   C3B30021  27.918  16.994   8.039
 2091POPC   C4B30022  27.985  16.932   7.617
 2092POPC   NC330023   2.321  16.775   9.559
 2092POPC   PO430024   1.656  16.852   9.329
 2092POPC   GL130025   1.976  16.698   9.106
 2092POPC   GL230026   2.153  17.022   9.154
 2092POPC   C1A30027   1.944  16.436   8.724
 2092POPC   D2A30028   2.153  16.467   8.307
 2092POPC   C3A30029   2.013  16.764   8.020
 2092POPC   C4A30030   1.784  16.711   7.688
 2092POPC   C1B30031   2.371  17.159   8.806
 2092POPC   C2B30032   2.249  17.028   8.407
 2092POPC   C3B30033   2.439  17.026   8.006
 2092POPC   C4B30034   2.195  17.107   7.620
 2093POPC   NC330035  18.512  26.328   9.425
 2093POPC   PO430036  18.135  26.906   9.514
 2093POPC   GL130037  18.162  26.759   9.117
 2093POPC   GL230038  18.531  26.749   9.040
 2093POPC   C1A30039  18.164  26.967   8.720
 2093POPC   D2A30040  18.366  26.957   8.326
 2093POPC   C3A30041  18.162  26.850   7.961
 2093POPC   C4A30042  17.932  27.055   7.632
 2093POPC   C1B30043  18.537  26.543   8.617
 2093POPC   C2B30044  18.554  26.500   8.139
 2093POPC   C3B30045  18.471  26.522   7.704
 2093POPC   C4B30046  18.698  26.662   7.325
 2094POPC   NC330047  17.012  28.661   9.427
 2094POPC   PO430048  17.156  28.062   9.162
 2094POPC   GL130049  16.749  28.266   9.026
 2094POPC   GL230050  16.693  28.665   8.980
 2094POPC   C1A30051  16.522  28.293   8.667
 2094POPC   D2A30052  16.688  28.570   8.379
 2094POPC   C3A30053  16.898  28.436   8.022
 2094POPC   C4A30054  16.787  28.318   7.620
 2094POPC   C1B30055  16.309  28.758   8.719
 2094POPC   C2B30056  16.178  28.757   8.278
 2094POPC   C3B30057  16.410  28.627   7.901
 2094POPC   C4B30058  16.421  28.642   7.438
 2095POPC   NC330059   5.054   9.940   9.624
 2095POPC   PO430060   5.326   9.360   9.669
 2095POPC   GL130061   5.313   9.590   9.325
 2095POPC   GL230062   4.964   9.610   9.240
 2095POPC   C1A30063   5.327   9.606   8.895
 2095POPC   D2A30064   5.252   9.937   8.616
 2095POPC   C3A30065   5.286   9.845   8.184
 2095POPC   C4A30066   5.347   9.840   7.744
 2095POPC   C1B30067   4.807   9.814   8.849
 2095POPC   C2B30068   4.775   9.924   8.381
 2095POPC   C3B30069   4.873   9.987   7.926
 2095POPC   C4B30070   4.937   9.971   7.468
 2096POPC   NC330071  40.641  11.855   9.864
 2096POPC   PO430072  40.310  12.241   9.535
 2096POPC   GL130073  40.634  12.274   9.168
 2096POPC   GL230074  40.685  11.931   9.139
 2096POPC   C1A30075  40.842  12.231   8.743
 2096POPC   D2A30076  40.692  12.372   8.343
 2096POPC   C3A30077  40.905  12.274   7.942
 2096POPC   C4A30078  41.108  12.121   7.529
 2096POPC   C1B30079  40.526  11.842   8.714
 2096POPC   C2B30080  40.745  11.864   8.292
 2096POPC   C3B30081  40.816  11.773   7.822
 2096POPC   C4B30082  40.700  11.851   7.383
 2097POPC   NC330083  16.213  32.439   9.551
 2097POPC   PO430084  15.707  32.008   9.463
 2097POPC   GL130085  15.811  32.344   9.192
 2097POPC   GL230086  16.143  32.347   9.053
 2097POPC   C1A30087  15.713  32.450   8.769
 2097POPC   D2A30088  15.710  32.265   8.345
 2097POPC   C3A30089  15.760  32.492   7.967
 2097POPC   C4A30090  15.808  32.524   7.508
 2097POPC   C1B30091  16.090  32.119   8.667
 2097POPC   C2B30092  16.251  32.226   8.237
 2097POPC   C3B30093  16.213  32.332   7.805
 2097POPC   C4B30094  16.153  32.145   7.416
 2098POPC   NC330095  34.476  13.980   9.361
 2098POPC   PO430096  34.982  14.274   9.718
 2098POPC   GL130097  34.668  14.409   9.209
 2098POPC   GL230098  34.600  14.194   8.913
 2098POPC   C1A30099  34.690  14.679   8.822
 2098POPC   D2A30100  34.584  14.426   8.425
 2098POPC   C3A30101  34.610  14.593   8.016
 2098POPC   C4A30102  34.588  14.739   7.581
 2098POPC   C1B30103  34.231  14.497   8.802
 2098POPC   C2B30104  34.082  14.553   8.383
 2098POPC   C3B30105  34.173  14.300   8.052
 2098POPC   C4B30106  34.336  14.294   7.655
 2099POPC   NC330107  12.238  10.953   9.710
 2099POPC   PO430108  12.547  11.628   9.611
 2099POPC   GL130109  12.330  11.558   9.206
 2099POPC   GL230110  12.226  11.166   9.122
 2099POPC   C1A30111  12.422  11.513   8.779
 2099POPC   D2A30112  12.159  11.277   8.522
 2099POPC   C3A30113  12.175  11.183   8.087
 2099POPC   C4A30114  12.266  11.243   7.664
 2099POPC   C1B30115  12.039  10.869   8.768
 2099POPC   C2B30116  11.881  10.812   8.348
 2099POPC   C3B30117  11.794  10.899   7.926
 2099POPC   C4B30118  11.884  10.960   7.461
 2100POPC   NC330119  19.320  18.732   9.543
 2100POPC   PO430120  18.856  19.123   9.397
 2100POPC   GL130121  19.089  18.951   9.120
 2100POPC   GL230122  19.366  19.054   9.151
 2100POPC   C1A30123  19.050  18.994   8.698
 2100POPC   D2A30124  18.956  19.183   8.335
 2100POPC   C3A30125  18.962  18.905   8.019
 2100POPC   C4A30126  18.945  18.945   7.602
 2100POPC   C1B30127  19.568  19.106   8.787
 2100POPC   C2B30128  19.460  19.169   8.377
 2100POPC   C3B30129  19.323  19.236   7.970
 2100POPC   C4B30130  19.455  19.139   7.594
 2101POPC   NC330131  11.150  38.855   9.573
 2101POPC   PO430132  11.658  38.397   9.687
 2101POPC   GL130133  11.480  38.516   9.261
 2101POPC   GL230134  11.120  38.521   9.182
 2101POPC   C1A30135  11.468  38.454   8.790
 2101POPC   D2A30136  11.184  38.485   8.424
 2101POPC   C3A30137  11.321  38.427   7.998
 2101POPC   C4A30138  11.348  38.386   7.571
 2101POPC   C1B30139  11.100  38.816   8.840
 2101POPC   C2B30140  11.358  38.960   8.493
 2101POPC   C3B30141  11.305  38.941   8.087
 2101POPC   C4B30142  11.256  38.877   7.672
 2102POPC   NC330143  35.686  12.993   9.503
 2102POPC   PO430144  35.306  12.427   9.508
 2102POPC   GL130145  35.394  12.617   9.140
 2102POPC   GL230146  35.312  12.953   9.141
 2102POPC   C1A30147  35.246  12.611   8.744
 2102POPC   D2A30148  35.304  12.768   8.357
 2102POPC   C3A30149  35.063  12.674   8.005
 2102POPC   C4A30150  35.004  12.966   7.735
 2102POPC   C1B30151  35.247  13.140   8.732
 2102POPC   C2B30152  35.267  13.301   8.294
 2102POPC   C3B30153  35.449  13.039   7.961
 2102POPC   C4B30154  35.809  12.936   7.753
 2103POPC   NC330155  39.600  25.226   9.435
 2103POPC   PO430156  38.904  25.298   9.414
 2103POPC   GL130157  38.945  24.982   9.141
 2103POPC   GL230158  39.291  25.082   9.069
 2103POPC   C1A30159  38.944  25.082   8.721
 2103POPC   D2A30160  39.011  24.923   8.358
 2103POPC   C3A30161  38.974  25.231   8.102
 2103POPC   C4A30162  38.959  25.135   7.714
 2103POPC   C1B30163  39.453  25.266   8.701
 2103POPC   C2B30164  39.646  25.276   8.290
 2103POPC   C3B30165  39.432  25.324   7.891
 2103POPC   C4B30166  39.099  25.648   7.797
 2104POPC   NC330167  33.388  25.953   9.620
 2104POPC   PO430168  33.995  26.280   9.618
 2104POPC   GL130169  33.917  26.127   9.172
 2104POPC   GL230170  33.760  25.796   9.171
 2104POPC   C1A30171  33.926  26.056   8.691
 2104POPC   D2A30172  33.746  25.868   8.277
 2104POPC   C3A30173  33.866  26.082   7.879
 2104POPC   C4A30174  34.147  26.451   7.852
 2104POPC   C1B30175  33.623  25.660   8.752
 2104POPC   C2B30176  33.291  25.659   8.395
 2104POPC   C3B30177  33.425  25.587   7.951
 2104POPC   C4B30178  33.701  25.689   7.577
 2105POPC   NC330179  41.741  22.994   9.627
 2105POPC   PO430180  41.806  23.539   9.405
 2105POPC   GL130181  41.504  23.276   9.200
 2105POPC   GL230182  41.569  22.954   9.151
 2105POPC   C1A30183  41.444  23.307   8.747
 2105POPC   D2A30184  41.663  23.113   8.407
 2105POPC   C3A30185  41.496  23.020   8.032
 2105POPC   C4A30186  41.412  23.177   7.633
 2105POPC   C1B30187  41.656  22.749   8.799
 2105POPC   C2B30188  41.851  22.555   8.447
 2105POPC   C3B30189  41.847  22.565   7.992
 2105POPC   C4B30190  41.554  22.681   7.659
 2106POPC   NC330191  34.657  23.953   9.639
 2106POPC   PO430192  34.098  23.683   9.554
 2106POPC   GL130193  34.319  23.707   9.175
 2106POPC   GL230194  34.703  23.619   9.171
 2106POPC   C1A30195  34.355  23.918   8.777
 2106POPC   D2A30196  34.600  23.685   8.470
 2106POPC   C3A30197  34.582  23.889   8.068
 2106POPC   C4A30198  34.541  23.744   7.660
 2106POPC   C1B30199  34.998  23.566   8.802
 2106POPC   C2B30200  35.028  23.397   8.383
 2106POPC   C3B30201  34.781  23.377   7.989
 2106POPC   C4B30202  34.860  23.389   7.500
 2107POPC   NC330203  31.857  15.934   9.649
 2107POPC   PO430204  31.251  15.745   9.488
 2107POPC   GL130205  31.411  16.093   9.253
 2107POPC   GL230206  31.661  15.891   9.162
 2107POPC   C1A30207  31.304  16.276   8.824
 2107POPC   D2A30208  31.565  16.194   8.476
 2107POPC   C3A30209  31.419  16.186   8.077
 2107POPC   C4A30210  31.396  15.989   7.674
 2107POPC   C1B30211  31.427  15.793   8.791
 2107POPC   C2B30212  31.574  15.705   8.369
 2107POPC   C3B30213  31.310  15.653   8.029
 2107POPC   C4B30214  31.209  15.494   7.658
 2108POPC   NC330215  31.010  24.961   9.569
 2108POPC   PO430216  30.634  25.484   9.478
 2108POPC   GL130217  30.918  25.353   9.209
 2108POPC   GL230218  31.177  25.579   9.182
 2108POPC   C1A30219  30.788  25.341   8.771
 2108POPC   D2A30220  30.567  25.526   8.415
 2108POPC   C3A30221  30.656  25.204   8.105
 2108POPC   C4A30222  30.649  25.195   7.660
 2108POPC   C1B30223  31.195  25.644   8.775
 2108POPC   C2B30224  31.016  25.764   8.403
 2108POPC   C3B30225  30.983  25.578   7.975
 2108POPC   C4B30226  30.732  25.688   7.618
 2109POPC   NC330227  16.847  25.305   9.570
 2109POPC   PO430228  16.520  25.836   9.540
 2109POPC   GL130229  16.710  25.645   9.122
 2109POPC   GL230230  16.963  25.412   9.111
 2109POPC   C1A30231  16.847  25.541   8.645
 2109POPC   D2A30232  16.714  25.146   8.431
 2109POPC   C3A30233  16.600  25.094   7.994
 2109POPC   C4A30234  16.389  25.397   7.695
 2109POPC   C1B30235  17.102  25.126   8.858
 2109POPC   C2B30236  17.221  25.134   8.460
 2109POPC   C3B30237  17.076  25.296   8.064
 2109POPC   C4B30238  16.927  25.208   7.616
 2110POPC   NC330239  40.945  26.521   9.395
 2110POPC   PO430240  40.619  27.099   9.450
 2110POPC   GL130241  40.593  26.828   9.092
 2110POPC   GL230242  40.476  26.484   9.142
 2110POPC   C1A30243  40.657  26.909   8.662
 2110POPC   D2A30244  40.971  26.779   8.363
 2110POPC   C3A30245  40.837  26.948   8.009
 2110POPC   C4A30246  40.931  27.118   7.651
 2110POPC   C1B30247  40.608  26.394   8.706
 2110POPC   C2B30248  40.557  26.522   8.272
 2110POPC   C3B30249  40.693  26.491   7.866
 2110POPC   C4B30250  40.476  26.249   7.633
 2111POPC   NC330251   4.680  38.104   9.568
 2111POPC   PO430252   4.733  38.702   9.911
 2111POPC   GL130253   4.526  38.543   9.382
 2111POPC   GL230254   4.261  38.754   9.200
 2111POPC   C1A30255   4.483  38.331   8.941
 2111POPC   D2A30256   4.610  38.412   8.470
 2111POPC   C3A30257   4.471  38.201   8.076
 2111POPC   C4A30258   4.692  38.078   7.689
 2111POPC   C1B30259   4.169  39.020   8.818
 2111POPC   C2B30260   4.260  38.806   8.408
 2111POPC   C3B30261   4.209  38.674   7.981
 2111POPC   C4B30262   4.093  38.336   7.702
 2112POPC   NC330263  37.885   1.087   9.526
 2112POPC   PO430264  37.590   1.669   9.536
 2112POPC   GL130265  37.536   1.324   9.235
 2112POPC   GL230266  37.849   1.252   9.060
 2112POPC   C1A30267  37.392   1.054   8.929
 2112POPC   D2A30268  37.653   1.098   8.600
 2112POPC   C3A30269  37.515   1.114   8.212
 2112POPC   C4A30270  37.241   1.061   7.848
 2112POPC   C1B30271  38.088   1.404   8.744
 2112POPC   C2B30272  38.122   1.303   8.318
 2112POPC   C3B30273  37.963   1.525   7.968
 2112POPC   C4B30274  37.617   1.380   7.814
 2113POPC   NC330275  30.027  33.116   9.683
 2113POPC   PO430276  29.566  32.758   9.358
 2113POPC   GL130277  29.784  33.005   9.106
 2113POPC   GL230278  30.116  33.051   9.174
 2113POPC   C1A30279  29.928  33.047   8.699
 2113POPC   D2A30280  30.082  33.319   8.418
 2113POPC   C3A30281  30.046  33.111   8.062
 2113POPC   C4A30282  29.782  32.856   7.802
 2113POPC   C1B30283  30.130  32.636   8.952
 2113POPC   C2B30284  30.142  32.578   8.493
 2113POPC   C3B30285  30.313  32.679   8.078
 2113POPC   C4B30286  30.254  32.733   7.645
 2114POPC   NC330287  44.916  42.169   9.573
 2114POPC   PO430288  44.897  42.754   9.585
 2114POPC   GL130289  44.788  42.532   9.116
 2114POPC   GL230290  44.658  42.173   9.148
 2114POPC   C1A30291  44.620  42.352   8.682
 2114POPC   D2A30292  44.874  42.371   8.314
 2114POPC   C3A30293  44.722  42.412   7.896
 2114POPC   C4A30294  44.564  42.795   7.725
 2114POPC   C1B30295  44.388  41.918   8.907
 2114POPC   C2B30296  44.310  41.850   8.474
 2114POPC   C3B30297  44.406  42.079   8.135
 2114POPC   C4B30298  44.475  41.978   7.710
 2115POPC   NC330299  10.889  24.156   9.503
 2115POPC   PO430300  10.683  23.531   9.670
 2115POPC   GL130301  10.718  23.712   9.235
 2115POPC   GL230302  10.382  23.589   9.164
 2115POPC   C1A30303  10.607  23.819   8.771
 2115POPC   D2A30304  10.705  23.654   8.337
 2115POPC   C3A30305  10.544  23.874   7.985
 2115POPC   C4A30306  10.677  23.999   7.586
 2115POPC   C1B30307  10.137  23.617   8.753
 2115POPC   C2B30308  10.166  23.751   8.314
 2115POPC   C3B30309  10.102  23.646   7.870
 2115POPC   C4B30310  10.184  23.899   7.510
 2116POPC   NC330311   7.588   1.154   9.699
 2116POPC   PO430312   7.081   0.812   9.639
 2116POPC   GL130313   7.258   1.034   9.238
 2116POPC   GL230314   7.530   1.269   9.203
 2116POPC   C1A30315   7.227   0.977   8.743
 2116POPC   D2A30316   7.108   0.835   8.318
 2116POPC   C3A30317   7.217   1.100   7.966
 2116POPC   C4A30318   7.480   1.076   7.590
 2116POPC   C1B30319   7.646   1.280   8.783
 2116POPC   C2B30320   7.492   1.301   8.363
 2116POPC   C3B30321   7.662   1.383   7.945
 2116POPC   C4B30322   7.633   1.551   7.491
 2117POPC   NC330323  20.090   4.790   9.314
 2117POPC   PO430324  19.550   5.019   9.452
 2117POPC   GL130325  19.613   4.738   9.098
 2117POPC   GL230326  19.606   5.042   8.924
 2117POPC   C1A30327  19.754   4.650   8.652
 2117POPC   D2A30328  19.743   4.844   8.214
 2117POPC   C3A30329  19.971   4.787   7.847
 2117POPC   C4A30330  19.900   4.876   7.384
 2117POPC   C1B30331  19.859   5.224   8.592
 2117POPC   C2B30332  19.878   5.313   8.142
 2117POPC   C3B30333  19.621   5.161   7.798
 2117POPC   C4B30334  19.551   5.274   7.383
 2118POPC   NC330335   8.539  37.896   9.261
 2118POPC   PO430336   8.718  37.486   9.756
 2118POPC   GL130337   8.962  37.626   9.288
 2118POPC   GL230338   9.046  37.991   9.248
 2118POPC   C1A30339   8.984  37.589   8.802
 2118POPC   D2A30340   8.799  37.777   8.395
 2118POPC   C3A30341   8.755  37.583   7.974
 2118POPC   C4A30342   8.683  37.433   7.544
 2118POPC   C1B30343   9.274  38.006   8.878
 2118POPC   C2B30344   9.296  37.899   8.441
 2118POPC   C3B30345   9.188  37.910   7.991
 2118POPC   C4B30346   9.292  38.135   7.597
 2119POPC   NC330347  38.272  34.765   9.643
 2119POPC   PO430348  38.700  34.266   9.751
 2119POPC   GL130349  38.694  34.611   9.334
 2119POPC   GL230350  38.375  34.714   9.160
 2119POPC   C1A30351  38.701  34.578   8.813
 2119POPC   D2A30352  38.800  34.422   8.368
 2119POPC   C3A30353  38.655  34.495   7.947
 2119POPC   C4A30354  38.700  34.206   7.536
 2119POPC   C1B30355  38.304  34.913   8.769
 2119POPC   C2B30356  38.361  34.785   8.341
 2119POPC   C3B30357  38.145  34.630   7.982
 2119POPC   C4B30358  37.853  34.820   7.651
 2120POPC   NC330359  22.638  14.110   9.428
 2120POPC   PO430360  22.987  14.677   9.467
 2120POPC   GL130361  22.942  14.402   9.114
 2120POPC   GL230362  23.009  14.030   9.076
 2120POPC   C1A30363  23.033  14.517   8.715
 2120POPC   D2A30364  22.844  14.478   8.325
 2120POPC   C3A30365  23.087  14.549   7.952
 2120POPC   C4A30366  23.083  14.514   7.512
 2120POPC   C1B30367  22.915  14.038   8.616
 2120POPC   C2B30368  23.059  14.041   8.176
 2120POPC   C3B30369  22.956  14.081   7.734
 2120POPC   C4B30370  22.994  14.099   7.247
 2121POPC   NC330371  20.903  22.005   9.625
 2121POPC   PO430372  20.251  22.348   9.725
 2121POPC   GL130373  20.410  22.274   9.299
 2121POPC   GL230374  20.754  22.377   9.281
 2121POPC   C1A30375  20.437  22.285   8.841
 2121POPC   D2A30376  20.261  22.081   8.468
 2121POPC   C3A30377  20.420  22.203   8.079
 2121POPC   C4A30378  20.456  22.024   7.723
 2121POPC   C1B30379  20.866  22.618   8.899
 2121POPC   C2B30380  20.751  22.749   8.480
 2121POPC   C3B30381  20.831  22.622   8.064
 2121POPC   C4B30382  20.759  22.416   7.665
 2122POPC   NC330383  33.289  30.975   9.456
 2122POPC   PO430384  32.819  30.500   9.273
 2122POPC   GL130385  33.107  30.708   9.048
 2122POPC   GL230386  33.440  30.539   9.126
 2122POPC   C1A30387  32.963  30.856   8.645
 2122POPC   D2A30388  32.939  31.126   8.258
 2122POPC   C3A30389  33.015  30.885   7.899
 2122POPC   C4A30390  32.705  30.559   7.784
 2122POPC   C1B30391  33.399  30.521   8.666
 2122POPC   C2B30392  33.145  30.508   8.269
 2122POPC   C3B30393  33.248  30.412   7.837
 2122POPC   C4B30394  33.073  30.301   7.448
 2123POPC   NC330395  38.049  36.401   9.500
 2123POPC   PO430396  38.144  36.984   9.532
 2123POPC   GL130397  38.377  36.749   9.219
 2123POPC   GL230398  38.745  36.773   9.302
 2123POPC   C1A30399  38.232  36.635   8.775
 2123POPC   D2A30400  38.031  36.938   8.451
 2123POPC   C3A30401  38.328  37.161   8.169
 2123POPC   C4A30402  38.543  37.101   7.768
 2123POPC   C1B30403  38.741  36.725   8.846
 2123POPC   C2B30404  38.598  36.729   8.391
 2123POPC   C3B30405  38.809  36.712   7.985
 2123POPC   C4B30406  38.736  36.625   7.540
 2124POPC   NC330407  33.081  11.779   9.531
 2124POPC   PO430408  33.417  11.293   9.665
 2124POPC   GL130409  33.258  11.370   9.254
 2124POPC   GL230410  33.052  11.081   9.257
 2124POPC   C1A30411  33.222  11.426   8.798
 2124POPC   D2A30412  33.139  11.652   8.427
 2124POPC   C3A30413  33.319  11.580   8.046
 2124POPC   C4A30414  33.169  11.571   7.595
 2124POPC   C1B30415  32.868  11.035   8.830
 2124POPC   C2B30416  33.044  10.980   8.408
 2124POPC   C3B30417  33.003  11.194   7.997
 2124POPC   C4B30418  33.040  11.061   7.607
 2125POPC   NC330419  15.313  43.572  10.088
 2125POPC   PO430420  15.443  44.133   9.764
 2125POPC   GL130421  15.395  44.110   9.248
 2125POPC   GL230422  15.282  43.763   9.103
 2125POPC   C1A30423  15.306  44.119   8.757
 2125POPC   D2A30424  15.228  43.902   8.354
 2125POPC   C3A30425  15.222  44.118   7.956
 2125POPC   C4A30426  15.306  43.915   7.624
 2125POPC   C1B30427  15.021  43.587   8.746
 2125POPC   C2B30428  14.849  43.506   8.328
 2125POPC   C3B30429  14.938  43.664   7.897
 2125POPC   C4B30430  14.861  43.546   7.452
 2126POPC   NC330431  11.018  15.350   9.566
 2126POPC   PO430432  11.461  14.870   9.545
 2126POPC   GL130433  11.390  15.112   9.177
 2126POPC   GL230434  11.023  15.031   9.129
 2126POPC   C1A30435  11.340  14.980   8.741
 2126POPC   D2A30436  10.976  14.967   8.467
 2126POPC   C3A30437  11.133  14.882   8.048
 2126POPC   C4A30438  11.376  15.096   7.757
 2126POPC   C1B30439  11.002  15.381   8.830
 2126POPC   C2B30440  10.871  15.475   8.399
 2126POPC   C3B30441  10.977  15.413   7.979
 2126POPC   C4B30442  11.208  15.580   7.686
 2127POPC   NC330443  44.212  33.894   9.664
 2127POPC   PO430444  43.592  33.784   9.486
 2127POPC   GL130445  43.867  33.826   9.174
 2127POPC   GL230446  43.987  34.170   9.295
 2127POPC   C1A30447  43.773  33.590   8.798
 2127POPC   D2A30448  43.782  33.412   8.382
 2127POPC   C3A30449  43.900  33.613   7.978
 2127POPC   C4A30450  44.168  33.759   7.639
 2127POPC   C1B30451  43.931  34.229   8.860
 2127POPC   C2B30452  43.992  33.984   8.485
 2127POPC   C3B30453  43.993  34.119   8.058
 2127POPC   C4B30454  44.003  34.353   7.660
 2128POPC   NC330455  14.832  28.115   9.427
 2128POPC   PO430456  15.416  28.197   9.513
 2128POPC   GL130457  15.262  28.347   9.158
 2128POPC   GL230458  15.395  28.680   9.151
 2128POPC   C1A30459  15.063  28.189   8.799
 2128POPC   D2A30460  15.234  28.018   8.450
 2128POPC   C3A30461  15.052  28.107   8.055
 2128POPC   C4A30462  15.340  28.342   7.824
 2128POPC   C1B30463  15.028  28.727   8.868
 2128POPC   C2B30464  14.868  28.562   8.476
 2128POPC   C3B30465  15.014  28.627   8.080
 2128POPC   C4B30466  15.000  28.692   7.658
 2129POPC   NC330467  37.522  39.647   9.685
 2129POPC   PO430468  37.811  40.204   9.404
 2129POPC   GL130469  37.713  40.172   8.989
 2129POPC   GL230470  37.396  40.029   8.915
 2129POPC   C1A30471  37.726  40.169   8.533
 2129POPC   D2A30472  37.679  39.953   8.130
 2129POPC   C3A30473  37.933  40.143   7.804
 2129POPC   C4A30474  37.880  40.205   7.369
 2129POPC   C1B30475  37.450  39.717   8.535
 2129POPC   C2B30476  37.321  39.421   8.215
 2129POPC   C3B30477  37.468  39.548   7.829
 2129POPC   C4B30478  37.479  39.972   7.658
 2130POPC   NC330479  40.033   0.711   9.634
 2130POPC   PO430480  40.272   0.230   9.262
 2130POPC   GL130481  40.207   0.633   9.089
 2130POPC   GL230482  39.879   0.662   9.145
 2130POPC   C1A30483  40.062   0.837   8.690
 2130POPC   D2A30484  39.794   0.856   8.316
 2130POPC   C3A30485  40.023   0.653   8.034
 2130POPC   C4A30486  40.130   0.432   7.684
 2130POPC   C1B30487  39.766   0.430   8.761
 2130POPC   C2B30488  39.900   0.269   8.363
 2130POPC   C3B30489  39.743   0.189   7.942
 2130POPC   C4B30490  39.634   0.156   7.529
 2131POPC   NC330491  20.820  37.538   9.689
 2131POPC   PO430492  21.510  37.643   9.433
 2131POPC   GL130493  21.524  37.908   9.087
 2131POPC   GL230494  21.802  37.737   8.958
 2131POPC   C1A30495  21.404  37.857   8.646
 2131POPC   D2A30496  21.524  37.531   8.313
 2131POPC   C3A30497  21.294  37.505   7.910
 2131POPC   C4A30498  21.188  37.762   7.551
 2131POPC   C1B30499  21.839  38.125   8.742
 2131POPC   C2B30500  21.622  38.214   8.362
 2131POPC   C3B30501  21.401  37.990   8.055
 2131POPC   C4B30502  21.643  37.930   7.737
 2132POPC   NC330503  23.337   7.164   9.439
 2132POPC   PO430504  22.948   7.725   9.476
 2132POPC   GL130505  22.865   7.389   9.139
 2132POPC   GL230506  23.103   7.123   9.011
 2132POPC   C1A30507  22.954   7.507   8.691
 2132POPC   D2A30508  23.012   7.803   8.311
 2132POPC   C3A30509  22.906   7.581   7.958
 2132POPC   C4A30510  23.000   7.538   7.506
 2132POPC   C1B30511  22.871   6.984   8.675
 2132POPC   C2B30512  22.784   7.186   8.299
 2132POPC   C3B30513  23.023   7.095   7.931
 2132POPC   C4B30514  22.899   7.043   7.517
 2133POPC   NC330515   9.515  14.951   9.383
 2133POPC   PO430516   9.844  15.483   9.687
 2133POPC   GL130517   9.758  15.393   9.246
 2133POPC   GL230518   9.978  15.125   9.120
 2133POPC   C1A30519   9.623  15.346   8.799
 2133POPC   D2A30520   9.385  15.205   8.435
 2133POPC   C3A30521   9.458  15.410   8.043
 2133POPC   C4A30522   9.376  15.272   7.637
 2133POPC   C1B30523   9.990  15.017   8.672
 2133POPC   C2B30524   9.830  14.936   8.277
 2133POPC   C3B30525   9.790  15.043   7.850
 2133POPC   C4B30526   9.614  14.845   7.477
 2134POPC   NC330527  26.561  12.369   9.607
 2134POPC   PO430528  26.945  12.759   9.423
 2134POPC   GL130529  26.786  13.089   9.153
 2134POPC   GL230530  27.095  13.240   9.076
 2134POPC   C1A30531  26.438  13.081   8.851
 2134POPC   D2A30532  26.340  12.919   8.428
 2134POPC   C3A30533  26.710  12.787   8.174
 2134POPC   C4A30534  26.812  12.742   7.711
 2134POPC   C1B30535  26.886  13.318   8.661
 2134POPC   C2B30536  26.750  13.321   8.219
 2134POPC   C3B30537  26.946  13.244   7.799
 2134POPC   C4B30538  27.065  13.063   7.377
 2135POPC   NC330539  11.596  40.678   9.562
 2135POPC   PO430540  10.927  40.915   9.621
 2135POPC   GL130541  11.103  40.790   9.254
 2135POPC   GL230542  10.963  40.497   9.096
 2135POPC   C1A30543  10.994  40.906   8.819
 2135POPC   D2A30544  11.260  41.013   8.484
 2135POPC   C3A30545  11.172  40.733   8.149
 2135POPC   C4A30546  11.354  40.799   7.769
 2135POPC   C1B30547  11.387  40.603   8.876
 2135POPC   C2B30548  11.571  40.575   8.447
 2135POPC   C3B30549  11.603  40.430   8.007
 2135POPC   C4B30550  11.808  40.589   7.634
 2136POPC   NC330551   3.584  37.005   9.769
 2136POPC   PO430552   3.980  37.333   9.354
 2136POPC   GL130553   3.639  37.096   9.183
 2136POPC   GL230554   3.307  37.183   9.291
 2136POPC   C1A30555   3.557  36.865   8.800
 2136POPC   D2A30556   3.405  36.653   8.437
 2136POPC   C3A30557   3.617  36.709   8.026
 2136POPC   C4A30558   3.908  36.978   7.814
 2136POPC   C1B30559   3.285  37.312   8.820
 2136POPC   C2B30560   3.356  37.152   8.342
 2136POPC   C3B30561   3.409  37.162   7.834
 2136POPC   C4B30562   3.198  37.048   7.408
 2137POPC   NC330563   9.989  17.718   9.931
 2137POPC   PO430564   9.810  17.249   9.557
 2137POPC   GL130565  10.036  17.230   9.178
 2137POPC   GL230566   9.749  17.464   9.051
 2137POPC   C1A30567  10.045  17.209   8.737
 2137POPC   D2A30568   9.651  17.376   8.504
 2137POPC   C3A30569   9.662  17.428   8.053
 2137POPC   C4A30570  10.077  17.346   7.858
 2137POPC   C1B30571   9.964  17.723   8.726
 2137POPC   C2B30572  10.072  17.656   8.321
 2137POPC   C3B30573   9.937  17.863   7.975
 2137POPC   C4B30574   9.606  17.892   7.754
 2138POPC   NC330575  16.012   1.355   9.522
 2138POPC   PO430576  16.244   0.783   9.788
 2138POPC   GL130577  16.161   0.902   9.335
 2138POPC   GL230578  16.376   1.106   9.207
 2138POPC   C1A30579  15.950   1.108   8.913
 2138POPC   D2A30580  15.973   1.419   8.564
 2138POPC   C3A30581  15.980   1.274   8.160
 2138POPC   C4A30582  15.918   1.242   7.742
 2138POPC   C1B30583  16.403   1.328   8.816
 2138POPC   C2B30584  16.469   1.343   8.346
 2138POPC   C3B30585  16.329   1.553   7.922
 2138POPC   C4B30586  16.299   1.460   7.501
 2139POPC   NC330587  43.041  29.868   9.504
 2139POPC   PO430588  43.712  29.762   9.478
 2139POPC   GL130589  43.396  29.803   9.122
 2139POPC   GL230590  43.041  29.625   9.074
 2139POPC   C1A30591  43.304  29.820   8.671
 2139POPC   D2A30592  43.086  29.953   8.341
 2139POPC   C3A30593  43.315  29.896   8.029
 2139POPC   C4A30594  43.118  29.869   7.658
 2139POPC   C1B30595  43.112  29.373   8.720
 2139POPC   C2B30596  43.242  29.423   8.301
 2139POPC   C3B30597  42.919  29.576   8.038
 2139POPC   C4B30598  42.722  29.460   7.676
 2140POPC   NC330599  19.876  40.441   9.599
 2140POPC   PO430600  20.500  40.186   9.594
 2140POPC   GL130601  20.420  40.385   9.185
 2140POPC   GL230602  20.488  40.750   9.157
 2140POPC   C1A30603  20.643  40.459   8.770
 2140POPC   D2A30604  20.750  40.783   8.460
 2140POPC   C3A30605  20.672  40.672   8.037
 2140POPC   C4A30606  20.479  40.570   7.658
 2140POPC   C1B30607  20.418  41.021   8.841
 2140POPC   C2B30608  20.306  41.113   8.448
 2140POPC   C3B30609  20.542  41.200   8.095
 2140POPC   C4B30610  20.592  41.056   7.698
 2141POPC   NC330611   0.852   6.351   9.578
 2141POPC   PO430612   1.151   6.921   9.323
 2141POPC   GL130613   1.145   6.497   9.093
 2141POPC   GL230614   0.779   6.386   9.072
 2141POPC   C1A30615   1.420   6.515   8.676
 2141POPC   D2A30616   1.575   6.679   8.237
 2141POPC   C3A30617   1.325   6.530   7.862
 2141POPC   C4A30618   0.889   6.358   7.815
 2141POPC   C1B30619   0.881   6.568   8.663
 2141POPC   C2B30620   1.046   6.624   8.274
 2141POPC   C3B30621   0.944   6.863   7.899
 2141POPC   C4B30622   0.634   6.740   7.597
 2142POPC   NC330623  38.768  41.725   9.753
 2142POPC   PO430624  39.367  41.372   9.532
 2142POPC   GL130625  39.164  41.476   9.168
 2142POPC   GL230626  39.106  41.802   9.227
 2142POPC   C1A30627  39.270  41.503   8.724
 2142POPC   D2A30628  39.564  41.291   8.403
 2142POPC   C3A30629  39.509  41.474   7.992
 2142POPC   C4A30630  39.068  41.474   7.953
 2142POPC   C1B30631  39.019  42.029   8.842
 2142POPC   C2B30632  38.990  41.934   8.419
 2142POPC   C3B30633  38.873  42.061   8.004
 2142POPC   C4B30634  39.078  41.881   7.645
 2143POPC   NC330635  19.457  32.973   9.524
 2143POPC   PO430636  18.921  33.305   9.476
 2143POPC   GL130637  19.090  33.068   9.172
 2143POPC   GL230638  19.373  33.279   9.129
 2143POPC   C1A30639  18.988  32.893   8.788
 2143POPC   D2A30640  18.761  33.040   8.444
 2143POPC   C3A30641  18.913  33.029   8.020
 2143POPC   C4A30642  19.204  32.885   7.720
 2143POPC   C1B30643  19.247  33.340   8.734
 2143POPC   C2B30644  19.293  33.089   8.394
 2143POPC   C3B30645  19.391  33.296   8.061
 2143POPC   C4B30646  19.283  33.418   7.698
 2144POPC   NC330647  22.503  43.375   9.341
 2144POPC   PO430648  22.005  43.068   9.741
 2144POPC   GL130649  22.108  43.028   9.267
 2144POPC   GL230650  22.414  42.942   9.083
 2144POPC   C1A30651  21.987  43.128   8.833
 2144POPC   D2A30652  22.052  43.317   8.401
 2144POPC   C3A30653  22.297  43.089   8.052
 2144POPC   C4A30654  22.146  43.038   7.610
 2144POPC   C1B30655  22.468  43.059   8.638
 2144POPC   C2B30656  22.551  43.452   8.414
 2144POPC   C3B30657  22.629  43.505   7.995
 2144POPC   C4B30658  22.511  43.393   7.596
 2145POPC   NC330659  39.479   7.875   9.528
 2145POPC   PO430660  39.063   8.467   9.809
 2145POPC   GL130661  39.013   8.255   9.308
 2145POPC   GL230662  39.072   7.894   9.170
 2145POPC   C1A30663  38.940   8.269   8.814
 2145POPC   D2A30664  38.996   8.363   8.338
 2145POPC   C3A30665  39.142   8.140   7.976
 2145POPC   C4A30666  39.173   8.362   7.613
 2145POPC   C1B30667  39.406   8.100   8.871
 2145POPC   C2B30668  39.449   8.478   8.543
 2145POPC   C3B30669  39.473   8.524   8.064
 2145POPC   C4B30670  39.621   8.171   7.781
 2146POPC   NC330671   2.221  37.634   9.676
 2146POPC   PO430672   1.536  37.835   9.532
 2146POPC   GL130673   1.985  37.808   9.259
 2146POPC   GL230674   2.385  37.768   9.207
 2146POPC   C1A30675   2.046  37.480   8.952
 2146POPC   D2A30676   2.096  37.355   8.515
 2146POPC   C3A30677   1.978  37.692   8.219
 2146POPC   C4A30678   1.859  37.636   7.806
 2146POPC   C1B30679   2.310  37.898   8.780
 2146POPC   C2B30680   2.481  37.720   8.402
 2146POPC   C3B30681   2.451  37.776   7.957
 2146POPC   C4B30682   2.165  38.056   7.720
 2147POPC   NC330683  28.115   5.585   9.672
 2147POPC   PO430684  28.650   5.972   9.538
 2147POPC   GL130685  28.381   5.770   9.198
 2147POPC   GL230686  28.002   5.795   9.225
 2147POPC   C1A30687  28.480   5.792   8.742
 2147POPC   D2A30688  28.696   5.606   8.360
 2147POPC   C3A30689  28.585   5.716   7.898
 2147POPC   C4A30690  28.462   5.913   7.462
 2147POPC   C1B30691  27.979   5.584   8.838
 2147POPC   C2B30692  28.165   5.530   8.437
 2147POPC   C3B30693  28.068   5.602   8.009
 2147POPC   C4B30694  28.221   5.484   7.603
 2148POPC   NC330695  18.667  40.068   9.433
 2148POPC   PO430696  19.341  40.224   9.489
 2148POPC   GL130697  19.133  40.019   9.163
 2148POPC   GL230698  18.973  40.330   9.100
 2148POPC   C1A30699  19.134  39.905   8.724
 2148POPC   D2A30700  19.005  40.042   8.292
 2148POPC   C3A30701  19.120  39.930   7.857
 2148POPC   C4A30702  18.777  39.860   7.532
 2148POPC   C1B30703  19.042  40.417   8.692
 2148POPC   C2B30704  19.384  40.361   8.427
 2148POPC   C3B30705  19.312  40.410   8.004
 2148POPC   C4B30706  19.508  40.309   7.636
 2149POPC   NC330707  34.113  16.340   9.467
 2149POPC   PO430708  34.773  16.734   9.473
 2149POPC   GL130709  34.606  16.732   9.053
 2149POPC   GL230710  34.274  16.708   9.106
 2149POPC   C1A30711  34.442  16.914   8.659
 2149POPC   D2A30712  34.414  16.906   8.211
 2149POPC   C3A30713  34.460  16.767   7.773
 2149POPC   C4A30714  34.808  16.709   7.478
 2149POPC   C1B30715  34.090  16.515   8.803
 2149POPC   C2B30716  33.995  16.662   8.421
 2149POPC   C3B30717  34.185  16.457   8.100
 2149POPC   C4B30718  34.113  16.354   7.708
 2150POPC   NC330719  12.220  18.090   9.578
 2150POPC   PO430720  11.873  18.636   9.657
 2150POPC   GL130721  11.917  18.418   9.269
 2150POPC   GL230722  12.211  18.591   9.171
 2150POPC   C1A30723  12.018  18.142   8.905
 2150POPC   D2A30724  12.212  18.033   8.500
 2150POPC   C3A30725  12.068  18.317   8.159
 2150POPC   C4A30726  11.965  18.358   7.710
 2150POPC   C1B30727  12.339  18.516   8.730
 2150POPC   C2B30728  12.552  18.461   8.349
 2150POPC   C3B30729  12.525  18.339   7.928
 2150POPC   C4B30730  12.387  18.623   7.600
 2151POPC   NC330731  44.691  44.922   9.544
 2151POPC   PO430732  44.272  44.463   9.578
 2151POPC   GL130733  44.504  44.520   9.150
 2151POPC   GL230734  44.449  44.835   9.113
 2151POPC   C1A30735  44.700  44.656   8.704
 2151POPC   D2A30736  44.847  44.859   8.277
 2151POPC   C3A30737  44.713  44.671   7.890
 2151POPC   C4A30738  44.653  44.223   7.841
 2151POPC   C1B30739  44.254  44.965   8.759
 2151POPC   C2B30740  44.278  44.762   8.360
 2151POPC   C3B30741  44.254  44.488   7.992
 2151POPC   C4B30742  44.324  44.633   7.552
 2152POPC   NC330743   4.922  39.055   9.657
 2152POPC   PO430744   5.356  39.572   9.559
 2152POPC   GL130745   5.071  39.349   9.265
 2152POPC   GL230746   5.237  39.062   9.211
 2152POPC   C1A30747   4.961  39.207   8.835
 2152POPC   D2A30748   5.159  39.253   8.466
 2152POPC   C3A30749   4.935  39.228   8.084
 2152POPC   C4A30750   5.076  39.063   7.744
 2152POPC   C1B30751   5.425  39.402   8.903
 2152POPC   C2B30752   5.587  39.538   8.486
 2152POPC   C3B30753   5.381  39.547   8.093
 2152POPC   C4B30754   5.291  39.562   7.667
 2153POPC   NC330755   4.138  29.312   9.511
 2153POPC   PO430756   4.651  28.880   9.535
 2153POPC   GL130757   4.486  29.050   9.180
 2153POPC   GL230758   4.535  29.401   9.153
 2153POPC   C1A30759   4.303  29.106   8.766
 2153POPC   D2A30760   4.509  29.119   8.359
 2153POPC   C3A30761   4.303  28.808   8.137
 2153POPC   C4A30762   4.332  28.712   7.723
 2153POPC   C1B30763   4.659  29.493   8.716
 2153POPC   C2B30764   4.808  29.604   8.294
 2153POPC   C3B30765   4.717  29.425   7.920
 2153POPC   C4B30766   4.308  29.243   7.864
 2154POPC   NC330767   2.996  19.242   9.435
 2154POPC   PO430768   2.356  18.971   9.472
 2154POPC   GL130769   2.593  19.165   9.127
 2154POPC   GL230770   2.744  18.856   9.090
 2154POPC   C1A30771   2.951  19.198   8.786
 2154POPC   D2A30772   2.806  19.226   8.375
 2154POPC   C3A30773   2.968  19.376   8.008
 2154POPC   C4A30774   2.865  19.186   7.648
 2154POPC   C1B30775   2.571  18.855   8.670
 2154POPC   C2B30776   2.694  18.721   8.266
 2154POPC   C3B30777   2.664  18.754   7.833
 2154POPC   C4B30778   2.458  18.694   7.444
 2155POPC   NC330779   3.753  19.075   9.541
 2155POPC   PO430780   3.146  18.778   9.463
 2155POPC   GL130781   3.390  19.052   9.147
 2155POPC   GL230782   3.769  19.220   9.081
 2155POPC   C1A30783   3.457  19.099   8.728
 2155POPC   D2A30784   3.340  19.245   8.385
 2155POPC   C3A30785   3.516  18.985   8.092
 2155POPC   C4A30786   3.256  18.901   7.750
 2155POPC   C1B30787   4.010  19.373   8.735
 2155POPC   C2B30788   3.883  19.471   8.317
 2155POPC   C3B30789   3.977  19.277   7.948
 2155POPC   C4B30790   3.711  19.117   7.646
 2156POPC   NC330791  14.967   4.065   9.589
 2156POPC   PO430792  15.187   3.481   9.719
 2156POPC   GL130793  15.165   3.700   9.274
 2156POPC   GL230794  14.841   3.856   9.125
 2156POPC   C1A30795  15.245   3.651   8.811
 2156POPC   D2A30796  15.269   3.583   8.336
 2156POPC   C3A30797  15.328   3.385   7.910
 2156POPC   C4A30798  15.214   3.542   7.514
 2156POPC   C1B30799  14.915   4.012   8.692
 2156POPC   C2B30800  14.793   3.902   8.235
 2156POPC   C3B30801  14.752   3.629   7.821
 2156POPC   C4B30802  14.827   3.219   7.575
 2157POPC   NC330803  44.262  22.036   9.536
 2157POPC   PO430804  43.642  22.206   9.409
 2157POPC   GL130805  43.873  22.068   9.061
 2157POPC   GL230806  44.163  22.191   9.034
 2157POPC   C1A30807  43.910  22.053   8.591
 2157POPC   D2A30808  44.196  22.316   8.342
 2157POPC   C3A30809  44.066  22.172   7.966
 2157POPC   C4A30810  43.649  22.072   7.904
 2157POPC   C1B30811  44.213  21.755   8.863
 2157POPC   C2B30812  44.360  21.837   8.443
 2157POPC   C3B30813  44.258  21.718   8.024
 2157POPC   C4B30814  44.062  21.798   7.612
 2158POPC   NC330815  10.664  12.492   9.463
 2158POPC   PO430816  10.941  11.884   9.752
 2158POPC   GL130817  10.685  12.007   9.318
 2158POPC   GL230818  10.357  12.150   9.178
 2158POPC   C1A30819  10.731  12.130   8.835
 2158POPC   D2A30820  10.956  12.128   8.399
 2158POPC   C3A30821  10.723  12.102   7.977
 2158POPC   C4A30822  10.802  12.106   7.498
 2158POPC   C1B30823  10.337  12.449   8.788
 2158POPC   C2B30824  10.474  12.460   8.379
 2158POPC   C3B30825  10.469  12.565   7.940
 2158POPC   C4B30826  10.374  12.334   7.575
 2159POPC   NC330827  34.141  24.149   9.487
 2159POPC   PO430828  33.559  23.863   9.465
 2159POPC   GL130829  33.785  23.699   9.118
 2159POPC   GL230830  33.926  23.388   9.042
 2159POPC   C1A30831  33.819  23.818   8.706
 2159POPC   D2A30832  33.591  23.826   8.310
 2159POPC   C3A30833  33.656  23.717   7.872
 2159POPC   C4A30834  33.430  23.380   7.687
 2159POPC   C1B30835  34.188  23.460   8.702
 2159POPC   C2B30836  34.126  23.725   8.315
 2159POPC   C3B30837  34.150  23.557   7.923
 2159POPC   C4B30838  33.941  23.389   7.565
 2160POPC   NC330839  19.087  40.645   9.634
 2160POPC   PO430840  18.503  40.876   9.829
 2160POPC   GL130841  18.855  40.956   9.311
 2160POPC   GL230842  19.202  40.796   9.178
 2160POPC   C1A30843  18.849  40.872   8.825
 2160POPC   D2A30844  18.608  40.902   8.414
 2160POPC   C3A30845  18.739  40.807   7.999
 2160POPC   C4A30846  18.872  41.157   7.753
 2160POPC   C1B30847  19.367  40.854   8.758
 2160POPC   C2B30848  19.155  40.835   8.397
 2160POPC   C3B30849  19.226  40.930   8.028
 2160POPC   C4B30850  19.220  40.817   7.616
 2161POPC   NC330851  16.865  18.522   9.539
 2161POPC   PO430852  16.586  17.952   9.631
 2161POPC   GL130853  16.772  17.970   9.209
 2161POPC   GL230854  16.737  18.293   9.080
 2161POPC   C1A30855  16.818  17.835   8.772
 2161POPC   D2A30856  16.978  17.968   8.361
 2161POPC   C3A30857  16.791  17.960   7.939
 2161POPC   C4A30858  16.724  18.177   7.525
 2161POPC   C1B30859  16.692  18.330   8.606
 2161POPC   C2B30860  16.818  18.434   8.164
 2161POPC   C3B30861  16.587  18.585   7.797
 2161POPC   C4B30862  16.253  18.443   7.535
 2162POPC   NC330863  19.571  40.355   9.117
 2162POPC   PO430864  19.601  40.834   9.579
 2162POPC   GL130865  19.710  40.858   9.153
 2162POPC   GL230866  19.987  40.669   9.143
 2162POPC   C1A30867  19.895  40.915   8.709
 2162POPC   D2A30868  19.819  40.623   8.377
 2162POPC   C3A30869  19.692  40.754   7.976
 2162POPC   C4A30870  19.624  41.154   7.814
 2162POPC   C1B30871  20.136  40.447   8.761
 2162POPC   C2B30872  20.317  40.485   8.360
 2162POPC   C3B30873  20.193  40.796   8.056
 2162POPC   C4B30874  20.087  40.943   7.674
 2163POPC   NC330875  32.519  35.929   9.340
 2163POPC   PO430876  32.097  36.423   9.373
 2163POPC   GL130877  32.201  36.240   9.063
 2163POPC   GL230878  32.541  36.357   9.064
 2163POPC   C1A30879  32.009  36.069   8.736
 2163POPC   D2A30880  32.136  35.812   8.407
 2163POPC   C3A30881  31.938  35.952   8.031
 2163POPC   C4A30882  31.934  36.059   7.616
 2163POPC   C1B30883  32.551  36.068   8.684
 2163POPC   C2B30884  32.563  36.046   8.223
 2163POPC   C3B30885  32.461  35.858   7.849
 2163POPC   C4B30886  32.438  36.065   7.428
 2164POPC   NC330887  23.328  42.868   9.413
 2164POPC   PO430888  23.838  42.426   9.561
 2164POPC   GL130889  23.654  42.225   9.209
 2164POPC   GL230890  23.283  42.253   9.241
 2164POPC   C1A30891  23.798  42.132   8.802
 2164POPC   D2A30892  23.981  42.267   8.419
 2164POPC   C3A30893  23.809  42.161   8.017
 2164POPC   C4A30894  24.010  42.275   7.601
 2164POPC   C1B30895  23.375  42.467   8.854
 2164POPC   C2B30896  23.469  42.321   8.447
 2164POPC   C3B30897  23.644  42.614   8.149
 2164POPC   C4B30898  23.616  42.564   7.710
 2165POPC   NC330899  31.926  14.252   9.377
 2165POPC   PO430900  32.504  14.643   9.597
 2165POPC   GL130901  32.303  14.519   9.211
 2165POPC   GL230902  32.363  14.211   9.041
 2165POPC   C1A30903  32.124  14.614   8.795
 2165POPC   D2A30904  32.129  14.816   8.387
 2165POPC   C3A30905  32.210  14.638   8.013
 2165POPC   C4A30906  31.939  14.708   7.687
 2165POPC   C1B30907  32.059  14.078   8.757
 2165POPC   C2B30908  32.039  14.156   8.327
 2165POPC   C3B30909  31.855  14.268   7.961
 2165POPC   C4B30910  32.193  14.225   7.691
 2166POPC   NC330911  12.670  29.533   9.485
 2166POPC   PO430912  13.144  29.065   9.564
 2166POPC   GL130913  12.820  29.105   9.226
 2166POPC   GL230914  12.560  28.824   9.237
 2166POPC   C1A30915  12.770  29.382   8.845
 2166POPC   D2A30916  12.900  29.570   8.427
 2166POPC   C3A30917  13.065  29.241   8.139
 2166POPC   C4A30918  12.983  29.214   7.689
 2166POPC   C1B30919  12.691  28.851   8.798
 2166POPC   C2B30920  12.621  29.122   8.424
 2166POPC   C3B30921  12.615  29.034   8.007
 2166POPC   C4B30922  12.716  28.704   7.762
 2167POPC   NC330923  14.484   4.642   9.377
 2167POPC   PO430924  14.594   5.327   9.565
 2167POPC   GL130925  14.411   5.158   9.170
 2167POPC   GL230926  14.100   4.987   9.025
 2167POPC   C1A30927  14.426   5.320   8.753
 2167POPC   D2A30928  14.677   5.360   8.395
 2167POPC   C3A30929  14.400   5.200   8.095
 2167POPC   C4A30930  14.369   5.303   7.647
 2167POPC   C1B30931  14.132   4.963   8.532
 2167POPC   C2B30932  14.585   4.877   8.462
 2167POPC   C3B30933  14.773   4.824   8.081
 2167POPC   C4B30934  14.626   4.850   7.672
 2168POPC   NC330935   1.823   3.166   9.452
 2168POPC   PO430936   2.413   3.543   9.322
 2168POPC   GL130937   2.014   3.477   9.097
 2168POPC   GL230938   1.819   3.777   8.970
 2168POPC   C1A30939   1.935   3.325   8.735
 2168POPC   D2A30940   2.272   3.362   8.451
 2168POPC   C3A30941   2.140   3.428   8.030
 2168POPC   C4A30942   2.029   3.279   7.626
 2168POPC   C1B30943   2.177   3.870   8.714
 2168POPC   C2B30944   2.259   4.072   8.315
 2168POPC   C3B30945   2.261   3.977   7.893
 2168POPC   C4B30946   1.923   3.768   7.684
 2169POPC   NC330947  34.168  13.070   9.538
 2169POPC   PO430948  33.607  12.660   9.438
 2169POPC   GL130949  33.951  12.764   9.173
 2169POPC   GL230950  33.938  13.097   9.068
 2169POPC   C1A30951  34.061  12.659   8.751
 2169POPC   D2A30952  33.698  12.633   8.399
 2169POPC   C3A30953  33.743  12.812   8.012
 2169POPC   C4A30954  33.601  13.031   7.721
 2169POPC   C1B30955  33.796  13.071   8.662
 2169POPC   C2B30956  34.118  12.949   8.314
 2169POPC   C3B30957  34.124  13.156   7.874
 2169POPC   C4B30958  33.946  13.253   7.437
 2170POPC   NC330959   2.533  17.811   9.579
 2170POPC   PO430960   2.617  17.117   9.404
 2170POPC   GL130961   2.800  17.358   9.114
 2170POPC   GL230962   2.885  17.679   9.198
 2170POPC   C1A30963   2.944  17.390   8.734
 2170POPC   D2A30964   2.737  17.221   8.398
 2170POPC   C3A30965   2.683  17.489   8.069
 2170POPC   C4A30966   2.694  17.312   7.667
 2170POPC   C1B30967   2.636  17.804   8.857
 2170POPC   C2B30968   2.621  17.943   8.446
 2170POPC   C3B30969   2.373  17.902   8.089
 2170POPC   C4B30970   2.615  17.843   7.692
 2171POPC   NC330971   8.492  16.831   9.446
 2171POPC   PO430972   7.859  16.614   9.627
 2171POPC   GL130973   7.947  16.646   9.102
 2171POPC   GL230974   8.178  16.937   9.036
 2171POPC   C1A30975   7.982  16.497   8.701
 2171POPC   D2A30976   8.253  16.740   8.457
 2171POPC   C3A30977   8.112  16.675   8.054
 2171POPC   C4A30978   8.291  16.688   7.663
 2171POPC   C1B30979   8.247  17.230   8.672
 2171POPC   C2B30980   8.213  17.191   8.202
 2171POPC   C3B30981   8.441  17.150   7.814
 2171POPC   C4B30982   8.501  17.034   7.350
 2172POPC   NC330983  37.795  30.360   9.577
 2172POPC   PO430984  37.305  30.910   9.477
 2172POPC   GL130985  37.552  30.720   9.139
 2172POPC   GL230986  37.939  30.635   9.177
 2172POPC   C1A30987  37.431  30.865   8.706
 2172POPC   D2A30988  37.307  30.906   8.271
 2172POPC   C3A30989  37.515  30.623   7.955
 2172POPC   C4A30990  37.461  30.568   7.475
 2172POPC   C1B30991  37.928  30.921   8.818
 2172POPC   C2B30992  37.803  30.941   8.368
 2172POPC   C3B30993  37.907  30.996   7.946
 2172POPC   C4B30994  37.944  30.656   7.637
 2173POPC   NC330995  32.738  20.785   9.467
 2173POPC   PO430996  32.123  20.396   9.572
 2173POPC   GL130997  32.305  20.384   9.178
 2173POPC   GL230998  32.361  20.701   9.137
 2173POPC   C1A30999  32.393  20.391   8.719
 2173POPC   D2A31000  32.221  20.333   8.317
 2173POPC   C3A31001  32.382  20.280   7.912
 2173POPC   C4A31002  32.427  20.484   7.507
 2173POPC   C1B31003  32.126  20.826   8.802
 2173POPC   C2B31004  32.268  20.845   8.394
 2173POPC   C3B31005  32.170  20.749   7.985
 2173POPC   C4B31006  32.306  20.982   7.672
 2174POPC   NC331007  28.819  23.793   9.451
 2174POPC   PO431008  28.184  23.804   9.459
 2174POPC   GL131009  28.450  23.630   9.136
 2174POPC   GL231010  28.239  23.499   8.896
 2174POPC   C1A31011  28.677  23.732   8.730
 2174POPC   D2A31012  28.615  23.942   8.302
 2174POPC   C3A31013  28.645  23.667   7.928
 2174POPC   C4A31014  28.440  23.290   7.688
 2174POPC   C1B31015  28.082  23.925   8.757
 2174POPC   C2B31016  27.754  24.060   8.444
 2174POPC   C3B31017  27.807  24.028   7.988
 2174POPC   C4B31018  28.235  23.977   7.863
 2175POPC   NC331019  15.892  18.795   9.780
 2175POPC   PO431020  15.638  19.173   9.668
 2175POPC   GL131021  15.865  19.136   9.235
 2175POPC   GL231022  15.873  18.784   9.145
 2175POPC   C1A31023  16.093  19.117   8.785
 2175POPC   D2A31024  16.275  18.842   8.401
 2175POPC   C3A31025  16.150  18.869   7.917
 2175POPC   C4A31026  15.984  19.195   7.614
 2175POPC   C1B31027  15.701  18.806   8.699
 2175POPC   C2B31028  15.792  18.997   8.289
 2175POPC   C3B31029  15.632  18.914   7.858
 2175POPC   C4B31030  15.504  19.108   7.447
 2176POPC   NC331031  39.012   0.453   9.436
 2176POPC   PO431032  39.568   0.699   9.569
 2176POPC   GL131033  39.394   0.530   9.115
 2176POPC   GL231034  39.266   0.211   9.086
 2176POPC   C1A31035  39.276   0.502   8.645
 2176POPC   D2A31036  39.440   0.484   8.213
 2176POPC   C3A31037  39.229   0.363   7.811
 2176POPC   C4A31038  38.958   0.641   7.562
 2176POPC   C1B31039  38.909   0.203   8.793
 2176POPC   C2B31040  38.990   0.186   8.346
 2176POPC   C3B31041  38.765   0.248   7.965
 2176POPC   C4B31042  38.812   0.170   7.520
 2177POPC   NC331043  27.398  14.521   9.416
 2177POPC   PO431044  27.979  14.238   9.452
 2177POPC   GL131045  27.705  14.227   9.105
 2177POPC   GL231046  27.420  14.056   9.188
 2177POPC   C1A31047  27.563  14.469   8.718
 2177POPC   D2A31048  27.809  14.500   8.329
 2177POPC   C3A31049  27.664  14.510   7.922
 2177POPC   C4A31050  27.388  14.491   7.605
 2177POPC   C1B31051  27.454  13.970   8.744
 2177POPC   C2B31052  27.374  14.133   8.315
 2177POPC   C3B31053  27.468  14.032   7.878
 2177POPC   C4B31054  27.344  13.981   7.450
 2178POPC   NC331055  36.609   7.505   9.525
 2178POPC   PO431056  37.055   6.880   9.407
 2178POPC   GL131057  37.084   7.106   9.016
 2178POPC   GL231058  36.807   7.313   9.102
 2178POPC   C1A31059  37.049   7.434   8.670
 2178POPC   D2A31060  37.115   7.771   8.400
 2178POPC   C3A31061  36.982   7.657   8.022
 2178POPC   C4A31062  37.183   7.372   7.719
 2178POPC   C1B31063  36.564   7.527   8.780
 2178POPC   C2B31064  36.290   7.523   8.412
 2178POPC   C3B31065  36.420   7.615   8.009
 2178POPC   C4B31066  36.668   7.515   7.668
 2179POPC   NC331067  13.155  28.607   9.589
 2179POPC   PO431068  12.515  28.315   9.497
 2179POPC   GL131069  12.874  28.405   9.224
 2179POPC   GL231070  12.626  28.362   8.998
 2179POPC   C1A31071  13.068  28.481   8.817
 2179POPC   D2A31072  12.779  28.338   8.499
 2179POPC   C3A31073  12.911  28.392   8.107
 2179POPC   C4A31074  12.910  28.232   7.717
 2179POPC   C1B31075  12.425  28.070   8.768
 2179POPC   C2B31076  12.453  27.901   8.346
 2179POPC   C3B31077  12.460  28.147   7.963
 2179POPC   C4B31078  12.531  27.951   7.535
 2180POPC   NC331079  31.177  43.345   9.568
 2180POPC   PO431080  30.872  42.857   9.357
 2180POPC   GL131081  30.757  43.037   9.025
 2180POPC   GL231082  31.033  43.238   9.050
 2180POPC   C1A31083  30.863  42.884   8.649
 2180POPC   D2A31084  30.741  42.736   8.263
 2180POPC   C3A31085  30.728  43.078   7.998
 2180POPC   C4A31086  30.800  43.169   7.537
 2180POPC   C1B31087  30.836  43.408   8.657
 2180POPC   C2B31088  30.705  43.535   8.241
 2180POPC   C3B31089  30.990  43.508   7.891
 2180POPC   C4B31090  31.023  43.591   7.450
 2181POPC   NC331091  13.913  31.810   9.718
 2181POPC   PO431092  13.414  31.487   9.565
 2181POPC   GL131093  13.743  31.483   9.270
 2181POPC   GL231094  13.712  31.838   9.242
 2181POPC   C1A31095  13.911  31.325   8.860
 2181POPC   D2A31096  13.673  31.252   8.493
 2181POPC   C3A31097  13.793  31.389   8.098
 2181POPC   C4A31098  13.589  31.288   7.730
 2181POPC   C1B31099  13.564  31.695   8.818
 2181POPC   C2B31100  13.640  31.796   8.373
 2181POPC   C3B31101  13.496  31.788   7.929
 2181POPC   C4B31102  13.167  31.567   7.675
 2182POPC   NC331103  42.985  39.734   9.342
 2182POPC   PO431104  42.675  40.279   9.424
 2182POPC   GL131105  43.034  40.282   9.111
 2182POPC   GL231106  43.361  40.095   9.143
 2182POPC   C1A31107  43.106  40.187   8.675
 2182POPC   D2A31108  43.047  39.888   8.298
 2182POPC   C3A31109  43.202  40.014   7.873
 2182POPC   C4A31110  43.398  40.125   7.484
 2182POPC   C1B31111  43.387  39.790   8.764
 2182POPC   C2B31112  43.544  39.893   8.393
 2182POPC   C3B31113  43.494  39.673   8.083
 2182POPC   C4B31114  43.591  39.701   7.699
 2183POPC   NC331115  43.424  17.952   9.578
 2183POPC   PO431116  43.337  18.550   9.546
 2183POPC   GL131117  43.372  18.487   9.080
 2183POPC   GL231118  42.996  18.478   9.004
 2183POPC   C1A31119  43.271  18.270   8.640
 2183POPC   D2A31120  43.202  18.397   8.195
 2183POPC   C3A31121  43.254  18.200   7.778
 2183POPC   C4A31122  43.236  17.975   7.381
 2183POPC   C1B31123  42.862  18.715   8.607
 2183POPC   C2B31124  42.733  18.653   8.179
 2183POPC   C3B31125  42.778  18.388   7.848
 2183POPC   C4B31126  42.942  18.459   7.444
 2184POPC   NC331127  11.797  14.768   9.266
 2184POPC   PO431128  12.355  14.482   9.323
 2184POPC   GL131129  12.066  14.416   9.036
 2184POPC   GL231130  12.061  14.102   9.110
 2184POPC   C1A31131  12.041  14.521   8.622
 2184POPC   D2A31132  12.108  14.293   8.247
 2184POPC   C3A31133  12.051  14.507   7.867
 2184POPC   C4A31134  12.154  14.232   7.550
 2184POPC   C1B31135  11.885  14.015   8.680
 2184POPC   C2B31136  11.628  14.092   8.305
 2184POPC   C3B31137  11.720  14.104   7.847
 2184POPC   C4B31138  11.718  14.018   7.406
 2185POPC   NC331139   9.560   9.257   9.383
 2185POPC   PO431140  10.064   8.808   9.447
 2185POPC   GL131141   9.774   8.854   9.104
 2185POPC   GL231142   9.536   8.590   9.144
 2185POPC   C1A31143   9.634   9.092   8.713
 2185POPC   D2A31144   9.449   9.276   8.320
 2185POPC   C3A31145   9.531   9.268   7.856
 2185POPC   C4A31146   9.536   9.323   7.383
 2185POPC   C1B31147   9.670   8.579   8.684
 2185POPC   C2B31148   9.792   8.829   8.286
 2185POPC   C3B31149   9.863   8.889   7.837
 2185POPC   C4B31150   9.478   8.714   7.692
 2186POPC   NC331151   5.436  37.620   9.537
 2186POPC   PO431152   4.788  37.665   9.508
 2186POPC   GL131153   4.804  37.531   9.080
 2186POPC   GL231154   5.134  37.480   9.090
 2186POPC   C1A31155   4.881  37.554   8.625
 2186POPC   D2A31156   4.854  37.930   8.363
 2186POPC   C3A31157   5.054  37.835   7.985
 2186POPC   C4A31158   5.171  37.460   7.784
 2186POPC   C1B31159   5.411  37.686   8.787
 2186POPC   C2B31160   5.406  37.807   8.379
 2186POPC   C3B31161   5.514  38.038   8.041
 2186POPC   C4B31162   5.474  37.847   7.665
 2187POPC   NC331163  10.262  41.203   9.411
 2187POPC   PO431164  10.671  41.742   9.548
 2187POPC   GL131165  10.626  41.527   9.185
 2187POPC   GL231166  10.287  41.646   9.146
 2187POPC   C1A31167  10.636  41.683   8.765
 2187POPC   D2A31168  10.502  41.885   8.418
 2187POPC   C3A31169  10.743  41.664   8.150
 2187POPC   C4A31170  10.836  41.628   7.728
 2187POPC   C1B31171  10.135  41.634   8.717
 2187POPC   C2B31172  10.270  41.464   8.307
 2187POPC   C3B31173  10.308  41.671   7.892
 2187POPC   C4B31174  10.368  41.510   7.475
 2188POPC   NC331175  35.980  39.197   9.507
 2188POPC   PO431176  36.588  38.873   9.468
 2188POPC   GL131177  36.365  39.173   9.141
 2188POPC   GL231178  36.026  39.434   9.082
 2188POPC   C1A31179  36.147  39.056   8.772
 2188POPC   D2A31180  35.921  39.151   8.426
 2188POPC   C3A31181  36.121  39.062   8.044
 2188POPC   C4A31182  35.876  39.080   7.681
 2188POPC   C1B31183  36.274  39.543   8.761
 2188POPC   C2B31184  36.350  39.407   8.381
 2188POPC   C3B31185  36.272  39.582   8.013
 2188POPC   C4B31186  36.287  39.389   7.632
 2189POPC   NC331187  17.688  25.001   9.605
 2189POPC   PO431188  17.275  25.541   9.509
 2189POPC   GL131189  17.447  25.247   9.218
 2189POPC   GL231190  17.757  25.378   9.187
 2189POPC   C1A31191  17.607  25.096   8.805
 2189POPC   D2A31192  17.743  25.285   8.441
 2189POPC   C3A31193  17.577  25.057   8.107
 2189POPC   C4A31194  17.423  25.121   7.739
 2189POPC   C1B31195  17.871  25.617   8.814
 2189POPC   C2B31196  17.841  25.800   8.374
 2189POPC   C3B31197  17.669  25.580   8.016
 2189POPC   C4B31198  17.680  25.525   7.607
 2190POPC   NC331199   5.521  29.633   9.505
 2190POPC   PO431200   6.051  30.015   9.569
 2190POPC   GL131201   5.825  29.953   9.201
 2190POPC   GL231202   5.844  29.613   9.102
 2190POPC   C1A31203   5.918  30.128   8.803
 2190POPC   D2A31204   6.180  30.232   8.454
 2190POPC   C3A31205   6.025  30.208   8.037
 2190POPC   C4A31206   6.237  30.011   7.675
 2190POPC   C1B31207   5.678  29.685   8.686
 2190POPC   C2B31208   5.617  30.006   8.347
 2190POPC   C3B31209   5.686  29.840   7.908
 2190POPC   C4B31210   5.833  29.772   7.474
 2191POPC   NC331211  32.393  10.710   9.572
 2191POPC   PO431212  31.886  10.200   9.520
 2191POPC   GL131213  31.996  10.604   9.245
 2191POPC   GL231214  32.329  10.491   9.129
 2191POPC   C1A31215  32.128  10.807   8.810
 2191POPC   D2A31216  32.378  10.609   8.459
 2191POPC   C3A31217  32.250  10.647   8.010
 2191POPC   C4A31218  32.413  10.429   7.624
 2191POPC   C1B31219  32.001  10.326   8.800
 2191POPC   C2B31220  31.875  10.517   8.391
 2191POPC   C3B31221  31.871  10.319   7.987
 2191POPC   C4B31222  31.931  10.166   7.546
 2192POPC   NC331223  19.747  34.089   9.786
 2192POPC   PO431224  20.168  33.856   9.320
 2192POPC   GL131225  19.954  33.974   9.015
 2192POPC   GL231226  19.639  34.002   9.183
 2192POPC   C1A31227  19.975  34.073   8.604
 2192POPC   D2A31228  19.835  34.131   8.192
 2192POPC   C3A31229  20.112  33.903   7.881
 2192POPC   C4A31230  20.177  33.717   7.471
 2192POPC   C1B31231  19.580  33.726   8.792
 2192POPC   C2B31232  19.438  33.741   8.351
 2192POPC   C3B31233  19.556  33.807   7.918
 2192POPC   C4B31234  19.370  33.935   7.538
 2193POPC   NC331235  26.642  35.916   9.801
 2193POPC   PO431236  26.827  35.370   9.434
 2193POPC   GL131237  26.917  35.378   9.062
 2193POPC   GL231238  27.135  35.630   9.069
 2193POPC   C1A31239  26.598  35.403   8.736
 2193POPC   D2A31240  26.469  35.611   8.395
 2193POPC   C3A31241  26.550  35.411   8.047
 2193POPC   C4A31242  26.706  35.641   7.747
 2193POPC   C1B31243  27.036  35.713   8.691
 2193POPC   C2B31244  26.951  35.470   8.357
 2193POPC   C3B31245  27.068  35.360   7.976
 2193POPC   C4B31246  27.166  35.477   7.587
 2194POPC   NC331247  15.149  10.517   9.434
 2194POPC   PO431248  15.616  11.078   9.457
 2194POPC   GL131249  15.337  10.950   9.095
 2194POPC   GL231250  14.958  10.918   9.092
 2194POPC   C1A31251  15.265  10.583   8.811
 2194POPC   D2A31252  15.443  10.388   8.481
 2194POPC   C3A31253  15.268  10.395   8.036
 2194POPC   C4A31254  15.433  10.462   7.582
 2194POPC   C1B31255  14.757  10.600   8.760
 2194POPC   C2B31256  14.881  10.290   8.416
 2194POPC   C3B31257  14.755  10.291   7.974
 2194POPC   C4B31258  14.948  10.538   7.658
 2195POPC   NC331259  19.549  17.986   9.495
 2195POPC   PO431260  18.927  18.344   9.613
 2195POPC   GL131261  18.973  18.454   9.204
 2195POPC   GL231262  19.284  18.324   9.189
 2195POPC   C1A31263  18.978  18.242   8.790
 2195POPC   D2A31264  18.815  18.092   8.407
 2195POPC   C3A31265  18.824  18.432   8.141
 2195POPC   C4A31266  19.040  18.464   7.740
 2195POPC   C1B31267  19.337  18.605   8.834
 2195POPC   C2B31268  19.270  18.655   8.361
 2195POPC   C3B31269  19.437  18.737   7.918
 2195POPC   C4B31270  19.402  18.677   7.429
 2196POPC   NC331271  17.719  18.197   9.492
 2196POPC   PO431272  18.374  18.311   9.561
 2196POPC   GL131273  18.478  18.359   9.152
 2196POPC   GL231274  18.298  18.083   9.087
 2196POPC   C1A31275  18.498  18.398   8.708
 2196POPC   D2A31276  18.197  18.452   8.388
 2196POPC   C3A31277  18.315  18.306   8.007
 2196POPC   C4A31278  18.641  18.028   7.902
 2196POPC   C1B31279  18.442  17.881   8.730
 2196POPC   C2B31280  18.337  17.877   8.302
 2196POPC   C3B31281  18.123  17.859   7.878
 2196POPC   C4B31282  18.021  17.781   7.442
 2197POPC   NC331283  31.643  12.381   9.366
 2197POPC   PO431284  31.467  11.792   9.489
 2197POPC   GL131285  31.380  12.044   9.077
 2197POPC   GL231286  31.171  12.366   9.088
 2197POPC   C1A31287  31.544  12.343   8.713
 2197POPC   D2A31288  31.447  12.321   8.258
 2197POPC   C3A31289  31.805  12.296   7.986
 2197POPC   C4A31290  31.737  11.885   7.766
 2197POPC   C1B31291  31.045  12.342   8.625
 2197POPC   C2B31292  30.993  12.060   8.270
 2197POPC   C3B31293  31.232  11.965   7.911
 2197POPC   C4B31294  31.390  12.335   7.699
 2198POPC   NC331295  29.430  40.215   9.266
 2198POPC   PO431296  28.972  39.994   9.637
 2198POPC   GL131297  29.084  39.862   9.192
 2198POPC   GL231298  28.943  40.195   9.107
 2198POPC   C1A31299  29.314  39.898   8.744
 2198POPC   D2A31300  29.204  40.004   8.331
 2198POPC   C3A31301  29.530  39.875   8.073
 2198POPC   C4A31302  29.631  40.091   7.685
 2198POPC   C1B31303  28.807  39.947   8.751
 2198POPC   C2B31304  28.763  39.753   8.358
 2198POPC   C3B31305  28.826  39.998   7.953
 2198POPC   C4B31306  28.831  39.778   7.550
 2199POPC   NC331307  15.949  11.409   9.496
 2199POPC   PO431308  16.267  10.940   9.788
 2199POPC   GL131309  16.183  11.063   9.218
 2199POPC   GL231310  16.185  11.489   9.067
 2199POPC   C1A31311  16.077  11.138   8.741
 2199POPC   D2A31312  15.768  11.070   8.431
 2199POPC   C3A31313  15.870  11.094   8.024
 2199POPC   C4A31314  15.790  10.861   7.712
 2199POPC   C1B31315  16.057  11.663   8.693
 2199POPC   C2B31316  15.998  11.811   8.317
 2199POPC   C3B31317  15.829  11.639   8.015
 2199POPC   C4B31318  16.095  11.483   7.724
 2200POPC   NC331319   6.400  12.368   9.490
 2200POPC   PO431320   6.866  11.901   9.410
 2200POPC   GL131321   6.668  11.881   9.072
 2200POPC   GL231322   6.568  12.202   9.042
 2200POPC   C1A31323   6.720  11.693   8.683
 2200POPC   D2A31324   6.485  11.633   8.327
 2200POPC   C3A31325   6.574  11.947   8.076
 2200POPC   C4A31326   6.581  11.962   7.678
 2200POPC   C1B31327   6.803  12.201   8.660
 2200POPC   C2B31328   6.783  12.415   8.260
 2200POPC   C3B31329   6.946  12.323   7.828
 2200POPC   C4B31330   6.867  12.213   7.380
 2201POPC   NC331331  26.466  14.761   9.684
 2201POPC   PO431332  26.983  14.317   9.406
 2201POPC   GL131333  26.956  14.228   9.028
 2201POPC   GL231334  26.652  14.150   9.025
 2201POPC   C1A31335  27.036  14.391   8.663
 2201POPC   D2A31336  26.992  14.768   8.431
 2201POPC   C3A31337  27.199  14.615   8.093
 2201POPC   C4A31338  27.027  14.266   7.857
 2201POPC   C1B31339  26.529  14.033   8.656
 2201POPC   C2B31340  26.786  14.154   8.287
 2201POPC   C3B31341  26.680  14.559   8.073
 2201POPC   C4B31342  26.436  14.868   7.872
 2202POPC   NC331343   8.609  41.852   9.513
 2202POPC   PO431344   8.055  42.237   9.605
 2202POPC   GL131345   7.962  42.189   9.193
 2202POPC   GL231346   8.301  42.197   9.144
 2202POPC   C1A31347   7.981  42.116   8.740
 2202POPC   D2A31348   7.949  42.456   8.445
 2202POPC   C3A31349   8.250  42.428   8.142
 2202POPC   C4A31350   8.305  42.148   7.807
 2202POPC   C1B31351   8.308  42.517   8.825
 2202POPC   C2B31352   8.422  42.840   8.519
 2202POPC   C3B31353   8.524  42.852   8.064
 2202POPC   C4B31354   8.400  42.645   7.657
 2203POPC   NC331355  31.592  32.567   9.596
 2203POPC   PO431356  32.258  32.766   9.709
 2203POPC   GL131357  32.319  32.744   9.254
 2203POPC   GL231358  32.020  32.903   9.120
 2203POPC   C1A31359  32.451  32.791   8.800
 2203POPC   D2A31360  32.518  33.002   8.379
 2203POPC   C3A31361  32.396  32.793   8.033
 2203POPC   C4A31362  32.308  32.917   7.626
 2203POPC   C1B31363  31.849  33.122   8.785
 2203POPC   C2B31364  32.022  33.259   8.368
 2203POPC   C3B31365  31.995  33.142   7.941
 2203POPC   C4B31366  31.919  33.226   7.475
 2204POPC   NC331367   6.556   7.186   9.501
 2204POPC   PO431368   7.167   7.531   9.470
 2204POPC   GL131369   6.850   7.463   9.128
 2204POPC   GL231370   6.493   7.331   9.037
 2204POPC   C1A31371   6.730   7.627   8.718
 2204POPC   D2A31372   6.878   7.841   8.382
 2204POPC   C3A31373   6.896   7.593   8.033
 2204POPC   C4A31374   7.064   7.617   7.657
 2204POPC   C1B31375   6.442   7.185   8.611
 2204POPC   C2B31376   6.448   7.468   8.252
 2204POPC   C3B31377   6.413   7.615   7.822
 2204POPC   C4B31378   6.200   7.444   7.461
 2205POPC   NC331379   7.264   9.942   9.410
 2205POPC   PO431380   7.780   9.410   9.229
 2205POPC   GL131381   7.516   9.739   9.002
 2205POPC   GL231382   7.560  10.104   9.000
 2205POPC   C1A31383   7.199   9.917   8.702
 2205POPC   D2A31384   7.017  10.043   8.328
 2205POPC   C3A31385   7.162   9.793   7.977
 2205POPC   C4A31386   7.376   9.559   7.620
 2205POPC   C1B31387   7.655  10.134   8.590
 2205POPC   C2B31388   7.590   9.953   8.187
 2205POPC   C3B31389   7.560  10.030   7.731
 2205POPC   C4B31390   7.822   9.876   7.384
 2206POPC   NC331391  23.218  38.769   9.594
 2206POPC   PO431392  22.723  39.278   9.547
 2206POPC   GL131393  23.056  39.266   9.205
 2206POPC   GL231394  23.297  39.545   9.189
 2206POPC   C1A31395  23.098  39.161   8.728
 2206POPC   D2A31396  23.317  39.139   8.302
 2206POPC   C3A31397  23.033  39.076   7.960
 2206POPC   C4A31398  22.635  39.305   7.994
 2206POPC   C1B31399  22.947  39.618   8.857
 2206POPC   C2B31400  22.858  39.644   8.414
 2206POPC   C3B31401  23.078  39.591   8.054
 2206POPC   C4B31402  22.979  39.462   7.640
 2207POPC   NC331403  29.119   6.118   9.450
 2207POPC   PO431404  29.463   5.484   9.385
 2207POPC   GL131405  29.343   5.802   9.102
 2207POPC   GL231406  29.570   6.033   9.195
 2207POPC   C1A31407  29.083   5.856   8.720
 2207POPC   D2A31408  29.256   5.646   8.357
 2207POPC   C3A31409  29.216   5.754   7.932
 2207POPC   C4A31410  28.958   5.935   7.595
 2207POPC   C1B31411  29.478   6.170   8.747
 2207POPC   C2B31412  29.386   6.168   8.259
 2207POPC   C3B31413  29.402   6.191   7.762
 2207POPC   C4B31414  29.345   6.112   7.295
 2208POPC   NC331415   4.247  28.655   9.609
 2208POPC   PO431416   4.634  28.128   9.540
 2208POPC   GL131417   4.509  28.474   9.205
 2208POPC   GL231418   4.162  28.651   9.105
 2208POPC   C1A31419   4.499  28.450   8.763
 2208POPC   D2A31420   4.529  28.156   8.421
 2208POPC   C3A31421   4.503  28.347   8.043
 2208POPC   C4A31422   4.512  28.248   7.588
 2208POPC   C1B31423   4.017  28.625   8.673
 2208POPC   C2B31424   4.057  28.379   8.279
 2208POPC   C3B31425   4.052  28.296   7.804
 2208POPC   C4B31426   3.923  28.632   7.463
 2209POPC   NC331427   5.993  18.568   9.271
 2209POPC   PO431428   5.607  18.140   9.659
 2209POPC   GL131429   5.801  18.047   9.222
 2209POPC   GL231430   6.128  17.979   9.138
 2209POPC   C1A31431   5.816  18.131   8.746
 2209POPC   D2A31432   5.909  18.067   8.315
 2209POPC   C3A31433   5.964  18.451   8.075
 2209POPC   C4A31434   5.703  18.514   7.712
 2209POPC   C1B31435   6.160  17.784   8.691
 2209POPC   C2B31436   6.347  17.671   8.315
 2209POPC   C3B31437   6.305  17.937   7.996
 2209POPC   C4B31438   6.020  18.109   7.704
 2210POPC   NC331439   1.755  17.965   9.666
 2210POPC   PO431440   2.311  18.286   9.516
 2210POPC   GL131441   2.197  18.280   9.126
 2210POPC   GL231442   1.853  18.247   9.164
 2210POPC   C1A31443   2.272  18.174   8.726
 2210POPC   D2A31444   2.350  18.359   8.346
 2210POPC   C3A31445   1.985  18.304   8.141
 2210POPC   C4A31446   1.949  18.074   7.792
 2210POPC   C1B31447   1.792  18.065   8.748
 2210POPC   C2B31448   1.918  17.818   8.387
 2210POPC   C3B31449   1.699  17.682   8.017
 2210POPC   C4B31450   1.471  17.913   7.716
 2211POPC   NC331451   5.467  19.380   9.314
 2211POPC   PO431452   5.149  19.780   9.773
 2211POPC   GL131453   5.208  19.834   9.296
 2211POPC   GL231454   4.870  19.880   9.159
 2211POPC   C1A31455   5.281  19.825   8.822
 2211POPC   D2A31456   5.150  19.618   8.411
 2211POPC   C3A31457   5.189  19.756   7.945
 2211POPC   C4A31458   5.235  19.606   7.493
 2211POPC   C1B31459   4.782  19.895   8.710
 2211POPC   C2B31460   4.748  19.932   8.269
 2211POPC   C3B31461   4.755  20.046   7.864
 2211POPC   C4B31462   4.661  20.210   7.472
 2212POPC   NC331463  34.829  12.321   9.570
 2212POPC   PO431464  34.273  11.915   9.468
 2212POPC   GL131465  34.575  12.085   9.131
 2212POPC   GL231466  34.748  11.816   8.911
 2212POPC   C1A31467  34.459  12.249   8.706
 2212POPC   D2A31468  34.622  12.192   8.286
 2212POPC   C3A31469  34.422  12.246   7.893
 2212POPC   C4A31470  34.467  11.996   7.508
 2212POPC   C1B31471  34.959  12.145   8.679
 2212POPC   C2B31472  35.136  12.244   8.268
 2212POPC   C3B31473  34.937  12.185   7.873
 2212POPC   C4B31474  34.780  12.395   7.573
 2213POPC   NC331475  18.587   8.439   9.552
 2213POPC   PO431476  18.286   7.842   9.675
 2213POPC   GL131477  18.132   8.065   9.240
 2213POPC   GL231478  18.196   8.416   9.208
 2213POPC   C1A31479  18.256   8.038   8.768
 2213POPC   D2A31480  18.129   8.042   8.352
 2213POPC   C3A31481  18.346   8.208   8.039
 2213POPC   C4A31482  18.367   8.035   7.637
 2213POPC   C1B31483  18.290   8.549   8.782
 2213POPC   C2B31484  18.061   8.535   8.412
 2213POPC   C3B31485  17.927   8.523   7.986
 2213POPC   C4B31486  18.203   8.540   7.666
 2214POPC   NC331487  39.147   3.436   9.590
 2214POPC   PO431488  39.459   4.095   9.526
 2214POPC   GL131489  39.370   3.720   9.190
 2214POPC   GL231490  39.403   3.344   9.146
 2214POPC   C1A31491  39.237   3.623   8.731
 2214POPC   D2A31492  39.264   3.354   8.326
 2214POPC   C3A31493  39.190   3.608   7.927
 2214POPC   C4A31494  39.038   3.881   7.537
 2214POPC   C1B31495  39.622   3.290   8.746
 2214POPC   C2B31496  39.772   3.462   8.325
 2214POPC   C3B31497  39.741   3.493   7.863
 2214POPC   C4B31498  39.865   3.239   7.468
 2215POPC   NC331499  42.815  15.154   9.748
 2215POPC   PO431500  43.348  15.147   9.331
 2215POPC   GL131501  43.067  15.321   9.108
 2215POPC   GL231502  42.827  15.100   9.250
 2215POPC   C1A31503  43.138  15.283   8.687
 2215POPC   D2A31504  43.122  15.468   8.320
 2215POPC   C3A31505  43.145  15.146   8.027
 2215POPC   C4A31506  43.237  15.150   7.621
 2215POPC   C1B31507  42.982  14.839   8.885
 2215POPC   C2B31508  43.199  14.794   8.478
 2215POPC   C3B31509  42.934  14.704   8.096
 2215POPC   C4B31510  42.868  14.804   7.671
 2216POPC   NC331511  26.952   2.111   9.779
 2216POPC   PO431512  27.510   1.868   9.476
 2216POPC   GL131513  27.420   1.968   9.100
 2216POPC   GL231514  27.109   1.760   9.121
 2216POPC   C1A31515  27.425   2.204   8.724
 2216POPC   D2A31516  27.344   2.258   8.294
 2216POPC   C3A31517  27.675   2.092   8.050
 2216POPC   C4A31518  27.949   2.281   7.739
 2216POPC   C1B31519  27.249   1.709   8.707
 2216POPC   C2B31520  27.139   1.788   8.311
 2216POPC   C3B31521  27.270   1.775   7.895
 2216POPC   C4B31522  27.508   1.460   7.744
 2217POPC   NC331523  17.892  11.867   9.355
 2217POPC   PO431524  18.401  12.247   9.563
 2217POPC   GL131525  18.530  12.118   9.142
 2217POPC   GL231526  18.338  11.806   9.125
 2217POPC   C1A31527  18.335  12.088   8.710
 2217POPC   D2A31528  18.058  12.216   8.367
 2217POPC   C3A31529  18.255  12.023   8.023
 2217POPC   C4A31530  18.371  12.079   7.613
 2217POPC   C1B31531  18.083  11.597   8.770
 2217POPC   C2B31532  18.022  11.693   8.330
 2217POPC   C3B31533  18.109  11.556   7.916
 2217POPC   C4B31534  18.180  11.622   7.470
 2218POPC   NC331535   5.934  28.166   9.414
 2218POPC   PO431536   5.761  27.549   9.484
 2218POPC   GL131537   5.814  27.411   9.077
 2218POPC   GL231538   5.695  27.749   8.991
 2218POPC   C1A31539   5.640  27.330   8.683
 2218POPC   D2A31540   5.605  27.548   8.306
 2218POPC   C3A31541   5.787  27.386   7.921
 2218POPC   C4A31542   6.073  27.621   7.639
 2218POPC   C1B31543   5.996  27.691   8.642
 2218POPC   C2B31544   6.102  27.701   8.196
 2218POPC   C3B31545   6.150  28.046   7.938
 2218POPC   C4B31546   5.878  28.339   7.771
 2219POPC   NC331547  35.809  11.241   9.291
 2219POPC   PO431548  36.216  11.742   9.602
 2219POPC   GL131549  36.297  11.598   9.166
 2219POPC   GL231550  36.336  11.284   9.221
 2219POPC   C1A31551  36.101  11.443   8.723
 2219POPC   D2A31552  36.125  11.133   8.358
 2219POPC   C3A31553  35.997  11.320   7.952
 2219POPC   C4A31554  35.812  11.699   7.768
 2219POPC   C1B31555  36.391  11.055   8.850
 2219POPC   C2B31556  36.634  11.078   8.497
 2219POPC   C3B31557  36.580  11.018   8.083
 2219POPC   C4B31558  36.464  11.273   7.791
 2220POPC   NC331559  21.748   7.752   9.546
 2220POPC   PO431560  21.283   7.319   9.491
 2220POPC   GL131561  21.357   7.629   9.176
 2220POPC   GL231562  21.080   7.844   9.243
 2220POPC   C1A31563  21.414   7.506   8.731
 2220POPC   D2A31564  21.405   7.121   8.456
 2220POPC   C3A31565  21.445   7.270   8.037
 2220POPC   C4A31566  21.521   7.460   7.628
 2220POPC   C1B31567  20.995   7.784   8.806
 2220POPC   C2B31568  21.158   7.956   8.430
 2220POPC   C3B31569  21.355   7.808   8.047
 2220POPC   C4B31570  21.653   7.947   7.750
 2221POPC   NC331571  39.855  14.913   9.605
 2221POPC   PO431572  40.426  14.776   9.417
 2221POPC   GL131573  40.092  14.929   9.137
 2221POPC   GL231574  39.870  15.225   9.151
 2221POPC   C1A31575  39.987  15.021   8.695
 2221POPC   D2A31576  39.855  15.000   8.275
 2221POPC   C3A31577  40.114  15.105   7.908
 2221POPC   C4A31578  40.222  15.186   7.452
 2221POPC   C1B31579  39.599  15.361   8.782
 2221POPC   C2B31580  39.637  15.478   8.341
 2221POPC   C3B31581  39.544  15.255   7.958
 2221POPC   C4B31582  39.396  15.359   7.555
 2222POPC   NC331583  32.543  33.687   9.483
 2222POPC   PO431584  33.167  33.974   9.591
 2222POPC   GL131585  32.922  33.960   9.197
 2222POPC   GL231586  32.649  34.170   9.172
 2222POPC   C1A31587  32.917  33.774   8.761
 2222POPC   D2A31588  33.151  33.665   8.351
 2222POPC   C3A31589  33.048  33.603   7.885
 2222POPC   C4A31590  33.308  33.575   7.476
 2222POPC   C1B31591  32.658  34.245   8.758
 2222POPC   C2B31592  32.658  34.005   8.388
 2222POPC   C3B31593  32.779  34.058   7.981
 2222POPC   C4B31594  32.704  33.890   7.591
 2223POPC   NC331595  43.573   6.094   9.578
 2223POPC   PO431596  43.169   5.539   9.599
 2223POPC   GL131597  43.246   5.673   9.138
 2223POPC   GL231598  43.568   5.828   9.125
 2223POPC   C1A31599  43.179   5.696   8.657
 2223POPC   D2A31600  43.000   5.613   8.224
 2223POPC   C3A31601  42.842   5.951   7.955
 2223POPC   C4A31602  42.764   5.959   7.511
 2223POPC   C1B31603  43.717   5.697   8.723
 2223POPC   C2B31604  43.569   5.671   8.285
 2223POPC   C3B31605  43.352   5.842   7.918
 2223POPC   C4B31606  43.213   5.653   7.537
 2224POPC   NC331607  34.150  35.617   9.384
 2224POPC   PO431608  34.641  35.168   9.407
 2224POPC   GL131609  34.758  35.333   9.045
 2224POPC   GL231610  34.421  35.416   8.994
 2224POPC   C1A31611  34.958  35.364   8.653
 2224POPC   D2A31612  34.734  35.207   8.280
 2224POPC   C3A31613  34.511  35.467   8.005
 2224POPC   C4A31614  34.615  35.465   7.562
 2224POPC   C1B31615  34.281  35.182   8.666
 2224POPC   C2B31616  34.204  35.090   8.256
 2224POPC   C3B31617  34.493  34.825   8.036
 2224POPC   C4B31618  34.752  34.996   7.678
 2225POPC   NC331619  40.265  22.316   9.505
 2225POPC   PO431620  39.621  22.238   9.498
 2225POPC   GL131621  39.931  22.159   9.127
 2225POPC   GL231622  40.299  22.011   9.089
 2225POPC   C1A31623  40.028  22.220   8.687
 2225POPC   D2A31624  40.185  22.094   8.278
 2225POPC   C3A31625  39.841  22.164   7.991
 2225POPC   C4A31626  39.586  21.960   7.673
 2225POPC   C1B31627  40.523  22.144   8.686
 2225POPC   C2B31628  40.442  22.538   8.428
 2225POPC   C3B31629  40.228  22.579   8.031
 2225POPC   C4B31630  40.278  22.223   7.756
 2226POPC   NC331631  27.033   2.229   9.292
 2226POPC   PO431632  26.711   1.731   9.696
 2226POPC   GL131633  26.608   1.785   9.218
 2226POPC   GL231634  26.641   2.109   9.009
 2226POPC   C1A31635  26.731   1.664   8.769
 2226POPC   D2A31636  26.670   1.506   8.337
 2226POPC   C3A31637  26.738   1.809   8.019
 2226POPC   C4A31638  26.812   1.839   7.612
 2226POPC   C1B31639  26.895   2.130   8.626
 2226POPC   C2B31640  26.789   2.284   8.210
 2226POPC   C3B31641  27.043   2.227   7.862
 2226POPC   C4B31642  27.429   2.278   7.664
 2227POPC   NC331643  25.639  17.067   9.668
 2227POPC   PO431644  25.970  16.607   9.317
 2227POPC   GL131645  25.920  16.776   8.954
 2227POPC   GL231646  25.709  17.058   9.090
 2227POPC   C1A31647  26.104  16.636   8.559
 2227POPC   D2A31648  26.522  16.718   8.375
 2227POPC   C3A31649  26.414  16.783   7.954
 2227POPC   C4A31650  26.028  16.614   7.762
 2227POPC   C1B31651  25.554  16.958   8.669
 2227POPC   C2B31652  25.665  16.757   8.317
 2227POPC   C3B31653  25.558  16.745   7.948
 2227POPC   C4B31654  25.662  16.944   7.620
 2228POPC   NC331655  44.182  16.318   9.533
 2228POPC   PO431656  43.651  16.022   9.425
 2228POPC   GL131657  43.980  16.010   9.141
 2228POPC   GL231658  44.308  15.856   9.271
 2228POPC   C1A31659  43.796  15.860   8.767
 2228POPC   D2A31660  43.692  15.680   8.387
 2228POPC   C3A31661  43.788  15.882   7.975
 2228POPC   C4A31662  43.674  15.891   7.488
 2228POPC   C1B31663  44.263  15.667   8.849
 2228POPC   C2B31664  44.169  15.850   8.428
 2228POPC   C3B31665  44.297  15.793   8.039
 2228POPC   C4B31666  44.129  15.681   7.666
 2229POPC   NC331667  44.296  36.919   9.683
 2229POPC   PO431668  44.844  37.204   9.498
 2229POPC   GL131669  44.613  36.931   9.173
 2229POPC   GL231670  44.274  36.716   9.177
 2229POPC   C1A31671  44.773  36.819   8.742
 2229POPC   D2A31672  44.741  36.750   8.272
 2229POPC   C3A31673  44.857  37.013   7.912
 2229POPC   C4A31674  44.914  37.041   7.429
 2229POPC   C1B31675  44.279  37.010   8.802
 2229POPC   C2B31676  44.546  37.201   8.465
 2229POPC   C3B31677  44.390  37.222   8.031
 2229POPC   C4B31678  43.984  36.991   7.865
 2230POPC   NC331679   3.019  25.200   9.609
 2230POPC   PO431680   3.350  24.750   9.453
 2230POPC   GL131681   3.376  25.129   9.176
 2230POPC   GL231682   3.177  25.441   9.155
 2230POPC   C1A31683   3.539  25.234   8.753
 2230POPC   D2A31684   3.793  25.207   8.363
 2230POPC   C3A31685   3.617  25.147   7.940
 2230POPC   C4A31686   3.817  25.071   7.528
 2230POPC   C1B31687   3.178  25.586   8.709
 2230POPC   C2B31688   3.293  25.391   8.310
 2230POPC   C3B31689   3.293  25.537   7.884
 2230POPC   C4B31690   3.652  25.584   7.596
 2231POPC   NC331691  29.401  19.932   9.513
 2231POPC   PO431692  28.913  19.448   9.414
 2231POPC   GL131693  29.083  19.705   9.106
 2231POPC   GL231694  29.174  20.060   9.082
 2231POPC   C1A31695  29.133  19.662   8.677
 2231POPC   D2A31696  29.085  19.474   8.300
 2231POPC   C3A31697  29.437  19.515   8.068
 2231POPC   C4A31698  29.313  19.430   7.667
 2231POPC   C1B31699  29.130  20.163   8.642
 2231POPC   C2B31700  29.199  19.988   8.221
 2231POPC   C3B31701  29.071  19.849   7.800
 2231POPC   C4B31702  28.956  19.924   7.343
 2232POPC   NC331703   5.508  12.779   9.658
 2232POPC   PO431704   6.060  12.638   9.332
 2232POPC   GL131705   6.061  12.800   8.991
 2232POPC   GL231706   5.712  12.901   9.058
 2232POPC   C1A31707   5.911  12.635   8.625
 2232POPC   D2A31708   5.657  12.757   8.310
 2232POPC   C3A31709   5.855  12.628   7.946
 2232POPC   C4A31710   6.181  12.815   7.793
 2232POPC   C1B31711   5.855  13.155   8.710
 2232POPC   C2B31712   5.672  13.448   8.473
 2232POPC   C3B31713   5.605  13.245   8.086
 2232POPC   C4B31714   5.883  13.215   7.740
 2233POPC   NC331715  36.257   0.758   9.476
 2233POPC   PO431716  35.682   0.337   9.512
 2233POPC   GL131717  35.937   0.379   9.173
 2233POPC   GL231718  36.110   0.074   9.191
 2233POPC   C1A31719  36.201   0.497   8.809
 2233POPC   D2A31720  36.434   0.650   8.432
 2233POPC   C3A31721  36.182   0.692   8.044
 2233POPC   C4A31722  36.030   0.520   7.650
 2233POPC   C1B31723  35.925   0.059   8.760
 2233POPC   C2B31724  36.034   0.272   8.359
 2233POPC   C3B31725  36.112   0.100   7.962
 2233POPC   C4B31726  35.856   0.050   7.605
 2234POPC   NC331727  26.472  34.153   9.533
 2234POPC   PO431728  26.920  33.687   9.618
 2234POPC   GL131729  26.916  33.681   9.207
 2234POPC   GL231730  26.801  34.032   9.173
 2234POPC   C1A31731  26.804  33.676   8.767
 2234POPC   D2A31732  26.550  33.556   8.430
 2234POPC   C3A31733  26.608  33.809   8.068
 2234POPC   C4A31734  26.503  33.876   7.636
 2234POPC   C1B31735  27.047  34.144   8.830
 2234POPC   C2B31736  26.915  34.064   8.425
 2234POPC   C3B31737  27.122  34.003   8.067
 2234POPC   C4B31738  27.000  34.004   7.685
 2235POPC   NC331739  11.318  28.053   9.519
 2235POPC   PO431740  11.424  27.405   9.506
 2235POPC   GL131741  11.306  27.475   9.083
 2235POPC   GL231742  11.035  27.252   9.043
 2235POPC   C1A31743  11.496  27.639   8.691
 2235POPC   D2A31744  11.593  27.977   8.377
 2235POPC   C3A31745  11.606  27.798   7.946
 2235POPC   C4A31746  11.390  27.451   7.754
 2235POPC   C1B31747  10.856  27.553   8.745
 2235POPC   C2B31748  10.969  27.586   8.296
 2235POPC   C3B31749  10.876  27.525   7.859
 2235POPC   C4B31750  10.991  27.858   7.601
 2236POPC   NC331751  10.512   9.012   9.439
 2236POPC   PO431752  11.000   8.614   9.140
 2236POPC   GL131753  10.677   8.804   8.989
 2236POPC   GL231754  10.418   8.581   9.132
 2236POPC   C1A31755  10.694   9.057   8.621
 2236POPC   D2A31756  10.746   8.911   8.191
 2236POPC   C3A31757  10.503   9.151   7.900
 2236POPC   C4A31758  10.148   9.377   7.982
 2236POPC   C1B31759  10.198   8.829   8.782
 2236POPC   C2B31760  10.260   8.980   8.358
 2236POPC   C3B31761  10.299   8.693   8.025
 2236POPC   C4B31762  10.612   8.672   7.744
 2237POPC   NC331763  31.070  17.810   9.634
 2237POPC   PO431764  31.652  17.399   9.526
 2237POPC   GL131765  31.297  17.446   9.282
 2237POPC   GL231766  31.339  17.121   9.160
 2237POPC   C1A31767  31.228  17.635   8.861
 2237POPC   D2A31768  31.124  17.589   8.410
 2237POPC   C3A31769  31.464  17.689   8.128
 2237POPC   C4A31770  31.753  17.423   7.868
 2237POPC   C1B31771  31.207  17.127   8.740
 2237POPC   C2B31772  31.453  17.183   8.403
 2237POPC   C3B31773  31.290  17.211   8.040
 2237POPC   C4B31774  31.233  17.456   7.727
 2238POPC   NC331775   6.015  37.743   9.781
 2238POPC   PO431776   5.621  37.257   9.792
 2238POPC   GL131777   6.002  37.415   9.392
 2238POPC   GL231778   5.991  37.760   9.265
 2238POPC   C1A31779   5.955  37.458   8.831
 2238POPC   D2A31780   5.889  37.614   8.362
 2238POPC   C3A31781   5.682  37.447   7.969
 2238POPC   C4A31782   5.585  37.360   7.513
 2238POPC   C1B31783   5.900  37.982   8.868
 2238POPC   C2B31784   5.864  38.128   8.434
 2238POPC   C3B31785   6.020  38.014   8.026
 2238POPC   C4B31786   5.988  37.764   7.681
 2239POPC   NC331787   3.397  14.683   9.561
 2239POPC   PO431788   3.824  15.173   9.392
 2239POPC   GL131789   3.501  15.182   9.053
 2239POPC   GL231790   3.636  15.467   8.929
 2239POPC   C1A31791   3.568  15.101   8.571
 2239POPC   D2A31792   3.833  15.185   8.195
 2239POPC   C3A31793   3.613  15.253   7.809
 2239POPC   C4A31794   3.375  14.944   7.542
 2239POPC   C1B31795   3.340  15.562   8.624
 2239POPC   C2B31796   3.378  15.540   8.181
 2239POPC   C3B31797   3.394  15.767   7.803
 2239POPC   C4B31798   3.728  15.672   7.495
 2240POPC   NC331799  16.871  30.450   9.522
 2240POPC   PO431800  16.433  31.012   9.503
 2240POPC   GL131801  16.623  30.916   9.029
 2240POPC   GL231802  16.893  30.664   9.028
 2240POPC   C1A31803  16.946  31.067   8.718
 2240POPC   D2A31804  17.001  30.964   8.304
 2240POPC   C3A31805  16.666  30.926   8.029
 2240POPC   C4A31806  16.908  30.770   7.697
 2240POPC   C1B31807  16.743  30.597   8.593
 2240POPC   C2B31808  16.817  30.434   8.142
 2240POPC   C3B31809  16.535  30.410   7.760
 2240POPC   C4B31810  16.395  30.460   7.287
 2241POPC   NC331811  19.151  14.367   9.384
 2241POPC   PO431812  18.627  14.845   9.334
 2241POPC   GL131813  18.840  14.544   9.042
 2241POPC   GL231814  18.730  14.181   9.157
 2241POPC   C1A31815  19.186  14.532   8.741
 2241POPC   D2A31816  19.419  14.538   8.365
 2241POPC   C3A31817  19.176  14.580   8.001
 2241POPC   C4A31818  19.097  14.249   7.712
 2241POPC   C1B31819  18.920  14.087   8.747
 2241POPC   C2B31820  18.933  14.237   8.319
 2241POPC   C3B31821  18.660  14.244   7.955
 2241POPC   C4B31822  18.645  14.193   7.471
 2242POPC   NC331823  37.941  42.223   9.569
 2242POPC   PO431824  37.403  42.648   9.405
 2242POPC   GL131825  37.543  42.238   9.197
 2242POPC   GL231826  37.871  42.011   9.132
 2242POPC   C1A31827  37.527  42.145   8.770
 2242POPC   D2A31828  37.541  42.348   8.369
 2242POPC   C3A31829  37.415  42.112   8.023
 2242POPC   C4A31830  37.569  42.374   7.676
 2242POPC   C1B31831  38.035  42.244   8.805
 2242POPC   C2B31832  37.940  42.020   8.433
 2242POPC   C3B31833  37.905  42.185   8.035
 2242POPC   C4B31834  37.808  41.936   7.683
 2243POPC   NC331835  28.243  28.403   9.440
 2243POPC   PO431836  28.549  27.906   9.142
 2243POPC   GL131837  28.424  28.260   9.008
 2243POPC   GL231838  28.699  28.469   9.128
 2243POPC   C1A31839  28.070  28.328   8.791
 2243POPC   D2A31840  28.083  28.379   8.379
 2243POPC   C3A31841  28.231  28.060   8.058
 2243POPC   C4A31842  28.221  28.163   7.585
 2243POPC   C1B31843  28.814  28.324   8.710
 2243POPC   C2B31844  28.591  28.375   8.351
 2243POPC   C3B31845  28.499  28.494   7.938
 2243POPC   C4B31846  28.733  28.315   7.611
 2244POPC   NC331847  42.097  28.537   9.505
 2244POPC   PO431848  42.502  28.100   9.472
 2244POPC   GL131849  42.322  28.275   9.111
 2244POPC   GL231850  42.425  28.624   9.126
 2244POPC   C1A31851  42.065  28.457   8.781
 2244POPC   D2A31852  42.140  28.493   8.365
 2244POPC   C3A31853  42.343  28.226   8.095
 2244POPC   C4A31854  42.202  28.115   7.693
 2244POPC   C1B31855  42.568  28.544   8.721
 2244POPC   C2B31856  42.577  28.787   8.361
 2244POPC   C3B31857  42.736  28.626   8.019
 2244POPC   C4B31858  42.564  28.481   7.700
 2245POPC   NC331859   4.672   3.580   9.632
 2245POPC   PO431860   4.041   3.226   9.858
 2245POPC   GL131861   4.147   3.341   9.375
 2245POPC   GL231862   4.385   3.597   9.198
 2245POPC   C1A31863   4.154   3.293   8.899
 2245POPC   D2A31864   4.187   3.614   8.580
 2245POPC   C3A31865   3.952   3.502   8.200
 2245POPC   C4A31866   4.027   3.415   7.781
 2245POPC   C1B31867   4.650   3.572   8.850
 2245POPC   C2B31868   4.676   3.306   8.503
 2245POPC   C3B31869   4.479   3.500   8.160
 2245POPC   C4B31870   4.373   3.824   7.864
 2246POPC   NC331871  16.801   4.740   9.760
 2246POPC   PO431872  16.490   5.348   9.715
 2246POPC   GL131873  16.660   5.100   9.353
 2246POPC   GL231874  16.322   4.962   9.291
 2246POPC   C1A31875  16.941   5.125   8.950
 2246POPC   D2A31876  16.975   4.962   8.504
 2246POPC   C3A31877  17.176   5.028   8.082
 2246POPC   C4A31878  17.077   5.053   7.632
 2246POPC   C1B31879  16.309   4.748   8.877
 2246POPC   C2B31880  16.482   4.777   8.457
 2246POPC   C3B31881  16.690   4.838   8.061
 2246POPC   C4B31882  16.564   4.987   7.670
 2247POPC   NC331883  40.365  43.313   9.496
 2247POPC   PO431884  39.810  42.915   9.494
 2247POPC   GL131885  39.999  43.117   9.170
 2247POPC   GL231886  40.341  43.003   9.088
 2247POPC   C1A31887  39.954  42.978   8.745
 2247POPC   D2A31888  40.042  42.779   8.356
 2247POPC   C3A31889  39.987  42.881   7.934
 2247POPC   C4A31890  39.745  42.953   7.597
 2247POPC   C1B31891  40.279  43.385   8.823
 2247POPC   C2B31892  40.343  43.523   8.381
 2247POPC   C3B31893  40.206  43.338   8.030
 2247POPC   C4B31894  39.821  43.368   7.873
 2248POPC   NC331895  29.743  29.067   9.548
 2248POPC   PO431896  30.223  29.048   9.111
 2248POPC   GL131897  29.813  29.164   9.007
 2248POPC   GL231898  29.666  28.840   9.081
 2248POPC   C1A31899  29.802  29.288   8.556
 2248POPC   D2A31900  30.123  29.510   8.267
 2248POPC   C3A31901  30.094  29.359   7.827
 2248POPC   C4A31902  30.175  29.519   7.398
 2248POPC   C1B31903  29.419  28.959   8.738
 2248POPC   C2B31904  29.352  29.093   8.332
 2248POPC   C3B31905  29.381  28.895   7.934
 2248POPC   C4B31906  29.771  28.893   7.745
 2249POPC   NC331907  37.162  23.760   9.605
 2249POPC   PO431908  36.553  23.502   9.502
 2249POPC   GL131909  36.795  23.793   9.241
 2249POPC   GL231910  37.024  23.541   9.145
 2249POPC   C1A31911  36.904  23.898   8.807
 2249POPC   D2A31912  36.836  23.666   8.420
 2249POPC   C3A31913  37.067  23.806   8.065
 2249POPC   C4A31914  36.953  24.152   7.813
 2249POPC   C1B31915  37.193  23.438   8.751
 2249POPC   C2B31916  37.133  23.252   8.332
 2249POPC   C3B31917  36.920  23.327   7.912
 2249POPC   C4B31918  37.021  23.416   7.428
 2250POPC   NC331919  31.922  35.378   9.653
 2250POPC   PO431920  32.565  35.589   9.665
 2250POPC   GL131921  32.406  35.433   9.247
 2250POPC   GL231922  32.135  35.678   9.092
 2250POPC   C1A31923  32.170  35.188   8.927
 2250POPC   D2A31924  32.077  35.225   8.477
 2250POPC   C3A31925  32.392  35.417   8.185
 2250POPC   C4A31926  32.488  35.314   7.753
 2250POPC   C1B31927  31.822  35.561   8.760
 2250POPC   C2B31928  31.713  35.548   8.291
 2250POPC   C3B31929  31.942  35.460   7.883
 2250POPC   C4B31930  32.176  35.625   7.511
 2251POPC   NC331931  40.602  13.364   9.466
 2251POPC   PO431932  41.222  13.566   9.353
 2251POPC   GL131933  40.895  13.550   9.033
 2251POPC   GL231934  40.600  13.744   9.100
 2251POPC   C1A31935  40.823  13.456   8.586
 2251POPC   D2A31936  40.641  13.442   8.197
 2251POPC   C3A31937  40.885  13.573   7.839
 2251POPC   C4A31938  40.819  13.300   7.458
 2251POPC   C1B31939  40.610  13.895   8.662
 2251POPC   C2B31940  40.525  13.954   8.215
 2251POPC   C3B31941  40.503  13.907   7.769
 2251POPC   C4B31942  40.708  13.776   7.391
 2252POPC   NC331943  35.779  17.835   9.599
 2252POPC   PO431944  35.689  18.457   9.488
 2252POPC   GL131945  35.903  18.190   9.202
 2252POPC   GL231946  35.802  17.872   9.072
 2252POPC   C1A31947  36.031  18.248   8.772
 2252POPC   D2A31948  36.195  18.207   8.379
 2252POPC   C3A31949  35.929  18.370   8.075
 2252POPC   C4A31950  36.004  18.411   7.672
 2252POPC   C1B31951  35.730  17.838   8.625
 2252POPC   C2B31952  35.883  17.866   8.167
 2252POPC   C3B31953  36.248  18.001   7.884
 2252POPC   C4B31954  36.371  18.143   7.434
 2253POPC   NC331955  26.714  13.918   9.474
 2253POPC   PO431956  27.305  13.687   9.524
 2253POPC   GL131957  27.029  13.736   9.116
 2253POPC   GL231958  26.677  13.607   9.042
 2253POPC   C1A31959  26.981  13.830   8.679
 2253POPC   D2A31960  27.114  13.678   8.291
 2253POPC   C3A31961  26.923  13.761   7.915
 2253POPC   C4A31962  26.566  13.585   7.739
 2253POPC   C1B31963  26.428  13.544   8.625
 2253POPC   C2B31964  26.462  13.778   8.207
 2253POPC   C3B31965  26.461  14.064   7.830
 2253POPC   C4B31966  26.343  13.901   7.375
 2254POPC   NC331967  26.081  17.964   9.647
 2254POPC   PO431968  25.692  18.548   9.603
 2254POPC   GL131969  25.936  18.302   9.285
 2254POPC   GL231970  26.304  18.373   9.233
 2254POPC   C1A31971  25.914  18.114   8.868
 2254POPC   D2A31972  25.750  18.250   8.441
 2254POPC   C3A31973  26.010  18.169   8.084
 2254POPC   C4A31974  26.133  17.890   7.774
 2254POPC   C1B31975  26.089  18.611   8.907
 2254POPC   C2B31976  26.002  18.700   8.475
 2254POPC   C3B31977  25.851  18.669   8.046
 2254POPC   C4B31978  26.089  18.521   7.700
 2255POPC   NC331979  42.075  29.499   9.415
 2255POPC   PO431980  41.339  29.386   9.517
 2255POPC   GL131981  41.616  29.335   9.191
 2255POPC   GL231982  41.594  29.030   9.011
 2255POPC   C1A31983  41.805  29.469   8.806
 2255POPC   D2A31984  41.701  29.605   8.392
 2255POPC   C3A31985  41.748  29.269   8.136
 2255POPC   C4A31986  41.918  29.202   7.745
 2255POPC   C1B31987  41.455  29.166   8.586
 2255POPC   C2B31988  41.320  29.023   8.191
 2255POPC   C3B31989  41.310  29.203   7.822
 2255POPC   C4B31990  41.403  29.064   7.385
 2256POPC   NC331991  31.498  27.340   9.457
 2256POPC   PO431992  31.073  27.854   9.414
 2256POPC   GL131993  31.441  27.718   9.100
 2256POPC   GL231994  31.743  27.459   9.030
 2256POPC   C1A31995  31.552  27.756   8.668
 2256POPC   D2A31996  31.495  28.056   8.382
 2256POPC   C3A31997  31.522  27.794   8.054
 2256POPC   C4A31998  31.293  27.473   7.834
 2256POPC   C1B31999  31.424  27.259   8.772
 2256POPC   C2B32000  31.410  27.351   8.335
 2256POPC   C3B32001  31.735  27.330   7.993
 2256POPC   C4B32002  31.616  27.126   7.583
 2257POPC   NC332003  19.299  42.744   9.543
 2257POPC   PO432004  18.994  42.116   9.387
 2257POPC   GL132005  19.136  42.419   9.120
 2257POPC   GL232006  18.990  42.741   9.151
 2257POPC   C1A32007  19.177  42.518   8.699
 2257POPC   D2A32008  19.009  42.311   8.368
 2257POPC   C3A32009  19.236  42.213   8.030
 2257POPC   C4A32010  18.986  42.181   7.671
 2257POPC   C1B32011  18.729  42.787   8.799
 2257POPC   C2B32012  18.803  42.828   8.355
 2257POPC   C3B32013  19.020  42.698   7.978
 2257POPC   C4B32014  19.107  42.649   7.527
 2258POPC   NC332015  36.406  38.411   9.501
 2258POPC   PO432016  35.774  38.740   9.487
 2258POPC   GL132017  36.065  38.593   9.178
 2258POPC   GL232018  36.079  38.215   9.110
 2258POPC   C1A32019  36.282  38.581   8.802
 2258POPC   D2A32020  36.036  38.651   8.424
 2258POPC   C3A32021  36.179  38.522   8.043
 2258POPC   C4A32022  36.215  38.701   7.664
 2258POPC   C1B32023  36.080  38.168   8.628
 2258POPC   C2B32024  35.853  38.172   8.223
 2258POPC   C3B32025  36.049  38.057   7.804
 2258POPC   C4B32026  35.821  38.092   7.384
 2259POPC   NC332027  13.884  12.327   9.579
 2259POPC   PO432028  13.542  12.918   9.537
 2259POPC   GL132029  13.778  12.877   9.169
 2259POPC   GL232030  13.453  12.807   9.040
 2259POPC   C1A32031  13.855  12.865   8.708
 2259POPC   D2A32032  13.646  12.976   8.347
 2259POPC   C3A32033  13.760  12.885   7.899
 2259POPC   C4A32034  13.684  12.666   7.491
 2259POPC   C1B32035  13.280  12.974   8.697
 2259POPC   C2B32036  13.137  12.817   8.325
 2259POPC   C3B32037  13.349  12.598   8.022
 2259POPC   C4B32038  13.249  12.844   7.707
 2260POPC   NC332039  28.283  34.050   9.622
 2260POPC   PO432040  27.880  33.472   9.436
 2260POPC   GL132041  28.153  33.823   9.185
 2260POPC   GL232042  28.112  34.217   9.176
 2260POPC   C1A32043  28.436  33.920   8.811
 2260POPC   D2A32044  28.629  33.816   8.378
 2260POPC   C3A32045  28.339  33.645   8.042
 2260POPC   C4A32046  28.195  33.824   7.619
 2260POPC   C1B32047  28.024  34.225   8.745
 2260POPC   C2B32048  28.306  34.227   8.394
 2260POPC   C3B32049  28.392  34.141   7.990
 2260POPC   C4B32050  27.941  34.084   7.995
 2261POPC   NC332051   2.183  24.650   9.609
 2261POPC   PO432052   1.907  25.326   9.516
 2261POPC   GL132053   1.981  25.259   9.163
 2261POPC   GL232054   2.232  25.040   9.219
 2261POPC   C1A32055   1.896  25.440   8.786
 2261POPC   D2A32056   1.801  25.285   8.376
 2261POPC   C3A32057   1.892  25.510   7.999
 2261POPC   C4A32058   1.645  25.372   7.658
 2261POPC   C1B32059   2.056  24.948   8.784
 2261POPC   C2B32060   2.187  24.852   8.355
 2261POPC   C3B32061   2.074  25.002   7.959
 2261POPC   C4B32062   1.750  24.870   7.715
 2262POPC   NC332063  31.523  10.739   9.546
 2262POPC   PO432064  31.058  10.241   9.642
 2262POPC   GL132065  31.201  10.372   9.206
 2262POPC   GL232066  31.564  10.354   9.120
 2262POPC   C1A32067  31.181  10.430   8.768
 2262POPC   D2A32068  31.438  10.274   8.477
 2262POPC   C3A32069  31.379  10.406   8.083
 2262POPC   C4A32070  31.463  10.166   7.737
 2262POPC   C1B32071  31.622  10.675   8.830
 2262POPC   C2B32072  31.404  10.837   8.467
 2262POPC   C3B32073  31.602  10.895   8.071
 2262POPC   C4B32074  31.613  10.658   7.699
 2263POPC   NC332075  35.530  26.402   9.587
 2263POPC   PO432076  35.127  26.893   9.504
 2263POPC   GL132077  35.201  26.699   9.159
 2263POPC   GL232078  35.550  26.683   9.178
 2263POPC   C1A32079  35.246  26.797   8.749
 2263POPC   D2A32080  35.458  26.655   8.428
 2263POPC   C3A32081  35.236  26.690   8.048
 2263POPC   C4A32082  35.515  26.579   7.730
 2263POPC   C1B32083  35.628  27.069   8.970
 2263POPC   C2B32084  35.689  27.133   8.544
 2263POPC   C3B32085  35.576  27.063   8.113
 2263POPC   C4B32086  35.645  27.070   7.673
 2264POPC   NC332087  31.122  33.033   9.780
 2264POPC   PO432088  30.492  33.103   9.511
 2264POPC   GL132089  30.586  32.819   9.151
 2264POPC   GL232090  30.941  32.719   9.061
 2264POPC   C1A32091  30.455  32.988   8.746
 2264POPC   D2A32092  30.610  33.335   8.480
 2264POPC   C3A32093  30.602  33.158   8.085
 2264POPC   C4A32094  30.404  33.207   7.720
 2264POPC   C1B32095  30.971  33.019   8.685
 2264POPC   C2B32096  31.092  33.176   8.262
 2264POPC   C3B32097  31.059  33.194   7.791
 2264POPC   C4B32098  31.144  32.932   7.407
 2265POPC   NC332099  37.888   4.255   9.319
 2265POPC   PO432100  38.497   4.357   9.605
 2265POPC   GL132101  38.567   4.500   9.227
 2265POPC   GL232102  38.241   4.654   9.224
 2265POPC   C1A32103  38.559   4.317   8.828
 2265POPC   D2A32104  38.323   4.313   8.464
 2265POPC   C3A32105  38.475   4.110   8.111
 2265POPC   C4A32106  38.805   4.217   7.838
 2265POPC   C1B32107  38.121   4.665   8.791
 2265POPC   C2B32108  37.999   4.679   8.337
 2265POPC   C3B32109  38.338   4.622   8.045
 2265POPC   C4B32110  38.349   4.392   7.664
 2266POPC   NC332111   0.727  22.089   9.432
 2266POPC   PO432112   0.063  22.292   9.477
 2266POPC   GL132113   0.338  22.180   9.079
 2266POPC   GL232114   0.465  21.813   9.084
 2266POPC   C1A32115   0.622  22.208   8.657
 2266POPC   D2A32116   0.864  22.447   8.328
 2266POPC   C3A32117   0.605  22.451   7.931
 2266POPC   C4A32118   0.196  22.252   7.826
 2266POPC   C1B32119   0.243  21.871   8.685
 2266POPC   C2B32120   0.326  21.964   8.243
 2266POPC   C3B32121   0.283  21.710   7.864
 2266POPC   C4B32122   0.370  21.697   7.413
 2267POPC   NC332123  43.772  18.693   9.471
 2267POPC   PO432124  44.033  17.995   9.520
 2267POPC   GL132125  43.913  18.275   9.219
 2267POPC   GL232126  44.198  18.504   9.240
 2267POPC   C1A32127  43.748  18.209   8.822
 2267POPC   D2A32128  43.693  18.464   8.443
 2267POPC   C3A32129  43.708  18.285   8.054
 2267POPC   C4A32130  43.610  18.580   7.734
 2267POPC   C1B32131  44.287  18.240   8.867
 2267POPC   C2B32132  44.109  18.177   8.467
 2267POPC   C3B32133  44.231  18.245   8.095
 2267POPC   C4B32134  44.097  18.433   7.734
 2268POPC   NC332135  35.536  12.005   9.474
 2268POPC   PO432136  34.898  11.849   9.614
 2268POPC   GL132137  35.102  12.004   9.218
 2268POPC   GL232138  35.241  11.662   9.233
 2268POPC   C1A32139  35.422  12.136   8.860
 2268POPC   D2A32140  35.587  12.342   8.482
 2268POPC   C3A32141  35.646  12.057   8.129
 2268POPC   C4A32142  35.421  12.116   7.780
 2268POPC   C1B32143  35.308  11.613   8.819
 2268POPC   C2B32144  35.324  11.807   8.440
 2268POPC   C3B32145  35.167  11.755   8.023
 2268POPC   C4B32146  35.341  11.648   7.589
 2269POPC   NC332147  20.390  32.628   9.591
 2269POPC   PO432148  20.721  33.264   9.528
 2269POPC   GL132149  20.684  32.917   9.246
 2269POPC   GL232150  20.359  32.943   9.135
 2269POPC   C1A32151  20.732  32.841   8.804
 2269POPC   D2A32152  20.766  33.060   8.425
 2269POPC   C3A32153  20.643  32.950   8.011
 2269POPC   C4A32154  21.005  32.864   7.772
 2269POPC   C1B32155  20.305  33.118   8.708
 2269POPC   C2B32156  20.365  33.356   8.323
 2269POPC   C3B32157  20.362  33.373   7.871
 2269POPC   C4B32158  20.137  33.186   7.540
 2270POPC   NC332159   7.876  40.199   9.382
 2270POPC   PO432160   8.616  39.983   9.421
 2270POPC   GL132161   8.274  39.939   9.148
 2270POPC   GL232162   8.441  40.201   8.973
 2270POPC   C1A32163   8.089  39.678   8.802
 2270POPC   D2A32164   8.192  39.646   8.326
 2270POPC   C3A32165   8.148  39.885   7.909
 2270POPC   C4A32166   8.406  40.093   7.621
 2270POPC   C1B32167   8.068  40.169   8.726
 2270POPC   C2B32168   8.105  40.199   8.302
 2270POPC   C3B32169   8.085  40.454   7.944
 2270POPC   C4B32170   7.856  40.369   7.583
 2271POPC   NC332171  31.784  43.505   9.641
 2271POPC   PO432172  31.303  42.956   9.759
 2271POPC   GL132173  31.394  42.955   9.273
 2271POPC   GL232174  31.273  42.625   9.139
 2271POPC   C1A32175  31.456  42.975   8.802
 2271POPC   D2A32176  31.673  43.202   8.454
 2271POPC   C3A32177  31.431  43.229   8.056
 2271POPC   C4A32178  31.316  43.215   7.616
 2271POPC   C1B32179  31.249  42.529   8.686
 2271POPC   C2B32180  31.280  42.817   8.332
 2271POPC   C3B32181  31.148  42.814   7.911
 2271POPC   C4B32182  31.104  42.759   7.501
 2272POPC   NC332183   7.534   8.683   9.718
 2272POPC   PO432184   7.394   8.071   9.685
 2272POPC   GL132185   7.275   7.978   9.223
 2272POPC   GL232186   7.439   8.185   8.958
 2272POPC   C1A32187   7.230   7.757   8.809
 2272POPC   D2A32188   7.392   8.014   8.460
 2272POPC   C3A32189   7.232   7.991   8.044
 2272POPC   C4A32190   7.260   8.104   7.636
 2272POPC   C1B32191   7.378   8.512   8.638
 2272POPC   C2B32192   7.599   8.629   8.263
 2272POPC   C3B32193   7.583   8.496   7.833
 2272POPC   C4B32194   7.657   8.650   7.396
 2273POPC   NC332195  37.157   1.454   9.546
 2273POPC   PO432196  36.538   1.149   9.513
 2273POPC   GL132197  36.743   0.898   9.203
 2273POPC   GL232198  36.911   1.226   9.113
 2273POPC   C1A32199  36.941   0.841   8.786
 2273POPC   D2A32200  37.098   1.179   8.513
 2273POPC   C3A32201  36.804   1.184   8.187
 2273POPC   C4A32202  36.740   1.030   7.791
 2273POPC   C1B32203  37.161   1.549   8.898
 2273POPC   C2B32204  37.228   1.702   8.486
 2273POPC   C3B32205  37.201   1.528   8.080
 2273POPC   C4B32206  37.276   1.715   7.681
 2274POPC   NC332207  25.553   5.693   9.460
 2274POPC   PO432208  25.173   6.207   9.399
 2274POPC   GL132209  25.238   5.896   9.075
 2274POPC   GL232210  25.601   5.961   9.030
 2274POPC   C1A32211  25.019   5.760   8.672
 2274POPC   D2A32212  24.785   5.917   8.270
 2274POPC   C3A32213  24.812   5.628   7.907
 2274POPC   C4A32214  25.179   5.730   7.675
 2274POPC   C1B32215  25.570   5.647   8.712
 2274POPC   C2B32216  25.446   5.786   8.307
 2274POPC   C3B32217  25.635   5.816   7.914
 2274POPC   C4B32218  25.651   5.548   7.589
 2275POPC   NC332219   7.607  16.932   9.901
 2275POPC   PO432220   7.395  17.492   9.509
 2275POPC   GL132221   7.446  17.325   9.132
 2275POPC   GL232222   7.127  17.209   9.108
 2275POPC   C1A32223   7.411  17.290   8.693
 2275POPC   D2A32224   7.458  17.651   8.462
 2275POPC   C3A32225   7.334  17.594   8.098
 2275POPC   C4A32226   7.508  17.359   7.780
 2275POPC   C1B32227   7.116  17.661   8.866
 2275POPC   C2B32228   7.066  18.006   8.512
 2275POPC   C3B32229   6.834  18.009   8.094
 2275POPC   C4B32230   7.035  17.780   7.737
 2276POPC   NC332231  33.588  43.717   9.483
 2276POPC   PO432232  34.317  43.541   9.376
 2276POPC   GL132233  34.068  43.843   9.082
 2276POPC   GL232234  33.705  43.782   9.008
 2276POPC   C1A32235  33.993  43.970   8.650
 2276POPC   D2A32236  33.869  43.870   8.262
 2276POPC   C3A32237  34.141  44.001   7.906
 2276POPC   C4A32238  33.939  43.995   7.496
 2276POPC   C1B32239  33.464  43.514   8.731
 2276POPC   C2B32240  33.576  43.436   8.288
 2276POPC   C3B32241  33.499  43.738   7.944
 2276POPC   C4B32242  33.529  43.726   7.545
 2277POPC   NC332243  20.112  20.443   9.413
 2277POPC   PO432244  19.587  20.773   9.714
 2277POPC   GL132245  19.740  20.767   9.287
 2277POPC   GL232246  19.486  20.892   9.120
 2277POPC   C1A32247  19.775  20.565   8.843
 2277POPC   D2A32248  19.783  20.657   8.378
 2277POPC   C3A32249  20.034  20.355   8.089
 2277POPC   C4A32250  20.005  20.230   7.621
 2277POPC   C1B32251  19.333  20.841   8.739
 2277POPC   C2B32252  19.299  21.023   8.367
 2277POPC   C3B32253  19.470  20.982   7.990
 2277POPC   C4B32254  19.795  20.726   7.836
 2278POPC   NC332255  25.177  12.335  10.083
 2278POPC   PO432256  25.147  11.796   9.629
 2278POPC   GL132257  25.188  12.141   9.319
 2278POPC   GL232258  25.509  12.106   9.197
 2278POPC   C1A32259  25.116  12.194   8.835
 2278POPC   D2A32260  25.105  11.925   8.452
 2278POPC   C3A32261  25.023  12.061   8.020
 2278POPC   C4A32262  25.053  11.871   7.589
 2278POPC   C1B32263  25.613  12.092   8.764
 2278POPC   C2B32264  25.468  12.323   8.385
 2278POPC   C3B32265  25.529  12.123   7.996
 2278POPC   C4B32266  25.519  12.193   7.579
 2279POPC   NC332267  20.058  34.326   9.370
 2279POPC   PO432268  19.685  34.841   9.636
 2279POPC   GL132269  19.838  34.762   9.191
 2279POPC   GL232270  19.811  34.457   8.957
 2279POPC   C1A32271  20.074  34.829   8.787
 2279POPC   D2A32272  20.021  34.565   8.421
 2279POPC   C3A32273  19.795  34.617   8.049
 2279POPC   C4A32274  19.957  34.697   7.661
 2279POPC   C1B32275  19.507  34.240   8.737
 2279POPC   C2B32276  19.338  34.310   8.347
 2279POPC   C3B32277  19.398  34.303   7.920
 2279POPC   C4B32278  19.767  34.231   7.686
 2280POPC   NC332279  23.862  19.677   9.603
 2280POPC   PO432280  24.143  20.150   9.533
 2280POPC   GL132281  23.841  19.965   9.164
 2280POPC   GL232282  23.744  19.586   9.102
 2280POPC   C1A32283  23.830  19.891   8.678
 2280POPC   D2A32284  23.673  19.710   8.258
 2280POPC   C3A32285  23.686  19.953   7.859
 2280POPC   C4A32286  23.714  20.169   7.447
 2280POPC   C1B32287  23.795  19.373   8.668
 2280POPC   C2B32288  23.846  19.222   8.227
 2280POPC   C3B32289  23.944  19.484   7.849
 2280POPC   C4B32290  24.064  19.405   7.389
 2281POPC   NC332291  30.321  21.104   9.565
 2281POPC   PO432292  30.959  21.473   9.504
 2281POPC   GL132293  30.850  21.487   9.057
 2281POPC   GL232294  30.527  21.363   8.983
 2281POPC   C1A32295  30.847  21.654   8.608
 2281POPC   D2A32296  30.745  21.699   8.164
 2281POPC   C3A32297  30.925  21.400   7.893
 2281POPC   C4A32298  30.755  20.992   7.740
 2281POPC   C1B32299  30.520  21.863   8.926
 2281POPC   C2B32300  30.429  21.995   8.503
 2281POPC   C3B32301  30.241  21.832   8.112
 2281POPC   C4B32302  30.446  21.710   7.727
 2282POPC   NC332303  31.903  44.888   9.520
 2282POPC   PO432304  32.040  44.195   9.406
 2282POPC   GL132305  32.083  44.417   9.068
 2282POPC   GL232306  32.302  44.704   9.080
 2282POPC   C1A32307  32.028  44.260   8.682
 2282POPC   D2A32308  31.890  44.449   8.317
 2282POPC   C3A32309  32.111  44.731   8.078
 2282POPC   C4A32310  32.242  44.439   7.803
 2282POPC   C1B32311  32.239  44.707   8.617
 2282POPC   C2B32312  32.483  44.475   8.300
 2282POPC   C3B32313  32.657  44.696   7.954
 2282POPC   C4B32314  32.540   0.098   7.781
 2283POPC   NC332315   0.463  26.827   9.548
 2283POPC   PO432316  44.945  26.322   9.644
 2283POPC   GL132317   0.111  26.570   9.235
 2283POPC   GL232318   0.484  26.549   9.118
 2283POPC   C1A32319   0.260  26.985   8.965
 2283POPC   D2A32320   0.575  27.130   8.638
 2283POPC   C3A32321   0.486  27.143   8.179
 2283POPC   C4A32322   0.397  26.840   7.834
 2283POPC   C1B32323   0.461  26.605   8.648
 2283POPC   C2B32324   0.518  26.311   8.283
 2283POPC   C3B32325   0.594  26.380   7.825
 2283POPC   C4B32326   0.421  26.418   7.375
 2284POPC   NC332327  25.160   0.819   9.524
 2284POPC   PO432328  25.188   1.436   9.267
 2284POPC   GL132329  25.137   1.071   9.062
 2284POPC   GL232330  25.462   0.914   9.140
 2284POPC   C1A32331  25.099   1.172   8.634
 2284POPC   D2A32332  25.188   1.419   8.315
 2284POPC   C3A32333  25.013   1.265   7.972
 2284POPC   C4A32334  24.973   1.317   7.534
 2284POPC   C1B32335  25.474   0.862   8.734
 2284POPC   C2B32336  25.615   1.063   8.391
 2284POPC   C3B32337  25.450   1.041   8.056
 2284POPC   C4B32338  25.372   1.019   7.649
 2285POPC   NC332339  26.462  34.831   9.423
 2285POPC   PO432340  26.891  34.385   9.594
 2285POPC   GL132341  26.924  34.551   9.154
 2285POPC   GL232342  27.133  34.895   9.179
 2285POPC   C1A32343  26.700  34.478   8.699
 2285POPC   D2A32344  26.453  34.291   8.343
 2285POPC   C3A32345  26.603  34.305   7.922
 2285POPC   C4A32346  26.628  34.647   7.655
 2285POPC   C1B32347  26.813  34.945   8.837
 2285POPC   C2B32348  26.676  35.000   8.408
 2285POPC   C3B32349  26.822  34.936   8.009
 2285POPC   C4B32350  26.773  35.142   7.597
 2286POPC   NC332351  20.739  27.430   9.446
 2286POPC   PO432352  20.240  27.876   9.438
 2286POPC   GL132353  20.526  27.775   9.104
 2286POPC   GL232354  20.908  27.774   9.104
 2286POPC   C1A32355  20.489  27.502   8.749
 2286POPC   D2A32356  20.641  27.390   8.338
 2286POPC   C3A32357  20.373  27.528   7.960
 2286POPC   C4A32358  20.472  27.409   7.526
 2286POPC   C1B32359  20.994  27.633   8.684
 2286POPC   C2B32360  20.934  27.823   8.255
 2286POPC   C3B32361  20.879  27.549   7.892
 2286POPC   C4B32362  21.112  27.250   7.664
 2287POPC   NC332363  21.727   1.350   9.558
 2287POPC   PO432364  21.085   1.072   9.495
 2287POPC   GL132365  21.178   1.326   9.154
 2287POPC   GL232366  21.505   1.182   9.055
 2287POPC   C1A32367  21.234   1.522   8.799
 2287POPC   D2A32368  21.451   1.256   8.525
 2287POPC   C3A32369  21.425   1.314   8.100
 2287POPC   C4A32370  21.427   0.973   7.754
 2287POPC   C1B32371  21.130   0.950   8.826
 2287POPC   C2B32372  20.901   0.908   8.446
 2287POPC   C3B32373  21.006   1.029   8.040
 2287POPC   C4B32374  21.059   1.338   7.735
 2288POPC   NC332375  22.147  30.919   9.509
 2288POPC   PO432376  21.824  30.360   9.532
 2288POPC   GL132377  21.966  30.610   9.157
 2288POPC   GL232378  22.298  30.790   9.037
 2288POPC   C1A32379  21.894  30.757   8.753
 2288POPC   D2A32380  22.095  30.804   8.380
 2288POPC   C3A32381  21.884  30.895   7.999
 2288POPC   C4A32382  22.000  30.720   7.609
 2288POPC   C1B32383  22.334  30.474   8.768
 2288POPC   C2B32384  22.468  30.430   8.348
 2288POPC   C3B32385  22.344  30.594   7.980
 2288POPC   C4B32386  22.255  30.296   7.716
 2289POPC   NC332387  35.355  14.541   9.537
 2289POPC   PO432388  34.948  14.001   9.263
 2289POPC   GL132389  35.224  14.349   9.099
 2289POPC   GL232390  35.084  14.648   9.116
 2289POPC   C1A32391  35.564  14.341   8.748
 2289POPC   D2A32392  35.702  14.644   8.407
 2289POPC   C3A32393  35.464  14.629   8.055
 2289POPC   C4A32394  35.435  14.264   7.832
 2289POPC   C1B32395  35.035  14.346   8.660
 2289POPC   C2B32396  35.061  14.349   8.209
 2289POPC   C3B32397  34.922  14.123   7.882
 2289POPC   C4B32398  34.802  14.203   7.483
 2290POPC   NC332399  19.156  20.613   9.650
 2290POPC   PO432400  18.906  20.075   9.492
 2290POPC   GL132401  19.079  20.363   9.185
 2290POPC   GL232402  19.431  20.362   9.169
 2290POPC   C1A32403  18.900  20.541   8.825
 2290POPC   D2A32404  18.868  20.761   8.458
 2290POPC   C3A32405  18.960  20.784   8.002
 2290POPC   C4A32406  18.721  20.765   7.614
 2290POPC   C1B32407  19.338  20.332   8.700
 2290POPC   C2B32408  19.305  20.522   8.280
 2290POPC   C3B32409  19.348  20.473   7.839
 2290POPC   C4B32410  19.125  20.414   7.452
 2291POPC   NC332411  22.367  27.601   9.780
 2291POPC   PO432412  21.834  27.324   9.529
 2291POPC   GL132413  22.179  27.408   9.271
 2291POPC   GL232414  22.357  27.709   9.225
 2291POPC   C1A32415  22.074  27.492   8.828
 2291POPC   D2A32416  21.863  27.452   8.418
 2291POPC   C3A32417  21.830  27.830   8.186
 2291POPC   C4A32418  21.892  27.883   7.763
 2291POPC   C1B32419  22.494  27.811   8.813
 2291POPC   C2B32420  22.300  27.750   8.404
 2291POPC   C3B32421  22.282  27.615   7.972
 2291POPC   C4B32422  22.450  27.888   7.676
 2292POPC   NC332423   1.870   1.529   9.237
 2292POPC   PO432424   2.066   0.999   9.501
 2292POPC   GL132425   1.804   0.998   9.130
 2292POPC   GL232426   2.039   1.179   8.919
 2292POPC   C1A32427   1.712   0.932   8.670
 2292POPC   D2A32428   2.074   0.966   8.407
 2292POPC   C3A32429   1.982   1.195   8.049
 2292POPC   C4A32430   2.025   0.991   7.637
 2292POPC   C1B32431   1.937   1.431   8.577
 2292POPC   C2B32432   2.068   1.679   8.274
 2292POPC   C3B32433   1.854   1.725   7.928
 2292POPC   C4B32434   2.100   1.515   7.659
 2293POPC   NC332435  35.800  35.064   9.589
 2293POPC   PO432436  36.331  35.351   9.583
 2293POPC   GL132437  36.212  35.358   9.134
 2293POPC   GL232438  35.862  35.340   9.128
 2293POPC   C1A32439  36.363  35.411   8.707
 2293POPC   D2A32440  36.165  35.410   8.312
 2293POPC   C3A32441  36.377  35.319   7.929
 2293POPC   C4A32442  36.341  35.577   7.559
 2293POPC   C1B32443  35.890  35.177   8.696
 2293POPC   C2B32444  35.780  35.096   8.240
 2293POPC   C3B32445  35.827  35.351   7.876
 2293POPC   C4B32446  36.031  35.177   7.539
 2294POPC   NC332447  36.568  41.729   9.399
 2294POPC   PO432448  37.002  41.219   9.532
 2294POPC   GL132449  37.128  41.465   9.191
 2294POPC   GL232450  36.795  41.459   9.045
 2294POPC   C1A32451  37.162  41.701   8.801
 2294POPC   D2A32452  36.904  41.600   8.425
 2294POPC   C3A32453  37.124  41.627   8.042
 2294POPC   C4A32454  37.157  41.892   7.657
 2294POPC   C1B32455  36.619  41.140   8.826
 2294POPC   C2B32456  36.636  41.122   8.387
 2294POPC   C3B32457  36.729  41.286   8.000
 2294POPC   C4B32458  36.793  41.537   7.635
 2295POPC   NC332459  36.834  37.855   9.403
 2295POPC   PO432460  37.235  37.400   9.546
 2295POPC   GL132461  37.060  37.520   9.124
 2295POPC   GL232462  36.728  37.385   9.127
 2295POPC   C1A32463  37.065  37.874   8.791
 2295POPC   D2A32464  36.882  37.985   8.426
 2295POPC   C3A32465  37.011  37.855   8.044
 2295POPC   C4A32466  37.124  38.080   7.670
 2295POPC   C1B32467  36.731  37.499   8.723
 2295POPC   C2B32468  36.603  37.586   8.328
 2295POPC   C3B32469  36.493  37.944   8.082
 2295POPC   C4B32470  36.638  37.841   7.696
 2296POPC   NC332471  38.619  32.615   9.484
 2296POPC   PO432472  38.458  31.932   9.485
 2296POPC   GL132473  38.476  32.202   9.186
 2296POPC   GL232474  38.830  32.229   9.228
 2296POPC   C1A32475  38.494  32.168   8.745
 2296POPC   D2A32476  38.458  32.026   8.282
 2296POPC   C3A32477  38.266  32.225   7.921
 2296POPC   C4A32478  38.488  32.243   7.533
 2296POPC   C1B32479  38.912  32.467   8.867
 2296POPC   C2B32480  38.857  32.334   8.434
 2296POPC   C3B32481  38.726  32.407   8.040
 2296POPC   C4B32482  38.814  32.626   7.671
 2297POPC   NC332483  40.487  41.702   9.540
 2297POPC   PO432484  41.039  41.184   9.498
 2297POPC   GL132485  40.841  41.508   9.173
 2297POPC   GL232486  40.584  41.780   9.054
 2297POPC   C1A32487  40.913  41.511   8.735
 2297POPC   D2A32488  41.063  41.176   8.458
 2297POPC   C3A32489  40.890  41.263   8.079
 2297POPC   C4A32490  40.940  41.598   7.770
 2297POPC   C1B32491  40.466  41.730   8.633
 2297POPC   C2B32492  40.490  41.583   8.211
 2297POPC   C3B32493  40.437  41.806   7.841
 2297POPC   C4B32494  40.308  41.811   7.398
 2298POPC   NC332495  36.250   1.557   9.511
 2298POPC   PO432496  35.831   1.017   9.475
 2298POPC   GL132497  36.158   1.168   9.168
 2298POPC   GL232498  35.968   1.452   9.100
 2298POPC   C1A32499  36.423   1.053   8.804
 2298POPC   D2A32500  36.282   1.131   8.365
 2298POPC   C3A32501  36.324   1.240   7.948
 2298POPC   C4A32502  36.198   0.992   7.593
 2298POPC   C1B32503  36.154   1.495   8.691
 2298POPC   C2B32504  36.134   1.633   8.214
 2298POPC   C3B32505  35.894   1.467   7.792
 2298POPC   C4B32506  36.018   1.415   7.331
 2299POPC   NC332507  34.311  34.832   9.454
 2299POPC   PO432508  34.766  34.374   9.518
 2299POPC   GL132509  34.509  34.492   9.135
 2299POPC   GL232510  34.511  34.859   9.009
 2299POPC   C1A32511  34.344  34.510   8.697
 2299POPC   D2A32512  34.219  34.175   8.409
 2299POPC   C3A32513  34.289  34.336   7.976
 2299POPC   C4A32514  34.383  34.590   7.607
 2299POPC   C1B32515  34.760  34.897   8.687
 2299POPC   C2B32516  35.079  34.708   8.445
 2299POPC   C3B32517  35.029  34.732   8.029
 2299POPC   C4B32518  34.855  34.505   7.740
 2300POPC   NC332519  39.810  13.916   9.539
 2300POPC   PO432520  39.807  14.536   9.869
 2300POPC   GL132521  39.969  14.467   9.374
 2300POPC   GL232522  40.120  14.170   9.219
 2300POPC   C1A32523  39.991  14.514   8.870
 2300POPC   D2A32524  39.933  14.419   8.395
 2300POPC   C3A32525  39.948  14.603   7.948
 2300POPC   C4A32526  40.174  14.688   7.577
 2300POPC   C1B32527  40.144  13.967   8.845
 2300POPC   C2B32528  40.057  13.901   8.411
 2300POPC   C3B32529  40.078  14.100   7.982
 2300POPC   C4B32530  40.143  14.181   7.522
 2301POPC   NC332531   5.750  39.388   9.741
 2301POPC   PO432532   6.100  38.903   9.531
 2301POPC   GL132533   6.002  39.247   9.267
 2301POPC   GL232534   5.746  39.027   9.121
 2301POPC   C1A32535   5.954  39.434   8.843
 2301POPC   D2A32536   6.037  39.286   8.416
 2301POPC   C3A32537   5.904  39.458   8.014
 2301POPC   C4A32538   6.012  39.290   7.597
 2301POPC   C1B32539   5.666  39.024   8.668
 2301POPC   C2B32540   5.581  39.094   8.222
 2301POPC   C3B32541   5.565  39.151   7.770
 2301POPC   C4B32542   5.637  39.102   7.303
 2302POPC   NC332543  27.267  41.400   9.633
 2302POPC   PO432544  27.687  41.869   9.665
 2302POPC   GL132545  27.637  41.690   9.242
 2302POPC   GL232546  27.300  41.673   9.202
 2302POPC   C1A32547  27.822  41.602   8.808
 2302POPC   D2A32548  27.931  41.733   8.372
 2302POPC   C3A32549  27.728  41.514   8.021
 2302POPC   C4A32550  27.639  41.675   7.576
 2302POPC   C1B32551  27.344  41.820   8.807
 2302POPC   C2B32552  27.431  41.631   8.433
 2302POPC   C3B32553  27.229  41.388   8.122
 2302POPC   C4B32554  27.176  41.487   7.690
 2303POPC   NC332555  43.466  22.637   9.470
 2303POPC   PO432556  42.809  22.716   9.195
 2303POPC   GL132557  43.221  22.899   9.111
 2303POPC   GL232558  43.310  23.214   9.208
 2303POPC   C1A32559  43.395  22.798   8.763
 2303POPC   D2A32560  43.159  22.882   8.413
 2303POPC   C3A32561  42.993  22.660   8.135
 2303POPC   C4A32562  43.082  22.770   7.726
 2303POPC   C1B32563  43.231  23.274   8.762
 2303POPC   C2B32564  43.500  23.230   8.411
 2303POPC   C3B32565  43.333  23.189   7.985
 2303POPC   C4B32566  43.600  23.257   7.628
 2304POPC   NC332567   6.900  37.352   9.528
 2304POPC   PO432568   6.466  36.885   9.407
 2304POPC   GL132569   6.636  37.137   9.118
 2304POPC   GL232570   6.918  36.908   9.104
 2304POPC   C1A32571   6.779  37.193   8.691
 2304POPC   D2A32572   6.617  36.931   8.352
 2304POPC   C3A32573   6.689  37.175   8.014
 2304POPC   C4A32574   6.541  37.064   7.643
 2304POPC   C1B32575   6.918  36.699   8.694
 2304POPC   C2B32576   7.013  36.482   8.287
 2304POPC   C3B32577   6.786  36.644   7.937
 2304POPC   C4B32578   6.326  36.629   7.779
 2305POPC   NC332579  14.989   6.335   9.378
 2305POPC   PO432580  15.582   6.643   9.430
 2305POPC   GL132581  15.323   6.823   9.119
 2305POPC   GL232582  14.949   6.821   9.115
 2305POPC   C1A32583  15.338   6.961   8.708
 2305POPC   D2A32584  15.442   6.760   8.326
 2305POPC   C3A32585  15.426   6.932   7.885
 2305POPC   C4A32586  15.333   6.706   7.476
 2305POPC   C1B32587  15.061   6.505   8.765
 2305POPC   C2B32588  14.883   6.379   8.373
 2305POPC   C3B32589  15.061   6.584   8.013
 2305POPC   C4B32590  14.855   6.696   7.648
 2306POPC   NC332591   0.812  16.907   9.221
 2306POPC   PO432592   0.352  16.419   9.423
 2306POPC   GL132593   0.347  16.764   9.121
 2306POPC   GL232594   0.583  16.574   8.936
 2306POPC   C1A32595   0.358  17.006   8.717
 2306POPC   D2A32596   0.234  16.824   8.311
 2306POPC   C3A32597   0.406  17.019   7.965
 2306POPC   C4A32598   0.581  16.832   7.626
 2306POPC   C1B32599   0.264  16.500   8.697
 2306POPC   C2B32600   0.504  16.317   8.381
 2306POPC   C3B32601   0.543  16.501   8.015
 2306POPC   C4B32602   0.448  16.355   7.625
 2307POPC   NC332603   7.960  18.721   9.439
 2307POPC   PO432604   8.157  18.017   9.501
 2307POPC   GL132605   7.993  18.162   9.092
 2307POPC   GL232606   8.150  18.482   9.018
 2307POPC   C1A32607   7.945  18.127   8.624
 2307POPC   D2A32608   7.775  17.986   8.225
 2307POPC   C3A32609   7.949  18.205   7.900
 2307POPC   C4A32610   8.367  18.272   7.767
 2307POPC   C1B32611   8.347  18.460   8.609
 2307POPC   C2B32612   8.493  18.527   8.191
 2307POPC   C3B32613   8.387  18.804   7.832
 2307POPC   C4B32614   8.344  18.669   7.396
 2308POPC   NC332615  42.692  42.959   9.558
 2308POPC   PO432616  42.190  43.429   9.541
 2308POPC   GL132617  42.307  43.124   9.255
 2308POPC   GL232618  42.618  43.230   9.154
 2308POPC   C1A32619  42.131  43.052   8.868
 2308POPC   D2A32620  42.161  43.158   8.439
 2308POPC   C3A32621  42.240  42.901   8.092
 2308POPC   C4A32622  42.100  43.041   7.677
 2308POPC   C1B32623  42.825  43.071   8.805
 2308POPC   C2B32624  42.661  43.003   8.410
 2308POPC   C3B32625  42.662  43.189   8.026
 2308POPC   C4B32626  42.601  42.942   7.678
 2309POPC   NC332627  22.768  28.182   9.543
 2309POPC   PO432628  22.585  28.750   9.425
 2309POPC   GL132629  22.991  28.655   9.187
 2309POPC   GL232630  23.115  28.308   9.184
 2309POPC   C1A32631  23.124  28.549   8.743
 2309POPC   D2A32632  23.130  28.346   8.339
 2309POPC   C3A32633  23.120  28.603   7.949
 2309POPC   C4A32634  22.844  28.710   7.579
 2309POPC   C1B32635  22.706  28.291   8.883
 2309POPC   C2B32636  22.671  28.119   8.430
 2309POPC   C3B32637  22.797  28.180   7.980
 2309POPC   C4B32638  22.945  27.915   7.641
 2310POPC   NC332639  30.839  15.524   9.422
 2310POPC   PO432640  30.553  16.132   9.475
 2310POPC   GL132641  30.616  15.925   9.123
 2310POPC   GL232642  30.955  15.921   9.117
 2310POPC   C1A32643  30.709  16.122   8.724
 2310POPC   D2A32644  30.573  16.042   8.318
 2310POPC   C3A32645  30.508  16.318   7.995
 2310POPC   C4A32646  30.452  15.946   7.775
 2310POPC   C1B32647  30.926  15.658   8.772
 2310POPC   C2B32648  31.046  15.859   8.391
 2310POPC   C3B32649  30.948  16.027   7.949
 2310POPC   C4B32650  30.884  16.020   7.489
 2311POPC   NC332651  17.030  44.970   9.807
 2311POPC   PO432652  16.610   0.444   9.544
 2311POPC   GL132653  16.817   0.583   9.222
 2311POPC   GL232654  16.516   0.624   9.039
 2311POPC   C1A32655  16.948   0.364   8.844
 2311POPC   D2A32656  16.784   0.122   8.484
 2311POPC   C3A32657  16.786   0.364   8.144
 2311POPC   C4A32658  16.921   0.450   7.775
 2311POPC   C1B32659  16.571   0.603   8.579
 2311POPC   C2B32660  16.430   0.753   8.190
 2311POPC   C3B32661  16.404   0.521   7.810
 2311POPC   C4B32662  16.361   0.099   7.620
 2312POPC   NC332663  42.261  41.247   9.385
 2312POPC   PO432664  42.612  41.718   9.584
 2312POPC   GL132665  42.593  41.658   9.148
 2312POPC   GL232666  42.232  41.684   9.054
 2312POPC   C1A32667  42.650  41.578   8.707
 2312POPC   D2A32668  42.837  41.665   8.281
 2312POPC   C3A32669  42.504  41.725   7.959
 2312POPC   C4A32670  42.234  41.731   7.574
 2312POPC   C1B32671  42.181  41.406   8.691
 2312POPC   C2B32672  42.368  41.359   8.311
 2312POPC   C3B32673  42.226  41.312   7.888
 2312POPC   C4B32674  41.929  41.082   7.645
 2313POPC   NC332675   2.797  44.433   9.459
 2313POPC   PO432676   2.416   0.062   9.489
 2313POPC   GL132677   2.651  44.828   9.170
 2313POPC   GL232678   2.981  44.941   9.027
 2313POPC   C1A32679   2.568  44.776   8.753
 2313POPC   D2A32680   2.419  44.899   8.357
 2313POPC   C3A32681   2.590  44.588   8.137
 2313POPC   C4A32682   2.683  44.616   7.734
 2313POPC   C1B32683   2.994  44.503   8.829
 2313POPC   C2B32684   2.953  44.328   8.423
 2313POPC   C3B32685   3.085  44.601   8.086
 2313POPC   C4B32686   3.184  44.510   7.682
 2314POPC   NC332687  33.787  11.533   9.502
 2314POPC   PO432688  34.404  11.231   9.521
 2314POPC   GL132689  34.036  10.994   9.273
 2314POPC   GL232690  33.641  11.007   9.293
 2314POPC   C1A32691  33.889  11.180   8.875
 2314POPC   D2A32692  33.922  11.499   8.564
 2314POPC   C3A32693  33.829  11.450   8.156
 2314POPC   C4A32694  34.016  11.149   7.906
 2314POPC   C1B32695  33.402  10.963   8.894
 2314POPC   C2B32696  33.543  11.105   8.467
 2314POPC   C3B32697  33.500  11.043   8.007
 2314POPC   C4B32698  33.614  11.365   7.698
 2315POPC   NC332699  33.818   9.981   9.663
 2315POPC   PO432700  33.803  10.650   9.659
 2315POPC   GL132701  33.753  10.509   9.242
 2315POPC   GL232702  33.543  10.197   9.260
 2315POPC   C1A32703  33.811  10.688   8.802
 2315POPC   D2A32704  34.021  10.848   8.413
 2315POPC   C3A32705  33.870  10.659   8.018
 2315POPC   C4A32706  33.814  10.823   7.586
 2315POPC   C1B32707  33.768  10.197   8.855
 2315POPC   C2B32708  33.829  10.296   8.447
 2315POPC   C3B32709  33.744  10.134   8.081
 2315POPC   C4B32710  33.699  10.276   7.694
 2316POPC   NC332711  27.712  36.264   9.527
 2316POPC   PO432712  27.030  35.939   9.527
 2316POPC   GL132713  27.435  35.980   9.233
 2316POPC   GL232714  27.511  36.319   9.065
 2316POPC   C1A32715  27.521  35.914   8.782
 2316POPC   D2A32716  27.545  36.138   8.383
 2316POPC   C3A32717  27.661  35.943   7.981
 2316POPC   C4A32718  27.847  36.003   7.564
 2316POPC   C1B32719  27.867  36.342   8.734
 2316POPC   C2B32720  28.033  36.248   8.309
 2316POPC   C3B32721  27.907  36.390   7.876
 2316POPC   C4B32722  28.026  36.440   7.409
 2317POPC   NC332723  11.366   8.492   9.425
 2317POPC   PO432724  10.957   7.931   9.459
 2317POPC   GL132725  11.167   8.128   9.094
 2317POPC   GL232726  11.481   8.351   8.978
 2317POPC   C1A32727  11.351   7.970   8.702
 2317POPC   D2A32728  11.425   8.292   8.391
 2317POPC   C3A32729  11.244   8.182   8.001
 2317POPC   C4A32730  11.158   7.828   7.720
 2317POPC   C1B32731  11.686   8.648   8.727
 2317POPC   C2B32732  11.810   8.611   8.314
 2317POPC   C3B32733  11.629   8.539   7.897
 2317POPC   C4B32734  11.447   8.474   7.460
 2318POPC   NC332735  23.995  17.068   9.532
 2318POPC   PO432736  23.831  16.378   9.323
 2318POPC   GL132737  23.692  16.559   8.979
 2318POPC   GL232738  23.652  16.857   9.162
 2318POPC   C1A32739  23.653  16.644   8.520
 2318POPC   D2A32740  23.300  16.830   8.256
 2318POPC   C3A32741  23.428  16.864   7.804
 2318POPC   C4A32742  23.853  16.721   7.642
 2318POPC   C1B32743  23.834  17.055   8.801
 2318POPC   C2B32744  23.661  17.154   8.403
 2318POPC   C3B32745  23.840  17.136   7.998
 2318POPC   C4B32746  23.766  17.224   7.600
 2319POPC   NC332747  33.365  35.624   9.362
 2319POPC   PO432748  33.909  35.200   9.416
 2319POPC   GL132749  33.758  35.489   9.078
 2319POPC   GL232750  33.961  35.613   8.839
 2319POPC   C1A32751  33.424  35.625   8.729
 2319POPC   D2A32752  33.396  35.501   8.297
 2319POPC   C3A32753  33.836  35.510   8.163
 2319POPC   C4A32754  34.025  35.591   7.775
 2319POPC   C1B32755  33.750  35.244   8.644
 2319POPC   C2B32756  33.654  35.041   8.275
 2319POPC   C3B32757  33.857  35.039   7.881
 2319POPC   C4B32758  34.247  35.136   7.709
 2320POPC   NC332759   2.899  13.852   9.381
 2320POPC   PO432760   2.622  13.386   9.655
 2320POPC   GL132761   2.751  13.415   9.202
 2320POPC   GL232762   2.545  13.618   9.080
 2320POPC   C1A32763   2.947  13.585   8.769
 2320POPC   D2A32764   2.936  13.739   8.313
 2320POPC   C3A32765   2.859  13.442   7.938
 2320POPC   C4A32766   2.778  13.400   7.437
 2320POPC   C1B32767   2.447  13.781   8.710
 2320POPC   C2B32768   2.423  13.978   8.363
 2320POPC   C3B32769   2.556  13.851   7.983
 2320POPC   C4B32770   2.388  13.549   7.714
 2321POPC   NC332771   4.913  28.499   9.546
 2321POPC   PO432772   5.484  28.190   9.493
 2321POPC   GL132773   5.304  28.489   9.227
 2321POPC   GL232774   5.234  28.850   9.320
 2321POPC   C1A32775   5.023  28.466   8.856
 2321POPC   D2A32776   5.028  28.135   8.539
 2321POPC   C3A32777   5.205  28.145   8.132
 2321POPC   C4A32778   4.952  28.346   7.857
 2321POPC   C1B32779   5.399  28.824   8.885
 2321POPC   C2B32780   5.277  28.692   8.446
 2321POPC   C3B32781   5.312  28.681   7.979
 2321POPC   C4B32782   5.086  28.694   7.537
 2322POPC   NC332783  36.795   3.067   9.412
 2322POPC   PO432784  37.253   2.562   9.503
 2322POPC   GL132785  37.056   2.673   9.134
 2322POPC   GL232786  36.711   2.689   9.099
 2322POPC   C1A32787  36.989   2.488   8.747
 2322POPC   D2A32788  37.064   2.671   8.350
 2322POPC   C3A32789  36.977   2.976   8.055
 2322POPC   C4A32790  37.100   2.810   7.687
 2322POPC   C1B32791  36.785   2.956   8.744
 2322POPC   C2B32792  36.585   3.074   8.366
 2322POPC   C3B32793  36.420   2.898   8.011
 2322POPC   C4B32794  36.602   2.925   7.630
 2323POPC   NC332795  10.221  38.518   9.732
 2323POPC   PO432796  10.665  38.908   9.462
 2323POPC   GL132797  10.612  38.578   9.134
 2323POPC   GL232798  10.307  38.379   9.132
 2323POPC   C1A32799  10.638  38.388   8.703
 2323POPC   D2A32800  10.478  38.570   8.300
 2323POPC   C3A32801  10.820  38.444   8.047
 2323POPC   C4A32802  10.955  38.120   7.781
 2323POPC   C1B32803  10.146  38.542   8.720
 2323POPC   C2B32804  10.079  38.913   8.448
 2323POPC   C3B32805  10.150  38.853   8.004
 2323POPC   C4B32806  10.405  38.543   7.783
 2324POPC   NC332807  13.939  15.767   9.480
 2324POPC   PO432808  13.593  16.376   9.474
 2324POPC   GL132809  13.532  16.170   9.105
 2324POPC   GL232810  13.480  15.833   9.182
 2324POPC   C1A32811  13.850  16.004   8.830
 2324POPC   D2A32812  13.816  15.868   8.412
 2324POPC   C3A32813  13.777  16.195   8.103
 2324POPC   C4A32814  13.961  16.199   7.703
 2324POPC   C1B32815  13.440  15.675   8.747
 2324POPC   C2B32816  13.340  15.812   8.293
 2324POPC   C3B32817  13.526  15.833   7.839
 2324POPC   C4B32818  13.339  15.813   7.405
 2325POPC   NC332819   2.474  36.939   9.566
 2325POPC   PO432820   3.115  36.700   9.423
 2325POPC   GL132821   2.892  36.970   9.078
 2325POPC   GL232822   2.519  37.114   9.089
 2325POPC   C1A32823   2.956  36.913   8.616
 2325POPC   D2A32824   2.943  36.555   8.283
 2325POPC   C3A32825   3.111  36.716   7.876
 2325POPC   C4A32826   3.075  36.532   7.461
 2325POPC   C1B32827   2.495  36.731   8.865
 2325POPC   C2B32828   2.501  36.728   8.442
 2325POPC   C3B32829   2.628  36.892   8.047
 2325POPC   C4B32830   2.492  37.267   7.824
 2326POPC   NC332831  14.209  40.635   9.487
 2326POPC   PO432832  13.923  41.197   9.473
 2326POPC   GL132833  14.144  41.053   9.127
 2326POPC   GL232834  14.475  40.916   9.155
 2326POPC   C1A32835  14.134  40.767   8.817
 2326POPC   D2A32836  14.344  40.671   8.450
 2326POPC   C3A32837  14.206  40.766   8.049
 2326POPC   C4A32838  14.411  40.504   7.808
 2326POPC   C1B32839  14.534  41.073   8.722
 2326POPC   C2B32840  14.440  41.157   8.263
 2326POPC   C3B32841  14.525  41.080   7.799
 2326POPC   C4B32842  14.455  41.263   7.353
 2327POPC   NC332843  25.326  32.542   9.495
 2327POPC   PO432844  25.036  31.940   9.501
 2327POPC   GL132845  25.239  32.131   9.172
 2327POPC   GL232846  24.978  32.370   9.152
 2327POPC   C1A32847  25.409  32.077   8.753
 2327POPC   D2A32848  25.614  32.055   8.342
 2327POPC   C3A32849  25.268  32.011   8.063
 2327POPC   C4A32850  25.184  31.979   7.611
 2327POPC   C1B32851  25.263  32.577   8.842
 2327POPC   C2B32852  25.310  32.491   8.419
 2327POPC   C3B32853  25.254  32.520   8.018
 2327POPC   C4B32854  24.946  32.414   7.735
 2328POPC   NC332855  20.827  43.525   9.863
 2328POPC   PO432856  20.494  42.957   9.458
 2328POPC   GL132857  20.654  42.917   9.061
 2328POPC   GL232858  20.560  43.215   8.973
 2328POPC   C1A32859  20.678  42.887   8.607
 2328POPC   D2A32860  20.982  42.789   8.291
 2328POPC   C3A32861  20.842  42.811   7.865
 2328POPC   C4A32862  20.709  43.064   7.501
 2328POPC   C1B32863  20.715  43.463   8.710
 2328POPC   C2B32864  20.850  43.321   8.346
 2328POPC   C3B32865  20.623  43.466   8.017
 2328POPC   C4B32866  20.668  43.571   7.610
 2329POPC   NC332867  44.436  20.153   9.543
 2329POPC   PO432868  44.949  19.660   9.493
 2329POPC   GL132869  44.753  19.903   9.157
 2329POPC   GL232870  44.379  19.830   9.162
 2329POPC   C1A32871  44.619  19.808   8.729
 2329POPC   D2A32872  44.477  19.879   8.359
 2329POPC   C3A32873  44.776  19.997   8.141
 2329POPC   C4A32874   0.026  19.887   7.814
 2329POPC   C1B32875  44.323  20.201   8.881
 2329POPC   C2B32876  44.320  20.375   8.472
 2329POPC   C3B32877  44.317  20.250   8.038
 2329POPC   C4B32878  44.476  19.978   7.723
 2330POPC   NC332879   5.801   7.467   9.519
 2330POPC   PO432880   6.487   7.671   9.498
 2330POPC   GL132881   6.108   7.640   9.140
 2330POPC   GL232882   5.818   7.350   9.036
 2330POPC   C1A32883   6.076   7.556   8.668
 2330POPC   D2A32884   5.981   7.245   8.348
 2330POPC   C3A32885   5.945   7.426   7.970
 2330POPC   C4A32886   5.678   7.405   7.654
 2330POPC   C1B32887   5.518   7.552   8.708
 2330POPC   C2B32888   5.530   7.591   8.264
 2330POPC   C3B32889   5.505   7.838   7.899
 2330POPC   C4B32890   5.447   7.858   7.450
 2331POPC   NC332891  22.509   5.859   9.517
 2331POPC   PO432892  21.873   5.649   9.482
 2331POPC   GL132893  21.848   5.822   9.089
 2331POPC   GL232894  22.195   5.920   9.096
 2331POPC   C1A32895  21.996   5.696   8.653
 2331POPC   D2A32896  22.380   5.764   8.407
 2331POPC   C3A32897  22.289   5.899   8.005
 2331POPC   C4A32898  21.938   5.735   7.811
 2331POPC   C1B32899  22.010   6.194   8.786
 2331POPC   C2B32900  22.114   6.206   8.383
 2331POPC   C3B32901  22.062   6.496   8.099
 2331POPC   C4B32902  21.860   6.472   7.696
 2332POPC   NC332903  24.296  15.066   9.443
 2332POPC   PO432904  24.398  15.714   9.563
 2332POPC   GL132905  24.412  15.506   9.161
 2332POPC   GL232906  24.717  15.385   9.233
 2332POPC   C1A32907  24.327  15.306   8.736
 2332POPC   D2A32908  24.220  15.035   8.341
 2332POPC   C3A32909  24.294  15.216   7.936
 2332POPC   C4A32910  24.429  15.502   7.679
 2332POPC   C1B32911  24.744  15.060   8.933
 2332POPC   C2B32912  24.688  14.929   8.528
 2332POPC   C3B32913  24.701  14.922   8.087
 2332POPC   C4B32914  24.785  14.695   7.717
 2333POPC   NC332915  33.369  16.574   9.437
 2333POPC   PO432916  34.011  16.872   9.505
 2333POPC   GL132917  33.767  16.767   9.180
 2333POPC   GL232918  33.554  17.010   9.243
 2333POPC   C1A32919  33.594  16.613   8.794
 2333POPC   D2A32920  33.495  16.486   8.362
 2333POPC   C3A32921  33.708  16.653   8.002
 2333POPC   C4A32922  33.604  16.437   7.635
 2333POPC   C1B32923  33.459  17.120   8.843
 2333POPC   C2B32924  33.543  17.005   8.438
 2333POPC   C3B32925  33.546  17.166   8.035
 2333POPC   C4B32926  33.506  16.968   7.645
 2334POPC   NC332927  10.176  24.820   9.569
 2334POPC   PO432928   9.629  24.633   9.525
 2334POPC   GL132929   9.912  24.607   9.165
 2334POPC   GL232930   9.893  24.949   9.096
 2334POPC   C1A32931  10.063  24.628   8.726
 2334POPC   D2A32932  10.270  24.533   8.317
 2334POPC   C3A32933   9.921  24.390   8.062
 2334POPC   C4A32934   9.868  24.315   7.620
 2334POPC   C1B32935   9.641  24.919   8.691
 2334POPC   C2B32936   9.608  24.747   8.265
 2334POPC   C3B32937   9.534  24.817   7.823
 2334POPC   C4B32938   9.468  25.166   7.580
 2335POPC   NC332939  34.808  26.541   9.463
 2335POPC   PO432940  34.373  27.011   9.427
 2335POPC   GL132941  34.449  26.690   9.134
 2335POPC   GL232942  34.172  26.555   9.066
 2335POPC   C1A32943  34.724  26.644   8.782
 2335POPC   D2A32944  34.863  26.833   8.395
 2335POPC   C3A32945  34.688  26.728   8.012
 2335POPC   C4A32946  34.744  26.901   7.611
 2335POPC   C1B32947  34.097  26.871   8.728
 2335POPC   C2B32948  34.236  26.924   8.266
 2335POPC   C3B32949  34.278  26.944   7.803
 2335POPC   C4B32950  34.328  26.707   7.383
 2336POPC   NC332951   2.682  15.379   9.513
 2336POPC   PO432952   2.948  14.757   9.635
 2336POPC   GL132953   2.903  14.969   9.184
 2336POPC   GL232954   2.918  15.349   9.071
 2336POPC   C1A32955   3.080  15.024   8.746
 2336POPC   D2A32956   2.993  15.287   8.381
 2336POPC   C3A32957   3.146  15.090   8.013
 2336POPC   C4A32958   2.850  15.060   7.692
 2336POPC   C1B32959   2.612  15.226   8.714
 2336POPC   C2B32960   2.353  15.266   8.345
 2336POPC   C3B32961   2.397  15.221   7.916
 2336POPC   C4B32962   2.243  15.084   7.536
 2337POPC   NC332963  27.310  42.101   9.512
 2337POPC   PO432964  27.890  42.197   9.209
 2337POPC   GL132965  27.706  42.546   8.996
 2337POPC   GL232966  27.371  42.643   9.132
 2337POPC   C1A32967  27.937  42.630   8.617
 2337POPC   D2A32968  28.091  42.261   8.433
 2337POPC   C3A32969  27.762  42.167   8.125
 2337POPC   C4A32970  27.412  42.367   7.880
 2337POPC   C1B32971  27.267  42.339   8.785
 2337POPC   C2B32972  27.312  42.126   8.370
 2337POPC   C3B32973  27.364  41.876   7.970
 2337POPC   C4B32974  27.152  41.987   7.544
 2338POPC   NC332975  31.682  29.164   9.666
 2338POPC   PO432976  32.405  29.291   9.572
 2338POPC   GL132977  32.478  29.194   9.102
 2338POPC   GL232978  32.393  28.841   8.924
 2338POPC   C1A32979  32.490  29.218   8.614
 2338POPC   D2A32980  32.097  29.189   8.410
 2338POPC   C3A32981  32.129  29.195   7.972
 2338POPC   C4A32982  32.404  29.302   7.633
 2338POPC   C1B32983  32.668  28.626   8.641
 2338POPC   C2B32984  32.548  28.722   8.246
 2338POPC   C3B32985  32.494  28.863   7.861
 2338POPC   C4B32986  32.427  28.815   7.405
 2339POPC   NC332987   5.223   7.896   9.624
 2339POPC   PO432988   5.063   7.271   9.693
 2339POPC   GL132989   4.992   7.309   9.239
 2339POPC   GL232990   5.023   7.674   9.205
 2339POPC   C1A32991   5.208   7.137   8.841
 2339POPC   D2A32992   5.512   7.060   8.493
 2339POPC   C3A32993   5.431   7.140   8.047
 2339POPC   C4A32994   5.202   7.426   7.780
 2339POPC   C1B32995   4.891   7.529   8.770
 2339POPC   C2B32996   5.010   7.434   8.309
 2339POPC   C3B32997   4.860   7.737   7.951
 2339POPC   C4B32998   4.910   7.684   7.458
 2340POPC   NC332999  43.298  36.925   9.749
 2340POPC   PO433000  42.769  36.861   9.465
 2340POPC   GL133001  43.044  37.009   9.146
 2340POPC   GL233002  43.319  36.817   9.243
 2340POPC   C1A33003  43.018  37.079   8.690
 2340POPC   D2A33004  43.122  37.341   8.326
 2340POPC   C3A33005  43.016  37.176   7.938
 2340POPC   C4A33006  42.759  36.831   7.890
 2340POPC   C1B33007  43.358  36.713   8.808
 2340POPC   C2B33008  43.419  36.887   8.389
 2340POPC   C3B33009  43.479  36.757   7.979
 2340POPC   C4B33010  43.222  36.824   7.608
 2341POPC   NC333011   5.423  10.728   9.650
 2341POPC   PO433012   4.855  10.372   9.501
 2341POPC   GL133013   5.210  10.414   9.239
 2341POPC   GL233014   5.383  10.087   9.184
 2341POPC   C1A33015   5.119  10.605   8.817
 2341POPC   D2A33016   4.840  10.412   8.517
 2341POPC   C3A33017   4.951  10.488   8.090
 2341POPC   C4A33018   4.845  10.444   7.662
 2341POPC   C1B33019   5.532  10.321   8.799
 2341POPC   C2B33020   5.362  10.369   8.379
 2341POPC   C3B33021   5.436  10.308   7.949
 2341POPC   C4B33022   5.314  10.316   7.514
 2342POPC   NC333023  14.106  41.627   9.412
 2342POPC   PO433024  13.422  41.800   9.442
 2342POPC   GL133025  13.517  41.564   9.053
 2342POPC   GL233026  13.844  41.452   8.993
 2342POPC   C1A33027  13.456  41.635   8.606
 2342POPC   D2A33028  13.198  41.734   8.258
 2342POPC   C3A33029  13.383  41.858   7.911
 2342POPC   C4A33030  13.638  41.517   7.849
 2342POPC   C1B33031  14.034  41.252   8.612
 2342POPC   C2B33032  13.946  41.227   8.146
 2342POPC   C3B33033  14.076  41.323   7.714
 2342POPC   C4B33034  13.875  41.360   7.302
 2343POPC   NC333035  20.086  35.029   9.772
 2343POPC   PO433036  19.811  35.677   9.639
 2343POPC   GL133037  19.852  35.411   9.269
 2343POPC   GL233038  20.037  35.655   9.086
 2343POPC   C1A33039  19.699  35.156   8.911
 2343POPC   D2A33040  19.659  34.924   8.504
 2343POPC   C3A33041  19.877  35.094   8.175
 2343POPC   C4A33042  19.677  35.109   7.775
 2343POPC   C1B33043  20.019  35.470   8.669
 2343POPC   C2B33044  20.154  35.520   8.258
 2343POPC   C3B33045  19.955  35.504   7.860
 2343POPC   C4B33046  19.730  35.726   7.560
 2344POPC   NC333047   4.950  34.271   9.437
 2344POPC   PO433048   5.465  34.634   9.406
 2344POPC   GL133049   5.203  34.576   9.056
 2344POPC   GL233050   4.860  34.675   9.112
 2344POPC   C1A33051   5.068  34.743   8.659
 2344POPC   D2A33052   5.240  35.043   8.433
 2344POPC   C3A33053   5.344  34.751   8.137
 2344POPC   C4A33054   5.421  34.635   7.699
 2344POPC   C1B33055   4.844  34.302   8.790
 2344POPC   C2B33056   5.178  34.277   8.457
 2344POPC   C3B33057   5.193  34.278   7.996
 2344POPC   C4B33058   4.960  34.328   7.591
 2345POPC   NC333059   9.954   7.235   9.678
 2345POPC   PO433060   9.724   7.572   9.204
 2345POPC   GL133061   9.685   7.457   8.876
 2345POPC   GL233062   9.952   7.635   8.750
 2345POPC   C1A33063   9.632   7.370   8.461
 2345POPC   D2A33064   9.718   7.520   8.108
 2345POPC   C3A33065   9.490   7.223   7.903
 2345POPC   C4A33066   9.164   7.217   7.663
 2345POPC   C1B33067  10.076   7.185   8.674
 2345POPC   C2B33068  10.088   6.966   8.330
 2345POPC   C3B33069  10.164   7.220   7.958
 2345POPC   C4B33070   9.903   7.372   7.660
 2346POPC   NC333071  21.478  16.396   9.539
 2346POPC   PO433072  21.383  17.061   9.684
 2346POPC   GL133073  21.464  16.790   9.229
 2346POPC   GL233074  21.210  16.537   9.134
 2346POPC   C1A33075  21.487  16.803   8.763
 2346POPC   D2A33076  21.338  16.938   8.332
 2346POPC   C3A33077  21.552  16.827   7.946
 2346POPC   C4A33078  21.669  17.084   7.605
 2346POPC   C1B33079  21.021  16.341   8.788
 2346POPC   C2B33080  21.237  16.437   8.424
 2346POPC   C3B33081  21.118  16.558   8.031
 2346POPC   C4B33082  21.286  16.389   7.716
 2347POPC   NC333083  38.943  41.031   9.535
 2347POPC   PO433084  39.484  40.664   9.531
 2347POPC   GL133085  39.232  40.794   9.145
 2347POPC   GL233086  38.943  41.019   9.031
 2347POPC   C1A33087  39.341  40.926   8.727
 2347POPC   D2A33088  39.413  40.740   8.326
 2347POPC   C3A33089  39.320  40.987   7.974
 2347POPC   C4A33090  39.328  40.895   7.551
 2347POPC   C1B33091  38.772  40.775   8.705
 2347POPC   C2B33092  38.904  40.665   8.293
 2347POPC   C3B33093  38.842  40.773   7.875
 2347POPC   C4B33094  38.908  40.614   7.466
 2348POPC   NC333095  24.812  44.361   9.511
 2348POPC   PO433096  25.417  44.591   9.536
 2348POPC   GL133097  25.295  44.741   9.197
 2348POPC   GL233098  25.202  44.387   9.108
 2348POPC   C1A33099  25.156  44.938   8.855
 2348POPC   D2A33100  25.137  44.740   8.490
 2348POPC   C3A33101  25.167  44.835   8.089
 2348POPC   C4A33102  25.104  44.734   7.694
 2348POPC   C1B33103  25.510  44.528   8.785
 2348POPC   C2B33104  25.638  44.352   8.398
 2348POPC   C3B33105  25.594  44.561   8.020
 2348POPC   C4B33106  25.612  44.783   7.665
 2349POPC   NC333107  17.045  17.778   9.612
 2349POPC   PO433108  17.311  18.414   9.555
 2349POPC   GL133109  17.244  18.142   9.240
 2349POPC   GL233110  17.538  18.038   9.049
 2349POPC   C1A33111  17.152  18.222   8.807
 2349POPC   D2A33112  17.430  18.168   8.496
 2349POPC   C3A33113  17.346  18.354   8.121
 2349POPC   C4A33114  17.176  18.274   7.736
 2349POPC   C1B33115  17.905  18.150   8.731
 2349POPC   C2B33116  17.863  18.059   8.267
 2349POPC   C3B33117  17.798  18.270   7.862
 2349POPC   C4B33118  17.685  18.180   7.438
 2350POPC   NC333119   5.985  27.152   9.494
 2350POPC   PO433120   6.014  26.583   9.431
 2350POPC   GL133121   5.872  26.850   9.082
 2350POPC   GL233122   6.188  26.990   9.057
 2350POPC   C1A33123   5.801  26.850   8.626
 2350POPC   D2A33124   5.580  27.023   8.258
 2350POPC   C3A33125   5.819  26.879   7.898
 2350POPC   C4A33126   6.150  26.661   7.642
 2350POPC   C1B33127   6.143  27.208   8.712
 2350POPC   C2B33128   6.056  27.206   8.311
 2350POPC   C3B33129   6.249  27.155   7.899
 2350POPC   C4B33130   6.099  27.146   7.449
 2351POPC   NC333131  24.556  31.963   9.467
 2351POPC   PO433132  24.582  32.694   9.524
 2351POPC   GL133133  24.448  32.408   9.168
 2351POPC   GL233134  24.283  32.080   9.048
 2351POPC   C1A33135  24.652  32.326   8.767
 2351POPC   D2A33136  24.802  32.552   8.407
 2351POPC   C3A33137  24.548  32.480   8.043
 2351POPC   C4A33138  24.467  32.188   7.677
 2351POPC   C1B33139  24.268  32.052   8.583
 2351POPC   C2B33140  24.232  32.076   8.134
 2351POPC   C3B33141  24.156  31.792   7.786
 2351POPC   C4B33142  24.174  31.862   7.326
 2352POPC   NC333143   2.252  40.278   9.288
 2352POPC   PO433144   1.614  40.024   9.444
 2352POPC   GL133145   1.875  39.998   9.086
 2352POPC   GL233146   2.208  39.794   9.045
 2352POPC   C1A33147   1.950  40.168   8.713
 2352POPC   D2A33148   1.770  40.019   8.386
 2352POPC   C3A33149   2.082  39.919   8.119
 2352POPC   C4A33150   2.049  40.107   7.752
 2352POPC   C1B33151   1.995  39.633   8.650
 2352POPC   C2B33152   1.792  39.507   8.224
 2352POPC   C3B33153   1.801  39.643   7.775
 2352POPC   C4B33154   2.117  39.723   7.429
 2353POPC   NC333155   3.808  13.095   9.447
 2353POPC   PO433156   3.310  13.620   9.458
 2353POPC   GL133157   3.659  13.601   9.147
 2353POPC   GL233158   3.747  13.281   8.978
 2353POPC   C1A33159   3.710  13.755   8.711
 2353POPC   D2A33160   3.760  13.666   8.256
 2353POPC   C3A33161   3.386  13.761   7.996
 2353POPC   C4A33162   3.390  13.954   7.596
 2353POPC   C1B33163   3.318  13.206   8.914
 2353POPC   C2B33164   3.205  13.185   8.497
 2353POPC   C3B33165   3.334  13.270   8.076
 2353POPC   C4B33166   3.292  13.425   7.621
 2354POPC   NC333167  43.069  41.551   9.655
 2354POPC   PO433168  43.792  41.434   9.626
 2354POPC   GL133169  43.490  41.544   9.239
 2354POPC   GL233170  43.152  41.665   9.156
 2354POPC   C1A33171  43.513  41.801   8.823
 2354POPC   D2A33172  43.346  41.931   8.406
 2354POPC   C3A33173  43.424  41.740   8.007
 2354POPC   C4A33174  43.163  41.427   7.778
 2354POPC   C1B33175  43.131  41.461   8.744
 2354POPC   C2B33176  42.892  41.188   8.440
 2354POPC   C3B33177  42.721  41.185   7.999
 2354POPC   C4B33178  42.703  41.363   7.584
 2355POPC   NC333179   0.074   1.317   9.491
 2355POPC   PO433180  44.395   1.126   9.611
 2355POPC   GL133181  44.571   1.171   9.198
 2355POPC   GL233182  44.621   1.523   9.117
 2355POPC   C1A33183  44.448   1.159   8.754
 2355POPC   D2A33184  44.643   1.394   8.419
 2355POPC   C3A33185  44.756   1.153   8.039
 2355POPC   C4A33186  44.592   1.133   7.609
 2355POPC   C1B33187  44.185   1.559   8.893
 2355POPC   C2B33188  44.090   1.466   8.454
 2355POPC   C3B33189  44.269   1.415   8.022
 2355POPC   C4B33190  44.409   1.591   7.629
 2356POPC   NC333191  24.325  32.667   9.909
 2356POPC   PO433192  24.093  33.214   9.535
 2356POPC   GL133193  24.398  33.063   9.195
 2356POPC   GL233194  24.625  33.220   9.067
 2356POPC   C1A33195  24.460  32.804   8.804
 2356POPC   D2A33196  24.549  32.989   8.382
 2356POPC   C3A33197  24.291  32.935   8.028
 2356POPC   C4A33198  24.348  32.709   7.637
 2356POPC   C1B33199  24.293  33.270   8.733
 2356POPC   C2B33200  24.258  33.542   8.389
 2356POPC   C3B33201  24.281  33.439   7.948
 2356POPC   C4B33202  24.197  33.214   7.551
 2357POPC   NC333203  29.670  42.112   9.667
 2357POPC   PO433204  29.963  41.536   9.508
 2357POPC   GL133205  30.037  41.657   9.111
 2357POPC   GL233206  29.988  41.320   9.003
 2357POPC   C1A33207  29.963  41.692   8.666
 2357POPC   D2A33208  29.775  41.366   8.426
 2357POPC   C3A33209  29.764  41.363   7.982
 2357POPC   C4A33210  29.684  41.775   7.796
 2357POPC   C1B33211  30.323  41.318   8.726
 2357POPC   C2B33212  30.232  41.139   8.351
 2357POPC   C3B33213  30.284  41.318   7.956
 2357POPC   C4B33214  30.107  41.538   7.619
 2358POPC   NC333215  44.873  32.528   9.315
 2358POPC   PO433216  44.438  32.230   9.743
 2358POPC   GL133217  44.521  32.128   9.141
 2358POPC   GL233218  44.588  32.441   8.875
 2358POPC   C1A33219  44.750  31.999   8.730
 2358POPC   D2A33220  44.703  32.236   8.330
 2358POPC   C3A33221  44.822  31.994   7.966
 2358POPC   C4A33222   0.025  32.056   7.576
 2358POPC   C1B33223  44.979  32.616   8.672
 2358POPC   C2B33224   0.166  32.527   8.274
 2358POPC   C3B33225  44.989  32.473   7.865
 2358POPC   C4B33226  44.810  32.519   7.431
 2359POPC   NC333227  15.843  15.794   9.435
 2359POPC   PO433228  15.860  15.121   9.583
 2359POPC   GL133229  15.922  15.174   9.170
 2359POPC   GL233230  16.089  15.464   9.133
 2359POPC   C1A33231  16.121  15.109   8.775
 2359POPC   D2A33232  15.909  15.071   8.389
 2359POPC   C3A33233  16.108  15.118   7.967
 2359POPC   C4A33234  15.744  15.172   7.673
 2359POPC   C1B33235  16.310  15.585   8.762
 2359POPC   C2B33236  16.321  15.379   8.378
 2359POPC   C3B33237  16.299  15.579   8.021
 2359POPC   C4B33238  16.102  15.537   7.629
 2360POPC   NC333239  26.174  26.403   9.604
 2360POPC   PO433240  26.520  25.844   9.523
 2360POPC   GL133241  26.840  26.056   9.251
 2360POPC   GL233242  26.598  26.312   9.236
 2360POPC   C1A33243  27.023  25.950   8.841
 2360POPC   D2A33244  26.801  25.951   8.425
 2360POPC   C3A33245  26.989  25.911   8.018
 2360POPC   C4A33246  27.049  25.795   7.582
 2360POPC   C1B33247  26.503  26.093   8.829
 2360POPC   C2B33248  26.321  26.176   8.393
 2360POPC   C3B33249  26.348  26.351   7.943
 2360POPC   C4B33250  26.460  26.238   7.484
 2361POPC   NC333251  41.343   4.538   9.591
 2361POPC   PO433252  41.491   5.238   9.566
 2361POPC   GL133253  41.612   5.042   9.146
 2361POPC   GL233254  41.808   4.761   9.185
 2361POPC   C1A33255  41.638   5.052   8.700
 2361POPC   D2A33256  41.665   5.280   8.360
 2361POPC   C3A33257  41.569   5.067   8.069
 2361POPC   C4A33258  41.512   5.301   7.730
 2361POPC   C1B33259  41.530   4.583   8.823
 2361POPC   C2B33260  41.366   4.658   8.368
 2361POPC   C3B33261  41.582   4.562   7.980
 2361POPC   C4B33262  41.615   4.805   7.614
 2362POPC   NC333263   3.977   2.734   9.585
 2362POPC   PO433264   4.558   2.382   9.720
 2362POPC   GL133265   4.499   2.660   9.235
 2362POPC   GL233266   4.130   2.821   9.098
 2362POPC   C1A33267   4.488   2.895   8.767
 2362POPC   D2A33268   4.209   3.114   8.423
 2362POPC   C3A33269   4.340   3.040   7.971
 2362POPC   C4A33270   4.080   2.933   7.580
 2362POPC   C1B33271   4.140   2.523   8.705
 2362POPC   C2B33272   4.256   2.635   8.312
 2362POPC   C3B33273   4.134   2.573   7.930
 2362POPC   C4B33274   4.305   2.251   7.778
 2363POPC   NC333275  16.323  31.454   9.419
 2363POPC   PO433276  15.789  31.257   9.411
 2363POPC   GL133277  15.924  31.614   9.122
 2363POPC   GL233278  16.290  31.745   8.999
 2363POPC   C1A33279  15.916  31.584   8.678
 2363POPC   D2A33280  15.714  31.315   8.346
 2363POPC   C3A33281  15.812  31.412   7.938
 2363POPC   C4A33282  16.198  31.241   7.820
 2363POPC   C1B33283  16.416  31.765   8.536
 2363POPC   C2B33284  16.068  31.763   8.222
 2363POPC   C3B33285  15.855  31.938   7.861
 2363POPC   C4B33286  15.999  31.673   7.515
 2364POPC   NC333287   4.151  14.826   9.430
 2364POPC   PO433288   4.516  15.323   9.512
 2364POPC   GL133289   4.347  15.131   9.066
 2364POPC   GL233290   3.976  15.006   8.957
 2364POPC   C1A33291   4.267  15.150   8.593
 2364POPC   D2A33292   4.474  15.393   8.304
 2364POPC   C3A33293   4.432  15.241   7.929
 2364POPC   C4A33294   4.144  15.402   7.664
 2364POPC   C1B33295   3.931  14.701   8.626
 2364POPC   C2B33296   4.091  14.731   8.209
 2364POPC   C3B33297   4.054  14.928   7.805
 2364POPC   C4B33298   4.281  14.946   7.426
 2365POPC   NC333299   5.460  32.808   9.430
 2365POPC   PO433300   4.784  32.897   9.557
 2365POPC   GL133301   5.038  33.022   9.199
 2365POPC   GL233302   5.087  32.688   9.076
 2365POPC   C1A33303   4.957  33.089   8.748
 2365POPC   D2A33304   4.877  32.891   8.372
 2365POPC   C3A33305   4.991  33.078   7.994
 2365POPC   C4A33306   4.875  32.699   7.788
 2365POPC   C1B33307   5.405  32.846   8.789
 2365POPC   C2B33308   5.393  32.959   8.381
 2365POPC   C3B33309   5.373  32.698   8.014
 2365POPC   C4B33310   5.331  32.813   7.609
 2366POPC   NC333311  28.383  31.449   9.953
 2366POPC   PO433312  28.039  30.955   9.623
 2366POPC   GL133313  28.240  31.128   9.230
 2366POPC   GL233314  28.452  31.448   9.244
 2366POPC   C1A33315  28.429  31.203   8.808
 2366POPC   D2A33316  28.599  31.279   8.407
 2366POPC   C3A33317  28.350  31.175   8.055
 2366POPC   C4A33318  28.238  31.487   7.746
 2366POPC   C1B33319  28.662  31.677   8.855
 2366POPC   C2B33320  28.880  31.702   8.431
 2366POPC   C3B33321  28.647  31.647   8.025
 2366POPC   C4B33322  28.700  31.745   7.608
 2367POPC   NC333323  19.782  22.424   9.683
 2367POPC   PO433324  19.567  21.755   9.544
 2367POPC   GL133325  19.714  21.926   9.219
 2367POPC   GL233326  19.816  22.208   9.189
 2367POPC   C1A33327  19.668  21.920   8.778
 2367POPC   D2A33328  19.676  21.773   8.353
 2367POPC   C3A33329  19.993  21.881   8.054
 2367POPC   C4A33330  19.952  22.032   7.629
 2367POPC   C1B33331  19.933  22.343   8.768
 2367POPC   C2B33332  19.814  22.286   8.340
 2367POPC   C3B33333  19.877  22.473   7.936
 2367POPC   C4B33334  19.602  22.810   7.779
 2368POPC   NC333335  20.203  35.960   9.478
 2368POPC   PO433336  20.688  35.737   9.168
 2368POPC   GL133337  20.824  36.171   9.212
 2368POPC   GL233338  20.514  36.397   9.204
 2368POPC   C1A33339  20.909  36.367   8.830
 2368POPC   D2A33340  20.685  36.234   8.471
 2368POPC   C3A33341  20.854  36.148   8.068
 2368POPC   C4A33342  20.816  35.871   7.731
 2368POPC   C1B33343  20.304  36.196   8.837
 2368POPC   C2B33344  20.212  36.052   8.402
 2368POPC   C3B33345  20.362  36.302   8.066
 2368POPC   C4B33346  20.536  36.282   7.690
 2369POPC   NC333347  39.539  24.371   9.592
 2369POPC   PO433348  38.871  24.305   9.534
 2369POPC   GL133349  39.183  24.257   9.240
 2369POPC   GL233350  39.333  24.593   9.183
 2369POPC   C1A33351  39.160  24.271   8.828
 2369POPC   D2A33352  39.196  24.465   8.444
 2369POPC   C3A33353  39.440  24.308   8.111
 2369POPC   C4A33354  39.161  24.160   7.812
 2369POPC   C1B33355  39.560  24.617   8.776
 2369POPC   C2B33356  39.598  24.756   8.327
 2369POPC   C3B33357  39.333  24.802   7.961
 2369POPC   C4B33358  39.424  24.915   7.552
 2370POPC   NC333359  16.012  42.126   9.521
 2370POPC   PO433360  15.660  42.634   9.589
 2370POPC   GL133361  15.951  42.574   9.216
 2370POPC   GL233362  16.298  42.541   9.280
 2370POPC   C1A33363  16.093  42.696   8.772
 2370POPC   D2A33364  16.056  42.485   8.358
 2370POPC   C3A33365  15.929  42.645   7.959
 2370POPC   C4A33366  15.874  42.651   7.506
 2370POPC   C1B33367  16.261  42.240   8.913
 2370POPC   C2B33368  16.070  42.017   8.539
 2370POPC   C3B33369  16.147  42.039   8.061
 2370POPC   C4B33370  16.117  41.692   7.739
 2371POPC   NC333371  12.454   4.994   9.515
 2371POPC   PO433372  12.671   5.498   9.258
 2371POPC   GL133373  12.839   5.163   9.090
 2371POPC   GL233374  13.175   5.225   8.977
 2371POPC   C1A33375  12.780   5.128   8.662
 2371POPC   D2A33376  12.909   4.909   8.323
 2371POPC   C3A33377  12.734   4.909   7.936
 2371POPC   C4A33378  12.632   5.298   7.699
 2371POPC   C1B33379  13.173   4.818   8.811
 2371POPC   C2B33380  13.327   4.677   8.411
 2371POPC   C3B33381  13.238   4.748   7.962
 2371POPC   C4B33382  13.121   4.909   7.589
 2372POPC   NC333383  20.416  31.788   9.405
 2372POPC   PO433384  20.812  32.409   9.509
 2372POPC   GL133385  20.660  32.207   9.147
 2372POPC   GL233386  20.830  31.892   9.119
 2372POPC   C1A33387  20.519  32.365   8.745
 2372POPC   D2A33388  20.680  32.543   8.383
 2372POPC   C3A33389  20.493  32.448   8.015
 2372POPC   C4A33390  20.638  32.518   7.648
 2372POPC   C1B33391  20.634  31.869   8.725
 2372POPC   C2B33392  20.589  32.031   8.304
 2372POPC   C3B33393  20.668  32.004   7.831
 2372POPC   C4B33394  21.055  31.762   7.722
 2373POPC   NC333395  31.927  34.593   9.420
 2373POPC   PO433396  32.567  34.623   9.408
 2373POPC   GL133397  32.380  34.730   9.077
 2373POPC   GL233398  32.230  34.437   9.001
 2373POPC   C1A33399  32.442  34.830   8.666
 2373POPC   D2A33400  32.230  34.780   8.307
 2373POPC   C3A33401  32.424  34.775   7.951
 2373POPC   C4A33402  32.470  34.401   7.735
 2373POPC   C1B33403  31.938  34.689   8.745
 2373POPC   C2B33404  31.753  34.637   8.323
 2373POPC   C3B33405  31.952  34.513   7.955
 2373POPC   C4B33406  31.823  34.151   7.852
 2374POPC   NC333407  44.465   4.882   9.690
 2374POPC   PO433408  44.805   5.390   9.547
 2374POPC   GL133409  44.692   5.065   9.251
 2374POPC   GL233410  44.793   4.700   9.295
 2374POPC   C1A33411  44.435   5.126   8.900
 2374POPC   D2A33412  44.591   5.056   8.500
 2374POPC   C3A33413  44.305   4.851   8.213
 2374POPC   C4A33414  44.379   5.008   7.835
 2374POPC   C1B33415  44.617   4.652   8.866
 2374POPC   C2B33416  44.680   4.560   8.422
 2374POPC   C3B33417  44.796   4.790   8.065
 2374POPC   C4B33418  44.755   4.708   7.639
 2375POPC   NC333419  34.826  38.710   9.412
 2375POPC   PO433420  34.242  38.374   9.663
 2375POPC   GL133421  34.468  38.360   9.247
 2375POPC   GL233422  34.408  38.682   9.076
 2375POPC   C1A33423  34.568  38.262   8.793
 2375POPC   D2A33424  34.554  38.424   8.333
 2375POPC   C3A33425  34.622  38.114   7.969
 2375POPC   C4A33426  34.363  38.114   7.607
 2375POPC   C1B33427  34.715  38.757   8.735
 2375POPC   C2B33428  34.998  38.758   8.380
 2375POPC   C3B33429  34.908  38.737   7.966
 2375POPC   C4B33430  34.562  38.580   7.766
 2376POPC   NC333431  23.134  40.527   9.405
 2376POPC   PO433432  22.631  40.930   9.398
 2376POPC   GL133433  22.884  40.800   9.028
 2376POPC   GL233434  23.103  40.498   8.900
 2376POPC   C1A33435  22.878  40.900   8.615
 2376POPC   D2A33436  23.132  40.885   8.285
 2376POPC   C3A33437  22.939  40.861   7.888
 2376POPC   C4A33438  22.732  41.208   7.701
 2376POPC   C1B33439  23.391  40.810   8.767
 2376POPC   C2B33440  23.631  40.831   8.396
 2376POPC   C3B33441  23.498  40.772   7.958
 2376POPC   C4B33442  23.325  40.714   7.571
 2377POPC   NC333443  14.646  15.553   9.427
 2377POPC   PO433444  14.298  16.079   9.562
 2377POPC   GL133445  14.504  16.067   9.181
 2377POPC   GL233446  14.327  15.774   9.072
 2377POPC   C1A33447  14.442  16.123   8.734
 2377POPC   D2A33448  14.166  16.246   8.443
 2377POPC   C3A33449  14.340  16.072   8.075
 2377POPC   C4A33450  14.471  16.109   7.630
 2377POPC   C1B33451  14.221  15.672   8.644
 2377POPC   C2B33452  14.160  15.571   8.186
 2377POPC   C3B33453  14.148  15.725   7.754
 2377POPC   C4B33454  14.194  15.826   7.316
 2378POPC   NC333455  12.930  13.627   9.591
 2378POPC   PO433456  12.320  13.502   9.522
 2378POPC   GL133457  12.656  13.561   9.154
 2378POPC   GL233458  13.058  13.667   9.115
 2378POPC   C1A33459  12.713  13.850   8.791
 2378POPC   D2A33460  12.920  13.842   8.387
 2378POPC   C3A33461  12.650  13.877   7.994
 2378POPC   C4A33462  12.639  13.524   7.693
 2378POPC   C1B33463  12.977  13.389   8.769
 2378POPC   C2B33464  12.921  13.321   8.333
 2378POPC   C3B33465  13.060  13.574   7.974
 2378POPC   C4B33466  13.258  13.489   7.572
 2379POPC   NC333467  39.827   3.862   9.377
 2379POPC   PO433468  39.710   3.236   9.537
 2379POPC   GL133469  39.953   3.350   9.154
 2379POPC   GL233470  40.244   3.584   9.180
 2379POPC   C1A33471  40.131   3.366   8.710
 2379POPC   D2A33472  40.194   3.135   8.304
 2379POPC   C3A33473  40.228   3.347   7.889
 2379POPC   C4A33474  40.180   3.624   7.534
 2379POPC   C1B33475  40.238   3.856   8.791
 2379POPC   C2B33476  40.080   3.865   8.382
 2379POPC   C3B33477  40.259   3.880   7.974
 2379POPC   C4B33478  40.325   4.094   7.559
 2380POPC   NC333479   0.460   3.940   9.534
 2380POPC   PO433480   0.716   3.308   9.417
 2380POPC   GL133481   0.580   3.678   9.130
 2380POPC   GL233482   0.189   3.839   9.116
 2380POPC   C1A33483   0.801   3.790   8.776
 2380POPC   D2A33484   0.859   3.569   8.395
 2380POPC   C3A33485   0.734   3.703   7.994
 2380POPC   C4A33486   0.610   3.338   7.800
 2380POPC   C1B33487   0.273   3.688   8.702
 2380POPC   C2B33488   0.340   3.591   8.297
 2380POPC   C3B33489   0.210   3.804   7.934
 2380POPC   C4B33490   0.263   3.618   7.555
 2381POPC   NC333491  43.875  31.250   9.503
 2381POPC   PO433492  43.902  31.865   9.438
 2381POPC   GL133493  44.001  31.630   9.082
 2381POPC   GL233494  43.726  31.391   9.047
 2381POPC   C1A33495  43.945  31.567   8.631
 2381POPC   D2A33496  43.684  31.309   8.393
 2381POPC   C3A33497  43.540  31.622   8.166
 2381POPC   C4A33498  43.329  31.668   7.805
 2381POPC   C1B33499  43.938  31.078   8.792
 2381POPC   C2B33500  44.162  31.099   8.418
 2381POPC   C3B33501  44.113  31.443   8.132
 2381POPC   C4B33502  43.847  31.478   7.776
 2382POPC   NC333503  14.909  33.242   9.491
 2382POPC   PO433504  14.304  32.986   9.676
 2382POPC   GL133505  14.383  32.834   9.256
 2382POPC   GL233506  14.724  32.819   9.184
 2382POPC   C1A33507  14.306  32.975   8.829
 2382POPC   D2A33508  14.523  33.266   8.528
 2382POPC   C3A33509  14.352  33.274   8.110
 2382POPC   C4A33510  14.148  33.088   7.732
 2382POPC   C1B33511  14.751  32.764   8.748
 2382POPC   C2B33512  14.514  32.795   8.331
 2382POPC   C3B33513  14.642  32.911   7.891
 2382POPC   C4B33514  14.911  32.683   7.547
 2383POPC   NC333515  38.227  44.008   9.316
 2383POPC   PO433516  37.597  44.183   9.391
 2383POPC   GL133517  37.742  43.849   9.130
 2383POPC   GL233518  37.929  44.086   8.890
 2383POPC   C1A33519  37.740  43.665   8.720
 2383POPC   D2A33520  37.707  43.930   8.396
 2383POPC   C3A33521  37.776  43.762   8.010
 2383POPC   C4A33522  37.813  44.062   7.681
 2383POPC   C1B33523  37.452  44.140   8.788
 2383POPC   C2B33524  37.213  44.112   8.418
 2383POPC   C3B33525  37.424  44.133   8.023
 2383POPC   C4B33526  37.249  44.128   7.628
 2384POPC   NC333527   8.118  30.060   9.543
 2384POPC   PO433528   8.395  29.569   9.539
 2384POPC   GL133529   8.088  29.657   9.203
 2384POPC   GL233530   8.088  29.971   9.047
 2384POPC   C1A33531   7.971  29.561   8.780
 2384POPC   D2A33532   7.929  29.814   8.394
 2384POPC   C3A33533   7.995  29.616   8.015
 2384POPC   C4A33534   8.380  29.488   7.807
 2384POPC   C1B33535   8.073  30.239   8.692
 2384POPC   C2B33536   8.168  30.247   8.240
 2384POPC   C3B33537   8.010  30.119   7.842
 2384POPC   C4B33538   8.124  30.203   7.381
 2385POPC   NC333539  24.304   2.435   9.448
 2385POPC   PO433540  24.875   2.727   9.508
 2385POPC   GL133541  24.604   2.793   9.118
 2385POPC   GL233542  24.337   2.584   8.943
 2385POPC   C1A33543  24.653   2.881   8.672
 2385POPC   D2A33544  24.396   2.738   8.323
 2385POPC   C3A33545  24.599   2.522   8.042
 2385POPC   C4A33546  24.475   2.482   7.647
 2385POPC   C1B33547  24.014   2.781   8.643
 2385POPC   C2B33548  23.987   3.046   8.261
 2385POPC   C3B33549  24.134   2.935   7.858
 2385POPC   C4B33550  24.580   2.975   7.760
 2386POPC   NC333551  20.071  27.451   9.564
 2386POPC   PO433552  19.671  27.993   9.645
 2386POPC   GL133553  19.805  27.657   9.217
 2386POPC   GL233554  19.637  27.369   9.068
 2386POPC   C1A33555  19.970  27.620   8.762
 2386POPC   D2A33556  19.918  27.967   8.478
 2386POPC   C3A33557  19.812  27.827   8.072
 2386POPC   C4A33558  20.050  27.919   7.735
 2386POPC   C1B33559  20.034  27.133   8.843
 2386POPC   C2B33560  20.140  27.293   8.398
 2386POPC   C3B33561  20.017  27.166   7.960
 2386POPC   C4B33562  19.944  27.384   7.546
 2387POPC   NC333563  17.729  42.849   9.344
 2387POPC   PO433564  17.174  43.260   9.547
 2387POPC   GL133565  17.371  43.215   9.139
 2387POPC   GL233566  17.584  43.005   8.883
 2387POPC   C1A33567  17.311  43.412   8.734
 2387POPC   D2A33568  17.412  43.266   8.325
 2387POPC   C3A33569  17.570  43.421   7.955
 2387POPC   C4A33570  17.651  43.031   7.730
 2387POPC   C1B33571  17.856  43.248   8.577
 2387POPC   C2B33572  17.973  43.182   8.143
 2387POPC   C3B33573  18.002  43.369   7.694
 2387POPC   C4B33574  17.880  43.329   7.282
 2388POPC   NC333575  40.032   5.483   9.647
 2388POPC   PO433576  40.356   5.985   9.338
 2388POPC   GL133577  40.056   5.770   9.134
 2388POPC   GL233578  39.762   5.949   9.053
 2388POPC   C1A33579  40.105   5.750   8.702
 2388POPC   D2A33580  40.342   5.424   8.538
 2388POPC   C3A33581  40.392   5.415   8.089
 2388POPC   C4A33582  40.341   5.763   7.799
 2388POPC   C1B33583  39.626   5.626   8.753
 2388POPC   C2B33584  39.669   5.867   8.392
 2388POPC   C3B33585  39.568   6.091   8.056
 2388POPC   C4B33586  39.778   5.830   7.752
 2389POPC   NC333587  38.443  33.902   9.624
 2389POPC   PO433588  38.204  33.240   9.545
 2389POPC   GL133589  38.343  33.466   9.151
 2389POPC   GL233590  38.255  33.824   9.136
 2389POPC   C1A33591  38.474  33.664   8.732
 2389POPC   D2A33592  38.678  33.902   8.388
 2389POPC   C3A33593  38.598  33.713   7.983
 2389POPC   C4A33594  38.227  33.663   7.756
 2389POPC   C1B33595  38.358  34.156   8.745
 2389POPC   C2B33596  38.303  34.273   8.312
 2389POPC   C3B33597  38.308  34.146   7.872
 2389POPC   C4B33598  38.228  34.059   7.423
 2390POPC   NC333599   4.936   2.617   9.577
 2390POPC   PO433600   4.969   3.237   9.486
 2390POPC   GL133601   5.178   2.960   9.188
 2390POPC   GL233602   5.149   2.613   9.113
 2390POPC   C1A33603   5.393   2.932   8.793
 2390POPC   D2A33604   5.365   2.691   8.390
 2390POPC   C3A33605   5.275   2.865   7.985
 2390POPC   C4A33606   5.028   2.807   7.644
 2390POPC   C1B33607   4.946   2.666   8.723
 2390POPC   C2B33608   4.800   2.802   8.330
 2390POPC   C3B33609   4.664   2.606   7.956
 2390POPC   C4B33610   4.541   2.700   7.531
 2391POPC   NC333611  16.810  28.033   9.477
 2391POPC   PO433612  16.596  27.376   9.627
 2391POPC   GL133613  16.568  27.361   9.173
 2391POPC   GL233614  16.501  27.709   9.106
 2391POPC   C1A33615  16.723  27.308   8.744
 2391POPC   D2A33616  16.831  27.487   8.333
 2391POPC   C3A33617  16.611  27.480   7.963
 2391POPC   C4A33618  16.631  27.350   7.536
 2391POPC   C1B33619  16.736  27.819   8.728
 2391POPC   C2B33620  16.791  28.009   8.324
 2391POPC   C3B33621  16.563  28.000   7.957
 2391POPC   C4B33622  16.704  27.836   7.549
 2392POPC   NC333623  44.143  43.215   9.737
 2392POPC   PO433624  44.505  42.942   9.290
 2392POPC   GL133625  44.193  43.053   9.036
 2392POPC   GL233626  43.987  43.361   9.077
 2392POPC   C1A33627  44.192  42.977   8.621
 2392POPC   D2A33628  44.053  43.191   8.278
 2392POPC   C3A33629  44.116  42.970   7.906
 2392POPC   C4A33630  44.311  43.236   7.575
 2392POPC   C1B33631  43.738  43.192   8.731
 2392POPC   C2B33632  43.558  43.318   8.324
 2392POPC   C3B33633  43.501  43.047   7.976
 2392POPC   C4B33634  43.705  42.898   7.618
 2393POPC   NC333635  41.118  37.438   9.547
 2393POPC   PO433636  40.438  37.571   9.621
 2393POPC   GL133637  40.484  37.798   9.253
 2393POPC   GL233638  40.827  37.735   9.191
 2393POPC   C1A33639  40.516  37.680   8.809
 2393POPC   D2A33640  40.317  37.734   8.425
 2393POPC   C3A33641  40.568  37.667   8.107
 2393POPC   C4A33642  40.481  37.521   7.720
 2393POPC   C1B33643  41.066  37.759   8.791
 2393POPC   C2B33644  41.117  37.698   8.339
 2393POPC   C3B33645  41.037  37.811   7.900
 2393POPC   C4B33646  41.146  38.007   7.474
 2394POPC   NC333647  43.654  43.177   9.395
 2394POPC   PO433648  42.998  43.352   9.490
 2394POPC   GL133649  43.194  43.239   9.156
 2394POPC   GL233650  43.118  42.892   9.212
 2394POPC   C1A33651  43.241  43.379   8.745
 2394POPC   D2A33652  42.925  43.441   8.429
 2394POPC   C3A33653  43.122  43.400   8.015
 2394POPC   C4A33654  42.917  43.376   7.594
 2394POPC   C1B33655  43.329  42.876   8.810
 2394POPC   C2B33656  43.181  42.979   8.412
 2394POPC   C3B33657  43.015  42.792   8.063
 2394POPC   C4B33658  43.112  42.924   7.664
 2395POPC   NC333659  11.844  10.751   9.340
 2395POPC   PO433660  12.315  10.463   9.710
 2395POPC   GL133661  12.285  10.473   9.190
 2395POPC   GL233662  11.960  10.366   9.040
 2395POPC   C1A33663  12.342  10.466   8.748
 2395POPC   D2A33664  12.050  10.293   8.452
 2395POPC   C3A33665  12.101  10.463   8.052
 2395POPC   C4A33666  12.253  10.738   7.749
 2395POPC   C1B33667  11.668  10.506   8.713
 2395POPC   C2B33668  11.423  10.456   8.374
 2395POPC   C3B33669  11.574  10.355   7.997
 2395POPC   C4B33670  11.649  10.527   7.620
 2396POPC   NC333671  35.803  29.209   9.433
 2396POPC   PO433672  36.369  28.818   9.323
 2396POPC   GL133673  36.232  29.135   9.002
 2396POPC   GL233674  35.945  29.344   8.975
 2396POPC   C1A33675  36.300  29.347   8.618
 2396POPC   D2A33676  36.147  29.087   8.323
 2396POPC   C3A33677  36.192  29.152   7.930
 2396POPC   C4A33678  36.342  28.829   7.635
 2396POPC   C1B33679  35.785  28.949   8.821
 2396POPC   C2B33680  35.717  28.688   8.473
 2396POPC   C3B33681  35.757  28.824   8.060
 2396POPC   C4B33682  35.820  28.965   7.656
 2397POPC   NC333683  40.207  23.173   9.587
 2397POPC   PO433684  39.603  22.950   9.404
 2397POPC   GL133685  40.056  22.857   9.221
 2397POPC   GL233686  40.273  23.157   9.095
 2397POPC   C1A33687  40.216  22.684   8.854
 2397POPC   D2A33688  39.926  22.678   8.480
 2397POPC   C3A33689  39.789  22.861   8.066
 2397POPC   C4A33690  39.890  22.798   7.603
 2397POPC   C1B33691  40.138  23.155   8.693
 2397POPC   C2B33692  40.222  23.047   8.289
 2397POPC   C3B33693  40.148  23.158   7.856
 2397POPC   C4B33694  40.182  23.139   7.359
 2398POPC   NC333695  40.837  29.379   9.497
 2398POPC   PO433696  40.984  28.746   9.498
 2398POPC   GL133697  41.069  29.002   9.172
 2398POPC   GL233698  40.721  29.032   9.120
 2398POPC   C1A33699  41.094  28.862   8.767
 2398POPC   D2A33700  40.903  29.005   8.448
 2398POPC   C3A33701  40.827  28.903   8.061
 2398POPC   C4A33702  40.533  29.041   7.790
 2398POPC   C1B33703  40.512  28.930   8.742
 2398POPC   C2B33704  40.441  29.189   8.329
 2398POPC   C3B33705  40.406  29.509   7.966
 2398POPC   C4B33706  40.457  29.477   7.490
 2399POPC   NC333707  33.309  31.956   9.321
 2399POPC   PO433708  32.914  32.367   9.688
 2399POPC   GL133709  33.098  32.470   9.274
 2399POPC   GL233710  33.453  32.545   9.332
 2399POPC   C1A33711  32.954  32.573   8.827
 2399POPC   D2A33712  32.699  32.509   8.410
 2399POPC   C3A33713  32.864  32.252   8.025
 2399POPC   C4A33714  32.863  32.078   7.590
 2399POPC   C1B33715  33.478  32.415   8.865
 2399POPC   C2B33716  33.240  32.281   8.490
 2399POPC   C3B33717  33.362  32.335   8.070
 2399POPC   C4B33718  33.516  32.300   7.645
 2400POPC   NC333719  15.246  26.198   9.441
 2400POPC   PO433720  14.906  25.722   9.810
 2400POPC   GL133721  14.882  25.851   9.311
 2400POPC   GL233722  15.201  25.736   9.150
 2400POPC   C1A33723  14.921  25.995   8.817
 2400POPC   D2A33724  15.143  26.288   8.487
 2400POPC   C3A33725  15.337  26.175   8.079
 2400POPC   C4A33726  15.165  26.078   7.652
 2400POPC   C1B33727  15.187  25.595   8.685
 2400POPC   C2B33728  15.025  25.802   8.285
 2400POPC   C3B33729  14.896  25.703   7.841
 2400POPC   C4B33730  15.218  25.569   7.512
 2401POPC   NC333731  37.172  24.599   9.591
 2401POPC   PO433732  36.524  24.710   9.453
 2401POPC   GL133733  36.768  24.419   9.187
 2401POPC   GL233734  37.106  24.561   9.094
 2401POPC   C1A33735  36.695  24.365   8.751
 2401POPC   D2A33736  36.833  24.185   8.363
 2401POPC   C3A33737  36.898  24.547   8.134
 2401POPC   C4A33738  36.927  24.673   7.737
 2401POPC   C1B33739  37.207  24.350   8.739
 2401POPC   C2B33740  37.325  24.233   8.332
 2401POPC   C3B33741  37.386  24.393   7.941
 2401POPC   C4B33742  37.284  24.333   7.488
 2402POPC   NC333743  37.021   9.897   9.471
 2402POPC   PO433744  36.721   9.279   9.551
 2402POPC   GL133745  36.719   9.532   9.205
 2402POPC   GL233746  36.548   9.857   9.146
 2402POPC   C1A33747  36.819   9.548   8.795
 2402POPC   D2A33748  36.622   9.738   8.440
 2402POPC   C3A33749  36.704   9.566   8.012
 2402POPC   C4A33750  36.929   9.716   7.641
 2402POPC   C1B33751  36.873  10.070   8.847
 2402POPC   C2B33752  37.021  10.074   8.423
 2402POPC   C3B33753  36.812  10.063   8.007
 2402POPC   C4B33754  36.514  10.066   7.640
 2403POPC   NC333755  19.903  19.543   9.272
 2403POPC   PO433756  20.252  19.126   9.675
 2403POPC   GL133757  20.043  18.991   9.195
 2403POPC   GL233758  19.787  18.788   9.201
 2403POPC   C1A33759  20.069  19.047   8.701
 2403POPC   D2A33760  19.960  19.323   8.377
 2403POPC   C3A33761  19.836  19.162   7.977
 2403POPC   C4A33762  19.919  19.315   7.556
 2403POPC   C1B33763  19.828  18.618   8.793
 2403POPC   C2B33764  19.771  18.759   8.378
 2403POPC   C3B33765  19.929  18.636   8.002
 2403POPC   C4B33766  19.863  18.800   7.603
 2404POPC   NC333767  27.946   4.070   9.472
 2404POPC   PO433768  27.439   4.555   9.563
 2404POPC   GL133769  27.407   4.166   9.313
 2404POPC   GL233770  27.640   4.237   9.088
 2404POPC   C1A33771  27.239   4.035   8.882
 2404POPC   D2A33772  27.374   4.131   8.444
 2404POPC   C3A33773  27.212   4.005   8.022
 2404POPC   C4A33774  27.375   4.040   7.587
 2404POPC   C1B33775  27.890   4.190   8.725
 2404POPC   C2B33776  27.860   4.061   8.293
 2404POPC   C3B33777  27.704   4.242   7.914
 2404POPC   C4B33778  27.696   4.485   7.519
 2405POPC   NC333779  42.679  38.854   9.575
 2405POPC   PO433780  43.227  39.082   9.859
 2405POPC   GL133781  43.141  39.202   9.362
 2405POPC   GL233782  42.816  39.276   9.192
 2405POPC   C1A33783  43.215  39.295   8.861
 2405POPC   D2A33784  43.500  39.337   8.473
 2405POPC   C3A33785  43.389  39.171   8.061
 2405POPC   C4A33786  43.050  38.997   7.862
 2405POPC   C1B33787  42.730  39.421   8.743
 2405POPC   C2B33788  42.981  39.370   8.324
 2405POPC   C3B33789  43.029  39.519   7.877
 2405POPC   C4B33790  42.844  39.365   7.462
 2406POPC   NC333791  22.677  35.764   9.462
 2406POPC   PO433792  23.317  35.617   9.475
 2406POPC   GL133793  23.155  35.572   9.094
 2406POPC   GL233794  22.822  35.470   9.071
 2406POPC   C1A33795  23.183  35.352   8.702
 2406POPC   D2A33796  23.377  35.197   8.321
 2406POPC   C3A33797  23.102  35.329   8.031
 2406POPC   C4A33798  23.101  35.727   7.762
 2406POPC   C1B33799  22.553  35.469   8.683
 2406POPC   C2B33800  22.487  35.416   8.219
 2406POPC   C3B33801  22.660  35.441   7.822
 2406POPC   C4B33802  22.799  35.054   7.636
 2407POPC   NC333803  31.611  39.072   9.519
 2407POPC   PO433804  31.092  39.369   9.243
 2407POPC   GL133805  31.416  39.096   9.018
 2407POPC   GL233806  31.796  39.014   9.061
 2407POPC   C1A33807  31.590  39.231   8.638
 2407POPC   D2A33808  31.417  39.535   8.367
 2407POPC   C3A33809  31.325  39.380   7.981
 2407POPC   C4A33810  31.499  39.520   7.595
 2407POPC   C1B33811  31.772  38.759   8.696
 2407POPC   C2B33812  31.744  38.856   8.243
 2407POPC   C3B33813  31.713  39.099   7.837
 2407POPC   C4B33814  31.757  39.141   7.356
 2408POPC   NC333815   7.167  29.149   9.914
 2408POPC   PO433816   7.721  28.944   9.669
 2408POPC   GL133817   7.515  29.149   9.229
 2408POPC   GL233818   7.582  29.530   9.233
 2408POPC   C1A33819   7.255  29.043   8.769
 2408POPC   D2A33820   7.208  29.114   8.287
 2408POPC   C3A33821   7.320  28.837   7.908
 2408POPC   C4A33822   7.570  28.716   7.469
 2408POPC   C1B33823   7.464  29.495   8.808
 2408POPC   C2B33824   7.603  29.425   8.391
 2408POPC   C3B33825   7.551  29.342   7.968
 2408POPC   C4B33826   7.541  29.616   7.603
 2409POPC   NC333827  18.553  11.139   9.536
 2409POPC   PO433828  18.000  11.425   9.449
 2409POPC   GL133829  18.293  11.275   9.126
 2409POPC   GL233830  18.641  11.417   9.119
 2409POPC   C1A33831  18.389  11.061   8.762
 2409POPC   D2A33832  18.247  11.236   8.407
 2409POPC   C3A33833  18.443  11.144   8.049
 2409POPC   C4A33834  18.281  11.134   7.672
 2409POPC   C1B33835  18.592  11.578   8.690
 2409POPC   C2B33836  18.534  11.617   8.224
 2409POPC   C3B33837  18.583  11.591   7.760
 2409POPC   C4B33838  18.671  11.787   7.333
 2410POPC   NC333839  12.279  28.061   9.797
 2410POPC   PO433840  11.687  28.362   9.630
 2410POPC   GL133841  11.707  28.339   9.187
 2410POPC   GL233842  12.093  28.271   9.156
 2410POPC   C1A33843  11.783  28.292   8.741
 2410POPC   D2A33844  12.091  28.231   8.424
 2410POPC   C3A33845  11.942  28.185   8.043
 2410POPC   C4A33846  11.732  28.210   7.647
 2410POPC   C1B33847  12.212  28.572   8.819
 2410POPC   C2B33848  12.385  28.668   8.424
 2410POPC   C3B33849  12.249  28.667   8.031
 2410POPC   C4B33850  12.175  28.481   7.695
 2411POPC   NC333851  19.517   6.280   9.258
 2411POPC   PO433852  20.003   5.896   9.613
 2411POPC   GL133853  19.815   5.857   9.231
 2411POPC   GL233854  19.922   6.109   8.982
 2411POPC   C1A33855  19.680   5.671   8.843
 2411POPC   D2A33856  19.926   5.740   8.470
 2411POPC   C3A33857  19.736   5.799   8.095
 2411POPC   C4A33858  19.720   5.658   7.698
 2411POPC   C1B33859  19.629   6.162   8.609
 2411POPC   C2B33860  19.779   6.281   8.200
 2411POPC   C3B33861  19.874   6.186   7.757
 2411POPC   C4B33862  19.894   6.225   7.303
 2412POPC   NC333863  19.746   1.420   9.395
 2412POPC   PO433864  20.250   1.279   9.816
 2412POPC   GL133865  20.137   1.092   9.294
 2412POPC   GL233866  20.133   1.313   9.095
 2412POPC   C1A33867  19.786   1.082   8.850
 2412POPC   D2A33868  19.878   0.967   8.416
 2412POPC   C3A33869  19.756   1.124   8.000
 2412POPC   C4A33870  19.774   1.154   7.534
 2412POPC   C1B33871  20.256   1.251   8.706
 2412POPC   C2B33872  20.207   1.340   8.274
 2412POPC   C3B33873  20.201   1.311   7.817
 2412POPC   C4B33874  20.255   1.231   7.368
 2413POPC   NC333875  36.539  13.203   9.413
 2413POPC   PO433876  36.356  12.542   9.480
 2413POPC   GL133877  36.167  12.808   9.157
 2413POPC   GL233878  35.843  12.888   9.051
 2413POPC   C1A33879  36.233  12.913   8.724
 2413POPC   D2A33880  36.328  12.767   8.342
 2413POPC   C3A33881  36.193  13.078   8.055
 2413POPC   C4A33882  36.283  13.023   7.608
 2413POPC   C1B33883  35.702  12.893   8.665
 2413POPC   C2B33884  35.811  12.767   8.270
 2413POPC   C3B33885  35.595  12.542   7.982
 2413POPC   C4B33886  35.731  12.462   7.567
 2414POPC   NC333887  40.303   5.288   9.233
 2414POPC   PO433888  39.784   5.035   9.634
 2414POPC   GL133889  39.839   5.000   9.194
 2414POPC   GL233890  40.080   4.723   9.219
 2414POPC   C1A33891  39.921   5.162   8.747
 2414POPC   D2A33892  39.874   5.402   8.336
 2414POPC   C3A33893  39.789   5.248   7.916
 2414POPC   C4A33894  39.860   4.944   7.593
 2414POPC   C1B33895  40.211   4.721   8.777
 2414POPC   C2B33896  40.226   4.953   8.385
 2414POPC   C3B33897  40.236   4.939   7.956
 2414POPC   C4B33898  40.331   5.172   7.603
 2415POPC   NC333899   1.043  14.270   9.337
 2415POPC   PO433900   1.649  14.046   9.295
 2415POPC   GL133901   1.409  14.224   8.988
 2415POPC   GL233902   1.358  14.536   9.012
 2415POPC   C1A33903   1.502  14.330   8.574
 2415POPC   D2A33904   1.526  14.141   8.215
 2415POPC   C3A33905   1.331  14.375   7.962
 2415POPC   C4A33906   1.248  14.401   7.600
 2415POPC   C1B33907   1.116  14.664   8.668
 2415POPC   C2B33908   0.991  14.481   8.305
 2415POPC   C3B33909   0.783  14.621   7.942
 2415POPC   C4B33910   1.002  14.857   7.645
 2416POPC   NC333911  33.829   9.474   9.415
 2416POPC   PO433912  34.273   9.887   9.676
 2416POPC   GL133913  34.038   9.905   9.193
 2416POPC   GL233914  33.662   9.747   9.054
 2416POPC   C1A33915  34.022   9.788   8.728
 2416POPC   D2A33916  33.689   9.776   8.466
 2416POPC   C3A33917  33.838   9.633   8.100
 2416POPC   C4A33918  34.065   9.859   7.779
 2416POPC   C1B33919  33.340   9.924   8.823
 2416POPC   C2B33920  33.302  10.106   8.402
 2416POPC   C3B33921  33.274   9.912   7.991
 2416POPC   C4B33922  33.555   9.759   7.679
 2417POPC   NC333923  24.515  27.376   9.529
 2417POPC   PO433924  24.215  28.028   9.400
 2417POPC   GL133925  24.535  27.794   9.137
 2417POPC   GL233926  24.700  27.452   9.074
 2417POPC   C1A33927  24.460  27.701   8.700
 2417POPC   D2A33928  24.588  27.697   8.310
 2417POPC   C3A33929  24.306  27.649   7.993
 2417POPC   C4A33930  24.369  27.815   7.623
 2417POPC   C1B33931  24.519  27.185   8.779
 2417POPC   C2B33932  24.433  27.216   8.379
 2417POPC   C3B33933  24.598  27.239   7.993
 2417POPC   C4B33934  24.600  27.297   7.565
 2418POPC   NC333935  39.358   9.922   9.482
 2418POPC   PO433936  39.015   9.463   9.893
 2418POPC   GL133937  38.924   9.718   9.311
 2418POPC   GL233938  39.240   9.701   9.055
 2418POPC   C1A33939  38.908   9.948   8.812
 2418POPC   D2A33940  39.134   9.830   8.380
 2418POPC   C3A33941  39.052  10.006   7.966
 2418POPC   C4A33942  39.239   9.862   7.563
 2418POPC   C1B33943  39.085   9.462   8.722
 2418POPC   C2B33944  39.225   9.329   8.354
 2418POPC   C3B33945  39.199   9.504   7.952
 2418POPC   C4B33946  39.337   9.370   7.552
 2419POPC   NC333947  31.448  10.050   9.503
 2419POPC   PO433948  31.666   9.395   9.548
 2419POPC   GL133949  31.698   9.665   9.189
 2419POPC   GL233950  32.047   9.537   9.143
 2419POPC   C1A33951  31.505   9.908   8.838
 2419POPC   D2A33952  31.234   9.763   8.499
 2419POPC   C3A33953  31.345   9.826   8.082
 2419POPC   C4A33954  31.170   9.739   7.647
 2419POPC   C1B33955  32.004   9.819   8.813
 2419POPC   C2B33956  31.853   9.968   8.407
 2419POPC   C3B33957  31.936   9.816   7.990
 2419POPC   C4B33958  31.666   9.681   7.690
 2420POPC   NC333959   4.441  13.869   9.408
 2420POPC   PO433960   4.225  13.238   9.584
 2420POPC   GL133961   4.191  13.433   9.183
 2420POPC   GL233962   4.498  13.505   9.047
 2420POPC   C1A33963   4.143  13.492   8.710
 2420POPC   D2A33964   4.242  13.825   8.431
 2420POPC   C3A33965   4.312  13.732   7.999
 2420POPC   C4A33966   4.031  13.474   7.762
 2420POPC   C1B33967   4.752  13.411   8.727
 2420POPC   C2B33968   4.714  13.585   8.343
 2420POPC   C3B33969   4.747  13.409   7.969
 2420POPC   C4B33970   4.536  13.459   7.600
 2421POPC   NC333971  35.462   0.738   9.510
 2421POPC   PO433972  34.942   0.303   9.680
 2421POPC   GL133973  35.131   0.289   9.194
 2421POPC   GL233974  35.419   0.453   9.096
 2421POPC   C1A33975  35.120   0.392   8.687
 2421POPC   D2A33976  35.230   0.620   8.256
 2421POPC   C3A33977  35.100   0.471   7.818
 2421POPC   C4A33978  34.741   0.511   7.527
 2421POPC   C1B33979  35.634   0.462   8.733
 2421POPC   C2B33980  35.540   0.242   8.370
 2421POPC   C3B33981  35.644   0.375   7.963
 2421POPC   C4B33982  35.548   0.446   7.531
 2422POPC   NC333983  27.771  25.114   9.418
 2422POPC   PO433984  27.376  25.631   9.450
 2422POPC   GL133985  27.677  25.651   9.066
 2422POPC   GL233986  27.802  25.326   8.956
 2422POPC   C1A33987  27.605  25.630   8.589
 2422POPC   D2A33988  27.689  25.458   8.145
 2422POPC   C3A33989  27.419  25.546   7.820
 2422POPC   C4A33990  27.263  25.362   7.439
 2422POPC   C1B33991  27.825  24.964   8.663
 2422POPC   C2B33992  27.996  24.854   8.257
 2422POPC   C3B33993  27.842  24.953   7.844
 2422POPC   C4B33994  27.753  25.276   7.545
 2423POPC   NC333995  42.087  35.052   9.553
 2423POPC   PO433996  41.934  35.706   9.381
 2423POPC   GL133997  42.182  35.363   9.154
 2423POPC   GL233998  41.943  35.116   9.064
 2423POPC   C1A33999  42.376  35.299   8.743
 2423POPC   D2A34000  42.374  35.623   8.445
 2423POPC   C3A34001  42.207  35.496   8.072
 2423POPC   C4A34002  42.394  35.420   7.664
 2423POPC   C1B34003  42.087  34.873   8.710
 2423POPC   C2B34004  42.231  34.993   8.309
 2423POPC   C3B34005  42.087  35.045   7.884
 2423POPC   C4B34006  41.867  35.404   7.697
 2424POPC   NC334007   2.404  25.544   9.511
 2424POPC   PO434008   2.660  24.894   9.573
 2424POPC   GL134009   2.891  24.956   9.191
 2424POPC   GL234010   2.710  25.250   9.173
 2424POPC   C1A34011   3.027  25.096   8.782
 2424POPC   D2A34012   2.804  25.310   8.458
 2424POPC   C3A34013   2.902  25.225   8.014
 2424POPC   C4A34014   2.864  25.424   7.612
 2424POPC   C1B34015   2.417  25.373   8.884
 2424POPC   C2B34016   2.297  25.331   8.500
 2424POPC   C3B34017   2.420  25.355   8.112
 2424POPC   C4B34018   2.381  25.325   7.713
 2425POPC   NC334019  28.507   2.792   9.501
 2425POPC   PO434020  27.884   2.785   9.549
 2425POPC   GL134021  28.145   2.599   9.204
 2425POPC   GL234022  28.209   2.929   9.064
 2425POPC   C1A34023  28.438   2.529   8.850
 2425POPC   D2A34024  28.553   2.501   8.415
 2425POPC   C3A34025  28.467   2.725   8.026
 2425POPC   C4A34026  28.390   2.515   7.637
 2425POPC   C1B34027  28.183   2.898   8.590
 2425POPC   C2B34028  28.131   3.152   8.220
 2425POPC   C3B34029  28.248   3.247   7.808
 2425POPC   C4B34030  28.402   3.000   7.452
 2426POPC   NC334031   0.824  29.598   9.389
 2426POPC   PO434032   0.184  29.846   9.437
 2426POPC   GL134033   0.321  29.957   9.040
 2426POPC   GL234034   0.566  30.217   8.936
 2426POPC   C1A34035   0.103  30.253   8.756
 2426POPC   D2A34036  44.919  30.277   8.348
 2426POPC   C3A34037   0.041  29.953   8.083
 2426POPC   C4A34038   0.418  29.819   7.903
 2426POPC   C1B34039   0.545  29.908   8.600
 2426POPC   C2B34040   0.911  29.776   8.385
 2426POPC   C3B34041   0.971  29.934   7.996
 2426POPC   C4B34042   0.741  30.158   7.714
 2427POPC   NC334043  39.832  26.162   9.604
 2427POPC   PO434044  39.967  25.486   9.542
 2427POPC   GL134045  39.910  25.739   9.156
 2427POPC   GL234046  39.725  26.029   9.132
 2427POPC   C1A34047  40.085  25.968   8.757
 2427POPC   D2A34048  40.340  26.063   8.375
 2427POPC   C3A34049  40.183  25.951   7.989
 2427POPC   C4A34050  39.992  26.095   7.635
 2427POPC   C1B34051  39.724  26.361   8.833
 2427POPC   C2B34052  39.559  26.379   8.420
 2427POPC   C3B34053  39.706  26.304   8.003
 2427POPC   C4B34054  39.689  26.473   7.577
 2428POPC   NC334055  20.950  14.807   9.704
 2428POPC   PO434056  20.384  14.582   9.420
 2428POPC   GL134057  20.652  14.512   9.134
 2428POPC   GL234058  20.903  14.351   9.365
 2428POPC   C1A34059  20.543  14.494   8.690
 2428POPC   D2A34060  20.528  14.299   8.261
 2428POPC   C3A34061  20.357  14.528   7.891
 2428POPC   C4A34062  20.464  14.711   7.463
 2428POPC   C1B34063  20.982  14.187   8.940
 2428POPC   C2B34064  21.010  14.331   8.535
 2428POPC   C3B34065  21.036  14.429   8.140
 2428POPC   C4B34066  21.275  14.268   7.815
 2429POPC   NC334067  31.259  35.632   9.441
 2429POPC   PO434068  31.656  35.010   9.551
 2429POPC   GL134069  31.686  35.187   9.121
 2429POPC   GL234070  31.395  35.401   9.010
 2429POPC   C1A34071  31.583  35.089   8.662
 2429POPC   D2A34072  31.260  35.326   8.402
 2429POPC   C3A34073  31.397  35.292   7.963
 2429POPC   C4A34074  31.725  34.973   7.905
 2429POPC   C1B34075  31.114  35.693   8.753
 2429POPC   C2B34076  30.978  35.740   8.299
 2429POPC   C3B34077  31.023  35.652   7.839
 2429POPC   C4B34078  31.197  35.484   7.409
 2430POPC   NC334079   1.062   3.612   9.489
 2430POPC   PO434080   1.711   3.641   9.472
 2430POPC   GL134081   1.447   3.489   9.170
 2430POPC   GL234082   1.336   3.866   9.163
 2430POPC   C1A34083   1.263   3.555   8.763
 2430POPC   D2A34084   1.373   3.576   8.343
 2430POPC   C3A34085   1.158   3.352   8.015
 2430POPC   C4A34086   1.552   3.356   7.838
 2430POPC   C1B34087   1.284   4.075   8.801
 2430POPC   C2B34088   1.095   4.021   8.424
 2430POPC   C3B34089   1.225   3.959   8.027
 2430POPC   C4B34090   1.119   3.737   7.672
 2431POPC   NC334091  25.060  34.158   9.745
 2431POPC   PO434092  25.301  33.601   9.391
 2431POPC   GL134093  25.387  33.561   9.024
 2431POPC   GL234094  25.082  33.412   8.967
 2431POPC   C1A34095  25.364  33.946   8.774
 2431POPC   D2A34096  25.099  34.071   8.479
 2431POPC   C3A34097  25.109  33.814   8.137
 2431POPC   C4A34098  25.189  33.875   7.737
 2431POPC   C1B34099  25.185  33.525   8.564
 2431POPC   C2B34100  25.407  33.395   8.247
 2431POPC   C3B34101  25.174  33.343   7.897
 2431POPC   C4B34102  25.090  33.426   7.494
 2432POPC   NC334103  31.542  22.423   9.550
 2432POPC   PO434104  31.453  23.108   9.429
 2432POPC   GL134105  31.594  22.779   9.174
 2432POPC   GL234106  31.945  22.650   9.304
 2432POPC   C1A34107  31.439  22.865   8.769
 2432POPC   D2A34108  31.525  23.098   8.390
 2432POPC   C3A34109  31.358  22.935   8.016
 2432POPC   C4A34110  31.374  23.068   7.614
 2432POPC   C1B34111  31.992  22.629   8.860
 2432POPC   C2B34112  31.779  22.652   8.471
 2432POPC   C3B34113  31.858  22.793   8.071
 2432POPC   C4B34114  31.719  22.703   7.688
 2433POPC   NC334115  31.216  25.805   9.631
 2433POPC   PO434116  31.954  26.070   9.588
 2433POPC   GL134117  31.649  26.279   9.260
 2433POPC   GL234118  31.340  26.095   9.243
 2433POPC   C1A34119  31.557  26.383   8.826
 2433POPC   D2A34120  31.730  26.415   8.432
 2433POPC   C3A34121  31.497  26.366   8.065
 2433POPC   C4A34122  31.598  26.148   7.715
 2433POPC   C1B34123  31.603  25.883   8.937
 2433POPC   C2B34124  31.497  25.953   8.500
 2433POPC   C3B34125  31.391  25.867   8.093
 2433POPC   C4B34126  31.481  25.621   7.748
 2434POPC   NC334127  21.770  10.127   9.615
 2434POPC   PO434128  22.402   9.855   9.458
 2434POPC   GL134129  22.081  10.007   9.172
 2434POPC   GL234130  22.285  10.202   8.941
 2434POPC   C1A34131  22.059   9.761   8.782
 2434POPC   D2A34132  21.929   9.729   8.348
 2434POPC   C3A34133  22.226   9.830   7.982
 2434POPC   C4A34134  22.059   9.770   7.544
 2434POPC   C1B34135  22.405  10.015   8.530
 2434POPC   C2B34136  22.417   9.571   8.398
 2434POPC   C3B34137  22.541   9.416   7.989
 2434POPC   C4B34138  22.559   9.659   7.594
 2435POPC   NC334139  31.689   5.605   9.834
 2435POPC   PO434140  31.435   6.047   9.602
 2435POPC   GL134141  31.433   6.273   9.129
 2435POPC   GL234142  31.760   6.273   8.953
 2435POPC   C1A34143  31.372   6.313   8.627
 2435POPC   D2A34144  31.548   6.141   8.191
 2435POPC   C3A34145  31.293   5.973   7.871
 2435POPC   C4A34146  31.161   6.047   7.439
 2435POPC   C1B34147  31.670   5.897   8.667
 2435POPC   C2B34148  31.584   5.644   8.277
 2435POPC   C3B34149  31.768   5.686   7.853
 2435POPC   C4B34150  31.948   5.661   7.392
 2436POPC   NC334151  39.594   2.834   9.344
 2436POPC   PO434152  38.949   2.608   9.377
 2436POPC   GL134153  39.229   2.593   9.081
 2436POPC   GL234154  39.409   2.304   9.152
 2436POPC   C1A34155  39.299   2.815   8.692
 2436POPC   D2A34156  39.058   2.853   8.302
 2436POPC   C3A34157  39.335   2.840   7.965
 2436POPC   C4A34158  39.405   3.113   7.651
 2436POPC   C1B34159  39.328   2.273   8.701
 2436POPC   C2B34160  39.447   2.464   8.302
 2436POPC   C3B34161  39.431   2.338   7.859
 2436POPC   C4B34162  39.290   2.572   7.500
 2437POPC   NC334163  25.037  41.017   9.233
 2437POPC   PO434164  25.419  40.639   9.671
 2437POPC   GL134165  25.385  40.570   9.206
 2437POPC   GL234166  25.603  40.799   9.156
 2437POPC   C1A34167  25.278  40.725   8.723
 2437POPC   D2A34168  25.268  40.736   8.262
 2437POPC   C3A34169  25.009  40.855   7.927
 2437POPC   C4A34170  24.927  40.491   7.650
 2437POPC   C1B34171  25.730  40.535   8.807
 2437POPC   C2B34172  25.615  40.335   8.437
 2437POPC   C3B34173  25.683  40.440   8.062
 2437POPC   C4B34174  25.421  40.613   7.775
 2438POPC   NC334175  28.949   2.051   9.492
 2438POPC   PO434176  29.421   1.815   9.307
 2438POPC   GL134177  29.076   1.956   9.011
 2438POPC   GL234178  28.712   1.876   9.079
 2438POPC   C1A34179  28.849   2.172   8.688
 2438POPC   D2A34180  28.920   2.184   8.249
 2438POPC   C3A34181  29.279   2.199   7.943
 2438POPC   C4A34182  29.199   2.232   7.480
 2438POPC   C1B34183  28.808   1.647   8.699
 2438POPC   C2B34184  28.954   1.685   8.252
 2438POPC   C3B34185  28.899   1.869   7.812
 2438POPC   C4B34186  28.882   1.581   7.461
 2439POPC   NC334187   8.182  21.261   9.764
 2439POPC   PO434188   8.530  20.734   9.769
 2439POPC   GL134189   8.220  20.912   9.370
 2439POPC   GL234190   8.265  21.271   9.234
 2439POPC   C1A34191   8.129  20.943   8.865
 2439POPC   D2A34192   8.141  21.239   8.467
 2439POPC   C3A34193   8.239  21.330   7.988
 2439POPC   C4A34194   8.011  21.574   7.633
 2439POPC   C1B34195   8.465  21.482   8.850
 2439POPC   C2B34196   8.642  21.705   8.474
 2439POPC   C3B34197   8.608  21.713   8.020
 2439POPC   C4B34198   8.515  21.602   7.608
 2440POPC   NC334199  36.590  15.216   9.414
 2440POPC   PO434200  36.001  15.154   9.565
 2440POPC   GL134201  36.111  14.993   9.151
 2440POPC   GL234202  36.417  14.791   9.126
 2440POPC   C1A34203  36.134  15.191   8.733
 2440POPC   D2A34204  35.953  15.235   8.310
 2440POPC   C3A34205  36.049  15.330   7.834
 2440POPC   C4A34206  35.785  15.200   7.457
 2440POPC   C1B34207  36.511  14.865   8.699
 2440POPC   C2B34208  36.204  14.769   8.380
 2440POPC   C3B34209  36.073  14.847   7.976
 2440POPC   C4B34210  36.390  14.934   7.677
 2441POPC   NC334211   3.214  37.612   9.565
 2441POPC   PO434212   2.601  37.400   9.512
 2441POPC   GL134213   2.870  37.482   9.171
 2441POPC   GL234214   3.047  37.773   9.099
 2441POPC   C1A34215   2.781  37.418   8.746
 2441POPC   D2A34216   3.017  37.548   8.395
 2441POPC   C3A34217   2.956  37.308   8.044
 2441POPC   C4A34218   2.943  37.419   7.624
 2441POPC   C1B34219   2.867  37.927   8.711
 2441POPC   C2B34220   2.863  38.035   8.266
 2441POPC   C3B34221   2.966  37.875   7.869
 2441POPC   C4B34222   2.704  37.849   7.496
 2442POPC   NC334223  10.003  37.667   9.395
 2442POPC   PO434224   9.387  37.760   9.540
 2442POPC   GL134225   9.562  37.680   9.131
 2442POPC   GL234226   9.790  37.389   9.038
 2442POPC   C1A34227   9.709  37.788   8.718
 2442POPC   D2A34228   9.778  38.009   8.320
 2442POPC   C3A34229   9.727  37.868   7.904
 2442POPC   C4A34230  10.032  37.621   7.638
 2442POPC   C1B34231   9.965  37.377   8.620
 2442POPC   C2B34232   9.705  37.491   8.260
 2442POPC   C3B34233   9.583  37.379   7.837
 2442POPC   C4B34234   9.629  37.320   7.380
 2443POPC   NC334235  19.557   2.629   9.388
 2443POPC   PO434236  18.933   2.540   9.548
 2443POPC   GL134237  18.890   2.524   9.088
 2443POPC   GL234238  19.225   2.524   8.949
 2443POPC   C1A34239  18.771   2.726   8.717
 2443POPC   D2A34240  19.019   2.840   8.374
 2443POPC   C3A34241  18.882   3.069   8.023
 2443POPC   C4A34242  18.861   2.920   7.595
 2443POPC   C1B34243  19.439   2.886   8.718
 2443POPC   C2B34244  19.462   3.076   8.303
 2443POPC   C3B34245  19.344   2.961   7.886
 2443POPC   C4B34246  19.330   2.829   7.460
 2444POPC   NC334247  43.643  24.468   9.455
 2444POPC   PO434248  42.933  24.482   9.399
 2444POPC   GL134249  43.231  24.388   9.067
 2444POPC   GL234250  43.361  24.703   9.113
 2444POPC   C1A34251  43.179  24.132   8.672
 2444POPC   D2A34252  42.972  24.072   8.239
 2444POPC   C3A34253  43.144  24.362   7.917
 2444POPC   C4A34254  43.001  24.748   7.710
 2444POPC   C1B34255  43.572  24.633   8.777
 2444POPC   C2B34256  43.478  24.605   8.368
 2444POPC   C3B34257  43.432  24.795   7.999
 2444POPC   C4B34258  43.526  24.626   7.619
 2445POPC   NC334259  11.732  23.622   9.444
 2445POPC   PO434260  11.238  23.999   9.253
 2445POPC   GL134261  11.278  23.566   9.133
 2445POPC   GL234262  11.007  23.403   8.937
 2445POPC   C1A34263  11.465  23.422   8.740
 2445POPC   D2A34264  11.261  23.401   8.318
 2445POPC   C3A34265  11.495  23.640   8.027
 2445POPC   C4A34266  11.506  23.789   7.630
 2445POPC   C1B34267  11.094  23.765   8.653
 2445POPC   C2B34268  11.125  23.946   8.226
 2445POPC   C3B34269  11.014  23.720   7.858
 2445POPC   C4B34270  11.144  23.429   7.573
 2446POPC   NC334271   3.011  11.578   9.544
 2446POPC   PO434272   3.684  11.288   9.642
 2446POPC   GL134273   3.722  11.195   9.214
 2446POPC   GL234274   3.421  11.409   9.173
 2446POPC   C1A34275   3.745  11.082   8.760
 2446POPC   D2A34276   4.014  10.921   8.431
 2446POPC   C3A34277   3.761  10.919   8.075
 2446POPC   C4A34278   3.613  11.205   7.769
 2446POPC   C1B34279   3.277  11.307   8.765
 2446POPC   C2B34280   3.450  11.273   8.357
 2446POPC   C3B34281   3.416  11.591   8.038
 2446POPC   C4B34282   3.222  11.516   7.609
 2447POPC   NC334283   7.004  41.235   9.519
 2447POPC   PO434284   6.517  41.735   9.441
 2447POPC   GL134285   6.598  41.556   9.036
 2447POPC   GL234286   6.577  41.225   9.189
 2447POPC   C1A34287   6.639  41.569   8.554
 2447POPC   D2A34288   6.892  41.716   8.171
 2447POPC   C3A34289   6.792  41.826   7.745
 2447POPC   C4A34290   6.450  41.628   7.549
 2447POPC   C1B34291   6.461  41.061   8.797
 2447POPC   C2B34292   6.446  41.125   8.373
 2447POPC   C3B34293   6.418  41.409   8.065
 2447POPC   C4B34294   6.316  41.177   7.714
 2448POPC   NC334295  23.722  27.090   9.609
 2448POPC   PO434296  23.249  26.756   9.831
 2448POPC   GL134297  23.439  26.771   9.309
 2448POPC   GL234298  23.678  27.012   9.112
 2448POPC   C1A34299  23.354  26.804   8.803
 2448POPC   D2A34300  23.571  26.890   8.437
 2448POPC   C3A34301  23.447  26.755   8.035
 2448POPC   C4A34302  23.604  26.441   7.730
 2448POPC   C1B34303  23.980  26.987   8.736
 2448POPC   C2B34304  23.950  27.185   8.293
 2448POPC   C3B34305  24.103  27.173   7.885
 2448POPC   C4B34306  23.928  26.811   7.774
 2449POPC   NC334307  20.253  12.635   9.984
 2449POPC   PO434308  19.808  12.787   9.481
 2449POPC   GL134309  19.742  12.989   9.131
 2449POPC   GL234310  19.500  12.767   9.029
 2449POPC   C1A34311  19.835  13.160   8.737
 2449POPC   D2A34312  19.991  13.007   8.372
 2449POPC   C3A34313  19.805  13.156   8.025
 2449POPC   C4A34314  19.997  13.046   7.631
 2449POPC   C1B34315  19.432  12.806   8.597
 2449POPC   C2B34316  19.584  12.701   8.204
 2449POPC   C3B34317  19.608  12.746   7.753
 2449POPC   C4B34318  19.690  12.834   7.286
 2450POPC   NC334319  36.092  22.550   9.544
 2450POPC   PO434320  36.123  21.889   9.575
 2450POPC   GL134321  36.054  22.126   9.211
 2450POPC   GL234322  35.919  22.448   9.099
 2450POPC   C1A34323  36.306  22.062   8.835
 2450POPC   D2A34324  36.234  22.224   8.424
 2450POPC   C3A34325  36.341  21.934   8.043
 2450POPC   C4A34326  36.549  21.741   7.673
 2450POPC   C1B34327  35.814  22.186   8.767
 2450POPC   C2B34328  35.687  22.035   8.396
 2450POPC   C3B34329  35.871  22.209   8.070
 2450POPC   C4B34330  36.124  22.240   7.698
 2451POPC   NC334331  26.280  44.485   9.512
 2451POPC   PO434332  25.946   0.012   9.571
 2451POPC   GL134333  26.036  44.875   9.198
 2451POPC   GL234334  25.836  44.585   9.189
 2451POPC   C1A34335  26.133  44.917   8.745
 2451POPC   D2A34336  25.946  44.767   8.344
 2451POPC   C3A34337  26.077  44.898   7.925
 2451POPC   C4A34338  26.069  44.845   7.455
 2451POPC   C1B34339  26.185  44.449   8.893
 2451POPC   C2B34340  26.345  44.503   8.488
 2451POPC   C3B34341  26.155  44.369   8.092
 2451POPC   C4B34342  26.397  44.343   7.695
 2452POPC   NC334343  28.978  29.593   9.873
 2452POPC   PO434344  29.356  30.012   9.500
 2452POPC   GL134345  29.183  30.024   9.080
 2452POPC   GL234346  29.031  29.721   9.147
 2452POPC   C1A34347  29.187  29.971   8.645
 2452POPC   D2A34348  29.343  30.145   8.299
 2452POPC   C3A34349  29.288  29.944   7.953
 2452POPC   C4A34350  29.096  30.127   7.650
 2452POPC   C1B34351  28.847  29.610   8.755
 2452POPC   C2B34352  28.947  29.605   8.298
 2452POPC   C3B34353  28.684  29.519   7.948
 2452POPC   C4B34354  28.791  29.741   7.588
 2453POPC   NC334355  19.036   2.124   9.363
 2453POPC   PO434356  19.337   1.524   9.584
 2453POPC   GL134357  19.176   1.654   9.186
 2453POPC   GL234358  19.470   1.710   9.071
 2453POPC   C1A34359  18.952   1.815   8.805
 2453POPC   D2A34360  19.002   2.216   8.559
 2453POPC   C3A34361  18.891   2.127   8.129
 2453POPC   C4A34362  19.108   2.227   7.737
 2453POPC   C1B34363  19.440   1.865   8.671
 2453POPC   C2B34364  19.185   1.762   8.357
 2453POPC   C3B34365  19.325   1.854   8.004
 2453POPC   C4B34366  19.180   1.682   7.658
 2454POPC   NC334367  16.902  42.785   9.530
 2454POPC   PO434368  16.476  42.145   9.594
 2454POPC   GL134369  16.702  42.086   9.222
 2454POPC   GL234370  16.797  42.418   9.193
 2454POPC   C1A34371  16.717  42.037   8.788
 2454POPC   D2A34372  16.515  42.242   8.435
 2454POPC   C3A34373  16.684  42.143   8.035
 2454POPC   C4A34374  16.494  42.025   7.644
 2454POPC   C1B34375  16.792  42.536   8.785
 2454POPC   C2B34376  16.959  42.465   8.383
 2454POPC   C3B34377  16.748  42.653   8.051
 2454POPC   C4B34378  16.945  42.588   7.692
 2455POPC   NC334379   9.418   7.587   9.550
 2455POPC   PO434380   8.716   7.566   9.404
 2455POPC   GL134381   9.090   7.403   9.188
 2455POPC   GL234382   9.248   7.702   9.074
 2455POPC   C1A34383   9.199   7.283   8.758
 2455POPC   D2A34384   9.165   7.190   8.313
 2455POPC   C3A34385   8.848   7.384   8.035
 2455POPC   C4A34386   8.657   7.188   7.672
 2455POPC   C1B34387   9.338   7.755   8.647
 2455POPC   C2B34388   9.211   7.689   8.280
 2455POPC   C3B34389   9.279   7.688   7.878
 2455POPC   C4B34390   9.006   7.690   7.557
 2456POPC   NC334391   5.188   4.282   9.647
 2456POPC   PO434392   4.755   4.776   9.599
 2456POPC   GL134393   5.010   4.628   9.265
 2456POPC   GL234394   5.378   4.604   9.289
 2456POPC   C1A34395   5.044   4.354   8.940
 2456POPC   D2A34396   5.142   4.334   8.505
 2456POPC   C3A34397   5.033   4.105   8.144
 2456POPC   C4A34398   4.933   4.248   7.766
 2456POPC   C1B34399   5.483   4.603   8.863
 2456POPC   C2B34400   5.540   4.615   8.411
 2456POPC   C3B34401   5.292   4.558   8.016
 2456POPC   C4B34402   5.368   4.424   7.576
 2457POPC   NC334403   9.968  19.290   9.275
 2457POPC   PO434404   9.487  18.881   9.617
 2457POPC   GL134405   9.569  18.864   9.155
 2457POPC   GL234406   9.898  18.946   8.931
 2457POPC   C1A34407   9.426  18.943   8.735
 2457POPC   D2A34408   9.576  19.254   8.462
 2457POPC   C3A34409   9.622  19.281   8.036
 2457POPC   C4A34410   9.911  19.480   7.774
 2457POPC   C1B34411  10.081  19.250   8.612
 2457POPC   C2B34412  10.202  19.282   8.169
 2457POPC   C3B34413  10.035  18.998   7.903
 2457POPC   C4B34414  10.003  18.593   7.939
 2458POPC   NC334415  29.706   4.050   9.599
 2458POPC   PO434416  30.219   3.896   9.366
 2458POPC   GL134417  29.916   3.575   9.233
 2458POPC   GL234418  29.543   3.623   9.276
 2458POPC   C1A34419  29.978   3.441   8.815
 2458POPC   D2A34420  30.180   3.709   8.526
 2458POPC   C3A34421  30.088   3.533   8.127
 2458POPC   C4A34422  29.808   3.223   8.017
 2458POPC   C1B34423  29.603   3.788   8.835
 2458POPC   C2B34424  29.687   3.644   8.404
 2458POPC   C3B34425  29.631   3.694   7.946
 2458POPC   C4B34426  29.448   3.971   7.654
 2459POPC   NC334427  35.080  17.522   9.613
 2459POPC   PO434428  35.667  17.464   9.369
 2459POPC   GL134429  35.341  17.616   9.055
 2459POPC   GL234430  34.992  17.669   9.134
 2459POPC   C1A34431  35.287  17.569   8.599
 2459POPC   D2A34432  35.600  17.457   8.275
 2459POPC   C3A34433  35.574  17.576   7.840
 2459POPC   C4A34434  35.241  17.391   7.600
 2459POPC   C1B34435  34.781  17.668   8.718
 2459POPC   C2B34436  34.893  17.607   8.274
 2459POPC   C3B34437  34.789  17.652   7.870
 2459POPC   C4B34438  34.915  17.787   7.502
 2460POPC   NC334439   6.791  11.469   9.566
 2460POPC   PO434440   6.057  11.339   9.573
 2460POPC   GL134441   6.309  11.499   9.184
 2460POPC   GL234442   6.665  11.365   9.100
 2460POPC   C1A34443   6.335  11.369   8.735
 2460POPC   D2A34444   6.519  11.067   8.447
 2460POPC   C3A34445   6.455  11.192   8.042
 2460POPC   C4A34446   6.535  11.475   7.772
 2460POPC   C1B34447   6.910  11.214   8.753
 2460POPC   C2B34448   6.906  11.360   8.315
 2460POPC   C3B34449   6.985  11.247   7.914
 2460POPC   C4B34450   7.009  11.617   7.657
 2461POPC   NC334451   6.887  43.964   9.496
 2461POPC   PO434452   6.317  43.604   9.673
 2461POPC   GL134453   6.458  43.884   9.209
 2461POPC   GL234454   6.800  43.777   9.042
 2461POPC   C1A34455   6.562  44.127   8.779
 2461POPC   D2A34456   6.874  44.083   8.416
 2461POPC   C3A34457   6.734  44.110   7.988
 2461POPC   C4A34458   6.549  44.070   7.572
 2461POPC   C1B34459   6.825  43.609   8.617
 2461POPC   C2B34460   6.834  43.637   8.168
 2461POPC   C3B34461   6.861  43.662   7.713
 2461POPC   C4B34462   6.825  43.424   7.332
 2462POPC   NC334463  43.337  38.661  10.032
 2462POPC   PO434464  42.901  38.449   9.588
 2462POPC   GL134465  43.197  38.415   9.223
 2462POPC   GL234466  43.337  38.077   9.146
 2462POPC   C1A34467  43.175  38.574   8.793
 2462POPC   D2A34468  43.154  38.840   8.414
 2462POPC   C3A34469  43.338  38.629   8.064
 2462POPC   C4A34470  43.165  38.503   7.695
 2462POPC   C1B34471  43.007  38.076   8.857
 2462POPC   C2B34472  42.984  38.244   8.456
 2462POPC   C3B34473  43.123  38.168   8.077
 2462POPC   C4B34474  42.928  38.066   7.719
 2463POPC   NC334475  12.619  40.658   9.836
 2463POPC   PO434476  12.004  40.908   9.608
 2463POPC   GL134477  11.874  40.925   9.199
 2463POPC   GL234478  12.145  40.760   9.047
 2463POPC   C1A34479  11.743  40.958   8.776
 2463POPC   D2A34480  11.940  40.969   8.402
 2463POPC   C3A34481  11.798  40.923   8.021
 2463POPC   C4A34482  12.158  40.937   7.732
 2463POPC   C1B34483  12.335  41.038   8.710
 2463POPC   C2B34484  12.456  41.034   8.234
 2463POPC   C3B34485  12.659  41.000   7.803
 2463POPC   C4B34486  12.511  40.905   7.350
 2464POPC   NC334487   2.131  23.072   9.574
 2464POPC   PO434488   1.458  22.939   9.445
 2464POPC   GL134489   1.767  23.078   9.130
 2464POPC   GL234490   1.985  22.814   9.155
 2464POPC   C1A34491   2.073  23.035   8.726
 2464POPC   D2A34492   2.156  22.665   8.449
 2464POPC   C3A34493   2.306  22.742   8.035
 2464POPC   C4A34494   2.239  23.010   7.658
 2464POPC   C1B34495   1.730  22.687   8.791
 2464POPC   C2B34496   1.717  22.914   8.388
 2464POPC   C3B34497   1.861  23.008   8.000
 2464POPC   C4B34498   1.847  23.326   7.688
 2465POPC   NC334499  36.083  13.911   9.493
 2465POPC   PO434500  36.048  13.260   9.384
 2465POPC   GL134501  36.235  13.327   9.005
 2465POPC   GL234502  36.344  13.627   9.139
 2465POPC   C1A34503  36.175  13.428   8.551
 2465POPC   D2A34504  35.949  13.762   8.260
 2465POPC   C3A34505  36.165  13.964   7.885
 2465POPC   C4A34506  36.181  13.886   7.426
 2465POPC   C1B34507  36.590  13.649   8.769
 2465POPC   C2B34508  36.433  13.861   8.431
 2465POPC   C3B34509  36.443  13.597   8.109
 2465POPC   C4B34510  36.254  13.493   7.747
 2466POPC   NC334511  13.159   6.359   9.494
 2466POPC   PO434512  12.773   6.841   9.484
 2466POPC   GL134513  12.616   6.725   9.113
 2466POPC   GL234514  12.822   6.458   9.120
 2466POPC   C1A34515  12.682   6.667   8.679
 2466POPC   D2A34516  12.628   6.445   8.343
 2466POPC   C3A34517  12.742   6.696   7.997
 2466POPC   C4A34518  12.839   6.771   7.568
 2466POPC   C1B34519  13.154   6.502   8.820
 2466POPC   C2B34520  13.131   6.483   8.375
 2466POPC   C3B34521  12.980   6.246   8.023
 2466POPC   C4B34522  13.108   6.278   7.624
 2467POPC   NC334523  22.268  18.770   9.484
 2467POPC   PO434524  22.589  19.291   9.711
 2467POPC   GL134525  22.231  19.262   9.328
 2467POPC   GL234526  21.873  19.281   9.151
 2467POPC   C1A34527  22.222  19.054   8.906
 2467POPC   D2A34528  22.362  19.110   8.517
 2467POPC   C3A34529  22.262  18.810   8.207
 2467POPC   C4A34530  22.011  18.659   7.864
 2467POPC   C1B34531  21.924  19.413   8.699
 2467POPC   C2B34532  22.017  19.381   8.246
 2467POPC   C3B34533  21.990  19.210   7.812
 2467POPC   C4B34534  21.744  19.338   7.426
 2468POPC   NC334535  14.210  13.887   9.368
 2468POPC   PO434536  14.036  14.545   9.535
 2468POPC   GL134537  14.384  14.523   9.206
 2468POPC   GL234538  14.579  14.226   9.210
 2468POPC   C1A34539  14.556  14.581   8.782
 2468POPC   D2A34540  14.371  14.700   8.404
 2468POPC   C3A34541  14.502  14.600   8.039
 2468POPC   C4A34542  14.280  14.590   7.701
 2468POPC   C1B34543  14.513  14.023   8.812
 2468POPC   C2B34544  14.644  13.902   8.409
 2468POPC   C3B34545  14.453  14.086   8.067
 2468POPC   C4B34546  14.569  14.173   7.686
 2469POPC   NC334547  23.164  44.112   9.482
 2469POPC   PO434548  22.541  43.828   9.372
 2469POPC   GL134549  22.826  43.998   9.130
 2469POPC   GL234550  23.015  43.720   9.127
 2469POPC   C1A34551  23.168  44.115   8.821
 2469POPC   D2A34552  23.310  44.211   8.407
 2469POPC   C3A34553  23.202  44.334   7.970
 2469POPC   C4A34554  23.112  44.096   7.578
 2469POPC   C1B34555  22.853  43.730   8.721
 2469POPC   C2B34556  23.041  43.737   8.362
 2469POPC   C3B34557  22.929  43.912   8.026
 2469POPC   C4B34558  22.630  43.942   7.703
 2470POPC   NC334559  27.206   3.846   9.656
 2470POPC   PO434560  27.856   3.652   9.632
 2470POPC   GL134561  27.681   3.725   9.203
 2470POPC   GL234562  27.367   3.645   9.213
 2470POPC   C1A34563  27.648   3.748   8.728
 2470POPC   D2A34564  27.682   3.529   8.322
 2470POPC   C3A34565  27.657   3.730   7.928
 2470POPC   C4A34566  27.771   3.579   7.548
 2470POPC   C1B34567  27.214   3.483   8.844
 2470POPC   C2B34568  27.175   3.654   8.436
 2470POPC   C3B34569  27.221   3.469   8.045
 2470POPC   C4B34570  27.145   3.598   7.645
 2471POPC   NC334571  39.668  28.045   9.457
 2471POPC   PO434572  40.112  27.546   9.528
 2471POPC   GL134573  40.154  27.570   9.110
 2471POPC   GL234574  40.266  27.222   9.093
 2471POPC   C1A34575  40.139  27.890   8.774
 2471POPC   D2A34576  39.836  27.865   8.427
 2471POPC   C3A34577  39.956  27.813   8.009
 2471POPC   C4A34578  39.739  27.669   7.626
 2471POPC   C1B34579  39.974  27.255   8.749
 2471POPC   C2B34580  39.977  27.382   8.322
 2471POPC   C3B34581  39.987  27.301   7.892
 2471POPC   C4B34582  40.211  27.355   7.497
 2472POPC   NC334583  32.081  29.616   9.456
 2472POPC   PO434584  32.606  29.796   9.811
 2472POPC   GL134585  32.552  29.736   9.322
 2472POPC   GL234586  32.367  30.054   9.210
 2472POPC   C1A34587  32.406  29.646   8.880
 2472POPC   D2A34588  32.212  29.688   8.465
 2472POPC   C3A34589  32.411  29.676   8.046
 2472POPC   C4A34590  32.052  29.681   7.771
 2472POPC   C1B34591  32.200  30.113   8.793
 2472POPC   C2B34592  32.295  30.212   8.364
 2472POPC   C3B34593  32.281  30.180   7.926
 2472POPC   C4B34594  31.943  30.190   7.661
 2473POPC   NC334595  38.444  25.441   9.399
 2473POPC   PO434596  38.182  24.859   9.548
 2473POPC   GL134597  38.398  24.912   9.123
 2473POPC   GL234598  38.506  25.234   8.950
 2473POPC   C1A34599  38.520  24.802   8.690
 2473POPC   D2A34600  38.547  25.152   8.392
 2473POPC   C3A34601  38.507  25.001   7.964
 2473POPC   C4A34602  38.202  25.161   7.684
 2473POPC   C1B34603  38.670  25.596   8.689
 2473POPC   C2B34604  38.744  25.692   8.227
 2473POPC   C3B34605  38.601  25.498   7.832
 2473POPC   C4B34606  38.736  25.454   7.381
 2474POPC   NC334607  32.448  27.141   9.455
 2474POPC   PO434608  32.271  26.612   9.820
 2474POPC   GL134609  32.194  26.692   9.296
 2474POPC   GL234610  31.973  26.962   9.227
 2474POPC   C1A34611  32.244  26.694   8.808
 2474POPC   D2A34612  32.148  26.679   8.371
 2474POPC   C3A34613  32.414  26.769   8.036
 2474POPC   C4A34614  32.646  26.803   7.643
 2474POPC   C1B34615  32.153  27.196   8.857
 2474POPC   C2B34616  32.384  27.117   8.484
 2474POPC   C3B34617  32.257  27.261   8.081
 2474POPC   C4B34618  32.092  27.047   7.749
 2475POPC   NC334619  10.816   5.710   9.306
 2475POPC   PO434620  10.387   6.195   9.572
 2475POPC   GL134621  10.478   6.088   9.187
 2475POPC   GL234622  10.266   5.806   9.160
 2475POPC   C1A34623  10.376   6.155   8.759
 2475POPC   D2A34624  10.369   5.990   8.343
 2475POPC   C3A34625  10.669   6.073   8.014
 2475POPC   C4A34626  10.757   6.033   7.574
 2475POPC   C1B34627  10.297   5.631   8.758
 2475POPC   C2B34628  10.460   5.490   8.365
 2475POPC   C3B34629  10.256   5.565   8.008
 2475POPC   C4B34630  10.277   5.873   7.693
 2476POPC   NC334631  34.564  40.249   9.570
 2476POPC   PO434632  34.731  39.649   9.607
 2476POPC   GL134633  34.533  39.881   9.212
 2476POPC   GL234634  34.769  40.137   9.092
 2476POPC   C1A34635  34.431  39.943   8.754
 2476POPC   D2A34636  34.749  40.102   8.465
 2476POPC   C3A34637  34.722  40.032   8.031
 2476POPC   C4A34638  34.371  39.787   7.848
 2476POPC   C1B34639  34.400  40.409   8.957
 2476POPC   C2B34640  34.327  40.437   8.517
 2476POPC   C3B34641  34.272  40.511   8.097
 2476POPC   C4B34642  34.418  40.313   7.738
 2477POPC   NC334643  30.827  39.028   9.420
 2477POPC   PO434644  30.467  39.696   9.512
 2477POPC   GL134645  30.580  39.531   9.102
 2477POPC   GL234646  30.565  39.160   9.003
 2477POPC   C1A34647  30.778  39.549   8.695
 2477POPC   D2A34648  30.892  39.417   8.284
 2477POPC   C3A34649  30.568  39.286   8.050
 2477POPC   C4A34650  30.377  39.372   7.691
 2477POPC   C1B34651  30.919  39.032   8.725
 2477POPC   C2B34652  31.202  39.024   8.376
 2477POPC   C3B34653  30.995  38.996   7.962
 2477POPC   C4B34654  30.714  38.914   7.627
 2478POPC   NC334655  27.398  37.274   9.424
 2478POPC   PO434656  27.433  36.637   9.473
 2478POPC   GL134657  27.630  36.828   9.116
 2478POPC   GL234658  27.810  37.186   9.128
 2478POPC   C1A34659  27.475  36.683   8.701
 2478POPC   D2A34660  27.236  36.561   8.346
 2478POPC   C3A34661  27.452  36.743   8.031
 2478POPC   C4A34662  27.746  37.074   7.928
 2478POPC   C1B34663  27.490  37.195   8.774
 2478POPC   C2B34664  27.455  37.230   8.333
 2478POPC   C3B34665  27.213  37.210   7.969
 2478POPC   C4B34666  27.192  36.947   7.629
 2479POPC   NC334667  41.857  26.917   9.331
 2479POPC   PO434668  41.395  26.406   9.528
 2479POPC   GL134669  41.373  26.769   9.185
 2479POPC   GL234670  41.609  26.822   8.908
 2479POPC   C1A34671  41.154  26.982   8.802
 2479POPC   D2A34672  41.269  27.185   8.370
 2479POPC   C3A34673  41.350  26.976   7.975
 2479POPC   C4A34674  41.422  27.117   7.539
 2479POPC   C1B34675  41.693  27.114   8.630
 2479POPC   C2B34676  41.817  27.230   8.259
 2479POPC   C3B34677  41.849  27.116   7.862
 2479POPC   C4B34678  41.742  26.763   7.679
 2480POPC   NC334679  19.153  21.971   9.548
 2480POPC   PO434680  19.282  22.596   9.715
 2480POPC   GL134681  19.363  22.466   9.230
 2480POPC   GL234682  19.277  22.130   9.084
 2480POPC   C1A34683  19.415  22.455   8.716
 2480POPC   D2A34684  19.408  22.580   8.224
 2480POPC   C3A34685  19.127  22.357   7.913
 2480POPC   C4A34686  19.049  21.892   7.826
 2480POPC   C1B34687  19.169  21.892   8.710
 2480POPC   C2B34688  19.240  22.038   8.298
 2480POPC   C3B34689  19.525  22.046   7.945
 2480POPC   C4B34690  19.462  21.869   7.525
 2481POPC   NC334691  20.382  24.334   9.498
 2481POPC   PO434692  21.047  24.079   9.371
 2481POPC   GL134693  20.742  24.325   9.128
 2481POPC   GL234694  20.506  24.082   9.051
 2481POPC   C1A34695  20.581  24.570   8.766
 2481POPC   D2A34696  20.830  24.548   8.372
 2481POPC   C3A34697  20.848  24.751   7.960
 2481POPC   C4A34698  20.686  24.714   7.523
 2481POPC   C1B34699  20.476  24.099   8.588
 2481POPC   C2B34700  20.339  24.446   8.320
 2481POPC   C3B34701  20.373  24.541   7.914
 2481POPC   C4B34702  20.438  24.232   7.590
 2482POPC   NC334703  29.493  25.504   9.445
 2482POPC   PO434704  28.959  25.095   9.512
 2482POPC   GL134705  29.098  25.339   9.189
 2482POPC   GL234706  29.311  25.096   9.102
 2482POPC   C1A34707  29.188  25.574   8.834
 2482POPC   D2A34708  29.098  25.473   8.398
 2482POPC   C3A34709  29.298  25.213   8.089
 2482POPC   C4A34710  29.360  25.222   7.643
 2482POPC   C1B34711  29.039  25.058   8.755
 2482POPC   C2B34712  28.911  24.976   8.343
 2482POPC   C3B34713  29.013  24.788   7.941
 2482POPC   C4B34714  29.115  24.797   7.511
 2483POPC   NC334715  32.710  16.828   9.672
 2483POPC   PO434716  32.973  16.451   9.238
 2483POPC   GL134717  33.109  16.799   9.053
 2483POPC   GL234718  32.845  16.983   9.145
 2483POPC   C1A34719  33.129  16.737   8.622
 2483POPC   D2A34720  32.923  16.604   8.258
 2483POPC   C3A34721  33.197  16.661   7.915
 2483POPC   C4A34722  33.167  16.607   7.453
 2483POPC   C1B34723  32.960  17.190   8.732
 2483POPC   C2B34724  33.065  17.126   8.273
 2483POPC   C3B34725  33.078  17.162   7.823
 2483POPC   C4B34726  33.058  17.093   7.380
 2484POPC   NC334727  35.547   9.963   9.387
 2484POPC   PO434728  35.116   9.396   9.455
 2484POPC   GL134729  35.059   9.739   9.175
 2484POPC   GL234730  35.361   9.717   8.991
 2484POPC   C1A34731  34.956   9.835   8.737
 2484POPC   D2A34732  35.157   9.689   8.366
 2484POPC   C3A34733  34.994   9.810   7.978
 2484POPC   C4A34734  34.978   9.665   7.599
 2484POPC   C1B34735  35.595   9.618   8.626
 2484POPC   C2B34736  35.615   9.886   8.271
 2484POPC   C3B34737  35.854   9.916   7.919
 2484POPC   C4B34738  35.727  10.081   7.543
 2485POPC   NC334739  44.450  15.090   9.538
 2485POPC   PO434740  44.840  15.635   9.662
 2485POPC   GL134741  44.819  15.314   9.280
 2485POPC   GL234742  44.886  14.956   9.146
 2485POPC   C1A34743  44.635  15.288   8.847
 2485POPC   D2A34744  44.799  15.194   8.411
 2485POPC   C3A34745  44.542  15.351   8.112
 2485POPC   C4A34746  44.455  15.284   7.705
 2485POPC   C1B34747  44.728  14.802   8.730
 2485POPC   C2B34748  44.431  14.840   8.325
 2485POPC   C3B34749  44.353  14.797   7.849
 2485POPC   C4B34750  44.692  14.786   7.497
 2486POPC   NC334751  17.953  44.686   9.548
 2486POPC   PO434752  17.290  44.871   9.432
 2486POPC   GL134753  17.582  44.636   9.170
 2486POPC   GL234754  17.812  44.903   9.100
 2486POPC   C1A34755  17.667  44.417   8.789
 2486POPC   D2A34756  17.807  44.500   8.381
 2486POPC   C3A34757  17.502  44.631   8.111
 2486POPC   C4A34758  17.345  44.427   7.783
 2486POPC   C1B34759  17.781  44.959   8.636
 2486POPC   C2B34760  17.869   0.016   8.174
 2486POPC   C3B34761  17.731  44.964   7.779
 2486POPC   C4B34762  17.291  44.949   7.700
 2487POPC   NC334763  15.479  12.269   9.405
 2487POPC   PO434764  15.024  11.882   9.511
 2487POPC   GL134765  15.008  12.053   9.120
 2487POPC   GL234766  15.334  12.149   8.932
 2487POPC   C1A34767  14.845  12.231   8.771
 2487POPC   D2A34768  15.077  12.315   8.413
 2487POPC   C3A34769  15.015  12.279   7.978
 2487POPC   C4A34770  15.337  12.348   7.627
 2487POPC   C1B34771  15.156  11.830   8.649
 2487POPC   C2B34772  15.120  11.750   8.204
 2487POPC   C3B34773  15.352  11.873   7.859
 2487POPC   C4B34774  15.697  11.831   7.566
 2488POPC   NC334775  44.844  25.175   9.558
 2488POPC   PO434776  44.203  25.442   9.592
 2488POPC   GL134777  44.481  25.365   9.255
 2488POPC   GL234778  44.511  24.971   9.229
 2488POPC   C1A34779  44.738  25.332   8.899
 2488POPC   D2A34780  44.653  25.212   8.497
 2488POPC   C3A34781  44.608  25.455   8.183
 2488POPC   C4A34782  44.619  25.322   7.749
 2488POPC   C1B34783  44.562  24.822   8.815
 2488POPC   C2B34784  44.368  24.792   8.408
 2488POPC   C3B34785  44.440  24.912   7.988
 2488POPC   C4B34786  44.584  24.792   7.537
 2489POPC   NC334787  44.962  22.697   9.265
 2489POPC   PO434788   0.476  23.006   9.594
 2489POPC   GL134789   0.632  22.942   9.138
 2489POPC   GL234790   0.675  22.570   9.129
 2489POPC   C1A34791   0.833  22.843   8.726
 2489POPC   D2A34792   0.676  22.926   8.327
 2489POPC   C3A34793   0.913  22.846   7.958
 2489POPC   C4A34794   0.679  22.919   7.629
 2489POPC   C1B34795   0.366  22.645   8.751
 2489POPC   C2B34796   0.288  22.619   8.297
 2489POPC   C3B34797   0.233  22.777   7.870
 2489POPC   C4B34798   0.267  22.645   7.426
 2490POPC   NC334799  36.987  29.773   9.628
 2490POPC   PO434800  36.582  30.220   9.446
 2490POPC   GL134801  36.944  30.097   9.149
 2490POPC   GL234802  37.159  29.771   9.155
 2490POPC   C1A34803  36.931  30.084   8.676
 2490POPC   D2A34804  36.672  30.236   8.329
 2490POPC   C3A34805  36.732  29.903   8.077
 2490POPC   C4A34806  36.875  29.878   7.655
 2490POPC   C1B34807  37.130  29.585   8.732
 2490POPC   C2B34808  37.182  29.733   8.309
 2490POPC   C3B34809  37.049  29.507   7.941
 2490POPC   C4B34810  37.082  29.472   7.456
 2491POPC   NC334811   8.432  10.352   9.667
 2491POPC   PO434812   9.067  10.181   9.717
 2491POPC   GL134813   9.125  10.467   9.342
 2491POPC   GL234814   8.770  10.453   9.250
 2491POPC   C1A34815   9.163  10.557   8.856
 2491POPC   D2A34816   8.996  10.480   8.420
 2491POPC   C3A34817   9.209  10.525   8.002
 2491POPC   C4A34818   9.144  10.262   7.647
 2491POPC   C1B34819   8.703  10.778   8.923
 2491POPC   C2B34820   8.876  10.963   8.537
 2491POPC   C3B34821   8.818  10.844   8.103
 2491POPC   C4B34822   8.729  10.464   7.931
 2492POPC   NC334823  15.478  43.717   9.568
 2492POPC   PO434824  15.881  44.179   9.394
 2492POPC   GL134825  15.812  43.821   9.138
 2492POPC   GL234826  16.089  43.594   9.126
 2492POPC   C1A34827  15.783  43.734   8.704
 2492POPC   D2A34828  15.985  43.934   8.338
 2492POPC   C3A34829  15.682  43.905   8.022
 2492POPC   C4A34830  15.630  43.562   7.774
 2492POPC   C1B34831  16.301  43.785   8.758
 2492POPC   C2B34832  16.450  43.694   8.360
 2492POPC   C3B34833  16.170  43.501   8.045
 2492POPC   C4B34834  16.082  43.787   7.714
 2493POPC   NC334835  25.246   4.847   9.590
 2493POPC   PO434836  25.118   5.523   9.433
 2493POPC   GL134837  25.092   5.131   9.138
 2493POPC   GL234838  25.367   4.861   9.070
 2493POPC   C1A34839  25.149   5.189   8.686
 2493POPC   D2A34840  25.111   5.422   8.286
 2493POPC   C3A34841  25.302   5.283   7.897
 2493POPC   C4A34842  25.034   5.197   7.521
 2493POPC   C1B34843  25.479   4.813   8.603
 2493POPC   C2B34844  25.264   4.843   8.204
 2493POPC   C3B34845  25.422   4.788   7.799
 2493POPC   C4B34846  25.819   4.643   7.629
 2494POPC   NC334847   7.789  10.457   9.328
 2494POPC   PO434848   8.321  10.839   9.640
 2494POPC   GL134849   8.249  10.687   9.231
 2494POPC   GL234850   8.284  10.316   9.159
 2494POPC   C1A34851   8.195  10.762   8.795
 2494POPC   D2A34852   8.480  10.632   8.458
 2494POPC   C3A34853   8.271  10.578   8.081
 2494POPC   C4A34854   7.975  10.881   7.920
 2494POPC   C1B34855   8.222  10.232   8.707
 2494POPC   C2B34856   8.082  10.047   8.309
 2494POPC   C3B34857   8.058  10.025   7.886
 2494POPC   C4B34858   8.383  10.144   7.777
 2495POPC   NC334859  26.690   3.016   9.444
 2495POPC   PO434860  26.606   2.295   9.486
 2495POPC   GL134861  26.671   2.619   9.102
 2495POPC   GL234862  26.930   2.893   9.019
 2495POPC   C1A34863  26.480   2.800   8.707
 2495POPC   D2A34864  26.596   2.778   8.292
 2495POPC   C3A34865  26.368   2.720   7.896
 2495POPC   C4A34866  26.488   2.845   7.480
 2495POPC   C1B34867  26.959   2.630   8.662
 2495POPC   C2B34868  27.089   2.693   8.247
 2495POPC   C3B34869  26.866   2.702   7.866
 2495POPC   C4B34870  27.073   2.620   7.531
 2496POPC   NC334871   3.036  13.182   9.586
 2496POPC   PO434872   2.579  12.637   9.665
 2496POPC   GL134873   2.745  12.928   9.292
 2496POPC   GL234874   3.059  12.812   9.156
 2496POPC   C1A34875   2.808  13.089   8.832
 2496POPC   D2A34876   2.699  13.263   8.433
 2496POPC   C3A34877   2.907  12.981   8.135
 2496POPC   C4A34878   2.855  12.974   7.703
 2496POPC   C1B34879   3.162  12.718   8.735
 2496POPC   C2B34880   3.219  12.597   8.295
 2496POPC   C3B34881   3.053  12.554   7.873
 2496POPC   C4B34882   3.029  12.559   7.373
 2497POPC   NC334883  20.825  11.394   9.559
 2497POPC   PO434884  20.303  11.049   9.454
 2497POPC   GL134885  20.533  11.254   9.133
 2497POPC   GL234886  20.573  11.626   9.149
 2497POPC   C1A34887  20.611  11.192   8.704
 2497POPC   D2A34888  20.789  11.297   8.328
 2497POPC   C3A34889  20.461  11.378   8.060
 2497POPC   C4A34890  20.279  11.323   7.689
 2497POPC   C1B34891  20.949  11.528   8.871
 2497POPC   C2B34892  21.133  11.678   8.476
 2497POPC   C3B34893  21.130  11.541   8.038
 2497POPC   C4B34894  20.841  11.410   7.722
 2498POPC   NC334895   2.898   0.192   9.484
 2498POPC   PO434896   2.694   0.878   9.585
 2498POPC   GL134897   2.766   0.630   9.170
 2498POPC   GL234898   2.578   0.344   9.109
 2498POPC   C1A34899   2.950   0.415   8.789
 2498POPC   D2A34900   2.950   0.065   8.486
 2498POPC   C3A34901   2.734   0.261   8.136
 2498POPC   C4A34902   2.645   0.706   7.929
 2498POPC   C1B34903   2.469   0.284   8.698
 2498POPC   C2B34904   2.382   0.555   8.372
 2498POPC   C3B34905   2.235   0.395   7.993
 2498POPC   C4B34906   2.474   0.117   7.719
 2499POPC   NC334907   8.590  18.130   9.352
 2499POPC   PO434908   9.117  17.939   9.769
 2499POPC   GL134909   9.103  18.166   9.325
 2499POPC   GL234910   9.030  17.887   9.160
 2499POPC   C1A34911   9.215  18.337   8.875
 2499POPC   D2A34912   9.321  18.534   8.448
 2499POPC   C3A34913   9.055  18.547   8.077
 2499POPC   C4A34914   9.181  18.666   7.645
 2499POPC   C1B34915   8.881  17.976   8.759
 2499POPC   C2B34916   9.012  18.135   8.389
 2499POPC   C3B34917   9.179  18.066   7.979
 2499POPC   C4B34918   8.821  17.983   7.745
 2500POPC   NC334919  37.682  21.506   9.590
 2500POPC   PO434920  38.019  20.971   9.567
 2500POPC   GL134921  37.902  21.297   9.172
 2500POPC   GL234922  37.701  21.658   9.126
 2500POPC   C1A34923  37.814  21.403   8.712
 2500POPC   D2A34924  37.490  21.321   8.415
 2500POPC   C3A34925  37.672  21.300   8.010
 2500POPC   C4A34926  37.876  21.670   7.889
 2500POPC   C1B34927  37.407  21.739   8.790
 2500POPC   C2B34928  37.588  21.829   8.389
 2500POPC   C3B34929  37.414  21.880   8.011
 2500POPC   C4B34930  37.559  21.970   7.644
 2501POPC   NC334931  16.410  28.943   9.375
 2501POPC   PO434932  15.756  28.916   9.503
 2501POPC   GL134933  15.713  29.096   9.119
 2501POPC   GL234934  16.024  29.149   9.102
 2501POPC   C1A34935  15.515  28.963   8.718
 2501POPC   D2A34936  15.477  28.843   8.280
 2501POPC   C3A34937  15.794  29.078   8.058
 2501POPC   C4A34938  16.014  28.938   7.665
 2501POPC   C1B34939  16.023  29.190   8.671
 2501POPC   C2B34940  15.891  29.491   8.410
 2501POPC   C3B34941  15.976  29.665   8.043
 2501POPC   C4B34942  15.889  29.461   7.681
 2502POPC   NC334943  34.945  44.883   9.450
 2502POPC   PO434944  35.536  44.516   9.513
 2502POPC   GL134945  35.409  44.620   9.139
 2502POPC   GL234946  35.577  44.960   9.145
 2502POPC   C1A34947  35.298  44.371   8.739
 2502POPC   D2A34948  35.166  44.261   8.285
 2502POPC   C3A34949  35.259  44.510   7.904
 2502POPC   C4A34950  35.168  44.624   7.460
 2502POPC   C1B34951  35.392  44.965   8.776
 2502POPC   C2B34952  35.414  44.745   8.400
 2502POPC   C3B34953  35.616  44.862   8.033
 2502POPC   C4B34954  35.336   0.022   7.720
 2503POPC   NC334955   6.469  39.494   9.516
 2503POPC   PO434956   6.749  40.129   9.511
 2503POPC   GL134957   6.872  40.099   9.121
 2503POPC   GL234958   6.777  39.730   9.151
 2503POPC   C1A34959   6.660  39.996   8.734
 2503POPC   D2A34960   6.639  40.151   8.328
 2503POPC   C3A34961   6.430  40.081   7.930
 2503POPC   C4A34962   6.432  40.162   7.454
 2503POPC   C1B34963   6.920  39.526   8.768
 2503POPC   C2B34964   6.764  39.630   8.375
 2503POPC   C3B34965   6.871  39.782   7.989
 2503POPC   C4B34966   6.664  39.720   7.613
 2504POPC   NC334967  17.883  34.408   9.399
 2504POPC   PO434968  17.289  34.240   9.667
 2504POPC   GL134969  17.444  34.264   9.154
 2504POPC   GL234970  17.281  34.533   8.947
 2504POPC   C1A34971  17.712  34.412   8.737
 2504POPC   D2A34972  17.699  34.212   8.315
 2504POPC   C3A34973  17.351  34.328   8.081
 2504POPC   C4A34974  17.455  34.579   7.765
 2504POPC   C1B34975  17.327  34.793   8.611
 2504POPC   C2B34976  17.286  34.874   8.191
 2504POPC   C3B34977  17.418  35.067   7.847
 2504POPC   C4B34978  17.229  35.064   7.467
 2505POPC   NC334979  24.955  40.695   9.667
 2505POPC   PO434980  24.294  40.593   9.447
 2505POPC   GL134981  24.425  40.723   9.036
 2505POPC   GL234982  24.229  41.017   8.970
 2505POPC   C1A34983  24.701  40.650   8.654
 2505POPC   D2A34984  24.744  40.548   8.221
 2505POPC   C3A34985  24.494  40.653   7.858
 2505POPC   C4A34986  24.392  40.611   7.369
 2505POPC   C1B34987  24.588  41.151   8.738
 2505POPC   C2B34988  24.780  41.074   8.346
 2505POPC   C3B34989  24.578  41.151   7.963
 2505POPC   C4B34990  24.231  41.050   7.699
 2506POPC   NC334991   5.161  11.488   9.462
 2506POPC   PO434992   5.506  11.912   9.143
 2506POPC   GL134993   5.208  11.567   8.931
 2506POPC   GL234994   4.848  11.511   9.029
 2506POPC   C1A34995   5.098  11.124   8.736
 2506POPC   D2A34996   5.262  10.882   8.335
 2506POPC   C3A34997   5.448  11.219   8.055
 2506POPC   C4A34998   5.200  11.526   7.782
 2506POPC   C1B34999   4.762  11.501   8.609
 2506POPC   C2B35000   5.042  11.412   8.294
 2506POPC   C3B35001   4.960  11.125   7.980
 2506POPC   C4B35002   4.663  11.255   7.763
 2507POPC   NC335003  31.633  36.323   9.459
 2507POPC   PO435004  31.721  35.700   9.411
 2507POPC   GL135005  31.522  35.896   9.056
 2507POPC   GL235006  31.423  36.225   9.003
 2507POPC   C1A35007  31.530  35.943   8.606
 2507POPC   D2A35008  31.584  36.226   8.323
 2507POPC   C3A35009  31.383  36.023   8.006
 2507POPC   C4A35010  31.533  35.738   7.717
 2507POPC   C1B35011  31.332  36.539   8.765
 2507POPC   C2B35012  31.359  36.693   8.405
 2507POPC   C3B35013  31.329  36.538   7.993
 2507POPC   C4B35014  31.059  36.675   7.702
 2508POPC   NC335015  22.647  34.764   9.448
 2508POPC   PO435016  22.020  34.434   9.533
 2508POPC   GL135017  22.149  34.702   9.195
 2508POPC   GL235018  22.385  34.552   9.032
 2508POPC   C1A35019  21.966  34.606   8.769
 2508POPC   D2A35020  21.815  34.511   8.378
 2508POPC   C3A35021  22.016  34.634   8.004
 2508POPC   C4A35022  21.881  34.821   7.645
 2508POPC   C1B35023  22.358  34.276   8.681
 2508POPC   C2B35024  22.410  34.438   8.293
 2508POPC   C3B35025  22.472  34.354   7.874
 2508POPC   C4B35026  22.221  34.416   7.524
 2509POPC   NC335027  15.534  27.722   9.553
 2509POPC   PO435028  14.869  27.451   9.573
 2509POPC   GL135029  15.088  27.435   9.197
 2509POPC   GL235030  15.203  27.805   9.154
 2509POPC   C1A35031  15.185  27.296   8.766
 2509POPC   D2A35032  15.299  27.517   8.392
 2509POPC   C3A35033  15.219  27.403   7.994
 2509POPC   C4A35034  15.239  27.396   7.574
 2509POPC   C1B35035  15.566  27.930   8.861
 2509POPC   C2B35036  15.726  27.836   8.413
 2509POPC   C3B35037  15.497  27.843   8.020
 2509POPC   C4B35038  15.373  27.910   7.583
 2510POPC   NC335039  18.746  14.606   9.704
 2510POPC   PO435040  18.150  14.232   9.489
 2510POPC   GL135041  18.053  14.331   9.070
 2510POPC   GL235042  18.351  14.488   8.976
 2510POPC   C1A35043  18.030  14.379   8.626
 2510POPC   D2A35044  18.412  14.391   8.406
 2510POPC   C3A35045  18.201  14.449   8.061
 2510POPC   C4A35046  18.207  14.279   7.705
 2510POPC   C1B35047  18.540  14.794   8.699
 2510POPC   C2B35048  18.844  14.745   8.400
 2510POPC   C3B35049  18.651  14.732   8.036
 2510POPC   C4B35050  18.543  14.652   7.633
 2511POPC   NC335051  12.663  27.899   9.350
 2511POPC   PO435052  13.182  27.441   9.544
 2511POPC   GL135053  12.933  27.538   9.149
 2511POPC   GL235054  12.590  27.420   9.110
 2511POPC   C1A35055  12.795  27.715   8.729
 2511POPC   D2A35056  12.957  27.861   8.342
 2511POPC   C3A35057  12.797  27.761   7.950
 2511POPC   C4A35058  13.077  27.776   7.603
 2511POPC   C1B35059  12.640  27.218   8.712
 2511POPC   C2B35060  12.568  27.382   8.273
 2511POPC   C3B35061  12.653  27.232   7.849
 2511POPC   C4B35062  13.023  27.024   7.694
 2512POPC   NC335063  31.019  21.042   9.304
 2512POPC   PO435064  31.678  21.268   9.564
 2512POPC   GL135065  31.485  21.196   9.181
 2512POPC   GL235066  31.354  21.498   9.164
 2512POPC   C1A35067  31.366  21.310   8.712
 2512POPC   D2A35068  31.236  21.486   8.319
 2512POPC   C3A35069  31.480  21.337   8.017
 2512POPC   C4A35070  31.283  21.059   7.726
 2512POPC   C1B35071  31.642  21.721   8.889
 2512POPC   C2B35072  31.712  21.642   8.436
 2512POPC   C3B35073  31.853  21.733   7.998
 2512POPC   C4B35074  31.778  21.702   7.522
 2513POPC   NC335075  15.606  44.524   9.560
 2513POPC   PO435076  15.054  44.935   9.469
 2513POPC   GL135077  15.265  44.625   9.190
 2513POPC   GL235078  15.003  44.400   9.110
 2513POPC   C1A35079  15.563  44.547   8.846
 2513POPC   D2A35080  15.518  44.575   8.376
 2513POPC   C3A35081  15.338  44.631   7.954
 2513POPC   C4A35082  15.097  44.945   7.709
 2513POPC   C1B35083  15.064  44.579   8.693
 2513POPC   C2B35084  14.996  44.407   8.290
 2513POPC   C3B35085  14.843  44.519   7.856
 2513POPC   C4B35086  14.673  44.754   7.471
 2514POPC   NC335087  17.671   4.490   9.655
 2514POPC   PO435088  17.224   4.057   9.618
 2514POPC   GL135089  17.294   4.355   9.262
 2514POPC   GL235090  17.616   4.310   9.181
 2514POPC   C1A35091  17.266   4.262   8.794
 2514POPC   D2A35092  17.521   4.159   8.429
 2514POPC   C3A35093  17.420   4.246   8.055
 2514POPC   C4A35094  17.268   4.131   7.677
 2514POPC   C1B35095  17.752   4.478   8.787
 2514POPC   C2B35096  18.025   4.316   8.476
 2514POPC   C3B35097  17.931   4.143   8.077
 2514POPC   C4B35098  17.772   4.378   7.710
 2515POPC   NC335099  12.921  41.732   9.583
 2515POPC   PO435100  12.995  41.018   9.678
 2515POPC   GL135101  13.132  41.237   9.217
 2515POPC   GL235102  13.010  41.577   9.121
 2515POPC   C1A35103  13.057  41.305   8.705
 2515POPC   D2A35104  12.799  41.429   8.308
 2515POPC   C3A35105  13.012  41.422   7.867
 2515POPC   C4A35106  12.914  41.232   7.427
 2515POPC   C1B35107  13.002  41.822   8.747
 2515POPC   C2B35108  12.767  41.951   8.406
 2515POPC   C3B35109  12.731  41.841   7.972
 2515POPC   C4B35110  12.619  41.616   7.585
 2516POPC   NC335111  30.616  10.334   9.661
 2516POPC   PO435112  30.322  10.813   9.449
 2516POPC   GL135113  30.660  10.583   9.180
 2516POPC   GL235114  30.714  10.230   9.161
 2516POPC   C1A35115  30.762  10.733   8.771
 2516POPC   D2A35116  30.663  10.615   8.368
 2516POPC   C3A35117  30.961  10.698   8.061
 2516POPC   C4A35118  30.804  10.668   7.682
 2516POPC   C1B35119  30.738  10.204   8.692
 2516POPC   C2B35120  30.958  10.182   8.272
 2516POPC   C3B35121  30.959  10.182   7.799
 2516POPC   C4B35122  30.922  10.094   7.313
 2517POPC   NC335123  23.371  10.685   9.515
 2517POPC   PO435124  24.021  10.782   9.531
 2517POPC   GL135125  23.783  10.597   9.158
 2517POPC   GL235126  23.468  10.410   9.099
 2517POPC   C1A35127  23.603  10.759   8.742
 2517POPC   D2A35128  23.458  10.673   8.300
 2517POPC   C3A35129  23.722  10.678   7.932
 2517POPC   C4A35130  24.009  10.996   7.729
 2517POPC   C1B35131  23.558  10.253   8.673
 2517POPC   C2B35132  23.381  10.174   8.271
 2517POPC   C3B35133  23.504  10.090   7.826
 2517POPC   C4B35134  23.413   9.931   7.369
 2518POPC   NC335135  24.343  34.746   9.366
 2518POPC   PO435136  24.859  34.434   9.430
 2518POPC   GL135137  24.621  34.378   9.089
 2518POPC   GL235138  24.258  34.314   9.115
 2518POPC   C1A35139  24.745  34.358   8.692
 2518POPC   D2A35140  24.543  34.430   8.327
 2518POPC   C3A35141  24.734  34.600   7.988
 2518POPC   C4A35142  24.864  34.431   7.606
 2518POPC   C1B35143  24.194  34.512   8.711
 2518POPC   C2B35144  24.043  34.491   8.271
 2518POPC   C3B35145  24.235  34.655   7.875
 2518POPC   C4B35146  24.136  35.032   7.653
 2519POPC   NC335147  11.963  33.084   9.571
 2519POPC   PO435148  11.517  32.997   9.229
 2519POPC   GL135149  11.976  32.996   9.073
 2519POPC   GL235150  12.202  33.285   9.162
 2519POPC   C1A35151  12.212  33.076   8.690
 2519POPC   D2A35152  12.161  33.367   8.354
 2519POPC   C3A35153  12.225  33.096   8.051
 2519POPC   C4A35154  12.273  32.689   7.883
 2519POPC   C1B35155  11.898  33.441   8.823
 2519POPC   C2B35156  11.668  33.246   8.462
 2519POPC   C3B35157  11.716  33.001   8.059
 2519POPC   C4B35158  11.912  33.014   7.657
 2520POPC   NC335159  35.627  15.440   9.568
 2520POPC   PO435160  35.109  14.990   9.518
 2520POPC   GL135161  35.417  15.060   9.188
 2520POPC   GL235162  35.584  14.761   9.101
 2520POPC   C1A35163  35.621  15.164   8.768
 2520POPC   D2A35164  35.465  15.070   8.345
 2520POPC   C3A35165  35.612  15.107   7.959
 2520POPC   C4A35166  35.369  14.999   7.683
 2520POPC   C1B35167  35.320  14.770   8.718
 2520POPC   C2B35168  35.010  14.804   8.421
 2520POPC   C3B35169  35.015  14.891   8.025
 2520POPC   C4B35170  35.054  14.601   7.706
 2521POPC   NC335171   6.093  18.114   9.636
 2521POPC   PO435172   5.736  17.440   9.471
 2521POPC   GL135173   5.816  17.565   9.084
 2521POPC   GL235174   6.145  17.458   9.041
 2521POPC   C1A35175   5.666  17.621   8.691
 2521POPC   D2A35176   5.855  17.540   8.312
 2521POPC   C3A35177   5.604  17.370   8.011
 2521POPC   C4A35178   5.520  17.557   7.589
 2521POPC   C1B35179   6.353  17.280   8.678
 2521POPC   C2B35180   6.409  17.145   8.265
 2521POPC   C3B35181   6.208  17.338   7.943
 2521POPC   C4B35182   5.972  17.619   7.788
 2522POPC   NC335183  19.722  32.492   9.259
 2522POPC   PO435184  20.119  32.045   9.662
 2522POPC   GL135185  20.119  32.139   9.197
 2522POPC   GL235186  20.212  32.464   9.131
 2522POPC   C1A35187  20.126  32.044   8.740
 2522POPC   D2A35188  20.147  32.292   8.350
 2522POPC   C3A35189  19.809  32.229   8.038
 2522POPC   C4A35190  19.433  31.953   8.011
 2522POPC   C1B35191  20.099  32.663   8.720
 2522POPC   C2B35192  20.223  32.813   8.282
 2522POPC   C3B35193  20.113  32.742   7.823
 2522POPC   C4B35194  19.737  32.523   7.619
 2523POPC   NC335195  10.807  24.792   9.929
 2523POPC   PO435196  10.452  25.210   9.519
 2523POPC   GL135197  10.498  25.425   9.148
 2523POPC   GL235198  10.815  25.612   9.082
 2523POPC   C1A35199  10.398  25.668   8.784
 2523POPC   D2A35200  10.204  25.571   8.387
 2523POPC   C3A35201  10.374  25.537   7.992
 2523POPC   C4A35202  10.277  25.252   7.594
 2523POPC   C1B35203  10.744  25.324   8.721
 2523POPC   C2B35204  10.797  25.361   8.254
 2523POPC   C3B35205  10.744  25.215   7.819
 2523POPC   C4B35206  10.799  24.983   7.439
 2524POPC   NC335207  20.862  41.556   9.584
 2524POPC   PO435208  20.396  41.033   9.592
 2524POPC   GL135209  20.494  41.361   9.281
 2524POPC   GL235210  20.286  41.683   9.249
 2524POPC   C1A35211  20.637  41.544   8.892
 2524POPC   D2A35212  20.514  41.600   8.463
 2524POPC   C3A35213  20.779  41.791   8.147
 2524POPC   C4A35214  20.780  41.540   7.783
 2524POPC   C1B35215  20.294  41.962   8.840
 2524POPC   C2B35216  20.317  42.063   8.384
 2524POPC   C3B35217  20.277  41.801   8.016
 2524POPC   C4B35218  20.452  41.869   7.585
 2525POPC   NC335219  21.224  32.160   9.361
 2525POPC   PO435220  21.563  32.739   9.410
 2525POPC   GL135221  21.383  32.563   9.060
 2525POPC   GL235222  21.045  32.560   9.074
 2525POPC   C1A35223  21.520  32.224   8.799
 2525POPC   D2A35224  21.613  32.045   8.450
 2525POPC   C3A35225  21.552  32.254   8.073
 2525POPC   C4A35226  21.505  32.051   7.649
 2525POPC   C1B35227  21.013  32.272   8.717
 2525POPC   C2B35228  21.100  32.108   8.293
 2525POPC   C3B35229  21.083  32.315   7.867
 2525POPC   C4B35230  20.993  32.192   7.445
 2526POPC   NC335231  21.989  31.742   9.544
 2526POPC   PO435232  22.459  31.270   9.522
 2526POPC   GL135233  22.154  31.373   9.198
 2526POPC   GL235234  21.923  31.127   9.100
 2526POPC   C1A35235  21.895  31.553   8.842
 2526POPC   D2A35236  21.902  31.642   8.411
 2526POPC   C3A35237  21.859  31.424   8.022
 2526POPC   C4A35238  22.058  31.648   7.706
 2526POPC   C1B35239  22.238  31.176   8.734
 2526POPC   C2B35240  22.242  31.276   8.314
 2526POPC   C3B35241  22.297  31.164   7.904
 2526POPC   C4B35242  22.501  31.031   7.547
 2527POPC   NC335243  21.145  39.273   9.565
 2527POPC   PO435244  20.449  39.188   9.633
 2527POPC   GL135245  20.534  39.069   9.200
 2527POPC   GL235246  20.849  39.195   9.149
 2527POPC   C1A35247  20.586  39.022   8.740
 2527POPC   D2A35248  20.364  39.300   8.444
 2527POPC   C3A35249  20.469  39.445   8.005
 2527POPC   C4A35250  20.528  39.602   7.572
 2527POPC   C1B35251  20.989  39.341   8.732
 2527POPC   C2B35252  20.834  39.597   8.425
 2527POPC   C3B35253  20.958  39.614   8.017
 2527POPC   C4B35254  20.888  39.279   7.736
 2528POPC   NC335255  38.679  23.972   9.268
 2528POPC   PO435256  37.986  23.912   9.288
 2528POPC   GL135257  38.291  23.708   9.074
 2528POPC   GL235258  38.560  23.462   9.173
 2528POPC   C1A35259  38.322  23.785   8.654
 2528POPC   D2A35260  38.081  23.567   8.383
 2528POPC   C3A35261  38.096  23.824   8.073
 2528POPC   C4A35262  38.213  23.625   7.774
 2528POPC   C1B35263  38.718  23.472   8.737
 2528POPC   C2B35264  38.571  23.403   8.290
 2528POPC   C3B35265  38.671  23.376   7.825
 2528POPC   C4B35266  38.606  23.684   7.481
 2529POPC   NC335267   6.573   8.735   9.448
 2529POPC   PO435268   6.956   9.258   9.416
 2529POPC   GL135269   6.724   9.070   9.097
 2529POPC   GL235270   6.369   9.099   9.071
 2529POPC   C1A35271   6.744   9.135   8.698
 2529POPC   D2A35272   6.465   9.276   8.423
 2529POPC   C3A35273   6.623   9.066   8.082
 2529POPC   C4A35274   6.791   8.918   7.691
 2529POPC   C1B35275   6.322   8.831   8.692
 2529POPC   C2B35276   6.538   8.610   8.359
 2529POPC   C3B35277   6.446   8.610   7.923
 2529POPC   C4B35278   6.502   8.591   7.444
 2530POPC   NC335279  27.133   5.689   9.831
 2530POPC   PO435280  26.782   5.119   9.573
 2530POPC   GL135281  26.928   5.032   9.165
 2530POPC   GL235282  26.675   4.787   9.165
 2530POPC   C1A35283  27.036   5.204   8.738
 2530POPC   D2A35284  26.992   5.061   8.299
 2530POPC   C3A35285  26.762   5.300   7.994
 2530POPC   C4A35286  26.821   5.369   7.530
 2530POPC   C1B35287  26.790   4.775   8.745
 2530POPC   C2B35288  26.647   4.701   8.369
 2530POPC   C3B35289  26.675   4.783   7.964
 2530POPC   C4B35290  26.940   4.882   7.669
 2531POPC   NC335291   3.747  40.430   9.664
 2531POPC   PO435292   3.700  39.769   9.479
 2531POPC   GL135293   3.821  40.011   9.112
 2531POPC   GL235294   3.540  40.169   9.123
 2531POPC   C1A35295   3.648  39.913   8.692
 2531POPC   D2A35296   3.473  39.587   8.441
 2531POPC   C3A35297   3.451  39.740   8.035
 2531POPC   C4A35298   3.389  39.924   7.600
 2531POPC   C1B35299   3.173  40.144   8.839
 2531POPC   C2B35300   3.191  40.059   8.411
 2531POPC   C3B35301   3.311  40.217   8.032
 2531POPC   C4B35302   3.748  40.157   7.870
 2532POPC   NC335303  18.867  10.270   9.363
 2532POPC   PO435304  19.448  10.279   9.624
 2532POPC   GL135305  19.343  10.368   9.170
 2532POPC   GL235306  19.093  10.645   9.070
 2532POPC   C1A35307  19.111  10.226   8.778
 2532POPC   D2A35308  18.895  10.213   8.382
 2532POPC   C3A35309  19.084  10.486   8.091
 2532POPC   C4A35310  19.396  10.343   7.793
 2532POPC   C1B35311  18.926  10.671   8.612
 2532POPC   C2B35312  18.602  10.709   8.283
 2532POPC   C3B35313  18.631  10.689   7.838
 2532POPC   C4B35314  18.910  10.439   7.588
 2533POPC   NC335315   3.862   3.778   9.510
 2533POPC   PO435316   3.393   3.347   9.351
 2533POPC   GL135317   3.726   3.492   9.080
 2533POPC   GL235318   3.906   3.821   9.009
 2533POPC   C1A35319   3.706   3.417   8.657
 2533POPC   D2A35320   3.329   3.437   8.404
 2533POPC   C3A35321   3.478   3.398   7.981
 2533POPC   C4A35322   3.152   3.452   7.700
 2533POPC   C1B35323   3.569   3.895   8.701
 2533POPC   C2B35324   3.567   3.844   8.241
 2533POPC   C3B35325   3.292   3.886   7.879
 2533POPC   C4B35326   3.190   3.866   7.390
 2534POPC   NC335327  10.370  10.781   9.482
 2534POPC   PO435328  10.920  10.378   9.386
 2534POPC   GL135329  10.499  10.278   9.213
 2534POPC   GL235330  10.408  10.563   9.013
 2534POPC   C1A35331  10.373  10.091   8.817
 2534POPC   D2A35332  10.474  10.178   8.405
 2534POPC   C3A35333  10.303  10.560   8.224
 2534POPC   C4A35334  10.156  10.567   7.791
 2534POPC   C1B35335  10.679  10.877   8.783
 2534POPC   C2B35336  10.839  11.048   8.366
 2534POPC   C3B35337  10.796  10.848   7.960
 2534POPC   C4B35338  10.616  10.795   7.560
 2535POPC   NC335339   4.930   6.826   9.616
 2535POPC   PO435340   5.406   6.346   9.531
 2535POPC   GL135341   5.181   6.377   9.122
 2535POPC   GL235342   4.843   6.334   9.157
 2535POPC   C1A35343   4.995   6.410   8.694
 2535POPC   D2A35344   5.116   6.319   8.322
 2535POPC   C3A35345   5.340   6.653   8.181
 2535POPC   C4A35346   5.315   6.607   7.794
 2535POPC   C1B35347   4.837   6.793   8.986
 2535POPC   C2B35348   4.811   6.936   8.555
 2535POPC   C3B35349   4.846   6.772   8.166
 2535POPC   C4B35350   4.970   6.985   7.834
 2536POPC   NC335351   6.921   1.260   9.603
 2536POPC   PO435352   6.306   1.444   9.633
 2536POPC   GL135353   6.445   1.219   9.230
 2536POPC   GL235354   6.736   0.973   9.228
 2536POPC   C1A35355   6.520   1.098   8.777
 2536POPC   D2A35356   6.587   0.954   8.342
 2536POPC   C3A35357   6.480   1.132   7.933
 2536POPC   C4A35358   6.755   1.106   7.582
 2536POPC   C1B35359   6.941   1.303   8.960
 2536POPC   C2B35360   6.942   1.326   8.491
 2536POPC   C3B35361   6.885   1.459   8.060
 2536POPC   C4B35362   7.099   1.475   7.624
 2537POPC   NC335363  24.309  13.475   9.382
 2537POPC   PO435364  24.645  14.023   9.435
 2537POPC   GL135365  24.663  13.733   9.099
 2537POPC   GL235366  24.332  13.753   8.950
 2537POPC   C1A35367  24.759  13.642   8.664
 2537POPC   D2A35368  24.760  13.898   8.281
 2537POPC   C3A35369  24.468  13.840   7.918
 2537POPC   C4A35370  24.458  13.498   7.639
 2537POPC   C1B35371  24.134  13.394   8.703
 2537POPC   C2B35372  24.011  13.214   8.278
 2537POPC   C3B35373  24.107  13.193   7.844
 2537POPC   C4B35374  24.028  13.345   7.408
 2538POPC   NC335375   5.898   1.370   9.390
 2538POPC   PO435376   6.023   2.046   9.564
 2538POPC   GL135377   6.193   2.023   9.165
 2538POPC   GL235378   6.224   1.691   9.174
 2538POPC   C1A35379   5.995   2.165   8.801
 2538POPC   D2A35380   5.661   2.132   8.477
 2538POPC   C3A35381   5.653   2.346   8.099
 2538POPC   C4A35382   5.581   2.154   7.701
 2538POPC   C1B35383   6.063   1.662   8.751
 2538POPC   C2B35384   6.125   1.935   8.372
 2538POPC   C3B35385   5.953   1.904   7.953
 2538POPC   C4B35386   6.075   1.582   7.657
 2539POPC   NC335387  44.650  31.882   9.535
 2539POPC   PO435388  44.634  31.191   9.539
 2539POPC   GL135389  44.479  31.427   9.209
 2539POPC   GL235390  44.263  31.146   9.158
 2539POPC   C1A35391  44.434  31.576   8.774
 2539POPC   D2A35392  44.522  31.741   8.353
 2539POPC   C3A35393  44.574  31.547   7.964
 2539POPC   C4A35394  44.737  31.631   7.583
 2539POPC   C1B35395  44.555  31.093   8.801
 2539POPC   C2B35396  44.654  31.208   8.367
 2539POPC   C3B35397  44.494  31.042   7.988
 2539POPC   C4B35398  44.416  31.214   7.589
 2540POPC   NC335399   9.008  36.352   9.453
 2540POPC   PO435400   8.503  36.001   9.406
 2540POPC   GL135401   8.582  36.383   9.131
 2540POPC   GL235402   8.842  36.640   9.055
 2540POPC   C1A35403   8.630  36.378   8.682
 2540POPC   D2A35404   8.822  36.630   8.374
 2540POPC   C3A35405   8.752  36.382   7.999
 2540POPC   C4A35406   8.725  35.972   7.856
 2540POPC   C1B35407   9.130  36.442   8.744
 2540POPC   C2B35408   9.062  36.168   8.360
 2540POPC   C3B35409   9.217  36.182   7.920
 2540POPC   C4B35410   9.529  36.044   7.608
 2541POPC   NC335411  27.723  31.265   9.474
 2541POPC   PO435412  27.288  31.722   9.373
 2541POPC   GL135413  27.548  31.529   9.053
 2541POPC   GL235414  27.495  31.163   9.036
 2541POPC   C1A35415  27.525  31.453   8.611
 2541POPC   D2A35416  27.171  31.371   8.354
 2541POPC   C3A35417  27.251  31.099   8.025
 2541POPC   C4A35418  27.498  31.264   7.690
 2541POPC   C1B35419  27.895  31.121   8.837
 2541POPC   C2B35420  28.041  31.286   8.461
 2541POPC   C3B35421  27.849  31.254   8.058
 2541POPC   C4B35422  27.995  31.023   7.698
 2542POPC   NC335423  21.342  11.774   9.316
 2542POPC   PO435424  21.862  12.063   9.751
 2542POPC   GL135425  21.730  12.099   9.292
 2542POPC   GL235426  21.398  12.190   9.052
 2542POPC   C1A35427  21.803  11.997   8.862
 2542POPC   D2A35428  21.534  12.114   8.525
 2542POPC   C3A35429  21.481  11.930   8.130
 2542POPC   C4A35430  21.556  12.188   7.783
 2542POPC   C1B35431  21.132  12.365   8.756
 2542POPC   C2B35432  21.023  12.184   8.374
 2542POPC   C3B35433  21.067  12.255   7.955
 2542POPC   C4B35434  21.006  11.913   7.715
 2543POPC   NC335435  17.084  37.638   9.609
 2543POPC   PO435436  17.356  38.190   9.585
 2543POPC   GL135437  17.070  38.014   9.251
 2543POPC   GL235438  17.141  37.689   9.097
 2543POPC   C1A35439  16.791  37.993   8.876
 2543POPC   D2A35440  16.852  37.982   8.428
 2543POPC   C3A35441  16.662  37.761   8.068
 2543POPC   C4A35442  16.744  37.857   7.615
 2543POPC   C1B35443  17.009  37.549   8.673
 2543POPC   C2B35444  16.968  37.374   8.241
 2543POPC   C3B35445  16.957  37.445   7.809
 2543POPC   C4B35446  17.203  37.445   7.473
 2544POPC   NC335447  28.018  35.305   9.476
 2544POPC   PO435448  28.596  35.478   9.518
 2544POPC   GL135449  28.448  35.379   9.169
 2544POPC   GL235450  28.223  35.597   9.103
 2544POPC   C1A35451  28.603  35.442   8.779
 2544POPC   D2A35452  28.519  35.203   8.455
 2544POPC   C3A35453  28.481  35.445   8.124
 2544POPC   C4A35454  28.559  35.391   7.706
 2544POPC   C1B35455  28.110  35.268   8.779
 2544POPC   C2B35456  28.027  35.208   8.310
 2544POPC   C3B35457  28.051  35.378   7.874
 2544POPC   C4B35458  28.151  35.622   7.485
 2545POPC   NC335459  43.512  15.573   9.437
 2545POPC   PO435460  43.998  15.099   9.592
 2545POPC   GL135461  43.833  15.228   9.200
 2545POPC   GL235462  43.761  14.919   9.035
 2545POPC   C1A35463  43.652  15.346   8.771
 2545POPC   D2A35464  43.571  15.157   8.354
 2545POPC   C3A35465  43.537  15.436   7.996
 2545POPC   C4A35466  43.682  15.429   7.637
 2545POPC   C1B35467  44.122  15.153   8.800
 2545POPC   C2B35468  44.105  15.339   8.407
 2545POPC   C3B35469  44.029  15.282   7.979
 2545POPC   C4B35470  44.029  15.055   7.554
 2546POPC   NC335471  40.504  25.629   9.296
 2546POPC   PO435472  40.936  25.293   9.696
 2546POPC   GL135473  40.975  25.347   9.235
 2546POPC   GL235474  41.288  25.447   9.280
 2546POPC   C1A35475  40.905  25.411   8.748
 2546POPC   D2A35476  40.595  25.239   8.435
 2546POPC   C3A35477  40.547  25.381   7.995
 2546POPC   C4A35478  40.312  25.123   7.666
 2546POPC   C1B35479  41.396  25.491   8.850
 2546POPC   C2B35480  41.296  25.162   8.535
 2546POPC   C3B35481  41.059  25.241   8.180
 2546POPC   C4B35482  41.159  25.161   7.768
 2547POPC   NC335483  10.644  25.703   9.553
 2547POPC   PO435484  10.190  26.221   9.653
 2547POPC   GL135485  10.508  26.166   9.317
 2547POPC   GL235486  10.288  25.902   9.222
 2547POPC   C1A35487  10.695  26.081   8.883
 2547POPC   D2A35488  10.843  25.785   8.554
 2547POPC   C3A35489  10.855  25.880   8.092
 2547POPC   C4A35490  10.773  26.143   7.704
 2547POPC   C1B35491  10.201  26.139   8.868
 2547POPC   C2B35492  10.414  26.057   8.452
 2547POPC   C3B35493  10.398  26.109   8.033
 2547POPC   C4B35494  10.093  26.298   7.790
 2548POPC   NC335495  21.817  22.340   9.855
 2548POPC   PO435496  21.246  22.322   9.624
 2548POPC   GL135497  21.260  22.363   9.172
 2548POPC   GL235498  21.198  22.010   9.189
 2548POPC   C1A35499  21.282  22.402   8.685
 2548POPC   D2A35500  21.307  22.442   8.208
 2548POPC   C3A35501  21.650  22.299   7.887
 2548POPC   C4A35502  21.614  22.025   7.499
 2548POPC   C1B35503  20.896  22.083   8.871
 2548POPC   C2B35504  20.790  22.237   8.452
 2548POPC   C3B35505  20.934  22.124   8.036
 2548POPC   C4B35506  21.284  21.926   7.871
 2549POPC   NC335507  35.778  21.644   9.742
 2549POPC   PO435508  36.202  21.218   9.507
 2549POPC   GL135509  36.063  21.350   9.125
 2549POPC   GL235510  36.164  21.647   9.112
 2549POPC   C1A35511  35.968  21.158   8.754
 2549POPC   D2A35512  36.070  21.136   8.342
 2549POPC   C3A35513  36.255  21.080   7.969
 2549POPC   C4A35514  36.204  21.406   7.782
 2549POPC   C1B35515  35.925  21.689   8.724
 2549POPC   C2B35516  36.009  21.650   8.273
 2549POPC   C3B35517  35.886  21.781   7.819
 2549POPC   C4B35518  35.789  21.522   7.453
 2550POPC   NC335519  39.832   1.988   9.490
 2550POPC   PO435520  40.432   1.771   9.489
 2550POPC   GL135521  40.172   1.871   9.151
 2550POPC   GL235522  40.193   2.142   9.101
 2550POPC   C1A35523  39.816   1.948   8.822
 2550POPC   D2A35524  39.824   1.758   8.422
 2550POPC   C3A35525  39.916   1.926   8.030
 2550POPC   C4A35526  39.903   1.689   7.625
 2550POPC   C1B35527  40.299   2.019   8.675
 2550POPC   C2B35528  40.075   2.246   8.397
 2550POPC   C3B35529  40.067   2.455   8.012
 2550POPC   C4B35530  40.369   2.332   7.706
 2551POPC   NC335531  44.684   2.351   9.492
 2551POPC   PO435532  44.892   1.746   9.532
 2551POPC   GL135533  44.948   1.946   9.148
 2551POPC   GL235534  44.588   2.037   9.056
 2551POPC   C1A35535  44.946   1.758   8.718
 2551POPC   D2A35536  44.870   1.941   8.320
 2551POPC   C3A35537  44.755   1.679   8.007
 2551POPC   C4A35538  44.944   1.487   7.685
 2551POPC   C1B35539  44.457   1.874   8.619
 2551POPC   C2B35540  44.204   1.922   8.236
 2551POPC   C3B35541  44.436   2.056   7.880
 2551POPC   C4B35542  44.855   2.196   7.863
 2552POPC   NC335543  42.222  40.414   9.292
 2552POPC   PO435544  42.628  40.714   9.761
 2552POPC   GL135545  42.585  40.844   9.285
 2552POPC   GL235546  42.629  40.590   9.043
 2552POPC   C1A35547  42.513  41.021   8.801
 2552POPC   D2A35548  42.118  40.928   8.491
 2552POPC   C3A35549  42.174  40.815   8.027
 2552POPC   C4A35550  42.426  40.929   7.633
 2552POPC   C1B35551  42.428  40.533   8.663
 2552POPC   C2B35552  42.594  40.787   8.334
 2552POPC   C3B35553  42.679  40.643   7.961
 2552POPC   C4B35554  42.346  40.429   7.701
 2553POPC   NC335555  19.547  35.991   9.875
 2553POPC   PO435556  19.965  36.350   9.488
 2553POPC   GL135557  19.852  36.265   9.083
 2553POPC   GL235558  19.521  36.304   8.973
 2553POPC   C1A35559  19.841  35.972   8.737
 2553POPC   D2A35560  19.667  35.740   8.376
 2553POPC   C3A35561  19.816  35.947   8.050
 2553POPC   C4A35562  20.128  35.995   7.733
 2553POPC   C1B35563  19.701  36.457   8.600
 2553POPC   C2B35564  19.897  36.414   8.231
 2553POPC   C3B35565  19.946  36.476   7.789
 2553POPC   C4B35566  19.726  36.488   7.362
 2554POPC   NC335567  17.655  26.769   9.507
 2554POPC   PO435568  17.994  26.143   9.387
 2554POPC   GL135569  17.713  26.465   9.102
 2554POPC   GL235570  17.365  26.695   9.111
 2554POPC   C1A35571  17.677  26.770   8.736
 2554POPC   D2A35572  17.801  26.959   8.347
 2554POPC   C3A35573  17.649  26.776   7.973
 2554POPC   C4A35574  17.425  26.972   7.636
 2554POPC   C1B35575  17.233  26.502   8.746
 2554POPC   C2B35576  17.329  26.626   8.340
 2554POPC   C3B35577  17.115  26.689   7.946
 2554POPC   C4B35578  16.985  26.648   7.498
 2555POPC   NC335579  31.784  24.184   9.489
 2555POPC   PO435580  31.310  24.646   9.687
 2555POPC   GL135581  31.347  24.686   9.230
 2555POPC   GL235582  31.001  24.615   9.156
 2555POPC   C1A35583  31.647  24.844   8.844
 2555POPC   D2A35584  31.680  24.961   8.395
 2555POPC   C3A35585  31.646  24.620   8.094
 2555POPC   C4A35586  31.390  24.534   7.757
 2555POPC   C1B35587  31.253  24.497   8.764
 2555POPC   C2B35588  31.452  24.264   8.433
 2555POPC   C3B35589  31.318  24.124   8.036
 2555POPC   C4B35590  31.523  23.993   7.657
 2556POPC   NC335591  26.208  17.020   9.342
 2556POPC   PO435592  25.811  17.570   9.572
 2556POPC   GL135593  25.951  17.499   9.192
 2556POPC   GL235594  25.656  17.657   9.049
 2556POPC   C1A35595  26.175  17.623   8.849
 2556POPC   D2A35596  26.031  17.814   8.476
 2556POPC   C3A35597  26.082  17.565   8.177
 2556POPC   C4A35598  26.337  17.427   7.869
 2556POPC   C1B35599  25.768  17.401   8.676
 2556POPC   C2B35600  25.999  17.123   8.431
 2556POPC   C3B35601  25.988  17.075   7.998
 2556POPC   C4B35602  25.816  17.430   7.772
 2557POPC   NC335603  27.841  32.961   9.522
 2557POPC   PO435604  27.216  33.218   9.646
 2557POPC   GL135605  27.447  33.222   9.221
 2557POPC   GL235606  27.585  32.886   9.096
 2557POPC   C1A35607  27.536  33.255   8.745
 2557POPC   D2A35608  27.598  33.237   8.292
 2557POPC   C3A35609  27.323  33.037   7.996
 2557POPC   C4A35610  27.382  33.130   7.561
 2557POPC   C1B35611  27.896  32.868   8.734
 2557POPC   C2B35612  27.904  32.802   8.270
 2557POPC   C3B35613  27.764  32.850   7.827
 2557POPC   C4B35614  27.703  32.794   7.343
 2558POPC   NC335615  14.742   5.788   9.620
 2558POPC   PO435616  14.293   6.230   9.772
 2558POPC   GL135617  14.431   6.066   9.309
 2558POPC   GL235618  14.334   5.693   9.250
 2558POPC   C1A35619  14.596   6.185   8.869
 2558POPC   D2A35620  14.349   6.265   8.491
 2558POPC   C3A35621  14.435   6.158   8.059
 2558POPC   C4A35622  14.802   6.201   7.810
 2558POPC   C1B35623  14.249   5.817   8.809
 2558POPC   C2B35624  14.297   5.710   8.392
 2558POPC   C3B35625  14.266   5.691   7.954
 2558POPC   C4B35626  14.220   5.911   7.556
 2559POPC   NC335627  20.304  14.098   9.419
 2559POPC   PO435628  19.584  14.330   9.539
 2559POPC   GL135629  19.614  14.456   9.148
 2559POPC   GL235630  19.820  14.145   9.108
 2559POPC   C1A35631  19.893  14.581   8.784
 2559POPC   D2A35632  20.126  14.638   8.379
 2559POPC   C3A35633  19.837  14.597   8.021
 2559POPC   C4A35634  19.578  14.253   7.871
 2559POPC   C1B35635  19.530  14.158   8.762
 2559POPC   C2B35636  19.652  14.070   8.370
 2559POPC   C3B35637  20.032  14.129   8.124
 2559POPC   C4B35638  20.039  14.162   7.685
 2560POPC   NC335639  43.244  35.470   9.239
 2560POPC   PO435640  42.658  35.050   9.507
 2560POPC   GL135641  42.874  35.086   9.146
 2560POPC   GL235642  42.722  35.397   9.086
 2560POPC   C1A35643  42.983  35.180   8.715
 2560POPC   D2A35644  43.327  35.315   8.503
 2560POPC   C3A35645  43.294  35.564   8.126
 2560POPC   C4A35646  43.303  35.422   7.718
 2560POPC   C1B35647  42.816  35.659   8.690
 2560POPC   C2B35648  42.825  35.458   8.287
 2560POPC   C3B35649  42.836  35.530   7.856
 2560POPC   C4B35650  42.941  35.587   7.395
 2561POPC   NC335651  22.015  32.686   9.497
 2561POPC   PO435652  22.282  32.097   9.679
 2561POPC   GL135653  22.105  32.193   9.270
 2561POPC   GL235654  21.766  32.283   9.261
 2561POPC   C1A35655  22.025  32.050   8.847
 2561POPC   D2A35656  22.214  32.132   8.471
 2561POPC   C3A35657  22.012  32.028   8.106
 2561POPC   C4A35658  22.188  32.136   7.753
 2561POPC   C1B35659  21.908  32.547   8.882
 2561POPC   C2B35660  21.883  32.498   8.466
 2561POPC   C3B35661  22.094  32.533   8.086
 2561POPC   C4B35662  21.833  32.476   7.718
 2562POPC   NC335663   7.386   6.887   9.429
 2562POPC   PO435664   7.749   6.293   9.588
 2562POPC   GL135665   7.588   6.395   9.182
 2562POPC   GL235666   7.770   6.095   9.075
 2562POPC   C1A35667   7.407   6.668   8.821
 2562POPC   D2A35668   7.192   6.555   8.440
 2562POPC   C3A35669   7.336   6.661   8.038
 2562POPC   C4A35670   7.123   6.786   7.713
 2562POPC   C1B35671   7.536   6.178   8.682
 2562POPC   C2B35672   7.529   6.220   8.217
 2562POPC   C3B35673   7.602   6.314   7.761
 2562POPC   C4B35674   7.774   6.334   7.308
 2563POPC   NC335675  29.113  38.664   9.536
 2563POPC   PO435676  29.606  38.274   9.510
 2563POPC   GL135677  29.300  38.393   9.147
 2563POPC   GL235678  29.374  38.741   9.078
 2563POPC   C1A35679  29.045  38.472   8.747
 2563POPC   D2A35680  29.203  38.632   8.335
 2563POPC   C3A35681  29.052  38.470   7.935
 2563POPC   C4A35682  28.883  38.102   7.706
 2563POPC   C1B35683  29.547  38.494   8.687
 2563POPC   C2B35684  29.593  38.251   8.328
 2563POPC   C3B35685  29.564  38.417   7.920
 2563POPC   C4B35686  29.481  38.783   7.656
 2564POPC   NC335687  14.599  11.719   9.399
 2564POPC   PO435688  14.398  12.411   9.628
 2564POPC   GL135689  14.453  12.200   9.200
 2564POPC   GL235690  14.108  12.106   9.161
 2564POPC   C1A35691  14.392  12.030   8.739
 2564POPC   D2A35692  14.691  11.938   8.399
 2564POPC   C3A35693  14.627  11.848   7.991
 2564POPC   C4A35694  14.817  11.946   7.610
 2564POPC   C1B35695  13.889  11.960   8.785
 2564POPC   C2B35696  13.999  12.056   8.365
 2564POPC   C3B35697  14.063  11.942   7.954
 2564POPC   C4B35698  14.283  11.864   7.595
 2565POPC   NC335699  42.566  15.805   9.665
 2565POPC   PO435700  42.023  15.978   9.645
 2565POPC   GL135701  42.245  15.711   9.279
 2565POPC   GL235702  42.614  15.579   9.197
 2565POPC   C1A35703  42.280  15.698   8.813
 2565POPC   D2A35704  42.027  15.740   8.412
 2565POPC   C3A35705  42.218  15.947   8.056
 2565POPC   C4A35706  42.189  15.947   7.600
 2565POPC   C1B35707  42.793  15.679   8.740
 2565POPC   C2B35708  42.740  15.815   8.273
 2565POPC   C3B35709  42.621  15.751   7.817
 2565POPC   C4B35710  42.787  15.723   7.360
 2566POPC   NC335711   9.941  16.797   9.543
 2566POPC   PO435712   9.299  16.753   9.378
 2566POPC   GL135713   9.609  16.935   9.096
 2566POPC   GL235714   9.940  16.755   9.049
 2566POPC   C1A35715   9.679  16.878   8.643
 2566POPC   D2A35716   9.948  17.007   8.284
 2566POPC   C3A35717   9.750  16.933   7.941
 2566POPC   C4A35718   9.897  16.954   7.558
 2566POPC   C1B35719   9.727  16.400   8.874
 2566POPC   C2B35720   9.643  16.310   8.446
 2566POPC   C3B35721   9.691  16.441   8.028
 2566POPC   C4B35722   9.535  16.581   7.600
 2567POPC   NC335723  28.491  19.316   9.571
 2567POPC   PO435724  28.216  19.944   9.742
 2567POPC   GL135725  28.320  19.761   9.366
 2567POPC   GL235726  28.644  19.905   9.303
 2567POPC   C1A35727  28.286  19.629   8.947
 2567POPC   D2A35728  28.136  19.742   8.545
 2567POPC   C3A35729  28.146  19.398   8.291
 2567POPC   C4A35730  28.304  19.473   7.871
 2567POPC   C1B35731  28.712  19.932   8.854
 2567POPC   C2B35732  28.656  19.727   8.459
 2567POPC   C3B35733  28.608  19.846   8.032
 2567POPC   C4B35734  28.368  20.219   7.903
 2568POPC   NC335735  34.303  18.135   9.485
 2568POPC   PO435736  34.785  18.644   9.511
 2568POPC   GL135737  34.604  18.385   9.141
 2568POPC   GL235738  34.613  18.011   9.107
 2568POPC   C1A35739  34.691  18.296   8.693
 2568POPC   D2A35740  34.786  18.476   8.289
 2568POPC   C3A35741  34.774  18.186   7.951
 2568POPC   C4A35742  34.522  18.373   7.673
 2568POPC   C1B35743  34.342  17.921   8.761
 2568POPC   C2B35744  34.492  17.946   8.332
 2568POPC   C3B35745  34.336  17.883   7.919
 2568POPC   C4B35746  34.387  17.915   7.475
 2569POPC   NC335747  33.587  13.891   9.518
 2569POPC   PO435748  33.752  13.262   9.512
 2569POPC   GL135749  33.662  13.533   9.128
 2569POPC   GL235750  33.878  13.833   9.129
 2569POPC   C1A35751  33.837  13.601   8.680
 2569POPC   D2A35752  33.905  13.396   8.299
 2569POPC   C3A35753  33.672  13.462   7.965
 2569POPC   C4A35754  33.582  13.605   7.613
 2569POPC   C1B35755  34.127  14.001   8.810
 2569POPC   C2B35756  34.266  13.962   8.418
 2569POPC   C3B35757  34.020  13.814   8.074
 2569POPC   C4B35758  33.973  13.939   7.686
 2570POPC   NC335759   9.223  17.206   9.512
 2570POPC   PO435760   8.506  17.302   9.298
 2570POPC   GL135761   8.704  17.518   8.981
 2570POPC   GL235762   9.056  17.390   9.021
 2570POPC   C1A35763   8.840  17.512   8.553
 2570POPC   D2A35764   9.158  17.216   8.415
 2570POPC   C3A35765   9.056  17.067   7.999
 2570POPC   C4A35766   8.895  17.240   7.596
 2570POPC   C1B35767   9.308  17.661   8.772
 2570POPC   C2B35768   9.276  17.698   8.331
 2570POPC   C3B35769   8.984  17.579   8.043
 2570POPC   C4B35770   9.252  17.557   7.721
 2571POPC   NC335771   1.756   5.083   9.444
 2571POPC   PO435772   2.445   5.267   9.482
 2571POPC   GL135773   2.315   5.443   9.060
 2571POPC   GL235774   1.974   5.286   9.030
 2571POPC   C1A35775   2.266   5.302   8.625
 2571POPC   D2A35776   2.025   4.920   8.486
 2571POPC   C3A35777   2.021   4.897   8.042
 2571POPC   C4A35778   2.142   5.197   7.732
 2571POPC   C1B35779   1.775   5.446   8.654
 2571POPC   C2B35780   1.887   5.355   8.224
 2571POPC   C3B35781   1.777   5.531   7.838
 2571POPC   C4B35782   1.681   5.405   7.387
 2572POPC   NC335783  27.746  16.267   9.563
 2572POPC   PO435784  27.566  15.611   9.576
 2572POPC   GL135785  27.443  15.950   9.278
 2572POPC   GL235786  27.773  16.032   9.121
 2572POPC   C1A35787  27.298  16.081   8.859
 2572POPC   D2A35788  27.504  16.220   8.480
 2572POPC   C3A35789  27.409  16.085   8.094
 2572POPC   C4A35790  27.510  16.281   7.697
 2572POPC   C1B35791  27.767  15.869   8.725
 2572POPC   C2B35792  27.874  15.847   8.300
 2572POPC   C3B35793  27.900  16.013   7.901
 2572POPC   C4B35794  27.819  15.950   7.466
 2573POPC   NC335795  13.515  27.695   9.785
 2573POPC   PO435796  13.905  27.379   9.302
 2573POPC   GL135797  13.753  27.660   9.008
 2573POPC   GL235798  13.437  27.748   9.200
 2573POPC   C1A35799  13.820  27.880   8.629
 2573POPC   D2A35800  13.493  27.727   8.346
 2573POPC   C3A35801  13.683  27.497   8.002
 2573POPC   C4A35802  13.872  27.619   7.625
 2573POPC   C1B35803  13.291  27.558   8.798
 2573POPC   C2B35804  13.063  27.380   8.451
 2573POPC   C3B35805  13.161  27.411   8.013
 2573POPC   C4B35806  13.388  27.385   7.599
 2574POPC   NC335807  32.632  39.407   9.723
 2574POPC   PO435808  32.057  39.215   9.485
 2574POPC   GL135809  32.119  39.464   9.093
 2574POPC   GL235810  32.506  39.614   9.076
 2574POPC   C1A35811  32.115  39.179   8.710
 2574POPC   D2A35812  32.241  38.859   8.450
 2574POPC   C3A35813  32.219  39.000   8.064
 2574POPC   C4A35814  32.183  39.325   7.819
 2574POPC   C1B35815  32.426  39.566   8.687
 2574POPC   C2B35816  32.432  39.389   8.314
 2574POPC   C3B35817  32.562  39.604   8.008
 2574POPC   C4B35818  32.333  39.837   7.721
 2575POPC   NC335819  19.397  22.965   9.430
 2575POPC   PO435820  19.989  22.639   9.341
 2575POPC   GL135821  19.731  22.767   9.030
 2575POPC   GL235822  19.687  23.152   9.014
 2575POPC   C1A35823  19.772  22.802   8.595
 2575POPC   D2A35824  19.866  23.145   8.381
 2575POPC   C3A35825  20.007  22.975   8.038
 2575POPC   C4A35826  20.043  23.008   7.599
 2575POPC   C1B35827  19.519  23.430   8.667
 2575POPC   C2B35828  19.587  23.574   8.239
 2575POPC   C3B35829  19.764  23.370   7.880
 2575POPC   C4B35830  19.758  23.404   7.427
 2576POPC   NC335831  43.472  28.999   9.747
 2576POPC   PO435832  42.959  29.402   9.585
 2576POPC   GL135833  43.012  29.126   9.225
 2576POPC   GL235834  43.349  29.200   9.124
 2576POPC   C1A35835  42.846  28.959   8.831
 2576POPC   D2A35836  43.066  28.924   8.416
 2576POPC   C3A35837  42.969  29.073   8.014
 2576POPC   C4A35838  43.109  28.924   7.617
 2576POPC   C1B35839  43.501  29.062   8.697
 2576POPC   C2B35840  43.563  28.881   8.341
 2576POPC   C3B35841  43.491  29.078   7.961
 2576POPC   C4B35842  43.274  29.396   7.721
 2577POPC   NC335843  37.404  11.385   9.756
 2577POPC   PO435844  37.675  11.572   9.243
 2577POPC   GL135845  37.608  11.199   9.020
 2577POPC   GL235846  37.837  10.948   9.064
 2577POPC   C1A35847  37.460  11.313   8.652
 2577POPC   D2A35848  37.596  11.485   8.307
 2577POPC   C3A35849  37.479  11.238   7.973
 2577POPC   C4A35850  37.539  11.419   7.598
 2577POPC   C1B35851  38.036  10.914   8.725
 2577POPC   C2B35852  37.808  11.009   8.380
 2577POPC   C3B35853  38.041  10.931   8.041
 2577POPC   C4B35854  37.899  11.009   7.667
 2578POPC   NC335855  19.407   4.563   9.530
 2578POPC   PO435856  19.286   3.794   9.517
 2578POPC   GL135857  19.041   4.067   9.197
 2578POPC   GL235858  19.121   4.431   9.148
 2578POPC   C1A35859  18.904   4.199   8.770
 2578POPC   D2A35860  19.148   4.218   8.422
 2578POPC   C3A35861  18.988   4.259   8.030
 2578POPC   C4A35862  18.763   4.224   7.660
 2578POPC   C1B35863  19.230   4.643   8.773
 2578POPC   C2B35864  19.318   4.673   8.356
 2578POPC   C3B35865  19.379   4.654   7.908
 2578POPC   C4B35866  19.283   4.327   7.586
 2579POPC   NC335867   8.356  11.216   9.331
 2579POPC   PO435868   8.916  11.465   9.780
 2579POPC   GL135869   8.852  11.430   9.332
 2579POPC   GL235870   8.740  11.713   9.163
 2579POPC   C1A35871   8.957  11.314   8.901
 2579POPC   D2A35872   9.181  11.400   8.508
 2579POPC   C3A35873   8.945  11.332   8.132
 2579POPC   C4A35874   8.820  11.198   7.721
 2579POPC   C1B35875   8.603  11.666   8.790
 2579POPC   C2B35876   8.621  11.831   8.397
 2579POPC   C3B35877   8.566  11.650   8.007
 2579POPC   C4B35878   8.822  11.707   7.669
 2580POPC   NC335879  32.492  23.926   9.656
 2580POPC   PO435880  31.908  23.720   9.482
 2580POPC   GL135881  32.147  23.963   9.178
 2580POPC   GL235882  32.506  24.160   9.222
 2580POPC   C1A35883  32.160  23.745   8.768
 2580POPC   D2A35884  32.445  23.464   8.523
 2580POPC   C3A35885  32.474  23.569   8.110
 2580POPC   C4A35886  32.084  23.659   7.874
 2580POPC   C1B35887  32.392  24.213   8.816
 2580POPC   C2B35888  32.468  23.996   8.442
 2580POPC   C3B35889  32.371  24.076   8.055
 2580POPC   C4B35890  32.520  23.889   7.722
 2581POPC   NC335891  30.603  27.780   9.514
 2581POPC   PO435892  30.514  27.044   9.587
 2581POPC   GL135893  30.485  27.340   9.227
 2581POPC   GL235894  30.819  27.481   9.145
 2581POPC   C1A35895  30.438  27.365   8.758
 2581POPC   D2A35896  30.323  27.442   8.308
 2581POPC   C3A35897  30.637  27.628   8.065
 2581POPC   C4A35898  30.818  27.498   7.729
 2581POPC   C1B35899  31.041  27.605   8.755
 2581POPC   C2B35900  31.079  27.752   8.329
 2581POPC   C3B35901  31.047  27.931   7.918
 2581POPC   C4B35902  30.701  27.985   7.630
 2582POPC   NC335903  24.847  15.781   9.550
 2582POPC   PO435904  24.522  16.391   9.483
 2582POPC   GL135905  24.539  16.023   9.183
 2582POPC   GL235906  24.863  15.861   9.041
 2582POPC   C1A35907  24.394  15.852   8.785
 2582POPC   D2A35908  24.628  15.904   8.394
 2582POPC   C3A35909  24.414  15.892   8.000
 2582POPC   C4A35910  24.352  15.976   7.547
 2582POPC   C1B35911  24.793  15.523   8.729
 2582POPC   C2B35912  24.609  15.404   8.315
 2582POPC   C3B35913  24.840  15.572   7.978
 2582POPC   C4B35914  24.889  15.972   7.734
 2583POPC   NC335915  14.572   9.340   9.484
 2583POPC   PO435916  14.105   9.616   9.778
 2583POPC   GL135917  14.175   9.660   9.242
 2583POPC   GL235918  14.491   9.847   9.151
 2583POPC   C1A35919  14.239   9.802   8.730
 2583POPC   D2A35920  14.580   9.820   8.383
 2583POPC   C3A35921  14.491   9.834   7.920
 2583POPC   C4A35922  14.362   9.774   7.471
 2583POPC   C1B35923  14.763   9.617   8.854
 2583POPC   C2B35924  15.010   9.529   8.475
 2583POPC   C3B35925  14.824   9.426   8.075
 2583POPC   C4B35926  14.829   9.555   7.638
 2584POPC   NC335927  31.761  18.533   9.640
 2584POPC   PO435928  31.179  18.256   9.727
 2584POPC   GL135929  31.314  18.460   9.298
 2584POPC   GL235930  31.657  18.364   9.161
 2584POPC   C1A35931  31.310  18.472   8.818
 2584POPC   D2A35932  31.348  18.140   8.488
 2584POPC   C3A35933  31.410  18.202   8.040
 2584POPC   C4A35934  31.306  17.957   7.700
 2584POPC   C1B35935  31.788  18.424   8.697
 2584POPC   C2B35936  31.654  18.586   8.294
 2584POPC   C3B35937  31.834  18.474   7.894
 2584POPC   C4B35938  31.684  18.277   7.516
 2585POPC   NC335939  34.942  31.124   9.443
 2585POPC   PO435940  34.323  31.450   9.608
 2585POPC   GL135941  34.495  31.281   9.241
 2585POPC   GL235942  34.691  31.581   9.212
 2585POPC   C1A35943  34.593  31.321   8.789
 2585POPC   D2A35944  34.740  31.421   8.405
 2585POPC   C3A35945  34.494  31.356   8.051
 2585POPC   C4A35946  34.728  31.474   7.698
 2585POPC   C1B35947  34.273  31.671   8.963
 2585POPC   C2B35948  34.245  31.691   8.499
 2585POPC   C3B35949  34.417  31.870   8.088
 2585POPC   C4B35950  34.571  31.947   7.633
 2586POPC   NC335951  36.241  20.769   9.604
 2586POPC   PO435952  35.649  20.714   9.525
 2586POPC   GL135953  35.955  20.807   9.156
 2586POPC   GL235954  36.322  20.913   9.108
 2586POPC   C1A35955  36.049  20.647   8.760
 2586POPC   D2A35956  35.873  20.487   8.423
 2586POPC   C3A35957  35.868  20.741   8.078
 2586POPC   C4A35958  36.079  20.646   7.736
 2586POPC   C1B35959  36.440  20.963   8.660
 2586POPC   C2B35960  36.367  20.696   8.268
 2586POPC   C3B35961  36.580  20.671   7.820
 2586POPC   C4B35962  36.758  20.631   7.374
 2587POPC   NC335963  22.275  11.828   9.737
 2587POPC   PO435964  21.741  11.563   9.422
 2587POPC   GL135965  22.145  11.794   9.234
 2587POPC   GL235966  22.241  12.159   9.323
 2587POPC   C1A35967  22.311  11.974   8.816
 2587POPC   D2A35968  22.475  11.813   8.403
 2587POPC   C3A35969  22.445  12.008   7.990
 2587POPC   C4A35970  22.390  11.841   7.566
 2587POPC   C1B35971  22.070  12.426   8.957
 2587POPC   C2B35972  22.041  12.308   8.503
 2587POPC   C3B35973  21.968  12.158   8.087
 2587POPC   C4B35974  22.079  12.227   7.648
 2588POPC   NC335975   5.924   1.378   9.910
 2588POPC   PO435976   5.804   0.916   9.397
 2588POPC   GL135977   6.018   0.997   9.029
 2588POPC   GL235978   5.734   1.195   8.964
 2588POPC   C1A35979   6.062   1.147   8.591
 2588POPC   D2A35980   5.808   1.049   8.274
 2588POPC   C3A35981   6.017   0.886   7.910
 2588POPC   C4A35982   5.891   1.070   7.519
 2588POPC   C1B35983   5.609   1.373   8.653
 2588POPC   C2B35984   5.756   1.568   8.324
 2588POPC   C3B35985   5.694   1.403   7.929
 2588POPC   C4B35986   5.571   1.638   7.594
 2589POPC   NC335987   4.132  11.188   9.590
 2589POPC   PO435988   4.760  11.258   9.446
 2589POPC   GL135989   4.372  11.319   9.160
 2589POPC   GL235990   4.087  11.575   9.272
 2589POPC   C1A35991   4.268  11.272   8.715
 2589POPC   D2A35992   4.411  11.258   8.285
 2589POPC   C3A35993   4.170  11.197   7.922
 2589POPC   C4A35994   4.129  10.869   7.672
 2589POPC   C1B35995   3.859  11.558   8.871
 2589POPC   C2B35996   3.919  11.480   8.410
 2589POPC   C3B35997   4.093  11.679   8.028
 2589POPC   C4B35998   3.869  11.658   7.665
 2590POPC   NC335999   0.952  22.851   9.513
 2590POPC   PO436000   0.963  23.401   9.176
 2590POPC   GL136001   1.158  23.053   9.062
 2590POPC   GL236002   1.180  22.680   9.085
 2590POPC   C1A36003   1.334  22.991   8.714
 2590POPC   D2A36004   1.208  22.844   8.360
 2590POPC   C3A36005   1.362  23.121   8.078
 2590POPC   C4A36006   1.254  23.217   7.717
 2590POPC   C1B36007   1.266  22.457   8.719
 2590POPC   C2B36008   1.535  22.445   8.369
 2590POPC   C3B36009   1.501  22.640   7.944
 2590POPC   C4B36010   1.669  22.860   7.548
 2591POPC   NC336011   6.646   6.192   9.439
 2591POPC   PO436012   6.889   6.791   9.473
 2591POPC   GL136013   6.737   6.602   9.147
 2591POPC   GL236014   6.488   6.821   9.026
 2591POPC   C1A36015   6.791   6.471   8.759
 2591POPC   D2A36016   6.693   6.730   8.434
 2591POPC   C3A36017   6.792   6.550   8.050
 2591POPC   C4A36018   6.634   6.681   7.639
 2591POPC   C1B36019   6.882   7.015   8.839
 2591POPC   C2B36020   6.938   7.220   8.433
 2591POPC   C3B36021   6.749   7.078   8.060
 2591POPC   C4B36022   6.782   7.192   7.660
 2592POPC   NC336023  25.221  13.077   9.474
 2592POPC   PO436024  25.493  12.546   9.783
 2592POPC   GL136025  25.466  12.623   9.308
 2592POPC   GL236026  25.567  12.959   9.122
 2592POPC   C1A36027  25.454  12.567   8.851
 2592POPC   D2A36028  25.493  12.843   8.503
 2592POPC   C3A36029  25.169  12.770   8.199
 2592POPC   C4A36030  25.198  12.512   7.837
 2592POPC   C1B36031  25.148  12.976   8.850
 2592POPC   C2B36032  24.926  13.174   8.480
 2592POPC   C3B36033  24.734  13.355   8.113
 2592POPC   C4B36034  25.015  13.245   7.803
 2593POPC   NC336035  36.318  24.265   9.425
 2593POPC   PO436036  35.882  24.699   9.573
 2593POPC   GL136037  35.944  24.520   9.173
 2593POPC   GL236038  36.270  24.547   9.026
 2593POPC   C1A36039  35.851  24.748   8.793
 2593POPC   D2A36040  36.066  24.827   8.363
 2593POPC   C3A36041  36.035  24.570   7.995
 2593POPC   C4A36042  35.690  24.679   7.781
 2593POPC   C1B36043  36.189  24.403   8.653
 2593POPC   C2B36044  36.412  24.443   8.310
 2593POPC   C3B36045  36.479  24.295   7.918
 2593POPC   C4B36046  36.374  24.534   7.569
 2594POPC   NC336047  28.260  44.297   9.550
 2594POPC   PO436048  28.612  43.632   9.558
 2594POPC   GL136049  28.359  43.795   9.241
 2594POPC   GL236050  27.995  43.820   9.326
 2594POPC   C1A36051  28.411  43.698   8.808
 2594POPC   D2A36052  28.324  43.472   8.428
 2594POPC   C3A36053  28.431  43.672   8.061
 2594POPC   C4A36054  28.592  43.679   7.633
 2594POPC   C1B36055  27.986  43.969   8.908
 2594POPC   C2B36056  28.085  43.941   8.474
 2594POPC   C3B36057  28.031  44.092   8.071
 2594POPC   C4B36058  28.191  43.975   7.722
 2595POPC   NC336059   5.294  44.354   9.640
 2595POPC   PO436060   4.903  44.865   9.434
 2595POPC   GL136061   5.066  44.723   9.075
 2595POPC   GL236062   5.397  44.654   9.168
 2595POPC   C1A36063   4.903  44.850   8.663
 2595POPC   D2A36064   5.156  44.942   8.327
 2595POPC   C3A36065   5.094   0.019   7.928
 2595POPC   C4A36066   5.366   0.008   7.592
 2595POPC   C1B36067   5.433  44.769   8.720
 2595POPC   C2B36068   5.414  44.506   8.326
 2595POPC   C3B36069   5.319  44.540   7.874
 2595POPC   C4B36070   5.300  44.269   7.522
 2596POPC   NC336071  44.365  17.759   9.301
 2596POPC   PO436072  44.039  17.334   9.758
 2596POPC   GL136073  43.960  17.440   9.260
 2596POPC   GL236074  43.844  17.771   9.119
 2596POPC   C1A36075  43.747  17.396   8.819
 2596POPC   D2A36076  43.838  17.222   8.413
 2596POPC   C3A36077  43.715  17.395   8.027
 2596POPC   C4A36078  43.838  17.236   7.634
 2596POPC   C1B36079  44.092  17.749   8.728
 2596POPC   C2B36080  44.057  17.684   8.301
 2596POPC   C3B36081  44.154  17.576   7.898
 2596POPC   C4B36082  44.163  17.923   7.703
 2597POPC   NC336083  28.204  29.139   9.712
 2597POPC   PO436084  28.738  28.825   9.486
 2597POPC   GL136085  28.440  28.967   9.165
 2597POPC   GL236086  28.143  28.792   9.073
 2597POPC   C1A36087  28.411  29.236   8.769
 2597POPC   D2A36088  28.126  29.454   8.457
 2597POPC   C3A36089  28.202  29.332   8.019
 2597POPC   C4A36090  28.454  29.004   7.786
 2597POPC   C1B36091  28.444  28.706   8.731
 2597POPC   C2B36092  28.470  28.882   8.330
 2597POPC   C3B36093  28.107  28.807   8.112
 2597POPC   C4B36094  27.927  28.452   7.884
 2598POPC   NC336095  31.049  20.048   9.752
 2598POPC   PO436096  30.530  19.739   9.481
 2598POPC   GL136097  30.719  19.638   9.104
 2598POPC   GL236098  30.930  19.865   9.096
 2598POPC   C1A36099  30.836  19.613   8.678
 2598POPC   D2A36100  30.960  19.785   8.315
 2598POPC   C3A36101  30.796  19.552   8.002
 2598POPC   C4A36102  30.611  19.767   7.714
 2598POPC   C1B36103  30.927  20.128   8.738
 2598POPC   C2B36104  30.977  20.286   8.349
 2598POPC   C3B36105  30.849  20.158   7.950
 2598POPC   C4B36106  31.035  20.027   7.566
 2599POPC   NC336107  38.629  30.058   9.540
 2599POPC   PO436108  38.004  29.858   9.543
 2599POPC   GL136109  38.261  29.932   9.170
 2599POPC   GL236110  38.591  29.989   9.038
 2599POPC   C1A36111  38.111  30.031   8.764
 2599POPC   D2A36112  38.158  29.907   8.344
 2599POPC   C3A36113  38.501  29.766   8.127
 2599POPC   C4A36114  38.424  29.851   7.698
 2599POPC   C1B36115  38.574  30.152   8.616
 2599POPC   C2B36116  38.536  30.259   8.188
 2599POPC   C3B36117  38.782  30.174   7.790
 2599POPC   C4B36118  38.624  30.224   7.336
 2600POPC   NC336119   9.832   4.534   9.423
 2600POPC   PO436120   9.744   3.867   9.520
 2600POPC   GL136121   9.698   4.112   9.134
 2600POPC   GL236122   9.482   3.843   9.003
 2600POPC   C1A36123   9.868   4.411   8.774
 2600POPC   D2A36124   9.633   4.511   8.375
 2600POPC   C3A36125   9.829   4.519   7.974
 2600POPC   C4A36126   9.648   4.475   7.556
 2600POPC   C1B36127   9.685   3.959   8.614
 2600POPC   C2B36128   9.701   4.041   8.179
 2600POPC   C3B36129   9.836   4.039   7.754
 2600POPC   C4B36130  10.075   4.161   7.387
 2601POPC   NC336131  30.019  11.133   9.576
 2601POPC   PO436132  30.596  11.480   9.528
 2601POPC   GL136133  30.368  11.322   9.200
 2601POPC   GL236134  30.121  11.522   9.267
 2601POPC   C1A36135  30.102  11.186   8.855
 2601POPC   D2A36136  29.845  11.227   8.471
 2601POPC   C3A36137  29.986  11.064   8.053
 2601POPC   C4A36138  29.931  10.998   7.586
 2601POPC   C1B36139  29.879  11.648   8.929
 2601POPC   C2B36140  29.853  11.735   8.488
 2601POPC   C3B36141  30.121  11.556   8.154
 2601POPC   C4B36142  30.131  11.688   7.727
 2602POPC   NC336143   7.596   7.697   9.532
 2602POPC   PO436144   7.838   7.089   9.368
 2602POPC   GL136145   7.560   7.381   9.123
 2602POPC   GL236146   7.702   7.732   9.050
 2602POPC   C1A36147   7.347   7.252   8.756
 2602POPC   D2A36148   7.433   7.034   8.368
 2602POPC   C3A36149   7.234   7.201   7.976
 2602POPC   C4A36150   7.311   7.213   7.520
 2602POPC   C1B36151   7.722   7.595   8.636
 2602POPC   C2B36152   7.473   7.543   8.269
 2602POPC   C3B36153   7.527   7.633   7.834
 2602POPC   C4B36154   7.518   7.719   7.411
 2603POPC   NC336155  17.031   2.776   9.202
 2603POPC   PO436156  17.493   3.153   9.527
 2603POPC   GL136157  17.483   3.014   9.102
 2603POPC   GL236158  17.488   2.668   9.014
 2603POPC   C1A36159  17.267   3.044   8.679
 2603POPC   D2A36160  17.097   3.235   8.306
 2603POPC   C3A36161  17.248   3.019   7.944
 2603POPC   C4A36162  17.661   2.995   7.841
 2603POPC   C1B36163  17.719   2.463   8.672
 2603POPC   C2B36164  17.556   2.273   8.278
 2603POPC   C3B36165  17.451   2.520   7.925
 2603POPC   C4B36166  17.798   2.542   7.653
 2604POPC   NC336167  25.975  39.356   9.761
 2604POPC   PO436168  25.422  39.055   9.506
 2604POPC   GL136169  25.187  39.279   9.178
 2604POPC   GL236170  25.508  39.283   9.038
 2604POPC   C1A36171  25.118  39.302   8.705
 2604POPC   D2A36172  25.304  39.306   8.279
 2604POPC   C3A36173  25.031  39.307   7.890
 2604POPC   C4A36174  25.134  39.613   7.534
 2604POPC   C1B36175  25.723  39.273   8.643
 2604POPC   C2B36176  25.883  39.267   8.235
 2604POPC   C3B36177  25.708  38.996   7.947
 2604POPC   C4B36178  25.369  39.023   7.661
 2605POPC   NC336179   7.421   9.186   9.378
 2605POPC   PO436180   7.365   8.503   9.338
 2605POPC   GL136181   7.501   8.782   9.048
 2605POPC   GL236182   7.192   8.934   8.971
 2605POPC   C1A36183   7.564   9.012   8.641
 2605POPC   D2A36184   7.162   9.026   8.407
 2605POPC   C3A36185   7.162   8.802   8.039
 2605POPC   C4A36186   7.481   8.995   7.794
 2605POPC   C1B36187   7.207   9.371   8.804
 2605POPC   C2B36188   7.484   9.544   8.515
 2605POPC   C3B36189   7.440   9.389   8.124
 2605POPC   C4B36190   7.056   9.290   7.904
 2606POPC   NC336191  30.819  40.771   9.433
 2606POPC   PO436192  30.311  41.139   9.349
 2606POPC   GL136193  30.564  40.959   9.026
 2606POPC   GL236194  30.948  40.960   8.969
 2606POPC   C1A36195  30.602  40.755   8.636
 2606POPC   D2A36196  30.883  40.912   8.361
 2606POPC   C3A36197  30.622  40.961   8.070
 2606POPC   C4A36198  30.562  40.920   7.679
 2606POPC   C1B36199  31.097  40.578   8.727
 2606POPC   C2B36200  31.008  40.399   8.316
 2606POPC   C3B36201  30.935  40.587   7.900
 2606POPC   C4B36202  31.066  41.039   7.858
 2607POPC   NC336203  39.772  13.270   9.469
 2607POPC   PO436204  40.264  13.795   9.526
 2607POPC   GL136205  40.155  13.526   9.199
 2607POPC   GL236206  39.859  13.625   9.099
 2607POPC   C1A36207  40.297  13.468   8.782
 2607POPC   D2A36208  40.153  13.341   8.403
 2607POPC   C3A36209  40.175  13.577   8.023
 2607POPC   C4A36210  40.414  13.396   7.721
 2607POPC   C1B36211  39.779  13.294   8.791
 2607POPC   C2B36212  39.654  13.344   8.379
 2607POPC   C3B36213  39.783  13.252   7.968
 2607POPC   C4B36214  39.919  13.396   7.579
 2608POPC   NC336215  11.527   6.180   9.741
 2608POPC   PO436216  11.203   5.617   9.574
 2608POPC   GL136217  11.265   5.973   9.268
 2608POPC   GL236218  11.609   6.074   9.222
 2608POPC   C1A36219  11.102   6.018   8.820
 2608POPC   D2A36220  10.791   5.786   8.607
 2608POPC   C3A36221  10.935   5.656   8.200
 2608POPC   C4A36222  11.149   5.882   7.848
 2608POPC   C1B36223  11.569   5.846   8.816
 2608POPC   C2B36224  11.385   5.859   8.362
 2608POPC   C3B36225  11.633   5.827   7.955
 2608POPC   C4B36226  11.608   5.955   7.523
 2609POPC   NC336227  30.608  14.206  10.121
 2609POPC   PO436228  30.751  14.356   9.419
 2609POPC   GL136229  30.760  14.634   9.111
 2609POPC   GL236230  30.438  14.596   9.060
 2609POPC   C1A36231  30.775  14.642   8.675
 2609POPC   D2A36232  30.661  14.369   8.348
 2609POPC   C3A36233  30.573  14.583   8.018
 2609POPC   C4A36234  30.726  14.729   7.672
 2609POPC   C1B36235  30.383  14.242   8.767
 2609POPC   C2B36236  30.178  14.163   8.351
 2609POPC   C3B36237  30.388  14.120   7.938
 2609POPC   C4B36238  30.449  14.096   7.485
 2610POPC   NC336239  34.251  21.854   9.397
 2610POPC   PO436240  34.807  22.314   9.439
 2610POPC   GL136241  34.694  22.046   9.135
 2610POPC   GL236242  34.743  21.702   9.225
 2610POPC   C1A36243  34.512  22.260   8.800
 2610POPC   D2A36244  34.594  22.467   8.412
 2610POPC   C3A36245  34.780  22.221   8.113
 2610POPC   C4A36246  34.769  22.354   7.718
 2610POPC   C1B36247  34.545  21.679   8.781
 2610POPC   C2B36248  34.550  21.818   8.328
 2610POPC   C3B36249  34.490  21.879   7.852
 2610POPC   C4B36250  34.480  21.805   7.375
 2611POPC   NC336251  34.484  22.682   9.417
 2611POPC   PO436252  34.957  23.172   9.518
 2611POPC   GL136253  34.735  23.103   9.124
 2611POPC   GL236254  34.364  23.115   9.111
 2611POPC   C1A36255  34.651  23.210   8.698
 2611POPC   D2A36256  34.408  23.188   8.324
 2611POPC   C3A36257  34.549  22.899   8.041
 2611POPC   C4A36258  34.841  22.941   7.711
 2611POPC   C1B36259  34.349  22.789   8.749
 2611POPC   C2B36260  34.143  22.688   8.324
 2611POPC   C3B36261  34.300  22.467   7.949
 2611POPC   C4B36262  34.420  22.709   7.581
 2612POPC   NC336263  30.082  19.863   9.573
 2612POPC   PO436264  29.582  19.689   9.166
 2612POPC   GL136265  29.930  19.893   9.056
 2612POPC   GL236266  30.199  19.727   9.103
 2612POPC   C1A36267  29.990  19.767   8.643
 2612POPC   D2A36268  29.748  19.907   8.357
 2612POPC   C3A36269  29.902  19.747   8.007
 2612POPC   C4A36270  29.618  19.839   7.690
 2612POPC   C1B36271  30.453  19.926   8.782
 2612POPC   C2B36272  30.494  20.054   8.356
 2612POPC   C3B36273  30.328  20.137   7.942
 2612POPC   C4B36274  30.124  19.962   7.592
 2613POPC   NC336275  25.490   0.096   9.547
 2613POPC   PO436276  24.889   0.446   9.545
 2613POPC   GL136277  25.140   0.512   9.129
 2613POPC   GL236278  25.420   0.321   9.105
 2613POPC   C1A36279  25.203   0.423   8.670
 2613POPC   D2A36280  25.080   0.293   8.274
 2613POPC   C3A36281  25.145   0.610   7.966
 2613POPC   C4A36282  24.901   0.847   7.716
 2613POPC   C1B36283  25.651   0.006   8.901
 2613POPC   C2B36284  25.545   0.032   8.471
 2613POPC   C3B36285  25.615   0.117   8.049
 2613POPC   C4B36286  25.303   0.195   7.726
 2614POPC   NC336287  42.539  29.402   9.741
 2614POPC   PO436288  42.042  29.014   9.490
 2614POPC   GL136289  42.372  29.128   9.192
 2614POPC   GL236290  42.578  29.407   9.239
 2614POPC   C1A36291  42.320  29.013   8.767
 2614POPC   D2A36292  41.960  28.971   8.523
 2614POPC   C3A36293  42.122  28.922   8.110
 2614POPC   C4A36294  42.084  28.634   7.769
 2614POPC   C1B36295  42.609  29.430   8.828
 2614POPC   C2B36296  42.700  29.289   8.437
 2614POPC   C3B36297  42.495  29.265   8.080
 2614POPC   C4B36298  42.502  28.988   7.757
 2615POPC   NC336299  32.513  42.869   9.396
 2615POPC   PO436300  31.928  42.873   9.714
 2615POPC   GL136301  31.967  42.868   9.249
 2615POPC   GL236302  32.227  42.647   9.081
 2615POPC   C1A36303  32.021  42.988   8.791
 2615POPC   D2A36304  32.181  42.859   8.400
 2615POPC   C3A36305  31.919  42.974   8.069
 2615POPC   C4A36306  31.822  43.284   7.737
 2615POPC   C1B36307  32.550  42.846   8.768
 2615POPC   C2B36308  32.638  43.100   8.407
 2615POPC   C3B36309  32.556  42.939   8.024
 2615POPC   C4B36310  32.274  43.001   7.702
 2616POPC   NC336311  24.905  36.727   9.650
 2616POPC   PO436312  24.429  37.197   9.411
 2616POPC   GL136313  24.580  36.979   9.078
 2616POPC   GL236314  24.246  36.801   9.003
 2616POPC   C1A36315  24.626  36.841   8.658
 2616POPC   D2A36316  24.480  36.650   8.312
 2616POPC   C3A36317  24.522  36.882   7.956
 2616POPC   C4A36318  24.193  36.735   7.763
 2616POPC   C1B36319  24.243  37.185   8.720
 2616POPC   C2B36320  24.211  37.274   8.266
 2616POPC   C3B36321  24.136  37.240   7.807
 2616POPC   C4B36322  24.204  37.316   7.348
 2617POPC   NC336323   5.290   0.127   9.342
 2617POPC   PO436324   4.862   0.602   9.517
 2617POPC   GL136325   4.880   0.537   9.131
 2617POPC   GL236326   4.792   0.205   9.069
 2617POPC   C1A36327   5.205   0.622   8.846
 2617POPC   D2A36328   5.396   0.335   8.568
 2617POPC   C3A36329   5.435   0.384   8.105
 2617POPC   C4A36330   5.175   0.486   7.737
 2617POPC   C1B36331   4.850   0.346   8.652
 2617POPC   C2B36332   4.947   0.394   8.242
 2617POPC   C3B36333   4.688   0.403   7.879
 2617POPC   C4B36334   4.440   0.423   7.486
 2618POPC   NC336335  39.120  12.124   9.389
 2618POPC   PO436336  38.816  11.582   9.442
 2618POPC   GL136337  39.031  11.760   9.044
 2618POPC   GL236338  39.397  11.772   9.098
 2618POPC   C1A36339  38.986  12.164   8.771
 2618POPC   D2A36340  38.828  12.423   8.435
 2618POPC   C3A36341  39.062  12.282   8.139
 2618POPC   C4A36342  39.098  11.947   7.885
 2618POPC   C1B36343  39.391  11.868   8.641
 2618POPC   C2B36344  39.527  11.944   8.188
 2618POPC   C3B36345  39.568  11.834   7.717
 2618POPC   C4B36346  39.508  11.654   7.291
 2619POPC   NC336347  36.244   9.292   9.643
 2619POPC   PO436348  35.944   9.902   9.606
 2619POPC   GL136349  36.021   9.968   9.156
 2619POPC   GL236350  35.864   9.675   9.077
 2619POPC   C1A36351  35.855  10.067   8.731
 2619POPC   D2A36352  36.022  10.194   8.343
 2619POPC   C3A36353  36.321   9.942   8.083
 2619POPC   C4A36354  36.256   9.636   7.728
 2619POPC   C1B36355  36.205   9.686   8.763
 2619POPC   C2B36356  36.067   9.622   8.364
 2619POPC   C3B36357  35.764   9.403   8.130
 2619POPC   C4B36358  35.765   9.236   7.727
 2620POPC   NC336359  36.529  21.651   9.504
 2620POPC   PO436360  37.247  21.577   9.443
 2620POPC   GL136361  36.890  21.640   9.135
 2620POPC   GL236362  36.594  21.368   9.084
 2620POPC   C1A36363  36.899  21.526   8.705
 2620POPC   D2A36364  37.110  21.664   8.370
 2620POPC   C3A36365  37.177  21.438   7.987
 2620POPC   C4A36366  37.064  21.647   7.621
 2620POPC   C1B36367  36.387  21.485   8.666
 2620POPC   C2B36368  36.513  21.475   8.218
 2620POPC   C3B36369  36.711  21.293   7.848
 2620POPC   C4B36370  36.563  21.081   7.499
 2621POPC   NC336371   1.705  38.231   9.339
 2621POPC   PO436372   2.308  38.145   9.551
 2621POPC   GL136373   2.204  38.464   9.220
 2621POPC   GL236374   1.892  38.692   9.188
 2621POPC   C1A36375   2.096  38.411   8.788
 2621POPC   D2A36376   1.931  38.175   8.437
 2621POPC   C3A36377   1.957  38.424   8.046
 2621POPC   C4A36378   2.234  38.600   7.719
 2621POPC   C1B36379   1.617  38.611   8.795
 2621POPC   C2B36380   1.502  38.505   8.352
 2621POPC   C3B36381   1.519  38.634   7.915
 2621POPC   C4B36382   1.724  38.728   7.528
 2622POPC   NC336383  43.579  39.303   9.670
 2622POPC   PO436384  44.184  38.988   9.587
 2622POPC   GL136385  43.985  39.150   9.213
 2622POPC   GL236386  43.625  39.199   9.178
 2622POPC   C1A36387  43.899  39.306   8.787
 2622POPC   D2A36388  43.999  39.152   8.401
 2622POPC   C3A36389  43.876  39.356   8.027
 2622POPC   C4A36390  43.814  39.239   7.611
 2622POPC   C1B36391  43.549  38.921   8.823
 2622POPC   C2B36392  43.669  38.785   8.427
 2622POPC   C3B36393  43.779  38.869   7.972
 2622POPC   C4B36394  43.493  38.859   7.588
 2623POPC   NC336395  37.642  29.618   9.387
 2623POPC   PO436396  37.272  30.150   9.579
 2623POPC   GL136397  37.467  30.189   9.201
 2623POPC   GL236398  37.789  30.116   9.142
 2623POPC   C1A36399  37.442  29.985   8.799
 2623POPC   D2A36400  37.678  29.864   8.467
 2623POPC   C3A36401  37.580  30.018   8.070
 2623POPC   C4A36402  37.411  29.759   7.719
 2623POPC   C1B36403  37.751  30.402   8.774
 2623POPC   C2B36404  37.894  30.395   8.329
 2623POPC   C3B36405  38.063  30.199   7.928
 2623POPC   C4B36406  38.148  30.210   7.464
 2624POPC   NC336407  10.612  39.422   9.560
 2624POPC   PO436408  11.250  39.307   9.625
 2624POPC   GL136409  11.298  39.180   9.220
 2624POPC   GL236410  10.979  39.171   9.179
 2624POPC   C1A36411  11.361  39.318   8.835
 2624POPC   D2A36412  11.470  39.574   8.501
 2624POPC   C3A36413  11.411  39.444   8.101
 2624POPC   C4A36414  11.607  39.244   7.748
 2624POPC   C1B36415  10.851  39.275   8.779
 2624POPC   C2B36416  11.002  39.348   8.409
 2624POPC   C3B36417  10.866  39.444   8.042
 2624POPC   C4B36418  11.100  39.374   7.711
 2625POPC   NC336419  44.314  22.806   9.452
 2625POPC   PO436420  43.703  23.059   9.492
 2625POPC   GL136421  43.766  22.918   9.097
 2625POPC   GL236422  43.908  22.605   9.184
 2625POPC   C1A36423  44.041  22.949   8.728
 2625POPC   D2A36424  44.213  22.848   8.300
 2625POPC   C3A36425  43.935  23.034   7.973
 2625POPC   C4A36426  44.114  23.407   7.760
 2625POPC   C1B36427  43.798  22.504   8.765
 2625POPC   C2B36428  43.712  22.735   8.367
 2625POPC   C3B36429  43.524  22.695   7.969
 2625POPC   C4B36430  43.548  22.777   7.521
 2626POPC   NC336431  20.063  20.287   9.920
 2626POPC   PO436432  20.567  20.708   9.555
 2626POPC   GL136433  20.525  20.653   9.154
 2626POPC   GL236434  20.248  20.815   9.107
 2626POPC   C1A36435  20.733  20.713   8.750
 2626POPC   D2A36436  20.949  20.698   8.324
 2626POPC   C3A36437  20.890  20.338   8.033
 2626POPC   C4A36438  20.486  20.277   7.812
 2626POPC   C1B36439  20.228  20.733   8.680
 2626POPC   C2B36440  20.201  20.947   8.301
 2626POPC   C3B36441  20.284  20.838   7.874
 2626POPC   C4B36442  20.290  21.159   7.550
 2627POPC   NC336443  44.703  40.373   9.527
 2627POPC   PO436444  44.304  39.868   9.491
 2627POPC   GL136445  44.569  39.969   9.133
 2627POPC   GL236446  44.930  40.056   9.209
 2627POPC   C1A36447  44.796  39.744   8.787
 2627POPC   D2A36448  44.741  39.586   8.363
 2627POPC   C3A36449  44.600  39.871   8.033
 2627POPC   C4A36450  44.399  40.212   7.764
 2627POPC   C1B36451  44.924  40.248   8.813
 2627POPC   C2B36452  44.981  40.089   8.407
 2627POPC   C3B36453  44.891  40.301   8.037
 2627POPC   C4B36454  44.889  40.513   7.657
 2628POPC   NC336455  11.983  28.705   9.431
 2628POPC   PO436456  12.224  29.339   9.484
 2628POPC   GL136457  12.149  29.119   9.160
 2628POPC   GL236458  11.814  29.150   9.069
 2628POPC   C1A36459  12.225  29.081   8.766
 2628POPC   D2A36460  11.942  29.171   8.473
 2628POPC   C3A36461  12.128  29.161   8.078
 2628POPC   C4A36462  12.024  29.420   7.739
 2628POPC   C1B36463  11.753  28.807   8.772
 2628POPC   C2B36464  11.862  28.667   8.387
 2628POPC   C3B36465  11.712  28.639   7.995
 2628POPC   C4B36466  11.848  28.904   7.708
 2629POPC   NC336467  34.144  25.033   9.514
 2629POPC   PO436468  33.623  25.514   9.578
 2629POPC   GL136469  33.588  25.272   9.171
 2629POPC   GL236470  33.873  25.025   9.094
 2629POPC   C1A36471  33.588  25.145   8.705
 2629POPC   D2A36472  33.706  25.342   8.341
 2629POPC   C3A36473  33.753  25.183   7.947
 2629POPC   C4A36474  34.079  25.432   7.772
 2629POPC   C1B36475  34.138  24.852   8.756
 2629POPC   C2B36476  34.351  24.957   8.361
 2629POPC   C3B36477  34.200  24.947   7.952
 2629POPC   C4B36478  34.119  24.994   7.526
 2630POPC   NC336479  19.473  44.504   9.332
 2630POPC   PO436480  19.080  43.978   9.486
 2630POPC   GL136481  18.846  43.829   9.116
 2630POPC   GL236482  18.508  43.979   9.113
 2630POPC   C1A36483  19.074  43.733   8.728
 2630POPC   D2A36484  19.387  43.574   8.430
 2630POPC   C3A36485  19.268  43.712   8.039
 2630POPC   C4A36486  19.158  43.514   7.668
 2630POPC   C1B36487  18.574  43.913   8.649
 2630POPC   C2B36488  18.781  43.776   8.271
 2630POPC   C3B36489  18.840  43.918   7.847
 2630POPC   C4B36490  18.632  44.002   7.460
 2631POPC   NC336491  33.221  38.986   9.392
 2631POPC   PO436492  33.835  39.287   9.631
 2631POPC   GL136493  33.816  39.415   9.215
 2631POPC   GL236494  33.449  39.422   9.136
 2631POPC   C1A36495  34.065  39.575   8.853
 2631POPC   D2A36496  33.914  39.585   8.418
 2631POPC   C3A36497  34.144  39.360   8.090
 2631POPC   C4A36498  34.036  39.068   7.759
 2631POPC   C1B36499  33.694  39.216   8.752
 2631POPC   C2B36500  33.709  39.089   8.296
 2631POPC   C3B36501  33.563  39.252   7.888
 2631POPC   C4B36502  33.562  39.318   7.428
 2632POPC   NC336503  12.765  10.192   9.331
 2632POPC   PO436504  12.549  10.835   9.393
 2632POPC   GL136505  12.782  10.626   9.059
 2632POPC   GL236506  13.136  10.525   9.157
 2632POPC   C1A36507  12.832  10.476   8.631
 2632POPC   D2A36508  12.555  10.253   8.322
 2632POPC   C3A36509  12.636  10.455   7.964
 2632POPC   C4A36510  13.021  10.686   7.890
 2632POPC   C1B36511  13.280  10.245   8.811
 2632POPC   C2B36512  13.263  10.070   8.392
 2632POPC   C3B36513  13.077  10.173   8.001
 2632POPC   C4B36514  13.093  10.306   7.567
 2633POPC   NC336515  21.317  38.104   9.518
 2633POPC   PO436516  21.127  38.798   9.531
 2633POPC   GL136517  21.318  38.508   9.205
 2633POPC   GL236518  21.103  38.211   9.082
 2633POPC   C1A36519  21.475  38.466   8.802
 2633POPC   D2A36520  21.399  38.676   8.410
 2633POPC   C3A36521  21.399  38.514   8.009
 2633POPC   C4A36522  21.205  38.774   7.706
 2633POPC   C1B36523  20.987  38.373   8.712
 2633POPC   C2B36524  21.064  38.245   8.330
 2633POPC   C3B36525  20.954  38.305   7.919
 2633POPC   C4B36526  21.205  38.272   7.547
 2634POPC   NC336527  37.805  32.900   9.603
 2634POPC   PO436528  37.431  33.409   9.445
 2634POPC   GL136529  37.538  33.110   9.165
 2634POPC   GL236530  37.895  33.074   9.144
 2634POPC   C1A36531  37.624  33.248   8.748
 2634POPC   D2A36532  37.971  33.362   8.485
 2634POPC   C3A36533  37.804  33.452   8.057
 2634POPC   C4A36534  37.611  33.305   7.692
 2634POPC   C1B36535  37.998  32.861   8.782
 2634POPC   C2B36536  38.064  32.888   8.349
 2634POPC   C3B36537  37.865  32.940   7.967
 2634POPC   C4B36538  37.453  32.829   7.809
 2635POPC   NC336539  27.827  30.542   9.654
 2635POPC   PO436540  27.303  30.983   9.503
 2635POPC   GL136541  27.515  30.686   9.245
 2635POPC   GL236542  27.879  30.746   9.185
 2635POPC   C1A36543  27.526  30.714   8.805
 2635POPC   D2A36544  27.616  30.972   8.430
 2635POPC   C3A36545  27.658  30.764   8.027
 2635POPC   C4A36546  27.551  30.767   7.583
 2635POPC   C1B36547  27.878  30.373   8.919
 2635POPC   C2B36548  27.737  30.396   8.484
 2635POPC   C3B36549  27.919  30.329   8.124
 2635POPC   C4B36550  27.976  30.496   7.712
 2636POPC   NC336551   4.259  43.815   9.702
 2636POPC   PO436552   4.779  43.937   9.273
 2636POPC   GL136553   4.372  43.944   9.096
 2636POPC   GL236554   4.085  44.182   9.114
 2636POPC   C1A36555   4.449  43.975   8.668
 2636POPC   D2A36556   4.709  43.908   8.286
 2636POPC   C3A36557   4.418  43.793   7.973
 2636POPC   C4A36558   4.383  43.932   7.536
 2636POPC   C1B36559   3.917  44.011   8.692
 2636POPC   C2B36560   3.850  44.210   8.284
 2636POPC   C3B36561   4.016  44.090   7.908
 2636POPC   C4B36562   3.978  43.674   7.722
 2637POPC   NC336563   2.348   9.580   9.472
 2637POPC   PO436564   3.023   9.656   9.403
 2637POPC   GL136565   2.868   9.801   9.038
 2637POPC   GL236566   2.516   9.721   9.003
 2637POPC   C1A36567   2.944   9.606   8.630
 2637POPC   D2A36568   2.781   9.404   8.253
 2637POPC   C3A36569   2.851   9.639   7.874
 2637POPC   C4A36570   2.616   9.734   7.531
 2637POPC   C1B36571   2.590  10.072   8.710
 2637POPC   C2B36572   2.386  10.224   8.341
 2637POPC   C3B36573   2.512  10.055   7.957
 2637POPC   C4B36574   2.640  10.242   7.591
 2638POPC   NC336575  18.814  33.737   9.581
 2638POPC   PO436576  19.302  34.209   9.669
 2638POPC   GL136577  19.113  34.010   9.209
 2638POPC   GL236578  19.010  33.654   9.129
 2638POPC   C1A36579  19.121  33.889   8.722
 2638POPC   D2A36580  18.944  34.003   8.368
 2638POPC   C3A36581  19.082  33.930   8.009
 2638POPC   C4A36582  18.945  34.159   7.684
 2638POPC   C1B36583  18.771  33.503   8.766
 2638POPC   C2B36584  18.953  33.496   8.335
 2638POPC   C3B36585  18.842  33.507   7.921
 2638POPC   C4B36586  18.881  33.684   7.563
 2639POPC   NC336587  35.619  31.712   9.220
 2639POPC   PO436588  35.252  32.134   9.650
 2639POPC   GL136589  35.273  32.175   9.191
 2639POPC   GL236590  35.594  32.213   9.059
 2639POPC   C1A36591  35.161  32.233   8.721
 2639POPC   D2A36592  35.047  32.650   8.484
 2639POPC   C3A36593  35.135  32.716   8.040
 2639POPC   C4A36594  35.393  32.469   7.782
 2639POPC   C1B36595  35.656  32.044   8.624
 2639POPC   C2B36596  35.652  32.188   8.190
 2639POPC   C3B36597  35.585  31.992   7.792
 2639POPC   C4B36598  35.540  31.694   7.436
 2640POPC   NC336599  28.846  22.917   9.650
 2640POPC   PO436600  29.498  22.678   9.566
 2640POPC   GL136601  29.366  22.816   9.173
 2640POPC   GL236602  29.178  23.111   9.143
 2640POPC   C1A36603  29.331  22.819   8.724
 2640POPC   D2A36604  29.371  23.141   8.428
 2640POPC   C3A36605  29.316  22.965   8.075
 2640POPC   C4A36606  29.284  23.045   7.699
 2640POPC   C1B36607  28.969  23.244   8.731
 2640POPC   C2B36608  28.871  23.172   8.256
 2640POPC   C3B36609  28.820  22.921   7.859
 2640POPC   C4B36610  28.754  22.981   7.376
 2641POPC   NC336611   0.122  11.720   9.424
 2641POPC   PO436612  44.974  12.327   9.416
 2641POPC   GL136613  44.771  12.219   9.046
 2641POPC   GL236614  44.705  11.872   9.097
 2641POPC   C1A36615  44.818  12.325   8.629
 2641POPC   D2A36616   0.007  12.089   8.296
 2641POPC   C3A36617  44.874  12.217   7.893
 2641POPC   C4A36618  44.573  12.512   7.839
 2641POPC   C1B36619  44.598  11.878   8.638
 2641POPC   C2B36620  44.491  12.128   8.240
 2641POPC   C3B36621  44.324  12.080   7.792
 2641POPC   C4B36622  44.167  12.095   7.339
 2642POPC   NC336623  32.393  38.450   9.556
 2642POPC   PO436624  31.761  38.647   9.418
 2642POPC   GL136625  32.022  38.483   9.171
 2642POPC   GL236626  32.246  38.737   9.119
 2642POPC   C1A36627  32.107  38.383   8.756
 2642POPC   D2A36628  32.340  38.318   8.402
 2642POPC   C3A36629  32.165  38.495   8.093
 2642POPC   C4A36630  32.303  38.342   7.748
 2642POPC   C1B36631  32.538  38.656   8.794
 2642POPC   C2B36632  32.731  38.641   8.419
 2642POPC   C3B36633  32.617  38.677   8.004
 2642POPC   C4B36634  32.532  38.754   7.551
 2643POPC   NC336635   5.620  15.365   9.470
 2643POPC   PO436636   6.273  15.009   9.363
 2643POPC   GL136637   5.957  15.149   9.107
 2643POPC   GL236638   5.990  15.485   9.108
 2643POPC   C1A36639   5.962  15.183   8.661
 2643POPC   D2A36640   6.012  15.213   8.214
 2643POPC   C3A36641   5.679  14.993   7.996
 2643POPC   C4A36642   5.714  14.778   7.604
 2643POPC   C1B36643   5.620  15.526   8.836
 2643POPC   C2B36644   5.514  15.292   8.449
 2643POPC   C3B36645   5.458  15.442   8.088
 2643POPC   C4B36646   5.709  15.487   7.755
 2644POPC   NC336647  13.224  24.614   9.531
 2644POPC   PO436648  12.612  24.660   9.628
 2644POPC   GL136649  12.689  24.682   9.161
 2644POPC   GL236650  13.044  24.600   8.991
 2644POPC   C1A36651  12.613  24.652   8.697
 2644POPC   D2A36652  12.823  24.426   8.368
 2644POPC   C3A36653  12.763  24.372   7.926
 2644POPC   C4A36654  12.410  24.273   7.674
 2644POPC   C1B36655  13.113  24.809   8.569
 2644POPC   C2B36656  13.046  24.828   8.126
 2644POPC   C3B36657  13.015  24.737   7.677
 2644POPC   C4B36658  13.259  24.921   7.336
 2645POPC   NC336659  17.857  41.392   9.733
 2645POPC   PO436660  17.367  41.808   9.602
 2645POPC   GL136661  17.572  41.792   9.190
 2645POPC   GL236662  17.722  41.544   9.255
 2645POPC   C1A36663  17.672  41.921   8.786
 2645POPC   D2A36664  17.503  41.742   8.430
 2645POPC   C3A36665  17.643  41.856   8.041
 2645POPC   C4A36666  17.433  41.718   7.691
 2645POPC   C1B36667  17.533  41.414   8.860
 2645POPC   C2B36668  17.697  41.274   8.453
 2645POPC   C3B36669  17.496  41.340   8.068
 2645POPC   C4B36670  17.360  41.207   7.689
 2646POPC   NC336671  16.235   7.143   9.611
 2646POPC   PO436672  15.750   7.604   9.472
 2646POPC   GL136673  16.015   7.523   9.101
 2646POPC   GL236674  16.231   7.823   9.057
 2646POPC   C1A36675  16.046   7.616   8.628
 2646POPC   D2A36676  15.836   7.780   8.266
 2646POPC   C3A36677  15.977   7.415   8.083
 2646POPC   C4A36678  16.073   7.124   7.782
 2646POPC   C1B36679  16.467   7.881   8.688
 2646POPC   C2B36680  16.430   7.634   8.269
 2646POPC   C3B36681  16.412   7.570   7.812
 2646POPC   C4B36682  16.600   7.616   7.380
 2647POPC   NC336683  20.050  23.783   9.575
 2647POPC   PO436684  19.666  23.314   9.543
 2647POPC   GL136685  19.703  23.672   9.194
 2647POPC   GL236686  19.547  23.998   9.292
 2647POPC   C1A36687  19.900  23.744   8.779
 2647POPC   D2A36688  20.101  23.608   8.382
 2647POPC   C3A36689  19.987  23.836   8.012
 2647POPC   C4A36690  20.027  23.803   7.569
 2647POPC   C1B36691  19.539  24.079   8.886
 2647POPC   C2B36692  19.555  24.023   8.466
 2647POPC   C3B36693  19.466  24.063   8.022
 2647POPC   C4B36694  19.520  23.765   7.731
 2648POPC   NC336695  10.983   7.478   9.493
 2648POPC   PO436696  11.609   7.233   9.417
 2648POPC   GL136697  11.284   7.311   9.125
 2648POPC   GL236698  11.354   7.658   9.138
 2648POPC   C1A36699  11.043   7.446   8.756
 2648POPC   D2A36700  11.140   7.642   8.355
 2648POPC   C3A36701  11.109   7.375   8.012
 2648POPC   C4A36702  11.165   7.190   7.594
 2648POPC   C1B36703  11.559   7.491   8.745
 2648POPC   C2B36704  11.698   7.553   8.334
 2648POPC   C3B36705  11.609   7.345   7.949
 2648POPC   C4B36706  11.552   7.533   7.538
 2649POPC   NC336707   7.694  17.860   9.537
 2649POPC   PO436708   7.456  18.540   9.506
 2649POPC   GL136709   7.379  18.223   9.203
 2649POPC   GL236710   7.217  18.422   8.936
 2649POPC   C1A36711   7.494  18.026   8.814
 2649POPC   D2A36712   7.454  18.306   8.432
 2649POPC   C3A36713   7.330  18.135   8.028
 2649POPC   C4A36714   7.579  17.859   7.751
 2649POPC   C1B36715   7.658  18.531   8.855
 2649POPC   C2B36716   7.850  18.620   8.471
 2649POPC   C3B36717   7.675  18.635   8.048
 2649POPC   C4B36718   7.897  18.660   7.650
 2650POPC   NC336719  20.407  15.032   9.330
 2650POPC   PO436720  20.885  15.435   9.274
 2650POPC   GL136721  20.622  15.312   8.961
 2650POPC   GL236722  20.308  15.441   9.050
 2650POPC   C1A36723  20.421  15.035   8.625
 2650POPC   D2A36724  20.668  14.806   8.294
 2650POPC   C3A36725  20.651  14.956   7.869
 2650POPC   C4A36726  20.717  15.230   7.519
 2650POPC   C1B36727  20.376  15.572   8.619
 2650POPC   C2B36728  20.512  15.342   8.222
 2650POPC   C3B36729  20.352  15.412   7.823
 2650POPC   C4B36730  20.388  15.627   7.439
 2651POPC   NC336731  38.519   2.607   9.540
 2651POPC   PO436732  38.065   3.094   9.563
 2651POPC   GL136733  38.191   2.799   9.188
 2651POPC   GL236734  38.546   2.698   9.037
 2651POPC   C1A36735  38.130   2.674   8.747
 2651POPC   D2A36736  38.450   2.607   8.415
 2651POPC   C3A36737  38.524   2.845   8.070
 2651POPC   C4A36738  38.454   2.633   7.672
 2651POPC   C1B36739  38.867   2.529   8.722
 2651POPC   C2B36740  38.929   2.358   8.313
 2651POPC   C3B36741  38.921   2.512   7.895
 2651POPC   C4B36742  38.902   2.899   7.705
 2652POPC   NC336743  42.874  14.254   9.636
 2652POPC   PO436744  43.157  14.848   9.838
 2652POPC   GL136745  43.082  14.664   9.384
 2652POPC   GL236746  43.386  14.583   9.221
 2652POPC   C1A36747  42.966  14.353   8.998
 2652POPC   D2A36748  42.836  14.449   8.553
 2652POPC   C3A36749  43.044  14.236   8.212
 2652POPC   C4A36750  43.012  13.994   7.836
 2652POPC   C1B36751  43.522  14.491   8.813
 2652POPC   C2B36752  43.628  14.356   8.417
 2652POPC   C3B36753  43.453  14.556   8.103
 2652POPC   C4B36754  43.253  14.451   7.758
 2653POPC   NC336755  40.477  30.251   9.832
 2653POPC   PO436756  41.046  30.187   9.530
 2653POPC   GL136757  40.909  29.875   9.217
 2653POPC   GL236758  41.118  29.588   9.121
 2653POPC   C1A36759  40.720  29.860   8.793
 2653POPC   D2A36760  40.497  30.025   8.423
 2653POPC   C3A36761  40.720  29.952   8.031
 2653POPC   C4A36762  40.571  29.964   7.610
 2653POPC   C1B36763  40.988  29.418   8.720
 2653POPC   C2B36764  40.859  29.472   8.239
 2653POPC   C3B36765  40.894  29.510   7.777
 2653POPC   C4B36766  41.249  29.520   7.449
 2654POPC   NC336767  14.888  13.360   9.425
 2654POPC   PO436768  15.389  13.738   9.454
 2654POPC   GL136769  15.273  13.882   9.049
 2654POPC   GL236770  14.935  13.876   9.051
 2654POPC   C1A36771  15.208  13.874   8.598
 2654POPC   D2A36772  15.437  13.714   8.261
 2654POPC   C3A36773  15.558  13.991   7.909
 2654POPC   C4A36774  15.533  14.030   7.418
 2654POPC   C1B36775  14.836  13.546   8.771
 2654POPC   C2B36776  14.751  13.314   8.396
 2654POPC   C3B36777  15.031  13.281   8.038
 2654POPC   C4B36778  15.190  13.654   7.811
 2655POPC   NC336779  19.187   8.216   9.561
 2655POPC   PO436780  18.645   8.078   9.288
 2655POPC   GL136781  18.935   8.316   9.124
 2655POPC   GL236782  19.161   8.010   9.089
 2655POPC   C1A36783  19.145   8.383   8.758
 2655POPC   D2A36784  19.325   8.149   8.447
 2655POPC   C3A36785  19.161   8.316   8.063
 2655POPC   C4A36786  18.785   8.346   7.807
 2655POPC   C1B36787  18.891   7.933   8.720
 2655POPC   C2B36788  18.746   8.043   8.323
 2655POPC   C3B36789  18.896   7.870   7.950
 2655POPC   C4B36790  19.329   7.895   7.811
 2656POPC   NC336791  33.913  28.370   9.491
 2656POPC   PO436792  33.278  28.153   9.317
 2656POPC   GL136793  33.538  28.450   9.117
 2656POPC   GL236794  33.837  28.254   9.014
 2656POPC   C1A36795  33.731  28.656   8.744
 2656POPC   D2A36796  33.936  28.808   8.371
 2656POPC   C3A36797  33.804  28.644   7.958
 2656POPC   C4A36798  33.721  28.439   7.521
 2656POPC   C1B36799  34.059  28.269   8.648
 2656POPC   C2B36800  34.147  28.356   8.235
 2656POPC   C3B36801  33.969  28.150   7.885
 2656POPC   C4B36802  34.080  28.076   7.439
 2657POPC   NC336803  13.655  11.568   9.337
 2657POPC   PO436804  13.805  10.946   9.566
 2657POPC   GL136805  13.751  11.083   9.156
 2657POPC   GL236806  13.410  11.155   9.103
 2657POPC   C1A36807  13.830  11.150   8.714
 2657POPC   D2A36808  13.950  11.180   8.259
 2657POPC   C3A36809  13.662  11.034   7.947
 2657POPC   C4A36810  13.228  11.153   7.839
 2657POPC   C1B36811  13.394  11.412   8.715
 2657POPC   C2B36812  13.454  11.359   8.287
 2657POPC   C3B36813  13.697  11.558   7.961
 2657POPC   C4B36814  13.548  11.538   7.544
 2658POPC   NC336815  21.821  14.537   9.832
 2658POPC   PO436816  22.323  14.448   9.411
 2658POPC   GL136817  22.300  14.206   9.061
 2658POPC   GL236818  21.989  13.980   8.994
 2658POPC   C1A36819  22.525  14.384   8.738
 2658POPC   D2A36820  22.370  14.668   8.424
 2658POPC   C3A36821  22.444  14.529   8.022
 2658POPC   C4A36822  22.581  14.502   7.645
 2658POPC   C1B36823  22.025  14.257   8.619
 2658POPC   C2B36824  21.995  14.354   8.184
 2658POPC   C3B36825  22.105  14.260   7.751
 2658POPC   C4B36826  22.019  13.922   7.509
 2659POPC   NC336827  29.186  14.257   9.373
 2659POPC   PO436828  29.459  14.831   9.526
 2659POPC   GL136829  29.270  14.701   9.147
 2659POPC   GL236830  29.515  14.506   8.991
 2659POPC   C1A36831  28.972  14.546   8.826
 2659POPC   D2A36832  28.732  14.491   8.473
 2659POPC   C3A36833  28.835  14.599   8.075
 2659POPC   C4A36834  29.091  14.578   7.719
 2659POPC   C1B36835  29.318  14.230   8.674
 2659POPC   C2B36836  29.086  14.166   8.290
 2659POPC   C3B36837  29.240  14.127   7.898
 2659POPC   C4B36838  29.074  14.112   7.463
 2660POPC   NC336839  30.243  15.799   9.576
 2660POPC   PO436840  29.807  16.137   9.789
 2660POPC   GL136841  29.820  15.992   9.298
 2660POPC   GL236842  30.107  15.786   9.103
 2660POPC   C1A36843  29.832  16.093   8.823
 2660POPC   D2A36844  30.054  16.166   8.420
 2660POPC   C3A36845  29.759  16.135   8.098
 2660POPC   C4A36846  29.546  16.209   7.690
 2660POPC   C1B36847  30.287  15.792   8.670
 2660POPC   C2B36848  30.178  15.750   8.176
 2660POPC   C3B36849  29.955  15.799   7.752
 2660POPC   C4B36850  30.003  15.572   7.359
 2661POPC   NC336851  30.629  32.336   9.448
 2661POPC   PO436852  30.931  31.685   9.434
 2661POPC   GL136853  30.658  31.744   9.049
 2661POPC   GL236854  30.541  32.077   9.001
 2661POPC   C1A36855  30.633  31.832   8.569
 2661POPC   D2A36856  30.493  32.233   8.290
 2661POPC   C3A36857  30.634  32.325   7.872
 2661POPC   C4A36858  31.047  32.190   7.966
 2661POPC   C1B36859  30.582  32.461   8.760
 2661POPC   C2B36860  30.720  32.692   8.399
 2661POPC   C3B36861  30.930  32.726   8.032
 2661POPC   C4B36862  30.738  32.822   7.696
 2662POPC   NC336863  19.210  43.540   9.385
 2662POPC   PO436864  18.834  43.015   9.596
 2662POPC   GL136865  18.693  43.234   9.210
 2662POPC   GL236866  19.017  43.231   9.053
 2662POPC   C1A36867  18.675  43.421   8.774
 2662POPC   D2A36868  18.951  43.314   8.444
 2662POPC   C3A36869  18.867  43.323   8.022
 2662POPC   C4A36870  18.851  43.082   7.647
 2662POPC   C1B36871  19.228  43.017   8.761
 2662POPC   C2B36872  19.329  42.964   8.363
 2662POPC   C3B36873  19.371  43.190   8.032
 2662POPC   C4B36874  19.390  43.059   7.627
 2663POPC   NC336875  14.256   6.688   9.723
 2663POPC   PO436876  13.592   6.631   9.488
 2663POPC   GL136877  13.560   6.528   9.117
 2663POPC   GL236878  13.538   6.182   9.179
 2663POPC   C1A36879  13.587   6.762   8.722
 2663POPC   D2A36880  13.628   6.947   8.294
 2663POPC   C3A36881  13.692   6.773   7.877
 2663POPC   C4A36882  13.520   6.894   7.445
 2663POPC   C1B36883  13.812   6.247   8.794
 2663POPC   C2B36884  13.616   6.355   8.417
 2663POPC   C3B36885  13.491   6.306   7.992
 2663POPC   C4B36886  13.595   6.400   7.544
 2664POPC   NC336887  18.264  39.317   9.660
 2664POPC   PO436888  18.637  38.843   9.681
 2664POPC   GL136889  18.591  38.964   9.230
 2664POPC   GL236890  18.532  39.296   9.191
 2664POPC   C1A36891  18.752  39.078   8.762
 2664POPC   D2A36892  18.698  39.098   8.274
 2664POPC   C3A36893  18.342  38.994   7.950
 2664POPC   C4A36894  18.262  38.641   7.649
 2664POPC   C1B36895  18.727  39.587   8.880
 2664POPC   C2B36896  18.881  39.547   8.447
 2664POPC   C3B36897  18.759  39.596   8.011
 2664POPC   C4B36898  18.422  39.515   7.713
 2665POPC   NC336899  29.581  23.152   9.543
 2665POPC   PO436900  30.293  22.930   9.562
 2665POPC   GL136901  30.175  22.832   9.149
 2665POPC   GL236902  29.883  22.979   9.193
 2665POPC   C1A36903  29.982  22.784   8.727
 2665POPC   D2A36904  29.795  22.860   8.340
 2665POPC   C3A36905  30.116  22.997   8.067
 2665POPC   C4A36906  30.131  22.936   7.607
 2665POPC   C1B36907  29.663  23.174   8.882
 2665POPC   C2B36908  29.837  23.354   8.534
 2665POPC   C3B36909  29.693  23.449   8.143
 2665POPC   C4B36910  29.738  23.186   7.807
 2666POPC   NC336911  10.830  20.262   9.377
 2666POPC   PO436912  10.878  20.821   9.516
 2666POPC   GL136913  11.108  20.870   9.113
 2666POPC   GL236914  11.171  20.503   9.082
 2666POPC   C1A36915  11.291  20.815   8.679
 2666POPC   D2A36916  11.246  20.628   8.246
 2666POPC   C3A36917  11.418  20.895   7.892
 2666POPC   C4A36918  11.159  21.051   7.536
 2666POPC   C1B36919  11.278  20.300   8.682
 2666POPC   C2B36920  11.657  20.398   8.427
 2666POPC   C3B36921  11.627  20.422   7.981
 2666POPC   C4B36922  11.270  20.202   7.856
 2667POPC   NC336923  40.176  27.101   9.582
 2667POPC   PO436924  39.773  26.612   9.640
 2667POPC   GL136925  39.992  26.762   9.229
 2667POPC   GL236926  39.789  27.070   9.215
 2667POPC   C1A36927  40.151  26.731   8.773
 2667POPC   D2A36928  40.053  26.469   8.375
 2667POPC   C3A36929  40.156  26.577   7.917
 2667POPC   C4A36930  40.409  26.913   7.691
 2667POPC   C1B36931  39.646  26.871   8.831
 2667POPC   C2B36932  39.788  26.904   8.392
 2667POPC   C3B36933  39.681  26.828   7.962
 2667POPC   C4B36934  39.897  26.930   7.571
 2668POPC   NC336935  40.606   4.481   9.412
 2668POPC   PO436936  41.030   3.830   9.324
 2668POPC   GL136937  40.839   4.204   9.068
 2668POPC   GL236938  40.962   4.582   9.082
 2668POPC   C1A36939  40.529   4.301   8.767
 2668POPC   D2A36940  40.549   4.063   8.408
 2668POPC   C3A36941  40.623   4.235   8.022
 2668POPC   C4A36942  40.814   4.058   7.666
 2668POPC   C1B36943  41.066   4.392   8.679
 2668POPC   C2B36944  41.074   4.177   8.293
 2668POPC   C3B36945  41.119   4.380   7.911
 2668POPC   C4B36946  41.162   4.829   7.867
 2669POPC   NC336947  26.068  30.227   9.668
 2669POPC   PO436948  26.132  29.583   9.619
 2669POPC   GL136949  26.062  29.741   9.227
 2669POPC   GL236950  26.402  29.613   9.094
 2669POPC   C1A36951  25.881  30.037   8.915
 2669POPC   D2A36952  25.965  30.059   8.458
 2669POPC   C3A36953  25.752  29.862   8.079
 2669POPC   C4A36954  25.995  30.066   7.786
 2669POPC   C1B36955  26.141  29.631   8.742
 2669POPC   C2B36956  26.033  29.523   8.372
 2669POPC   C3B36957  26.159  29.562   7.998
 2669POPC   C4B36958  25.926  29.575   7.649
 2670POPC   NC336959  43.017  40.606   9.521
 2670POPC   PO436960  42.940  41.238   9.327
 2670POPC   GL136961  43.073  40.873   9.087
 2670POPC   GL236962  43.447  40.878   9.160
 2670POPC   C1A36963  42.976  40.697   8.683
 2670POPC   D2A36964  43.277  40.857   8.415
 2670POPC   C3A36965  43.162  40.950   8.001
 2670POPC   C4A36966  42.936  40.871   7.599
 2670POPC   C1B36967  43.436  40.540   8.854
 2670POPC   C2B36968  43.485  40.405   8.447
 2670POPC   C3B36969  43.187  40.442   8.129
 2670POPC   C4B36970  43.313  40.548   7.729
 2671POPC   NC336971  15.310  42.790   9.870
 2671POPC   PO436972  15.070  43.455   9.704
 2671POPC   GL136973  15.216  43.280   9.307
 2671POPC   GL236974  14.934  43.176   9.061
 2671POPC   C1A36975  15.426  43.310   8.899
 2671POPC   D2A36976  15.256  43.159   8.503
 2671POPC   C3A36977  15.315  43.422   8.152
 2671POPC   C4A36978  15.233  43.261   7.748
 2671POPC   C1B36979  15.091  42.810   8.850
 2671POPC   C2B36980  15.089  42.648   8.433
 2671POPC   C3B36981  15.123  42.851   8.057
 2671POPC   C4B36982  15.420  42.680   7.773
 2672POPC   NC336983  44.483  28.637   9.560
 2672POPC   PO436984  44.831  28.038   9.621
 2672POPC   GL136985  44.758  28.326   9.224
 2672POPC   GL236986  44.456  28.499   9.079
 2672POPC   C1A36987  44.855  28.352   8.764
 2672POPC   D2A36988  44.954  28.114   8.387
 2672POPC   C3A36989  44.808  28.300   8.001
 2672POPC   C4A36990  44.841  28.176   7.585
 2672POPC   C1B36991  44.368  28.671   8.684
 2672POPC   C2B36992  44.571  28.572   8.364
 2672POPC   C3B36993  44.403  28.652   7.994
 2672POPC   C4B36994  44.604  28.658   7.626
 2673POPC   NC336995  36.234  32.736   9.469
 2673POPC   PO436996  36.046  33.365   9.519
 2673POPC   GL136997  36.048  33.119   9.148
 2673POPC   GL236998  35.782  33.285   9.031
 2673POPC   C1A36999  36.250  33.180   8.732
 2673POPC   D2A37000  36.314  33.005   8.324
 2673POPC   C3A37001  36.047  32.969   7.964
 2673POPC   C4A37002  36.017  32.802   7.526
 2673POPC   C1B37003  35.767  33.044   8.694
 2673POPC   C2B37004  35.855  33.233   8.359
 2673POPC   C3B37005  35.711  33.372   7.996
 2673POPC   C4B37006  35.845  33.620   7.668
 2674POPC   NC337007   9.068  39.818   9.484
 2674POPC   PO437008   9.210  40.375   9.148
 2674POPC   GL137009   9.010  40.028   9.020
 2674POPC   GL237010   9.344  39.786   9.059
 2674POPC   C1A37011   8.830  40.191   8.633
 2674POPC   D2A37012   8.611  40.166   8.248
 2674POPC   C3A37013   8.878  40.193   7.889
 2674POPC   C4A37014   8.886  40.193   7.450
 2674POPC   C1B37015   9.344  39.980   8.656
 2674POPC   C2B37016   9.113  39.914   8.302
 2674POPC   C3B37017   9.231  39.801   7.929
 2674POPC   C4B37018   9.306  39.867   7.494
 2675POPC   NC337019  29.608  27.873   9.553
 2675POPC   PO437020  29.709  28.587   9.513
 2675POPC   GL137021  29.865  28.313   9.193
 2675POPC   GL237022  29.590  28.159   9.109
 2675POPC   C1A37023  30.118  28.277   8.802
 2675POPC   D2A37024  29.975  28.244   8.352
 2675POPC   C3A37025  30.189  28.394   7.975
 2675POPC   C4A37026  30.262  28.244   7.572
 2675POPC   C1B37027  29.642  28.451   8.734
 2675POPC   C2B37028  29.606  28.615   8.315
 2675POPC   C3B37029  29.680  28.410   7.926
 2675POPC   C4B37030  29.790  28.457   7.480
 2676POPC   NC337031  21.053   2.815   9.467
 2676POPC   PO437032  21.689   2.554   9.426
 2676POPC   GL137033  21.540   2.453   9.055
 2676POPC   GL237034  21.216   2.491   9.087
 2676POPC   C1A37035  21.523   2.603   8.668
 2676POPC   D2A37036  21.398   2.856   8.318
 2676POPC   C3A37037  21.565   2.693   7.941
 2676POPC   C4A37038  21.762   2.713   7.514
 2676POPC   C1B37039  21.050   2.803   8.795
 2676POPC   C2B37040  20.880   2.839   8.393
 2676POPC   C3B37041  21.004   2.721   7.990
 2676POPC   C4B37042  20.916   2.827   7.586
 2677POPC   NC337043  30.679  12.543   9.577
 2677POPC   PO437044  30.639  13.246   9.524
 2677POPC   GL137045  30.669  12.914   9.227
 2677POPC   GL237046  30.398  12.758   9.151
 2677POPC   C1A37047  30.850  12.724   8.886
 2677POPC   D2A37048  30.814  12.779   8.441
 2677POPC   C3A37049  31.071  12.632   8.122
 2677POPC   C4A37050  31.085  12.750   7.688
 2677POPC   C1B37051  30.394  12.915   8.721
 2677POPC   C2B37052  30.342  12.778   8.283
 2677POPC   C3B37053  30.634  12.866   7.923
 2677POPC   C4B37054  30.616  12.652   7.491
 2678POPC   NC337055  32.870  29.453   9.665
 2678POPC   PO437056  33.360  29.022   9.693
 2678POPC   GL137057  33.071  29.036   9.339
 2678POPC   GL237058  33.343  28.947   9.140
 2678POPC   C1A37059  32.905  29.040   8.891
 2678POPC   D2A37060  32.956  29.016   8.439
 2678POPC   C3A37061  32.747  29.240   8.092
 2678POPC   C4A37062  32.905  29.070   7.679
 2678POPC   C1B37063  33.265  29.402   8.980
 2678POPC   C2B37064  33.272  29.517   8.532
 2678POPC   C3B37065  33.262  29.295   8.129
 2678POPC   C4B37066  33.307  29.388   7.716
 2679POPC   NC337067  20.422  10.604   9.451
 2679POPC   PO437068  21.117  10.571   9.540
 2679POPC   GL137069  20.817  10.418   9.214
 2679POPC   GL237070  20.695  10.745   9.044
 2679POPC   C1A37071  20.600  10.297   8.840
 2679POPC   D2A37072  20.412  10.324   8.461
 2679POPC   C3A37073  20.631  10.549   8.133
 2679POPC   C4A37074  20.631  10.362   7.717
 2679POPC   C1B37075  20.351  10.747   8.746
 2679POPC   C2B37076  20.279  10.950   8.343
 2679POPC   C3B37077  20.181  10.873   7.902
 2679POPC   C4B37078  20.476  10.875   7.540
 2680POPC   NC337079  36.104   3.168   9.490
 2680POPC   PO437080  35.916   3.824   9.592
 2680POPC   GL137081  36.033   3.605   9.232
 2680POPC   GL237082  36.278   3.746   9.027
 2680POPC   C1A37083  35.863   3.473   8.842
 2680POPC   D2A37084  35.941   3.701   8.474
 2680POPC   C3A37085  35.783   3.499   8.128
 2680POPC   C4A37086  35.818   3.454   7.709
 2680POPC   C1B37087  36.341   3.425   8.684
 2680POPC   C2B37088  36.308   3.459   8.197
 2680POPC   C3B37089  36.333   3.370   7.747
 2680POPC   C4B37090  36.465   3.284   7.299
 2681POPC   NC337091  43.083  24.936   9.468
 2681POPC   PO437092  42.763  25.435   9.649
 2681POPC   GL137093  43.008  25.412   9.278
 2681POPC   GL237094  43.360  25.372   9.269
 2681POPC   C1A37095  42.916  25.480   8.854
 2681POPC   D2A37096  42.861  25.329   8.435
 2681POPC   C3A37097  42.614  25.364   8.063
 2681POPC   C4A37098  42.791  25.223   7.676
 2681POPC   C1B37099  43.295  25.140   8.867
 2681POPC   C2B37100  43.355  25.126   8.425
 2681POPC   C3B37101  43.175  25.260   8.022
 2681POPC   C4B37102  43.309  25.133   7.621
 2682POPC   NC337103   8.552  44.171   9.457
 2682POPC   PO437104   8.109  43.658   9.511
 2682POPC   GL137105   8.304  43.745   9.146
 2682POPC   GL237106   8.177  44.049   9.109
 2682POPC   C1A37107   8.410  43.755   8.707
 2682POPC   D2A37108   8.138  43.629   8.374
 2682POPC   C3A37109   8.227  43.787   7.951
 2682POPC   C4A37110   8.040  43.621   7.637
 2682POPC   C1B37111   7.960  43.973   8.712
 2682POPC   C2B37112   7.773  43.988   8.296
 2682POPC   C3B37113   7.808  44.062   7.870
 2682POPC   C4B37114   8.028  44.120   7.490
 2683POPC   NC337115  27.410  43.655   9.518
 2683POPC   PO437116  27.790  44.199   9.609
 2683POPC   GL137117  27.520  44.121   9.250
 2683POPC   GL237118  27.543  43.789   9.061
 2683POPC   C1A37119  27.510  44.226   8.821
 2683POPC   D2A37120  27.578  43.915   8.525
 2683POPC   C3A37121  27.519  43.989   8.112
 2683POPC   C4A37122  27.701  43.913   7.684
 2683POPC   C1B37123  27.746  43.515   8.808
 2683POPC   C2B37124  27.811  43.458   8.432
 2683POPC   C3B37125  27.881  43.615   8.078
 2683POPC   C4B37126  28.057  43.451   7.762
 2684POPC   NC337127  20.102  11.480   9.422
 2684POPC   PO437128  19.672  10.979   9.432
 2684POPC   GL137129  19.834  11.176   9.107
 2684POPC   GL237130  19.674  11.497   9.123
 2684POPC   C1A37131  20.117  11.218   8.796
 2684POPC   D2A37132  20.146  11.465   8.439
 2684POPC   C3A37133  19.901  11.254   8.129
 2684POPC   C4A37134  19.783  11.246   7.713
 2684POPC   C1B37135  19.687  11.481   8.682
 2684POPC   C2B37136  19.694  11.693   8.297
 2684POPC   C3B37137  19.514  11.623   7.908
 2684POPC   C4B37138  19.493  11.613   7.431
 2685POPC   NC337139  28.491  17.958   9.558
 2685POPC   PO437140  27.987  18.256   9.804
 2685POPC   GL137141  28.272  18.387   9.378
 2685POPC   GL237142  28.597  18.455   9.362
 2685POPC   C1A37143  28.310  18.196   8.928
 2685POPC   D2A37144  28.485  18.205   8.520
 2685POPC   C3A37145  28.284  17.973   8.192
 2685POPC   C4A37146  28.348  18.109   7.788
 2685POPC   C1B37147  28.647  18.573   8.912
 2685POPC   C2B37148  28.511  18.715   8.501
 2685POPC   C3B37149  28.343  18.504   8.139
 2685POPC   C4B37150  28.330  18.610   7.747
 2686POPC   NC337151  18.626  38.385   9.652
 2686POPC   PO437152  19.299  38.221   9.578
 2686POPC   GL137153  19.088  38.324   9.227
 2686POPC   GL237154  18.978  38.636   9.332
 2686POPC   C1A37155  19.113  38.246   8.791
 2686POPC   D2A37156  19.320  38.422   8.464
 2686POPC   C3A37157  19.115  38.354   8.084
 2686POPC   C4A37158  19.195  38.219   7.702
 2686POPC   C1B37159  18.753  38.578   8.918
 2686POPC   C2B37160  18.835  38.624   8.454
 2686POPC   C3B37161  18.712  38.645   7.996
 2686POPC   C4B37162  18.739  38.458   7.575
 2687POPC   NC337163  32.081  17.595   9.561
 2687POPC   PO437164  32.683  17.911   9.417
 2687POPC   GL137165  32.384  17.582   9.167
 2687POPC   GL237166  32.410  17.248   9.209
 2687POPC   C1A37167  32.030  17.462   8.874
 2687POPC   D2A37168  31.842  17.584   8.463
 2687POPC   C3A37169  32.172  17.630   8.146
 2687POPC   C4A37170  32.257  17.294   7.840
 2687POPC   C1B37171  32.449  17.179   8.791
 2687POPC   C2B37172  32.434  17.200   8.366
 2687POPC   C3B37173  32.577  16.932   8.050
 2687POPC   C4B37174  32.631  17.032   7.637
 2688POPC   NC337175   1.579  42.387   9.215
 2688POPC   PO437176   2.127  42.454   9.647
 2688POPC   GL137177   2.119  42.282   9.212
 2688POPC   GL237178   2.078  42.621   9.157
 2688POPC   C1A37179   2.011  42.210   8.727
 2688POPC   D2A37180   1.788  42.373   8.318
 2688POPC   C3A37181   2.006  42.229   7.930
 2688POPC   C4A37182   2.345  41.911   7.838
 2688POPC   C1B37183   1.947  42.712   8.742
 2688POPC   C2B37184   2.204  42.634   8.370
 2688POPC   C3B37185   2.322  42.646   7.951
 2688POPC   C4B37186   2.025  42.696   7.653
 2689POPC   NC337187   8.577  41.169   9.514
 2689POPC   PO437188   8.972  41.595   9.393
 2689POPC   GL137189   8.840  41.639   9.004
 2689POPC   GL237190   8.587  41.410   9.063
 2689POPC   C1A37191   8.914  41.686   8.550
 2689POPC   D2A37192   8.858  42.003   8.252
 2689POPC   C3A37193   8.721  41.829   7.902
 2689POPC   C4A37194   9.032  41.524   7.776
 2689POPC   C1B37195   8.703  41.244   8.659
 2689POPC   C2B37196   8.672  41.360   8.166
 2689POPC   C3B37197   8.667  41.162   7.746
 2689POPC   C4B37198   8.916  41.219   7.341
 2690POPC   NC337199  15.606  30.112   9.643
 2690POPC   PO437200  15.059  30.192   9.259
 2690POPC   GL137201  15.231  29.894   8.994
 2690POPC   GL237202  15.539  29.921   9.157
 2690POPC   C1A37203  15.139  29.765   8.585
 2690POPC   D2A37204  15.045  30.073   8.286
 2690POPC   C3A37205  15.074  30.080   7.855
 2690POPC   C4A37206  14.710  29.906   7.735
 2690POPC   C1B37207  15.704  29.956   8.734
 2690POPC   C2B37208  15.569  29.872   8.304
 2690POPC   C3B37209  15.543  29.859   7.839
 2690POPC   C4B37210  15.546  30.092   7.447
 2691POPC   NC337211  16.058  26.628   9.514
 2691POPC   PO437212  15.643  27.224   9.552
 2691POPC   GL137213  15.849  27.014   9.168
 2691POPC   GL237214  15.744  26.634   9.112
 2691POPC   C1A37215  16.097  27.211   8.812
 2691POPC   D2A37216  16.357  27.076   8.480
 2691POPC   C3A37217  16.238  27.137   8.065
 2691POPC   C4A37218  15.988  26.922   7.796
 2691POPC   C1B37219  16.020  26.711   8.739
 2691POPC   C2B37220  15.909  26.806   8.321
 2691POPC   C3B37221  15.749  26.536   8.001
 2691POPC   C4B37222  16.125  26.391   7.745
 2692POPC   NC337223   2.193  36.005   9.346
 2692POPC   PO437224   2.120  36.622   9.478
 2692POPC   GL137225   2.044  36.497   9.075
 2692POPC   GL237226   1.790  36.223   9.059
 2692POPC   C1A37227   2.210  36.321   8.705
 2692POPC   D2A37228   2.102  36.028   8.392
 2692POPC   C3A37229   1.884  36.235   8.046
 2692POPC   C4A37230   2.096  36.109   7.697
 2692POPC   C1B37231   1.683  35.868   8.770
 2692POPC   C2B37232   1.621  35.882   8.329
 2692POPC   C3B37233   1.754  35.741   7.916
 2692POPC   C4B37234   1.634  35.888   7.486
 2693POPC   NC337235  32.812  26.259   9.436
 2693POPC   PO437236  33.445  26.416   9.511
 2693POPC   GL137237  33.411  26.170   9.141
 2693POPC   GL237238  33.098  26.126   9.063
 2693POPC   C1A37239  33.417  26.122   8.682
 2693POPC   D2A37240  33.167  26.249   8.364
 2693POPC   C3A37241  33.335  26.090   8.027
 2693POPC   C4A37242  33.267  25.951   7.635
 2693POPC   C1B37243  32.960  25.910   8.710
 2693POPC   C2B37244  32.765  25.917   8.339
 2693POPC   C3B37245  32.875  25.876   7.960
 2693POPC   C4B37246  32.800  26.115   7.622
 2694POPC   NC337247  21.162  31.209   9.502
 2694POPC   PO437248  21.557  31.837   9.413
 2694POPC   GL137249  21.281  31.658   9.160
 2694POPC   GL237250  21.469  31.366   9.106
 2694POPC   C1A37251  21.201  31.795   8.737
 2694POPC   D2A37252  21.395  31.564   8.410
 2694POPC   C3A37253  21.462  31.738   8.040
 2694POPC   C4A37254  21.503  31.500   7.641
 2694POPC   C1B37255  21.180  31.294   8.789
 2694POPC   C2B37256  21.098  31.128   8.376
 2694POPC   C3B37257  21.142  31.316   7.986
 2694POPC   C4B37258  21.183  31.073   7.625
 2695POPC   NC337259  18.364   3.809   9.417
 2695POPC   PO437260  18.141   4.456   9.621
 2695POPC   GL137261  18.132   4.275   9.218
 2695POPC   GL237262  18.071   4.618   9.146
 2695POPC   C1A37263  18.389   4.264   8.839
 2695POPC   D2A37264  18.562   4.464   8.446
 2695POPC   C3A37265  18.452   4.201   8.087
 2695POPC   C4A37266  18.257   4.276   7.691
 2695POPC   C1B37267  18.199   4.749   8.762
 2695POPC   C2B37268  17.934   4.832   8.419
 2695POPC   C3B37269  18.089   4.622   8.071
 2695POPC   C4B37270  18.460   4.691   7.895
 2696POPC   NC337271  23.963  38.897   9.405
 2696POPC   PO437272  23.536  38.399   9.585
 2696POPC   GL137273  23.524  38.411   9.141
 2696POPC   GL237274  23.852  38.488   9.135
 2696POPC   C1A37275  23.659  38.211   8.716
 2696POPC   D2A37276  23.575  37.948   8.313
 2696POPC   C3A37277  23.675  38.089   7.868
 2696POPC   C4A37278  23.413  38.304   7.515
 2696POPC   C1B37279  23.771  38.730   8.772
 2696POPC   C2B37280  23.906  38.637   8.356
 2696POPC   C3B37281  23.724  38.613   7.943
 2696POPC   C4B37282  23.893  38.470   7.573
 2697POPC   NC337283  42.706  37.322   9.421
 2697POPC   PO437284  42.689  37.952   9.586
 2697POPC   GL137285  42.474  37.822   9.188
 2697POPC   GL237286  42.141  37.674   9.072
 2697POPC   C1A37287  42.392  37.966   8.750
 2697POPC   D2A37288  42.223  37.728   8.419
 2697POPC   C3A37289  42.389  37.891   8.053
 2697POPC   C4A37290  42.348  37.702   7.648
 2697POPC   C1B37291  42.480  37.458   8.808
 2697POPC   C2B37292  42.597  37.286   8.412
 2697POPC   C3B37293  42.431  37.332   8.004
 2697POPC   C4B37294  42.637  37.283   7.597
 2698POPC   NC337295  33.666  20.649   9.815
 2698POPC   PO437296  33.073  20.463   9.496
 2698POPC   GL137297  33.053  20.621   9.106
 2698POPC   GL237298  32.789  20.441   9.043
 2698POPC   C1A37299  33.274  20.830   8.781
 2698POPC   D2A37300  33.130  20.900   8.372
 2698POPC   C3A37301  33.208  20.611   8.081
 2698POPC   C4A37302  33.162  20.864   7.724
 2698POPC   C1B37303  32.865  20.548   8.634
 2698POPC   C2B37304  32.687  20.546   8.284
 2698POPC   C3B37305  32.694  20.690   7.918
 2698POPC   C4B37306  32.906  20.433   7.679
 2699POPC   NC337307  15.966  10.723   9.523
 2699POPC   PO437308  15.571  10.148   9.429
 2699POPC   GL137309  15.660  10.505   9.177
 2699POPC   GL237310  16.034  10.415   9.072
 2699POPC   C1A37311  15.753  10.747   8.828
 2699POPC   D2A37312  15.961  10.560   8.491
 2699POPC   C3A37313  15.732  10.591   8.130
 2699POPC   C4A37314  15.859  10.339   7.801
 2699POPC   C1B37315  16.331  10.717   8.837
 2699POPC   C2B37316  16.380  10.829   8.370
 2699POPC   C3B37317  16.198  10.673   7.963
 2699POPC   C4B37318  16.175  10.671   7.454
 2700POPC   NC337319  41.658  31.852   9.844
 2700POPC   PO437320  41.588  31.225   9.575
 2700POPC   GL137321  41.493  31.455   9.153
 2700POPC   GL237322  41.603  31.817   8.994
 2700POPC   C1A37323  41.428  31.371   8.722
 2700POPC   D2A37324  41.719  31.542   8.431
 2700POPC   C3A37325  41.749  31.408   7.999
 2700POPC   C4A37326  41.346  31.332   7.802
 2700POPC   C1B37327  41.319  31.845   8.656
 2700POPC   C2B37328  41.228  31.604   8.281
 2700POPC   C3B37329  41.455  31.806   8.024
 2700POPC   C4B37330  41.391  32.074   7.768
 2701POPC   NC337331  23.918  40.308   9.496
 2701POPC   PO437332  23.428  39.872   9.600
 2701POPC   GL137333  23.666  39.967   9.193
 2701POPC   GL237334  23.578  40.313   9.087
 2701POPC   C1A37335  23.839  39.892   8.755
 2701POPC   D2A37336  24.084  40.171   8.445
 2701POPC   C3A37337  24.016  40.090   7.987
 2701POPC   C4A37338  23.834  39.747   7.762
 2701POPC   C1B37339  23.581  40.334   8.640
 2701POPC   C2B37340  23.655  40.364   8.210
 2701POPC   C3B37341  23.584  40.302   7.758
 2701POPC   C4B37342  23.428  40.261   7.357
 2702POPC   NC337343  10.844  42.191   9.541
 2702POPC   PO437344  11.467  42.382   9.518
 2702POPC   GL137345  11.379  42.223   9.122
 2702POPC   GL237346  11.664  42.072   8.952
 2702POPC   C1A37347  11.177  42.400   8.743
 2702POPC   D2A37348  11.360  42.410   8.354
 2702POPC   C3A37349  11.182  42.385   7.984
 2702POPC   C4A37350  11.463  42.236   7.715
 2702POPC   C1B37351  11.656  42.528   8.793
 2702POPC   C2B37352  11.743  42.730   8.387
 2702POPC   C3B37353  11.520  42.769   7.975
 2702POPC   C4B37354  11.661  42.670   7.537
 2703POPC   NC337355  33.251  12.359   9.328
 2703POPC   PO437356  32.665  11.912   9.401
 2703POPC   GL137357  32.857  12.115   9.091
 2703POPC   GL237358  33.128  11.874   9.039
 2703POPC   C1A37359  32.926  12.118   8.657
 2703POPC   D2A37360  32.786  11.966   8.252
 2703POPC   C3A37361  33.050  12.001   7.880
 2703POPC   C4A37362  33.129  12.272   7.501
 2703POPC   C1B37363  33.431  11.949   8.701
 2703POPC   C2B37364  33.624  11.952   8.257
 2703POPC   C3B37365  33.634  11.899   7.798
 2703POPC   C4B37366  33.570  12.057   7.388
 2704POPC   NC337367   3.755  44.567   9.579
 2704POPC   PO437368   3.134  44.783   9.504
 2704POPC   GL137369   3.362  44.592   9.183
 2704POPC   GL237370   3.740  44.573   9.095
 2704POPC   C1A37371   3.420  44.762   8.773
 2704POPC   D2A37372   3.460  44.517   8.419
 2704POPC   C3A37373   3.592  44.666   8.004
 2704POPC   C4A37374   3.716  44.432   7.707
 2704POPC   C1B37375   3.896  44.516   8.721
 2704POPC   C2B37376   3.949  44.720   8.367
 2704POPC   C3B37377   4.116  44.625   7.994
 2704POPC   C4B37378   3.978  44.848   7.661
 2705POPC   NC337379  30.440  34.494   9.563
 2705POPC   PO437380  30.800  34.938   9.305
 2705POPC   GL137381  30.846  34.567   9.173
 2705POPC   GL237382  30.523  34.497   9.070
 2705POPC   C1A37383  30.954  34.389   8.816
 2705POPC   D2A37384  30.696  34.556   8.501
 2705POPC   C3A37385  30.858  34.572   8.117
 2705POPC   C4A37386  30.652  34.519   7.790
 2705POPC   C1B37387  30.491  34.165   8.792
 2705POPC   C2B37388  30.635  34.027   8.396
 2705POPC   C3B37389  30.490  34.052   7.970
 2705POPC   C4B37390  30.330  34.183   7.584
 2706POPC   NC337391  28.515   4.706   9.935
 2706POPC   PO437392  28.132   5.123   9.643
 2706POPC   GL137393  28.159   5.291   9.239
 2706POPC   GL237394  28.011   5.012   9.111
 2706POPC   C1A37395  28.400   5.294   8.852
 2706POPC   D2A37396  28.412   5.053   8.468
 2706POPC   C3A37397  28.433   5.247   8.085
 2706POPC   C4A37398  28.514   5.080   7.700
 2706POPC   C1B37399  27.953   5.093   8.681
 2706POPC   C2B37400  27.913   5.130   8.267
 2706POPC   C3B37401  27.993   5.105   7.881
 2706POPC   C4B37402  28.089   4.774   7.680
 2707POPC   NC337403  17.628   5.254   9.607
 2707POPC   PO437404  17.271   4.742   9.724
 2707POPC   GL137405  17.278   4.969   9.340
 2707POPC   GL237406  17.589   4.821   9.241
 2707POPC   C1A37407  17.451   5.243   8.983
 2707POPC   D2A37408  17.454   5.155   8.546
 2707POPC   C3A37409  17.638   5.236   8.168
 2707POPC   C4A37410  17.664   5.099   7.727
 2707POPC   C1B37411  17.318   4.758   8.873
 2707POPC   C2B37412  17.398   4.654   8.444
 2707POPC   C3B37413  17.588   4.723   8.066
 2707POPC   C4B37414  17.354   4.649   7.722
 2708POPC   NC337415   1.248  37.485   9.390
 2708POPC   PO437416   1.304  36.864   9.585
 2708POPC   GL137417   1.166  37.011   9.213
 2708POPC   GL237418   1.262  36.740   9.043
 2708POPC   C1A37419   1.070  37.138   8.792
 2708POPC   D2A37420   1.144  36.855   8.460
 2708POPC   C3A37421   1.169  37.067   8.084
 2708POPC   C4A37422   1.074  36.858   7.738
 2708POPC   C1B37423   1.630  36.662   8.827
 2708POPC   C2B37424   1.718  36.352   8.539
 2708POPC   C3B37425   1.413  36.384   8.237
 2708POPC   C4B37426   1.409  36.460   7.794
 2709POPC   NC337427   7.923  43.276   9.324
 2709POPC   PO437428   8.579  43.062   9.392
 2709POPC   GL137429   8.276  42.979   9.074
 2709POPC   GL237430   7.968  42.753   9.131
 2709POPC   C1A37431   8.264  43.274   8.742
 2709POPC   D2A37432   8.571  43.336   8.421
 2709POPC   C3A37433   8.355  43.321   8.044
 2709POPC   C4A37434   8.178  43.124   7.735
 2709POPC   C1B37435   7.926  42.904   8.688
 2709POPC   C2B37436   8.031  42.943   8.216
 2709POPC   C3B37437   7.938  42.701   7.830
 2709POPC   C4B37438   7.952  42.799   7.374
 2710POPC   NC337439  44.064  25.001   9.650
 2710POPC   PO437440  44.065  24.385   9.638
 2710POPC   GL137441  44.099  24.612   9.249
 2710POPC   GL237442  43.939  24.340   9.057
 2710POPC   C1A37443  44.058  24.762   8.823
 2710POPC   D2A37444  43.844  24.940   8.486
 2710POPC   C3A37445  43.936  24.783   8.096
 2710POPC   C4A37446  44.102  24.682   7.686
 2710POPC   C1B37447  43.696  24.146   8.736
 2710POPC   C2B37448  43.559  24.113   8.323
 2710POPC   C3B37449  43.699  24.312   7.985
 2710POPC   C4B37450  43.934  24.217   7.627
 2711POPC   NC337451  28.833  37.739   9.453
 2711POPC   PO437452  29.447  37.464   9.571
 2711POPC   GL137453  29.300  37.698   9.204
 2711POPC   GL237454  29.556  37.950   9.096
 2711POPC   C1A37455  29.024  37.611   8.836
 2711POPC   D2A37456  29.088  37.548   8.409
 2711POPC   C3A37457  28.860  37.751   8.089
 2711POPC   C4A37458  29.067  37.637   7.685
 2711POPC   C1B37459  29.322  38.026   8.740
 2711POPC   C2B37460  29.107  38.092   8.369
 2711POPC   C3B37461  29.293  37.991   7.987
 2711POPC   C4B37462  29.692  37.927   7.843
 2712POPC   NC337463   4.791  12.135   9.624
 2712POPC   PO437464   4.131  12.020   9.600
 2712POPC   GL137465   4.299  12.145   9.209
 2712POPC   GL237466   4.526  11.867   9.246
 2712POPC   C1A37467   4.389  12.212   8.758
 2712POPC   D2A37468   4.211  12.233   8.328
 2712POPC   C3A37469   4.431  12.118   7.976
 2712POPC   C4A37470   4.271  12.160   7.558
 2712POPC   C1B37471   4.352  11.737   8.873
 2712POPC   C2B37472   4.356  11.760   8.451
 2712POPC   C3B37473   4.622  11.665   8.085
 2712POPC   C4B37474   4.458  11.699   7.660
 2713POPC   NC337475   0.779   4.558   9.587
 2713POPC   PO437476   0.164   4.287   9.584
 2713POPC   GL137477   0.379   4.346   9.180
 2713POPC   GL237478   0.648   4.606   9.115
 2713POPC   C1A37479   0.464   4.166   8.777
 2713POPC   D2A37480   0.588   4.022   8.365
 2713POPC   C3A37481   0.481   4.216   7.952
 2713POPC   C4A37482   0.602   4.000   7.576
 2713POPC   C1B37483   0.417   4.689   8.773
 2713POPC   C2B37484   0.173   4.671   8.400
 2713POPC   C3B37485   0.313   4.716   7.989
 2713POPC   C4B37486   0.677   4.655   7.719
 2714POPC   NC337487  28.701  25.475   9.482
 2714POPC   PO437488  28.042  25.489   9.447
 2714POPC   GL137489  28.306  25.326   9.133
 2714POPC   GL237490  28.621  25.129   9.118
 2714POPC   C1A37491  28.282  25.164   8.722
 2714POPC   D2A37492  28.100  25.340   8.384
 2714POPC   C3A37493  28.242  25.252   7.968
 2714POPC   C4A37494  28.200  25.510   7.624
 2714POPC   C1B37495  28.690  25.450   8.774
 2714POPC   C2B37496  28.606  25.420   8.308
 2714POPC   C3B37497  28.789  25.250   7.901
 2714POPC   C4B37498  28.698  25.090   7.460
 2715POPC   NC337499  28.733  44.791   9.943
 2715POPC   PO437500  28.159  44.793   9.569
 2715POPC   GL137501  28.423  44.601   9.188
 2715POPC   GL237502  28.617  44.241   9.188
 2715POPC   C1A37503  28.601  44.770   8.812
 2715POPC   D2A37504  28.564  44.977   8.420
 2715POPC   C3A37505  28.529  44.798   8.003
 2715POPC   C4A37506  28.562  44.968   7.564
 2715POPC   C1B37507  28.444  44.237   8.778
 2715POPC   C2B37508  28.330  44.402   8.376
 2715POPC   C3B37509  28.508  44.294   7.973
 2715POPC   C4B37510  28.384  44.473   7.577
 2716POPC   NC337511  31.793  20.748   9.678
 2716POPC   PO437512  31.294  20.358   9.518
 2716POPC   GL137513  31.492  20.646   9.226
 2716POPC   GL237514  31.829  20.576   9.193
 2716POPC   C1A37515  31.579  20.836   8.817
 2716POPC   D2A37516  31.394  20.901   8.395
 2716POPC   C3A37517  31.658  20.870   8.055
 2716POPC   C4A37518  31.650  20.714   7.685
 2716POPC   C1B37519  31.886  20.372   8.817
 2716POPC   C2B37520  31.812  20.578   8.431
 2716POPC   C3B37521  31.830  20.370   8.000
 2716POPC   C4B37522  31.952  20.344   7.556
 2717POPC   NC337523  19.553  38.179   9.965
 2717POPC   PO437524  19.843  37.766   9.524
 2717POPC   GL137525  19.770  37.623   9.128
 2717POPC   GL237526  19.465  37.421   9.091
 2717POPC   C1A37527  19.975  37.755   8.792
 2717POPC   D2A37528  20.016  37.606   8.419
 2717POPC   C3A37529  19.889  37.787   8.058
 2717POPC   C4A37530  19.870  37.605   7.683
 2717POPC   C1B37531  19.612  37.384   8.681
 2717POPC   C2B37532  19.556  37.442   8.262
 2717POPC   C3B37533  19.553  37.281   7.858
 2717POPC   C4B37534  19.476  37.265   7.416
 2718POPC   NC337535  28.739  31.808   9.479
 2718POPC   PO437536  29.139  32.305   9.470
 2718POPC   GL137537  29.083  32.013   9.139
 2718POPC   GL237538  28.755  32.189   9.146
 2718POPC   C1A37539  29.244  31.939   8.712
 2718POPC   D2A37540  29.212  32.144   8.289
 2718POPC   C3A37541  29.112  31.891   7.919
 2718POPC   C4A37542  29.142  31.942   7.449
 2718POPC   C1B37543  28.908  32.408   8.805
 2718POPC   C2B37544  28.750  32.460   8.398
 2718POPC   C3B37545  28.923  32.566   8.009
 2718POPC   C4B37546  28.873  32.316   7.666
 2719POPC   NC337547  33.366  44.384   9.604
 2719POPC   PO437548  33.947  44.184   9.463
 2719POPC   GL137549  33.689  44.280   9.137
 2719POPC   GL237550  33.595  44.591   9.165
 2719POPC   C1A37551  33.714  44.399   8.707
 2719POPC   D2A37552  33.940  44.401   8.341
 2719POPC   C3A37553  33.764  44.312   7.995
 2719POPC   C4A37554  33.919  44.489   7.615
 2719POPC   C1B37555  33.580  44.881   8.858
 2719POPC   C2B37556  33.801  44.865   8.493
 2719POPC   C3B37557  33.749  44.814   8.067
 2719POPC   C4B37558  33.991  44.971   7.773
 2720POPC   NC337559   2.488  41.244   9.396
 2720POPC   PO437560   2.762  41.738   9.753
 2720POPC   GL137561   2.674  41.771   9.244
 2720POPC   GL237562   2.950  41.921   9.023
 2720POPC   C1A37563   2.668  41.571   8.800
 2720POPC   D2A37564   2.519  41.345   8.428
 2720POPC   C3A37565   2.603  41.445   7.983
 2720POPC   C4A37566   2.941  41.223   7.708
 2720POPC   C1B37567   2.707  42.089   8.688
 2720POPC   C2B37568   2.586  41.874   8.299
 2720POPC   C3B37569   2.860  41.886   7.921
 2720POPC   C4B37570   3.145  42.060   7.622
 2721POPC   NC337571  14.319  29.236   9.489
 2721POPC   PO437572  14.914  29.249   9.431
 2721POPC   GL137573  14.636  29.141   9.076
 2721POPC   GL237574  14.420  28.830   9.184
 2721POPC   C1A37575  14.291  29.248   8.759
 2721POPC   D2A37576  14.045  29.353   8.355
 2721POPC   C3A37577  14.225  29.226   7.961
 2721POPC   C4A37578  14.555  29.411   7.759
 2721POPC   C1B37579  14.480  28.755   8.755
 2721POPC   C2B37580  14.514  28.974   8.350
 2721POPC   C3B37581  14.548  28.819   7.922
 2721POPC   C4B37582  14.189  28.780   7.678
 2722POPC   NC337583  23.780  39.591   9.507
 2722POPC   PO437584  23.524  39.029   9.373
 2722POPC   GL137585  23.565  39.162   8.984
 2722POPC   GL237586  23.809  39.433   9.041
 2722POPC   C1A37587  23.488  39.479   8.656
 2722POPC   D2A37588  23.699  39.514   8.235
 2722POPC   C3A37589  23.488  39.357   7.820
 2722POPC   C4A37590  23.378  39.390   7.353
 2722POPC   C1B37591  23.956  39.274   8.663
 2722POPC   C2B37592  24.102  39.206   8.273
 2722POPC   C3B37593  24.016  39.261   7.848
 2722POPC   C4B37594  23.835  38.964   7.548
 2723POPC   NC337595  44.953  23.478   9.485
 2723POPC   PO437596  44.363  23.674   9.641
 2723POPC   GL137597  44.624  23.745   9.237
 2723POPC   GL237598  44.445  23.545   9.023
 2723POPC   C1A37599  44.922  23.506   8.853
 2723POPC   D2A37600  44.853  23.570   8.410
 2723POPC   C3A37601   0.074  23.639   8.027
 2723POPC   C4A37602  44.850  23.576   7.623
 2723POPC   C1B37603  44.648  23.917   8.770
 2723POPC   C2B37604  44.467  23.960   8.379
 2723POPC   C3B37605  44.628  23.892   7.986
 2723POPC   C4B37606  44.964  24.084   7.728
 2724POPC   NC337607  16.041  33.972   9.674
 2724POPC   PO437608  16.054  33.364   9.637
 2724POPC   GL137609  15.922  33.665   9.268
 2724POPC   GL237610  16.205  33.878   9.180
 2724POPC   C1A37611  15.867  33.844   8.812
 2724POPC   D2A37612  16.093  33.889   8.415
 2724POPC   C3A37613  15.855  34.008   8.051
 2724POPC   C4A37614  15.750  33.831   7.670
 2724POPC   C1B37615  16.281  33.542   8.847
 2724POPC   C2B37616  16.403  33.492   8.397
 2724POPC   C3B37617  16.332  33.621   7.973
 2724POPC   C4B37618  16.288  33.730   7.537
 2725POPC   NC337619  20.371   0.095   9.524
 2725POPC   PO437620  20.648   0.703   9.498
 2725POPC   GL137621  20.681   0.405   9.175
 2725POPC   GL237622  20.355   0.433   9.138
 2725POPC   C1A37623  20.901   0.442   8.768
 2725POPC   D2A37624  20.732   0.435   8.362
 2725POPC   C3A37625  20.932   0.541   8.052
 2725POPC   C4A37626  20.703   0.477   7.701
 2725POPC   C1B37627  20.408   0.328   8.726
 2725POPC   C2B37628  20.225   0.391   8.357
 2725POPC   C3B37629  20.250   0.435   7.939
 2725POPC   C4B37630  20.113   0.811   7.737
 2726POPC   NC337631  11.728  17.270   9.286
 2726POPC   PO437632  12.219  17.683   9.366
 2726POPC   GL137633  12.173  17.361   9.065
 2726POPC   GL237634  11.964  17.615   8.919
 2726POPC   C1A37635  12.104  17.237   8.631
 2726POPC   D2A37636  11.959  17.553   8.332
 2726POPC   C3A37637  12.086  17.489   7.892
 2726POPC   C4A37638  12.410  17.275   7.674
 2726POPC   C1B37639  11.591  17.736   8.732
 2726POPC   C2B37640  11.456  17.668   8.335
 2726POPC   C3B37641  11.630  17.751   7.957
 2726POPC   C4B37642  11.887  17.846   7.593
 2727POPC   NC337643  11.203  14.367   9.566
 2727POPC   PO437644  11.873  14.396   9.555
 2727POPC   GL137645  11.570  14.319   9.192
 2727POPC   GL237646  11.318  14.598   9.129
 2727POPC   C1A37647  11.561  14.390   8.742
 2727POPC   D2A37648  11.289  14.555   8.433
 2727POPC   C3A37649  11.284  14.374   8.012
 2727POPC   C4A37650  11.552  14.584   7.714
 2727POPC   C1B37651  11.094  14.297   8.892
 2727POPC   C2B37652  10.950  14.197   8.487
 2727POPC   C3B37653  10.799  14.505   8.192
 2727POPC   C4B37654  10.804  14.389   7.750
 2728POPC   NC337655  29.493  36.246   9.703
 2728POPC   PO437656  28.806  36.117   9.492
 2728POPC   GL137657  28.995  36.108   9.126
 2728POPC   GL237658  29.036  36.453   9.132
 2728POPC   C1A37659  28.880  35.885   8.748
 2728POPC   D2A37660  28.870  35.694   8.339
 2728POPC   C3A37661  29.121  35.919   8.026
 2728POPC   C4A37662  29.038  35.880   7.568
 2728POPC   C1B37663  28.888  36.419   8.708
 2728POPC   C2B37664  28.915  36.339   8.269
 2728POPC   C3B37665  28.901  36.331   7.823
 2728POPC   C4B37666  29.231  36.332   7.544
 2729POPC   NC337667  26.552  38.540   9.725
 2729POPC   PO437668  25.915  38.292   9.491
 2729POPC   GL137669  25.774  38.390   9.134
 2729POPC   GL237670  26.013  38.324   8.927
 2729POPC   C1A37671  25.548  38.450   8.781
 2729POPC   D2A37672  25.454  38.358   8.370
 2729POPC   C3A37673  25.757  38.429   8.053
 2729POPC   C4A37674  25.840  38.581   7.676
 2729POPC   C1B37675  25.976  38.302   8.510
 2729POPC   C2B37676  26.264  38.255   8.209
 2729POPC   C3B37677  26.266  38.071   7.847
 2729POPC   C4B37678  26.289  38.388   7.602
 2730POPC   NC337679   3.224   4.559   9.535
 2730POPC   PO437680   3.820   4.240   9.488
 2730POPC   GL137681   3.879   4.362   9.069
 2730POPC   GL237682   3.526   4.296   9.057
 2730POPC   C1A37683   3.784   4.353   8.621
 2730POPC   D2A37684   3.452   4.322   8.314
 2730POPC   C3A37685   3.663   4.260   7.939
 2730POPC   C4A37686   3.618   4.092   7.550
 2730POPC   C1B37687   3.324   4.563   8.756
 2730POPC   C2B37688   3.333   4.800   8.364
 2730POPC   C3B37689   3.538   4.756   7.952
 2730POPC   C4B37690   3.347   4.803   7.523
 2731POPC   NC337691  18.309  13.822   9.668
 2731POPC   PO437692  18.265  13.236   9.498
 2731POPC   GL137693  18.137  13.462   9.094
 2731POPC   GL237694  18.206  13.823   9.147
 2731POPC   C1A37695  18.168  13.576   8.628
 2731POPC   D2A37696  18.204  13.303   8.251
 2731POPC   C3A37697  18.187  13.401   7.797
 2731POPC   C4A37698  18.506  13.387   7.446
 2731POPC   C1B37699  18.414  14.003   8.786
 2731POPC   C2B37700  18.551  13.864   8.361
 2731POPC   C3B37701  18.323  13.853   7.964
 2731POPC   C4B37702  18.293  13.827   7.487
 2732POPC   NC337703  41.944   5.318   9.419
 2732POPC   PO437704  42.422   4.876   9.530
 2732POPC   GL137705  42.411   4.944   9.093
 2732POPC   GL237706  42.101   5.136   8.984
 2732POPC   C1A37707  42.486   5.096   8.671
 2732POPC   D2A37708  42.163   5.231   8.395
 2732POPC   C3A37709  42.382   5.325   8.048
 2732POPC   C4A37710  42.589   5.029   7.827
 2732POPC   C1B37711  42.069   4.782   8.747
 2732POPC   C2B37712  41.873   4.721   8.378
 2732POPC   C3B37713  42.026   4.805   7.999
 2732POPC   C4B37714  41.991   5.140   7.809
 2733POPC   NC337715  19.561   9.815   9.698
 2733POPC   PO437716  19.024   9.411   9.477
 2733POPC   GL137717  18.931   9.623   9.085
 2733POPC   GL237718  19.181   9.840   9.131
 2733POPC   C1A37719  19.000   9.752   8.636
 2733POPC   D2A37720  19.262   9.848   8.283
 2733POPC   C3A37721  19.005   9.975   7.932
 2733POPC   C4A37722  18.696   9.954   7.599
 2733POPC   C1B37723  19.358   9.455   8.823
 2733POPC   C2B37724  19.371   9.339   8.358
 2733POPC   C3B37725  19.189   9.474   7.908
 2733POPC   C4B37726  19.351   9.533   7.410
 2734POPC   NC337727  30.617   3.697   9.388
 2734POPC   PO437728  31.106   3.437   9.404
 2734POPC   GL137729  30.883   3.473   9.005
 2734POPC   GL237730  30.501   3.520   8.918
 2734POPC   C1A37731  30.897   3.382   8.588
 2734POPC   D2A37732  30.506   3.351   8.360
 2734POPC   C3A37733  30.496   3.358   7.903
 2734POPC   C4A37734  30.791   3.474   7.644
 2734POPC   C1B37735  30.675   3.843   8.642
 2734POPC   C2B37736  30.986   4.020   8.356
 2734POPC   C3B37737  30.905   4.053   7.898
 2734POPC   C4B37738  30.512   3.897   7.613
 2735POPC   NC337739  13.488  10.607   9.560
 2735POPC   PO437740  13.851  10.054   9.436
 2735POPC   GL137741  13.638  10.332   9.167
 2735POPC   GL237742  13.844  10.254   8.952
 2735POPC   C1A37743  13.562  10.686   8.869
 2735POPC   D2A37744  13.632  10.777   8.423
 2735POPC   C3A37745  13.480  10.509   8.108
 2735POPC   C4A37746  13.485  10.616   7.693
 2735POPC   C1B37747  13.727   9.999   8.630
 2735POPC   C2B37748  13.852  10.223   8.319
 2735POPC   C3B37749  14.047  10.095   7.977
 2735POPC   C4B37750  14.104  10.258   7.618
 2736POPC   NC337751  42.033  14.755   9.494
 2736POPC   PO437752  42.397  15.372   9.720
 2736POPC   GL137753  42.221  15.198   9.271
 2736POPC   GL237754  42.372  14.905   9.126
 2736POPC   C1A37755  42.132  15.214   8.785
 2736POPC   D2A37756  42.391  15.393   8.404
 2736POPC   C3A37757  42.231  15.433   7.973
 2736POPC   C4A37758  42.290  15.443   7.535
 2736POPC   C1B37759  42.625  15.197   8.820
 2736POPC   C2B37760  42.774  15.073   8.414
 2736POPC   C3B37761  42.649  15.154   8.013
 2736POPC   C4B37762  42.761  15.304   7.636
 2737POPC   NC337763   0.999  21.136   9.557
 2737POPC   PO437764   1.572  21.400   9.789
 2737POPC   GL137765   1.466  21.347   9.286
 2737POPC   GL237766   1.146  21.459   9.156
 2737POPC   C1A37767   1.520  21.451   8.818
 2737POPC   D2A37768   1.304  21.546   8.408
 2737POPC   C3A37769   1.355  21.228   8.086
 2737POPC   C4A37770   1.629  20.845   7.968
 2737POPC   C1B37771   1.019  21.253   8.737
 2737POPC   C2B37772   0.853  21.237   8.289
 2737POPC   C3B37773   0.782  21.529   7.916
 2737POPC   C4B37774   1.125  21.800   7.744
 2738POPC   NC337775   4.689  30.082   9.832
 2738POPC   PO437776   5.081  29.697   9.319
 2738POPC   GL137777   5.081  29.952   8.988
 2738POPC   GL237778   5.392  30.040   8.907
 2738POPC   C1A37779   4.722  30.004   8.682
 2738POPC   D2A37780   4.480  29.998   8.297
 2738POPC   C3A37781   4.808  30.104   8.014
 2738POPC   C4A37782   5.292  30.160   7.935
 2738POPC   C1B37783   5.189  29.699   8.611
 2738POPC   C2B37784   5.340  29.584   8.265
 2738POPC   C3B37785   5.209  29.637   7.920
 2738POPC   C4B37786   5.416  29.528   7.580
 2739POPC   NC337787  36.707  44.875   9.605
 2739POPC   PO437788  37.339   0.129   9.591
 2739POPC   GL137789  37.166  44.926   9.202
 2739POPC   GL237790  36.828  44.770   9.138
 2739POPC   C1A37791  37.284  44.654   8.848
 2739POPC   D2A37792  37.274  44.775   8.426
 2739POPC   C3A37793  37.150  44.537   8.059
 2739POPC   C4A37794  36.873  44.474   7.693
 2739POPC   C1B37795  36.831  44.874   8.750
 2739POPC   C2B37796  36.770  44.699   8.377
 2739POPC   C3B37797  36.815  44.907   7.982
 2739POPC   C4B37798  36.820   0.177   7.575
 2740POPC   NC337799  37.210   7.309   9.489
 2740POPC   PO437800  37.744   7.604   9.381
 2740POPC   GL137801  37.516   7.386   9.092
 2740POPC   GL237802  37.238   7.623   9.087
 2740POPC   C1A37803  37.502   7.205   8.685
 2740POPC   D2A37804  37.282   7.226   8.266
 2740POPC   C3A37805  37.594   7.178   7.948
 2740POPC   C4A37806  37.936   7.440   7.873
 2740POPC   C1B37807  37.467   7.762   8.767
 2740POPC   C2B37808  37.666   7.647   8.435
 2740POPC   C3B37809  37.500   7.636   8.088
 2740POPC   C4B37810  37.401   7.826   7.787
 2741POPC   NC337811  13.526  34.337   9.817
 2741POPC   PO437812  13.457  34.866   9.819
 2741POPC   GL137813  13.564  34.709   9.332
 2741POPC   GL237814  13.669  34.358   9.183
 2741POPC   C1A37815  13.688  34.738   8.835
 2741POPC   D2A37816  13.867  34.587   8.416
 2741POPC   C3A37817  13.690  34.680   7.997
 2741POPC   C4A37818  13.404  34.453   7.725
 2741POPC   C1B37819  13.793  34.177   8.728
 2741POPC   C2B37820  13.805  34.036   8.244
 2741POPC   C3B37821  13.836  33.964   7.772
 2741POPC   C4B37822  13.830  33.959   7.302
 2742POPC   NC337823  17.029  32.803   9.579
 2742POPC   PO437824  16.433  32.722   9.265
 2742POPC   GL137825  16.564  32.948   8.999
 2742POPC   GL237826  16.894  32.985   9.095
 2742POPC   C1A37827  16.463  33.019   8.604
 2742POPC   D2A37828  16.731  33.114   8.294
 2742POPC   C3A37829  16.528  33.115   7.915
 2742POPC   C4A37830  16.568  32.692   7.794
 2742POPC   C1B37831  16.961  32.770   8.697
 2742POPC   C2B37832  17.190  32.828   8.306
 2742POPC   C3B37833  17.017  32.914   7.901
 2742POPC   C4B37834  17.045  32.648   7.557
 2743POPC   NC337835  38.997  29.080   9.589
 2743POPC   PO437836  39.565  29.464   9.465
 2743POPC   GL137837  39.311  29.186   9.196
 2743POPC   GL237838  38.951  29.251   9.122
 2743POPC   C1A37839  39.127  28.899   8.832
 2743POPC   D2A37840  39.064  29.045   8.406
 2743POPC   C3A37841  39.097  28.766   8.044
 2743POPC   C4A37842  39.176  28.902   7.633
 2743POPC   C1B37843  39.236  29.437   8.769
 2743POPC   C2B37844  39.444  29.406   8.336
 2743POPC   C3B37845  39.178  29.307   7.958
 2743POPC   C4B37846  38.782  29.470   7.805
 2744POPC   NC337847  18.691  17.966   9.410
 2744POPC   PO437848  19.336  17.503   9.370
 2744POPC   GL137849  19.106  17.456   9.021
 2744POPC   GL237850  19.040  17.819   9.056
 2744POPC   C1A37851  19.020  17.294   8.596
 2744POPC   D2A37852  18.773  17.583   8.386
 2744POPC   C3A37853  18.909  17.616   7.999
 2744POPC   C4A37854  18.935  17.376   7.669
 2744POPC   C1B37855  19.219  17.792   8.641
 2744POPC   C2B37856  19.332  17.823   8.221
 2744POPC   C3B37857  19.225  17.996   7.837
 2744POPC   C4B37858  18.953  17.863   7.518
 2745POPC   NC337859  41.195  31.096   9.381
 2745POPC   PO437860  40.666  30.742   9.531
 2745POPC   GL137861  40.815  30.796   9.124
 2745POPC   GL237862  41.152  30.632   9.139
 2745POPC   C1A37863  40.955  30.787   8.684
 2745POPC   D2A37864  41.239  30.719   8.342
 2745POPC   C3A37865  41.056  30.855   7.944
 2745POPC   C4A37866  40.667  30.876   7.736
 2745POPC   C1B37867  40.946  30.322   8.895
 2745POPC   C2B37868  40.957  30.246   8.476
 2745POPC   C3B37869  40.799  30.450   8.139
 2745POPC   C4B37870  40.847  30.395   7.713
 2746POPC   NC337871  34.168   6.775   9.847
 2746POPC   PO437872  34.844   6.596   9.716
 2746POPC   GL137873  34.848   6.785   9.247
 2746POPC   GL237874  35.056   7.070   9.150
 2746POPC   C1A37875  34.796   6.693   8.766
 2746POPC   D2A37876  34.889   6.508   8.330
 2746POPC   C3A37877  34.675   6.669   7.922
 2746POPC   C4A37878  34.235   6.672   7.774
 2746POPC   C1B37879  34.947   7.173   8.733
 2746POPC   C2B37880  34.815   7.024   8.322
 2746POPC   C3B37881  34.922   7.141   7.901
 2746POPC   C4B37882  34.925   6.903   7.509
 2747POPC   NC337883  24.373  26.386   9.499
 2747POPC   PO437884  24.179  27.051   9.609
 2747POPC   GL137885  24.384  26.970   9.225
 2747POPC   GL237886  24.747  26.947   9.236
 2747POPC   C1A37887  24.425  26.686   8.890
 2747POPC   D2A37888  24.540  26.677   8.479
 2747POPC   C3A37889  24.277  26.762   8.150
 2747POPC   C4A37890  24.332  26.516   7.767
 2747POPC   C1B37891  24.921  26.858   8.791
 2747POPC   C2B37892  24.890  26.998   8.344
 2747POPC   C3B37893  24.766  26.768   7.984
 2747POPC   C4B37894  24.697  26.795   7.537
 2748POPC   NC337895  20.928  16.604   9.563
 2748POPC   PO437896  20.287  16.796   9.584
 2748POPC   GL137897  20.366  16.595   9.166
 2748POPC   GL237898  20.136  16.330   9.036
 2748POPC   C1A37899  20.609  16.676   8.775
 2748POPC   D2A37900  20.839  16.816   8.405
 2748POPC   C3A37901  20.644  16.762   7.984
 2748POPC   C4A37902  20.729  17.039   7.627
 2748POPC   C1B37903  20.085  16.589   8.713
 2748POPC   C2B37904  20.265  16.695   8.362
 2748POPC   C3B37905  20.301  16.366   8.109
 2748POPC   C4B37906  20.361  16.424   7.686
 2749POPC   NC337907  21.571  34.287   9.601
 2749POPC   PO437908  21.055  34.695   9.531
 2749POPC   GL137909  21.306  34.470   9.206
 2749POPC   GL237910  21.648  34.615   9.213
 2749POPC   C1A37911  21.443  34.454   8.773
 2749POPC   D2A37912  21.310  34.559   8.352
 2749POPC   C3A37913  21.462  34.268   8.069
 2749POPC   C4A37914  21.189  34.248   7.722
 2749POPC   C1B37915  21.756  35.011   8.980
 2749POPC   C2B37916  21.580  34.925   8.599
 2749POPC   C3B37917  21.601  34.934   8.142
 2749POPC   C4B37918  21.414  34.705   7.809
 2750POPC   NC337919  39.873  11.581   9.286
 2750POPC   PO437920  39.581  12.141   9.440
 2750POPC   GL137921  39.821  12.108   9.089
 2750POPC   GL237922  40.165  12.052   9.092
 2750POPC   C1A37923  39.827  12.148   8.651
 2750POPC   D2A37924  39.805  12.385   8.281
 2750POPC   C3A37925  39.940  12.200   7.920
 2750POPC   C4A37926  40.042  11.779   7.873
 2750POPC   C1B37927  40.303  12.317   8.753
 2750POPC   C2B37928  40.255  12.102   8.350
 2750POPC   C3B37929  40.434  12.102   7.969
 2750POPC   C4B37930  40.361  12.502   7.854
 2751POPC   NC337931  21.247  17.529   9.657
 2751POPC   PO437932  21.003  16.967   9.288
 2751POPC   GL137933  21.285  17.302   9.195
 2751POPC   GL237934  21.216  17.684   9.185
 2751POPC   C1A37935  21.447  17.415   8.803
 2751POPC   D2A37936  21.675  17.304   8.457
 2751POPC   C3A37937  21.543  17.354   8.053
 2751POPC   C4A37938  21.151  17.292   7.848
 2751POPC   C1B37939  21.352  17.928   8.833
 2751POPC   C2B37940  21.454  17.802   8.417
 2751POPC   C3B37941  21.241  17.777   8.044
 2751POPC   C4B37942  21.035  17.797   7.673
 2752POPC   NC337943   7.025  21.363   9.855
 2752POPC   PO437944   7.735  21.390   9.771
 2752POPC   GL137945   7.760  21.229   9.333
 2752POPC   GL237946   7.416  21.188   9.205
 2752POPC   C1A37947   7.776  21.313   8.854
 2752POPC   D2A37948   7.564  21.312   8.427
 2752POPC   C3A37949   7.706  21.450   8.028
 2752POPC   C4A37950   7.524  21.435   7.602
 2752POPC   C1B37951   7.383  20.975   8.790
 2752POPC   C2B37952   7.268  20.898   8.344
 2752POPC   C3B37953   7.277  21.174   7.964
 2752POPC   C4B37954   7.028  21.318   7.574
 2753POPC   NC337955  42.334  36.717   9.521
 2753POPC   PO437956  42.234  37.298   9.412
 2753POPC   GL137957  42.073  37.129   9.066
 2753POPC   GL237958  42.319  36.841   9.029
 2753POPC   C1A37959  42.148  37.082   8.628
 2753POPC   D2A37960  42.228  36.660   8.500
 2753POPC   C3A37961  42.172  36.661   8.087
 2753POPC   C4A37962  42.285  36.914   7.731
 2753POPC   C1B37963  42.673  36.679   8.762
 2753POPC   C2B37964  42.700  36.497   8.313
 2753POPC   C3B37965  42.529  36.376   7.869
 2753POPC   C4B37966  42.485  36.358   7.373
 2754POPC   NC337967  42.357  21.594   9.695
 2754POPC   PO437968  42.348  20.960   9.603
 2754POPC   GL137969  42.439  21.200   9.230
 2754POPC   GL237970  42.692  21.440   9.298
 2754POPC   C1A37971  42.203  21.361   8.861
 2754POPC   D2A37972  42.046  21.216   8.459
 2754POPC   C3A37973  42.314  21.333   8.087
 2754POPC   C4A37974  42.282  21.620   7.732
 2754POPC   C1B37975  42.610  21.685   8.923
 2754POPC   C2B37976  42.534  21.553   8.491
 2754POPC   C3B37977  42.628  21.752   8.091
 2754POPC   C4B37978  42.766  21.836   7.671
 2755POPC   NC337979  38.917  12.617   9.777
 2755POPC   PO437980  39.521  12.854   9.512
 2755POPC   GL137981  39.511  12.934   9.087
 2755POPC   GL237982  39.261  12.658   9.062
 2755POPC   C1A37983  39.342  12.987   8.662
 2755POPC   D2A37984  39.340  12.646   8.368
 2755POPC   C3A37985  39.227  12.760   7.962
 2755POPC   C4A37986  39.385  13.099   7.695
 2755POPC   C1B37987  38.879  12.760   8.811
 2755POPC   C2B37988  38.872  12.932   8.369
 2755POPC   C3B37989  38.871  13.099   7.923
 2755POPC   C4B37990  38.941  12.906   7.494
 2756POPC   NC337991  30.436  41.574   9.449
 2756POPC   PO437992  31.035  41.238   9.408
 2756POPC   GL137993  30.768  41.450   9.096
 2756POPC   GL237994  30.525  41.769   8.982
 2756POPC   C1A37995  30.830  41.488   8.695
 2756POPC   D2A37996  30.666  41.401   8.329
 2756POPC   C3A37997  30.860  41.537   8.005
 2756POPC   C4A37998  30.704  41.396   7.681
 2756POPC   C1B37999  30.443  41.819   8.518
 2756POPC   C2B38000  30.370  41.823   8.041
 2756POPC   C3B38001  30.497  41.851   7.579
 2756POPC   C4B38002  30.290  41.748   7.181
 2757POPC   NC338003  14.906  30.639   9.390
 2757POPC   PO438004  15.553  30.580   9.700
 2757POPC   GL138005  15.409  30.580   9.281
 2757POPC   GL238006  15.595  30.843   9.165
 2757POPC   C1A38007  15.218  30.710   8.836
 2757POPC   D2A38008  14.912  30.522   8.525
 2757POPC   C3A38009  15.012  30.568   8.082
 2757POPC   C4A38010  14.966  30.862   7.750
 2757POPC   C1B38011  15.688  30.491   8.881
 2757POPC   C2B38012  15.399  30.315   8.565
 2757POPC   C3B38013  15.458  30.332   8.123
 2757POPC   C4B38014  15.510  30.521   7.755
 2758POPC   NC338015   1.891  15.729   9.500
 2758POPC   PO438016   2.092  16.357   9.499
 2758POPC   GL138017   2.014  16.123   9.158
 2758POPC   GL238018   2.253  15.888   9.165
 2758POPC   C1A38019   1.827  15.945   8.813
 2758POPC   D2A38020   2.021  15.994   8.415
 2758POPC   C3A38021   1.782  16.062   8.048
 2758POPC   C4A38022   1.681  15.916   7.629
 2758POPC   C1B38023   2.370  16.117   8.788
 2758POPC   C2B38024   2.522  16.112   8.371
 2758POPC   C3B38025   2.313  16.022   7.985
 2758POPC   C4B38026   2.102  16.320   7.734
 2759POPC   NC338027  19.987   1.930   9.604
 2759POPC   PO438028  19.490   2.189   9.256
 2759POPC   GL138029  19.908   2.111   9.128
 2759POPC   GL238030  19.970   1.797   9.096
 2759POPC   C1A38031  20.079   2.188   8.739
 2759POPC   D2A38032  20.101   2.275   8.315
 2759POPC   C3A38033  19.750   2.170   8.096
 2759POPC   C4A38034  19.853   2.117   7.673
 2759POPC   C1B38035  19.857   1.583   8.751
 2759POPC   C2B38036  19.905   1.782   8.402
 2759POPC   C3B38037  19.952   1.710   8.008
 2759POPC   C4B38038  19.668   1.572   7.761
 2760POPC   NC338039  41.952  43.844   9.481
 2760POPC   PO438040  41.519  44.356   9.408
 2760POPC   GL138041  41.523  44.022   9.101
 2760POPC   GL238042  41.667  43.682   9.085
 2760POPC   C1A38043  41.664  43.947   8.654
 2760POPC   D2A38044  41.799  44.039   8.236
 2760POPC   C3A38045  41.446  44.054   7.989
 2760POPC   C4A38046  41.280  43.984   7.596
 2760POPC   C1B38047  41.886  43.490   8.752
 2760POPC   C2B38048  41.822  43.536   8.317
 2760POPC   C3B38049  41.727  43.583   7.863
 2760POPC   C4B38050  41.948  43.485   7.452
 2761POPC   NC338051   7.093  44.670   9.672
 2761POPC   PO438052   6.489  44.322   9.490
 2761POPC   GL138053   6.664  44.555   9.150
 2761POPC   GL238054   6.913  44.300   9.112
 2761POPC   C1A38055   6.464  44.710   8.732
 2761POPC   D2A38056   6.318   0.051   8.406
 2761POPC   C3A38057   6.368  44.953   7.953
 2761POPC   C4A38058   6.460  44.523   7.818
 2761POPC   C1B38059   6.932  44.493   8.709
 2761POPC   C2B38060   6.745  44.562   8.287
 2761POPC   C3B38061   6.982  44.561   7.881
 2761POPC   C4B38062   6.894  44.417   7.443
 2762POPC   NC338063   3.431  27.428   9.389
 2762POPC   PO438064   3.149  28.006   9.158
 2762POPC   GL138065   3.573  27.863   9.015
 2762POPC   GL238066   3.698  27.513   8.980
 2762POPC   C1A38067   3.661  27.791   8.569
 2762POPC   D2A38068   3.333  27.645   8.280
 2762POPC   C3A38069   3.424  27.826   7.932
 2762POPC   C4A38070   3.845  27.824   7.857
 2762POPC   C1B38071   3.362  27.375   8.715
 2762POPC   C2B38072   3.472  27.161   8.329
 2762POPC   C3B38073   3.598  27.333   7.931
 2762POPC   C4B38074   3.326  27.426   7.591
 2763POPC   NC338075  23.539   2.662   9.453
 2763POPC   PO438076  24.205   2.951   9.437
 2763POPC   GL138077  23.901   2.766   9.130
 2763POPC   GL238078  23.890   2.413   9.159
 2763POPC   C1A38079  23.557   2.628   8.802
 2763POPC   D2A38080  23.531   2.850   8.413
 2763POPC   C3A38081  23.667   2.700   8.027
 2763POPC   C4A38082  23.471   2.609   7.641
 2763POPC   C1B38083  23.934   2.277   8.771
 2763POPC   C2B38084  23.820   2.363   8.379
 2763POPC   C3B38085  24.083   2.415   8.004
 2763POPC   C4B38086  23.962   2.504   7.587
 2764POPC   NC338087  15.614  34.756   9.726
 2764POPC   PO438088  16.067  34.956   9.373
 2764POPC   GL138089  16.226  34.995   8.979
 2764POPC   GL238090  15.880  35.073   8.867
 2764POPC   C1A38091  16.253  35.244   8.566
 2764POPC   D2A38092  15.878  35.245   8.279
 2764POPC   C3A38093  15.953  35.436   7.864
 2764POPC   C4A38094  15.882  35.654   7.466
 2764POPC   C1B38095  16.049  34.787   8.560
 2764POPC   C2B38096  16.157  34.859   8.115
 2764POPC   C3B38097  15.851  34.951   7.772
 2764POPC   C4B38098  15.808  35.135   7.339
 2765POPC   NC338099  19.655  14.785   9.641
 2765POPC   PO438100  20.030  15.289   9.478
 2765POPC   GL138101  19.818  15.260   9.145
 2765POPC   GL238102  19.744  14.944   9.170
 2765POPC   C1A38103  19.950  15.236   8.747
 2765POPC   D2A38104  20.006  15.373   8.345
 2765POPC   C3A38105  20.097  15.050   8.079
 2765POPC   C4A38106  19.951  15.128   7.704
 2765POPC   C1B38107  19.522  14.936   8.807
 2765POPC   C2B38108  19.691  14.962   8.404
 2765POPC   C3B38109  19.504  15.017   8.034
 2765POPC   C4B38110  19.521  14.838   7.673
 2766POPC   NC338111  10.487  18.462   9.484
 2766POPC   PO438112  10.510  17.865   9.198
 2766POPC   GL138113  10.656  18.250   8.984
 2766POPC   GL238114  10.534  18.586   9.015
 2766POPC   C1A38115  10.598  18.406   8.541
 2766POPC   D2A38116  10.746  18.507   8.142
 2766POPC   C3A38117  10.720  18.113   7.950
 2766POPC   C4A38118  10.652  17.954   7.543
 2766POPC   C1B38119  10.183  18.563   8.771
 2766POPC   C2B38120  10.038  18.232   8.528
 2766POPC   C3B38121  10.261  18.207   8.169
 2766POPC   C4B38122  10.250  18.210   7.739
 2767POPC   NC338123  27.691   4.953   9.626
 2767POPC   PO438124  27.639   5.608   9.733
 2767POPC   GL138125  27.645   5.342   9.294
 2767POPC   GL238126  27.454   4.969   9.187
 2767POPC   C1A38127  27.534   5.316   8.835
 2767POPC   D2A38128  27.464   5.015   8.485
 2767POPC   C3A38129  27.441   5.201   8.054
 2767POPC   C4A38130  27.653   5.458   7.738
 2767POPC   C1B38131  27.685   4.702   8.877
 2767POPC   C2B38132  27.699   4.563   8.421
 2767POPC   C3B38133  27.660   4.741   8.000
 2767POPC   C4B38134  27.471   4.939   7.597
 2768POPC   NC338135  27.310  29.544   9.519
 2768POPC   PO438136  27.717  30.082   9.558
 2768POPC   GL138137  27.389  30.004   9.222
 2768POPC   GL238138  27.424  29.681   9.030
 2768POPC   C1A38139  27.364  30.183   8.807
 2768POPC   D2A38140  27.443  29.978   8.427
 2768POPC   C3A38141  27.441  30.194   8.061
 2768POPC   C4A38142  27.296  30.063   7.671
 2768POPC   C1B38143  27.799  29.861   8.880
 2768POPC   C2B38144  27.983  29.949   8.499
 2768POPC   C3B38145  27.844  29.782   8.128
 2768POPC   C4B38146  27.807  30.013   7.747
 2769POPC   NC338147  43.035  27.174   9.477
 2769POPC   PO438148  43.427  27.720   9.457
 2769POPC   GL138149  43.123  27.624   9.170
 2769POPC   GL238150  42.816  27.815   9.099
 2769POPC   C1A38151  43.241  27.754   8.768
 2769POPC   D2A38152  43.057  27.772   8.364
 2769POPC   C3A38153  43.338  27.763   8.048
 2769POPC   C4A38154  43.447  27.538   7.727
 2769POPC   C1B38155  42.775  27.540   8.735
 2769POPC   C2B38156  42.747  27.330   8.328
 2769POPC   C3B38157  42.932  27.425   7.918
 2769POPC   C4B38158  42.988  27.546   7.484
 2770POPC   NC338159  42.950  28.017   9.534
 2770POPC   PO438160  43.406  28.519   9.558
 2770POPC   GL138161  43.111  28.603   9.201
 2770POPC   GL238162  42.856  28.342   9.140
 2770POPC   C1A38163  43.177  28.566   8.757
 2770POPC   D2A38164  43.309  28.380   8.377
 2770POPC   C3A38165  43.239  28.614   8.017
 2770POPC   C4A38166  43.232  28.436   7.614
 2770POPC   C1B38167  42.888  28.138   8.737
 2770POPC   C2B38168  42.808  28.255   8.353
 2770POPC   C3B38169  42.982  28.146   7.977
 2770POPC   C4B38170  42.841  28.092   7.577
 2771POPC   NC338171   6.902  10.485   9.474
 2771POPC   PO438172   6.228  10.505   9.459
 2771POPC   GL138173   6.548  10.514   9.119
 2771POPC   GL238174   6.732  10.867   9.188
 2771POPC   C1A38175   6.781  10.675   8.731
 2771POPC   D2A38176   7.005  10.829   8.373
 2771POPC   C3A38177   6.742  10.787   8.048
 2771POPC   C4A38178   6.621  10.529   7.722
 2771POPC   C1B38179   6.346  10.903   8.908
 2771POPC   C2B38180   6.284  10.630   8.547
 2771POPC   C3B38181   6.232  10.731   8.127
 2771POPC   C4B38182   6.190  10.802   7.705
 2772POPC   NC338183  40.273   9.870   9.302
 2772POPC   PO438184  39.733  10.196   9.368
 2772POPC   GL138185  39.799   9.907   9.048
 2772POPC   GL238186  39.720   9.614   9.231
 2772POPC   C1A38187  39.904   9.855   8.571
 2772POPC   D2A38188  39.619   9.632   8.255
 2772POPC   C3A38189  39.676   9.698   7.793
 2772POPC   C4A38190  39.673   9.647   7.316
 2772POPC   C1B38191  39.632   9.485   8.793
 2772POPC   C2B38192  39.960   9.342   8.485
 2772POPC   C3B38193  39.940   9.288   8.027
 2772POPC   C4B38194  39.795   9.189   7.612
 2773POPC   NC338195  31.136   8.104   9.488
 2773POPC   PO438196  31.766   7.896   9.352
 2773POPC   GL138197  31.566   8.280   9.219
 2773POPC   GL238198  31.791   8.423   9.017
 2773POPC   C1A38199  31.318   8.427   8.841
 2773POPC   D2A38200  31.283   8.189   8.432
 2773POPC   C3A38201  31.365   8.384   8.022
 2773POPC   C4A38202  31.760   8.447   7.839
 2773POPC   C1B38203  31.733   8.165   8.679
 2773POPC   C2B38204  31.793   8.146   8.253
 2773POPC   C3B38205  31.622   7.941   7.891
 2773POPC   C4B38206  31.644   7.755   7.471
 2774POPC   NC338207   1.175  37.974   9.799
 2774POPC   PO438208   0.989  37.810   9.214
 2774POPC   GL138209   1.234  37.683   8.926
 2774POPC   GL238210   1.547  37.716   9.031
 2774POPC   C1A38211   1.136  37.685   8.557
 2774POPC   D2A38212   0.908  37.422   8.372
 2774POPC   C3A38213   0.958  37.569   7.990
 2774POPC   C4A38214   0.930  37.921   7.758
 2774POPC   C1B38215   1.649  37.607   8.613
 2774POPC   C2B38216   1.466  37.474   8.208
 2774POPC   C3B38217   1.390  37.431   7.776
 2774POPC   C4B38218   1.374  37.719   7.451
 2775POPC   NC338219  12.150  14.769   9.631
 2775POPC   PO438220  11.948  15.381   9.399
 2775POPC   GL138221  12.214  15.133   9.175
 2775POPC   GL238222  11.952  15.148   8.920
 2775POPC   C1A38223  12.429  14.987   8.801
 2775POPC   D2A38224  12.572  15.177   8.387
 2775POPC   C3A38225  12.262  15.048   8.055
 2775POPC   C4A38226  11.885  14.986   7.748
 2775POPC   C1B38227  11.628  15.422   8.714
 2775POPC   C2B38228  11.455  15.411   8.275
 2775POPC   C3B38229  11.670  15.522   7.872
 2775POPC   C4B38230  11.626  15.452   7.407
 2776POPC   NC338231  16.882   9.388   9.533
 2776POPC   PO438232  16.722   8.730   9.472
 2776POPC   GL138233  16.663   8.975   9.116
 2776POPC   GL238234  16.960   9.092   9.031
 2776POPC   C1A38235  16.675   8.850   8.681
 2776POPC   D2A38236  16.878   8.880   8.294
 2776POPC   C3A38237  16.609   8.967   7.940
 2776POPC   C4A38238  16.318   8.630   7.881
 2776POPC   C1B38239  17.084   9.443   8.765
 2776POPC   C2B38240  16.997   9.624   8.346
 2776POPC   C3B38241  16.949   9.434   7.896
 2776POPC   C4B38242  17.052   9.361   7.410
 2777POPC   NC338243  24.271   3.407   9.572
 2777POPC   PO438244  23.730   3.830   9.458
 2777POPC   GL138245  23.978   3.625   9.217
 2777POPC   GL238246  23.881   3.288   9.141
 2777POPC   C1A38247  24.090   3.682   8.836
 2777POPC   D2A38248  24.148   3.628   8.417
 2777POPC   C3A38249  23.855   3.710   8.107
 2777POPC   C4A38250  23.831   3.415   7.777
 2777POPC   C1B38251  23.755   3.288   8.672
 2777POPC   C2B38252  23.558   3.319   8.228
 2777POPC   C3B38253  23.460   3.101   7.818
 2777POPC   C4B38254  23.255   2.979   7.389
 2778POPC   NC338255  33.906  38.802   9.746
 2778POPC   PO438256  33.452  38.575   9.354
 2778POPC   GL138257  33.839  38.606   9.115
 2778POPC   GL238258  34.048  38.328   8.955
 2778POPC   C1A38259  33.796  38.654   8.665
 2778POPC   D2A38260  33.995  38.375   8.386
 2778POPC   C3A38261  34.020  38.650   8.048
 2778POPC   C4A38262  33.651  38.727   7.756
 2778POPC   C1B38263  33.660  38.142   8.831
 2778POPC   C2B38264  33.434  38.300   8.486
 2778POPC   C3B38265  33.556  38.266   8.064
 2778POPC   C4B38266  33.942  38.187   7.865
 2779POPC   NC338267  14.792  16.604   5.586
 2779POPC   PO438268  15.307  16.830   5.148
 2779POPC   GL138269  15.330  16.760   5.607
 2779POPC   GL238270  15.639  16.614   5.750
 2779POPC   C1A38271  15.220  16.691   6.071
 2779POPC   D2A38272  15.326  16.658   6.523
 2779POPC   C3A38273  15.042  16.711   6.930
 2779POPC   C4A38274  14.985  16.398   7.274
 2779POPC   C1B38275  15.716  16.787   6.182
 2779POPC   C2B38276  15.816  16.932   6.589
 2779POPC   C3B38277  15.565  16.851   6.933
 2779POPC   C4B38278  15.396  16.727   7.335
 2780POPC   NC338279  39.837  25.060   5.484
 2780POPC   PO438280  40.364  25.581   5.347
 2780POPC   GL138281  40.147  25.417   5.702
 2780POPC   GL238282  40.173  25.077   5.865
 2780POPC   C1A38283  40.105  25.503   6.135
 2780POPC   D2A38284  39.919  25.547   6.520
 2780POPC   C3A38285  39.822  25.304   6.856
 2780POPC   C4A38286  40.132  25.138   7.134
 2780POPC   C1B38287  39.898  25.025   6.250
 2780POPC   C2B38288  39.622  24.898   6.623
 2780POPC   C3B38289  39.665  24.878   7.095
 2780POPC   C4B38290  39.947  24.794   7.446
 2781POPC   NC338291  12.334  41.787   5.238
 2781POPC   PO438292  11.906  41.315   5.513
 2781POPC   GL138293  12.063  41.522   5.865
 2781POPC   GL238294  12.285  41.813   5.812
 2781POPC   C1A38295  12.112  41.583   6.299
 2781POPC   D2A38296  11.927  41.782   6.661
 2781POPC   C3A38297  12.077  41.591   7.054
 2781POPC   C4A38298  12.169  41.382   7.473
 2781POPC   C1B38299  12.565  41.782   6.219
 2781POPC   C2B38300  12.494  41.664   6.687
 2781POPC   C3B38301  12.513  41.874   7.112
 2781POPC   C4B38302  12.224  41.905   7.476
 2782POPC   NC338303  24.344  42.644   5.425
 2782POPC   PO438304  24.430  41.946   5.420
 2782POPC   GL138305  24.352  42.272   5.765
 2782POPC   GL238306  24.697  42.437   5.793
 2782POPC   C1A38307  24.310  42.512   6.187
 2782POPC   D2A38308  24.109  42.548   6.610
 2782POPC   C3A38309  24.253  42.340   7.017
 2782POPC   C4A38310  24.674  42.140   7.099
 2782POPC   C1B38311  24.628  42.095   6.149
 2782POPC   C2B38312  24.475  42.166   6.574
 2782POPC   C3B38313  24.617  42.583   6.758
 2782POPC   C4B38314  24.530  42.812   7.136
 2783POPC   NC338315  33.290  10.159   5.364
 2783POPC   PO438316  32.790  10.672   5.303
 2783POPC   GL138317  32.813  10.406   5.647
 2783POPC   GL238318  32.527  10.449   5.849
 2783POPC   C1A38319  33.016  10.331   6.025
 2783POPC   D2A38320  32.980  10.253   6.465
 2783POPC   C3A38321  33.260  10.509   6.735
 2783POPC   C4A38322  33.195  10.685   7.126
 2783POPC   C1B38323  32.650  10.640   6.229
 2783POPC   C2B38324  32.790  10.702   6.642
 2783POPC   C3B38325  32.721  10.497   7.018
 2783POPC   C4B38326  32.520  10.802   7.235
 2784POPC   NC338327  10.247  12.336   5.299
 2784POPC   PO438328  10.335  11.717   5.433
 2784POPC   GL138329  10.613  11.784   5.801
 2784POPC   GL238330  10.633  12.164   5.859
 2784POPC   C1A38331  10.629  11.895   6.272
 2784POPC   D2A38332  10.785  12.032   6.683
 2784POPC   C3A38333  10.500  11.900   7.010
 2784POPC   C4A38334  10.362  11.811   7.445
 2784POPC   C1B38335  10.277  12.266   6.222
 2784POPC   C2B38336  10.305  12.288   6.710
 2784POPC   C3B38337  10.562  12.399   7.085
 2784POPC   C4B38338  11.027  12.448   7.202
 2785POPC   NC338339  34.310  13.734   5.128
 2785POPC   PO438340  34.882  13.455   5.469
 2785POPC   GL138341  34.662  13.686   5.793
 2785POPC   GL238342  34.329  13.657   5.633
 2785POPC   C1A38343  34.702  13.602   6.246
 2785POPC   D2A38344  34.649  13.363   6.660
 2785POPC   C3A38345  34.833  13.637   7.005
 2785POPC   C4A38346  35.010  14.070   7.038
 2785POPC   C1B38347  34.204  13.648   6.057
 2785POPC   C2B38348  34.307  13.848   6.468
 2785POPC   C3B38349  34.321  13.692   6.891
 2785POPC   C4B38350  34.427  13.940   7.258
 2786POPC   NC338351  34.344   9.704   5.310
 2786POPC   PO438352  34.947   9.512   5.454
 2786POPC   GL138353  34.651   9.768   5.738
 2786POPC   GL238354  34.303   9.977   5.754
 2786POPC   C1A38355  34.732   9.905   6.139
 2786POPC   D2A38356  34.701  10.010   6.570
 2786POPC   C3A38357  34.737   9.628   6.826
 2786POPC   C4A38358  34.661   9.620   7.230
 2786POPC   C1B38359  34.256   9.733   6.119
 2786POPC   C2B38360  34.349   9.622   6.514
 2786POPC   C3B38361  34.221   9.472   6.922
 2786POPC   C4B38362  34.167   9.594   7.338
 2787POPC   NC338363  30.431   6.577   5.218
 2787POPC   PO438364  31.068   6.885   5.363
 2787POPC   GL138365  30.740   6.704   5.646
 2787POPC   GL238366  30.514   6.392   5.716
 2787POPC   C1A38367  30.879   6.567   6.064
 2787POPC   D2A38368  30.909   6.552   6.527
 2787POPC   C3A38369  30.813   6.840   6.861
 2787POPC   C4A38370  30.750   6.833   7.302
 2787POPC   C1B38371  30.394   6.433   6.182
 2787POPC   C2B38372  30.384   6.602   6.624
 2787POPC   C3B38373  30.434   6.501   7.062
 2787POPC   C4B38374  30.713   6.163   7.199
 2788POPC   NC338375  44.325  37.704   5.375
 2788POPC   PO438376  43.721  37.976   5.206
 2788POPC   GL138377  43.788  37.657   5.566
 2788POPC   GL238378  44.084  37.700   5.811
 2788POPC   C1A38379  43.615  37.636   6.008
 2788POPC   D2A38380  43.698  37.910   6.397
 2788POPC   C3A38381  43.538  37.849   6.843
 2788POPC   C4A38382  43.719  37.967   7.248
 2788POPC   C1B38383  44.084  37.591   6.247
 2788POPC   C2B38384  43.921  37.528   6.686
 2788POPC   C3B38385  43.876  37.469   7.164
 2788POPC   C4B38386  44.127  37.349   7.538
 2789POPC   NC338387   8.327   7.515   5.376
 2789POPC   PO438388   8.515   6.867   5.318
 2789POPC   GL138389   8.189   7.114   5.668
 2789POPC   GL238390   8.208   7.470   5.869
 2789POPC   C1A38391   8.086   7.073   6.144
 2789POPC   D2A38392   8.201   7.333   6.500
 2789POPC   C3A38393   8.072   7.276   6.954
 2789POPC   C4A38394   8.308   7.367   7.341
 2789POPC   C1B38395   7.962   7.690   6.226
 2789POPC   C2B38396   7.963   7.726   6.720
 2789POPC   C3B38397   7.985   7.743   7.191
 2789POPC   C4B38398   8.005   7.699   7.664
 2790POPC   NC338399  10.728  25.668   5.678
 2790POPC   PO438400  10.658  25.080   5.295
 2790POPC   GL138401  10.711  24.985   5.763
 2790POPC   GL238402  10.552  25.274   5.943
 2790POPC   C1A38403  10.543  24.848   6.212
 2790POPC   D2A38404  10.336  25.073   6.593
 2790POPC   C3A38405  10.452  24.964   7.018
 2790POPC   C4A38406  10.321  24.783   7.397
 2790POPC   C1B38407  10.752  25.306   6.364
 2790POPC   C2B38408  10.828  25.266   6.823
 2790POPC   C3B38409  10.633  25.399   7.212
 2790POPC   C4B38410  10.589  25.664   7.556
 2791POPC   NC338411  43.431   3.290   5.494
 2791POPC   PO438412  43.036   3.811   5.177
 2791POPC   GL138413  43.041   3.621   5.611
 2791POPC   GL238414  42.809   3.348   5.679
 2791POPC   C1A38415  43.090   3.571   6.072
 2791POPC   D2A38416  43.073   3.345   6.480
 2791POPC   C3A38417  43.133   3.607   6.884
 2791POPC   C4A38418  42.970   3.575   7.349
 2791POPC   C1B38419  42.615   3.378   6.128
 2791POPC   C2B38420  42.625   3.573   6.541
 2791POPC   C3B38421  42.662   3.416   6.961
 2791POPC   C4B38422  42.562   3.245   7.373
 2792POPC   NC338423  25.267  42.577   5.444
 2792POPC   PO438424  25.405  42.004   5.200
 2792POPC   GL138425  25.483  42.164   5.646
 2792POPC   GL238426  25.146  42.106   5.742
 2792POPC   C1A38427  25.586  42.413   6.036
 2792POPC   D2A38428  25.487  42.348   6.490
 2792POPC   C3A38429  25.522  42.668   6.818
 2792POPC   C4A38430  25.477  42.545   7.263
 2792POPC   C1B38431  25.087  42.324   6.127
 2792POPC   C2B38432  24.975  42.250   6.543
 2792POPC   C3B38433  25.101  42.400   6.930
 2792POPC   C4B38434  24.941  42.549   7.297
 2793POPC   NC338435  25.518   4.561   5.423
 2793POPC   PO438436  25.151   4.064   5.163
 2793POPC   GL138437  25.086   4.140   5.621
 2793POPC   GL238438  24.863   3.875   5.715
 2793POPC   C1A38439  25.189   4.300   6.092
 2793POPC   D2A38440  25.379   4.171   6.533
 2793POPC   C3A38441  25.242   4.335   6.958
 2793POPC   C4A38442  25.503   4.589   7.231
 2793POPC   C1B38443  24.787   3.995   6.154
 2793POPC   C2B38444  24.882   4.160   6.566
 2793POPC   C3B38445  24.872   4.003   6.977
 2793POPC   C4B38446  24.973   4.159   7.405
 2794POPC   NC338447  26.341  15.170   5.274
 2794POPC   PO438448  26.911  15.515   5.473
 2794POPC   GL138449  26.717  15.372   5.853
 2794POPC   GL238450  26.632  15.059   5.669
 2794POPC   C1A38451  26.900  15.279   6.293
 2794POPC   D2A38452  26.902  15.186   6.746
 2794POPC   C3A38453  27.106  15.322   7.105
 2794POPC   C4A38454  27.071  15.392   7.558
 2794POPC   C1B38455  26.523  14.943   6.089
 2794POPC   C2B38456  26.612  14.844   6.506
 2794POPC   C3B38457  26.483  14.954   6.895
 2794POPC   C4B38458  26.761  14.950   7.248
 2795POPC   NC338459  30.902  39.677   5.724
 2795POPC   PO438460  30.451  40.106   5.359
 2795POPC   GL138461  30.463  39.935   5.763
 2795POPC   GL238462  30.754  40.159   5.781
 2795POPC   C1A38463  30.501  39.786   6.222
 2795POPC   D2A38464  30.506  39.589   6.633
 2795POPC   C3A38465  30.665  39.836   6.985
 2795POPC   C4A38466  30.536  39.751   7.413
 2795POPC   C1B38467  30.563  40.305   6.143
 2795POPC   C2B38468  30.668  40.215   6.554
 2795POPC   C3B38469  30.571  40.409   6.924
 2795POPC   C4B38470  30.443  40.223   7.269
 2796POPC   NC338471  11.706  29.265   5.414
 2796POPC   PO438472  11.065  29.038   5.450
 2796POPC   GL138473  11.287  29.164   5.868
 2796POPC   GL238474  11.627  29.080   5.879
 2796POPC   C1A38475  11.471  29.272   6.314
 2796POPC   D2A38476  11.507  29.199   6.752
 2796POPC   C3A38477  11.189  29.328   7.066
 2796POPC   C4A38478  11.006  28.988   7.301
 2796POPC   C1B38479  11.491  28.786   6.187
 2796POPC   C2B38480  11.503  28.610   6.582
 2796POPC   C3B38481  11.275  28.755   6.911
 2796POPC   C4B38482  11.512  28.965   7.217
 2797POPC   NC338483  17.459  30.163   5.188
 2797POPC   PO438484  17.936  30.050   5.599
 2797POPC   GL138485  17.521  29.878   5.694
 2797POPC   GL238486  17.326  30.189   5.701
 2797POPC   C1A38487  17.449  29.667   6.101
 2797POPC   D2A38488  17.745  29.605   6.464
 2797POPC   C3A38489  17.817  29.873   6.826
 2797POPC   C4A38490  17.480  29.870   7.096
 2797POPC   C1B38491  17.427  30.380   6.102
 2797POPC   C2B38492  17.285  30.450   6.534
 2797POPC   C3B38493  17.535  30.359   6.901
 2797POPC   C4B38494  17.399  30.336   7.301
 2798POPC   NC338495  10.463  27.389   5.469
 2798POPC   PO438496  10.561  28.020   5.435
 2798POPC   GL138497  10.416  27.828   5.844
 2798POPC   GL238498  10.539  27.477   5.952
 2798POPC   C1A38499  10.433  27.851   6.302
 2798POPC   D2A38500  10.565  27.554   6.617
 2798POPC   C3A38501  10.283  27.519   6.973
 2798POPC   C4A38502  10.135  27.844   7.248
 2798POPC   C1B38503  10.886  27.710   6.107
 2798POPC   C2B38504  10.918  27.940   6.508
 2798POPC   C3B38505  10.954  27.798   6.923
 2798POPC   C4B38506  10.673  27.725   7.215
 2799POPC   NC338507  34.993   7.424   5.556
 2799POPC   PO438508  34.355   7.362   5.409
 2799POPC   GL138509  34.566   7.243   5.774
 2799POPC   GL238510  34.578   7.575   5.849
 2799POPC   C1A38511  34.768   7.270   6.209
 2799POPC   D2A38512  34.808   7.515   6.615
 2799POPC   C3A38513  34.779   7.279   7.020
 2799POPC   C4A38514  34.803   7.388   7.464
 2799POPC   C1B38515  34.465   7.731   6.258
 2799POPC   C2B38516  34.234   7.756   6.660
 2799POPC   C3B38517  34.193   7.951   7.057
 2799POPC   C4B38518  34.231   7.981   7.510
 2800POPC   NC338519   8.596  16.938   5.465
 2800POPC   PO438520   7.966  16.563   5.398
 2800POPC   GL138521   8.159  16.791   5.715
 2800POPC   GL238522   8.466  16.585   5.832
 2800POPC   C1A38523   8.110  16.792   6.158
 2800POPC   D2A38524   8.252  16.540   6.508
 2800POPC   C3A38525   8.287  16.752   6.900
 2800POPC   C4A38526   8.035  16.844   7.231
 2800POPC   C1B38527   8.638  16.311   6.167
 2800POPC   C2B38528   8.536  16.088   6.551
 2800POPC   C3B38529   8.496  16.292   6.917
 2800POPC   C4B38530   8.625  16.559   7.249
 2801POPC   NC338531  34.898  20.702   5.386
 2801POPC   PO438532  34.282  20.436   5.254
 2801POPC   GL138533  34.474  20.471   5.658
 2801POPC   GL238534  34.760  20.263   5.651
 2801POPC   C1A38535  34.526  20.649   6.092
 2801POPC   D2A38536  34.383  20.940   6.433
 2801POPC   C3A38537  34.430  20.765   6.851
 2801POPC   C4A38538  34.366  20.455   7.171
 2801POPC   C1B38539  34.919  20.323   6.062
 2801POPC   C2B38540  34.893  20.503   6.482
 2801POPC   C3B38541  34.920  20.537   6.948
 2801POPC   C4B38542  34.820  20.349   7.333
 2802POPC   NC338543  18.025  34.080   5.557
 2802POPC   PO438544  18.545  33.756   5.422
 2802POPC   GL138545  18.464  33.764   5.887
 2802POPC   GL238546  18.104  33.768   5.955
 2802POPC   C1A38547  18.428  33.729   6.357
 2802POPC   D2A38548  18.426  34.036   6.712
 2802POPC   C3A38549  18.355  33.820   7.071
 2802POPC   C4A38550  18.520  33.479   7.281
 2802POPC   C1B38551  18.096  34.102   6.261
 2802POPC   C2B38552  17.948  34.181   6.657
 2802POPC   C3B38553  17.891  34.025   7.059
 2802POPC   C4B38554  17.950  33.957   7.510
 2803POPC   NC338555  29.934  30.279   5.596
 2803POPC   PO438556  30.056  30.901   5.479
 2803POPC   GL138557  29.924  30.711   5.885
 2803POPC   GL238558  29.633  30.466   5.968
 2803POPC   C1A38559  29.923  30.632   6.339
 2803POPC   D2A38560  29.882  30.456   6.701
 2803POPC   C3A38561  29.977  30.701   7.030
 2803POPC   C4A38562  30.364  30.752   7.168
 2803POPC   C1B38563  29.513  30.866   6.178
 2803POPC   C2B38564  29.508  30.944   6.591
 2803POPC   C3B38565  29.486  30.705   6.948
 2803POPC   C4B38566  29.606  30.693   7.401
 2804POPC   NC338567   9.330  18.987   5.406
 2804POPC   PO438568   8.748  19.221   5.312
 2804POPC   GL138569   8.869  18.994   5.720
 2804POPC   GL238570   9.064  18.696   5.843
 2804POPC   C1A38571   8.815  19.027   6.181
 2804POPC   D2A38572   8.595  19.107   6.567
 2804POPC   C3A38573   8.768  19.147   7.014
 2804POPC   C4A38574   8.874  19.419   7.362
 2804POPC   C1B38575   9.178  18.702   6.314
 2804POPC   C2B38576   9.168  18.486   6.727
 2804POPC   C3B38577   9.324  18.595   7.135
 2804POPC   C4B38578   9.226  19.008   7.242
 2805POPC   NC338579  24.749  41.679   5.612
 2805POPC   PO438580  24.255  41.193   5.586
 2805POPC   GL138581  24.477  41.391   5.933
 2805POPC   GL238582  24.843  41.290   5.935
 2805POPC   C1A38583  24.521  41.593   6.336
 2805POPC   D2A38584  24.399  41.384   6.711
 2805POPC   C3A38585  24.483  41.605   7.105
 2805POPC   C4A38586  24.517  41.427   7.514
 2805POPC   C1B38587  25.003  41.406   6.332
 2805POPC   C2B38588  24.877  41.535   6.744
 2805POPC   C3B38589  24.992  41.423   7.157
 2805POPC   C4B38590  24.904  41.749   7.416
 2806POPC   NC338591  38.977  32.588   5.346
 2806POPC   PO438592  39.383  32.047   5.515
 2806POPC   GL138593  39.233  32.366   5.777
 2806POPC   GL238594  38.903  32.377   5.846
 2806POPC   C1A38595  39.352  32.434   6.206
 2806POPC   D2A38596  39.184  32.298   6.610
 2806POPC   C3A38597  39.451  32.334   6.992
 2806POPC   C4A38598  39.344  32.226   7.392
 2806POPC   C1B38599  39.007  31.997   6.126
 2806POPC   C2B38600  38.928  31.804   6.561
 2806POPC   C3B38601  39.116  31.911   6.974
 2806POPC   C4B38602  39.520  31.822   7.108
 2807POPC   NC338603   6.040   8.840   5.455
 2807POPC   PO438604   5.337   8.697   5.274
 2807POPC   GL138605   5.564   8.874   5.706
 2807POPC   GL238606   5.793   9.158   5.768
 2807POPC   C1A38607   5.822   8.817   6.138
 2807POPC   D2A38608   6.036   8.732   6.553
 2807POPC   C3A38609   5.799   8.814   6.954
 2807POPC   C4A38610   5.847   9.049   7.334
 2807POPC   C1B38611   5.508   9.226   6.128
 2807POPC   C2B38612   5.612   9.088   6.561
 2807POPC   C3B38613   5.549   9.327   6.979
 2807POPC   C4B38614   5.570   9.483   7.413
 2808POPC   NC338615  34.822  17.043   5.322
 2808POPC   PO438616  34.440  17.576   5.177
 2808POPC   GL138617  34.508  17.642   5.639
 2808POPC   GL238618  34.848  17.762   5.641
 2808POPC   C1A38619  34.488  17.472   6.082
 2808POPC   D2A38620  34.697  17.534   6.462
 2808POPC   C3A38621  34.447  17.495   6.821
 2808POPC   C4A38622  34.616  17.496   7.222
 2808POPC   C1B38623  34.748  17.906   6.059
 2808POPC   C2B38624  34.825  18.020   6.474
 2808POPC   C3B38625  34.776  17.931   6.885
 2808POPC   C4B38626  34.735  18.184   7.244
 2809POPC   NC338627  36.097  44.943   5.499
 2809POPC   PO438628  36.322  44.398   5.467
 2809POPC   GL138629  36.161  44.561   5.868
 2809POPC   GL238630  36.041  44.908   5.979
 2809POPC   C1A38631  36.221  44.545   6.295
 2809POPC   D2A38632  36.316  44.366   6.656
 2809POPC   C3A38633  36.452  44.578   6.998
 2809POPC   C4A38634  36.653  44.763   7.324
 2809POPC   C1B38635  35.898  44.939   6.347
 2809POPC   C2B38636  35.876  44.673   6.674
 2809POPC   C3B38637  35.973  44.814   7.049
 2809POPC   C4B38638  36.114  44.678   7.383
 2810POPC   NC338639  17.295  33.561   5.629
 2810POPC   PO438640  16.783  33.830   5.388
 2810POPC   GL138641  16.808  33.677   5.810
 2810POPC   GL238642  17.068  33.908   5.935
 2810POPC   C1A38643  16.737  33.480   6.228
 2810POPC   D2A38644  16.521  33.620   6.614
 2810POPC   C3A38645  16.553  33.605   7.068
 2810POPC   C4A38646  16.473  34.029   7.162
 2810POPC   C1B38647  17.113  33.835   6.379
 2810POPC   C2B38648  16.964  33.900   6.831
 2810POPC   C3B38649  17.029  33.749   7.260
 2810POPC   C4B38650  17.178  33.693   7.704
 2811POPC   NC338651   2.663  30.617   5.437
 2811POPC   PO438652   3.347  30.721   5.467
 2811POPC   GL138653   3.066  30.600   5.783
 2811POPC   GL238654   2.945  30.900   5.799
 2811POPC   C1A38655   2.853  30.595   6.204
 2811POPC   D2A38656   2.854  30.819   6.613
 2811POPC   C3A38657   2.633  30.589   6.946
 2811POPC   C4A38658   2.752  30.583   7.370
 2811POPC   C1B38659   2.556  30.993   6.034
 2811POPC   C2B38660   2.431  31.095   6.449
 2811POPC   C3B38661   2.386  31.033   6.886
 2811POPC   C4B38662   2.411  31.150   7.305
 2812POPC   NC338663  14.697  12.506   5.301
 2812POPC   PO438664  14.364  13.149   5.318
 2812POPC   GL138665  14.350  12.991   5.736
 2812POPC   GL238666  14.688  13.161   5.820
 2812POPC   C1A38667  14.250  12.599   6.016
 2812POPC   D2A38668  14.288  12.479   6.463
 2812POPC   C3A38669  14.497  12.599   6.850
 2812POPC   C4A38670  14.223  12.663   7.202
 2812POPC   C1B38671  14.615  12.911   6.188
 2812POPC   C2B38672  14.386  13.018   6.550
 2812POPC   C3B38673  14.480  13.108   6.981
 2812POPC   C4B38674  14.634  12.915   7.350
 2813POPC   NC338675  24.613  35.882   5.327
 2813POPC   PO438676  24.429  36.491   5.512
 2813POPC   GL138677  24.567  36.180   5.767
 2813POPC   GL238678  24.391  35.869   5.782
 2813POPC   C1A38679  24.526  36.159   6.207
 2813POPC   D2A38680  24.648  36.240   6.615
 2813POPC   C3A38681  24.307  36.075   6.828
 2813POPC   C4A38682  24.384  36.031   7.218
 2813POPC   C1B38683  24.379  35.658   6.197
 2813POPC   C2B38684  24.191  35.614   6.599
 2813POPC   C3B38685  24.183  35.594   7.037
 2813POPC   C4B38686  24.254  35.618   7.462
 2814POPC   NC338687  24.688  14.011   5.431
 2814POPC   PO438688  24.094  14.325   5.609
 2814POPC   GL138689  24.432  14.257   5.870
 2814POPC   GL238690  24.730  14.421   5.752
 2814POPC   C1A38691  24.365  14.318   6.306
 2814POPC   D2A38692  24.418  14.079   6.684
 2814POPC   C3A38693  24.463  14.216   7.112
 2814POPC   C4A38694  24.445  14.272   7.575
 2814POPC   C1B38695  24.749  14.622   6.151
 2814POPC   C2B38696  24.817  14.434   6.554
 2814POPC   C3B38697  24.728  14.625   6.933
 2814POPC   C4B38698  24.530  14.696   7.299
 2815POPC   NC338699  43.242  26.965   5.576
 2815POPC   PO438700  42.936  26.588   5.168
 2815POPC   GL138701  42.952  26.616   5.748
 2815POPC   GL238702  42.905  26.988   5.943
 2815POPC   C1A38703  42.964  26.599   6.249
 2815POPC   D2A38704  42.803  26.772   6.673
 2815POPC   C3A38705  42.880  26.562   7.070
 2815POPC   C4A38706  43.157  26.503   7.401
 2815POPC   C1B38707  43.263  27.055   6.221
 2815POPC   C2B38708  43.266  27.037   6.644
 2815POPC   C3B38709  43.325  26.838   7.023
 2815POPC   C4B38710  43.576  26.789   7.385
 2816POPC   NC338711  36.390  40.344   5.076
 2816POPC   PO438712  36.261  40.926   5.542
 2816POPC   GL138713  36.128  40.925   5.944
 2816POPC   GL238714  35.891  40.626   5.877
 2816POPC   C1A38715  36.284  40.977   6.372
 2816POPC   D2A38716  36.374  40.694   6.675
 2816POPC   C3A38717  36.483  40.848   7.060
 2816POPC   C4A38718  36.257  40.920   7.437
 2816POPC   C1B38719  35.928  40.618   6.324
 2816POPC   C2B38720  35.876  40.688   6.741
 2816POPC   C3B38721  35.933  40.645   7.176
 2816POPC   C4B38722  35.631  40.596   7.508
 2817POPC   NC338723  36.876   2.235   5.419
 2817POPC   PO438724  36.591   2.848   5.518
 2817POPC   GL138725  36.611   2.815   5.922
 2817POPC   GL238726  36.789   2.479   5.893
 2817POPC   C1A38727  36.814   3.037   6.281
 2817POPC   D2A38728  36.603   2.877   6.631
 2817POPC   C3A38729  36.873   2.724   6.939
 2817POPC   C4A38730  37.003   3.053   7.254
 2817POPC   C1B38731  36.942   2.567   6.326
 2817POPC   C2B38732  37.264   2.844   6.504
 2817POPC   C3B38733  37.388   2.825   6.932
 2817POPC   C4B38734  37.263   2.570   7.275
 2818POPC   NC338735  44.346  41.736   5.200
 2818POPC   PO438736  44.814  42.111   5.564
 2818POPC   GL138737  44.693  42.449   5.804
 2818POPC   GL238738  44.344  42.404   5.870
 2818POPC   C1A38739  44.734  42.491   6.234
 2818POPC   D2A38740  44.701  42.242   6.606
 2818POPC   C3A38741  44.660  42.451   6.956
 2818POPC   C4A38742  44.784  42.525   7.360
 2818POPC   C1B38743  44.363  42.138   6.236
 2818POPC   C2B38744  44.164  42.039   6.634
 2818POPC   C3B38745  44.330  42.043   7.024
 2818POPC   C4B38746  44.329  42.318   7.356
 2819POPC   NC338747   9.523   4.334   5.235
 2819POPC   PO438748  10.034   4.564   5.187
 2819POPC   GL138749   9.811   4.550   5.611
 2819POPC   GL238750  10.013   4.388   5.904
 2819POPC   C1A38751   9.545   4.576   5.998
 2819POPC   D2A38752   9.580   4.314   6.361
 2819POPC   C3A38753   9.406   4.363   6.766
 2819POPC   C4A38754   9.639   4.239   7.122
 2819POPC   C1B38755   9.972   4.688   6.270
 2819POPC   C2B38756  10.085   4.813   6.703
 2819POPC   C3B38757  10.195   4.573   7.096
 2819POPC   C4B38758  10.144   4.625   7.572
 2820POPC   NC338759  44.526  21.277   5.325
 2820POPC   PO438760  44.566  21.858   5.664
 2820POPC   GL138761  44.643  21.475   5.775
 2820POPC   GL238762  44.953  21.388   5.670
 2820POPC   C1A38763  44.507  21.185   6.062
 2820POPC   D2A38764  44.354  21.222   6.468
 2820POPC   C3A38765  44.575  21.424   6.798
 2820POPC   C4A38766  44.488  21.183   7.171
 2820POPC   C1B38767  44.949  21.391   6.158
 2820POPC   C2B38768   0.101  21.507   6.596
 2820POPC   C3B38769  44.997  21.695   7.014
 2820POPC   C4B38770  44.879  21.611   7.449
 2821POPC   NC338771   7.058  32.537   5.487
 2821POPC   PO438772   6.989  31.966   5.504
 2821POPC   GL138773   7.288  32.084   5.833
 2821POPC   GL238774   7.509  32.328   5.685
 2821POPC   C1A38775   7.305  32.121   6.317
 2821POPC   D2A38776   7.327  32.071   6.808
 2821POPC   C3A38777   7.454  32.389   7.133
 2821POPC   C4A38778   7.455  32.471   7.583
 2821POPC   C1B38779   7.745  32.253   6.088
 2821POPC   C2B38780   7.777  32.027   6.508
 2821POPC   C3B38781   7.846  32.093   6.946
 2821POPC   C4B38782   7.963  32.456   7.202
 2822POPC   NC338783  37.632  27.273   5.552
 2822POPC   PO438784  37.528  26.561   5.601
 2822POPC   GL138785  37.739  26.831   5.817
 2822POPC   GL238786  37.430  26.998   5.928
 2822POPC   C1A38787  37.921  26.999   6.170
 2822POPC   D2A38788  37.864  26.889   6.595
 2822POPC   C3A38789  37.732  27.191   6.893
 2822POPC   C4A38790  37.735  27.056   7.306
 2822POPC   C1B38791  37.371  26.668   6.229
 2822POPC   C2B38792  37.476  26.481   6.614
 2822POPC   C3B38793  37.429  26.776   6.924
 2822POPC   C4B38794  37.275  26.750   7.311
 2823POPC   NC338795  37.155  19.569   5.437
 2823POPC   PO438796  36.618  19.642   5.363
 2823POPC   GL138797  36.612  19.780   5.818
 2823POPC   GL238798  36.978  19.746   5.903
 2823POPC   C1A38799  36.655  19.851   6.309
 2823POPC   D2A38800  36.530  20.111   6.703
 2823POPC   C3A38801  36.585  19.987   7.150
 2823POPC   C4A38802  36.825  20.128   7.531
 2823POPC   C1B38803  37.151  19.730   6.336
 2823POPC   C2B38804  36.971  19.826   6.756
 2823POPC   C3B38805  37.084  19.803   7.203
 2823POPC   C4B38806  37.266  19.858   7.629
 2824POPC   NC338807  26.691   2.534   5.129
 2824POPC   PO438808  26.501   2.892   5.647
 2824POPC   GL138809  26.599   3.020   6.008
 2824POPC   GL238810  26.915   2.859   6.094
 2824POPC   C1A38811  26.451   2.898   6.400
 2824POPC   D2A38812  26.797   2.869   6.651
 2824POPC   C3A38813  26.792   2.956   7.042
 2824POPC   C4A38814  27.184   2.906   7.146
 2824POPC   C1B38815  26.781   2.473   6.336
 2824POPC   C2B38816  26.671   2.402   6.803
 2824POPC   C3B38817  26.731   2.485   7.208
 2824POPC   C4B38818  26.584   2.325   7.637
 2825POPC   NC338819  43.166  17.706   5.446
 2825POPC   PO438820  42.889  17.164   5.698
 2825POPC   GL138821  43.080  17.528   5.946
 2825POPC   GL238822  43.391  17.737   5.913
 2825POPC   C1A38823  43.147  17.463   6.400
 2825POPC   D2A38824  43.215  17.148   6.758
 2825POPC   C3A38825  42.980  17.326   7.076
 2825POPC   C4A38826  42.902  17.754   7.062
 2825POPC   C1B38827  43.302  17.940   6.303
 2825POPC   C2B38828  43.331  17.825   6.751
 2825POPC   C3B38829  43.447  17.567   7.115
 2825POPC   C4B38830  43.460  17.562   7.577
 2826POPC   NC338831   9.901  22.012   5.403
 2826POPC   PO438832   9.337  22.509   5.404
 2826POPC   GL138833   9.607  22.295   5.774
 2826POPC   GL238834   9.674  21.926   5.839
 2826POPC   C1A38835   9.794  22.231   6.228
 2826POPC   D2A38836   9.951  22.136   6.643
 2826POPC   C3A38837   9.685  22.085   6.971
 2826POPC   C4A38838   9.707  22.324   7.345
 2826POPC   C1B38839   9.998  21.791   6.085
 2826POPC   C2B38840  10.028  21.637   6.492
 2826POPC   C3B38841  10.061  21.691   6.923
 2826POPC   C4B38842  10.110  21.989   7.243
 2827POPC   NC338843   3.072  29.705   5.433
 2827POPC   PO438844   2.576  30.138   5.480
 2827POPC   GL138845   2.740  30.191   5.855
 2827POPC   GL238846   2.850  29.857   5.862
 2827POPC   C1A38847   2.645  30.070   6.272
 2827POPC   D2A38848   2.903  30.021   6.605
 2827POPC   C3A38849   2.655  30.066   6.941
 2827POPC   C4A38850   2.804  30.067   7.359
 2827POPC   C1B38851   3.020  29.702   6.214
 2827POPC   C2B38852   2.903  29.511   6.621
 2827POPC   C3B38853   3.013  29.704   7.017
 2827POPC   C4B38854   3.071  29.456   7.349
 2828POPC   NC338855  21.397  38.740   5.480
 2828POPC   PO438856  21.198  38.101   5.702
 2828POPC   GL138857  21.268  38.447   5.907
 2828POPC   GL238858  21.613  38.410   5.920
 2828POPC   C1A38859  21.323  38.406   6.329
 2828POPC   D2A38860  21.098  38.360   6.641
 2828POPC   C3A38861  21.293  38.325   6.958
 2828POPC   C4A38862  21.236  38.658   7.214
 2828POPC   C1B38863  21.806  38.194   6.274
 2828POPC   C2B38864  21.752  38.361   6.692
 2828POPC   C3B38865  21.731  38.491   7.131
 2828POPC   C4B38866  21.708  38.420   7.595
 2829POPC   NC338867  16.581  31.734   5.570
 2829POPC   PO438868  16.827  31.121   5.609
 2829POPC   GL138869  16.878  31.233   5.997
 2829POPC   GL238870  16.907  31.595   5.969
 2829POPC   C1A38871  16.962  31.330   6.424
 2829POPC   D2A38872  16.786  31.649   6.708
 2829POPC   C3A38873  16.721  31.448   7.085
 2829POPC   C4A38874  16.927  31.094   7.272
 2829POPC   C1B38875  16.521  31.576   6.242
 2829POPC   C2B38876  16.270  31.565   6.631
 2829POPC   C3B38877  16.283  31.743   7.068
 2829POPC   C4B38878  16.508  31.770   7.501
 2830POPC   NC338879  38.158  38.545   5.635
 2830POPC   PO438880  38.767  38.342   5.402
 2830POPC   GL138881  38.600  38.529   5.883
 2830POPC   GL238882  38.265  38.788   6.051
 2830POPC   C1A38883  38.502  38.437   6.344
 2830POPC   D2A38884  38.389  38.643   6.747
 2830POPC   C3A38885  38.716  38.562   7.045
 2830POPC   C4A38886  38.643  38.254   7.388
 2830POPC   C1B38887  38.000  38.601   6.385
 2830POPC   C2B38888  38.082  38.198   6.618
 2830POPC   C3B38889  38.273  38.196   7.022
 2830POPC   C4B38890  38.250  38.584   7.248
 2831POPC   NC338891   7.365  30.821   5.421
 2831POPC   PO438892   7.569  30.295   5.361
 2831POPC   GL138893   7.524  30.457   5.790
 2831POPC   GL238894   7.188  30.570   5.814
 2831POPC   C1A38895   7.509  30.606   6.244
 2831POPC   D2A38896   7.555  30.522   6.705
 2831POPC   C3A38897   7.334  30.720   7.071
 2831POPC   C4A38898   7.370  31.116   7.322
 2831POPC   C1B38899   7.145  30.273   6.105
 2831POPC   C2B38900   7.205  30.196   6.527
 2831POPC   C3B38901   7.207  30.227   6.974
 2831POPC   C4B38902   7.159  30.381   7.435
 2832POPC   NC338903  15.516  14.894   5.468
 2832POPC   PO438904  16.191  14.772   5.575
 2832POPC   GL138905  15.955  14.467   5.784
 2832POPC   GL238906  16.227  14.483   5.986
 2832POPC   C1A38907  15.869  14.155   6.144
 2832POPC   D2A38908  16.102  14.121   6.534
 2832POPC   C3A38909  15.907  14.070   6.970
 2832POPC   C4A38910  16.025  14.254   7.383
 2832POPC   C1B38911  15.905  14.652   6.266
 2832POPC   C2B38912  15.853  14.589   6.678
 2832POPC   C3B38913  15.913  14.629   7.080
 2832POPC   C4B38914  15.629  14.788   7.330
 2833POPC   NC338915  44.296  43.051   5.058
 2833POPC   PO438916  43.728  42.807   5.304
 2833POPC   GL138917  43.834  43.028   5.700
 2833POPC   GL238918  43.948  42.777   5.917
 2833POPC   C1A38919  43.856  43.220   6.136
 2833POPC   D2A38920  43.720  43.009   6.519
 2833POPC   C3A38921  43.712  43.235   6.905
 2833POPC   C4A38922  43.859  43.278   7.304
 2833POPC   C1B38923  44.268  42.770   6.216
 2833POPC   C2B38924  44.279  42.548   6.595
 2833POPC   C3B38925  44.263  42.763   6.986
 2833POPC   C4B38926  44.156  42.796   7.406
 2834POPC   NC338927  37.093  10.593   5.406
 2834POPC   PO438928  36.572  10.122   5.397
 2834POPC   GL138929  36.785  10.369   5.729
 2834POPC   GL238930  36.728  10.761   5.710
 2834POPC   C1A38931  36.929  10.387   6.149
 2834POPC   D2A38932  36.821  10.101   6.496
 2834POPC   C3A38933  36.947  10.264   6.886
 2834POPC   C4A38934  36.905  10.128   7.316
 2834POPC   C1B38935  36.545  10.804   6.102
 2834POPC   C2B38936  36.699  10.720   6.497
 2834POPC   C3B38937  36.612  10.691   6.917
 2834POPC   C4B38938  36.970  10.698   7.173
 2835POPC   NC338939   0.671  22.708   5.386
 2835POPC   PO438940   0.167  23.020   5.333
 2835POPC   GL138941   0.421  23.025   5.742
 2835POPC   GL238942   0.726  23.255   5.681
 2835POPC   C1A38943   0.287  23.008   6.197
 2835POPC   D2A38944   0.036  23.098   6.570
 2835POPC   C3A38945   0.173  22.918   6.930
 2835POPC   C4A38946   0.463  23.065   7.203
 2835POPC   C1B38947   0.822  23.212   6.129
 2835POPC   C2B38948   0.691  23.047   6.528
 2835POPC   C3B38949   0.843  23.204   6.893
 2835POPC   C4B38950   0.988  23.159   7.283
 2836POPC   NC338951   0.341  44.101   5.318
 2836POPC   PO438952   0.801  43.663   5.295
 2836POPC   GL138953   0.669  43.897   5.695
 2836POPC   GL238954   0.867  44.182   5.653
 2836POPC   C1A38955   0.360  43.935   6.098
 2836POPC   D2A38956   0.252  43.730   6.541
 2836POPC   C3A38957   0.316  43.982   6.947
 2836POPC   C4A38958   0.512  43.957   7.365
 2836POPC   C1B38959   0.775  44.235   6.107
 2836POPC   C2B38960   0.630  44.078   6.524
 2836POPC   C3B38961   0.829  44.042   6.940
 2836POPC   C4B38962   0.799  44.379   7.234
 2837POPC   NC338963   8.087   4.847   5.415
 2837POPC   PO438964   7.778   5.437   5.687
 2837POPC   GL138965   8.174   5.198   5.772
 2837POPC   GL238966   8.506   5.381   5.696
 2837POPC   C1A38967   8.189   4.981   6.138
 2837POPC   D2A38968   7.896   5.072   6.459
 2837POPC   C3A38969   8.051   4.967   6.845
 2837POPC   C4A38970   8.335   4.907   7.178
 2837POPC   C1B38971   8.390   5.487   6.131
 2837POPC   C2B38972   8.323   5.318   6.539
 2837POPC   C3B38973   8.359   5.374   6.979
 2837POPC   C4B38974   8.540   5.310   7.411
 2838POPC   NC338975  10.701   4.931   5.619
 2838POPC   PO438976  10.471   5.411   5.261
 2838POPC   GL138977  10.527   5.395   5.740
 2838POPC   GL238978  10.320   5.155   5.930
 2838POPC   C1A38979  10.672   5.354   6.200
 2838POPC   D2A38980  10.441   5.348   6.602
 2838POPC   C3A38981  10.728   5.398   6.957
 2838POPC   C4A38982  10.842   5.273   7.363
 2838POPC   C1B38983  10.444   4.906   6.348
 2838POPC   C2B38984  10.561   4.911   6.860
 2838POPC   C3B38985  10.570   4.835   7.352
 2838POPC   C4B38986  10.564   4.721   7.830
 2839POPC   NC338987  24.213   1.499   5.619
 2839POPC   PO438988  24.545   2.007   5.365
 2839POPC   GL138989  24.611   2.076   5.793
 2839POPC   GL238990  24.287   1.988   5.913
 2839POPC   C1A38991  24.826   1.999   6.187
 2839POPC   D2A38992  24.882   1.848   6.612
 2839POPC   C3A38993  24.561   1.928   6.934
 2839POPC   C4A38994  24.665   2.109   7.313
 2839POPC   C1B38995  24.390   2.310   6.267
 2839POPC   C2B38996  24.413   2.404   6.743
 2839POPC   C3B38997  24.256   2.365   7.190
 2839POPC   C4B38998  24.233   2.050   7.598
 2840POPC   NC338999  24.881   2.796   5.339
 2840POPC   PO439000  25.418   2.386   5.386
 2840POPC   GL139001  25.198   2.651   5.718
 2840POPC   GL239002  24.821   2.554   5.782
 2840POPC   C1A39003  25.342   2.823   6.115
 2840POPC   D2A39004  25.595   2.654   6.471
 2840POPC   C3A39005  25.427   2.575   6.885
 2840POPC   C4A39006  25.356   2.691   7.327
 2840POPC   C1B39007  24.909   2.512   6.213
 2840POPC   C2B39008  25.072   2.747   6.557
 2840POPC   C3B39009  25.024   2.854   6.985
 2840POPC   C4B39010  24.798   2.648   7.307
 2841POPC   NC339011  21.060  15.693   5.618
 2841POPC   PO439012  21.582  15.246   5.399
 2841POPC   GL139013  21.451  15.096   5.800
 2841POPC   GL239014  21.338  15.411   5.933
 2841POPC   C1A39015  21.355  15.010   6.239
 2841POPC   D2A39016  21.344  15.194   6.661
 2841POPC   C3A39017  21.444  14.966   7.032
 2841POPC   C4A39018  21.508  14.823   7.427
 2841POPC   C1B39019  21.034  15.432   6.310
 2841POPC   C2B39020  21.021  15.582   6.765
 2841POPC   C3B39021  21.075  15.295   7.125
 2841POPC   C4B39022  21.220  15.286   7.580
 2842POPC   NC339023   1.547   9.771   5.446
 2842POPC   PO439024   0.949   9.645   5.521
 2842POPC   GL139025   1.241   9.780   5.897
 2842POPC   GL239026   1.606   9.817   5.959
 2842POPC   C1A39027   1.292   9.974   6.341
 2842POPC   D2A39028   1.312   9.802   6.769
 2842POPC   C3A39029   1.293  10.028   7.180
 2842POPC   C4A39030   0.910  10.052   7.420
 2842POPC   C1B39031   1.560   9.530   6.331
 2842POPC   C2B39032   1.680   9.442   6.783
 2842POPC   C3B39033   1.492   9.569   7.216
 2842POPC   C4B39034   1.732   9.518   7.621
 2843POPC   NC339035  11.468  21.873   5.422
 2843POPC   PO439036  11.606  22.515   5.410
 2843POPC   GL139037  11.334  22.272   5.774
 2843POPC   GL239038  11.075  22.007   5.751
 2843POPC   C1A39039  11.458  21.879   6.076
 2843POPC   D2A39040  11.372  21.746   6.515
 2843POPC   C3A39041  11.284  22.089   6.842
 2843POPC   C4A39042  11.528  22.246   7.180
 2843POPC   C1B39043  11.014  22.093   6.205
 2843POPC   C2B39044  10.875  21.906   6.591
 2843POPC   C3B39045  10.909  21.775   7.029
 2843POPC   C4B39046  11.141  21.954   7.375
 2844POPC   NC339047   0.743   0.680   5.435
 2844POPC   PO439048   0.222   0.290   5.552
 2844POPC   GL139049   0.421   0.436   5.905
 2844POPC   GL239050   0.523   0.775   5.897
 2844POPC   C1A39051   0.407   0.410   6.358
 2844POPC   D2A39052   0.077   0.544   6.618
 2844POPC   C3A39053   0.169   0.524   7.051
 2844POPC   C4A39054   0.205   0.138   7.271
 2844POPC   C1B39055   0.819   0.684   6.218
 2844POPC   C2B39056   0.900   0.451   6.564
 2844POPC   C3B39057   0.627   0.345   6.892
 2844POPC   C4B39058   0.626   0.483   7.296
 2845POPC   NC339059   1.498  34.583   5.436
 2845POPC   PO439060   0.850  34.501   5.478
 2845POPC   GL139061   1.143  34.631   5.824
 2845POPC   GL239062   1.269  34.950   5.750
 2845POPC   C1A39063   1.312  34.397   6.180
 2845POPC   D2A39064   1.422  34.493   6.590
 2845POPC   C3A39065   1.253  34.317   6.971
 2845POPC   C4A39066   1.446  34.260   7.378
 2845POPC   C1B39067   1.049  35.087   6.130
 2845POPC   C2B39068   1.110  34.932   6.535
 2845POPC   C3B39069   1.217  34.821   6.941
 2845POPC   C4B39070   1.052  34.661   7.309
 2846POPC   NC339071   0.740  20.104   5.589
 2846POPC   PO439072   1.323  19.835   5.395
 2846POPC   GL139073   1.049  19.649   5.700
 2846POPC   GL239074   1.136  19.931   5.937
 2846POPC   C1A39075   0.975  19.488   6.119
 2846POPC   D2A39076   1.070  19.731   6.474
 2846POPC   C3A39077   1.120  19.538   6.883
 2846POPC   C4A39078   1.188  19.718   7.287
 2846POPC   C1B39079   1.479  20.068   6.240
 2846POPC   C2B39080   1.490  20.265   6.661
 2846POPC   C3B39081   1.528  20.044   7.063
 2846POPC   C4B39082   1.650  20.128   7.505
 2847POPC   NC339083  24.126  43.705   5.118
 2847POPC   PO439084  24.765  43.747   5.089
 2847POPC   GL139085  24.615  43.869   5.504
 2847POPC   GL239086  24.284  43.722   5.619
 2847POPC   C1A39087  24.578  43.993   5.943
 2847POPC   D2A39088  24.445  43.940   6.364
 2847POPC   C3A39089  24.515  43.971   6.810
 2847POPC   C4A39090  24.325  44.082   7.202
 2847POPC   C1B39091  24.214  43.596   6.073
 2847POPC   C2B39092  24.299  43.491   6.539
 2847POPC   C3B39093  24.221  43.594   7.020
 2847POPC   C4B39094  24.114  43.455   7.456
 2848POPC   NC339095  40.209  44.129   5.438
 2848POPC   PO439096  40.846  43.917   5.407
 2848POPC   GL139097  40.644  43.975   5.795
 2848POPC   GL239098  40.653  43.595   5.842
 2848POPC   C1A39099  40.745  44.156   6.223
 2848POPC   D2A39100  40.778  43.916   6.620
 2848POPC   C3A39101  40.903  44.090   7.028
 2848POPC   C4A39102  40.723  43.879   7.372
 2848POPC   C1B39103  40.464  43.703   6.234
 2848POPC   C2B39104  40.294  43.649   6.649
 2848POPC   C3B39105  40.415  43.585   7.066
 2848POPC   C4B39106  40.618  43.347   7.390
 2849POPC   NC339107  23.820  13.914   5.066
 2849POPC   PO439108  24.000  13.439   5.554
 2849POPC   GL139109  23.695  13.533   5.859
 2849POPC   GL239110  23.573  13.908   5.941
 2849POPC   C1A39111  23.762  13.580   6.282
 2849POPC   D2A39112  23.777  13.322   6.599
 2849POPC   C3A39113  23.715  13.535   6.993
 2849POPC   C4A39114  23.354  13.769   7.094
 2849POPC   C1B39115  23.872  14.090   6.257
 2849POPC   C2B39116  23.908  13.970   6.708
 2849POPC   C3B39117  23.839  14.144   7.137
 2849POPC   C4B39118  23.955  14.145   7.602
 2850POPC   NC339119  36.454  42.306   5.173
 2850POPC   PO439120  35.749  42.286   5.328
 2850POPC   GL139121  36.000  42.261   5.727
 2850POPC   GL239122  35.904  42.556   5.864
 2850POPC   C1A39123  36.162  42.244   6.176
 2850POPC   D2A39124  36.070  42.380   6.597
 2850POPC   C3A39125  36.461  42.313   6.794
 2850POPC   C4A39126  36.448  42.007   7.053
 2850POPC   C1B39127  35.664  42.196   6.135
 2850POPC   C2B39128  35.624  41.994   6.574
 2850POPC   C3B39129  35.875  42.028   6.975
 2850POPC   C4B39130  36.112  42.382   7.160
 2851POPC   NC339131  36.737  35.463   5.376
 2851POPC   PO439132  37.176  35.863   5.120
 2851POPC   GL139133  37.131  35.658   5.646
 2851POPC   GL239134  36.781  35.474   5.870
 2851POPC   C1A39135  37.201  35.506   6.105
 2851POPC   D2A39136  37.193  35.319   6.549
 2851POPC   C3A39137  36.978  35.587   6.851
 2851POPC   C4A39138  36.739  35.640   7.238
 2851POPC   C1B39139  36.859  35.121   6.204
 2851POPC   C2B39140  36.693  35.053   6.616
 2851POPC   C3B39141  36.754  35.150   7.031
 2851POPC   C4B39142  36.606  35.161   7.470
 2852POPC   NC339143   2.934  27.220   5.065
 2852POPC   PO439144   3.004  26.684   5.429
 2852POPC   GL139145   2.759  26.628   5.823
 2852POPC   GL239146   2.416  26.691   5.733
 2852POPC   C1A39147   2.747  26.615   6.275
 2852POPC   D2A39148   2.820  26.922   6.607
 2852POPC   C3A39149   2.936  26.759   7.021
 2852POPC   C4A39150   3.195  26.990   7.290
 2852POPC   C1B39151   2.238  26.649   6.168
 2852POPC   C2B39152   2.371  26.660   6.621
 2852POPC   C3B39153   2.451  26.939   6.951
 2852POPC   C4B39154   2.540  26.897   7.378
 2853POPC   NC339155  30.193  39.702   5.319
 2853POPC   PO439156  29.729  40.186   5.314
 2853POPC   GL139157  29.945  40.081   5.692
 2853POPC   GL239158  30.162  40.342   5.829
 2853POPC   C1A39159  30.011  39.873   6.108
 2853POPC   D2A39160  30.169  40.062   6.526
 2853POPC   C3A39161  30.134  39.855   6.952
 2853POPC   C4A39162  30.034  39.971   7.377
 2853POPC   C1B39163  29.836  40.343   6.135
 2853POPC   C2B39164  29.823  40.472   6.560
 2853POPC   C3B39165  29.988  40.369   6.966
 2853POPC   C4B39166  29.637  40.250   7.198
 2854POPC   NC339167   6.676  19.242   5.397
 2854POPC   PO439168   6.282  18.634   5.371
 2854POPC   GL139169   6.487  18.865   5.678
 2854POPC   GL239170   6.847  18.819   5.702
 2854POPC   C1A39171   6.477  18.842   6.101
 2854POPC   D2A39172   6.672  18.695   6.463
 2854POPC   C3A39173   6.537  18.899   6.812
 2854POPC   C4A39174   6.545  19.016   7.220
 2854POPC   C1B39175   6.964  18.976   6.118
 2854POPC   C2B39176   6.936  19.140   6.521
 2854POPC   C3B39177   7.018  19.113   6.963
 2854POPC   C4B39178   7.012  19.082   7.405
 2855POPC   NC339179  43.120  13.708   5.302
 2855POPC   PO439180  42.571  13.460   5.380
 2855POPC   GL139181  42.919  13.569   5.757
 2855POPC   GL239182  43.258  13.757   5.800
 2855POPC   C1A39183  43.071  13.511   6.222
 2855POPC   D2A39184  42.851  13.579   6.625
 2855POPC   C3A39185  42.981  13.466   7.057
 2855POPC   C4A39186  42.796  13.152   7.323
 2855POPC   C1B39187  43.291  13.982   6.187
 2855POPC   C2B39188  43.181  14.029   6.598
 2855POPC   C3B39189  43.316  13.906   6.996
 2855POPC   C4B39190  43.231  13.764   7.420
 2856POPC   NC339191  37.901  36.607   5.534
 2856POPC   PO439192  37.553  37.267   5.499
 2856POPC   GL139193  37.701  37.021   5.842
 2856POPC   GL239194  38.065  37.134   5.862
 2856POPC   C1A39195  37.498  36.883   6.243
 2856POPC   D2A39196  37.267  36.706   6.605
 2856POPC   C3A39197  37.391  36.813   7.049
 2856POPC   C4A39198  37.810  36.809   7.231
 2856POPC   C1B39199  37.853  37.262   6.271
 2856POPC   C2B39200  37.674  37.108   6.684
 2856POPC   C3B39201  37.565  37.318   7.069
 2856POPC   C4B39202  37.806  37.306   7.443
 2857POPC   NC339203  42.654  42.553   5.494
 2857POPC   PO439204  43.173  42.060   5.391
 2857POPC   GL139205  42.952  42.143   5.774
 2857POPC   GL239206  43.044  42.481   5.835
 2857POPC   C1A39207  42.992  42.169   6.251
 2857POPC   D2A39208  43.220  42.088   6.649
 2857POPC   C3A39209  42.967  42.092   7.004
 2857POPC   C4A39210  42.971  42.224   7.425
 2857POPC   C1B39211  43.017  42.698   6.256
 2857POPC   C2B39212  43.001  42.543   6.704
 2857POPC   C3B39213  43.302  42.491   7.049
 2857POPC   C4B39214  43.414  42.900   7.216
 2858POPC   NC339215  34.935  39.640   5.480
 2858POPC   PO439216  34.544  40.210   5.398
 2858POPC   GL139217  34.456  40.132   5.806
 2858POPC   GL239218  34.405  39.832   5.786
 2858POPC   C1A39219  34.678  39.951   6.219
 2858POPC   D2A39220  34.911  39.836   6.620
 2858POPC   C3A39221  34.839  39.835   7.074
 2858POPC   C4A39222  34.720  40.017   7.481
 2858POPC   C1B39223  34.161  39.990   6.172
 2858POPC   C2B39224  34.297  39.934   6.589
 2858POPC   C3B39225  34.091  39.994   6.981
 2858POPC   C4B39226  34.250  39.859   7.368
 2859POPC   NC339227  34.034   7.690   5.468
 2859POPC   PO439228  33.532   7.250   5.488
 2859POPC   GL139229  33.759   7.370   5.813
 2859POPC   GL239230  34.038   7.191   5.754
 2859POPC   C1A39231  33.798   7.593   6.195
 2859POPC   D2A39232  33.860   7.387   6.584
 2859POPC   C3A39233  33.817   7.586   6.986
 2859POPC   C4A39234  33.814   7.267   7.286
 2859POPC   C1B39235  34.212   7.325   6.119
 2859POPC   C2B39236  34.355   7.280   6.513
 2859POPC   C3B39237  34.265   7.318   6.928
 2859POPC   C4B39238  34.259   7.504   7.292
 2860POPC   NC339239  32.090  34.933   5.566
 2860POPC   PO439240  31.425  34.680   5.380
 2860POPC   GL139241  31.597  34.762   5.773
 2860POPC   GL239242  31.479  34.469   5.889
 2860POPC   C1A39243  31.699  34.776   6.246
 2860POPC   D2A39244  31.486  34.775   6.658
 2860POPC   C3A39245  31.657  34.813   7.088
 2860POPC   C4A39246  31.618  34.600   7.549
 2860POPC   C1B39247  31.530  34.290   6.285
 2860POPC   C2B39248  31.381  34.265   6.710
 2860POPC   C3B39249  31.543  34.332   7.120
 2860POPC   C4B39250  31.873  34.143   7.349
 2861POPC   NC339251  28.447  38.833   5.257
 2861POPC   PO439252  28.061  38.236   5.355
 2861POPC   GL139253  28.256  38.479   5.698
 2861POPC   GL239254  28.614  38.344   5.755
 2861POPC   C1A39255  28.314  38.494   6.167
 2861POPC   D2A39256  28.129  38.420   6.587
 2861POPC   C3A39257  28.237  38.540   7.039
 2861POPC   C4A39258  28.077  38.283   7.365
 2861POPC   C1B39259  28.667  38.105   6.149
 2861POPC   C2B39260  28.695  38.053   6.570
 2861POPC   C3B39261  28.552  38.120   6.978
 2861POPC   C4B39262  28.935  38.207   7.193
 2862POPC   NC339263  17.335   3.054   5.460
 2862POPC   PO439264  17.878   2.704   5.235
 2862POPC   GL139265  17.632   2.657   5.649
 2862POPC   GL239266  17.926   2.657   5.830
 2862POPC   C1A39267  17.393   2.818   6.080
 2862POPC   D2A39268  17.401   3.004   6.528
 2862POPC   C3A39269  17.339   2.742   6.927
 2862POPC   C4A39270  17.414   2.864   7.401
 2862POPC   C1B39271  17.871   2.875   6.245
 2862POPC   C2B39272  17.796   2.704   6.671
 2862POPC   C3B39273  17.785   2.645   7.131
 2862POPC   C4B39274  17.930   2.962   7.403
 2863POPC   NC339275  44.493   2.095   5.254
 2863POPC   PO439276  43.843   2.293   5.432
 2863POPC   GL139277  43.890   2.044   5.807
 2863POPC   GL239278  44.170   1.795   5.731
 2863POPC   C1A39279  43.793   2.197   6.229
 2863POPC   D2A39280  43.589   2.208   6.639
 2863POPC   C3A39281  43.858   2.031   6.961
 2863POPC   C4A39282  43.722   1.947   7.373
 2863POPC   C1B39283  43.965   1.686   6.155
 2863POPC   C2B39284  43.697   1.702   6.556
 2863POPC   C3B39285  43.458   1.700   6.994
 2863POPC   C4B39286  43.439   1.561   7.477
 2864POPC   NC339287   4.644   5.951   5.315
 2864POPC   PO439288   5.255   5.676   5.465
 2864POPC   GL139289   5.172   5.879   5.823
 2864POPC   GL239290   4.841   5.792   5.776
 2864POPC   C1A39291   5.282   5.963   6.265
 2864POPC   D2A39292   5.438   5.849   6.701
 2864POPC   C3A39293   5.096   5.951   7.035
 2864POPC   C4A39294   5.068   5.826   7.498
 2864POPC   C1B39295   4.799   6.116   6.089
 2864POPC   C2B39296   4.747   6.148   6.530
 2864POPC   C3B39297   4.583   6.211   6.945
 2864POPC   C4B39298   4.722   6.184   7.350
 2865POPC   NC339299   6.853  44.028   5.454
 2865POPC   PO439300   6.361  43.751   5.835
 2865POPC   GL139301   6.824  43.855   5.945
 2865POPC   GL239302   7.011  43.565   6.119
 2865POPC   C1A39303   6.842  44.191   6.241
 2865POPC   D2A39304   6.574  44.221   6.589
 2865POPC   C3A39305   6.676  44.179   7.020
 2865POPC   C4A39306   6.953  43.920   7.245
 2865POPC   C1B39307   6.714  43.722   6.434
 2865POPC   C2B39308   6.477  43.705   6.824
 2865POPC   C3B39309   6.403  43.707   7.262
 2865POPC   C4B39310   6.352  43.539   7.707
 2866POPC   NC339311   1.663  38.989   5.328
 2866POPC   PO439312   2.330  39.166   5.357
 2866POPC   GL139313   2.106  38.921   5.663
 2866POPC   GL239314   1.831  39.158   5.779
 2866POPC   C1A39315   2.045  38.898   6.134
 2866POPC   D2A39316   2.077  39.246   6.427
 2866POPC   C3A39317   2.116  39.118   6.840
 2866POPC   C4A39318   2.309  39.335   7.186
 2866POPC   C1B39319   1.677  39.445   6.126
 2866POPC   C2B39320   1.670  39.598   6.576
 2866POPC   C3B39321   1.834  39.536   6.996
 2866POPC   C4B39322   1.764  39.161   7.228
 2867POPC   NC339323  13.806  28.232   5.427
 2867POPC   PO439324  13.254  28.328   5.101
 2867POPC   GL139325  13.358  28.359   5.695
 2867POPC   GL239326  13.690  28.438   5.870
 2867POPC   C1A39327  13.339  28.382   6.223
 2867POPC   D2A39328  13.174  28.317   6.708
 2867POPC   C3A39329  13.491  28.335   7.098
 2867POPC   C4A39330  13.414  28.227   7.561
 2867POPC   C1B39331  13.908  28.444   6.311
 2867POPC   C2B39332  13.938  28.431   6.775
 2867POPC   C3B39333  13.920  28.054   7.035
 2867POPC   C4B39334  13.901  28.111   7.474
 2868POPC   NC339335  39.687  27.381   5.531
 2868POPC   PO439336  39.348  27.750   5.101
 2868POPC   GL139337  39.364  27.747   5.626
 2868POPC   GL239338  39.213  27.513   5.832
 2868POPC   C1A39339  39.558  27.711   6.113
 2868POPC   D2A39340  39.390  27.573   6.459
 2868POPC   C3A39341  39.579  27.580   6.851
 2868POPC   C4A39342  39.367  27.627   7.258
 2868POPC   C1B39343  39.065  27.855   6.129
 2868POPC   C2B39344  39.110  28.037   6.574
 2868POPC   C3B39345  38.971  28.043   7.016
 2868POPC   C4B39346  38.757  27.983   7.413
 2869POPC   NC339347   1.415  19.373   5.442
 2869POPC   PO439348   0.954  18.920   5.466
 2869POPC   GL139349   1.136  19.105   5.811
 2869POPC   GL239350   1.170  18.767   5.907
 2869POPC   C1A39351   1.328  19.125   6.249
 2869POPC   D2A39352   1.466  19.196   6.685
 2869POPC   C3A39353   1.194  19.029   7.026
 2869POPC   C4A39354   1.452  18.826   7.353
 2869POPC   C1B39355   0.856  18.900   6.238
 2869POPC   C2B39356   0.835  18.788   6.681
 2869POPC   C3B39357   0.682  18.927   7.071
 2869POPC   C4B39358   0.829  19.312   7.263
 2870POPC   NC339359   3.822   2.606   5.520
 2870POPC   PO439360   3.194   2.331   5.645
 2870POPC   GL139361   3.445   2.583   5.867
 2870POPC   GL239362   3.503   2.933   5.771
 2870POPC   C1A39363   3.732   2.617   6.185
 2870POPC   D2A39364   3.654   2.782   6.575
 2870POPC   C3A39365   3.468   2.587   6.925
 2870POPC   C4A39366   3.665   2.627   7.324
 2870POPC   C1B39367   3.725   3.153   6.128
 2870POPC   C2B39368   3.735   3.278   6.583
 2870POPC   C3B39369   3.647   3.071   7.022
 2870POPC   C4B39370   3.585   3.092   7.526
 2871POPC   NC339371  10.261  17.690   5.404
 2871POPC   PO439372  10.864  17.607   5.486
 2871POPC   GL139373  10.589  17.565   5.853
 2871POPC   GL239374  10.277  17.378   5.816
 2871POPC   C1A39375  10.782  17.534   6.258
 2871POPC   D2A39376  10.899  17.263   6.612
 2871POPC   C3A39377  10.762  17.511   6.962
 2871POPC   C4A39378  10.447  17.834   7.090
 2871POPC   C1B39379  10.213  17.289   6.244
 2871POPC   C2B39380  10.401  17.471   6.582
 2871POPC   C3B39381  10.210  17.431   6.922
 2871POPC   C4B39382  10.144  17.316   7.303
 2872POPC   NC339383  12.062  22.459   5.379
 2872POPC   PO439384  12.512  22.094   5.462
 2872POPC   GL139385  12.111  21.935   5.706
 2872POPC   GL239386  11.819  22.151   5.747
 2872POPC   C1A39387  11.985  21.916   6.169
 2872POPC   D2A39388  12.111  22.237   6.501
 2872POPC   C3A39389  12.228  22.104   6.918
 2872POPC   C4A39390  11.976  21.989   7.242
 2872POPC   C1B39391  11.668  22.342   6.185
 2872POPC   C2B39392  11.668  22.434   6.672
 2872POPC   C3B39393  11.934  22.504   7.065
 2872POPC   C4B39394  12.203  22.703   7.369
 2873POPC   NC339395  38.566  25.669   5.281
 2873POPC   PO439396  38.406  26.316   5.435
 2873POPC   GL139397  38.323  26.256   5.849
 2873POPC   GL239398  38.042  26.035   5.823
 2873POPC   C1A39399  38.605  26.243   6.195
 2873POPC   D2A39400  38.469  26.218   6.601
 2873POPC   C3A39401  38.713  26.256   6.936
 2873POPC   C4A39402  38.472  26.401   7.266
 2873POPC   C1B39403  38.119  25.986   6.275
 2873POPC   C2B39404  38.291  25.751   6.632
 2873POPC   C3B39405  38.362  25.869   7.082
 2873POPC   C4B39406  38.260  25.651   7.478
 2874POPC   NC339407  36.231   7.750   5.612
 2874POPC   PO439408  35.997   8.435   5.529
 2874POPC   GL139409  36.062   8.193   5.869
 2874POPC   GL239410  35.818   7.925   5.871
 2874POPC   C1A39411  36.053   8.339   6.289
 2874POPC   D2A39412  36.176   8.440   6.692
 2874POPC   C3A39413  35.868   8.533   6.994
 2874POPC   C4A39414  35.938   8.317   7.411
 2874POPC   C1B39415  36.020   7.834   6.243
 2874POPC   C2B39416  36.242   7.951   6.593
 2874POPC   C3B39417  36.123   8.042   6.999
 2874POPC   C4B39418  35.907   7.812   7.259
 2875POPC   NC339419   3.466  18.420   5.552
 2875POPC   PO439420   3.517  19.073   5.294
 2875POPC   GL139421   3.572  18.984   5.767
 2875POPC   GL239422   3.768  18.664   5.872
 2875POPC   C1A39423   3.538  19.181   6.204
 2875POPC   D2A39424   3.257  19.258   6.570
 2875POPC   C3A39425   3.490  19.215   6.916
 2875POPC   C4A39426   3.355  19.101   7.291
 2875POPC   C1B39427   3.466  18.641   6.193
 2875POPC   C2B39428   3.464  18.798   6.598
 2875POPC   C3B39429   3.579  18.701   7.004
 2875POPC   C4B39430   3.382  18.610   7.352
 2876POPC   NC339431   4.083   4.114   5.419
 2876POPC   PO439432   3.547   4.609   5.366
 2876POPC   GL139433   3.699   4.390   5.696
 2876POPC   GL239434   3.993   4.519   5.753
 2876POPC   C1A39435   3.627   4.186   6.094
 2876POPC   D2A39436   3.627   4.259   6.540
 2876POPC   C3A39437   3.378   4.081   6.878
 2876POPC   C4A39438   3.296   4.339   7.246
 2876POPC   C1B39439   3.920   4.613   6.172
 2876POPC   C2B39440   3.891   4.717   6.614
 2876POPC   C3B39441   3.703   4.546   6.987
 2876POPC   C4B39442   3.762   4.545   7.427
 2877POPC   NC339443  12.203  10.907   5.469
 2877POPC   PO439444  11.938  11.487   5.235
 2877POPC   GL139445  11.901  11.370   5.706
 2877POPC   GL239446  12.227  11.238   5.860
 2877POPC   C1A39447  11.838  11.241   6.169
 2877POPC   D2A39448  12.029  11.235   6.590
 2877POPC   C3A39449  11.805  11.170   6.978
 2877POPC   C4A39450  11.822  11.446   7.360
 2877POPC   C1B39451  12.458  11.300   6.281
 2877POPC   C2B39452  12.492  11.452   6.720
 2877POPC   C3B39453  12.292  11.325   7.111
 2877POPC   C4B39454  12.380  10.920   7.276
 2878POPC   NC339455  28.279  37.950   5.648
 2878POPC   PO439456  28.576  37.437   5.264
 2878POPC   GL139457  28.603  37.553   5.758
 2878POPC   GL239458  28.816  37.808   5.786
 2878POPC   C1A39459  28.426  37.661   6.211
 2878POPC   D2A39460  28.212  37.877   6.528
 2878POPC   C3A39461  28.287  37.646   6.892
 2878POPC   C4A39462  28.166  37.784   7.263
 2878POPC   C1B39463  28.909  37.560   6.182
 2878POPC   C2B39464  28.733  37.544   6.616
 2878POPC   C3B39465  28.806  37.486   7.045
 2878POPC   C4B39466  28.691  37.781   7.343
 2879POPC   NC339467  31.306  15.389   5.259
 2879POPC   PO439468  31.923  15.136   5.422
 2879POPC   GL139469  31.592  15.284   5.674
 2879POPC   GL239470  31.589  14.983   5.831
 2879POPC   C1A39471  31.366  15.376   6.071
 2879POPC   D2A39472  31.230  15.146   6.430
 2879POPC   C3A39473  31.400  15.193   6.813
 2879POPC   C4A39474  31.318  15.242   7.241
 2879POPC   C1B39475  31.735  15.083   6.264
 2879POPC   C2B39476  31.897  15.148   6.676
 2879POPC   C3B39477  31.814  15.245   7.100
 2879POPC   C4B39478  32.066  15.053   7.354
 2880POPC   NC339479  44.872  35.561   5.207
 2880POPC   PO439480  44.392  35.202   5.483
 2880POPC   GL139481  44.669  35.299   5.816
 2880POPC   GL239482  44.951  35.524   5.814
 2880POPC   C1A39483  44.610  35.366   6.262
 2880POPC   D2A39484  44.828  35.276   6.640
 2880POPC   C3A39485  44.704  35.329   7.081
 2880POPC   C4A39486  44.398  35.055   7.323
 2880POPC   C1B39487  44.962  35.752   6.221
 2880POPC   C2B39488  44.770  35.780   6.642
 2880POPC   C3B39489   0.059  35.792   6.977
 2880POPC   C4B39490   0.050  35.613   7.361
 2881POPC   NC339491   5.389  14.802   5.446
 2881POPC   PO439492   5.011  14.303   5.400
 2881POPC   GL139493   5.125  14.255   5.833
 2881POPC   GL239494   5.352  14.021   5.689
 2881POPC   C1A39495   5.053  14.200   6.310
 2881POPC   D2A39496   4.813  14.379   6.691
 2881POPC   C3A39497   5.033  14.366   7.120
 2881POPC   C4A39498   5.014  14.325   7.624
 2881POPC   C1B39499   5.381  13.869   6.090
 2881POPC   C2B39500   5.344  13.771   6.531
 2881POPC   C3B39501   5.358  13.975   6.940
 2881POPC   C4B39502   5.191  13.927   7.364
 2882POPC   NC339503  19.298  22.766   5.089
 2882POPC   PO439504  19.109  22.177   5.369
 2882POPC   GL139505  19.062  22.094   5.836
 2882POPC   GL239506  18.796  22.298   5.910
 2882POPC   C1A39507  19.002  21.902   6.270
 2882POPC   D2A39508  18.959  21.847   6.727
 2882POPC   C3A39509  19.091  22.145   6.990
 2882POPC   C4A39510  19.097  22.212   7.419
 2882POPC   C1B39511  18.926  22.413   6.356
 2882POPC   C2B39512  18.951  22.589   6.768
 2882POPC   C3B39513  18.781  22.546   7.187
 2882POPC   C4B39514  18.597  22.144   7.410
 2883POPC   NC339515  12.737  18.527   5.505
 2883POPC   PO439516  13.230  17.918   5.522
 2883POPC   GL139517  12.963  18.076   5.894
 2883POPC   GL239518  12.626  17.908   5.960
 2883POPC   C1A39519  12.920  18.171   6.342
 2883POPC   D2A39520  13.072  17.984   6.716
 2883POPC   C3A39521  13.032  18.332   7.020
 2883POPC   C4A39522  13.277  18.419   7.393
 2883POPC   C1B39523  12.430  18.138   6.289
 2883POPC   C2B39524  12.563  18.307   6.709
 2883POPC   C3B39525  12.457  18.377   7.154
 2883POPC   C4B39526  12.363  18.106   7.508
 2884POPC   NC339527  36.728  29.476   5.530
 2884POPC   PO439528  37.110  28.930   5.395
 2884POPC   GL139529  36.811  29.005   5.762
 2884POPC   GL239530  37.068  29.246   5.857
 2884POPC   C1A39531  36.729  29.201   6.214
 2884POPC   D2A39532  37.006  29.289   6.555
 2884POPC   C3A39533  36.897  29.176   6.969
 2884POPC   C4A39534  36.570  29.060   7.224
 2884POPC   C1B39535  37.098  28.862   6.180
 2884POPC   C2B39536  37.194  28.742   6.629
 2884POPC   C3B39537  37.158  28.702   7.085
 2884POPC   C4B39538  37.089  28.982   7.418
 2885POPC   NC339539   2.319  34.017   5.516
 2885POPC   PO439540   2.961  34.161   5.333
 2885POPC   GL139541   2.855  34.226   5.787
 2885POPC   GL239542   2.522  34.159   5.957
 2885POPC   C1A39543   3.030  34.088   6.179
 2885POPC   D2A39544   2.990  33.855   6.571
 2885POPC   C3A39545   2.973  34.060   6.963
 2885POPC   C4A39546   2.870  34.003   7.374
 2885POPC   C1B39547   2.536  33.916   6.335
 2885POPC   C2B39548   2.474  34.053   6.771
 2885POPC   C3B39549   2.464  33.762   7.080
 2885POPC   C4B39550   2.360  33.310   7.067
 2886POPC   NC339551  39.249   3.138   5.590
 2886POPC   PO439552  38.912   2.578   5.301
 2886POPC   GL139553  39.189   2.604   5.695
 2886POPC   GL239554  39.062   2.859   5.950
 2886POPC   C1A39555  39.331   2.493   6.139
 2886POPC   D2A39556  39.135   2.708   6.508
 2886POPC   C3A39557  39.312   2.657   6.929
 2886POPC   C4A39558  39.574   2.894   7.209
 2886POPC   C1B39559  38.723   2.842   6.208
 2886POPC   C2B39560  38.653   3.009   6.605
 2886POPC   C3B39561  38.987   3.078   6.866
 2886POPC   C4B39562  39.100   3.002   7.255
 2887POPC   NC339563  17.531  32.164   5.354
 2887POPC   PO439564  17.191  32.748   5.483
 2887POPC   GL139565  17.315  32.401   5.812
 2887POPC   GL239566  17.655  32.161   5.838
 2887POPC   C1A39567  17.529  32.457   6.216
 2887POPC   D2A39568  17.659  32.233   6.585
 2887POPC   C3A39569  17.475  32.424   6.923
 2887POPC   C4A39570  17.190  32.302   7.226
 2887POPC   C1B39571  17.550  31.877   6.195
 2887POPC   C2B39572  17.260  31.829   6.582
 2887POPC   C3B39573  17.315  31.841   7.034
 2887POPC   C4B39574  17.662  32.049   7.214
 2888POPC   NC339575  44.281   0.321   5.378
 2888POPC   PO439576  43.552   0.496   5.372
 2888POPC   GL139577  43.705   0.420   5.795
 2888POPC   GL239578  44.038   0.446   5.822
 2888POPC   C1A39579  43.723   0.523   6.259
 2888POPC   D2A39580  43.669   0.604   6.711
 2888POPC   C3A39581  43.855   0.422   7.117
 2888POPC   C4A39582  43.848   0.661   7.486
 2888POPC   C1B39583  44.195   0.303   6.235
 2888POPC   C2B39584  44.103   0.271   6.696
 2888POPC   C3B39585  44.273   0.093   7.097
 2888POPC   C4B39586  44.291   0.189   7.552
 2889POPC   NC339587  23.305  32.256   5.210
 2889POPC   PO439588  23.768  32.751   5.279
 2889POPC   GL139589  23.647  32.574   5.728
 2889POPC   GL239590  23.392  32.259   5.730
 2889POPC   C1A39591  23.866  32.556   6.171
 2889POPC   D2A39592  24.109  32.306   6.520
 2889POPC   C3A39593  23.976  32.042   6.872
 2889POPC   C4A39594  23.736  32.113   7.247
 2889POPC   C1B39595  23.374  32.393   6.190
 2889POPC   C2B39596  23.505  32.548   6.632
 2889POPC   C3B39597  23.394  32.476   7.108
 2889POPC   C4B39598  23.482  32.402   7.573
 2890POPC   NC339599  22.280   0.270   5.561
 2890POPC   PO439600  22.017   0.831   5.422
 2890POPC   GL139601  22.078   0.697   5.859
 2890POPC   GL239602  22.389   0.553   5.999
 2890POPC   C1A39603  21.968   0.611   6.311
 2890POPC   D2A39604  22.150   0.508   6.728
 2890POPC   C3A39605  21.843   0.633   7.059
 2890POPC   C4A39606  21.849   0.684   7.569
 2890POPC   C1B39607  22.304   0.183   6.261
 2890POPC   C2B39608  22.419   0.018   6.676
 2890POPC   C3B39609  22.546   0.267   7.006
 2890POPC   C4B39610  22.240   0.446   7.257
 2891POPC   NC339611  25.659  29.352   5.273
 2891POPC   PO439612  26.292  28.963   5.452
 2891POPC   GL139613  26.064  29.262   5.655
 2891POPC   GL239614  25.917  29.016   5.831
 2891POPC   C1A39615  26.046  29.431   6.070
 2891POPC   D2A39616  26.173  29.259   6.447
 2891POPC   C3A39617  25.970  29.331   6.825
 2891POPC   C4A39618  26.043  29.291   7.253
 2891POPC   C1B39619  26.054  28.823   6.206
 2891POPC   C2B39620  25.900  28.874   6.612
 2891POPC   C3B39621  26.126  28.844   6.979
 2891POPC   C4B39622  25.961  28.799   7.385
 2892POPC   NC339623   8.786   6.222   5.492
 2892POPC   PO439624   9.051   5.685   5.322
 2892POPC   GL139625   9.059   5.643   5.765
 2892POPC   GL239626   9.218   5.952   5.890
 2892POPC   C1A39627   8.912   5.650   6.224
 2892POPC   D2A39628   8.919   5.884   6.654
 2892POPC   C3A39629   8.796   5.692   7.093
 2892POPC   C4A39630   8.833   5.955   7.485
 2892POPC   C1B39631   9.397   5.566   6.124
 2892POPC   C2B39632   9.308   5.412   6.529
 2892POPC   C3B39633   9.286   5.609   6.923
 2892POPC   C4B39634   9.502   5.629   7.300
 2893POPC   NC339635  43.578  16.000   5.700
 2893POPC   PO439636  44.026  16.221   5.243
 2893POPC   GL139637  44.053  16.204   5.699
 2893POPC   GL239638  44.060  15.833   5.691
 2893POPC   C1A39639  43.966  16.263   6.179
 2893POPC   D2A39640  43.709  15.988   6.469
 2893POPC   C3A39641  43.734  15.967   6.923
 2893POPC   C4A39642  43.744  16.307   7.233
 2893POPC   C1B39643  44.252  15.862   6.064
 2893POPC   C2B39644  44.252  15.954   6.488
 2893POPC   C3B39645  44.243  16.169   6.860
 2893POPC   C4B39646  44.147  15.968   7.242
 2894POPC   NC339647  17.017   1.443   5.295
 2894POPC   PO439648  16.848   0.723   5.267
 2894POPC   GL139649  16.838   1.023   5.690
 2894POPC   GL239650  16.531   1.207   5.840
 2894POPC   C1A39651  16.897   1.142   6.187
 2894POPC   D2A39652  16.830   0.994   6.656
 2894POPC   C3A39653  17.034   1.145   7.023
 2894POPC   C4A39654  17.037   1.578   7.141
 2894POPC   C1B39655  16.400   1.054   6.297
 2894POPC   C2B39656  16.289   1.025   6.741
 2894POPC   C3B39657  16.509   1.192   7.116
 2894POPC   C4B39658  16.455   0.965   7.552
 2895POPC   NC339659   3.170   7.291   5.402
 2895POPC   PO439660   3.835   7.482   5.432
 2895POPC   GL139661   3.602   7.398   5.779
 2895POPC   GL239662   3.831   7.222   5.977
 2895POPC   C1A39663   3.524   7.559   6.194
 2895POPC   D2A39664   3.584   7.758   6.573
 2895POPC   C3A39665   3.487   7.539   6.980
 2895POPC   C4A39666   3.588   7.309   7.399
 2895POPC   C1B39667   3.862   7.263   6.447
 2895POPC   C2B39668   3.989   7.553   6.797
 2895POPC   C3B39669   3.978   7.576   7.227
 2895POPC   C4B39670   4.066   7.300   7.587
 2896POPC   NC339671   2.803   8.218   5.467
 2896POPC   PO439672   3.144   7.658   5.676
 2896POPC   GL139673   2.837   7.908   5.876
 2896POPC   GL239674   2.511   7.820   5.886
 2896POPC   C1A39675   2.732   8.295   6.136
 2896POPC   D2A39676   2.880   8.604   6.452
 2896POPC   C3A39677   2.971   8.388   6.816
 2896POPC   C4A39678   2.626   8.308   7.065
 2896POPC   C1B39679   2.684   7.801   6.348
 2896POPC   C2B39680   2.602   7.789   6.784
 2896POPC   C3B39681   2.658   7.804   7.210
 2896POPC   C4B39682   2.899   7.760   7.593
 2897POPC   NC339683  40.496   6.117   5.456
 2897POPC   PO439684  41.153   6.060   5.309
 2897POPC   GL139685  41.004   5.872   5.703
 2897POPC   GL239686  40.656   5.712   5.754
 2897POPC   C1A39687  40.943   5.902   6.147
 2897POPC   D2A39688  40.777   6.030   6.577
 2897POPC   C3A39689  40.993   5.948   6.982
 2897POPC   C4A39690  41.042   6.135   7.404
 2897POPC   C1B39691  40.426   5.930   6.112
 2897POPC   C2B39692  40.264   6.007   6.539
 2897POPC   C3B39693  40.433   5.996   6.965
 2897POPC   C4B39694  40.615   5.853   7.356
 2898POPC   NC339695  34.965   9.177   5.117
 2898POPC   PO439696  35.397   8.622   5.375
 2898POPC   GL139697  35.559   8.659   5.816
 2898POPC   GL239698  35.504   9.016   5.858
 2898POPC   C1A39699  35.689   8.679   6.226
 2898POPC   D2A39700  35.520   8.550   6.626
 2898POPC   C3A39701  35.377   8.858   6.937
 2898POPC   C4A39702  35.052   8.830   7.267
 2898POPC   C1B39703  35.320   9.044   6.288
 2898POPC   C2B39704  35.327   9.308   6.668
 2898POPC   C3B39705  35.131   9.345   7.053
 2898POPC   C4B39706  35.311   9.322   7.428
 2899POPC   NC339707  26.464  37.608   5.437
 2899POPC   PO439708  25.863  37.626   5.430
 2899POPC   GL139709  25.928  37.865   5.786
 2899POPC   GL239710  26.233  38.017   5.710
 2899POPC   C1A39711  25.919  37.763   6.218
 2899POPC   D2A39712  26.227  37.744   6.559
 2899POPC   C3A39713  26.055  37.771   6.967
 2899POPC   C4A39714  25.904  37.670   7.375
 2899POPC   C1B39715  26.385  37.996   6.128
 2899POPC   C2B39716  26.416  38.252   6.510
 2899POPC   C3B39717  26.440  38.091   6.921
 2899POPC   C4B39718  26.370  37.948   7.348
 2900POPC   NC339719  10.608  41.238   5.377
 2900POPC   PO439720  10.537  41.889   5.256
 2900POPC   GL139721  10.646  41.689   5.694
 2900POPC   GL239722  10.484  41.958   5.869
 2900POPC   C1A39723  10.676  41.484   6.139
 2900POPC   D2A39724  10.456  41.373   6.574
 2900POPC   C3A39725  10.676  41.450   7.009
 2900POPC   C4A39726  10.785  41.229   7.402
 2900POPC   C1B39727  10.431  41.938   6.302
 2900POPC   C2B39728  10.552  41.854   6.692
 2900POPC   C3B39729  10.341  41.837   7.045
 2900POPC   C4B39730  10.630  41.902   7.343
 2901POPC   NC339731  23.345  34.929   5.390
 2901POPC   PO439732  22.854  35.401   5.452
 2901POPC   GL139733  23.174  35.429   5.801
 2901POPC   GL239734  23.405  35.124   5.852
 2901POPC   C1A39735  23.029  35.538   6.231
 2901POPC   D2A39736  22.928  35.779   6.595
 2901POPC   C3A39737  22.786  35.567   6.970
 2901POPC   C4A39738  22.942  35.467   7.364
 2901POPC   C1B39739  23.386  35.191   6.290
 2901POPC   C2B39740  23.148  35.266   6.694
 2901POPC   C3B39741  23.291  35.187   7.126
 2901POPC   C4B39742  23.333  35.265   7.603
 2902POPC   NC339743   5.686  20.465   5.313
 2902POPC   PO439744   6.252  20.623   5.299
 2902POPC   GL139745   6.060  20.408   5.712
 2902POPC   GL239746   5.693  20.330   5.817
 2902POPC   C1A39747   6.092  20.278   6.161
 2902POPC   D2A39748   5.755  20.260   6.475
 2902POPC   C3A39749   5.789  20.332   6.945
 2902POPC   C4A39750   5.992  20.638   7.238
 2902POPC   C1B39751   5.696  20.664   6.155
 2902POPC   C2B39752   5.455  20.971   6.454
 2902POPC   C3B39753   5.444  21.120   6.910
 2902POPC   C4B39754   5.603  21.022   7.342
 2903POPC   NC339755   4.654  12.281   5.276
 2903POPC   PO439756   4.166  11.995   5.686
 2903POPC   GL139757   4.357  12.282   5.995
 2903POPC   GL239758   4.630  12.460   5.827
 2903POPC   C1A39759   4.519  12.196   6.383
 2903POPC   D2A39760   4.255  11.944   6.649
 2903POPC   C3A39761   4.208  12.074   7.034
 2903POPC   C4A39762   4.154  11.731   7.259
 2903POPC   C1B39763   4.867  12.588   6.196
 2903POPC   C2B39764   4.823  12.534   6.652
 2903POPC   C3B39765   4.696  12.187   6.887
 2903POPC   C4B39766   4.651  12.014   7.277
 2904POPC   NC339767  21.041  29.235   5.470
 2904POPC   PO439768  21.693  28.968   5.415
 2904POPC   GL139769  21.489  29.212   5.739
 2904POPC   GL239770  21.650  29.517   5.685
 2904POPC   C1A39771  21.313  29.105   6.174
 2904POPC   D2A39772  21.245  28.837   6.560
 2904POPC   C3A39773  21.351  29.010   6.977
 2904POPC   C4A39774  21.292  28.945   7.461
 2904POPC   C1B39775  21.446  29.608   6.090
 2904POPC   C2B39776  21.461  29.462   6.529
 2904POPC   C3B39777  21.387  29.579   6.963
 2904POPC   C4B39778  21.523  29.381   7.351
 2905POPC   NC339779  17.125   7.621   5.161
 2905POPC   PO439780  16.399   7.638   5.362
 2905POPC   GL139781  16.722   7.469   5.693
 2905POPC   GL239782  16.596   7.163   5.888
 2905POPC   C1A39783  16.939   7.478   6.124
 2905POPC   D2A39784  16.748   7.453   6.563
 2905POPC   C3A39785  16.956   7.424   7.019
 2905POPC   C4A39786  17.030   7.419   7.516
 2905POPC   C1B39787  16.410   7.527   6.108
 2905POPC   C2B39788  16.231   7.642   6.508
 2905POPC   C3B39789  16.419   7.575   6.913
 2905POPC   C4B39790  16.506   7.184   7.053
 2906POPC   NC339791  16.996  14.736   5.398
 2906POPC   PO439792  17.543  14.443   5.177
 2906POPC   GL139793  17.535  14.379   5.727
 2906POPC   GL239794  17.790  14.174   5.870
 2906POPC   C1A39795  17.552  14.505   6.213
 2906POPC   D2A39796  17.234  14.649   6.576
 2906POPC   C3A39797  17.353  14.539   6.975
 2906POPC   C4A39798  17.754  14.560   7.112
 2906POPC   C1B39799  17.945  14.155   6.253
 2906POPC   C2B39800  17.916  14.349   6.640
 2906POPC   C3B39801  17.830  14.082   6.957
 2906POPC   C4B39802  17.910  14.122   7.345
 2907POPC   NC339803  11.385   4.757   5.242
 2907POPC   PO439804  11.055   5.217   5.667
 2907POPC   GL139805  11.277   5.056   5.954
 2907POPC   GL239806  11.088   4.724   5.916
 2907POPC   C1A39807  11.327   5.305   6.344
 2907POPC   D2A39808  11.565   5.310   6.733
 2907POPC   C3A39809  11.357   5.236   7.151
 2907POPC   C4A39810  11.543   5.371   7.532
 2907POPC   C1B39811  10.953   4.932   6.322
 2907POPC   C2B39812  11.058   5.069   6.744
 2907POPC   C3B39813  11.029   4.845   7.146
 2907POPC   C4B39814  11.009   4.873   7.628
 2908POPC   NC339815  39.081  33.288   5.424
 2908POPC   PO439816  39.418  32.763   5.332
 2908POPC   GL139817  39.150  32.875   5.728
 2908POPC   GL239818  39.200  33.194   5.900
 2908POPC   C1A39819  39.001  32.799   6.157
 2908POPC   D2A39820  39.273  32.848   6.543
 2908POPC   C3A39821  39.114  32.708   6.918
 2908POPC   C4A39822  39.188  32.719   7.342
 2908POPC   C1B39823  39.100  33.272   6.322
 2908POPC   C2B39824  39.061  33.365   6.748
 2908POPC   C3B39825  39.106  33.176   7.155
 2908POPC   C4B39826  39.084  33.295   7.600
 2909POPC   NC339827  20.978  23.040   5.446
 2909POPC   PO439828  20.407  22.645   5.618
 2909POPC   GL139829  20.614  22.976   5.852
 2909POPC   GL239830  20.915  22.825   5.902
 2909POPC   C1A39831  20.567  23.063   6.305
 2909POPC   D2A39832  20.625  22.877   6.724
 2909POPC   C3A39833  20.688  23.135   7.098
 2909POPC   C4A39834  20.539  23.069   7.531
 2909POPC   C1B39835  20.820  22.601   6.275
 2909POPC   C2B39836  20.484  22.389   6.518
 2909POPC   C3B39837  20.412  22.466   6.946
 2909POPC   C4B39838  20.682  22.650   7.238
 2910POPC   NC339839  19.631  19.485   5.375
 2910POPC   PO439840  20.063  20.060   5.369
 2910POPC   GL139841  20.094  19.930   5.794
 2910POPC   GL239842  20.164  20.246   5.853
 2910POPC   C1A39843  20.157  19.725   6.202
 2910POPC   D2A39844  20.235  19.630   6.643
 2910POPC   C3A39845  19.915  19.556   6.961
 2910POPC   C4A39846  19.935  19.773   7.340
 2910POPC   C1B39847  19.853  20.160   6.190
 2910POPC   C2B39848  19.761  19.907   6.558
 2910POPC   C3B39849  19.661  20.017   6.980
 2910POPC   C4B39850  19.548  20.079   7.417
 2911POPC   NC339851   4.173  11.137   5.417
 2911POPC   PO439852   4.665  11.575   5.486
 2911POPC   GL139853   4.492  11.310   5.806
 2911POPC   GL239854   4.218  11.511   5.832
 2911POPC   C1A39855   4.376  11.131   6.223
 2911POPC   D2A39856   4.258  11.337   6.626
 2911POPC   C3A39857   4.310  11.095   6.985
 2911POPC   C4A39858   4.438  11.305   7.331
 2911POPC   C1B39859   4.380  11.646   6.246
 2911POPC   C2B39860   4.716  11.722   6.556
 2911POPC   C3B39861   4.639  11.605   6.968
 2911POPC   C4B39862   4.881  11.573   7.363
 2912POPC   NC339863   7.249   0.633   5.275
 2912POPC   PO439864   7.637   0.204   5.384
 2912POPC   GL139865   7.454   0.415   5.757
 2912POPC   GL239866   7.124   0.418   5.896
 2912POPC   C1A39867   7.500   0.351   6.218
 2912POPC   D2A39868   7.401   0.191   6.636
 2912POPC   C3A39869   7.586   0.346   6.999
 2912POPC   C4A39870   7.912   0.405   7.287
 2912POPC   C1B39871   7.018   0.450   6.383
 2912POPC   C2B39872   7.212   0.684   6.779
 2912POPC   C3B39873   7.339   0.711   7.241
 2912POPC   C4B39874   7.126   0.722   7.650
 2913POPC   NC339875  26.267  13.496   5.474
 2913POPC   PO439876  25.831  14.028   5.366
 2913POPC   GL139877  25.971  13.778   5.783
 2913POPC   GL239878  26.280  13.552   5.963
 2913POPC   C1A39879  25.881  13.652   6.231
 2913POPC   D2A39880  25.941  13.743   6.647
 2913POPC   C3A39881  25.680  13.485   6.927
 2913POPC   C4A39882  25.545  13.676   7.284
 2913POPC   C1B39883  26.331  13.432   6.390
 2913POPC   C2B39884  26.122  13.288   6.733
 2913POPC   C3B39885  26.151  13.468   7.144
 2913POPC   C4B39886  26.111  13.436   7.596
 2914POPC   NC339887  43.097  30.429   5.325
 2914POPC   PO439888  42.782  29.893   5.206
 2914POPC   GL139889  42.749  29.929   5.671
 2914POPC   GL239890  42.769  29.605   5.873
 2914POPC   C1A39891  42.736  30.068   6.124
 2914POPC   D2A39892  42.696  30.152   6.580
 2914POPC   C3A39893  43.086  30.183   6.811
 2914POPC   C4A39894  43.043  30.062   7.212
 2914POPC   C1B39895  43.099  29.614   6.142
 2914POPC   C2B39896  43.172  29.731   6.554
 2914POPC   C3B39897  42.911  29.698   6.889
 2914POPC   C4B39898  43.033  29.536   7.281
 2915POPC   NC339899   6.360  28.269   5.360
 2915POPC   PO439900   6.964  28.447   5.487
 2915POPC   GL139901   6.593  28.407   5.798
 2915POPC   GL239902   6.319  28.151   5.865
 2915POPC   C1A39903   6.506  28.555   6.218
 2915POPC   D2A39904   6.827  28.520   6.552
 2915POPC   C3A39905   6.779  28.582   7.012
 2915POPC   C4A39906   6.796  28.293   7.375
 2915POPC   C1B39907   6.526  28.049   6.262
 2915POPC   C2B39908   6.445  28.210   6.683
 2915POPC   C3B39909   6.194  28.131   7.045
 2915POPC   C4B39910   6.280  28.242   7.472
 2916POPC   NC339911  23.287  26.413   5.638
 2916POPC   PO439912  23.039  26.904   5.243
 2916POPC   GL139913  23.074  26.900   5.736
 2916POPC   GL239914  23.415  26.913   5.843
 2916POPC   C1A39915  22.876  26.703   6.173
 2916POPC   D2A39916  23.009  26.622   6.607
 2916POPC   C3A39917  22.787  26.771   6.962
 2916POPC   C4A39918  22.850  26.622   7.382
 2916POPC   C1B39919  23.343  26.867   6.287
 2916POPC   C2B39920  23.420  27.029   6.707
 2916POPC   C3B39921  23.249  26.965   7.117
 2916POPC   C4B39922  23.240  26.889   7.559
 2917POPC   NC339923  35.987  28.038   5.276
 2917POPC   PO439924  36.172  28.639   5.210
 2917POPC   GL139925  36.064  28.436   5.644
 2917POPC   GL239926  35.734  28.290   5.674
 2917POPC   C1A39927  36.112  28.447   6.116
 2917POPC   D2A39928  36.316  28.494   6.535
 2917POPC   C3A39929  36.195  28.369   6.942
 2917POPC   C4A39930  36.318  28.355   7.372
 2917POPC   C1B39931  35.883  27.984   5.993
 2917POPC   C2B39932  35.959  28.055   6.442
 2917POPC   C3B39933  35.878  27.986   6.885
 2917POPC   C4B39934  35.866  28.120   7.364
 2918POPC   NC339935  26.184   1.596   5.397
 2918POPC   PO439936  25.886   0.990   5.289
 2918POPC   GL139937  26.078   1.105   5.711
 2918POPC   GL239938  25.950   1.404   5.819
 2918POPC   C1A39939  26.068   1.027   6.203
 2918POPC   D2A39940  26.186   1.241   6.630
 2918POPC   C3A39941  26.240   1.103   7.087
 2918POPC   C4A39942  26.242   1.107   7.549
 2918POPC   C1B39943  25.815   1.644   6.167
 2918POPC   C2B39944  25.963   1.714   6.594
 2918POPC   C3B39945  25.766   1.591   6.973
 2918POPC   C4B39946  25.989   1.481   7.342
 2919POPC   NC339947  21.903  13.464   5.416
 2919POPC   PO439948  22.407  13.854   5.179
 2919POPC   GL139949  22.291  13.828   5.614
 2919POPC   GL239950  21.921  13.893   5.707
 2919POPC   C1A39951  22.437  13.590   6.007
 2919POPC   D2A39952  22.306  13.451   6.428
 2919POPC   C3A39953  22.362  13.638   6.848
 2919POPC   C4A39954  22.289  13.571   7.276
 2919POPC   C1B39955  21.918  13.621   6.097
 2919POPC   C2B39956  21.843  13.616   6.559
 2919POPC   C3B39957  21.910  13.361   6.952
 2919POPC   C4B39958  21.751  13.472   7.386
 2920POPC   NC339959   4.042  44.676   5.171
 2920POPC   PO439960   4.500   0.015   5.460
 2920POPC   GL139961   4.402  44.681   5.751
 2920POPC   GL239962   4.020  44.610   5.698
 2920POPC   C1A39963   4.540  44.722   6.211
 2920POPC   D2A39964   4.502   0.032   6.500
 2920POPC   C3A39965   4.438  44.813   6.857
 2920POPC   C4A39966   4.643  44.738   7.222
 2920POPC   C1B39967   4.095  44.482   6.101
 2920POPC   C2B39968   4.096  44.671   6.471
 2920POPC   C3B39969   4.091  44.441   6.799
 2920POPC   C4B39970   4.378  44.299   7.077
 2921POPC   NC339971   7.623   3.020   5.467
 2921POPC   PO439972   8.301   2.643   5.394
 2921POPC   GL139973   8.037   2.732   5.757
 2921POPC   GL239974   8.009   3.076   5.782
 2921POPC   C1A39975   8.067   2.740   6.229
 2921POPC   D2A39976   8.176   2.665   6.673
 2921POPC   C3A39977   8.159   2.861   7.099
 2921POPC   C4A39978   8.220   2.693   7.573
 2921POPC   C1B39979   8.221   3.217   6.128
 2921POPC   C2B39980   8.448   3.139   6.507
 2921POPC   C3B39981   8.565   3.167   6.930
 2921POPC   C4B39982   8.571   3.010   7.362
 2922POPC   NC339983   0.463  31.498   5.392
 2922POPC   PO439984  44.913  31.893   5.398
 2922POPC   GL139985   0.164  31.676   5.786
 2922POPC   GL239986   0.529  31.727   5.849
 2922POPC   C1A39987   0.366  31.445   6.197
 2922POPC   D2A39988   0.353  31.647   6.608
 2922POPC   C3A39989   0.177  31.418   6.955
 2922POPC   C4A39990   0.376  31.173   7.232
 2922POPC   C1B39991   0.811  31.683   6.214
 2922POPC   C2B39992   0.825  31.463   6.600
 2922POPC   C3B39993   0.681  31.496   6.994
 2922POPC   C4B39994   0.724  31.605   7.400
 2923POPC   NC339995  22.016  25.388   5.363
 2923POPC   PO439996  22.785  25.332   5.469
 2923POPC   GL139997  22.434  25.438   5.763
 2923POPC   GL239998  22.156  25.200   5.812
 2923POPC   C1A39999  22.247  25.519   6.185
 2923POPC   D2A40000  22.081  25.203   6.483
 2923POPC   C3A40001  22.211  25.330   6.911
 2923POPC   C4A40002  21.997  25.167   7.288
 2923POPC   C1B40003  22.462  25.058   6.131
 2923POPC   C2B40004  22.506  24.964   6.599
 2923POPC   C3B40005  22.271  24.838   6.961
 2923POPC   C4B40006  22.406  24.863   7.409
 2924POPC   NC340007   7.079  36.227   5.521
 2924POPC   PO440008   7.586  35.879   5.547
 2924POPC   GL140009   7.651  36.092   5.931
 2924POPC   GL240010   7.309  36.194   5.988
 2924POPC   C1A40011   7.790  36.204   6.357
 2924POPC   D2A40012   7.556  36.310   6.741
 2924POPC   C3A40013   7.698  36.198   7.156
 2924POPC   C4A40014   7.551  36.044   7.568
 2924POPC   C1B40015   6.932  36.005   6.181
 2924POPC   C2B40016   6.902  35.902   6.619
 2924POPC   C3B40017   7.182  35.966   6.966
 2924POPC   C4B40018   7.089  35.946   7.386
 2925POPC   NC340019  35.856  43.517   5.719
 2925POPC   PO440020  35.384  43.217   5.331
 2925POPC   GL140021  35.327  43.068   5.749
 2925POPC   GL240022  35.621  43.137   5.953
 2925POPC   C1A40023  35.190  43.086   6.197
 2925POPC   D2A40024  35.470  43.099   6.551
 2925POPC   C3A40025  35.330  43.033   6.937
 2925POPC   C4A40026  35.145  42.792   7.228
 2925POPC   C1B40027  35.518  43.506   6.255
 2925POPC   C2B40028  35.675  43.591   6.679
 2925POPC   C3B40029  35.726  43.334   7.077
 2925POPC   C4B40030  35.672  43.359   7.604
 2926POPC   NC340031  20.277  13.382   5.137
 2926POPC   PO440032  19.971  13.882   5.566
 2926POPC   GL140033  19.809  13.692   5.928
 2926POPC   GL240034  19.577  13.429   5.820
 2926POPC   C1A40035  19.810  13.828   6.343
 2926POPC   D2A40036  20.007  13.950   6.701
 2926POPC   C3A40037  19.761  13.793   6.996
 2926POPC   C4A40038  19.699  13.927   7.407
 2926POPC   C1B40039  19.687  13.300   6.219
 2926POPC   C2B40040  19.550  13.448   6.597
 2926POPC   C3B40041  19.564  13.197   6.935
 2926POPC   C4B40042  19.846  13.346   7.240
 2927POPC   NC340043  36.710   9.828   5.083
 2927POPC   PO440044  37.210   9.447   5.331
 2927POPC   GL140045  37.179   9.698   5.726
 2927POPC   GL240046  36.834   9.795   5.751
 2927POPC   C1A40047  37.178   9.886   6.166
 2927POPC   D2A40048  37.267   9.837   6.635
 2927POPC   C3A40049  36.911   9.748   6.938
 2927POPC   C4A40050  36.581   9.725   7.251
 2927POPC   C1B40051  36.857   9.487   6.136
 2927POPC   C2B40052  36.683   9.484   6.582
 2927POPC   C3B40053  36.631   9.261   7.031
 2927POPC   C4B40054  36.633   9.298   7.534
 2928POPC   NC340055  21.757  33.126   5.450
 2928POPC   PO440056  22.403  32.978   5.357
 2928POPC   GL140057  22.242  33.090   5.731
 2928POPC   GL240058  22.592  33.234   5.784
 2928POPC   C1A40059  21.934  33.080   6.076
 2928POPC   D2A40060  22.104  33.123   6.467
 2928POPC   C3A40061  22.025  33.016   6.879
 2928POPC   C4A40062  22.185  33.135   7.240
 2928POPC   C1B40063  22.524  33.041   6.170
 2928POPC   C2B40064  22.541  32.877   6.570
 2928POPC   C3B40065  22.598  33.070   6.942
 2928POPC   C4B40066  22.585  32.862   7.358
 2929POPC   NC340067   1.210  21.565   4.976
 2929POPC   PO440068   1.629  21.193   5.366
 2929POPC   GL140069   1.375  21.371   5.710
 2929POPC   GL240070   1.045  21.480   5.726
 2929POPC   C1A40071   1.326  21.456   6.168
 2929POPC   D2A40072   1.189  21.309   6.585
 2929POPC   C3A40073   1.268  21.528   6.991
 2929POPC   C4A40074   1.256  21.408   7.458
 2929POPC   C1B40075   0.892  21.733   6.068
 2929POPC   C2B40076   1.022  21.797   6.485
 2929POPC   C3B40077   0.870  21.823   6.904
 2929POPC   C4B40078   0.857  21.677   7.320
 2930POPC   NC340079  30.161  34.344   5.385
 2930POPC   PO440080  29.766  34.951   5.428
 2930POPC   GL140081  29.770  34.671   5.817
 2930POPC   GL240082  30.141  34.650   5.819
 2930POPC   C1A40083  29.849  34.511   6.284
 2930POPC   D2A40084  29.621  34.336   6.669
 2930POPC   C3A40085  29.701  34.505   7.102
 2930POPC   C4A40086  29.841  34.351   7.510
 2930POPC   C1B40087  30.224  34.260   6.037
 2930POPC   C2B40088  30.214  34.160   6.477
 2930POPC   C3B40089  30.104  34.398   6.813
 2930POPC   C4B40090  30.201  34.568   7.218
 2931POPC   NC340091  13.823  30.850   5.299
 2931POPC   PO440092  13.143  30.943   5.310
 2931POPC   GL140093  13.430  30.833   5.716
 2931POPC   GL240094  13.807  30.874   5.803
 2931POPC   C1A40095  13.535  30.583   6.127
 2931POPC   D2A40096  13.815  30.616   6.487
 2931POPC   C3A40097  13.587  30.505   6.875
 2931POPC   C4A40098  13.727  30.314   7.260
 2931POPC   C1B40099  13.601  31.079   6.169
 2931POPC   C2B40100  13.438  30.945   6.576
 2931POPC   C3B40101  13.567  31.015   7.002
 2931POPC   C4B40102  13.381  31.318   7.263
 2932POPC   NC340103   3.197  35.966   5.255
 2932POPC   PO440104   3.660  36.361   5.453
 2932POPC   GL140105   3.543  36.163   5.825
 2932POPC   GL240106   3.212  36.350   5.871
 2932POPC   C1A40107   3.696  35.822   6.162
 2932POPC   D2A40108   3.781  35.587   6.632
 2932POPC   C3A40109   3.878  35.889   7.000
 2932POPC   C4A40110   3.722  36.301   7.200
 2932POPC   C1B40111   3.191  36.015   6.158
 2932POPC   C2B40112   3.377  35.887   6.546
 2932POPC   C3B40113   3.382  35.989   6.956
 2932POPC   C4B40114   3.270  36.080   7.333
 2933POPC   NC340115  36.494  38.251   5.029
 2933POPC   PO440116  37.075  38.345   5.423
 2933POPC   GL140117  36.867  38.524   5.758
 2933POPC   GL240118  37.195  38.476   5.904
 2933POPC   C1A40119  36.681  38.554   6.176
 2933POPC   D2A40120  36.808  38.443   6.590
 2933POPC   C3A40121  36.545  38.454   6.935
 2933POPC   C4A40122  36.654  38.617   7.310
 2933POPC   C1B40123  37.171  38.256   6.271
 2933POPC   C2B40124  37.177  38.005   6.607
 2933POPC   C3B40125  37.205  38.173   7.029
 2933POPC   C4B40126  37.344  38.452   7.382
 2934POPC   NC340127  43.410  20.360   5.634
 2934POPC   PO440128  43.852  20.709   5.257
 2934POPC   GL140129  43.951  20.788   5.687
 2934POPC   GL240130  44.306  20.904   5.701
 2934POPC   C1A40131  43.803  20.626   6.103
 2934POPC   D2A40132  43.954  20.427   6.487
 2934POPC   C3A40133  43.817  20.613   6.848
 2934POPC   C4A40134  43.783  20.460   7.217
 2934POPC   C1B40135  44.317  20.723   6.179
 2934POPC   C2B40136  44.376  20.718   6.657
 2934POPC   C3B40137  44.253  20.686   7.113
 2934POPC   C4B40138  44.192  20.399   7.511
 2935POPC   NC340139   7.325  41.846   5.561
 2935POPC   PO440140   7.168  41.287   5.576
 2935POPC   GL140141   7.422  41.483   5.910
 2935POPC   GL240142   7.687  41.752   5.890
 2935POPC   C1A40143   7.263  41.534   6.318
 2935POPC   D2A40144   7.155  41.209   6.601
 2935POPC   C3A40145   7.259  41.237   6.985
 2935POPC   C4A40146   7.563  41.385   7.183
 2935POPC   C1B40147   7.777  41.619   6.285
 2935POPC   C2B40148   7.652  41.533   6.688
 2935POPC   C3B40149   7.822  41.772   6.999
 2935POPC   C4B40150   7.652  41.870   7.357
 2936POPC   NC340151  29.279  27.783   5.337
 2936POPC   PO440152  29.166  27.287   5.738
 2936POPC   GL140153  28.977  27.671   5.769
 2936POPC   GL240154  29.267  27.908   5.837
 2936POPC   C1A40155  28.833  27.731   6.192
 2936POPC   D2A40156  28.985  27.742   6.656
 2936POPC   C3A40157  28.867  27.498   7.054
 2936POPC   C4A40158  28.972  27.510   7.485
 2936POPC   C1B40159  29.359  27.777   6.257
 2936POPC   C2B40160  29.519  27.733   6.696
 2936POPC   C3B40161  29.377  27.608   7.123
 2936POPC   C4B40162  29.464  27.610   7.588
 2937POPC   NC340163  34.344  42.920   5.439
 2937POPC   PO440164  34.739  43.417   5.301
 2937POPC   GL140165  34.804  43.301   5.695
 2937POPC   GL240166  34.838  42.974   5.796
 2937POPC   C1A40167  34.489  43.251   6.038
 2937POPC   D2A40168  34.614  43.304   6.453
 2937POPC   C3A40169  34.461  43.166   6.857
 2937POPC   C4A40170  34.523  43.386   7.244
 2937POPC   C1B40171  34.761  42.825   6.243
 2937POPC   C2B40172  34.870  42.899   6.689
 2937POPC   C3B40173  34.660  42.760   7.090
 2937POPC   C4B40174  34.706  42.912   7.544
 2938POPC   NC340175  37.399   1.539   5.527
 2938POPC   PO440176  37.776   1.024   5.318
 2938POPC   GL140177  37.508   0.989   5.694
 2938POPC   GL240178  37.690   1.204   5.853
 2938POPC   C1A40179  37.351   1.007   6.163
 2938POPC   D2A40180  37.280   1.128   6.601
 2938POPC   C3A40181  37.481   1.398   6.882
 2938POPC   C4A40182  37.494   1.339   7.327
 2938POPC   C1B40183  37.891   1.303   6.244
 2938POPC   C2B40184  37.917   1.197   6.679
 2938POPC   C3B40185  37.946   1.359   7.088
 2938POPC   C4B40186  37.983   1.308   7.490
 2939POPC   NC340187   0.444  18.004   5.519
 2939POPC   PO440188   0.561  18.559   5.197
 2939POPC   GL140189   0.580  18.524   5.703
 2939POPC   GL240190   0.253  18.366   5.840
 2939POPC   C1A40191   0.612  18.435   6.206
 2939POPC   D2A40192   0.802  18.289   6.613
 2939POPC   C3A40193   0.547  18.430   6.957
 2939POPC   C4A40194   0.375  18.227   7.286
 2939POPC   C1B40195   0.227  18.048   6.178
 2939POPC   C2B40196   0.323  18.107   6.618
 2939POPC   C3B40197   0.199  17.871   6.985
 2939POPC   C4B40198   0.080  17.849   7.436
 2940POPC   NC340199  19.854  22.024   5.464
 2940POPC   PO440200  19.649  22.671   5.388
 2940POPC   GL140201  19.837  22.432   5.755
 2940POPC   GL240202  19.535  22.267   5.799
 2940POPC   C1A40203  19.892  22.131   6.146
 2940POPC   D2A40204  19.932  22.148   6.599
 2940POPC   C3A40205  19.945  21.745   6.798
 2940POPC   C4A40206  19.800  21.719   7.194
 2940POPC   C1B40207  19.400  22.265   6.231
 2940POPC   C2B40208  19.456  22.363   6.678
 2940POPC   C3B40209  19.581  22.175   7.105
 2940POPC   C4B40210  19.561  22.354   7.545
 2941POPC   NC340211  25.963  41.119   5.055
 2941POPC   PO440212  25.991  40.607   5.474
 2941POPC   GL140213  26.092  40.820   5.830
 2941POPC   GL240214  26.321  41.059   5.701
 2941POPC   C1A40215  26.001  40.753   6.257
 2941POPC   D2A40216  25.926  40.826   6.684
 2941POPC   C3A40217  26.066  40.705   7.101
 2941POPC   C4A40218  25.787  40.781   7.456
 2941POPC   C1B40219  26.438  41.164   6.131
 2941POPC   C2B40220  26.365  41.032   6.556
 2941POPC   C3B40221  26.230  41.179   6.972
 2941POPC   C4B40222  26.304  41.076   7.395
 2942POPC   NC340223  36.954   6.410   5.322
 2942POPC   PO440224  36.653   7.052   5.210
 2942POPC   GL140225  36.600   6.913   5.683
 2942POPC   GL240226  36.719   6.560   5.799
 2942POPC   C1A40227  36.522   6.939   6.155
 2942POPC   D2A40228  36.352   6.934   6.608
 2942POPC   C3A40229  36.645   6.822   6.973
 2942POPC   C4A40230  36.752   6.424   7.163
 2942POPC   C1B40231  36.921   6.474   6.234
 2942POPC   C2B40232  37.134   6.204   6.583
 2942POPC   C3B40233  37.245   6.282   7.003
 2942POPC   C4B40234  37.220   6.739   7.051
 2943POPC   NC340235  17.384  33.913   5.144
 2943POPC   PO440236  17.753  33.565   5.609
 2943POPC   GL140237  17.596  33.732   5.985
 2943POPC   GL240238  17.573  34.028   5.839
 2943POPC   C1A40239  17.780  33.722   6.365
 2943POPC   D2A40240  18.023  33.658   6.704
 2943POPC   C3A40241  17.659  33.598   6.942
 2943POPC   C4A40242  17.531  33.705   7.342
 2943POPC   C1B40243  17.571  34.186   6.262
 2943POPC   C2B40244  17.466  34.049   6.686
 2943POPC   C3B40245  17.393  34.117   7.105
 2943POPC   C4B40246  17.318  34.146   7.535
 2944POPC   NC340247  38.505  22.737   5.348
 2944POPC   PO440248  38.580  23.419   5.372
 2944POPC   GL140249  38.392  23.267   5.805
 2944POPC   GL240250  38.360  22.877   5.837
 2944POPC   C1A40251  38.279  23.165   6.259
 2944POPC   D2A40252  38.538  22.881   6.525
 2944POPC   C3A40253  38.742  22.972   6.901
 2944POPC   C4A40254  38.672  23.318   7.140
 2944POPC   C1B40255  38.223  22.623   6.231
 2944POPC   C2B40256  38.105  22.689   6.720
 2944POPC   C3B40257  38.291  22.822   7.133
 2944POPC   C4B40258  38.232  22.735   7.624
 2945POPC   NC340259  42.711   1.582   5.082
 2945POPC   PO440260  42.676   0.978   5.367
 2945POPC   GL140261  42.377   1.114   5.727
 2945POPC   GL240262  42.545   1.350   5.994
 2945POPC   C1A40263  42.201   1.031   6.155
 2945POPC   D2A40264  42.311   0.952   6.560
 2945POPC   C3A40265  42.083   1.073   6.874
 2945POPC   C4A40266  42.232   1.181   7.269
 2945POPC   C1B40267  42.211   1.571   6.119
 2945POPC   C2B40268  42.179   1.493   6.539
 2945POPC   C3B40269  42.496   1.365   6.828
 2945POPC   C4B40270  42.647   1.482   7.200
 2946POPC   NC340271  40.013  11.871   5.432
 2946POPC   PO440272  40.136  11.207   5.324
 2946POPC   GL140273  39.884  11.433   5.747
 2946POPC   GL240274  40.121  11.665   5.884
 2946POPC   C1A40275  39.791  11.530   6.273
 2946POPC   D2A40276  39.915  11.495   6.778
 2946POPC   C3A40277  39.785  11.247   7.180
 2946POPC   C4A40278  39.800  11.359   7.658
 2946POPC   C1B40279  40.193  11.870   6.270
 2946POPC   C2B40280  40.384  11.754   6.669
 2946POPC   C3B40281  40.350  11.584   7.092
 2946POPC   C4B40282  40.006  11.694   7.339
 2947POPC   NC340283   6.489   5.060   5.427
 2947POPC   PO440284   7.115   5.172   5.392
 2947POPC   GL140285   6.871   5.108   5.790
 2947POPC   GL240286   6.520   5.116   5.913
 2947POPC   C1A40287   6.891   4.932   6.200
 2947POPC   D2A40288   6.610   4.935   6.542
 2947POPC   C3A40289   6.881   4.866   6.861
 2947POPC   C4A40290   6.952   4.964   7.263
 2947POPC   C1B40291   6.669   5.407   6.196
 2947POPC   C2B40292   6.459   5.423   6.580
 2947POPC   C3B40293   6.546   5.351   6.954
 2947POPC   C4B40294   6.250   5.350   7.268
 2948POPC   NC340295  33.319   6.816   5.481
 2948POPC   PO440296  34.043   6.528   5.326
 2948POPC   GL140297  34.002   6.676   5.752
 2948POPC   GL240298  33.698   6.815   5.813
 2948POPC   C1A40299  34.049   6.512   6.161
 2948POPC   D2A40300  33.977   6.337   6.566
 2948POPC   C3A40301  34.024   6.460   6.961
 2948POPC   C4A40302  33.620   6.596   7.164
 2948POPC   C1B40303  33.850   6.986   6.193
 2948POPC   C2B40304  34.090   6.852   6.547
 2948POPC   C3B40305  33.919   6.949   6.915
 2948POPC   C4B40306  34.046   6.817   7.322
 2949POPC   NC340307  42.568   2.256   5.340
 2949POPC   PO440308  42.393   1.551   5.413
 2949POPC   GL140309  42.489   1.852   5.707
 2949POPC   GL240310  42.179   2.060   5.632
 2949POPC   C1A40311  42.606   1.924   6.149
 2949POPC   D2A40312  42.330   1.994   6.510
 2949POPC   C3A40313  42.420   1.867   6.908
 2949POPC   C4A40314  42.577   1.983   7.283
 2949POPC   C1B40315  42.106   2.062   6.058
 2949POPC   C2B40316  41.969   2.335   6.419
 2949POPC   C3B40317  42.020   2.227   6.874
 2949POPC   C4B40318  42.064   2.004   7.276
 2950POPC   NC340319  10.876  21.067   5.459
 2950POPC   PO440320  10.287  21.385   5.243
 2950POPC   GL140321  10.345  21.490   5.670
 2950POPC   GL240322  10.699  21.447   5.757
 2950POPC   C1A40323  10.333  21.428   6.122
 2950POPC   D2A40324  10.550  21.558   6.431
 2950POPC   C3A40325  10.524  21.472   6.839
 2950POPC   C4A40326  10.466  21.609   7.257
 2950POPC   C1B40327  10.758  21.151   6.135
 2950POPC   C2B40328  10.502  20.983   6.459
 2950POPC   C3B40329  10.595  20.942   6.898
 2950POPC   C4B40330  10.877  21.236   7.142
 2951POPC   NC340331  28.512  27.455   4.928
 2951POPC   PO440332  28.423  27.894   5.437
 2951POPC   GL140333  28.244  27.651   5.747
 2951POPC   GL240334  28.439  27.357   5.799
 2951POPC   C1A40335  28.309  27.770   6.169
 2951POPC   D2A40336  28.526  27.972   6.518
 2951POPC   C3A40337  28.471  27.745   6.867
 2951POPC   C4A40338  28.301  27.771   7.267
 2951POPC   C1B40339  28.537  27.296   6.251
 2951POPC   C2B40340  28.572  27.226   6.696
 2951POPC   C3B40341  28.346  27.296   7.070
 2951POPC   C4B40342  28.506  27.347   7.505
 2952POPC   NC340343  31.065  17.768   5.682
 2952POPC   PO440344  30.542  17.342   5.460
 2952POPC   GL140345  30.733  17.372   5.853
 2952POPC   GL240346  30.534  17.694   5.873
 2952POPC   C1A40347  30.778  17.360   6.316
 2952POPC   D2A40348  30.467  17.378   6.659
 2952POPC   C3A40349  30.583  17.400   7.103
 2952POPC   C4A40350  30.460  17.156   7.464
 2952POPC   C1B40351  30.671  17.872   6.256
 2952POPC   C2B40352  31.028  17.828   6.519
 2952POPC   C3B40353  31.051  17.576   6.877
 2952POPC   C4B40354  31.173  17.664   7.278
 2953POPC   NC340355  16.718  15.467   4.964
 2953POPC   PO440356  16.583  14.829   5.198
 2953POPC   GL140357  16.714  15.075   5.645
 2953POPC   GL240358  16.435  15.040   5.908
 2953POPC   C1A40359  16.863  15.222   6.060
 2953POPC   D2A40360  16.804  14.995   6.440
 2953POPC   C3A40361  16.629  15.232   6.794
 2953POPC   C4A40362  16.759  15.209   7.224
 2953POPC   C1B40363  16.295  14.987   6.335
 2953POPC   C2B40364  16.220  14.926   6.784
 2953POPC   C3B40365  16.428  14.813   7.165
 2953POPC   C4B40366  16.460  14.995   7.577
 2954POPC   NC340367   6.379  14.667   5.413
 2954POPC   PO440368   6.918  14.201   5.343
 2954POPC   GL140369   6.728  14.367   5.719
 2954POPC   GL240370   6.393  14.221   5.701
 2954POPC   C1A40371   6.758  14.305   6.182
 2954POPC   D2A40372   6.871  14.107   6.605
 2954POPC   C3A40373   6.906  14.445   6.933
 2954POPC   C4A40374   6.653  14.555   7.279
 2954POPC   C1B40375   6.246  14.146   6.128
 2954POPC   C2B40376   6.344  14.074   6.557
 2954POPC   C3B40377   6.435  14.189   6.970
 2954POPC   C4B40378   6.213  13.961   7.244
 2955POPC   NC340379   5.088  17.101   5.185
 2955POPC   PO440380   5.368  17.610   5.579
 2955POPC   GL140381   5.119  17.684   5.912
 2955POPC   GL240382   4.763  17.689   5.767
 2955POPC   C1A40383   5.341  17.731   6.309
 2955POPC   D2A40384   5.165  17.615   6.709
 2955POPC   C3A40385   5.305  17.538   7.120
 2955POPC   C4A40386   5.045  17.409   7.469
 2955POPC   C1B40387   4.710  17.364   6.119
 2955POPC   C2B40388   4.638  17.389   6.583
 2955POPC   C3B40389   4.833  17.337   7.001
 2955POPC   C4B40390   4.598  17.220   7.375
 2956POPC   NC340391  22.531   1.804   5.512
 2956POPC   PO440392  22.933   2.317   5.285
 2956POPC   GL140393  22.900   2.084   5.750
 2956POPC   GL240394  22.853   1.701   5.884
 2956POPC   C1A40395  22.835   2.035   6.242
 2956POPC   D2A40396  22.793   1.825   6.655
 2956POPC   C3A40397  22.800   2.062   7.056
 2956POPC   C4A40398  22.982   2.082   7.500
 2956POPC   C1B40399  23.069   1.556   6.284
 2956POPC   C2B40400  23.285   1.649   6.702
 2956POPC   C3B40401  23.043   1.628   7.091
 2956POPC   C4B40402  22.757   1.639   7.461
 2957POPC   NC340403   1.323  31.030   5.186
 2957POPC   PO440404   1.134  30.396   5.106
 2957POPC   GL140405   1.149  30.593   5.629
 2957POPC   GL240406   0.950  30.853   5.785
 2957POPC   C1A40407   1.306  30.781   6.132
 2957POPC   D2A40408   1.604  30.879   6.518
 2957POPC   C3A40409   1.407  30.839   6.943
 2957POPC   C4A40410   1.073  30.693   7.236
 2957POPC   C1B40411   0.807  30.636   6.145
 2957POPC   C2B40412   0.818  30.690   6.576
 2957POPC   C3B40413   0.841  30.355   6.843
 2957POPC   C4B40414   0.825  30.241   7.238
 2958POPC   NC340415   3.270  36.667   5.462
 2958POPC   PO440416   3.883  37.134   5.395
 2958POPC   GL140417   3.604  37.046   5.732
 2958POPC   GL240418   3.633  36.700   5.835
 2958POPC   C1A40419   3.390  37.052   6.139
 2958POPC   D2A40420   3.448  36.907   6.585
 2958POPC   C3A40421   3.490  37.182   6.971
 2958POPC   C4A40422   3.727  37.210   7.368
 2958POPC   C1B40423   3.573  36.490   6.242
 2958POPC   C2B40424   3.527  36.409   6.694
 2958POPC   C3B40425   3.371  36.656   7.058
 2958POPC   C4B40426   3.590  36.743   7.468
 2959POPC   NC340427  24.232  12.445   5.288
 2959POPC   PO440428  24.730  12.885   5.335
 2959POPC   GL140429  24.494  12.752   5.704
 2959POPC   GL240430  24.666  12.465   5.814
 2959POPC   C1A40431  24.317  12.854   6.155
 2959POPC   D2A40432  24.269  13.135   6.559
 2959POPC   C3A40433  24.471  13.122   6.992
 2959POPC   C4A40434  24.267  12.908   7.330
 2959POPC   C1B40435  24.785  12.666   6.226
 2959POPC   C2B40436  24.698  12.782   6.693
 2959POPC   C3B40437  24.676  12.645   7.170
 2959POPC   C4B40438  24.663  12.507   7.642
 2960POPC   NC340439  14.557  40.491   5.401
 2960POPC   PO440440  13.911  40.624   5.433
 2960POPC   GL140441  14.209  40.745   5.721
 2960POPC   GL240442  14.115  41.070   5.799
 2960POPC   C1A40443  14.394  40.606   6.118
 2960POPC   D2A40444  14.327  40.714   6.558
 2960POPC   C3A40445  14.437  40.573   6.986
 2960POPC   C4A40446  14.632  40.714   7.374
 2960POPC   C1B40447  14.020  40.955   6.216
 2960POPC   C2B40448  13.880  40.982   6.657
 2960POPC   C3B40449  14.082  40.941   7.063
 2960POPC   C4B40450  14.169  40.860   7.506
 2961POPC   NC340451  18.960  41.828   5.389
 2961POPC   PO440452  18.957  41.170   5.354
 2961POPC   GL140453  18.986  41.428   5.724
 2961POPC   GL240454  19.247  41.701   5.813
 2961POPC   C1A40455  18.922  41.495   6.164
 2961POPC   D2A40456  19.176  41.403   6.513
 2961POPC   C3A40457  19.031  41.496   6.918
 2961POPC   C4A40458  18.836  41.335   7.288
 2961POPC   C1B40459  19.454  41.773   6.243
 2961POPC   C2B40460  19.440  41.808   6.727
 2961POPC   C3B40461  19.462  41.721   7.189
 2961POPC   C4B40462  19.373  41.863   7.649
 2962POPC   NC340463  26.325  40.281   5.540
 2962POPC   PO440464  25.753  39.862   5.338
 2962POPC   GL140465  25.911  39.721   5.743
 2962POPC   GL240466  25.963  40.085   5.844
 2962POPC   C1A40467  26.078  39.719   6.177
 2962POPC   D2A40468  26.036  39.816   6.571
 2962POPC   C3A40469  26.314  39.915   6.865
 2962POPC   C4A40470  26.330  39.724   7.221
 2962POPC   C1B40471  26.044  40.241   6.276
 2962POPC   C2B40472  26.009  40.307   6.764
 2962POPC   C3B40473  25.840  40.253   7.171
 2962POPC   C4B40474  25.788  40.296   7.598
 2963POPC   NC340475  22.631  32.675   5.637
 2963POPC   PO440476  22.831  32.076   5.322
 2963POPC   GL140477  22.806  32.193   5.743
 2963POPC   GL240478  22.458  32.146   5.677
 2963POPC   C1A40479  22.917  32.127   6.192
 2963POPC   D2A40480  23.064  32.296   6.603
 2963POPC   C3A40481  23.088  32.079   7.015
 2963POPC   C4A40482  23.112  32.076   7.463
 2963POPC   C1B40483  22.394  32.198   6.102
 2963POPC   C2B40484  22.546  32.373   6.466
 2963POPC   C3B40485  22.632  32.211   6.841
 2963POPC   C4B40486  22.652  32.265   7.267
 2964POPC   NC340487  19.152  14.326   5.225
 2964POPC   PO440488  18.534  14.498   5.301
 2964POPC   GL140489  18.817  14.391   5.690
 2964POPC   GL240490  19.080  14.142   5.714
 2964POPC   C1A40491  19.088  14.509   6.076
 2964POPC   D2A40492  19.288  14.636   6.484
 2964POPC   C3A40493  19.159  14.521   6.896
 2964POPC   C4A40494  18.986  14.531   7.320
 2964POPC   C1B40495  18.918  14.031   6.115
 2964POPC   C2B40496  18.867  14.278   6.518
 2964POPC   C3B40497  18.849  14.145   6.958
 2964POPC   C4B40498  19.220  14.076   7.240
 2965POPC   NC340499  35.635  34.902   5.452
 2965POPC   PO440500  34.988  34.554   5.278
 2965POPC   GL140501  35.122  34.618   5.729
 2965POPC   GL240502  35.462  34.513   5.730
 2965POPC   C1A40503  35.188  34.755   6.187
 2965POPC   D2A40504  35.105  34.869   6.651
 2965POPC   C3A40505  35.242  34.738   7.062
 2965POPC   C4A40506  35.212  34.795   7.518
 2965POPC   C1B40507  35.625  34.416   6.136
 2965POPC   C2B40508  35.560  34.561   6.543
 2965POPC   C3B40509  35.584  34.370   6.932
 2965POPC   C4B40510  35.590  34.451   7.346
 2966POPC   NC340511  19.721   9.381   5.480
 2966POPC   PO440512  19.691   9.989   5.185
 2966POPC   GL140513  19.880   9.850   5.643
 2966POPC   GL240514  20.147   9.583   5.705
 2966POPC   C1A40515  19.795   9.914   6.125
 2966POPC   D2A40516  19.558   9.964   6.551
 2966POPC   C3A40517  19.820   9.961   6.953
 2966POPC   C4A40518  19.701  10.068   7.383
 2966POPC   C1B40519  20.113   9.477   6.135
 2966POPC   C2B40520  20.170   9.553   6.587
 2966POPC   C3B40521  20.091   9.447   7.059
 2966POPC   C4B40522  19.865   9.577   7.439
 2967POPC   NC340523  11.540  12.877   5.493
 2967POPC   PO440524  10.892  12.682   5.312
 2967POPC   GL140525  10.958  12.666   5.762
 2967POPC   GL240526  10.936  12.980   5.962
 2967POPC   C1A40527  11.169  12.525   6.158
 2967POPC   D2A40528  11.074  12.480   6.622
 2967POPC   C3A40529  11.301  12.794   6.890
 2967POPC   C4A40530  11.190  12.951   7.284
 2967POPC   C1B40531  11.317  13.035   6.249
 2967POPC   C2B40532  11.638  13.035   6.604
 2967POPC   C3B40533  11.672  13.202   7.044
 2967POPC   C4B40534  11.835  13.470   7.411
 2968POPC   NC340535  34.099  38.184   5.342
 2968POPC   PO440536  33.845  38.809   5.366
 2968POPC   GL140537  33.704  38.441   5.609
 2968POPC   GL240538  33.815  38.658   5.880
 2968POPC   C1A40539  33.593  38.254   6.071
 2968POPC   D2A40540  33.688  38.454   6.501
 2968POPC   C3A40541  33.764  38.161   6.874
 2968POPC   C4A40542  33.877  38.193   7.328
 2968POPC   C1B40543  34.148  38.674   6.203
 2968POPC   C2B40544  34.273  38.628   6.638
 2968POPC   C3B40545  34.159  38.598   7.075
 2968POPC   C4B40546  34.123  38.592   7.537
 2969POPC   NC340547   3.211   1.884   5.531
 2969POPC   PO440548   3.860   2.149   5.411
 2969POPC   GL140549   3.646   2.071   5.740
 2969POPC   GL240550   3.646   1.716   5.730
 2969POPC   C1A40551   3.753   2.058   6.158
 2969POPC   D2A40552   3.592   2.249   6.525
 2969POPC   C3A40553   3.613   2.029   6.887
 2969POPC   C4A40554   3.401   2.163   7.242
 2969POPC   C1B40555   3.428   1.628   6.145
 2969POPC   C2B40556   3.470   1.574   6.605
 2969POPC   C3B40557   3.250   1.690   7.003
 2969POPC   C4B40558   3.173   1.696   7.442
 2970POPC   NC340559  21.130  27.727   5.085
 2970POPC   PO440560  21.692  27.520   5.446
 2970POPC   GL140561  21.466  27.546   5.812
 2970POPC   GL240562  21.637  27.850   5.943
 2970POPC   C1A40563  21.282  27.394   6.192
 2970POPC   D2A40564  21.070  27.604   6.534
 2970POPC   C3A40565  21.297  27.650   6.927
 2970POPC   C4A40566  21.378  27.366   7.257
 2970POPC   C1B40567  21.790  27.493   6.200
 2970POPC   C2B40568  21.607  27.364   6.594
 2970POPC   C3B40569  21.794  27.459   6.999
 2970POPC   C4B40570  21.693  27.770   7.303
 2971POPC   NC340571  32.064  11.571   5.394
 2971POPC   PO440572  32.080  10.890   5.339
 2971POPC   GL140573  32.271  10.907   5.777
 2971POPC   GL240574  32.636  10.960   5.816
 2971POPC   C1A40575  32.077  11.076   6.171
 2971POPC   D2A40576  32.120  11.309   6.564
 2971POPC   C3A40577  32.074  11.118   6.974
 2971POPC   C4A40578  32.226  11.170   7.394
 2971POPC   C1B40579  32.593  11.143   6.269
 2971POPC   C2B40580  32.608  11.194   6.723
 2971POPC   C3B40581  32.548  11.444   7.111
 2971POPC   C4B40582  32.650  11.436   7.582
 2972POPC   NC340583  37.190   3.586   5.306
 2972POPC   PO440584  37.461   3.110   5.709
 2972POPC   GL140585  37.789   3.338   5.878
 2972POPC   GL240586  37.740   3.695   5.812
 2972POPC   C1A40587  37.962   3.529   6.234
 2972POPC   D2A40588  38.013   3.803   6.570
 2972POPC   C3A40589  37.904   3.586   6.956
 2972POPC   C4A40590  38.049   3.833   7.270
 2972POPC   C1B40591  37.519   3.813   6.198
 2972POPC   C2B40592  37.502   3.706   6.636
 2972POPC   C3B40593  37.395   3.838   7.056
 2972POPC   C4B40594  37.125   3.637   7.365
 2973POPC   NC340595   2.380   9.474   4.980
 2973POPC   PO440596   2.730   9.981   5.361
 2973POPC   GL140597   2.807   9.711   5.763
 2973POPC   GL240598   3.191   9.598   5.807
 2973POPC   C1A40599   2.641   9.547   6.229
 2973POPC   D2A40600   2.343   9.462   6.630
 2973POPC   C3A40601   2.507   9.592   7.041
 2973POPC   C4A40602   2.712  10.000   7.097
 2973POPC   C1B40603   3.065   9.866   6.156
 2973POPC   C2B40604   2.926   9.961   6.567
 2973POPC   C3B40605   2.982   9.630   6.845
 2973POPC   C4B40606   3.016   9.596   7.259
 2974POPC   NC340607  29.286  42.267   5.421
 2974POPC   PO440608  28.603  42.257   5.492
 2974POPC   GL140609  28.943  42.350   5.813
 2974POPC   GL240610  29.039  42.699   5.894
 2974POPC   C1A40611  29.051  42.152   6.231
 2974POPC   D2A40612  28.815  41.968   6.605
 2974POPC   C3A40613  28.986  42.082   6.998
 2974POPC   C4A40614  29.143  42.451   7.144
 2974POPC   C1B40615  29.297  42.670   6.271
 2974POPC   C2B40616  29.286  42.389   6.637
 2974POPC   C3B40617  29.517  42.181   6.966
 2974POPC   C4B40618  29.681  42.419   7.314
 2975POPC   NC340619  23.720  19.647   5.182
 2975POPC   PO440620  23.664  20.066   5.519
 2975POPC   GL140621  23.779  19.663   5.741
 2975POPC   GL240622  24.130  19.690   5.826
 2975POPC   C1A40623  23.748  19.459   6.183
 2975POPC   D2A40624  23.875  19.525   6.643
 2975POPC   C3A40625  23.594  19.709   6.980
 2975POPC   C4A40626  23.624  19.649   7.446
 2975POPC   C1B40627  24.087  19.843   6.279
 2975POPC   C2B40628  24.028  20.016   6.714
 2975POPC   C3B40629  24.029  19.880   7.160
 2975POPC   C4B40630  24.141  19.894   7.591
 2976POPC   NC340631  29.009  22.830   5.416
 2976POPC   PO440632  29.642  22.783   5.555
 2976POPC   GL140633  29.345  22.923   5.804
 2976POPC   GL240634  29.181  22.602   5.856
 2976POPC   C1A40635  29.092  23.065   6.144
 2976POPC   D2A40636  28.985  22.864   6.528
 2976POPC   C3A40637  28.956  23.110   6.890
 2976POPC   C4A40638  29.200  23.204   7.224
 2976POPC   C1B40639  29.400  22.654   6.263
 2976POPC   C2B40640  29.424  22.706   6.740
 2976POPC   C3B40641  29.127  22.670   7.111
 2976POPC   C4B40642  29.234  22.587   7.551
 2977POPC   NC340643  34.121  16.078   5.330
 2977POPC   PO440644  33.624  15.619   5.351
 2977POPC   GL140645  33.749  15.752   5.769
 2977POPC   GL240646  33.581  16.036   5.952
 2977POPC   C1A40647  33.754  15.603   6.209
 2977POPC   D2A40648  33.509  15.682   6.604
 2977POPC   C3A40649  33.688  15.837   7.016
 2977POPC   C4A40650  33.483  15.976   7.410
 2977POPC   C1B40651  34.022  16.046   6.099
 2977POPC   C2B40652  34.088  16.158   6.494
 2977POPC   C3B40653  33.833  16.353   6.809
 2977POPC   C4B40654  33.879  16.303   7.243
 2978POPC   NC340655  31.090  16.172   5.470
 2978POPC   PO440656  31.719  16.056   5.378
 2978POPC   GL140657  31.484  16.033   5.779
 2978POPC   GL240658  31.201  15.763   5.783
 2978POPC   C1A40659  31.510  15.867   6.191
 2978POPC   D2A40660  31.612  15.547   6.496
 2978POPC   C3A40661  31.563  15.680   6.923
 2978POPC   C4A40662  31.224  15.767   7.204
 2978POPC   C1B40663  31.019  15.944   6.155
 2978POPC   C2B40664  31.169  16.060   6.581
 2978POPC   C3B40665  31.178  16.250   7.005
 2978POPC   C4B40666  31.236  16.401   7.441
 2979POPC   NC340667  43.049   4.204   5.408
 2979POPC   PO440668  42.947   4.819   5.259
 2979POPC   GL140669  42.990   4.633   5.705
 2979POPC   GL240670  43.327   4.453   5.743
 2979POPC   C1A40671  43.063   4.538   6.165
 2979POPC   D2A40672  42.891   4.568   6.593
 2979POPC   C3A40673  43.074   4.328   6.946
 2979POPC   C4A40674  42.824   4.110   7.259
 2979POPC   C1B40675  43.274   4.078   6.036
 2979POPC   C2B40676  43.401   3.897   6.429
 2979POPC   C3B40677  43.484   4.007   6.869
 2979POPC   C4B40678  43.322   3.939   7.260
 2980POPC   NC340679  38.733  30.338   5.476
 2980POPC   PO440680  38.262  30.761   5.283
 2980POPC   GL140681  38.354  30.811   5.704
 2980POPC   GL240682  38.710  30.819   5.798
 2980POPC   C1A40683  38.278  30.836   6.138
 2980POPC   D2A40684  38.166  30.560   6.475
 2980POPC   C3A40685  38.216  30.743   6.871
 2980POPC   C4A40686  38.340  30.663   7.278
 2980POPC   C1B40687  38.782  30.769   6.265
 2980POPC   C2B40688  38.740  30.731   6.729
 2980POPC   C3B40689  38.814  30.883   7.155
 2980POPC   C4B40690  38.848  30.614   7.513
 2981POPC   NC340691  39.008  40.370   5.364
 2981POPC   PO440692  39.523  39.852   5.240
 2981POPC   GL140693  39.424  39.826   5.705
 2981POPC   GL240694  39.302  40.173   5.781
 2981POPC   C1A40695  39.200  39.808   6.140
 2981POPC   D2A40696  38.948  39.945   6.525
 2981POPC   C3A40697  39.144  39.947   6.951
 2981POPC   C4A40698  39.554  39.774   7.134
 2981POPC   C1B40699  39.493  40.276   6.191
 2981POPC   C2B40700  39.386  40.408   6.628
 2981POPC   C3B40701  39.532  40.283   7.058
 2981POPC   C4B40702  39.350  40.378   7.457
 2982POPC   NC340703  33.156  25.652   5.475
 2982POPC   PO440704  32.943  25.128   5.214
 2982POPC   GL140705  32.933  25.228   5.694
 2982POPC   GL240706  33.219  25.365   5.883
 2982POPC   C1A40707  32.675  25.217   6.100
 2982POPC   D2A40708  32.690  25.326   6.564
 2982POPC   C3A40709  33.016  25.104   6.828
 2982POPC   C4A40710  33.110  25.022   7.279
 2982POPC   C1B40711  33.073  25.519   6.270
 2982POPC   C2B40712  33.225  25.554   6.688
 2982POPC   C3B40713  33.078  25.525   7.099
 2982POPC   C4B40714  33.254  25.471   7.480
 2983POPC   NC340715   8.498  29.747   5.171
 2983POPC   PO440716   7.959  29.606   5.452
 2983POPC   GL140717   7.988  29.735   5.868
 2983POPC   GL240718   8.367  29.688   5.908
 2983POPC   C1A40719   8.060  29.748   6.323
 2983POPC   D2A40720   7.910  29.552   6.681
 2983POPC   C3A40721   8.006  29.757   7.069
 2983POPC   C4A40722   8.025  29.726   7.509
 2983POPC   C1B40723   8.536  29.507   6.326
 2983POPC   C2B40724   8.457  29.549   6.806
 2983POPC   C3B40725   8.498  29.792   7.222
 2983POPC   C4B40726   8.484  29.958   7.657
 2984POPC   NC340727  23.275  34.115   5.249
 2984POPC   PO440728  22.603  33.843   5.409
 2984POPC   GL140729  23.009  33.833   5.668
 2984POPC   GL240730  23.043  33.493   5.681
 2984POPC   C1A40731  23.242  33.922   6.119
 2984POPC   D2A40732  23.360  34.063   6.599
 2984POPC   C3A40733  23.214  33.841   7.004
 2984POPC   C4A40734  23.218  33.513   7.333
 2984POPC   C1B40735  22.836  33.599   6.104
 2984POPC   C2B40736  22.976  33.702   6.551
 2984POPC   C3B40737  22.746  33.617   6.975
 2984POPC   C4B40738  22.683  33.394   7.396
 2985POPC   NC340739   3.238  20.308   5.436
 2985POPC   PO440740   3.486  20.905   5.407
 2985POPC   GL140741   3.539  20.577   5.758
 2985POPC   GL240742   3.806  20.355   5.877
 2985POPC   C1A40743   3.385  20.583   6.190
 2985POPC   D2A40744   3.586  20.618   6.607
 2985POPC   C3A40745   3.280  20.663   6.952
 2985POPC   C4A40746   3.304  20.737   7.388
 2985POPC   C1B40747   3.697  20.201   6.312
 2985POPC   C2B40748   3.653  20.151   6.764
 2985POPC   C3B40749   3.698  20.361   7.151
 2985POPC   C4B40750   3.781  20.313   7.608
 2986POPC   NC340751  41.439  42.859   5.478
 2986POPC   PO440752  41.232  43.437   5.315
 2986POPC   GL140753  41.505  43.407   5.735
 2986POPC   GL240754  41.473  43.083   5.954
 2986POPC   C1A40755  41.711  43.433   6.190
 2986POPC   D2A40756  41.658  43.151   6.543
 2986POPC   C3A40757  41.532  43.255   6.961
 2986POPC   C4A40758  41.655  43.069   7.337
 2986POPC   C1B40759  41.201  43.016   6.361
 2986POPC   C2B40760  41.141  42.986   6.777
 2986POPC   C3B40761  41.331  42.736   7.076
 2986POPC   C4B40762  41.249  42.758   7.498
 2987POPC   NC340763  35.212   6.475   5.493
 2987POPC   PO440764  35.668   6.840   5.220
 2987POPC   GL140765  35.672   6.655   5.681
 2987POPC   GL240766  35.355   6.740   5.898
 2987POPC   C1A40767  35.685   6.440   6.113
 2987POPC   D2A40768  35.436   6.605   6.472
 2987POPC   C3A40769  35.427   6.474   6.917
 2987POPC   C4A40770  35.372   6.671   7.360
 2987POPC   C1B40771  34.994   6.646   6.201
 2987POPC   C2B40772  34.970   6.479   6.638
 2987POPC   C3B40773  34.938   6.615   7.075
 2987POPC   C4B40774  34.946   6.400   7.532
 2988POPC   NC340775  40.452  30.809   5.436
 2988POPC   PO440776  40.952  30.390   5.469
 2988POPC   GL140777  41.098  30.643   5.774
 2988POPC   GL240778  40.811  30.826   5.856
 2988POPC   C1A40779  41.168  30.646   6.214
 2988POPC   D2A40780  41.062  30.844   6.598
 2988POPC   C3A40781  41.246  30.764   7.030
 2988POPC   C4A40782  40.922  30.699   7.318
 2988POPC   C1B40783  40.539  30.804   6.204
 2988POPC   C2B40784  40.285  30.801   6.546
 2988POPC   C3B40785  40.410  30.780   6.973
 2988POPC   C4B40786  40.540  31.076   7.280
 2989POPC   NC340787  24.855  34.157   5.658
 2989POPC   PO440788  24.500  34.654   5.301
 2989POPC   GL140789  24.474  34.743   5.767
 2989POPC   GL240790  24.458  34.413   5.860
 2989POPC   C1A40791  24.525  34.835   6.242
 2989POPC   D2A40792  24.713  34.660   6.647
 2989POPC   C3A40793  24.686  34.878   7.034
 2989POPC   C4A40794  24.524  34.791   7.439
 2989POPC   C1B40795  24.552  34.316   6.289
 2989POPC   C2B40796  24.445  34.231   6.720
 2989POPC   C3B40797  24.675  34.355   7.111
 2989POPC   C4B40798  24.398  34.292   7.481
 2990POPC   NC340799  11.820  36.708   5.497
 2990POPC   PO440800  12.336  36.934   5.464
 2990POPC   GL140801  12.083  36.885   5.891
 2990POPC   GL240802  11.716  37.014   5.887
 2990POPC   C1A40803  12.116  36.618   6.301
 2990POPC   D2A40804  11.994  36.575   6.761
 2990POPC   C3A40805  12.191  36.809   7.126
 2990POPC   C4A40806  12.171  36.965   7.574
 2990POPC   C1B40807  11.636  36.792   6.272
 2990POPC   C2B40808  11.505  36.744   6.716
 2990POPC   C3B40809  11.672  36.758   7.135
 2990POPC   C4B40810  11.658  36.964   7.541
 2991POPC   NC340811  40.055  23.512   5.501
 2991POPC   PO440812  39.449  23.323   5.510
 2991POPC   GL140813  39.669  23.557   5.816
 2991POPC   GL240814  39.834  23.917   5.749
 2991POPC   C1A40815  39.935  23.555   6.163
 2991POPC   D2A40816  39.745  23.429   6.533
 2991POPC   C3A40817  39.915  23.577   6.878
 2991POPC   C4A40818  40.280  23.563   7.070
 2991POPC   C1B40819  40.096  24.053   6.098
 2991POPC   C2B40820  40.154  23.925   6.521
 2991POPC   C3B40821  40.095  24.062   6.932
 2991POPC   C4B40822  39.868  23.906   7.276
 2992POPC   NC340823  15.526  30.831   5.442
 2992POPC   PO440824  14.966  30.542   5.196
 2992POPC   GL140825  15.073  30.649   5.729
 2992POPC   GL240826  15.359  30.853   5.902
 2992POPC   C1A40827  15.060  30.680   6.261
 2992POPC   D2A40828  14.846  30.610   6.690
 2992POPC   C3A40829  15.160  30.646   7.027
 2992POPC   C4A40830  15.121  30.444   7.452
 2992POPC   C1B40831  15.367  31.130   6.252
 2992POPC   C2B40832  15.514  30.985   6.638
 2992POPC   C3B40833  15.591  31.027   7.056
 2992POPC   C4B40834  15.338  30.933   7.422
 2993POPC   NC340835   8.042  20.155   5.374
 2993POPC   PO440836   8.265  19.601   5.254
 2993POPC   GL140837   8.210  19.713   5.696
 2993POPC   GL240838   8.426  19.954   5.748
 2993POPC   C1A40839   8.067  19.734   6.154
 2993POPC   D2A40840   7.867  19.671   6.570
 2993POPC   C3A40841   8.072  19.813   6.898
 2993POPC   C4A40842   7.954  19.907   7.308
 2993POPC   C1B40843   8.518  19.949   6.138
 2993POPC   C2B40844   8.343  20.082   6.512
 2993POPC   C3B40845   8.506  20.094   6.928
 2993POPC   C4B40846   8.621  20.269   7.328
 2994POPC   NC340847  15.018  26.218   5.327
 2994POPC   PO440848  15.718  26.045   5.278
 2994POPC   GL140849  15.427  26.142   5.688
 2994POPC   GL240850  15.114  26.343   5.801
 2994POPC   C1A40851  15.199  25.924   6.061
 2994POPC   D2A40852  15.264  25.704   6.467
 2994POPC   C3A40853  14.986  25.759   6.845
 2994POPC   C4A40854  14.888  25.865   7.275
 2994POPC   C1B40855  15.209  26.420   6.205
 2994POPC   C2B40856  15.140  26.201   6.551
 2994POPC   C3B40857  15.118  26.237   6.974
 2994POPC   C4B40858  15.279  26.443   7.306
 2995POPC   NC340859  13.668  33.199   5.319
 2995POPC   PO440860  14.172  32.804   5.220
 2995POPC   GL140861  14.019  32.898   5.708
 2995POPC   GL240862  13.717  33.126   5.813
 2995POPC   C1A40863  13.884  32.831   6.185
 2995POPC   D2A40864  13.805  33.081   6.596
 2995POPC   C3A40865  13.603  33.010   6.995
 2995POPC   C4A40866  13.327  33.288   7.222
 2995POPC   C1B40867  13.923  33.362   6.165
 2995POPC   C2B40868  13.838  33.588   6.581
 2995POPC   C3B40869  13.837  33.502   7.036
 2995POPC   C4B40870  14.061  33.178   7.233
 2996POPC   NC340871  22.222  20.145   5.515
 2996POPC   PO440872  22.103  20.799   5.359
 2996POPC   GL140873  22.020  20.622   5.790
 2996POPC   GL240874  21.744  20.799   5.906
 2996POPC   C1A40875  22.181  20.575   6.245
 2996POPC   D2A40876  22.311  20.417   6.674
 2996POPC   C3A40877  22.198  20.607   7.106
 2996POPC   C4A40878  22.191  20.481   7.561
 2996POPC   C1B40879  21.801  20.900   6.328
 2996POPC   C2B40880  21.922  20.826   6.723
 2996POPC   C3B40881  21.713  20.759   7.108
 2996POPC   C4B40882  21.824  20.884   7.506
 2997POPC   NC340883  16.536  12.481   5.476
 2997POPC   PO440884  17.210  12.647   5.601
 2997POPC   GL140885  16.818  12.791   5.779
 2997POPC   GL240886  16.620  13.116   5.801
 2997POPC   C1A40887  16.803  12.749   6.190
 2997POPC   D2A40888  17.019  12.924   6.522
 2997POPC   C3A40889  16.776  12.870   6.872
 2997POPC   C4A40890  16.660  12.597   7.208
 2997POPC   C1B40891  16.406  13.315   6.158
 2997POPC   C2B40892  16.241  13.315   6.587
 2997POPC   C3B40893  16.446  13.291   6.983
 2997POPC   C4B40894  16.640  13.096   7.300
 2998POPC   NC340895  44.693  40.859   5.310
 2998POPC   PO440896   0.180  40.479   5.530
 2998POPC   GL140897  44.851  40.763   5.770
 2998POPC   GL240898  44.476  40.762   5.771
 2998POPC   C1A40899  44.849  40.915   6.161
 2998POPC   D2A40900  44.775  40.677   6.493
 2998POPC   C3A40901  44.848  40.885   6.848
 2998POPC   C4A40902  44.904  40.777   7.223
 2998POPC   C1B40903  44.337  40.776   6.177
 2998POPC   C2B40904  44.336  40.914   6.584
 2998POPC   C3B40905  44.383  40.755   6.990
 2998POPC   C4B40906  44.466  41.067   7.289
 2999POPC   NC340907  23.210  40.512   5.466
 2999POPC   PO440908  23.791  40.794   5.313
 2999POPC   GL140909  23.514  40.879   5.683
 2999POPC   GL240910  23.378  41.234   5.641
 2999POPC   C1A40911  23.470  40.639   6.113
 2999POPC   D2A40912  23.677  40.540   6.509
 2999POPC   C3A40913  23.500  40.511   6.903
 2999POPC   C4A40914  23.708  40.660   7.259
 2999POPC   C1B40915  23.333  41.152   6.094
 2999POPC   C2B40916  23.382  40.960   6.532
 2999POPC   C3B40917  23.684  41.027   6.878
 2999POPC   C4B40918  23.553  41.339   7.201
 3000POPC   NC340919   7.446   3.817   5.253
 3000POPC   PO440920   7.170   3.173   5.361
 3000POPC   GL140921   7.336   3.471   5.621
 3000POPC   GL240922   7.108   3.782   5.644
 3000POPC   C1A40923   7.420   3.412   6.040
 3000POPC   D2A40924   7.413   3.224   6.467
 3000POPC   C3A40925   7.604   3.478   6.776
 3000POPC   C4A40926   7.464   3.560   7.162
 3000POPC   C1B40927   7.305   3.943   6.028
 3000POPC   C2B40928   7.472   3.860   6.454
 3000POPC   C3B40929   7.486   4.014   6.900
 3000POPC   C4B40930   7.698   3.995   7.312
 3001POPC   NC340931  31.717  30.347   5.388
 3001POPC   PO440932  32.349  30.551   5.240
 3001POPC   GL140933  32.264  30.564   5.665
 3001POPC   GL240934  32.534  30.762   5.778
 3001POPC   C1A40935  32.156  30.653   6.103
 3001POPC   D2A40936  32.103  30.856   6.496
 3001POPC   C3A40937  32.229  30.707   6.904
 3001POPC   C4A40938  32.009  30.528   7.248
 3001POPC   C1B40939  32.556  31.022   6.175
 3001POPC   C2B40940  32.491  31.150   6.633
 3001POPC   C3B40941  32.679  30.948   7.008
 3001POPC   C4B40942  32.471  30.795   7.373
 3002POPC   NC340943  21.575  12.875   5.494
 3002POPC   PO440944  22.206  13.140   5.532
 3002POPC   GL140945  21.892  13.119   5.848
 3002POPC   GL240946  21.924  12.766   5.888
 3002POPC   C1A40947  21.918  13.126   6.305
 3002POPC   D2A40948  22.223  12.997   6.627
 3002POPC   C3A40949  22.111  12.879   7.001
 3002POPC   C4A40950  22.146  13.105   7.411
 3002POPC   C1B40951  22.162  12.667   6.249
 3002POPC   C2B40952  22.560  12.616   6.528
 3002POPC   C3B40953  22.597  12.520   6.978
 3002POPC   C4B40954  22.337  12.628   7.367
 3003POPC   NC340955  34.383  20.006   5.387
 3003POPC   PO440956  34.795  19.453   5.350
 3003POPC   GL140957  34.609  19.684   5.746
 3003POPC   GL240958  34.420  19.985   5.900
 3003POPC   C1A40959  34.420  19.579   6.188
 3003POPC   D2A40960  34.527  19.694   6.603
 3003POPC   C3A40961  34.800  19.500   6.881
 3003POPC   C4A40962  34.979  19.545   7.276
 3003POPC   C1B40963  34.503  20.155   6.327
 3003POPC   C2B40964  34.611  20.172   6.780
 3003POPC   C3B40965  34.538  19.925   7.162
 3003POPC   C4B40966  34.345  20.085   7.556
 3004POPC   NC340967  35.342  17.789   5.443
 3004POPC   PO440968  35.265  17.106   5.444
 3004POPC   GL140969  35.245  17.452   5.821
 3004POPC   GL240970  35.532  17.642   5.904
 3004POPC   C1A40971  35.156  17.685   6.248
 3004POPC   D2A40972  35.252  17.837   6.666
 3004POPC   C3A40973  35.153  17.655   7.070
 3004POPC   C4A40974  35.430  17.813   7.401
 3004POPC   C1B40975  35.524  17.351   6.282
 3004POPC   C2B40976  35.338  17.325   6.707
 3004POPC   C3B40977  35.501  17.312   7.147
 3004POPC   C4B40978  35.525  16.978   7.429
 3005POPC   NC340979  37.042  31.363   5.464
 3005POPC   PO440980  37.311  32.009   5.349
 3005POPC   GL140981  37.070  31.834   5.787
 3005POPC   GL240982  37.057  31.473   5.967
 3005POPC   C1A40983  36.954  31.863   6.281
 3005POPC   D2A40984  36.888  31.472   6.557
 3005POPC   C3A40985  36.782  31.512   7.049
 3005POPC   C4A40986  36.800  31.650   7.515
 3005POPC   C1B40987  36.701  31.166   6.123
 3005POPC   C2B40988  36.492  31.146   6.533
 3005POPC   C3B40989  36.809  31.055   6.852
 3005POPC   C4B40990  36.885  31.005   7.293
 3006POPC   NC340991  42.917  35.765   5.213
 3006POPC   PO440992  43.419  35.415   5.401
 3006POPC   GL140993  43.228  35.565   5.722
 3006POPC   GL240994  43.041  35.313   5.911
 3006POPC   C1A40995  43.431  35.565   6.126
 3006POPC   D2A40996  43.406  35.255   6.461
 3006POPC   C3A40997  43.563  35.468   6.821
 3006POPC   C4A40998  43.385  35.406   7.213
 3006POPC   C1B40999  42.809  35.079   6.233
 3006POPC   C2B41000  42.796  35.083   6.681
 3006POPC   C3B41001  43.051  35.016   7.067
 3006POPC   C4B41002  42.980  35.063   7.529
 3007POPC   NC341003   3.508  37.566   5.553
 3007POPC   PO441004   4.136  37.608   5.227
 3007POPC   GL141005   3.979  37.560   5.711
 3007POPC   GL241006   3.844  37.876   5.868
 3007POPC   C1A41007   3.761  37.434   6.148
 3007POPC   D2A41008   3.398  37.432   6.492
 3007POPC   C3A41009   3.366  37.696   6.890
 3007POPC   C4A41010   3.360  37.569   7.358
 3007POPC   C1B41011   3.789  37.934   6.321
 3007POPC   C2B41012   3.852  37.623   6.667
 3007POPC   C3B41013   3.821  37.656   7.113
 3007POPC   C4B41014   4.003  37.996   7.331
 3008POPC   NC341015  43.631  15.140   5.193
 3008POPC   PO441016  44.194  15.270   5.502
 3008POPC   GL141017  44.155  15.355   5.913
 3008POPC   GL241018  43.867  15.114   5.870
 3008POPC   C1A41019  44.251  15.442   6.345
 3008POPC   D2A41020  43.965  15.540   6.655
 3008POPC   C3A41021  43.996  15.216   6.918
 3008POPC   C4A41022  44.008  15.458   7.242
 3008POPC   C1B41023  43.783  15.247   6.273
 3008POPC   C2B41024  43.497  15.275   6.595
 3008POPC   C3B41025  43.534  15.388   6.983
 3008POPC   C4B41026  43.602  15.099   7.283
 3009POPC   NC341027   0.285   6.830   5.428
 3009POPC   PO441028   0.722   6.417   5.517
 3009POPC   GL141029   0.372   6.491   5.807
 3009POPC   GL241030   0.547   6.769   5.920
 3009POPC   C1A41031   0.088   6.357   6.155
 3009POPC   D2A41032   0.217   6.257   6.618
 3009POPC   C3A41033   0.063   6.460   7.030
 3009POPC   C4A41034   0.164   6.793   7.383
 3009POPC   C1B41035   0.441   6.670   6.341
 3009POPC   C2B41036   0.349   6.766   6.739
 3009POPC   C3B41037   0.581   6.717   7.090
 3009POPC   C4B41038   0.960   6.579   7.248
 3010POPC   NC341039  19.273  10.179   5.079
 3010POPC   PO441040  19.647  10.543   5.561
 3010POPC   GL141041  19.717  10.752   5.911
 3010POPC   GL241042  20.060  10.733   5.861
 3010POPC   C1A41043  19.770  10.651   6.300
 3010POPC   D2A41044  19.860  10.393   6.604
 3010POPC   C3A41045  19.995  10.693   6.878
 3010POPC   C4A41046  19.805  10.530   7.197
 3010POPC   C1B41047  20.121  10.329   6.090
 3010POPC   C2B41048  20.349  10.287   6.497
 3010POPC   C3B41049  20.258  10.261   6.941
 3010POPC   C4B41050  20.283  10.435   7.353
 3011POPC   NC341051   9.520  27.057   5.484
 3011POPC   PO441052   9.933  26.519   5.304
 3011POPC   GL141053   9.862  26.685   5.746
 3011POPC   GL241054  10.092  26.944   5.841
 3011POPC   C1A41055   9.703  26.848   6.189
 3011POPC   D2A41056   9.633  26.667   6.649
 3011POPC   C3A41057   9.619  26.904   7.098
 3011POPC   C4A41058   9.623  27.019   7.585
 3011POPC   C1B41059  10.174  26.663   6.173
 3011POPC   C2B41060  10.153  26.647   6.607
 3011POPC   C3B41061   9.967  26.529   7.017
 3011POPC   C4B41062   9.951  26.637   7.438
 3012POPC   NC341063  28.134   0.311   5.418
 3012POPC   PO441064  27.539   0.661   5.399
 3012POPC   GL141065  27.694   0.415   5.771
 3012POPC   GL241066  28.011   0.625   5.807
 3012POPC   C1A41067  27.483   0.258   6.217
 3012POPC   D2A41068  27.370   0.399   6.682
 3012POPC   C3A41069  27.371   0.230   7.126
 3012POPC   C4A41070  27.402   0.531   7.459
 3012POPC   C1B41071  27.997   0.314   6.176
 3012POPC   C2B41072  27.834   0.196   6.597
 3012POPC   C3B41073  27.865   0.355   7.019
 3012POPC   C4B41074  27.811   0.226   7.446
 3013POPC   NC341075  33.644  37.443   5.433
 3013POPC   PO441076  33.295  36.836   5.368
 3013POPC   GL141077  33.190  36.888   5.780
 3013POPC   GL241078  32.897  37.116   5.742
 3013POPC   C1A41079  33.263  36.899   6.223
 3013POPC   D2A41080  33.036  37.019   6.557
 3013POPC   C3A41081  33.231  37.037   6.927
 3013POPC   C4A41082  33.232  37.230   7.315
 3013POPC   C1B41083  32.737  36.905   6.115
 3013POPC   C2B41084  32.522  36.972   6.528
 3013POPC   C3B41085  32.700  37.155   6.909
 3013POPC   C4B41086  32.840  36.888   7.218
 3014POPC   NC341087  15.323   1.949   5.385
 3014POPC   PO441088  15.110   1.349   5.425
 3014POPC   GL141089  15.326   1.329   5.833
 3014POPC   GL241090  15.370   0.970   5.912
 3014POPC   C1A41091  15.468   1.324   6.271
 3014POPC   D2A41092  15.195   1.279   6.645
 3014POPC   C3A41093  15.340   1.254   7.052
 3014POPC   C4A41094  15.547   1.188   7.413
 3014POPC   C1B41095  15.298   0.833   6.375
 3014POPC   C2B41096  15.235   0.796   6.854
 3014POPC   C3B41097  14.911   0.995   7.157
 3014POPC   C4B41098  14.669   1.050   7.567
 3015POPC   NC341099  24.453  26.601   5.429
 3015POPC   PO441100  24.698  27.175   5.355
 3015POPC   GL141101  24.795  26.932   5.706
 3015POPC   GL241102  24.477  27.011   5.861
 3015POPC   C1A41103  24.872  26.949   6.178
 3015POPC   D2A41104  24.651  27.030   6.592
 3015POPC   C3A41105  24.687  26.749   6.990
 3015POPC   C4A41106  24.436  26.442   7.261
 3015POPC   C1B41107  24.505  27.376   6.191
 3015POPC   C2B41108  24.387  27.467   6.643
 3015POPC   C3B41109  24.391  27.184   7.025
 3015POPC   C4B41110  24.231  26.919   7.369
 3016POPC   NC341111  20.048   5.649   5.028
 3016POPC   PO441112  19.436   5.488   5.362
 3016POPC   GL141113  19.714   5.773   5.640
 3016POPC   GL241114  19.550   6.136   5.596
 3016POPC   C1A41115  19.902   5.839   6.086
 3016POPC   D2A41116  20.021   5.707   6.534
 3016POPC   C3A41117  19.995   5.937   6.896
 3016POPC   C4A41118  19.730   5.764   7.218
 3016POPC   C1B41119  19.547   6.228   6.062
 3016POPC   C2B41120  19.743   6.153   6.485
 3016POPC   C3B41121  19.510   6.067   6.867
 3016POPC   C4B41122  19.356   6.166   7.277
 3017POPC   NC341123  29.782  43.750   5.162
 3017POPC   PO441124  29.763  44.243   5.685
 3017POPC   GL141125  29.912  43.819   5.735
 3017POPC   GL241126  29.664  43.531   5.634
 3017POPC   C1A41127  30.092  43.845   6.173
 3017POPC   D2A41128  30.284  44.124   6.544
 3017POPC   C3A41129  30.148  44.105   6.970
 3017POPC   C4A41130  29.889  43.816   7.170
 3017POPC   C1B41131  29.623  43.576   6.099
 3017POPC   C2B41132  29.731  43.614   6.540
 3017POPC   C3B41133  29.600  43.429   6.929
 3017POPC   C4B41134  29.389  43.311   7.293
 3018POPC   NC341135  36.919  30.322   5.407
 3018POPC   PO441136  36.798  31.007   5.352
 3018POPC   GL141137  36.794  30.777   5.777
 3018POPC   GL241138  36.657  30.441   5.823
 3018POPC   C1A41139  37.000  30.666   6.207
 3018POPC   D2A41140  37.168  30.729   6.638
 3018POPC   C3A41141  36.932  30.582   6.977
 3018POPC   C4A41142  36.963  30.493   7.384
 3018POPC   C1B41143  36.482  30.621   6.211
 3018POPC   C2B41144  36.505  30.659   6.674
 3018POPC   C3B41145  36.470  30.760   7.106
 3018POPC   C4B41146  36.525  30.750   7.549
 3019POPC   NC341147  20.063  26.687   5.377
 3019POPC   PO441148  19.468  26.919   5.464
 3019POPC   GL141149  19.828  26.899   5.777
 3019POPC   GL241150  19.921  26.532   5.832
 3019POPC   C1A41151  19.938  26.978   6.227
 3019POPC   D2A41152  19.586  26.833   6.538
 3019POPC   C3A41153  19.547  26.938   6.957
 3019POPC   C4A41154  19.923  27.028   7.145
 3019POPC   C1B41155  19.798  26.484   6.230
 3019POPC   C2B41156  20.059  26.608   6.563
 3019POPC   C3B41157  20.155  26.590   6.988
 3019POPC   C4B41158  19.729  26.467   7.129
 3020POPC   NC341159  40.601  31.792   5.323
 3020POPC   PO441160  40.763  31.159   5.459
 3020POPC   GL141161  40.722  31.350   5.841
 3020POPC   GL241162  40.670  31.712   5.826
 3020POPC   C1A41163  40.828  31.213   6.258
 3020POPC   D2A41164  40.655  31.148   6.666
 3020POPC   C3A41165  40.960  31.172   7.007
 3020POPC   C4A41166  41.003  31.167   7.478
 3020POPC   C1B41167  40.987  31.693   6.155
 3020POPC   C2B41168  40.767  31.649   6.547
 3020POPC   C3B41169  40.677  31.594   6.981
 3020POPC   C4B41170  41.061  31.613   7.257
 3021POPC   NC341171  14.931  31.635   5.461
 3021POPC   PO441172  15.597  31.288   5.408
 3021POPC   GL141173  15.317  31.389   5.768
 3021POPC   GL241174  15.064  31.182   5.658
 3021POPC   C1A41175  15.097  31.571   6.161
 3021POPC   D2A41176  15.223  31.510   6.601
 3021POPC   C3A41177  15.073  31.646   7.016
 3021POPC   C4A41178  15.233  31.740   7.443
 3021POPC   C1B41179  14.900  31.093   6.053
 3021POPC   C2B41180  14.929  31.092   6.529
 3021POPC   C3B41181  15.108  31.140   6.935
 3021POPC   C4B41182  14.943  31.234   7.320
 3022POPC   NC341183  34.515  18.026   5.284
 3022POPC   PO441184  35.089  18.196   5.404
 3022POPC   GL141185  34.752  18.301   5.759
 3022POPC   GL241186  34.386  18.241   5.740
 3022POPC   C1A41187  34.533  18.358   6.214
 3022POPC   D2A41188  34.499  18.356   6.694
 3022POPC   C3A41189  34.742  18.619   6.977
 3022POPC   C4A41190  34.873  18.663   7.427
 3022POPC   C1B41191  34.243  17.928   6.064
 3022POPC   C2B41192  34.343  17.894   6.515
 3022POPC   C3B41193  34.289  17.987   6.977
 3022POPC   C4B41194  34.288  18.400   7.220
 3023POPC   NC341195   8.690  19.728   5.362
 3023POPC   PO441196   9.368  19.959   5.421
 3023POPC   GL141197   9.050  19.823   5.747
 3023POPC   GL241198   8.835  19.499   5.775
 3023POPC   C1A41199   9.001  19.728   6.192
 3023POPC   D2A41200   8.837  19.899   6.552
 3023POPC   C3A41201   8.824  19.657   6.878
 3023POPC   C4A41202   8.934  19.900   7.192
 3023POPC   C1B41203   8.509  19.440   6.092
 3023POPC   C2B41204   8.413  19.580   6.509
 3023POPC   C3B41205   8.371  19.426   6.904
 3023POPC   C4B41206   8.437  19.698   7.258
 3024POPC   NC341207  19.751  24.162   5.383
 3024POPC   PO441208  20.149  24.686   5.287
 3024POPC   GL141209  20.067  24.694   5.755
 3024POPC   GL241210  19.734  24.496   5.802
 3024POPC   C1A41211  20.041  24.604   6.209
 3024POPC   D2A41212  19.970  24.391   6.603
 3024POPC   C3A41213  19.992  24.616   7.002
 3024POPC   C4A41214  20.202  24.684   7.442
 3024POPC   C1B41215  19.491  24.542   6.211
 3024POPC   C2B41216  19.461  24.367   6.661
 3024POPC   C3B41217  19.519  24.389   7.116
 3024POPC   C4B41218  19.499  24.273   7.546
 3025POPC   NC341219  21.805   6.554   5.202
 3025POPC   PO441220  22.322   5.977   5.399
 3025POPC   GL141221  22.236   5.896   5.836
 3025POPC   GL241222  22.023   6.127   5.885
 3025POPC   C1A41223  22.038   5.760   6.237
 3025POPC   D2A41224  22.070   5.989   6.610
 3025POPC   C3A41225  22.198   5.903   7.021
 3025POPC   C4A41226  22.074   6.062   7.438
 3025POPC   C1B41227  21.758   6.202   6.218
 3025POPC   C2B41228  21.679   6.305   6.637
 3025POPC   C3B41229  21.679   5.982   7.000
 3025POPC   C4B41230  21.836   5.640   7.260
 3026POPC   NC341231  21.770  40.221   5.342
 3026POPC   PO441232  22.022  40.875   5.122
 3026POPC   GL141233  21.927  40.640   5.605
 3026POPC   GL241234  22.253  40.655   5.877
 3026POPC   C1A41235  21.813  40.507   6.068
 3026POPC   D2A41236  22.099  40.619   6.434
 3026POPC   C3A41237  22.049  40.655   6.883
 3026POPC   C4A41238  22.133  40.526   7.300
 3026POPC   C1B41239  22.472  40.918   6.241
 3026POPC   C2B41240  22.458  41.000   6.735
 3026POPC   C3B41241  22.375  40.979   7.204
 3026POPC   C4B41242  22.418  40.803   7.658
 3027POPC   NC341243   6.725  13.731   5.471
 3027POPC   PO441244   6.115  13.834   5.495
 3027POPC   GL141245   6.348  13.717   5.860
 3027POPC   GL241246   6.526  13.405   5.917
 3027POPC   C1A41247   6.647  13.800   6.210
 3027POPC   D2A41248   6.754  13.586   6.583
 3027POPC   C3A41249   6.479  13.670   6.908
 3027POPC   C4A41250   6.407  13.485   7.300
 3027POPC   C1B41251   6.913  13.289   6.184
 3027POPC   C2B41252   7.097  13.159   6.570
 3027POPC   C3B41253   6.952  13.116   6.993
 3027POPC   C4B41254   6.723  13.092   7.400
 3028POPC   NC341255  38.180  32.350   5.048
 3028POPC   PO441256  37.641  32.500   5.442
 3028POPC   GL141257  37.561  32.395   5.787
 3028POPC   GL241258  37.568  32.089   5.835
 3028POPC   C1A41259  37.696  32.478   6.197
 3028POPC   D2A41260  37.691  32.239   6.569
 3028POPC   C3A41261  37.776  32.345   6.989
 3028POPC   C4A41262  37.510  32.505   7.388
 3028POPC   C1B41263  37.474  31.799   6.114
 3028POPC   C2B41264  37.378  31.718   6.513
 3028POPC   C3B41265  37.103  31.832   6.819
 3028POPC   C4B41266  37.194  31.772   7.217
 3029POPC   NC341267   5.150  16.203   5.464
 3029POPC   PO441268   5.611  15.611   5.352
 3029POPC   GL141269   5.262  15.665   5.740
 3029POPC   GL241270   5.195  15.992   5.906
 3029POPC   C1A41271   4.956  15.647   6.170
 3029POPC   D2A41272   4.747  15.613   6.597
 3029POPC   C3A41273   4.761  15.834   6.991
 3029POPC   C4A41274   5.127  15.928   7.225
 3029POPC   C1B41275   5.236  16.064   6.343
 3029POPC   C2B41276   5.137  16.153   6.753
 3029POPC   C3B41277   5.362  16.338   7.065
 3029POPC   C4B41278   5.408  16.230   7.551
 3030POPC   NC341279  30.502  21.998   5.398
 3030POPC   PO441280  31.125  22.450   5.380
 3030POPC   GL141281  30.906  22.400   5.819
 3030POPC   GL241282  30.640  22.153   5.858
 3030POPC   C1A41283  30.753  22.331   6.294
 3030POPC   D2A41284  30.650  22.177   6.708
 3030POPC   C3A41285  30.962  22.133   6.988
 3030POPC   C4A41286  30.980  22.280   7.391
 3030POPC   C1B41287  30.555  21.852   6.174
 3030POPC   C2B41288  30.293  21.895   6.501
 3030POPC   C3B41289  30.283  21.855   6.921
 3030POPC   C4B41290  30.564  21.877   7.247
 3031POPC   NC341291  32.905  37.480   5.362
 3031POPC   PO441292  33.452  37.742   5.148
 3031POPC   GL141293  33.279  37.690   5.682
 3031POPC   GL241294  33.323  37.390   5.831
 3031POPC   C1A41295  33.086  37.889   6.108
 3031POPC   D2A41296  32.914  38.091   6.514
 3031POPC   C3A41297  33.119  38.131   6.937
 3031POPC   C4A41298  33.150  37.936   7.369
 3031POPC   C1B41299  33.027  37.375   6.173
 3031POPC   C2B41300  32.991  37.560   6.586
 3031POPC   C3B41301  32.993  37.568   7.036
 3031POPC   C4B41302  32.748  37.383   7.388
 3032POPC   NC341303  17.673   1.668   5.591
 3032POPC   PO441304  17.724   1.021   5.372
 3032POPC   GL141305  17.661   1.118   5.797
 3032POPC   GL241306  17.320   1.195   5.725
 3032POPC   C1A41307  17.502   1.337   6.203
 3032POPC   D2A41308  17.300   1.334   6.620
 3032POPC   C3A41309  17.523   1.359   7.025
 3032POPC   C4A41310  17.882   1.116   7.200
 3032POPC   C1B41311  17.296   0.866   6.057
 3032POPC   C2B41312  17.523   0.860   6.429
 3032POPC   C3B41313  17.508   0.877   6.871
 3032POPC   C4B41314  17.469   0.811   7.304
 3033POPC   NC341315   6.492  44.967   5.412
 3033POPC   PO441316   6.945  44.493   5.505
 3033POPC   GL141317   6.768  44.726   5.847
 3033POPC   GL241318   6.405  44.818   5.886
 3033POPC   C1A41319   6.828  44.725   6.289
 3033POPC   D2A41320   6.942  44.980   6.639
 3033POPC   C3A41321   6.898  44.830   7.096
 3033POPC   C4A41322   6.714  44.869   7.540
 3033POPC   C1B41323   6.330  44.631   6.283
 3033POPC   C2B41324   6.499  44.715   6.701
 3033POPC   C3B41325   6.375  44.949   7.048
 3033POPC   C4B41326   6.225  44.907   7.440
 3034POPC   NC341327  12.646  14.106   5.075
 3034POPC   PO441328  13.122  14.200   5.563
 3034POPC   GL141329  12.989  14.566   5.770
 3034POPC   GL241330  12.637  14.524   5.804
 3034POPC   C1A41331  12.978  14.742   6.176
 3034POPC   D2A41332  12.825  14.597   6.553
 3034POPC   C3A41333  12.979  14.745   6.936
 3034POPC   C4A41334  13.090  14.592   7.316
 3034POPC   C1B41335  12.791  14.227   6.159
 3034POPC   C2B41336  12.687  14.101   6.605
 3034POPC   C3B41337  12.818  14.138   7.073
 3034POPC   C4B41338  12.558  13.965   7.436
 3035POPC   NC341339  25.605  32.315   5.458
 3035POPC   PO441340  26.198  32.137   5.174
 3035POPC   GL141341  26.157  32.225   5.645
 3035POPC   GL241342  26.033  31.916   5.769
 3035POPC   C1A41343  25.964  32.306   6.097
 3035POPC   D2A41344  25.947  32.575   6.486
 3035POPC   C3A41345  26.011  32.479   6.936
 3035POPC   C4A41346  25.945  32.708   7.359
 3035POPC   C1B41347  26.222  31.812   6.190
 3035POPC   C2B41348  26.375  31.845   6.638
 3035POPC   C3B41349  26.303  32.032   7.055
 3035POPC   C4B41350  25.968  32.175   7.366
 3036POPC   NC341351  35.009  16.115   5.322
 3036POPC   PO441352  34.439  15.682   5.475
 3036POPC   GL141353  34.736  15.879   5.782
 3036POPC   GL241354  34.775  16.247   5.773
 3036POPC   C1A41355  34.657  15.800   6.231
 3036POPC   D2A41356  34.394  15.721   6.584
 3036POPC   C3A41357  34.684  15.768   6.933
 3036POPC   C4A41358  34.747  16.085   7.231
 3036POPC   C1B41359  34.595  16.327   6.194
 3036POPC   C2B41360  34.586  16.186   6.619
 3036POPC   C3B41361  34.298  16.124   6.959
 3036POPC   C4B41362  34.267  15.992   7.379
 3037POPC   NC341363  21.603  43.471   5.063
 3037POPC   PO441364  21.165  43.933   5.366
 3037POPC   GL141365  21.156  43.756   5.803
 3037POPC   GL241366  21.484  43.890   5.943
 3037POPC   C1A41367  21.045  43.725   6.256
 3037POPC   D2A41368  21.373  43.820   6.529
 3037POPC   C3A41369  21.336  43.790   6.964
 3037POPC   C4A41370  21.642  43.711   7.249
 3037POPC   C1B41371  21.233  44.198   6.208
 3037POPC   C2B41372  21.161  44.269   6.672
 3037POPC   C3B41373  21.065  44.256   7.121
 3037POPC   C4B41374  21.118  44.127   7.562
 3038POPC   NC341375   8.453   1.502   5.330
 3038POPC   PO441376   9.033   1.292   5.265
 3038POPC   GL141377   8.855   1.303   5.720
 3038POPC   GL241378   9.064   1.065   5.890
 3038POPC   C1A41379   8.724   1.359   6.218
 3038POPC   D2A41380   8.584   1.406   6.707
 3038POPC   C3A41381   8.876   1.445   7.085
 3038POPC   C4A41382   8.844   1.334   7.542
 3038POPC   C1B41383   9.173   1.132   6.357
 3038POPC   C2B41384   9.105   1.074   6.819
 3038POPC   C3B41385   8.838   0.945   7.172
 3038POPC   C4B41386   8.904   0.791   7.578
 3039POPC   NC341387  22.135  24.240   5.204
 3039POPC   PO441388  21.987  24.918   5.404
 3039POPC   GL141389  22.039  24.701   5.835
 3039POPC   GL241390  22.122  24.359   5.754
 3039POPC   C1A41391  22.154  24.693   6.319
 3039POPC   D2A41392  22.422  24.440   6.657
 3039POPC   C3A41393  22.288  24.337   7.077
 3039POPC   C4A41394  22.003  24.572   7.296
 3039POPC   C1B41395  21.913  24.271   6.183
 3039POPC   C2B41396  21.892  24.371   6.648
 3039POPC   C3B41397  21.809  24.143   7.054
 3039POPC   C4B41398  21.924  24.104   7.495
 3040POPC   NC341399  42.612  20.160   5.324
 3040POPC   PO441400  42.630  19.478   5.415
 3040POPC   GL141401  42.373  19.741   5.751
 3040POPC   GL241402  42.433  20.086   5.797
 3040POPC   C1A41403  42.373  19.703   6.199
 3040POPC   D2A41404  42.250  19.524   6.586
 3040POPC   C3A41405  42.237  19.696   6.999
 3040POPC   C4A41406  42.109  19.507   7.387
 3040POPC   C1B41407  42.261  20.205   6.211
 3040POPC   C2B41408  42.167  20.110   6.631
 3040POPC   C3B41409  42.302  20.204   7.038
 3040POPC   C4B41410  42.106  20.060   7.424
 3041POPC   NC341411  22.500  17.745   5.545
 3041POPC   PO441412  23.067  17.483   5.360
 3041POPC   GL141413  22.947  17.518   5.831
 3041POPC   GL241414  22.611  17.362   5.879
 3041POPC   C1A41415  23.094  17.471   6.305
 3041POPC   D2A41416  23.268  17.309   6.725
 3041POPC   C3A41417  23.066  17.547   7.080
 3041POPC   C4A41418  22.600  17.709   7.059
 3041POPC   C1B41419  22.622  17.282   6.310
 3041POPC   C2B41420  22.748  17.346   6.740
 3041POPC   C3B41421  22.772  17.129   7.145
 3041POPC   C4B41422  22.671  17.221   7.580
 3042POPC   NC341423  42.177  24.365   5.112
 3042POPC   PO441424  42.575  24.745   5.511
 3042POPC   GL141425  42.240  24.741   5.781
 3042POPC   GL241426  42.226  24.389   5.848
 3042POPC   C1A41427  42.078  24.696   6.211
 3042POPC   D2A41428  42.304  24.531   6.565
 3042POPC   C3A41429  42.249  24.775   6.927
 3042POPC   C4A41430  42.259  24.595   7.312
 3042POPC   C1B41431  42.116  24.049   6.140
 3042POPC   C2B41432  42.214  23.964   6.562
 3042POPC   C3B41433  42.242  24.175   6.959
 3042POPC   C4B41434  42.002  24.169   7.309
 3043POPC   NC341435  30.204  14.301   5.481
 3043POPC   PO441436  29.575  14.350   5.360
 3043POPC   GL141437  29.681  14.558   5.821
 3043POPC   GL241438  30.005  14.402   5.949
 3043POPC   C1A41439  29.793  14.729   6.286
 3043POPC   D2A41440  30.203  14.648   6.575
 3043POPC   C3A41441  30.188  14.732   7.043
 3043POPC   C4A41442  29.808  14.629   7.256
 3043POPC   C1B41443  30.161  14.025   6.190
 3043POPC   C2B41444  30.152  13.903   6.645
 3043POPC   C3B41445  30.210  14.216   7.001
 3043POPC   C4B41446  29.954  14.173   7.410
 3044POPC   NC341447  10.077  15.857   5.398
 3044POPC   PO441448   9.473  16.120   5.449
 3044POPC   GL141449   9.716  15.981   5.817
 3044POPC   GL241450  10.045  16.135   5.843
 3044POPC   C1A41451   9.881  15.788   6.221
 3044POPC   D2A41452  10.080  15.865   6.630
 3044POPC   C3A41453   9.860  15.795   7.062
 3044POPC   C4A41454   9.562  16.135   7.254
 3044POPC   C1B41455   9.854  16.319   6.197
 3044POPC   C2B41456   9.681  16.236   6.577
 3044POPC   C3B41457   9.934  16.279   6.924
 3044POPC   C4B41458   9.925  16.532   7.272
 3045POPC   NC341459  20.927  13.248   5.433
 3045POPC   PO441460  21.177  12.631   5.441
 3045POPC   GL141461  21.233  12.793   5.842
 3045POPC   GL241462  21.455  12.507   5.869
 3045POPC   C1A41463  21.258  13.139   6.144
 3045POPC   D2A41464  21.476  13.249   6.546
 3045POPC   C3A41465  21.386  13.062   6.949
 3045POPC   C4A41466  21.684  12.969   7.258
 3045POPC   C1B41467  21.567  12.736   6.240
 3045POPC   C2B41468  21.716  12.759   6.642
 3045POPC   C3B41469  21.554  12.536   6.981
 3045POPC   C4B41470  21.866  12.477   7.237
 3046POPC   NC341471   2.847  32.635   5.416
 3046POPC   PO441472   3.079  31.979   5.425
 3046POPC   GL141473   2.881  31.973   5.829
 3046POPC   GL241474   2.943  32.318   5.814
 3046POPC   C1A41475   2.565  32.170   6.117
 3046POPC   D2A41476   2.581  32.341   6.506
 3046POPC   C3A41477   2.618  32.009   6.764
 3046POPC   C4A41478   2.607  32.001   7.180
 3046POPC   C1B41479   2.985  32.499   6.219
 3046POPC   C2B41480   3.084  32.265   6.601
 3046POPC   C3B41481   3.058  32.171   7.057
 3046POPC   C4B41482   2.959  32.320   7.470
 3047POPC   NC341483   3.523  32.107   5.427
 3047POPC   PO441484   3.337  32.800   5.303
 3047POPC   GL141485   3.399  32.520   5.696
 3047POPC   GL241486   3.749  32.428   5.780
 3047POPC   C1A41487   3.382  32.195   6.079
 3047POPC   D2A41488   3.538  31.939   6.437
 3047POPC   C3A41489   3.518  32.076   6.848
 3047POPC   C4A41490   3.539  32.261   7.247
 3047POPC   C1B41491   3.654  32.650   6.130
 3047POPC   C2B41492   3.537  32.495   6.524
 3047POPC   C3B41493   3.731  32.605   6.909
 3047POPC   C4B41494   3.711  32.784   7.331
 3048POPC   NC341495  43.988  32.603   5.432
 3048POPC   PO441496  43.766  32.035   5.664
 3048POPC   GL141497  44.025  32.237   5.936
 3048POPC   GL241498  44.054  32.557   5.919
 3048POPC   C1A41499  44.036  32.175   6.349
 3048POPC   D2A41500  43.915  31.966   6.686
 3048POPC   C3A41501  43.892  32.159   7.084
 3048POPC   C4A41502  44.056  32.145   7.496
 3048POPC   C1B41503  44.287  32.604   6.267
 3048POPC   C2B41504  44.293  32.472   6.719
 3048POPC   C3B41505  44.283  32.470   7.177
 3048POPC   C4B41506  44.010  32.644   7.545
 3049POPC   NC341507   9.653  13.039   5.325
 3049POPC   PO441508  10.163  13.230   5.644
 3049POPC   GL141509   9.817  13.066   5.837
 3049POPC   GL241510   9.685  12.747   5.807
 3049POPC   C1A41511   9.861  12.982   6.261
 3049POPC   D2A41512   9.782  12.804   6.641
 3049POPC   C3A41513   9.906  12.983   7.035
 3049POPC   C4A41514  10.119  12.655   7.279
 3049POPC   C1B41515   9.427  12.722   6.224
 3049POPC   C2B41516   9.401  12.464   6.590
 3049POPC   C3B41517   9.388  12.678   6.946
 3049POPC   C4B41518   9.598  12.689   7.314
 3050POPC   NC341519  12.149  17.094   5.434
 3050POPC   PO441520  11.729  17.605   5.283
 3050POPC   GL141521  12.048  17.539   5.687
 3050POPC   GL241522  12.052  17.227   5.906
 3050POPC   C1A41523  12.211  17.638   6.141
 3050POPC   D2A41524  12.262  17.368   6.506
 3050POPC   C3A41525  12.224  17.501   6.905
 3050POPC   C4A41526  12.254  17.675   7.289
 3050POPC   C1B41527  11.799  17.249   6.269
 3050POPC   C2B41528  11.588  17.229   6.656
 3050POPC   C3B41529  11.785  17.215   7.041
 3050POPC   C4B41530  11.953  17.300   7.425
 3051POPC   NC341531  42.350  34.217   5.303
 3051POPC   PO441532  41.984  34.790   5.385
 3051POPC   GL141533  42.195  34.863   5.829
 3051POPC   GL241534  42.563  34.757   5.864
 3051POPC   C1A41535  42.306  34.990   6.250
 3051POPC   D2A41536  42.471  34.733   6.543
 3051POPC   C3A41537  42.433  34.801   6.961
 3051POPC   C4A41538  42.291  34.487   7.183
 3051POPC   C1B41539  42.807  34.569   6.208
 3051POPC   C2B41540  42.751  34.225   6.460
 3051POPC   C3B41541  42.561  34.191   6.849
 3051POPC   C4B41542  42.689  34.113   7.233
 3052POPC   NC341543  37.948  43.418   5.579
 3052POPC   PO441544  37.392  43.097   5.462
 3052POPC   GL141545  37.595  43.106   5.843
 3052POPC   GL241546  37.568  43.446   5.938
 3052POPC   C1A41547  37.691  43.047   6.294
 3052POPC   D2A41548  37.896  42.950   6.661
 3052POPC   C3A41549  37.600  43.031   6.963
 3052POPC   C4A41550  37.570  43.224   7.361
 3052POPC   C1B41551  37.925  43.476   6.231
 3052POPC   C2B41552  38.012  43.492   6.658
 3052POPC   C3B41553  38.081  43.269   7.034
 3052POPC   C4B41554  38.123  43.057   7.401
 3053POPC   NC341555   2.815   6.564   5.371
 3053POPC   PO441556   2.344   7.069   5.411
 3053POPC   GL141557   2.565   6.797   5.765
 3053POPC   GL241558   2.704   6.402   5.833
 3053POPC   C1A41559   2.823   6.784   6.146
 3053POPC   D2A41560   2.910   7.006   6.505
 3053POPC   C3A41561   2.958   6.820   6.887
 3053POPC   C4A41562   2.823   6.945   7.276
 3053POPC   C1B41563   2.605   6.167   6.211
 3053POPC   C2B41564   2.635   6.427   6.585
 3053POPC   C3B41565   2.692   6.336   7.007
 3053POPC   C4B41566   2.553   6.510   7.378
 3054POPC   NC341567  22.263  38.029   5.381
 3054POPC   PO441568  21.789  38.496   5.448
 3054POPC   GL141569  21.997  38.722   5.855
 3054POPC   GL241570  22.303  38.523   5.992
 3054POPC   C1A41571  21.964  38.690   6.328
 3054POPC   D2A41572  22.248  38.411   6.535
 3054POPC   C3A41573  22.214  38.355   6.967
 3054POPC   C4A41574  22.051  38.115   7.309
 3054POPC   C1B41575  22.668  38.582   6.298
 3054POPC   C2B41576  22.728  38.581   6.754
 3054POPC   C3B41577  22.606  38.683   7.165
 3054POPC   C4B41578  22.447  38.426   7.490
 3055POPC   NC341579  18.579  11.470   5.535
 3055POPC   PO441580  18.048  11.061   5.300
 3055POPC   GL141581  18.056  10.877   5.714
 3055POPC   GL241582  18.338  11.081   5.779
 3055POPC   C1A41583  17.954  11.036   6.150
 3055POPC   D2A41584  17.927  11.373   6.500
 3055POPC   C3A41585  18.171  11.307   6.866
 3055POPC   C4A41586  18.090  11.059   7.210
 3055POPC   C1B41587  18.390  11.335   6.180
 3055POPC   C2B41588  18.625  11.311   6.559
 3055POPC   C3B41589  18.667  11.496   6.915
 3055POPC   C4B41590  18.529  11.318   7.279
 3056POPC   NC341591  39.733  37.173   5.458
 3056POPC   PO441592  39.040  36.868   5.708
 3056POPC   GL141593  39.233  37.050   6.004
 3056POPC   GL241594  39.531  36.969   5.860
 3056POPC   C1A41595  39.456  37.191   6.367
 3056POPC   D2A41596  39.439  37.263   6.814
 3056POPC   C3A41597  39.138  36.980   6.989
 3056POPC   C4A41598  39.187  36.798   7.425
 3056POPC   C1B41599  39.563  36.698   6.203
 3056POPC   C2B41600  39.392  36.714   6.632
 3056POPC   C3B41601  39.506  36.644   7.073
 3056POPC   C4B41602  39.668  36.990   7.366
 3057POPC   NC341603   0.822   3.517   5.525
 3057POPC   PO441604   1.342   3.890   5.575
 3057POPC   GL141605   1.182   3.662   5.880
 3057POPC   GL241606   0.837   3.775   5.963
 3057POPC   C1A41607   1.374   3.593   6.263
 3057POPC   D2A41608   1.394   3.773   6.671
 3057POPC   C3A41609   1.354   3.544   7.055
 3057POPC   C4A41610   1.559   3.581   7.401
 3057POPC   C1B41611   0.912   3.384   6.209
 3057POPC   C2B41612   1.141   3.307   6.615
 3057POPC   C3B41613   0.981   3.227   7.034
 3057POPC   C4B41614   1.160   3.280   7.478
 3058POPC   NC341615  12.127   6.157   5.554
 3058POPC   PO441616  11.649   5.834   5.320
 3058POPC   GL141617  11.915   5.714   5.690
 3058POPC   GL241618  11.680   5.690   5.935
 3058POPC   C1A41619  12.200   5.662   6.091
 3058POPC   D2A41620  12.207   5.869   6.538
 3058POPC   C3A41621  12.240   5.680   6.963
 3058POPC   C4A41622  12.362   5.916   7.348
 3058POPC   C1B41623  11.847   6.024   6.214
 3058POPC   C2B41624  11.828   6.161   6.658
 3058POPC   C3B41625  11.864   6.017   7.069
 3058POPC   C4B41626  11.665   5.644   7.122
 3059POPC   NC341627  18.339  43.018   5.503
 3059POPC   PO441628  18.660  43.508   5.209
 3059POPC   GL141629  18.558  43.430   5.714
 3059POPC   GL241630  18.221  43.247   5.935
 3059POPC   C1A41631  18.571  43.483   6.182
 3059POPC   D2A41632  18.360  43.276   6.541
 3059POPC   C3A41633  18.582  43.201   6.943
 3059POPC   C4A41634  18.671  42.845   7.199
 3059POPC   C1B41635  17.889  43.289   6.299
 3059POPC   C2B41636  17.897  43.227   6.769
 3059POPC   C3B41637  18.131  42.934   7.092
 3059POPC   C4B41638  18.105  42.829   7.579
 3060POPC   NC341639  11.844  39.458   5.560
 3060POPC   PO441640  11.235  39.328   5.345
 3060POPC   GL141641  11.167  39.177   5.762
 3060POPC   GL241642  11.419  39.397   5.871
 3060POPC   C1A41643  11.029  39.234   6.192
 3060POPC   D2A41644  11.146  39.445   6.586
 3060POPC   C3A41645  11.076  39.178   6.936
 3060POPC   C4A41646  11.345  39.235   7.292
 3060POPC   C1B41647  11.543  39.273   6.276
 3060POPC   C2B41648  11.641  39.356   6.708
 3060POPC   C3B41649  11.813  39.315   7.105
 3060POPC   C4B41650  11.820  39.598   7.449
 3061POPC   NC341651  37.626   9.645   5.357
 3061POPC   PO441652  38.028   9.995   5.581
 3061POPC   GL141653  37.745   9.711   5.843
 3061POPC   GL241654  37.557   9.358   5.756
 3061POPC   C1A41655  37.689   9.823   6.263
 3061POPC   D2A41656  37.858   9.977   6.614
 3061POPC   C3A41657  37.665   9.962   6.986
 3061POPC   C4A41658  37.773   9.725   7.373
 3061POPC   C1B41659  37.420   9.407   6.162
 3061POPC   C2B41660  37.595   9.412   6.579
 3061POPC   C3B41661  37.442   9.496   6.988
 3061POPC   C4B41662  37.280   9.801   7.268
 3062POPC   NC341663  14.476   6.012   5.275
 3062POPC   PO441664  13.956   5.581   5.353
 3062POPC   GL141665  14.176   5.639   5.782
 3062POPC   GL241666  14.532   5.771   5.745
 3062POPC   C1A41667  14.184   5.828   6.230
 3062POPC   D2A41668  13.958   6.004   6.630
 3062POPC   C3A41669  14.051   5.821   7.039
 3062POPC   C4A41670  14.359   5.566   7.202
 3062POPC   C1B41671  14.540   6.151   6.048
 3062POPC   C2B41672  14.443   6.216   6.528
 3062POPC   C3B41673  14.469   6.073   6.995
 3062POPC   C4B41674  14.693   5.928   7.375
 3063POPC   NC341675   8.879  41.064   5.406
 3063POPC   PO441676   9.133  40.395   5.487
 3063POPC   GL141677   8.989  40.688   5.785
 3063POPC   GL241678   9.229  40.967   5.768
 3063POPC   C1A41679   8.854  40.558   6.199
 3063POPC   D2A41680   8.687  40.499   6.624
 3063POPC   C3A41681   8.855  40.734   6.974
 3063POPC   C4A41682   8.971  40.701   7.423
 3063POPC   C1B41683   9.356  40.751   6.159
 3063POPC   C2B41684   9.205  40.603   6.553
 3063POPC   C3B41685   9.355  40.676   6.922
 3063POPC   C4B41686   9.459  40.829   7.316
 3064POPC   NC341687  19.746  27.300   5.383
 3064POPC   PO441688  20.011  27.867   5.403
 3064POPC   GL141689  19.708  27.670   5.765
 3064POPC   GL241690  19.521  27.312   5.817
 3064POPC   C1A41691  19.889  27.558   6.178
 3064POPC   D2A41692  20.195  27.655   6.526
 3064POPC   C3A41693  20.156  27.505   6.964
 3064POPC   C4A41694  19.957  27.801   7.253
 3064POPC   C1B41695  19.506  27.232   6.228
 3064POPC   C2B41696  19.747  27.323   6.631
 3064POPC   C3B41697  19.647  27.431   7.058
 3064POPC   C4B41698  19.463  27.237   7.414
 3065POPC   NC341699   1.434   2.588   5.446
 3065POPC   PO441700   1.095   3.169   5.342
 3065POPC   GL141701   1.210   2.957   5.741
 3065POPC   GL241702   1.048   2.599   5.794
 3065POPC   C1A41703   1.300   3.042   6.169
 3065POPC   D2A41704   1.388   2.824   6.530
 3065POPC   C3A41705   1.425   2.994   6.931
 3065POPC   C4A41706   1.197   2.818   7.281
 3065POPC   C1B41707   1.324   2.449   6.118
 3065POPC   C2B41708   1.380   2.317   6.535
 3065POPC   C3B41709   1.247   2.474   6.908
 3065POPC   C4B41710   0.955   2.330   7.181
 3066POPC   NC341711  17.732  14.060   5.375
 3066POPC   PO441712  17.343  13.477   5.338
 3066POPC   GL141713  17.515  13.460   5.763
 3066POPC   GL241714  17.457  13.802   5.780
 3066POPC   C1A41715  17.716  13.535   6.165
 3066POPC   D2A41716  17.809  13.750   6.554
 3066POPC   C3A41717  17.594  13.625   6.917
 3066POPC   C4A41718  17.417  13.511   7.313
 3066POPC   C1B41719  17.440  13.988   6.188
 3066POPC   C2B41720  17.447  14.139   6.610
 3066POPC   C3B41721  17.307  14.027   7.038
 3066POPC   C4B41722  17.428  14.220   7.428
 3067POPC   NC341723   9.820   9.371   5.294
 3067POPC   PO441724  10.092   8.676   5.388
 3067POPC   GL141725   9.855   8.977   5.626
 3067POPC   GL241726  10.074   9.198   5.730
 3067POPC   C1A41727   9.651   8.967   6.042
 3067POPC   D2A41728   9.834   8.758   6.411
 3067POPC   C3A41729   9.708   8.833   6.834
 3067POPC   C4A41730   9.746   8.862   7.281
 3067POPC   C1B41731  10.138   9.089   6.164
 3067POPC   C2B41732  10.042   9.163   6.614
 3067POPC   C3B41733  10.183   9.063   7.044
 3067POPC   C4B41734  10.102   9.209   7.476
 3068POPC   NC341735  41.349   3.531   5.568
 3068POPC   PO441736  41.975   3.750   5.405
 3068POPC   GL141737  41.824   3.618   5.791
 3068POPC   GL241738  41.726   3.278   5.778
 3068POPC   C1A41739  41.752   3.785   6.198
 3068POPC   D2A41740  41.716   3.592   6.581
 3068POPC   C3A41741  41.827   3.797   6.917
 3068POPC   C4A41742  41.503   3.848   7.184
 3068POPC   C1B41743  41.499   3.329   6.158
 3068POPC   C2B41744  41.551   3.116   6.505
 3068POPC   C3B41745  41.774   3.174   6.866
 3068POPC   C4B41746  41.691   3.378   7.237
 3069POPC   NC341747  32.518  25.143   5.411
 3069POPC   PO441748  31.943  25.469   5.400
 3069POPC   GL141749  32.181  25.413   5.792
 3069POPC   GL241750  32.217  25.070   5.878
 3069POPC   C1A41751  32.223  25.467   6.262
 3069POPC   D2A41752  31.921  25.492   6.621
 3069POPC   C3A41753  32.104  25.575   7.034
 3069POPC   C4A41754  32.559  25.452   7.075
 3069POPC   C1B41755  32.249  24.943   6.339
 3069POPC   C2B41756  32.260  25.138   6.763
 3069POPC   C3B41757  32.189  25.090   7.214
 3069POPC   C4B41758  32.221  24.959   7.672
 3070POPC   NC341759   5.422  13.081   5.294
 3070POPC   PO441760   4.992  12.521   5.482
 3070POPC   GL141761   5.293  12.711   5.732
 3070POPC   GL241762   5.155  13.018   5.742
 3070POPC   C1A41763   5.322  12.838   6.162
 3070POPC   D2A41764   5.119  12.941   6.517
 3070POPC   C3A41765   5.201  12.827   6.927
 3070POPC   C4A41766   4.896  12.597   7.170
 3070POPC   C1B41767   4.887  13.171   6.087
 3070POPC   C2B41768   4.948  13.414   6.491
 3070POPC   C3B41769   4.846  13.189   6.883
 3070POPC   C4B41770   4.636  13.075   7.270
 3071POPC   NC341771  30.325  35.859   5.675
 3071POPC   PO441772  30.699  36.212   5.263
 3071POPC   GL141773  30.816  36.139   5.708
 3071POPC   GL241774  30.873  36.458   5.803
 3071POPC   C1A41775  30.746  36.038   6.190
 3071POPC   D2A41776  30.503  36.057   6.619
 3071POPC   C3A41777  30.580  35.936   7.049
 3071POPC   C4A41778  30.383  35.781   7.443
 3071POPC   C1B41779  30.467  36.442   6.030
 3071POPC   C2B41780  30.366  36.542   6.514
 3071POPC   C3B41781  30.515  36.477   6.976
 3071POPC   C4B41782  30.908  36.409   7.260
 3072POPC   NC341783  10.840  39.100   5.357
 3072POPC   PO441784  10.202  39.369   5.419
 3072POPC   GL141785  10.494  39.476   5.752
 3072POPC   GL241786  10.639  39.173   5.841
 3072POPC   C1A41787  10.535  39.501   6.222
 3072POPC   D2A41788  10.677  39.245   6.574
 3072POPC   C3A41789  10.674  39.514   6.915
 3072POPC   C4A41790  10.952  39.568   7.248
 3072POPC   C1B41791  10.365  39.014   6.203
 3072POPC   C2B41792  10.183  39.187   6.567
 3072POPC   C3B41793  10.369  39.068   6.977
 3072POPC   C4B41794  10.404  38.871   7.402
 3073POPC   NC341795  24.712   4.146   5.109
 3073POPC   PO441796  24.337   4.569   5.487
 3073POPC   GL141797  24.493   4.263   5.776
 3073POPC   GL241798  24.773   4.471   5.825
 3073POPC   C1A41799  24.308   4.187   6.194
 3073POPC   D2A41800  24.409   4.322   6.611
 3073POPC   C3A41801  24.371   4.124   6.987
 3073POPC   C4A41802  24.119   4.118   7.339
 3073POPC   C1B41803  24.711   4.535   6.244
 3073POPC   C2B41804  24.857   4.654   6.638
 3073POPC   C3B41805  24.750   4.483   7.019
 3073POPC   C4B41806  24.545   4.433   7.416
 3074POPC   NC341807  31.251  27.524   5.238
 3074POPC   PO441808  30.635  27.575   5.350
 3074POPC   GL141809  30.743  27.658   5.752
 3074POPC   GL241810  31.086  27.773   5.775
 3074POPC   C1A41811  30.789  27.595   6.183
 3074POPC   D2A41812  30.877  27.361   6.539
 3074POPC   C3A41813  30.662  27.580   6.854
 3074POPC   C4A41814  30.715  27.599   7.262
 3074POPC   C1B41815  31.268  27.840   6.210
 3074POPC   C2B41816  31.156  27.955   6.642
 3074POPC   C3B41817  31.009  28.010   7.057
 3074POPC   C4B41818  31.148  27.809   7.426
 3075POPC   NC341819   4.005  20.267   5.393
 3075POPC   PO441820   4.613  20.361   5.433
 3075POPC   GL141821   4.339  20.393   5.768
 3075POPC   GL241822   4.364  20.719   5.809
 3075POPC   C1A41823   4.187  20.440   6.205
 3075POPC   D2A41824   4.068  20.427   6.625
 3075POPC   C3A41825   4.364  20.425   6.962
 3075POPC   C4A41826   4.207  20.362   7.341
 3075POPC   C1B41827   4.424  20.903   6.196
 3075POPC   C2B41828   4.481  20.745   6.582
 3075POPC   C3B41829   4.479  20.923   6.974
 3075POPC   C4B41830   4.317  20.866   7.340
 3076POPC   NC341831  22.290   1.249   5.357
 3076POPC   PO441832  21.747   1.480   5.605
 3076POPC   GL141833  22.012   1.241   5.790
 3076POPC   GL241834  22.281   1.489   5.804
 3076POPC   C1A41835  22.101   1.087   6.174
 3076POPC   D2A41836  22.342   0.941   6.497
 3076POPC   C3A41837  22.148   1.005   6.897
 3076POPC   C4A41838  22.233   0.946   7.318
 3076POPC   C1B41839  22.094   1.592   6.179
 3076POPC   C2B41840  22.141   1.417   6.586
 3076POPC   C3B41841  22.035   1.477   7.023
 3076POPC   C4B41842  22.194   1.450   7.442
 3077POPC   NC341843  41.939  26.963   5.444
 3077POPC   PO441844  41.351  26.868   5.216
 3077POPC   GL141845  41.484  26.848   5.690
 3077POPC   GL241846  41.641  26.552   5.841
 3077POPC   C1A41847  41.508  26.927   6.170
 3077POPC   D2A41848  41.251  27.102   6.548
 3077POPC   C3A41849  41.474  27.080   6.960
 3077POPC   C4A41850  41.524  26.709   7.227
 3077POPC   C1B41851  41.949  26.459   6.195
 3077POPC   C2B41852  42.041  26.579   6.619
 3077POPC   C3B41853  41.917  26.472   7.050
 3077POPC   C4B41854  42.066  26.409   7.506
 3078POPC   NC341855  32.622  28.001   5.405
 3078POPC   PO441856  32.361  27.401   5.501
 3078POPC   GL141857  32.268  27.596   5.880
 3078POPC   GL241858  32.516  27.881   5.889
 3078POPC   C1A41859  32.075  27.345   6.225
 3078POPC   D2A41860  31.889  27.302   6.630
 3078POPC   C3A41861  32.041  27.629   6.874
 3078POPC   C4A41862  32.063  27.823   7.256
 3078POPC   C1B41863  32.501  27.738   6.324
 3078POPC   C2B41864  32.534  27.501   6.711
 3078POPC   C3B41865  32.473  27.546   7.164
 3078POPC   C4B41866  32.501  27.338   7.581
 3079POPC   NC341867  42.255  40.176   5.620
 3079POPC   PO441868  42.585  39.636   5.524
 3079POPC   GL141869  42.417  39.744   5.902
 3079POPC   GL241870  42.067  39.728   5.812
 3079POPC   C1A41871  42.386  40.043   6.232
 3079POPC   D2A41872  42.170  40.132   6.592
 3079POPC   C3A41873  42.312  39.941   6.978
 3079POPC   C4A41874  42.507  40.047   7.378
 3079POPC   C1B41875  41.943  39.796   6.241
 3079POPC   C2B41876  41.852  39.625   6.653
 3079POPC   C3B41877  41.903  39.600   7.086
 3079POPC   C4B41878  42.047  39.820   7.436
 3080POPC   NC341879   8.179   3.724   5.125
 3080POPC   PO441880   8.095   4.383   5.317
 3080POPC   GL141881   8.182   4.429   5.775
 3080POPC   GL241882   8.301   4.089   5.730
 3080POPC   C1A41883   8.197   4.256   6.230
 3080POPC   D2A41884   7.981   4.072   6.596
 3080POPC   C3A41885   7.996   4.404   6.900
 3080POPC   C4A41886   8.091   4.489   7.291
 3080POPC   C1B41887   8.639   4.138   6.023
 3080POPC   C2B41888   8.631   4.022   6.445
 3080POPC   C3B41889   8.450   4.248   6.775
 3080POPC   C4B41890   8.579   4.314   7.224
 3081POPC   NC341891   8.289  16.247   5.454
 3081POPC   PO441892   8.138  15.571   5.358
 3081POPC   GL141893   8.168  15.768   5.788
 3081POPC   GL241894   8.470  15.977   5.839
 3081POPC   C1A41895   8.279  15.747   6.249
 3081POPC   D2A41896   8.098  15.620   6.630
 3081POPC   C3A41897   8.248  15.851   6.954
 3081POPC   C4A41898   8.254  15.830   7.389
 3081POPC   C1B41899   8.134  16.211   6.109
 3081POPC   C2B41900   7.974  16.112   6.543
 3081POPC   C3B41901   7.963  16.264   6.973
 3081POPC   C4B41902   8.191  16.331   7.338
 3082POPC   NC341903  20.352  39.467   5.403
 3082POPC   PO441904  20.938  39.018   5.398
 3082POPC   GL141905  20.710  39.227   5.739
 3082POPC   GL241906  20.358  39.092   5.769
 3082POPC   C1A41907  20.750  39.149   6.195
 3082POPC   D2A41908  20.965  38.862   6.500
 3082POPC   C3A41909  20.898  38.971   6.932
 3082POPC   C4A41910  20.769  39.357   7.161
 3082POPC   C1B41911  20.240  39.067   6.215
 3082POPC   C2B41912  20.413  39.281   6.573
 3082POPC   C3B41913  20.295  39.397   6.975
 3082POPC   C4B41914  20.331  39.177   7.362
 3083POPC   NC341915  43.290  32.676   5.524
 3083POPC   PO441916  43.267  33.342   5.312
 3083POPC   GL141917  43.001  33.156   5.679
 3083POPC   GL241918  43.271  33.052   5.881
 3083POPC   C1A41919  42.826  32.987   6.105
 3083POPC   D2A41920  42.658  32.931   6.528
 3083POPC   C3A41921  42.858  32.818   6.940
 3083POPC   C4A41922  42.824  32.927   7.396
 3083POPC   C1B41923  43.269  32.776   6.257
 3083POPC   C2B41924  43.329  32.720   6.714
 3083POPC   C3B41925  43.307  32.869   7.160
 3083POPC   C4B41926  43.400  32.794   7.598
 3084POPC   NC341927  29.552  44.598   5.499
 3084POPC   PO441928  30.037  44.141   5.245
 3084POPC   GL141929  30.217  44.411   5.704
 3084POPC   GL241930  30.027  44.704   5.746
 3084POPC   C1A41931  30.141  44.403   6.159
 3084POPC   D2A41932  29.824  44.549   6.449
 3084POPC   C3A41933  29.998  44.569   6.846
 3084POPC   C4A41934  29.768  44.459   7.169
 3084POPC   C1B41935  30.030  44.897   6.130
 3084POPC   C2B41936  30.092  44.972   6.566
 3084POPC   C3B41937  30.007   0.060   6.991
 3084POPC   C4B41938  30.062  44.882   7.391
 3085POPC   NC341939  38.761  31.927   5.470
 3085POPC   PO441940  38.770  31.258   5.526
 3085POPC   GL141941  39.015  31.541   5.824
 3085POPC   GL241942  39.409  31.551   5.811
 3085POPC   C1A41943  39.159  31.436   6.258
 3085POPC   D2A41944  39.001  31.195   6.621
 3085POPC   C3A41945  39.088  31.389   7.031
 3085POPC   C4A41946  38.872  31.348   7.421
 3085POPC   C1B41947  39.637  31.262   6.137
 3085POPC   C2B41948  39.529  31.207   6.599
 3085POPC   C3B41949  39.618  31.321   7.047
 3085POPC   C4B41950  39.376  31.235   7.445
 3086POPC   NC341951   8.446  15.348   5.047
 3086POPC   PO441952   7.924  15.104   5.448
 3086POPC   GL141953   8.001  15.272   5.864
 3086POPC   GL241954   8.126  14.903   5.897
 3086POPC   C1A41955   8.319  15.249   6.233
 3086POPC   D2A41956   8.537  15.398   6.618
 3086POPC   C3A41957   8.308  15.349   7.014
 3086POPC   C4A41958   8.418  15.359   7.421
 3086POPC   C1B41959   8.134  14.779   6.291
 3086POPC   C2B41960   8.186  14.976   6.658
 3086POPC   C3B41961   8.140  14.721   7.004
 3086POPC   C4B41962   8.192  14.879   7.427
 3087POPC   NC341963  43.307  16.955   5.588
 3087POPC   PO441964  43.113  16.365   5.253
 3087POPC   GL141965  43.040  16.422   5.709
 3087POPC   GL241966  43.349  16.454   5.824
 3087POPC   C1A41967  43.004  16.601   6.179
 3087POPC   D2A41968  42.864  16.653   6.656
 3087POPC   C3A41969  42.960  16.790   7.102
 3087POPC   C4A41970  42.845  16.640   7.542
 3087POPC   C1B41971  43.468  16.402   6.238
 3087POPC   C2B41972  43.371  16.654   6.582
 3087POPC   C3B41973  43.342  16.463   6.961
 3087POPC   C4B41974  43.316  16.550   7.391
 3088POPC   NC341975   8.573  44.140   5.328
 3088POPC   PO441976   8.052  43.701   5.432
 3088POPC   GL141977   8.178  43.792   5.793
 3088POPC   GL241978   8.298  43.492   5.860
 3088POPC   C1A41979   8.338  43.910   6.180
 3088POPC   D2A41980   8.197  44.065   6.553
 3088POPC   C3A41981   8.436  43.888   6.880
 3088POPC   C4A41982   8.310  43.779   7.249
 3088POPC   C1B41983   8.062  43.462   6.198
 3088POPC   C2B41984   8.246  43.547   6.540
 3088POPC   C3B41985   8.137  43.457   6.902
 3088POPC   C4B41986   8.138  43.274   7.269
 3089POPC   NC341987  20.883  34.497   5.313
 3089POPC   PO441988  20.265  34.152   5.305
 3089POPC   GL141989  20.523  34.414   5.664
 3089POPC   GL241990  20.496  34.766   5.819
 3089POPC   C1A41991  20.697  34.359   6.101
 3089POPC   D2A41992  20.554  34.178   6.499
 3089POPC   C3A41993  20.727  34.303   6.875
 3089POPC   C4A41994  20.678  34.478   7.259
 3089POPC   C1B41995  20.813  34.865   6.161
 3089POPC   C2B41996  20.912  34.713   6.576
 3089POPC   C3B41997  20.943  34.832   7.001
 3089POPC   C4B41998  20.622  35.004   7.256
 3090POPC   NC341999  19.971  21.265   5.425
 3090POPC   PO442000  19.517  21.767   5.623
 3090POPC   GL142001  19.858  21.684   5.866
 3090POPC   GL242002  19.735  21.352   5.879
 3090POPC   C1A42003  19.951  21.582   6.293
 3090POPC   D2A42004  19.653  21.368   6.562
 3090POPC   C3A42005  19.742  21.295   6.950
 3090POPC   C4A42006  20.131  21.118   7.079
 3090POPC   C1B42007  19.882  21.087   6.177
 3090POPC   C2B42008  19.871  20.879   6.575
 3090POPC   C3B42009  19.749  20.808   6.993
 3090POPC   C4B42010  19.746  21.057   7.429
 3091POPC   NC342011  41.410  32.074   5.280
 3091POPC   PO442012  41.745  32.651   5.491
 3091POPC   GL142013  41.483  32.417   5.797
 3091POPC   GL242014  41.378  32.020   5.770
 3091POPC   C1A42015  41.590  32.514   6.237
 3091POPC   D2A42016  41.792  32.494   6.647
 3091POPC   C3A42017  41.543  32.430   7.019
 3091POPC   C4A42018  41.710  32.149   7.346
 3091POPC   C1B42019  41.310  32.108   6.176
 3091POPC   C2B42020  41.410  32.137   6.581
 3091POPC   C3B42021  41.143  32.103   6.903
 3091POPC   C4B42022  41.208  32.082   7.311
 3092POPC   NC342023   1.286  38.404   5.254
 3092POPC   PO442024   0.654  38.116   5.385
 3092POPC   GL142025   0.950  38.379   5.685
 3092POPC   GL242026   1.317  38.256   5.750
 3092POPC   C1A42027   1.103  38.564   6.091
 3092POPC   D2A42028   1.314  38.625   6.501
 3092POPC   C3A42029   1.144  38.386   6.845
 3092POPC   C4A42030   0.962  38.532   7.220
 3092POPC   C1B42031   1.384  38.109   6.187
 3092POPC   C2B42032   1.322  37.941   6.596
 3092POPC   C3B42033   1.498  37.978   6.999
 3092POPC   C4B42034   1.476  38.353   7.243
 3093POPC   NC342035  41.628  11.582   5.510
 3093POPC   PO442036  41.077  11.399   5.371
 3093POPC   GL142037  41.256  11.400   5.827
 3093POPC   GL242038  41.543  11.184   5.840
 3093POPC   C1A42039  41.421  11.462   6.284
 3093POPC   D2A42040  41.564  11.667   6.680
 3093POPC   C3A42041  41.505  11.424   7.076
 3093POPC   C4A42042  41.614  11.304   7.510
 3093POPC   C1B42043  41.687  11.023   6.244
 3093POPC   C2B42044  41.752  11.174   6.682
 3093POPC   C3B42045  41.883  11.037   7.122
 3093POPC   C4B42046  42.026  10.981   7.579
 3094POPC   NC342047  40.529  23.129   5.012
 3094POPC   PO442048  40.742  22.558   5.314
 3094POPC   GL142049  40.675  22.819   5.676
 3094POPC   GL242050  40.991  23.062   5.688
 3094POPC   C1A42051  40.456  22.778   6.068
 3094POPC   D2A42052  40.367  22.705   6.511
 3094POPC   C3A42053  40.606  22.829   6.874
 3094POPC   C4A42054  40.780  22.727   7.286
 3094POPC   C1B42055  40.986  22.856   6.106
 3094POPC   C2B42056  41.015  22.757   6.563
 3094POPC   C3B42057  41.077  23.066   6.891
 3094POPC   C4B42058  41.144  23.369   7.225
 3095POPC   NC342059  39.289  16.024   5.038
 3095POPC   PO442060  38.956  15.915   5.467
 3095POPC   GL142061  39.172  15.845   5.867
 3095POPC   GL242062  39.399  15.567   5.823
 3095POPC   C1A42063  39.188  15.972   6.311
 3095POPC   D2A42064  39.489  15.989   6.635
 3095POPC   C3A42065  39.448  16.015   7.082
 3095POPC   C4A42066  39.705  15.980   7.488
 3095POPC   C1B42067  39.213  15.462   6.234
 3095POPC   C2B42068  39.213  15.581   6.667
 3095POPC   C3B42069  39.248  15.542   7.107
 3095POPC   C4B42070  38.909  15.467   7.457
 3096POPC   NC342071  32.713  30.296   5.323
 3096POPC   PO442072  32.930  30.986   5.292
 3096POPC   GL142073  33.020  30.902   5.774
 3096POPC   GL242074  33.004  30.520   5.765
 3096POPC   C1A42075  33.214  30.745   6.177
 3096POPC   D2A42076  33.161  30.477   6.559
 3096POPC   C3A42077  33.133  30.716   6.945
 3096POPC   C4A42078  32.982  30.772   7.384
 3096POPC   C1B42079  32.753  30.512   6.169
 3096POPC   C2B42080  32.664  30.642   6.606
 3096POPC   C3B42081  32.708  30.440   7.048
 3096POPC   C4B42082  32.446  30.286   7.409
 3097POPC   NC342083   4.080  33.539   5.321
 3097POPC   PO442084   4.633  33.810   5.451
 3097POPC   GL142085   4.338  33.664   5.754
 3097POPC   GL242086   4.081  33.868   5.769
 3097POPC   C1A42087   4.319  33.566   6.200
 3097POPC   D2A42088   4.372  33.766   6.605
 3097POPC   C3A42089   4.252  33.543   6.942
 3097POPC   C4A42090   4.366  33.596   7.357
 3097POPC   C1B42091   3.853  33.779   6.140
 3097POPC   C2B42092   3.882  33.600   6.530
 3097POPC   C3B42093   3.763  33.675   6.937
 3097POPC   C4B42094   3.901  33.840   7.315
 3098POPC   NC342095  33.970  28.994   5.158
 3098POPC   PO442096  33.328  29.028   5.276
 3098POPC   GL142097  33.630  29.134   5.637
 3098POPC   GL242098  33.984  28.956   5.689
 3098POPC   C1A42099  33.660  29.270   6.100
 3098POPC   D2A42100  33.548  29.062   6.498
 3098POPC   C3A42101  33.550  29.274   6.901
 3098POPC   C4A42102  33.682  29.293   7.337
 3098POPC   C1B42103  33.992  28.871   6.160
 3098POPC   C2B42104  34.077  29.079   6.583
 3098POPC   C3B42105  33.942  28.959   7.014
 3098POPC   C4B42106  33.932  28.893   7.487
 3099POPC   NC342107  27.277  15.506   5.171
 3099POPC   PO442108  27.852  15.910   5.360
 3099POPC   GL142109  27.569  15.835   5.746
 3099POPC   GL242110  27.333  15.574   5.863
 3099POPC   C1A42111  27.322  16.065   6.071
 3099POPC   D2A42112  27.304  16.225   6.503
 3099POPC   C3A42113  27.109  16.195   6.909
 3099POPC   C4A42114  27.420  16.134   7.213
 3099POPC   C1B42115  27.327  15.631   6.353
 3099POPC   C2B42116  27.315  15.713   6.828
 3099POPC   C3B42117  27.471  15.633   7.271
 3099POPC   C4B42118  27.401  15.752   7.710
 3100POPC   NC342119  10.518   4.259   5.281
 3100POPC   PO442120  10.288   4.734   5.667
 3100POPC   GL142121  10.629   4.458   5.784
 3100POPC   GL242122  10.557   4.114   5.829
 3100POPC   C1A42123  10.744   4.467   6.222
 3100POPC   D2A42124  10.497   4.452   6.620
 3100POPC   C3A42125  10.696   4.440   7.039
 3100POPC   C4A42126  10.577   4.338   7.478
 3100POPC   C1B42127  10.683   3.966   6.270
 3100POPC   C2B42128  10.820   4.019   6.732
 3100POPC   C3B42129  10.832   3.975   7.206
 3100POPC   C4B42130  10.915   3.961   7.661
 3101POPC   NC342131  18.897  24.215   5.315
 3101POPC   PO442132  19.413  24.556   5.343
 3101POPC   GL142133  19.200  24.396   5.694
 3101POPC   GL242134  18.984  24.699   5.715
 3101POPC   C1A42135  18.890  24.291   6.013
 3101POPC   D2A42136  19.016  24.276   6.434
 3101POPC   C3A42137  18.852  24.287   6.835
 3101POPC   C4A42138  19.003  24.360   7.248
 3101POPC   C1B42139  19.003  24.753   6.184
 3101POPC   C2B42140  18.711  24.699   6.550
 3101POPC   C3B42141  18.757  24.767   7.026
 3101POPC   C4B42142  18.717  24.723   7.502
 3102POPC   NC342143   0.769  43.202   5.273
 3102POPC   PO442144   0.518  42.655   5.484
 3102POPC   GL142145   0.420  42.950   5.752
 3102POPC   GL242146   0.067  42.854   5.782
 3102POPC   C1A42147   0.435  43.148   6.160
 3102POPC   D2A42148   0.214  43.064   6.552
 3102POPC   C3A42149   0.461  43.102   6.916
 3102POPC   C4A42150   0.481  43.509   7.125
 3102POPC   C1B42151   0.229  42.681   6.181
 3102POPC   C2B42152   0.110  42.563   6.591
 3102POPC   C3B42153   0.074  42.754   6.976
 3102POPC   C4B42154   0.376  42.668   7.276
 3103POPC   NC342155  14.512  29.342   5.075
 3103POPC   PO442156  14.187  29.494   5.656
 3103POPC   GL142157  14.542  29.256   5.827
 3103POPC   GL242158  14.452  28.923   5.708
 3103POPC   C1A42159  14.623  29.045   6.237
 3103POPC   D2A42160  14.766  29.097   6.677
 3103POPC   C3A42161  14.509  29.294   6.979
 3103POPC   C4A42162  14.308  29.128   7.330
 3103POPC   C1B42163  14.304  28.680   6.060
 3103POPC   C2B42164  14.390  28.615   6.516
 3103POPC   C3B42165  14.348  28.764   6.929
 3103POPC   C4B42166  14.101  28.546   7.238
 3104POPC   NC342167  36.314  15.095   5.601
 3104POPC   PO442168  35.868  15.323   5.051
 3104POPC   GL142169  35.813  15.253   5.581
 3104POPC   GL242170  35.866  14.911   5.766
 3104POPC   C1A42171  35.775  15.265   6.111
 3104POPC   D2A42172  35.936  15.408   6.548
 3104POPC   C3A42173  35.948  15.176   6.953
 3104POPC   C4A42174  36.254  15.290   7.313
 3104POPC   C1B42175  36.139  14.855   6.162
 3104POPC   C2B42176  36.248  14.985   6.548
 3104POPC   C3B42177  36.407  14.975   6.936
 3104POPC   C4B42178  36.194  14.751   7.252
 3105POPC   NC342179  20.650   7.835   5.506
 3105POPC   PO442180  20.451   8.437   5.320
 3105POPC   GL142181  20.472   8.300   5.751
 3105POPC   GL242182  20.833   8.241   5.757
 3105POPC   C1A42183  20.304   8.286   6.206
 3105POPC   D2A42184  20.110   8.543   6.553
 3105POPC   C3A42185  20.217   8.393   6.935
 3105POPC   C4A42186  20.597   8.210   7.039
 3105POPC   C1B42187  20.804   8.452   6.143
 3105POPC   C2B42188  20.933   8.508   6.559
 3105POPC   C3B42189  21.060   8.468   6.967
 3105POPC   C4B42190  20.971   8.309   7.365
 3106POPC   NC342191  42.217  24.977   5.320
 3106POPC   PO442192  42.466  25.663   5.336
 3106POPC   GL142193  42.557  25.317   5.659
 3106POPC   GL242194  42.226  25.282   5.723
 3106POPC   C1A42195  42.488  25.085   6.094
 3106POPC   D2A42196  42.240  25.095   6.488
 3106POPC   C3A42197  42.411  25.265   6.852
 3106POPC   C4A42198  42.521  25.200   7.251
 3106POPC   C1B42199  42.083  25.449   6.122
 3106POPC   C2B42200  41.907  25.482   6.539
 3106POPC   C3B42201  41.877  25.229   6.931
 3106POPC   C4B42202  42.048  25.054   7.325
 3107POPC   NC342203  29.235  16.492   5.243
 3107POPC   PO442204  29.164  17.173   5.274
 3107POPC   GL142205  29.019  16.975   5.714
 3107POPC   GL242206  28.912  16.617   5.779
 3107POPC   C1A42207  29.231  16.848   6.135
 3107POPC   D2A42208  29.187  16.513   6.457
 3107POPC   C3A42209  29.255  16.711   6.874
 3107POPC   C4A42210  29.211  16.646   7.302
 3107POPC   C1B42211  28.727  16.865   6.131
 3107POPC   C2B42212  28.873  16.890   6.559
 3107POPC   C3B42213  28.740  16.835   6.968
 3107POPC   C4B42214  28.791  16.915   7.408
 3108POPC   NC342215  21.756  19.361   5.424
 3108POPC   PO442216  21.278  18.994   5.240
 3108POPC   GL142217  21.320  19.019   5.699
 3108POPC   GL242218  21.447  19.338   5.833
 3108POPC   C1A42219  21.216  19.014   6.166
 3108POPC   D2A42220  21.365  19.060   6.625
 3108POPC   C3A42221  21.157  18.778   6.955
 3108POPC   C4A42222  21.135  18.648   7.409
 3108POPC   C1B42223  21.414  19.507   6.249
 3108POPC   C2B42224  21.215  19.572   6.640
 3108POPC   C3B42225  21.026  19.299   6.956
 3108POPC   C4B42226  21.274  19.133   7.303
 3109POPC   NC342227   2.060  39.719   5.451
 3109POPC   PO442228   1.653  40.371   5.387
 3109POPC   GL142229   1.852  40.158   5.700
 3109POPC   GL242230   2.107  40.365   5.806
 3109POPC   C1A42231   1.818  39.983   6.118
 3109POPC   D2A42232   1.689  40.107   6.544
 3109POPC   C3A42233   1.965  40.035   6.878
 3109POPC   C4A42234   1.760  40.027   7.256
 3109POPC   C1B42235   2.368  40.241   6.129
 3109POPC   C2B42236   2.395  40.157   6.556
 3109POPC   C3B42237   2.356  40.395   6.929
 3109POPC   C4B42238   2.202  40.272   7.308
 3110POPC   NC342239  39.110  38.732   5.393
 3110POPC   PO442240  39.583  38.201   5.417
 3110POPC   GL142241  39.328  38.388   5.750
 3110POPC   GL242242  39.456  38.741   5.779
 3110POPC   C1A42243  39.176  38.225   6.179
 3110POPC   D2A42244  39.387  38.213   6.610
 3110POPC   C3A42245  39.166  38.283   6.977
 3110POPC   C4A42246  39.120  38.511   7.366
 3110POPC   C1B42247  39.122  38.753   6.107
 3110POPC   C2B42248  39.043  38.603   6.542
 3110POPC   C3B42249  39.181  38.799   6.923
 3110POPC   C4B42250  39.012  39.015   7.262
 3111POPC   NC342251  40.980   6.991   5.423
 3111POPC   PO442252  40.477   6.574   5.514
 3111POPC   GL142253  40.804   6.400   5.764
 3111POPC   GL242254  40.910   6.728   5.864
 3111POPC   C1A42255  40.720   6.366   6.194
 3111POPC   D2A42256  40.607   6.580   6.558
 3111POPC   C3A42257  40.755   6.407   6.946
 3111POPC   C4A42258  40.555   6.367   7.310
 3111POPC   C1B42259  41.024   6.798   6.294
 3111POPC   C2B42260  41.058   6.775   6.750
 3111POPC   C3B42261  40.782   6.903   7.112
 3111POPC   C4B42262  40.752   6.952   7.576
 3112POPC   NC342263  38.356  42.557   5.276
 3112POPC   PO442264  38.239  42.055   5.648
 3112POPC   GL142265  38.496  42.379   5.772
 3112POPC   GL242266  38.218  42.603   5.801
 3112POPC   C1A42267  38.679  42.493   6.193
 3112POPC   D2A42268  38.777  42.268   6.590
 3112POPC   C3A42269  38.560  42.327   6.998
 3112POPC   C4A42270  38.443  42.235   7.438
 3112POPC   C1B42271  38.203  42.320   6.204
 3112POPC   C2B42272  38.273  42.082   6.572
 3112POPC   C3B42273  38.093  42.055   6.983
 3112POPC   C4B42274  37.951  42.264   7.344
 3113POPC   NC342275  31.714  40.044   5.234
 3113POPC   PO442276  31.264  39.678   5.450
 3113POPC   GL142277  31.337  40.045   5.709
 3113POPC   GL242278  31.692  40.158   5.738
 3113POPC   C1A42279  31.471  39.900   6.130
 3113POPC   D2A42280  31.471  39.574   6.456
 3113POPC   C3A42281  31.386  39.806   6.846
 3113POPC   C4A42282  31.628  39.860   7.215
 3113POPC   C1B42283  31.684  40.359   6.166
 3113POPC   C2B42284  31.635  40.193   6.571
 3113POPC   C3B42285  31.558  40.315   6.995
 3113POPC   C4B42286  31.789  40.383   7.358
 3114POPC   NC342287  29.161   3.252   5.396
 3114POPC   PO442288  28.767   3.814   5.263
 3114POPC   GL142289  28.868   3.637   5.744
 3114POPC   GL242290  29.103   3.355   5.885
 3114POPC   C1A42291  29.037   3.750   6.211
 3114POPC   D2A42292  29.143   3.714   6.668
 3114POPC   C3A42293  29.173   3.505   7.092
 3114POPC   C4A42294  29.095   3.631   7.519
 3114POPC   C1B42295  28.801   3.293   6.242
 3114POPC   C2B42296  28.816   3.314   6.708
 3114POPC   C3B42297  28.980   3.019   7.025
 3114POPC   C4B42298  29.162   3.110   7.438
 3115POPC   NC342299   3.735   1.156   5.105
 3115POPC   PO442300   3.196   1.405   5.498
 3115POPC   GL142301   3.463   1.234   5.811
 3115POPC   GL242302   3.773   1.196   5.642
 3115POPC   C1A42303   3.557   1.115   6.234
 3115POPC   D2A42304   3.584   1.015   6.665
 3115POPC   C3A42305   3.549   1.284   7.045
 3115POPC   C4A42306   3.418   1.228   7.466
 3115POPC   C1B42307   3.903   1.422   6.032
 3115POPC   C2B42308   3.963   1.333   6.478
 3115POPC   C3B42309   3.932   1.575   6.836
 3115POPC   C4B42310   4.017   1.443   7.224
 3116POPC   NC342311  11.575  13.557   5.646
 3116POPC   PO442312  11.145  13.135   5.487
 3116POPC   GL142313  10.882  13.446   5.668
 3116POPC   GL242314  11.052  13.799   5.719
 3116POPC   C1A42315  10.875  13.475   6.110
 3116POPC   D2A42316  10.977  13.636   6.510
 3116POPC   C3A42317  11.269  13.402   6.751
 3116POPC   C4A42318  11.250  13.440   7.178
 3116POPC   C1B42319  11.250  13.869   6.146
 3116POPC   C2B42320  11.399  13.900   6.607
 3116POPC   C3B42321  11.261  13.939   7.078
 3116POPC   C4B42322  11.216  14.160   7.514
 3117POPC   NC342323  29.716  19.555   5.423
 3117POPC   PO442324  30.223  19.943   5.439
 3117POPC   GL142325  29.923  19.905   5.763
 3117POPC   GL242326  29.586  20.074   5.759
 3117POPC   C1A42327  29.826  19.641   6.105
 3117POPC   D2A42328  29.988  19.551   6.524
 3117POPC   C3A42329  29.780  19.723   6.881
 3117POPC   C4A42330  29.892  19.624   7.293
 3117POPC   C1B42331  29.758  20.171   6.164
 3117POPC   C2B42332  29.611  20.194   6.549
 3117POPC   C3B42333  29.767  20.309   6.937
 3117POPC   C4B42334  29.726  20.106   7.281
 3118POPC   NC342335  16.305  15.178   5.399
 3118POPC   PO442336  15.622  15.434   5.435
 3118POPC   GL142337  15.651  15.255   5.809
 3118POPC   GL242338  15.889  15.006   5.895
 3118POPC   C1A42339  15.562  15.261   6.210
 3118POPC   D2A42340  15.828  15.124   6.506
 3118POPC   C3A42341  15.730  15.088   6.923
 3118POPC   C4A42342  16.032  15.092   7.267
 3118POPC   C1B42343  16.083  15.402   6.039
 3118POPC   C2B42344  16.258  15.517   6.419
 3118POPC   C3B42345  16.120  15.436   6.816
 3118POPC   C4B42346  16.338  15.472   7.179
 3119POPC   NC342347  35.387   0.174   5.060
 3119POPC   PO442348  35.389   0.812   5.403
 3119POPC   GL142349  35.601   0.556   5.798
 3119POPC   GL242350  35.718   0.223   5.706
 3119POPC   C1A42351  35.579   0.532   6.310
 3119POPC   D2A42352  35.702   0.647   6.754
 3119POPC   C3A42353  35.435   0.547   7.052
 3119POPC   C4A42354  35.133   0.310   7.278
 3119POPC   C1B42355  35.492   0.029   6.051
 3119POPC   C2B42356  35.413  44.916   6.487
 3119POPC   C3B42357  35.657   0.135   6.796
 3119POPC   C4B42358  35.902   0.326   7.149
 3120POPC   NC342359   5.567   1.360   5.138
 3120POPC   PO442360   5.866   0.933   5.516
 3120POPC   GL142361   5.877   1.004   5.935
 3120POPC   GL242362   6.227   0.992   5.958
 3120POPC   C1A42363   5.827   0.886   6.336
 3120POPC   D2A42364   5.551   0.912   6.661
 3120POPC   C3A42365   5.633   1.088   7.050
 3120POPC   C4A42366   5.862   1.470   7.187
 3120POPC   C1B42367   6.098   1.323   6.264
 3120POPC   C2B42368   5.964   1.242   6.681
 3120POPC   C3B42369   6.148   1.083   7.023
 3120POPC   C4B42370   6.331   1.286   7.349
 3121POPC   NC342371   3.630  30.362   5.406
 3121POPC   PO442372   3.741  31.057   5.277
 3121POPC   GL142373   3.729  30.839   5.752
 3121POPC   GL242374   3.576  30.492   5.885
 3121POPC   C1A42375   3.890  30.750   6.174
 3121POPC   D2A42376   3.675  30.424   6.398
 3121POPC   C3A42377   3.653  30.491   6.817
 3121POPC   C4A42378   3.810  30.756   7.131
 3121POPC   C1B42379   3.355  30.778   6.174
 3121POPC   C2B42380   3.418  30.901   6.611
 3121POPC   C3B42381   3.304  30.817   7.019
 3121POPC   C4B42382   3.241  30.723   7.439
 3122POPC   NC342383  38.938  22.091   5.498
 3122POPC   PO442384  38.216  22.131   5.442
 3122POPC   GL142385  38.533  22.355   5.703
 3122POPC   GL242386  38.646  22.075   5.899
 3122POPC   C1A42387  38.735  22.560   6.095
 3122POPC   D2A42388  38.884  22.514   6.552
 3122POPC   C3A42389  38.556  22.454   6.868
 3122POPC   C4A42390  38.568  22.077   7.111
 3122POPC   C1B42391  38.245  22.127   6.107
 3122POPC   C2B42392  38.240  22.191   6.545
 3122POPC   C3B42393  38.077  22.158   6.943
 3122POPC   C4B42394  38.195  22.342   7.316
 3123POPC   NC342395  33.954  24.962   5.618
 3123POPC   PO442396  34.512  25.143   5.441
 3123POPC   GL142397  34.385  25.425   5.821
 3123POPC   GL242398  34.661  25.691   5.967
 3123POPC   C1A42399  34.398  25.299   6.244
 3123POPC   D2A42400  34.622  25.083   6.557
 3123POPC   C3A42401  34.502  25.182   6.976
 3123POPC   C4A42402  34.825  25.076   7.223
 3123POPC   C1B42403  34.881  25.479   6.317
 3123POPC   C2B42404  34.939  25.438   6.784
 3123POPC   C3B42405  34.895  25.578   7.212
 3123POPC   C4B42406  34.970  25.400   7.642
 3124POPC   NC342407  39.008   8.082   5.641
 3124POPC   PO442408  38.595   8.208   5.094
 3124POPC   GL142409  38.522   8.259   5.595
 3124POPC   GL242410  38.712   8.533   5.766
 3124POPC   C1A42411  38.461   8.139   6.084
 3124POPC   D2A42412  38.548   7.897   6.500
 3124POPC   C3A42413  38.421   8.033   6.936
 3124POPC   C4A42414  38.234   8.179   7.330
 3124POPC   C1B42415  38.430   8.653   6.137
 3124POPC   C2B42416  38.303   8.511   6.577
 3124POPC   C3B42417  38.460   8.552   7.025
 3124POPC   C4B42418  38.770   8.278   7.247
 3125POPC   NC342419  28.727  35.674   5.137
 3125POPC   PO442420  29.060  35.154   5.403
 3125POPC   GL142421  29.203  35.405   5.787
 3125POPC   GL242422  29.528  35.375   5.987
 3125POPC   C1A42423  29.033  35.464   6.176
 3125POPC   D2A42424  29.081  35.220   6.535
 3125POPC   C3A42425  29.344  35.408   6.837
 3125POPC   C4A42426  29.184  35.665   7.134
 3125POPC   C1B42427  29.551  34.967   6.245
 3125POPC   C2B42428  29.366  34.795   6.644
 3125POPC   C3B42429  29.147  34.960   7.033
 3125POPC   C4B42430  29.154  35.247   7.398
 3126POPC   NC342431  44.539  41.756   5.725
 3126POPC   PO442432  44.477  41.283   5.218
 3126POPC   GL142433  44.578  41.241   5.673
 3126POPC   GL242434  44.903  41.290   5.823
 3126POPC   C1A42435  44.469  41.265   6.144
 3126POPC   D2A42436  44.702  41.254   6.535
 3126POPC   C3A42437  44.506  41.411   6.911
 3126POPC   C4A42438  44.510  41.647   7.318
 3126POPC   C1B42439  44.997  41.518   6.195
 3126POPC   C2B42440  44.796  41.751   6.530
 3126POPC   C3B42441  44.807  41.858   6.953
 3126POPC   C4B42442   0.133  41.775   7.228
 3127POPC   NC342443  20.768  20.502   5.141
 3127POPC   PO442444  20.344  20.970   5.452
 3127POPC   GL142445  20.475  20.668   5.789
 3127POPC   GL242446  20.783  20.496   5.671
 3127POPC   C1A42447  20.546  20.710   6.260
 3127POPC   D2A42448  20.474  20.948   6.661
 3127POPC   C3A42449  20.432  20.714   7.023
 3127POPC   C4A42450  20.586  20.747   7.469
 3127POPC   C1B42451  20.931  20.409   6.112
 3127POPC   C2B42452  20.925  20.571   6.584
 3127POPC   C3B42453  20.824  20.403   7.013
 3127POPC   C4B42454  20.871  20.346   7.480
 3128POPC   NC342455   2.417  13.600   5.510
 3128POPC   PO442456   2.014  13.101   5.410
 3128POPC   GL142457   1.988  13.436   5.730
 3128POPC   GL242458   1.777  13.718   5.682
 3128POPC   C1A42459   2.137  13.586   6.140
 3128POPC   D2A42460   2.107  13.389   6.539
 3128POPC   C3A42461   2.158  13.597   6.923
 3128POPC   C4A42462   2.281  13.350   7.256
 3128POPC   C1B42463   1.640  13.734   6.123
 3128POPC   C2B42464   1.806  13.842   6.549
 3128POPC   C3B42465   1.665  13.843   6.983
 3128POPC   C4B42466   1.495  13.606   7.333
 3129POPC   NC342467  17.289   0.766   5.393
 3129POPC   PO442468  17.716   0.273   5.520
 3129POPC   GL142469  17.604   0.558   5.791
 3129POPC   GL242470  17.280   0.421   5.774
 3129POPC   C1A42471  17.732   0.439   6.187
 3129POPC   D2A42472  17.548   0.235   6.552
 3129POPC   C3A42473  17.576   0.373   6.963
 3129POPC   C4A42474  17.713   0.121   7.293
 3129POPC   C1B42475  17.229   0.376   6.202
 3129POPC   C2B42476  17.176   0.562   6.634
 3129POPC   C3B42477  17.079   0.592   7.040
 3129POPC   C4B42478  17.237   0.360   7.390
 3130POPC   NC342479  13.207  31.357   5.505
 3130POPC   PO442480  13.850  31.328   5.308
 3130POPC   GL142481  13.698  31.384   5.757
 3130POPC   GL242482  13.473  31.661   5.845
 3130POPC   C1A42483  13.840  31.538   6.194
 3130POPC   D2A42484  13.901  31.775   6.604
 3130POPC   C3A42485  13.742  31.528   6.949
 3130POPC   C4A42486  13.885  31.301   7.306
 3130POPC   C1B42487  13.488  31.906   6.254
 3130POPC   C2B42488  13.412  31.921   6.707
 3130POPC   C3B42489  13.609  31.991   7.102
 3130POPC   C4B42490  13.638  31.722   7.446
 3131POPC   NC342491  10.623  21.705   5.235
 3131POPC   PO442492  10.269  22.229   5.170
 3131POPC   GL142493  10.564  22.089   5.560
 3131POPC   GL242494  10.738  22.372   5.711
 3131POPC   C1A42495  10.577  21.899   5.998
 3131POPC   D2A42496  10.372  22.041   6.390
 3131POPC   C3A42497  10.457  22.010   6.856
 3131POPC   C4A42498  10.617  22.108   7.299
 3131POPC   C1B42499  10.626  22.422   6.117
 3131POPC   C2B42500  10.726  22.393   6.514
 3131POPC   C3B42501  10.754  22.427   6.939
 3131POPC   C4B42502  11.061  22.430   7.235
 3132POPC   NC342503  24.037  29.526   5.545
 3132POPC   PO442504  23.411  29.224   5.520
 3132POPC   GL142505  23.557  29.107   5.930
 3132POPC   GL242506  23.874  29.250   5.957
 3132POPC   C1A42507  23.634  29.186   6.401
 3132POPC   D2A42508  23.441  29.323   6.794
 3132POPC   C3A42509  23.660  29.119   7.096
 3132POPC   C4A42510  24.031  28.921   7.171
 3132POPC   C1B42511  24.105  29.555   6.197
 3132POPC   C2B42512  24.081  29.793   6.581
 3132POPC   C3B42513  23.921  29.574   6.919
 3132POPC   C4B42514  24.081  29.427   7.291
 3133POPC   NC342515  20.532  35.969   5.076
 3133POPC   PO442516  20.739  36.350   5.588
 3133POPC   GL142517  20.589  36.052   5.844
 3133POPC   GL242518  20.393  36.338   5.969
 3133POPC   C1A42519  20.420  35.733   6.133
 3133POPC   D2A42520  20.543  35.733   6.561
 3133POPC   C3A42521  20.444  36.095   6.829
 3133POPC   C4A42522  20.511  36.017   7.269
 3133POPC   C1B42523  20.624  36.187   6.322
 3133POPC   C2B42524  20.868  36.347   6.600
 3133POPC   C3B42525  21.024  36.365   6.997
 3133POPC   C4B42526  20.981  36.227   7.425
 3134POPC   NC342527  29.918  22.424   5.507
 3134POPC   PO442528  29.807  21.801   5.462
 3134POPC   GL142529  29.777  22.089   5.848
 3134POPC   GL242530  30.125  22.100   5.953
 3134POPC   C1A42531  29.737  22.220   6.300
 3134POPC   D2A42532  29.839  21.977   6.671
 3134POPC   C3A42533  29.855  22.112   7.084
 3134POPC   C4A42534  29.487  22.323   7.198
 3134POPC   C1B42535  30.240  22.357   6.324
 3134POPC   C2B42536  30.146  22.403   6.769
 3134POPC   C3B42537  30.308  22.312   7.193
 3134POPC   C4B42538  30.075  22.064   7.574
 3135POPC   NC342539  44.400  16.437   5.379
 3135POPC   PO442540  43.696  16.606   5.508
 3135POPC   GL142541  43.859  16.666   5.886
 3135POPC   GL242542  44.206  16.697   5.811
 3135POPC   C1A42543  43.837  16.745   6.338
 3135POPC   D2A42544  43.829  16.474   6.704
 3135POPC   C3A42545  43.981  16.701   7.054
 3135POPC   C4A42546  44.311  16.466   7.270
 3135POPC   C1B42547  44.321  16.840   6.212
 3135POPC   C2B42548  44.257  16.880   6.665
 3135POPC   C3B42549  44.412  16.988   7.101
 3135POPC   C4B42550  44.168  16.889   7.496
 3136POPC   NC342551  20.298  33.010   5.263
 3136POPC   PO442552  19.719  32.815   5.378
 3136POPC   GL142553  19.946  32.973   5.692
 3136POPC   GL242554  20.052  32.619   5.729
 3136POPC   C1A42555  19.810  33.194   6.075
 3136POPC   D2A42556  19.620  33.050   6.450
 3136POPC   C3A42557  19.810  33.111   6.822
 3136POPC   C4A42558  19.991  33.373   7.097
 3136POPC   C1B42559  19.806  32.655   6.112
 3136POPC   C2B42560  19.958  32.680   6.539
 3136POPC   C3B42561  19.801  32.618   6.934
 3136POPC   C4B42562  19.839  32.875   7.264
 3137POPC   NC342563  38.028  28.192   5.529
 3137POPC   PO442564  37.314  28.391   5.436
 3137POPC   GL142565  37.558  28.245   5.748
 3137POPC   GL242566  37.728  28.540   5.794
 3137POPC   C1A42567  37.689  28.222   6.197
 3137POPC   D2A42568  37.691  28.514   6.564
 3137POPC   C3A42569  37.733  28.337   6.965
 3137POPC   C4A42570  37.539  28.413   7.334
 3137POPC   C1B42571  37.947  28.674   6.133
 3137POPC   C2B42572  38.189  28.614   6.494
 3137POPC   C3B42573  38.181  28.610   6.913
 3137POPC   C4B42574  37.992  28.665   7.295
 3138POPC   NC342575  34.396  32.004   5.234
 3138POPC   PO442576  34.863  32.380   5.148
 3138POPC   GL142577  34.690  32.301   5.596
 3138POPC   GL242578  34.753  31.936   5.623
 3138POPC   C1A42579  34.456  32.121   6.003
 3138POPC   D2A42580  34.197  32.178   6.408
 3138POPC   C3A42581  34.376  32.098   6.823
 3138POPC   C4A42582  34.245  32.066   7.251
 3138POPC   C1B42583  35.041  32.110   5.945
 3138POPC   C2B42584  35.007  32.174   6.379
 3138POPC   C3B42585  34.920  32.027   6.794
 3138POPC   C4B42586  34.755  32.159   7.183
 3139POPC   NC342587  40.843  20.533   5.214
 3139POPC   PO442588  40.868  21.197   5.198
 3139POPC   GL142589  41.033  21.083   5.650
 3139POPC   GL242590  41.071  20.700   5.708
 3139POPC   C1A42591  40.933  20.998   6.134
 3139POPC   D2A42592  41.056  20.808   6.572
 3139POPC   C3A42593  40.953  20.869   7.014
 3139POPC   C4A42594  40.574  21.094   7.182
 3139POPC   C1B42595  40.988  20.318   6.023
 3139POPC   C2B42596  41.108  20.303   6.518
 3139POPC   C3B42597  40.931  20.355   6.959
 3139POPC   C4B42598  40.785  20.142   7.367
 3140POPC   NC342599  37.822  30.740   5.394
 3140POPC   PO442600  37.389  30.278   5.355
 3140POPC   GL142601  37.690  30.381   5.751
 3140POPC   GL242602  37.819  30.736   5.893
 3140POPC   C1A42603  37.717  30.321   6.219
 3140POPC   D2A42604  37.353  30.268   6.525
 3140POPC   C3A42605  37.428  30.394   6.978
 3140POPC   C4A42606  37.853  30.476   7.149
 3140POPC   C1B42607  37.562  30.800   6.267
 3140POPC   C2B42608  37.712  30.700   6.674
 3140POPC   C3B42609  37.727  30.955   7.038
 3140POPC   C4B42610  37.327  30.897   7.126
 3141POPC   NC342611   0.028  17.179   5.138
 3141POPC   PO442612  44.425  17.508   5.395
 3141POPC   GL142613  44.396  17.276   5.819
 3141POPC   GL242614  44.411  17.595   5.936
 3141POPC   C1A42615  44.678  17.194   6.200
 3141POPC   D2A42616  44.622  17.241   6.644
 3141POPC   C3A42617  44.870  17.488   6.893
 3141POPC   C4A42618  44.812  17.402   7.328
 3141POPC   C1B42619  44.728  17.712   6.239
 3141POPC   C2B42620  44.834  17.938   6.595
 3141POPC   C3B42621  44.655  17.957   6.998
 3141POPC   C4B42622  44.581  17.835   7.443
 3142POPC   NC342623  21.080  13.984   5.193
 3142POPC   PO442624  21.423  13.393   5.423
 3142POPC   GL142625  21.247  13.603   5.780
 3142POPC   GL242626  21.317  13.966   5.757
 3142POPC   C1A42627  21.387  13.654   6.216
 3142POPC   D2A42628  21.183  13.681   6.626
 3142POPC   C3A42629  21.487  13.658   6.966
 3142POPC   C4A42630  21.894  13.887   7.020
 3142POPC   C1B42631  21.122  14.093   6.162
 3142POPC   C2B42632  21.036  14.186   6.607
 3142POPC   C3B42633  21.148  14.041   7.020
 3142POPC   C4B42634  20.997  14.009   7.457
 3143POPC   NC342635  29.747   0.534   5.406
 3143POPC   PO442636  29.550  44.993   5.283
 3143POPC   GL142637  29.756   0.128   5.720
 3143POPC   GL242638  29.531   0.344   5.848
 3143POPC   C1A42639  29.967   0.384   6.122
 3143POPC   D2A42640  29.897   0.449   6.601
 3143POPC   C3A42641  30.083   0.555   7.037
 3143POPC   C4A42642  29.904   0.365   7.411
 3143POPC   C1B42643  29.491   0.574   6.232
 3143POPC   C2B42644  29.380   0.468   6.645
 3143POPC   C3B42645  29.582   0.418   7.030
 3143POPC   C4B42646  29.576   0.765   7.347
 3144POPC   NC342647  17.475  42.588   5.242
 3144POPC   PO442648  17.785  42.027   5.112
 3144POPC   GL142649  17.721  42.102   5.621
 3144POPC   GL242650  17.339  42.006   5.684
 3144POPC   C1A42651  17.845  42.334   6.094
 3144POPC   D2A42652  17.742  42.290   6.606
 3144POPC   C3A42653  17.467  42.369   7.019
 3144POPC   C4A42654  17.153  42.624   7.206
 3144POPC   C1B42655  17.512  41.955   6.097
 3144POPC   C2B42656  17.657  41.803   6.470
 3144POPC   C3B42657  17.524  41.881   6.902
 3144POPC   C4B42658  17.623  41.973   7.319
 3145POPC   NC342659  28.081  15.488   5.427
 3145POPC   PO442660  28.674  15.110   5.262
 3145POPC   GL142661  28.526  15.132   5.694
 3145POPC   GL242662  28.205  15.038   5.679
 3145POPC   C1A42663  28.680  15.245   6.126
 3145POPC   D2A42664  28.716  15.531   6.495
 3145POPC   C3A42665  28.684  15.370   6.907
 3145POPC   C4A42666  28.486  15.445   7.285
 3145POPC   C1B42667  28.164  15.318   6.057
 3145POPC   C2B42668  28.233  15.359   6.505
 3145POPC   C3B42669  28.135  15.241   6.938
 3145POPC   C4B42670  28.237  14.994   7.316
 3146POPC   NC342671  10.394  22.607   5.427
 3146POPC   PO442672  10.026  23.165   5.274
 3146POPC   GL142673  10.265  23.014   5.757
 3146POPC   GL242674  10.577  22.857   5.851
 3146POPC   C1A42675  10.331  22.810   6.269
 3146POPC   D2A42676  10.283  22.567   6.693
 3146POPC   C3A42677  10.395  22.784   7.107
 3146POPC   C4A42678  10.255  22.932   7.532
 3146POPC   C1B42679  10.821  22.915   6.246
 3146POPC   C2B42680  10.727  22.877   6.694
 3146POPC   C3B42681  10.907  22.903   7.115
 3146POPC   C4B42682  10.745  23.099   7.494
 3147POPC   NC342683  44.463  17.982   5.325
 3147POPC   PO442684   0.045  17.753   5.488
 3147POPC   GL142685  44.763  17.980   5.788
 3147POPC   GL242686  44.395  18.097   5.819
 3147POPC   C1A42687  44.767  18.238   6.152
 3147POPC   D2A42688   0.025  18.482   6.414
 3147POPC   C3A42689  44.963  18.380   6.861
 3147POPC   C4A42690  44.825  18.331   7.278
 3147POPC   C1B42691  44.321  18.025   6.256
 3147POPC   C2B42692  44.483  18.307   6.574
 3147POPC   C3B42693  44.376  18.420   6.961
 3147POPC   C4B42694  44.229  18.149   7.265
 3148POPC   NC342695  10.200  42.129   5.472
 3148POPC   PO442696  10.860  42.276   5.707
 3148POPC   GL142697  10.552  42.480   5.938
 3148POPC   GL242698  10.186  42.485   5.844
 3148POPC   C1A42699  10.666  42.621   6.352
 3148POPC   D2A42700  10.491  42.825   6.701
 3148POPC   C3A42701  10.689  42.701   7.075
 3148POPC   C4A42702  10.856  42.294   7.129
 3148POPC   C1B42703  10.200  42.408   6.316
 3148POPC   C2B42704  10.390  42.332   6.748
 3148POPC   C3B42705  10.338  42.315   7.219
 3148POPC   C4B42706  10.298  42.133   7.674
 3149POPC   NC342707  22.765  11.786   5.401
 3149POPC   PO442708  23.079  11.164   5.488
 3149POPC   GL142709  22.919  11.317   5.853
 3149POPC   GL242710  22.611  11.453   5.821
 3149POPC   C1A42711  22.912  11.248   6.269
 3149POPC   D2A42712  23.133  11.136   6.596
 3149POPC   C3A42713  22.970  11.202   6.965
 3149POPC   C4A42714  23.192  11.344   7.298
 3149POPC   C1B42715  22.421  11.511   6.222
 3149POPC   C2B42716  22.608  11.459   6.619
 3149POPC   C3B42717  22.474  11.355   7.007
 3149POPC   C4B42718  22.705  11.533   7.315
 3150POPC   NC342719  35.888   0.921   5.481
 3150POPC   PO442720  36.266   1.419   5.177
 3150POPC   GL142721  36.246   1.259   5.618
 3150POPC   GL242722  36.557   1.279   5.815
 3150POPC   C1A42723  36.013   1.227   6.059
 3150POPC   D2A42724  36.017   0.908   6.438
 3150POPC   C3A42725  35.980   1.041   6.922
 3150POPC   C4A42726  35.810   0.833   7.298
 3150POPC   C1B42727  36.471   1.117   6.246
 3150POPC   C2B42728  36.282   1.323   6.614
 3150POPC   C3B42729  36.447   1.293   7.043
 3150POPC   C4B42730  36.506   1.351   7.467
 3151POPC   NC342731  27.203  37.638   5.397
 3151POPC   PO442732  26.637  38.075   5.392
 3151POPC   GL142733  26.856  37.892   5.718
 3151POPC   GL242734  27.105  38.135   5.759
 3151POPC   C1A42735  26.837  37.721   6.149
 3151POPC   D2A42736  26.735  37.858   6.568
 3151POPC   C3A42737  26.584  37.586   6.920
 3151POPC   C4A42738  26.943  37.344   7.044
 3151POPC   C1B42739  27.311  38.073   6.164
 3151POPC   C2B42740  27.275  37.886   6.596
 3151POPC   C3B42741  27.238  37.801   7.053
 3151POPC   C4B42742  26.869  37.776   7.320
 3152POPC   NC342743  22.760   6.110   5.337
 3152POPC   PO442744  22.838   5.495   5.385
 3152POPC   GL142745  22.774   5.808   5.749
 3152POPC   GL242746  22.644   6.187   5.803
 3152POPC   C1A42747  22.880   5.841   6.170
 3152POPC   D2A42748  23.111   5.790   6.529
 3152POPC   C3A42749  22.857   5.800   6.889
 3152POPC   C4A42750  22.984   5.763   7.296
 3152POPC   C1B42751  22.444   6.215   6.165
 3152POPC   C2B42752  22.582   6.127   6.523
 3152POPC   C3B42753  22.564   6.245   6.906
 3152POPC   C4B42754  22.580   6.099   7.297
 3153POPC   NC342755  34.969   0.605   5.242
 3153POPC   PO442756  34.689   1.129   5.495
 3153POPC   GL142757  34.831   1.079   5.940
 3153POPC   GL242758  35.070   1.345   6.001
 3153POPC   C1A42759  34.721   0.942   6.382
 3153POPC   D2A42760  34.695   1.076   6.840
 3153POPC   C3A42761  34.486   0.792   7.166
 3153POPC   C4A42762  34.297   0.768   7.595
 3153POPC   C1B42763  35.046   1.325   6.447
 3153POPC   C2B42764  35.115   1.390   6.860
 3153POPC   C3B42765  35.008   1.287   7.274
 3153POPC   C4B42766  34.761   1.029   7.558
 3154POPC   NC342767  42.202  33.694   5.455
 3154POPC   PO442768  42.517  33.016   5.376
 3154POPC   GL142769  42.456  33.092   5.782
 3154POPC   GL242770  42.487  33.456   5.820
 3154POPC   C1A42771  42.338  32.796   6.135
 3154POPC   D2A42772  42.295  32.549   6.529
 3154POPC   C3A42773  42.360  32.781   6.915
 3154POPC   C4A42774  42.299  32.922   7.341
 3154POPC   C1B42775  42.211  33.311   6.167
 3154POPC   C2B42776  42.164  33.090   6.560
 3154POPC   C3B42777  42.226  33.270   6.988
 3154POPC   C4B42778  41.949  33.285   7.374
 3155POPC   NC342779   3.816  21.244   5.499
 3155POPC   PO442780   3.188  21.560   5.547
 3155POPC   GL142781   3.464  21.408   5.848
 3155POPC   GL242782   3.452  21.077   5.875
 3155POPC   C1A42783   3.598  21.559   6.248
 3155POPC   D2A42784   3.752  21.444   6.641
 3155POPC   C3A42785   3.620  21.576   7.062
 3155POPC   C4A42786   3.219  21.658   7.246
 3155POPC   C1B42787   3.598  21.046   6.271
 3155POPC   C2B42788   3.412  21.071   6.645
 3155POPC   C3B42789   3.632  21.051   7.005
 3155POPC   C4B42790   3.518  21.202   7.398
 3156POPC   NC342791  21.981   7.615   5.417
 3156POPC   PO442792  22.571   7.418   5.476
 3156POPC   GL142793  22.437   7.607   5.855
 3156POPC   GL242794  22.147   7.375   5.841
 3156POPC   C1A42795  22.258   7.596   6.290
 3156POPC   D2A42796  21.857   7.391   6.462
 3156POPC   C3A42797  21.896   7.421   6.895
 3156POPC   C4A42798  22.242   7.448   7.146
 3156POPC   C1B42799  22.153   7.083   6.178
 3156POPC   C2B42800  22.293   7.008   6.594
 3156POPC   C3B42801  22.119   6.950   6.971
 3156POPC   C4B42802  21.898   6.857   7.343
 3157POPC   NC342803   3.378   5.171   5.345
 3157POPC   PO442804   3.917   5.262   5.657
 3157POPC   GL142805   3.648   4.941   5.788
 3157POPC   GL242806   3.271   4.995   5.795
 3157POPC   C1A42807   3.575   4.997   6.228
 3157POPC   D2A42808   3.439   5.227   6.580
 3157POPC   C3A42809   3.589   5.066   6.943
 3157POPC   C4A42810   3.453   5.248   7.309
 3157POPC   C1B42811   3.138   5.292   6.107
 3157POPC   C2B42812   3.017   5.488   6.482
 3157POPC   C3B42813   3.022   5.446   6.925
 3157POPC   C4B42814   3.070   5.586   7.349
 3158POPC   NC342815  18.783   6.847   5.359
 3158POPC   PO442816  19.284   6.470   5.246
 3158POPC   GL142817  19.054   6.532   5.673
 3158POPC   GL242818  19.060   6.909   5.788
 3158POPC   C1A42819  19.093   6.481   6.143
 3158POPC   D2A42820  19.366   6.482   6.526
 3158POPC   C3A42821  19.111   6.399   6.890
 3158POPC   C4A42822  18.829   6.465   7.203
 3158POPC   C1B42823  18.937   6.975   6.217
 3158POPC   C2B42824  18.985   6.799   6.590
 3158POPC   C3B42825  19.277   6.893   6.885
 3158POPC   C4B42826  19.231   6.751   7.263
 3159POPC   NC342827  22.086   4.551   5.350
 3159POPC   PO442828  22.052   3.864   5.280
 3159POPC   GL142829  21.930   4.147   5.633
 3159POPC   GL242830  22.264   4.269   5.760
 3159POPC   C1A42831  21.892   4.242   6.107
 3159POPC   D2A42832  22.129   4.221   6.532
 3159POPC   C3A42833  21.990   4.359   6.942
 3159POPC   C4A42834  22.046   4.061   7.275
 3159POPC   C1B42835  22.317   4.528   6.166
 3159POPC   C2B42836  22.187   4.723   6.606
 3159POPC   C3B42837  22.362   4.729   7.034
 3159POPC   C4B42838  22.345   4.484   7.425
 3160POPC   NC342839   9.088  21.430   5.399
 3160POPC   PO442840   8.987  20.785   5.594
 3160POPC   GL142841   9.102  21.101   5.869
 3160POPC   GL242842   8.905  21.399   5.869
 3160POPC   C1A42843   9.048  21.223   6.316
 3160POPC   D2A42844   8.811  21.058   6.648
 3160POPC   C3A42845   8.928  21.319   7.000
 3160POPC   C4A42846   9.267  21.556   7.195
 3160POPC   C1B42847   8.568  21.399   6.188
 3160POPC   C2B42848   8.529  21.486   6.643
 3160POPC   C3B42849   8.507  21.588   7.077
 3160POPC   C4B42850   8.827  21.811   7.259
 3161POPC   NC342851  41.057  22.202   5.489
 3161POPC   PO442852  40.348  21.989   5.517
 3161POPC   GL142853  40.666  22.232   5.804
 3161POPC   GL242854  40.964  22.050   5.952
 3161POPC   C1A42855  40.752  22.406   6.237
 3161POPC   D2A42856  40.896  22.187   6.590
 3161POPC   C3A42857  40.848  22.373   6.946
 3161POPC   C4A42858  40.675  22.217   7.351
 3161POPC   C1B42859  41.093  21.823   6.284
 3161POPC   C2B42860  41.071  21.702   6.679
 3161POPC   C3B42861  40.991  21.896   7.036
 3161POPC   C4B42862  41.010  21.813   7.431
 3162POPC   NC342863  27.445  36.275   5.453
 3162POPC   PO442864  27.302  35.677   5.330
 3162POPC   GL142865  27.406  35.810   5.773
 3162POPC   GL242866  27.737  35.725   5.940
 3162POPC   C1A42867  27.428  36.071   6.177
 3162POPC   D2A42868  27.383  36.464   6.460
 3162POPC   C3A42869  27.603  36.508   6.847
 3162POPC   C4A42870  27.565  36.277   7.226
 3162POPC   C1B42871  27.919  35.889   6.322
 3162POPC   C2B42872  27.833  36.007   6.769
 3162POPC   C3B42873  27.701  35.754   7.125
 3162POPC   C4B42874  27.355  35.462   7.118
 3163POPC   NC342875   2.118  28.150   5.395
 3163POPC   PO442876   1.542  28.104   5.140
 3163POPC   GL142877   1.662  28.250   5.581
 3163POPC   GL242878   1.730  27.959   5.754
 3163POPC   C1A42879   1.873  28.421   6.016
 3163POPC   D2A42880   2.006  28.312   6.494
 3163POPC   C3A42881   1.876  28.498   6.904
 3163POPC   C4A42882   1.859  28.681   7.336
 3163POPC   C1B42883   1.721  27.979   6.205
 3163POPC   C2B42884   1.601  27.910   6.618
 3163POPC   C3B42885   1.841  27.971   6.975
 3163POPC   C4B42886   2.283  28.077   7.043
 3164POPC   NC342887  33.675  36.557   5.440
 3164POPC   PO442888  34.106  37.061   5.480
 3164POPC   GL142889  33.955  36.806   5.813
 3164POPC   GL242890  34.117  37.005   6.058
 3164POPC   C1A42891  33.743  36.666   6.216
 3164POPC   D2A42892  33.649  36.819   6.658
 3164POPC   C3A42893  33.935  36.653   7.017
 3164POPC   C4A42894  33.755  36.539   7.461
 3164POPC   C1B42895  33.678  37.173   6.117
 3164POPC   C2B42896  33.468  37.314   6.502
 3164POPC   C3B42897  33.659  37.306   6.907
 3164POPC   C4B42898  33.661  36.997   7.236
 3165POPC   NC342899  16.559  23.973   5.069
 3165POPC   PO442900  16.545  23.619   5.590
 3165POPC   GL142901  16.708  23.918   5.880
 3165POPC   GL242902  16.405  24.049   6.032
 3165POPC   C1A42903  16.823  23.997   6.306
 3165POPC   D2A42904  16.704  23.863   6.706
 3165POPC   C3A42905  16.790  23.929   7.132
 3165POPC   C4A42906  16.685  23.720   7.527
 3165POPC   C1B42907  16.454  23.635   6.263
 3165POPC   C2B42908  16.511  23.397   6.650
 3165POPC   C3B42909  16.427  23.555   7.078
 3165POPC   C4B42910  16.180  23.631   7.478
 3166POPC   NC342911   3.008  38.067   5.557
 3166POPC   PO442912   2.695  38.587   5.231
 3166POPC   GL142913   2.597  38.618   5.694
 3166POPC   GL242914   2.637  38.266   5.855
 3166POPC   C1A42915   2.707  38.666   6.152
 3166POPC   D2A42916   2.683  38.389   6.518
 3166POPC   C3A42917   2.859  38.517   6.877
 3166POPC   C4A42918   2.840  38.665   7.269
 3166POPC   C1B42919   3.012  38.219   6.183
 3166POPC   C2B42920   3.183  38.180   6.630
 3166POPC   C3B42921   3.085  38.100   7.071
 3166POPC   C4B42922   3.019  38.237   7.494
 3167POPC   NC342923   2.539  35.795   5.658
 3167POPC   PO442924   2.926  36.314   5.431
 3167POPC   GL142925   2.637  36.282   5.815
 3167POPC   GL242926   2.278  36.428   5.901
 3167POPC   C1A42927   2.750  36.264   6.223
 3167POPC   D2A42928   3.021  36.248   6.580
 3167POPC   C3A42929   2.921  35.862   6.778
 3167POPC   C4A42930   2.821  35.900   7.199
 3167POPC   C1B42931   2.214  36.116   6.231
 3167POPC   C2B42932   2.482  36.007   6.559
 3167POPC   C3B42933   2.508  36.204   6.947
 3167POPC   C4B42934   2.489  36.288   7.393
 3168POPC   NC342935  11.184  30.076   5.149
 3168POPC   PO442936  11.702  29.745   5.264
 3168POPC   GL142937  11.533  29.699   5.702
 3168POPC   GL242938  11.351  30.031   5.766
 3168POPC   C1A42939  11.512  29.752   6.167
 3168POPC   D2A42940  11.333  29.693   6.605
 3168POPC   C3A42941  11.591  29.652   6.974
 3168POPC   C4A42942  11.801  29.668   7.341
 3168POPC   C1B42943  11.320  30.225   6.223
 3168POPC   C2B42944  11.320  30.205   6.699
 3168POPC   C3B42945  11.214  30.000   7.095
 3168POPC   C4B42946  10.871  29.941   7.441
 3169POPC   NC342947  35.801  25.800   5.402
 3169POPC   PO442948  36.434  26.030   5.409
 3169POPC   GL142949  36.134  26.013   5.749
 3169POPC   GL242950  36.122  25.649   5.801
 3169POPC   C1A42951  36.157  26.107   6.201
 3169POPC   D2A42952  36.312  26.272   6.597
 3169POPC   C3A42953  36.176  26.003   6.929
 3169POPC   C4A42954  36.248  25.785   7.313
 3169POPC   C1B42955  35.820  25.744   6.141
 3169POPC   C2B42956  35.785  25.894   6.580
 3169POPC   C3B42957  35.810  25.660   6.977
 3169POPC   C4B42958  35.832  25.469   7.381
 3170POPC   NC342959   3.629  14.654   5.479
 3170POPC   PO442960   3.748  14.069   5.467
 3170POPC   GL142961   3.481  14.255   5.798
 3170POPC   GL242962   3.777  14.392   5.902
 3170POPC   C1A42963   3.398  14.478   6.237
 3170POPC   D2A42964   3.567  14.384   6.689
 3170POPC   C3A42965   3.413  14.536   7.128
 3170POPC   C4A42966   3.431  14.446   7.593
 3170POPC   C1B42967   3.911  14.602   6.255
 3170POPC   C2B42968   3.892  14.784   6.638
 3170POPC   C3B42969   3.945  14.596   7.012
 3170POPC   C4B42970   3.822  14.700   7.414
 3171POPC   NC342971   4.403  41.979   5.659
 3171POPC   PO442972   5.049  41.770   5.433
 3171POPC   GL142973   5.094  41.461   5.771
 3171POPC   GL242974   5.430  41.494   5.718
 3171POPC   C1A42975   5.081  41.274   6.225
 3171POPC   D2A42976   4.817  41.431   6.624
 3171POPC   C3A42977   4.881  41.559   7.054
 3171POPC   C4A42978   5.323  41.432   7.195
 3171POPC   C1B42979   5.411  41.658   6.131
 3171POPC   C2B42980   5.349  41.563   6.547
 3171POPC   C3B42981   5.257  41.806   6.845
 3171POPC   C4B42982   5.182  41.926   7.234
 3172POPC   NC342983   3.746  42.571   5.420
 3172POPC   PO442984   4.457  42.412   5.485
 3172POPC   GL142985   4.383  42.483   5.880
 3172POPC   GL242986   4.010  42.475   5.888
 3172POPC   C1A42987   4.545  42.285   6.242
 3172POPC   D2A42988   4.399  42.229   6.655
 3172POPC   C3A42989   4.438  42.483   7.003
 3172POPC   C4A42990   4.351  42.439   7.431
 3172POPC   C1B42991   4.043  42.138   6.219
 3172POPC   C2B42992   3.968  41.951   6.646
 3172POPC   C3B42993   4.101  42.093   7.095
 3172POPC   C4B42994   3.999  42.109   7.558
 3173POPC   NC342995  18.400  25.310   4.863
 3173POPC   PO442996  18.451  25.009   5.478
 3173POPC   GL142997  18.145  25.126   5.787
 3173POPC   GL242998  18.330  25.406   5.901
 3173POPC   C1A42999  18.135  25.113   6.250
 3173POPC   D2A43000  18.364  25.163   6.611
 3173POPC   C3A43001  18.163  25.200   7.002
 3173POPC   C4A43002  18.282  25.031   7.401
 3173POPC   C1B43003  18.492  25.623   6.296
 3173POPC   C2B43004  18.476  25.675   6.749
 3173POPC   C3B43005  18.417  25.684   7.198
 3173POPC   C4B43006  18.215  25.514   7.597
 3174POPC   NC343007  40.864  13.970   5.252
 3174POPC   PO443008  41.049  14.560   5.541
 3174POPC   GL143009  41.162  14.308   5.896
 3174POPC   GL243010  40.958  13.999   5.825
 3174POPC   C1A43011  41.090  14.482   6.314
 3174POPC   D2A43012  40.774  14.449   6.654
 3174POPC   C3A43013  40.930  14.549   7.060
 3174POPC   C4A43014  41.024  14.535   7.516
 3174POPC   C1B43015  41.019  13.989   6.292
 3174POPC   C2B43016  41.205  14.119   6.741
 3174POPC   C3B43017  41.204  14.144   7.241
 3174POPC   C4B43018  40.996  14.061   7.696
 3175POPC   NC343019  24.690  40.041   5.482
 3175POPC   PO443020  24.025  40.229   5.457
 3175POPC   GL143021  24.300  40.048   5.834
 3175POPC   GL243022  24.650  39.803   5.929
 3175POPC   C1A43023  24.467  40.113   6.253
 3175POPC   D2A43024  24.678  39.777   6.467
 3175POPC   C3A43025  24.668  39.891   6.882
 3175POPC   C4A43026  24.423  40.126   7.159
 3175POPC   C1B43027  24.273  39.638   6.185
 3175POPC   C2B43028  24.193  39.738   6.625
 3175POPC   C3B43029  24.237  39.618   7.049
 3175POPC   C4B43030  24.253  39.756   7.482
 3176POPC   NC343031  32.800  42.522   5.543
 3176POPC   PO443032  33.266  42.016   5.468
 3176POPC   GL143033  33.097  42.218   5.820
 3176POPC   GL243034  32.806  42.098   5.887
 3176POPC   C1A43035  33.071  42.548   6.159
 3176POPC   D2A43036  32.788  42.614   6.490
 3176POPC   C3A43037  32.922  42.566   6.916
 3176POPC   C4A43038  33.180  42.617   7.270
 3176POPC   C1B43039  32.902  42.106   6.326
 3176POPC   C2B43040  32.695  42.157   6.709
 3176POPC   C3B43041  32.675  41.934   7.076
 3176POPC   C4B43042  32.748  41.883   7.522
 3177POPC   NC343043  38.357  29.411   5.497
 3177POPC   PO443044  38.079  28.694   5.466
 3177POPC   GL143045  38.167  28.997   5.790
 3177POPC   GL243046  38.527  29.000   5.815
 3177POPC   C1A43047  38.272  29.059   6.238
 3177POPC   D2A43048  38.525  28.987   6.578
 3177POPC   C3A43049  38.514  29.173   6.968
 3177POPC   C4A43050  38.411  28.932   7.311
 3177POPC   C1B43051  38.758  29.211   6.139
 3177POPC   C2B43052  38.894  29.370   6.545
 3177POPC   C3B43053  38.985  29.478   6.980
 3177POPC   C4B43054  38.879  29.230   7.342
 3178POPC   NC343055   2.368  27.297   5.420
 3178POPC   PO443056   2.016  26.741   5.283
 3178POPC   GL143057   1.906  26.640   5.734
 3178POPC   GL243058   1.989  26.995   5.769
 3178POPC   C1A43059   1.739  26.491   6.146
 3178POPC   D2A43060   1.869  26.626   6.559
 3178POPC   C3A43061   1.719  26.549   6.986
 3178POPC   C4A43062   2.094  26.667   7.211
 3178POPC   C1B43063   2.255  27.152   6.096
 3178POPC   C2B43064   2.161  27.118   6.522
 3178POPC   C3B43065   1.943  27.035   6.893
 3178POPC   C4B43066   2.126  27.181   7.255
 3179POPC   NC343067   5.295  30.554   5.430
 3179POPC   PO443068   6.007  30.673   5.375
 3179POPC   GL143069   5.828  30.566   5.726
 3179POPC   GL243070   5.582  30.813   5.809
 3179POPC   C1A43071   5.928  30.607   6.135
 3179POPC   D2A43072   5.832  30.851   6.473
 3179POPC   C3A43073   5.863  30.748   6.884
 3179POPC   C4A43074   5.892  30.689   7.311
 3179POPC   C1B43075   5.388  30.771   6.230
 3179POPC   C2B43076   5.365  30.631   6.690
 3179POPC   C3B43077   5.389  30.778   7.125
 3179POPC   C4B43078   5.380  30.642   7.567
 3180POPC   NC343079  13.742  12.348   5.553
 3180POPC   PO443080  13.321  11.879   5.518
 3180POPC   GL143081  13.500  12.038   5.856
 3180POPC   GL243082  13.348  12.355   5.943
 3180POPC   C1A43083  13.554  11.914   6.241
 3180POPC   D2A43084  13.603  12.189   6.560
 3180POPC   C3A43085  13.777  11.998   6.873
 3180POPC   C4A43086  13.893  11.827   7.268
 3180POPC   C1B43087  13.717  12.527   6.168
 3180POPC   C2B43088  13.803  12.678   6.568
 3180POPC   C3B43089  13.772  12.496   7.001
 3180POPC   C4B43090  13.499  12.193   7.242
 3181POPC   NC343091  23.890  11.995   5.319
 3181POPC   PO443092  23.230  11.921   5.454
 3181POPC   GL143093  23.375  12.122   5.802
 3181POPC   GL243094  23.681  12.175   5.759
 3181POPC   C1A43095  23.360  11.984   6.203
 3181POPC   D2A43096  23.646  11.850   6.523
 3181POPC   C3A43097  23.473  11.941   6.905
 3181POPC   C4A43098  23.517  12.197   7.269
 3181POPC   C1B43099  23.918  12.031   6.110
 3181POPC   C2B43100  24.050  12.191   6.535
 3181POPC   C3B43101  23.939  12.156   6.979
 3181POPC   C4B43102  24.065  11.949   7.384
 3182POPC   NC343103  12.792  23.837   5.142
 3182POPC   PO443104  12.233  23.645   5.151
 3182POPC   GL143105  12.457  23.864   5.579
 3182POPC   GL243106  12.868  23.855   5.673
 3182POPC   C1A43107  12.568  23.960   6.050
 3182POPC   D2A43108  12.739  24.036   6.484
 3182POPC   C3A43109  12.522  23.829   6.851
 3182POPC   C4A43110  12.556  23.731   7.299
 3182POPC   C1B43111  13.040  23.770   6.134
 3182POPC   C2B43112  12.948  23.581   6.581
 3182POPC   C3B43113  12.958  23.528   7.054
 3182POPC   C4B43114  13.062  23.678   7.492
 3183POPC   NC343115  15.534  35.503   5.430
 3183POPC   PO443116  15.945  35.152   5.463
 3183POPC   GL143117  15.999  35.255   5.894
 3183POPC   GL243118  15.716  35.465   5.952
 3183POPC   C1A43119  15.940  35.246   6.372
 3183POPC   D2A43120  15.896  35.125   6.809
 3183POPC   C3A43121  16.119  35.415   7.061
 3183POPC   C4A43122  16.288  35.345   7.476
 3183POPC   C1B43123  15.631  35.660   6.377
 3183POPC   C2B43124  15.652  35.582   6.851
 3183POPC   C3B43125  15.445  35.505   7.274
 3183POPC   C4B43126  15.467  35.290   7.694
 3184POPC   NC343127  28.902  40.124   5.705
 3184POPC   PO443128  28.301  39.864   5.439
 3184POPC   GL143129  28.141  39.725   5.799
 3184POPC   GL243130  28.086  40.026   5.935
 3184POPC   C1A43131  28.431  39.682   6.141
 3184POPC   D2A43132  28.661  39.879   6.455
 3184POPC   C3A43133  28.389  39.841   6.798
 3184POPC   C4A43134  28.440  39.719   7.219
 3184POPC   C1B43135  28.292  40.207   6.254
 3184POPC   C2B43136  28.151  40.526   6.554
 3184POPC   C3B43137  28.127  40.509   7.000
 3184POPC   C4B43138  28.390  40.208   7.176
 3185POPC   NC343139  16.977  33.000   5.150
 3185POPC   PO443140  16.393  32.938   5.472
 3185POPC   GL143141  16.577  33.158   5.834
 3185POPC   GL243142  16.948  33.161   5.853
 3185POPC   C1A43143  16.694  32.957   6.252
 3185POPC   D2A43144  16.777  32.814   6.663
 3185POPC   C3A43145  16.686  33.098   7.013
 3185POPC   C4A43146  16.717  32.999   7.433
 3185POPC   C1B43147  17.202  32.869   6.164
 3185POPC   C2B43148  17.285  32.790   6.626
 3185POPC   C3B43149  17.174  32.909   7.104
 3185POPC   C4B43150  17.164  33.222   7.491
 3186POPC   NC343151  40.651  34.230   5.424
 3186POPC   PO443152  41.155  34.532   5.166
 3186POPC   GL143153  40.852  34.707   5.583
 3186POPC   GL243154  40.494  34.662   5.677
 3186POPC   C1A43155  40.931  34.782   6.062
 3186POPC   D2A43156  40.993  34.482   6.458
 3186POPC   C3A43157  40.839  34.316   6.874
 3186POPC   C4A43158  40.799  34.535   7.279
 3186POPC   C1B43159  40.567  34.392   6.065
 3186POPC   C2B43160  40.487  34.284   6.488
 3186POPC   C3B43161  40.380  34.514   6.858
 3186POPC   C4B43162  40.242  34.676   7.227
 3187POPC   NC343163  18.689  33.308   5.431
 3187POPC   PO443164  18.177  32.830   5.339
 3187POPC   GL143165  18.299  32.990   5.732
 3187POPC   GL243166  18.244  33.342   5.700
 3187POPC   C1A43167  18.376  32.773   6.119
 3187POPC   D2A43168  18.567  32.643   6.499
 3187POPC   C3A43169  18.344  32.742   6.873
 3187POPC   C4A43170  18.505  32.979   7.217
 3187POPC   C1B43171  18.162  33.289   6.148
 3187POPC   C2B43172  18.298  33.164   6.565
 3187POPC   C3B43173  18.095  33.210   6.979
 3187POPC   C4B43174  18.013  33.514   7.297
 3188POPC   NC343175  42.592  26.764   5.429
 3188POPC   PO443176  41.926  26.502   5.404
 3188POPC   GL143177  42.156  26.655   5.794
 3188POPC   GL243178  42.476  26.723   5.926
 3188POPC   C1A43179  42.130  26.945   6.203
 3188POPC   D2A43180  42.340  27.011   6.623
 3188POPC   C3A43181  42.017  26.970   6.935
 3188POPC   C4A43182  41.866  27.086   7.309
 3188POPC   C1B43183  42.456  26.539   6.325
 3188POPC   C2B43184  42.483  26.343   6.741
 3188POPC   C3B43185  42.384  26.628   7.069
 3188POPC   C4B43186  42.552  26.992   7.135
 3189POPC   NC343187  15.432  27.151   5.436
 3189POPC   PO443188  15.046  26.684   5.447
 3189POPC   GL143189  15.226  26.859   5.809
 3189POPC   GL243190  14.984  27.105   5.856
 3189POPC   C1A43191  15.335  26.903   6.244
 3189POPC   D2A43192  15.010  26.798   6.533
 3189POPC   C3A43193  15.157  26.747   6.911
 3189POPC   C4A43194  15.552  26.851   7.050
 3189POPC   C1B43195  15.081  27.327   6.205
 3189POPC   C2B43196  15.237  27.266   6.635
 3189POPC   C3B43197  15.180  27.232   7.092
 3189POPC   C4B43198  15.114  26.919   7.429
 3190POPC   NC343199   5.976  17.562   5.188
 3190POPC   PO443200   5.546  17.214   5.192
 3190POPC   GL143201   5.835  17.366   5.637
 3190POPC   GL243202   5.844  17.729   5.738
 3190POPC   C1A43203   5.762  17.332   6.120
 3190POPC   D2A43204   5.531  17.271   6.516
 3190POPC   C3A43205   5.798  17.311   6.872
 3190POPC   C4A43206   5.678  17.213   7.250
 3190POPC   C1B43207   6.076  17.719   6.156
 3190POPC   C2B43208   5.849  17.709   6.544
 3190POPC   C3B43209   5.681  17.831   6.948
 3190POPC   C4B43210   5.894  17.777   7.315
 3191POPC   NC343211  32.915  35.207   5.255
 3191POPC   PO443212  33.128  35.857   5.485
 3191POPC   GL143213  33.053  35.394   5.710
 3191POPC   GL243214  33.360  35.117   5.649
 3191POPC   C1A43215  32.805  35.297   6.110
 3191POPC   D2A43216  32.643  35.530   6.504
 3191POPC   C3A43217  32.854  35.423   6.886
 3191POPC   C4A43218  32.883  35.090   7.184
 3191POPC   C1B43219  33.303  35.141   6.110
 3191POPC   C2B43220  33.112  35.065   6.522
 3191POPC   C3B43221  33.306  35.155   6.920
 3191POPC   C4B43222  33.312  35.348   7.319
 3192POPC   NC343223  18.018  19.521   5.218
 3192POPC   PO443224  18.338  20.020   5.281
 3192POPC   GL143225  18.436  19.912   5.756
 3192POPC   GL243226  18.634  19.605   5.754
 3192POPC   C1A43227  18.364  20.033   6.232
 3192POPC   D2A43228  18.421  20.175   6.706
 3192POPC   C3A43229  18.261  20.061   7.140
 3192POPC   C4A43230  18.209  20.101   7.607
 3192POPC   C1B43231  18.454  19.513   6.148
 3192POPC   C2B43232  18.386  19.640   6.564
 3192POPC   C3B43233  18.361  19.521   6.980
 3192POPC   C4B43234  18.210  19.613   7.402
 3193POPC   NC343235  29.769   6.522   5.445
 3193POPC   PO443236  30.333   6.987   5.406
 3193POPC   GL143237  30.228   6.798   5.823
 3193POPC   GL243238  29.978   6.501   5.898
 3193POPC   C1A43239  30.080   6.832   6.260
 3193POPC   D2A43240  29.884   6.515   6.514
 3193POPC   C3A43241  29.945   6.655   6.926
 3193POPC   C4A43242  29.979   6.533   7.336
 3193POPC   C1B43243  29.583   6.332   6.128
 3193POPC   C2B43244  29.354   6.404   6.530
 3193POPC   C3B43245  29.420   6.503   6.983
 3193POPC   C4B43246  29.498   6.601   7.452
 3194POPC   NC343247  43.724  43.936   5.476
 3194POPC   PO443248  44.106  43.343   5.360
 3194POPC   GL143249  44.016  43.546   5.738
 3194POPC   GL243250  43.681  43.529   5.756
 3194POPC   C1A43251  44.030  43.750   6.144
 3194POPC   D2A43252  44.137  43.935   6.519
 3194POPC   C3A43253  44.071  43.748   6.900
 3194POPC   C4A43254  43.925  44.050   7.143
 3194POPC   C1B43255  43.541  43.625   6.149
 3194POPC   C2B43256  43.697  43.642   6.561
 3194POPC   C3B43257  43.557  43.713   7.004
 3194POPC   C4B43258  43.661  43.755   7.453
 3195POPC   NC343259  36.820   3.887   5.589
 3195POPC   PO443260  36.985   4.476   5.399
 3195POPC   GL143261  36.848   4.360   5.824
 3195POPC   GL243262  37.045   4.057   6.000
 3195POPC   C1A43263  36.759   4.587   6.219
 3195POPC   D2A43264  36.940   4.398   6.592
 3195POPC   C3A43265  36.790   4.453   7.001
 3195POPC   C4A43266  36.932   4.091   7.214
 3195POPC   C1B43267  36.651   4.094   6.235
 3195POPC   C2B43268  36.443   4.295   6.612
 3195POPC   C3B43269  36.432   4.089   7.022
 3195POPC   C4B43270  36.481   4.202   7.441
 3196POPC   NC343271  44.980  27.602   5.464
 3196POPC   PO443272  44.455  27.233   5.373
 3196POPC   GL143273  44.516  27.569   5.728
 3196POPC   GL243274  44.594  27.949   5.749
 3196POPC   C1A43275  44.598  27.538   6.194
 3196POPC   D2A43276  44.417  27.458   6.635
 3196POPC   C3A43277  44.538  27.393   7.095
 3196POPC   C4A43278  44.950  27.368   7.258
 3196POPC   C1B43279  44.830  28.012   6.130
 3196POPC   C2B43280  44.653  27.915   6.529
 3196POPC   C3B43281  44.576  27.878   6.945
 3196POPC   C4B43282  44.948  27.866   7.175
 3197POPC   NC343283  11.221  10.566   5.436
 3197POPC   PO443284  11.762  10.873   5.642
 3197POPC   GL143285  11.457  10.675   5.925
 3197POPC   GL243286  11.237  10.338   5.888
 3197POPC   C1A43287  11.223  10.704   6.328
 3197POPC   D2A43288  11.001  10.537   6.702
 3197POPC   C3A43289  11.344  10.404   6.928
 3197POPC   C4A43290  11.604  10.679   7.135
 3197POPC   C1B43291  11.665  10.213   6.020
 3197POPC   C2B43292  11.752  10.198   6.462
 3197POPC   C3B43293  11.852  10.264   6.905
 3197POPC   C4B43294  11.682  10.146   7.293
 3198POPC   NC343295  32.584  33.746   5.431
 3198POPC   PO443296  32.648  34.317   5.337
 3198POPC   GL143297  32.402  34.148   5.752
 3198POPC   GL243298  32.238  33.815   5.794
 3198POPC   C1A43299  32.149  34.127   6.183
 3198POPC   D2A43300  32.299  33.881   6.487
 3198POPC   C3A43301  32.195  34.010   6.894
 3198POPC   C4A43302  32.383  34.207   7.261
 3198POPC   C1B43303  32.558  33.664   6.095
 3198POPC   C2B43304  32.602  33.427   6.471
 3198POPC   C3B43305  32.378  33.513   6.817
 3198POPC   C4B43306  32.562  33.752   7.134
 3199POPC   NC343307  26.196  27.033   5.409
 3199POPC   PO443308  25.612  26.628   5.404
 3199POPC   GL143309  25.752  26.809   5.840
 3199POPC   GL243310  26.078  26.941   5.880
 3199POPC   C1A43311  25.838  26.879   6.322
 3199POPC   D2A43312  25.656  26.763   6.730
 3199POPC   C3A43313  25.886  26.821   7.121
 3199POPC   C4A43314  26.070  26.589   7.497
 3199POPC   C1B43315  26.351  26.805   6.204
 3199POPC   C2B43316  26.279  26.863   6.653
 3199POPC   C3B43317  26.403  26.751   7.076
 3199POPC   C4B43318  26.278  27.059   7.366
 3200POPC   NC343319  17.084  27.887   5.458
 3200POPC   PO443320  16.702  27.236   5.311
 3200POPC   GL143321  16.635  27.523   5.669
 3200POPC   GL243322  16.796  27.251   5.824
 3200POPC   C1A43323  16.777  27.712   6.095
 3200POPC   D2A43324  16.929  27.767   6.563
 3200POPC   C3A43325  16.560  27.753   6.810
 3200POPC   C4A43326  16.400  27.609   7.177
 3200POPC   C1B43327  16.993  27.256   6.190
 3200POPC   C2B43328  16.762  27.290   6.517
 3200POPC   C3B43329  16.834  27.317   6.925
 3200POPC   C4B43330  16.987  27.624   7.183
 3201POPC   NC343331  19.579  15.982   5.260
 3201POPC   PO443332  20.047  16.356   5.422
 3201POPC   GL143333  19.948  16.081   5.770
 3201POPC   GL243334  19.776  15.735   5.710
 3201POPC   C1A43335  19.939  16.246   6.210
 3201POPC   D2A43336  19.623  16.218   6.522
 3201POPC   C3A43337  19.673  16.342   6.974
 3201POPC   C4A43338  19.607  16.163   7.405
 3201POPC   C1B43339  19.743  15.764   6.183
 3201POPC   C2B43340  19.566  15.711   6.602
 3201POPC   C3B43341  19.665  15.821   7.015
 3201POPC   C4B43342  19.925  15.527   7.232
 3202POPC   NC343343  27.313  19.112   5.258
 3202POPC   PO443344  27.849  18.732   5.238
 3202POPC   GL143345  27.564  18.970   5.660
 3202POPC   GL243346  27.349  18.787   5.870
 3202POPC   C1A43347  27.532  19.208   6.121
 3202POPC   D2A43348  27.686  19.187   6.574
 3202POPC   C3A43349  27.435  19.014   6.918
 3202POPC   C4A43350  27.267  18.867   7.335
 3202POPC   C1B43351  27.545  18.728   6.282
 3202POPC   C2B43352  27.917  18.731   6.554
 3202POPC   C3B43353  27.967  18.925   6.938
 3202POPC   C4B43354  27.776  18.795   7.328
 3203POPC   NC343355  37.437  14.255   5.359
 3203POPC   PO443356  37.610  14.826   5.420
 3203POPC   GL143357  37.598  14.467   5.788
 3203POPC   GL243358  37.305  14.205   5.841
 3203POPC   C1A43359  37.672  14.244   6.198
 3203POPC   D2A43360  37.421  14.252   6.577
 3203POPC   C3A43361  37.563  14.437   6.960
 3203POPC   C4A43362  37.910  14.404   7.241
 3203POPC   C1B43363  37.242  13.953   6.218
 3203POPC   C2B43364  37.252  13.770   6.651
 3203POPC   C3B43365  37.308  13.991   7.055
 3203POPC   C4B43366  37.433  14.255   7.425
 3204POPC   NC343367  13.679  29.928   4.971
 3204POPC   PO443368  13.623  29.697   5.563
 3204POPC   GL143369  13.664  29.968   5.850
 3204POPC   GL243370  13.418  30.234   5.776
 3204POPC   C1A43371  13.710  29.764   6.246
 3204POPC   D2A43372  13.529  29.632   6.635
 3204POPC   C3A43373  13.601  29.836   7.030
 3204POPC   C4A43374  13.689  29.816   7.457
 3204POPC   C1B43375  13.339  30.112   6.233
 3204POPC   C2B43376  13.330  30.095   6.683
 3204POPC   C3B43377  13.214  30.146   7.104
 3204POPC   C4B43378  13.305  30.169   7.522
 3205POPC   NC343379  42.216  20.989   4.930
 3205POPC   PO443380  42.165  20.358   5.327
 3205POPC   GL143381  42.418  20.578   5.660
 3205POPC   GL243382  42.159  20.540   5.836
 3205POPC   C1A43383  42.572  20.590   6.154
 3205POPC   D2A43384  42.570  20.413   6.598
 3205POPC   C3A43385  42.411  20.693   6.950
 3205POPC   C4A43386  42.457  20.906   7.375
 3205POPC   C1B43387  42.097  20.794   6.185
 3205POPC   C2B43388  42.057  20.617   6.572
 3205POPC   C3B43389  41.909  20.776   6.935
 3205POPC   C4B43390  42.063  20.575   7.326
 3206POPC   NC343391  30.490  42.816   5.500
 3206POPC   PO443392  30.947  42.302   5.432
 3206POPC   GL143393  30.861  42.302   5.875
 3206POPC   GL243394  30.670  42.612   5.947
 3206POPC   C1A43395  30.958  42.223   6.331
 3206POPC   D2A43396  31.100  42.076   6.749
 3206POPC   C3A43397  30.771  42.038   7.089
 3206POPC   C4A43398  30.432  42.281   7.274
 3206POPC   C1B43399  30.963  42.732   6.270
 3206POPC   C2B43400  30.916  42.868   6.716
 3206POPC   C3B43401  30.840  42.575   7.103
 3206POPC   C4B43402  30.858  42.326   7.527
 3207POPC   NC343403  42.177   5.637   5.351
 3207POPC   PO443404  42.667   5.472   5.746
 3207POPC   GL143405  42.250   5.509   5.916
 3207POPC   GL243406  41.968   5.704   5.814
 3207POPC   C1A43407  42.194   5.793   6.270
 3207POPC   D2A43408  42.396   6.041   6.563
 3207POPC   C3A43409  42.243   6.045   6.969
 3207POPC   C4A43410  42.366   5.773   7.254
 3207POPC   C1B43411  41.782   5.525   6.191
 3207POPC   C2B43412  41.876   5.532   6.630
 3207POPC   C3B43413  41.912   5.669   7.059
 3207POPC   C4B43414  41.928   6.024   7.401
 3208POPC   NC343415  27.805  12.937   4.997
 3208POPC   PO443416  28.349  12.880   5.437
 3208POPC   GL143417  28.495  13.011   5.822
 3208POPC   GL243418  28.608  12.712   5.956
 3208POPC   C1A43419  28.203  12.956   6.182
 3208POPC   D2A43420  28.166  12.853   6.600
 3208POPC   C3A43421  28.217  13.129   6.938
 3208POPC   C4A43422  28.106  12.926   7.302
 3208POPC   C1B43423  28.694  12.905   6.365
 3208POPC   C2B43424  28.661  12.934   6.817
 3208POPC   C3B43425  28.654  12.848   7.283
 3208POPC   C4B43426  28.811  12.518   7.593
 3209POPC   NC343427  19.337   8.579   5.590
 3209POPC   PO443428  18.787   8.878   5.385
 3209POPC   GL143429  19.042   9.102   5.708
 3209POPC   GL243430  19.021   8.830   5.885
 3209POPC   C1A43431  19.099   9.257   6.180
 3209POPC   D2A43432  19.294   9.164   6.632
 3209POPC   C3A43433  19.093   9.205   7.042
 3209POPC   C4A43434  19.051   9.151   7.499
 3209POPC   C1B43435  19.042   8.745   6.265
 3209POPC   C2B43436  19.218   8.641   6.618
 3209POPC   C3B43437  19.272   8.711   7.000
 3209POPC   C4B43438  18.988   8.695   7.300
 3210POPC   NC343439  40.340  42.321   5.313
 3210POPC   PO443440  39.714  42.481   5.547
 3210POPC   GL143441  40.073  42.313   5.760
 3210POPC   GL243442  40.251  42.649   5.734
 3210POPC   C1A43443  40.203  42.156   6.197
 3210POPC   D2A43444  40.404  42.243   6.621
 3210POPC   C3A43445  40.157  42.050   6.950
 3210POPC   C4A43446  39.914  42.135   7.307
 3210POPC   C1B43447  40.023  42.630   6.149
 3210POPC   C2B43448  39.942  42.471   6.561
 3210POPC   C3B43449  40.085  42.557   6.961
 3210POPC   C4B43450  40.149  42.685   7.371
 3211POPC   NC343451  42.993  43.262   5.362
 3211POPC   PO443452  42.335  43.139   5.386
 3211POPC   GL143453  42.349  43.221   5.804
 3211POPC   GL243454  41.979  43.193   5.822
 3211POPC   C1A43455  42.301  43.185   6.230
 3211POPC   D2A43456  42.127  43.343   6.562
 3211POPC   C3A43457  42.410  43.162   6.823
 3211POPC   C4A43458  42.367  43.075   7.243
 3211POPC   C1B43459  41.909  42.872   6.144
 3211POPC   C2B43460  42.065  42.824   6.550
 3211POPC   C3B43461  41.959  42.954   6.940
 3211POPC   C4B43462  42.026  42.714   7.306
 3212POPC   NC343463  40.316  27.637   5.541
 3212POPC   PO443464  41.002  27.472   5.371
 3212POPC   GL143465  40.769  27.378   5.732
 3212POPC   GL243466  40.669  27.678   5.899
 3212POPC   C1A43467  40.689  27.216   6.138
 3212POPC   D2A43468  40.428  27.256   6.488
 3212POPC   C3A43469  40.699  27.278   6.858
 3212POPC   C4A43470  40.623  27.156   7.267
 3212POPC   C1B43471  40.485  27.737   6.295
 3212POPC   C2B43472  40.452  27.724   6.734
 3212POPC   C3B43473  40.598  27.726   7.131
 3212POPC   C4B43474  41.012  27.835   7.276
 3213POPC   NC343475   5.306   8.306   5.502
 3213POPC   PO443476   4.617   8.019   5.419
 3213POPC   GL143477   4.858   8.060   5.820
 3213POPC   GL243478   4.985   8.409   5.889
 3213POPC   C1A43479   4.918   8.085   6.301
 3213POPC   D2A43480   4.731   8.103   6.745
 3213POPC   C3A43481   5.078   8.015   7.063
 3213POPC   C4A43482   5.416   8.327   7.214
 3213POPC   C1B43483   4.798   8.603   6.254
 3213POPC   C2B43484   5.009   8.518   6.632
 3213POPC   C3B43485   4.958   8.516   7.060
 3213POPC   C4B43486   4.773   8.524   7.424
 3214POPC   NC343487  13.793  41.074   5.401
 3214POPC   PO443488  13.592  41.730   5.322
 3214POPC   GL143489  13.521  41.787   5.772
 3214POPC   GL243490  13.600  41.427   5.827
 3214POPC   C1A43491  13.668  41.890   6.214
 3214POPC   D2A43492  13.774  41.652   6.608
 3214POPC   C3A43493  13.546  41.643   7.016
 3214POPC   C4A43494  13.609  41.818   7.433
 3214POPC   C1B43495  13.404  41.458   6.243
 3214POPC   C2B43496  13.400  41.280   6.665
 3214POPC   C3B43497  13.351  41.166   7.094
 3214POPC   C4B43498  13.374  41.389   7.448
 3215POPC   NC343499  42.036  29.305   5.424
 3215POPC   PO443500  42.407  28.780   5.291
 3215POPC   GL143501  42.196  28.849   5.710
 3215POPC   GL243502  42.221  29.187   5.861
 3215POPC   C1A43503  42.303  28.792   6.168
 3215POPC   D2A43504  42.089  28.687   6.554
 3215POPC   C3A43505  42.327  28.695   6.906
 3215POPC   C4A43506  42.377  28.765   7.321
 3215POPC   C1B43507  42.125  29.378   6.212
 3215POPC   C2B43508  42.284  29.176   6.571
 3215POPC   C3B43509  42.140  29.158   6.993
 3215POPC   C4B43510  42.289  29.277   7.404
 3216POPC   NC343511  23.989  36.647   5.553
 3216POPC   PO443512  24.215  36.092   5.187
 3216POPC   GL143513  23.985  36.133   5.624
 3216POPC   GL243514  23.755  36.327   5.870
 3216POPC   C1A43515  23.956  35.906   6.031
 3216POPC   D2A43516  23.969  36.076   6.440
 3216POPC   C3A43517  23.812  35.901   6.833
 3216POPC   C4A43518  23.866  35.992   7.268
 3216POPC   C1B43519  23.442  36.375   6.201
 3216POPC   C2B43520  23.391  36.111   6.574
 3216POPC   C3B43521  23.415  36.190   7.007
 3216POPC   C4B43522  23.140  36.463   7.246
 3217POPC   NC343523  30.758  28.779   5.466
 3217POPC   PO443524  30.568  29.434   5.361
 3217POPC   GL143525  30.484  29.177   5.726
 3217POPC   GL243526  30.842  29.191   5.784
 3217POPC   C1A43527  30.513  29.251   6.191
 3217POPC   D2A43528  30.535  29.563   6.538
 3217POPC   C3A43529  30.366  29.395   6.910
 3217POPC   C4A43530  30.272  29.076   7.184
 3217POPC   C1B43531  31.007  28.996   6.141
 3217POPC   C2B43532  30.871  29.060   6.555
 3217POPC   C3B43533  31.038  29.018   6.953
 3217POPC   C4B43534  30.989  29.216   7.340
 3218POPC   NC343535  13.474   4.298   5.385
 3218POPC   PO443536  13.949   4.796   5.449
 3218POPC   GL143537  13.768   4.562   5.785
 3218POPC   GL243538  13.431   4.434   5.876
 3218POPC   C1A43539  13.867   4.363   6.176
 3218POPC   D2A43540  13.741   4.232   6.612
 3218POPC   C3A43541  13.631   4.564   6.900
 3218POPC   C4A43542  13.881   4.483   7.246
 3218POPC   C1B43543  13.358   4.221   6.281
 3218POPC   C2B43544  13.235   4.277   6.738
 3218POPC   C3B43545  13.071   4.143   7.149
 3218POPC   C4B43546  13.252   3.961   7.526
 3219POPC   NC343547  39.618  30.662   5.352
 3219POPC   PO443548  40.194  30.342   5.372
 3219POPC   GL143549  40.040  30.625   5.685
 3219POPC   GL243550  40.333  30.515   5.864
 3219POPC   C1A43551  39.992  30.852   6.086
 3219POPC   D2A43552  39.736  30.766   6.431
 3219POPC   C3A43553  39.866  30.889   6.841
 3219POPC   C4A43554  39.756  30.873   7.248
 3219POPC   C1B43555  40.090  30.387   6.253
 3219POPC   C2B43556  40.009  30.403   6.692
 3219POPC   C3B43557  40.037  30.469   7.129
 3219POPC   C4B43558  40.050  30.258   7.536
 3220POPC   NC343559   0.735  36.833   5.395
 3220POPC   PO443560   0.135  36.859   5.641
 3220POPC   GL143561   0.497  36.720   5.839
 3220POPC   GL243562   0.636  37.051   5.843
 3220POPC   C1A43563   0.508  36.776   6.275
 3220POPC   D2A43564   0.211  36.710   6.578
 3220POPC   C3A43565   0.470  36.770   6.920
 3220POPC   C4A43566   0.323  36.753   7.322
 3220POPC   C1B43567   0.646  37.275   6.211
 3220POPC   C2B43568   0.758  37.103   6.624
 3220POPC   C3B43569   0.834  37.282   7.020
 3220POPC   C4B43570   0.456  37.233   7.216
 3221POPC   NC343571  41.288  39.988   5.449
 3221POPC   PO443572  41.876  40.326   5.379
 3221POPC   GL143573  41.733  40.263   5.786
 3221POPC   GL243574  41.360  40.317   5.843
 3221POPC   C1A43575  41.857  40.335   6.217
 3221POPC   D2A43576  41.603  40.316   6.603
 3221POPC   C3A43577  41.815  40.108   6.937
 3221POPC   C4A43578  42.069  40.295   7.274
 3221POPC   C1B43579  41.471  40.013   6.185
 3221POPC   C2B43580  41.317  39.866   6.605
 3221POPC   C3B43581  41.289  40.087   7.007
 3221POPC   C4B43582  41.554  39.907   7.301
 3222POPC   NC343583  28.526  14.696   5.357
 3222POPC   PO443584  27.999  14.378   5.345
 3222POPC   GL143585  28.155  14.445   5.793
 3222POPC   GL243586  28.465  14.629   5.880
 3222POPC   C1A43587  28.066  14.342   6.258
 3222POPC   D2A43588  27.878  14.183   6.677
 3222POPC   C3A43589  28.113  14.241   7.055
 3222POPC   C4A43590  28.254  14.501   7.391
 3222POPC   C1B43591  28.603  14.314   6.210
 3222POPC   C2B43592  28.481  14.242   6.653
 3222POPC   C3B43593  28.539  14.581   6.953
 3222POPC   C4B43594  28.782  14.618   7.323
 3223POPC   NC343595   3.473  43.280   5.403
 3223POPC   PO443596   3.272  42.608   5.441
 3223POPC   GL143597   3.333  42.908   5.701
 3223POPC   GL243598   3.628  42.848   5.856
 3223POPC   C1A43599   3.199  43.178   6.031
 3223POPC   D2A43600   3.212  43.111   6.480
 3223POPC   C3A43601   3.221  43.469   6.762
 3223POPC   C4A43602   3.112  43.357   7.181
 3223POPC   C1B43603   3.693  43.116   6.204
 3223POPC   C2B43604   3.690  43.243   6.643
 3223POPC   C3B43605   3.781  43.093   7.082
 3223POPC   C4B43606   4.158  42.920   7.299
 3224POPC   NC343607  25.424  14.782   5.364
 3224POPC   PO443608  25.069  14.289   5.389
 3224POPC   GL143609  25.253  14.464   5.743
 3224POPC   GL243610  25.537  14.256   5.770
 3224POPC   C1A43611  25.165  14.329   6.167
 3224POPC   D2A43612  25.365  14.326   6.542
 3224POPC   C3A43613  25.195  14.441   6.969
 3224POPC   C4A43614  24.920  14.353   7.352
 3224POPC   C1B43615  25.622  14.561   6.093
 3224POPC   C2B43616  25.629  14.764   6.489
 3224POPC   C3B43617  25.669  14.582   6.874
 3224POPC   C4B43618  25.713  14.722   7.296
 3225POPC   NC343619  41.800  12.418   5.496
 3225POPC   PO443620  41.211  12.682   5.431
 3225POPC   GL143621  41.558  12.796   5.740
 3225POPC   GL243622  41.795  13.060   5.699
 3225POPC   C1A43623  41.570  12.696   6.188
 3225POPC   D2A43624  41.328  12.522   6.520
 3225POPC   C3A43625  41.341  12.817   6.854
 3225POPC   C4A43626  41.474  12.830   7.282
 3225POPC   C1B43627  41.972  12.980   6.124
 3225POPC   C2B43628  41.801  12.953   6.570
 3225POPC   C3B43629  41.909  12.844   6.995
 3225POPC   C4B43630  41.938  13.027   7.411
 3226POPC   NC343631   9.596  14.166   5.382
 3226POPC   PO443632   9.741  14.828   5.327
 3226POPC   GL143633   9.876  14.507   5.661
 3226POPC   GL243634   9.688  14.204   5.863
 3226POPC   C1A43635  10.006  14.499   6.100
 3226POPC   D2A43636   9.817  14.295   6.449
 3226POPC   C3A43637  10.011  14.419   6.821
 3226POPC   C4A43638  10.139  14.384   7.230
 3226POPC   C1B43639   9.355  14.270   6.167
 3226POPC   C2B43640   9.307  14.203   6.606
 3226POPC   C3B43641   9.628  14.076   6.910
 3226POPC   C4B43642   9.589  14.432   7.174
 3227POPC   NC343643  29.218  14.603   5.482
 3227POPC   PO443644  29.461  15.267   5.487
 3227POPC   GL143645  29.111  15.197   5.775
 3227POPC   GL243646  28.936  14.870   5.789
 3227POPC   C1A43647  29.236  15.091   6.197
 3227POPC   D2A43648  29.352  14.871   6.580
 3227POPC   C3A43649  29.406  15.212   6.871
 3227POPC   C4A43650  29.370  15.319   7.259
 3227POPC   C1B43651  28.851  14.763   6.204
 3227POPC   C2B43652  28.856  14.989   6.604
 3227POPC   C3B43653  29.000  14.979   7.053
 3227POPC   C4B43654  28.901  15.113   7.496
 3228POPC   NC343655  39.886  42.922   5.404
 3228POPC   PO443656  40.046  43.645   5.395
 3228POPC   GL143657  40.207  43.321   5.652
 3228POPC   GL243658  39.884  43.308   5.763
 3228POPC   C1A43659  40.231  43.089   6.063
 3228POPC   D2A43660  40.307  43.131   6.530
 3228POPC   C3A43661  40.124  43.103   6.987
 3228POPC   C4A43662  40.102  43.293   7.423
 3228POPC   C1B43663  39.710  43.017   6.039
 3228POPC   C2B43664  39.728  42.921   6.465
 3228POPC   C3B43665  39.606  42.966   6.879
 3228POPC   C4B43666  39.587  43.244   7.227
 3229POPC   NC343667  34.117  24.180   5.434
 3229POPC   PO443668  33.645  24.636   5.665
 3229POPC   GL143669  33.958  24.458   5.872
 3229POPC   GL243670  33.879  24.111   5.900
 3229POPC   C1A43671  34.100  24.462   6.302
 3229POPC   D2A43672  33.833  24.657   6.600
 3229POPC   C3A43673  33.868  24.496   6.960
 3229POPC   C4A43674  34.102  24.324   7.229
 3229POPC   C1B43675  33.605  24.273   6.251
 3229POPC   C2B43676  33.441  24.357   6.700
 3229POPC   C3B43677  33.436  24.312   7.158
 3229POPC   C4B43678  33.677  24.193   7.538
 3230POPC   NC343679  30.103  17.011   5.355
 3230POPC   PO443680  29.707  16.451   5.334
 3230POPC   GL143681  29.983  16.626   5.692
 3230POPC   GL243682  30.276  16.393   5.691
 3230POPC   C1A43683  29.867  16.881   6.105
 3230POPC   D2A43684  29.619  16.830   6.519
 3230POPC   C3A43685  29.785  16.858   6.975
 3230POPC   C4A43686  29.715  16.545   7.333
 3230POPC   C1B43687  30.273  16.553   6.144
 3230POPC   C2B43688  30.301  16.449   6.608
 3230POPC   C3B43689  30.169  16.476   7.051
 3230POPC   C4B43690  30.167  16.747   7.418
 3231POPC   NC343691  10.670  14.168   5.286
 3231POPC   PO443692  10.065  14.067   5.497
 3231POPC   GL143693  10.386  14.355   5.686
 3231POPC   GL243694  10.566  14.694   5.673
 3231POPC   C1A43695  10.503  14.399   6.116
 3231POPC   D2A43696  10.374  14.201   6.518
 3231POPC   C3A43697  10.542  14.345   6.915
 3231POPC   C4A43698  10.586  14.140   7.331
 3231POPC   C1B43699  10.866  14.769   6.066
 3231POPC   C2B43700  10.959  14.733   6.559
 3231POPC   C3B43701  10.841  14.861   7.012
 3231POPC   C4B43702  10.597  14.651   7.353
 3232POPC   NC343703  32.794  24.183   5.368
 3232POPC   PO443704  33.119  23.513   5.509
 3232POPC   GL143705  32.971  23.712   5.877
 3232POPC   GL243706  32.673  23.863   5.752
 3232POPC   C1A43707  33.025  23.659   6.336
 3232POPC   D2A43708  33.341  23.869   6.596
 3232POPC   C3A43709  33.229  23.849   7.022
 3232POPC   C4A43710  33.214  23.463   7.243
 3232POPC   C1B43711  32.649  23.980   6.182
 3232POPC   C2B43712  32.561  23.819   6.576
 3232POPC   C3B43713  32.668  23.891   6.973
 3232POPC   C4B43714  32.782  23.726   7.322
 3233POPC   NC343715  42.042   4.249   5.519
 3233POPC   PO443716  42.691   4.018   5.631
 3233POPC   GL143717  42.436   4.322   5.841
 3233POPC   GL243718  42.090   4.255   6.021
 3233POPC   C1A43719  42.568   4.432   6.224
 3233POPC   D2A43720  42.384   4.298   6.580
 3233POPC   C3A43721  42.546   4.425   6.955
 3233POPC   C4A43722  42.296   4.338   7.280
 3233POPC   C1B43723  42.127   4.640   6.270
 3233POPC   C2B43724  42.309   4.813   6.653
 3233POPC   C3B43725  42.251   4.816   7.086
 3233POPC   C4B43726  42.240   4.788   7.530
 3234POPC   NC343727  19.870   8.040   5.360
 3234POPC   PO443728  19.463   8.432   5.167
 3234POPC   GL143729  19.834   8.474   5.613
 3234POPC   GL243730  19.946   8.149   5.838
 3234POPC   C1A43731  19.831   8.537   6.118
 3234POPC   D2A43732  19.623   8.289   6.496
 3234POPC   C3A43733  19.767   8.149   6.917
 3234POPC   C4A43734  19.720   8.477   7.228
 3234POPC   C1B43735  19.964   7.842   6.203
 3234POPC   C2B43736  20.247   7.770   6.572
 3234POPC   C3B43737  20.348   7.767   7.024
 3234POPC   C4B43738  20.154   8.065   7.303
 3235POPC   NC343739  18.035   0.688   5.545
 3235POPC   PO443740  18.621   0.591   5.237
 3235POPC   GL143741  18.445   0.461   5.745
 3235POPC   GL243742  18.129   0.265   5.845
 3235POPC   C1A43743  18.226   0.639   6.186
 3235POPC   D2A43744  17.955   0.631   6.589
 3235POPC   C3A43745  18.192   0.797   6.883
 3235POPC   C4A43746  18.349   0.896   7.271
 3235POPC   C1B43747  18.348   0.153   6.241
 3235POPC   C2B43748  18.376   0.350   6.649
 3235POPC   C3B43749  18.214   0.246   7.053
 3235POPC   C4B43750  17.969   0.555   7.258
 3236POPC   NC343751  30.736   7.231   5.415
 3236POPC   PO443752  30.959   7.784   5.602
 3236POPC   GL143753  30.739   7.479   5.878
 3236POPC   GL243754  30.831   7.123   5.920
 3236POPC   C1A43755  30.683   7.431   6.325
 3236POPC   D2A43756  30.939   7.312   6.662
 3236POPC   C3A43757  30.770   7.320   7.087
 3236POPC   C4A43758  30.837   7.302   7.522
 3236POPC   C1B43759  30.599   6.932   6.269
 3236POPC   C2B43760  30.427   7.108   6.646
 3236POPC   C3B43761  30.344   7.025   7.064
 3236POPC   C4B43762  30.325   7.319   7.427
 3237POPC   NC343763   2.165  29.926   5.497
 3237POPC   PO443764   1.598  30.285   5.628
 3237POPC   GL143765   1.717  29.899   5.858
 3237POPC   GL243766   1.675  29.569   5.683
 3237POPC   C1A43767   2.056  29.834   6.173
 3237POPC   D2A43768   2.183  30.034   6.570
 3237POPC   C3A43769   2.009  29.932   6.966
 3237POPC   C4A43770   2.301  29.957   7.282
 3237POPC   C1B43771   1.713  29.447   6.137
 3237POPC   C2B43772   1.824  29.603   6.567
 3237POPC   C3B43773   1.959  29.434   6.963
 3237POPC   C4B43774   2.109  29.498   7.400
 3238POPC   NC343775  16.717  41.957   5.370
 3238POPC   PO443776  16.449  41.283   5.395
 3238POPC   GL143777  16.560  41.640   5.748
 3238POPC   GL243778  16.924  41.709   5.805
 3238POPC   C1A43779  16.629  41.659   6.227
 3238POPC   D2A43780  16.759  41.741   6.681
 3238POPC   C3A43781  16.634  41.453   7.027
 3238POPC   C4A43782  16.314  41.221   7.277
 3238POPC   C1B43783  17.007  41.990   6.154
 3238POPC   C2B43784  17.182  42.021   6.551
 3238POPC   C3B43785  17.022  42.107   6.960
 3238POPC   C4B43786  16.791  41.873   7.248
 3239POPC   NC343787  29.274  13.956   5.350
 3239POPC   PO443788  28.807  14.406   5.557
 3239POPC   GL143789  29.078  14.344   5.891
 3239POPC   GL243790  29.363  14.165   5.799
 3239POPC   C1A43791  29.279  14.455   6.267
 3239POPC   D2A43792  28.963  14.454   6.598
 3239POPC   C3A43793  29.047  14.309   6.980
 3239POPC   C4A43794  29.303  14.529   7.258
 3239POPC   C1B43795  29.637  14.086   6.135
 3239POPC   C2B43796  29.808  14.271   6.493
 3239POPC   C3B43797  29.584  14.428   6.824
 3239POPC   C4B43798  29.498  14.076   7.098
 3240POPC   NC343799  25.428  15.165   4.866
 3240POPC   PO443800  25.325  15.201   5.528
 3240POPC   GL143801  25.461  14.991   5.843
 3240POPC   GL243802  25.452  15.302   6.005
 3240POPC   C1A43803  25.221  14.839   6.173
 3240POPC   D2A43804  25.105  14.856   6.599
 3240POPC   C3A43805  25.342  14.979   6.963
 3240POPC   C4A43806  25.050  14.851   7.282
 3240POPC   C1B43807  25.454  15.238   6.427
 3240POPC   C2B43808  25.582  15.430   6.783
 3240POPC   C3B43809  25.487  15.486   7.195
 3240POPC   C4B43810  25.681  15.554   7.601
 3241POPC   NC343811  43.205  34.034   5.453
 3241POPC   PO443812  42.612  33.827   5.159
 3241POPC   GL143813  42.934  33.673   5.661
 3241POPC   GL243814  43.277  33.598   5.775
 3241POPC   C1A43815  42.991  33.880   6.123
 3241POPC   D2A43816  42.926  33.761   6.569
 3241POPC   C3A43817  43.070  33.841   6.974
 3241POPC   C4A43818  43.365  33.629   7.240
 3241POPC   C1B43819  43.121  33.405   6.204
 3241POPC   C2B43820  43.062  33.240   6.648
 3241POPC   C3B43821  42.934  33.339   7.092
 3241POPC   C4B43822  42.891  33.685   7.434
 3242POPC   NC343823   3.823  12.991   5.412
 3242POPC   PO443824   3.251  12.709   5.429
 3242POPC   GL143825   3.382  12.802   5.839
 3242POPC   GL243826   3.593  13.119   5.863
 3242POPC   C1A43827   3.462  12.659   6.260
 3242POPC   D2A43828   3.293  12.962   6.513
 3242POPC   C3A43829   3.447  13.020   6.908
 3242POPC   C4A43830   3.515  12.747   7.227
 3242POPC   C1B43831   3.860  13.007   6.217
 3242POPC   C2B43832   3.839  12.840   6.635
 3242POPC   C3B43833   3.953  12.999   7.056
 3242POPC   C4B43834   3.732  13.161   7.427
 3243POPC   NC343835  39.123  37.963   5.404
 3243POPC   PO443836  39.273  37.252   5.357
 3243POPC   GL143837  39.398  37.497   5.781
 3243POPC   GL243838  39.511  37.884   5.812
 3243POPC   C1A43839  39.238  37.674   6.211
 3243POPC   D2A43840  39.027  37.816   6.647
 3243POPC   C3A43841  39.001  37.500   7.015
 3243POPC   C4A43842  39.272  37.317   7.335
 3243POPC   C1B43843  39.655  38.012   6.230
 3243POPC   C2B43844  39.544  37.733   6.613
 3243POPC   C3B43845  39.411  37.806   7.029
 3243POPC   C4B43846  39.468  37.753   7.482
 3244POPC   NC343847  42.094  25.977   5.371
 3244POPC   PO443848  42.557  26.339   5.612
 3244POPC   GL143849  42.392  26.148   5.950
 3244POPC   GL243850  42.311  25.805   5.807
 3244POPC   C1A43851  42.651  26.072   6.318
 3244POPC   D2A43852  42.887  25.820   6.609
 3244POPC   C3A43853  42.641  25.877   6.958
 3244POPC   C4A43854  42.401  26.150   7.228
 3244POPC   C1B43855  42.560  25.622   6.103
 3244POPC   C2B43856  42.386  25.670   6.525
 3244POPC   C3B43857  42.157  25.688   6.914
 3244POPC   C4B43858  42.281  25.659   7.268
 3245POPC   NC343859  33.462  21.444   5.487
 3245POPC   PO443860  34.069  21.359   5.182
 3245POPC   GL143861  33.989  21.407   5.642
 3245POPC   GL243862  33.825  21.120   5.792
 3245POPC   C1A43863  33.776  21.570   6.063
 3245POPC   D2A43864  33.792  21.696   6.506
 3245POPC   C3A43865  33.931  21.459   6.850
 3245POPC   C4A43866  33.631  21.371   7.152
 3245POPC   C1B43867  33.474  21.143   6.118
 3245POPC   C2B43868  33.484  21.219   6.564
 3245POPC   C3B43869  33.346  20.980   6.915
 3245POPC   C4B43870  33.554  20.917   7.295
 3246POPC   NC343871  35.315  21.552   5.448
 3246POPC   PO443872  35.311  20.906   5.428
 3246POPC   GL143873  35.482  21.160   5.797
 3246POPC   GL243874  35.419  21.505   5.927
 3246POPC   C1A43875  35.562  21.165   6.272
 3246POPC   D2A43876  35.601  21.191   6.734
 3246POPC   C3A43877  35.271  21.269   7.093
 3246POPC   C4A43878  35.336  21.248   7.578
 3246POPC   C1B43879  35.241  21.762   6.236
 3246POPC   C2B43880  35.335  21.653   6.655
 3246POPC   C3B43881  35.589  21.667   6.998
 3246POPC   C4B43882  35.334  21.719   7.354
 3247POPC   NC343883  31.794  18.182   5.334
 3247POPC   PO443884  31.136  18.348   5.515
 3247POPC   GL143885  31.304  18.179   5.880
 3247POPC   GL243886  31.631  18.198   5.823
 3247POPC   C1A43887  31.432  18.138   6.320
 3247POPC   D2A43888  31.754  18.037   6.628
 3247POPC   C3A43889  31.477  17.976   6.967
 3247POPC   C4A43890  31.262  18.186   7.244
 3247POPC   C1B43891  31.777  18.489   6.184
 3247POPC   C2B43892  31.684  18.583   6.623
 3247POPC   C3B43893  31.791  18.398   7.029
 3247POPC   C4B43894  31.989  18.002   7.185
 3248POPC   NC343895  29.699  16.006   5.243
 3248POPC   PO443896  30.217  15.595   5.250
 3248POPC   GL143897  30.064  15.854   5.599
 3248POPC   GL243898  29.767  15.654   5.665
 3248POPC   C1A43899  30.019  15.869   6.072
 3248POPC   D2A43900  30.170  15.729   6.504
 3248POPC   C3A43901  30.117  15.985   6.879
 3248POPC   C4A43902  29.920  16.069   7.285
 3248POPC   C1B43903  29.573  15.610   6.100
 3248POPC   C2B43904  29.659  15.757   6.544
 3248POPC   C3B43905  29.665  15.667   6.993
 3248POPC   C4B43906  29.504  15.778   7.425
 3249POPC   NC343907  42.815  28.598   5.407
 3249POPC   PO443908  43.197  28.078   5.546
 3249POPC   GL143909  43.255  28.302   5.897
 3249POPC   GL243910  43.191  28.647   5.799
 3249POPC   C1A43911  43.289  28.490   6.294
 3249POPC   D2A43912  43.083  28.397   6.682
 3249POPC   C3A43913  43.306  28.276   7.086
 3249POPC   C4A43914  43.671  28.285   7.429
 3249POPC   C1B43915  42.827  28.719   6.086
 3249POPC   C2B43916  42.673  28.827   6.516
 3249POPC   C3B43917  42.830  28.785   6.924
 3249POPC   C4B43918  42.869  28.563   7.295
 3250POPC   NC343919  22.735   7.853   5.438
 3250POPC   PO443920  22.784   8.545   5.370
 3250POPC   GL143921  22.633   8.276   5.730
 3250POPC   GL243922  22.965   8.126   5.809
 3250POPC   C1A43923  22.610   8.063   6.158
 3250POPC   D2A43924  22.775   7.985   6.600
 3250POPC   C3A43925  22.657   8.204   6.979
 3250POPC   C4A43926  22.898   8.187   7.410
 3250POPC   C1B43927  23.129   8.099   6.239
 3250POPC   C2B43928  23.234   8.212   6.677
 3250POPC   C3B43929  23.292   8.098   7.107
 3250POPC   C4B43930  23.362   8.365   7.485
 3251POPC   NC343931   9.865  26.049   5.347
 3251POPC   PO443932   9.458  25.658   5.488
 3251POPC   GL143933   9.644  26.033   5.812
 3251POPC   GL243934  10.007  26.120   5.842
 3251POPC   C1A43935   9.744  26.329   6.204
 3251POPC   D2A43936   9.913  26.209   6.606
 3251POPC   C3A43937   9.699  26.061   6.972
 3251POPC   C4A43938   9.856  26.087   7.373
 3251POPC   C1B43939   9.940  25.849   6.248
 3251POPC   C2B43940  10.049  25.705   6.713
 3251POPC   C3B43941  10.173  25.629   7.186
 3251POPC   C4B43942  10.059  25.709   7.633
 3252POPC   NC343943  12.745   9.827   5.534
 3252POPC   PO443944  13.271   9.441   5.411
 3252POPC   GL143945  13.013   9.474   5.816
 3252POPC   GL243946  12.639   9.378   5.770
 3252POPC   C1A43947  12.941   9.744   6.203
 3252POPC   D2A43948  12.870   9.572   6.619
 3252POPC   C3A43949  13.074   9.652   7.012
 3252POPC   C4A43950  13.298   9.996   7.233
 3252POPC   C1B43951  12.545   9.384   6.199
 3252POPC   C2B43952  12.375   9.386   6.628
 3252POPC   C3B43953  12.566   9.383   7.024
 3252POPC   C4B43954  12.838   9.398   7.398
 3253POPC   NC343955  13.223  13.775   5.407
 3253POPC   PO443956  12.687  13.361   5.320
 3253POPC   GL143957  12.896  13.490   5.740
 3253POPC   GL243958  12.798  13.856   5.764
 3253POPC   C1A43959  13.047  13.651   6.197
 3253POPC   D2A43960  13.049  13.736   6.695
 3253POPC   C3A43961  13.129  13.353   6.942
 3253POPC   C4A43962  12.685  13.218   6.994
 3253POPC   C1B43963  12.541  13.736   6.123
 3253POPC   C2B43964  12.457  13.578   6.534
 3253POPC   C3B43965  12.562  13.708   6.945
 3253POPC   C4B43966  12.868  13.626   7.253
 3254POPC   NC343967  11.664  24.986   5.491
 3254POPC   PO443968  12.311  25.150   5.383
 3254POPC   GL143969  12.063  25.273   5.727
 3254POPC   GL243970  12.271  25.580   5.758
 3254POPC   C1A43971  11.987  25.163   6.139
 3254POPC   D2A43972  12.226  25.184   6.539
 3254POPC   C3A43973  12.064  25.280   6.945
 3254POPC   C4A43974  12.049  24.991   7.272
 3254POPC   C1B43975  12.386  25.521   6.193
 3254POPC   C2B43976  12.274  25.682   6.626
 3254POPC   C3B43977  12.381  25.689   7.092
 3254POPC   C4B43978  12.347  25.839   7.580
 3255POPC   NC343979  31.693  21.106   5.127
 3255POPC   PO443980  31.154  21.508   5.120
 3255POPC   GL143981  31.371  21.471   5.567
 3255POPC   GL243982  31.294  21.702   5.825
 3255POPC   C1A43983  31.438  21.298   6.061
 3255POPC   D2A43984  31.394  21.502   6.496
 3255POPC   C3A43985  31.461  21.302   6.897
 3255POPC   C4A43986  31.851  21.308   7.152
 3255POPC   C1B43987  31.010  21.599   6.183
 3255POPC   C2B43988  30.924  21.717   6.634
 3255POPC   C3B43989  31.001  21.632   7.089
 3255POPC   C4B43990  31.307  21.443   7.388
 3256POPC   NC343991   2.840   0.823   5.023
 3256POPC   PO443992   2.888   0.241   5.403
 3256POPC   GL143993   2.809   0.339   5.829
 3256POPC   GL243994   2.743   0.681   5.777
 3256POPC   C1A43995   2.904   0.438   6.268
 3256POPC   D2A43996   3.231   0.633   6.550
 3256POPC   C3A43997   3.075   0.525   6.964
 3256POPC   C4A43998   2.769   0.435   7.359
 3256POPC   C1B43999   2.603   0.873   6.168
 3256POPC   C2B44000   2.774   0.817   6.592
 3256POPC   C3B44001   2.687   0.825   7.035
 3256POPC   C4B44002   2.584   0.931   7.456
 3257POPC   NC344003  17.964  13.195   5.480
 3257POPC   PO444004  18.571  12.914   5.350
 3257POPC   GL144005  18.362  13.004   5.747
 3257POPC   GL244006  18.207  12.722   5.903
 3257POPC   C1A44007  18.208  13.174   6.164
 3257POPC   D2A44008  17.883  13.191   6.522
 3257POPC   C3A44009  18.053  13.096   6.937
 3257POPC   C4A44010  17.882  12.939   7.333
 3257POPC   C1B44011  17.944  12.739   6.271
 3257POPC   C2B44012  18.010  12.609   6.682
 3257POPC   C3B44013  18.410  12.675   6.870
 3257POPC   C4B44014  18.525  12.993   7.137
 3258POPC   NC344015  21.381  40.989   5.461
 3258POPC   PO444016  21.243  40.354   5.467
 3258POPC   GL144017  21.127  40.672   5.820
 3258POPC   GL244018  20.955  41.007   5.731
 3258POPC   C1A44019  21.367  40.793   6.221
 3258POPC   D2A44020  21.665  40.905   6.570
 3258POPC   C3A44021  21.552  40.779   6.992
 3258POPC   C4A44022  21.189  40.547   7.125
 3258POPC   C1B44023  20.989  41.128   6.164
 3258POPC   C2B44024  21.151  41.111   6.616
 3258POPC   C3B44025  21.100  41.027   7.062
 3258POPC   C4B44026  21.001  41.198   7.460
 3259POPC   NC344027  20.830  18.968   5.221
 3259POPC   PO444028  20.284  19.246   5.359
 3259POPC   GL144029  20.602  19.177   5.700
 3259POPC   GL244030  20.819  18.875   5.766
 3259POPC   C1A44031  20.711  19.216   6.156
 3259POPC   D2A44032  20.579  19.255   6.590
 3259POPC   C3A44033  20.629  18.951   6.891
 3259POPC   C4A44034  20.732  18.989   7.305
 3259POPC   C1B44035  20.424  18.809   6.028
 3259POPC   C2B44036  20.316  18.753   6.468
 3259POPC   C3B44037  20.219  18.644   6.901
 3259POPC   C4B44038  20.341  18.659   7.303
 3260POPC   NC344039  32.701  40.997   5.516
 3260POPC   PO444040  32.873  40.305   5.401
 3260POPC   GL144041  33.012  40.613   5.779
 3260POPC   GL244042  33.340  40.856   5.784
 3260POPC   C1A44043  33.178  40.680   6.241
 3260POPC   D2A44044  33.465  40.508   6.595
 3260POPC   C3A44045  33.218  40.513   6.987
 3260POPC   C4A44046  32.781  40.630   7.088
 3260POPC   C1B44047  33.304  41.200   6.143
 3260POPC   C2B44048  33.014  41.241   6.470
 3260POPC   C3B44049  33.043  40.989   6.822
 3260POPC   C4B44050  32.965  41.077   7.239
 3261POPC   NC344051   2.861  43.848   5.300
 3261POPC   PO444052   2.233  43.975   5.389
 3261POPC   GL144053   2.553  43.908   5.739
 3261POPC   GL244054   2.920  44.020   5.764
 3261POPC   C1A44055   2.691  43.750   6.173
 3261POPC   D2A44056   2.579  43.811   6.632
 3261POPC   C3A44057   2.789  43.763   7.073
 3261POPC   C4A44058   2.605  43.825   7.519
 3261POPC   C1B44059   3.122  44.061   6.150
 3261POPC   C2B44060   2.975  44.126   6.552
 3261POPC   C3B44061   3.118  44.153   6.964
 3261POPC   C4B44062   3.011  44.101   7.416
 3262POPC   NC344063  31.538  25.098   5.266
 3262POPC   PO444064  31.270  25.629   5.103
 3262POPC   GL144065  31.327  25.385   5.600
 3262POPC   GL244066  31.658  25.216   5.756
 3262POPC   C1A44067  31.277  25.301   6.094
 3262POPC   D2A44068  31.434  25.373   6.545
 3262POPC   C3A44069  31.308  25.385   7.003
 3262POPC   C4A44070  31.187  25.698   7.337
 3262POPC   C1B44071  31.796  25.165   6.206
 3262POPC   C2B44072  31.767  24.986   6.648
 3262POPC   C3B44073  31.721  24.928   7.109
 3262POPC   C4B44074  31.726  24.871   7.581
 3263POPC   NC344075   0.990  13.880   5.320
 3263POPC   PO444076   0.425  13.665   5.348
 3263POPC   GL144077   0.637  13.470   5.704
 3263POPC   GL244078   0.750  13.783   5.776
 3263POPC   C1A44079   0.509  13.555   6.148
 3263POPC   D2A44080   0.265  13.756   6.493
 3263POPC   C3A44081   0.420  13.636   6.894
 3263POPC   C4A44082   0.247  13.450   7.264
 3263POPC   C1B44083   0.614  14.061   6.130
 3263POPC   C2B44084   0.733  14.017   6.581
 3263POPC   C3B44085   0.714  14.068   7.036
 3263POPC   C4B44086   0.683  13.745   7.342
 3264POPC   NC344087  23.303  42.183   5.175
 3264POPC   PO444088  22.939  42.652   5.368
 3264POPC   GL144089  22.811  42.647   5.799
 3264POPC   GL244090  22.810  42.306   5.915
 3264POPC   C1A44091  22.807  42.725   6.238
 3264POPC   D2A44092  22.916  42.426   6.537
 3264POPC   C3A44093  22.804  42.527   6.939
 3264POPC   C4A44094  22.742  42.444   7.367
 3264POPC   C1B44095  22.730  42.025   6.276
 3264POPC   C2B44096  22.768  41.966   6.746
 3264POPC   C3B44097  22.944  42.038   7.151
 3264POPC   C4B44098  22.983  42.094   7.631
 3265POPC   NC344099  37.369  42.707   5.221
 3265POPC   PO444100  37.936  42.299   5.204
 3265POPC   GL144101  37.794  42.335   5.648
 3265POPC   GL244102  37.530  42.596   5.694
 3265POPC   C1A44103  37.738  42.108   6.063
 3265POPC   D2A44104  37.441  42.191   6.392
 3265POPC   C3A44105  37.533  42.084   6.824
 3265POPC   C4A44106  37.474  42.015   7.272
 3265POPC   C1B44107  37.769  42.602   6.096
 3265POPC   C2B44108  37.849  42.445   6.529
 3265POPC   C3B44109  37.801  42.523   6.943
 3265POPC   C4B44110  37.735  42.731   7.354
 3266POPC   NC344111  35.318   5.573   5.437
 3266POPC   PO444112  35.418   4.991   5.488
 3266POPC   GL144113  35.626   5.279   5.809
 3266POPC   GL244114  35.453   5.584   5.940
 3266POPC   C1A44115  35.558   5.174   6.258
 3266POPC   D2A44116  35.698   5.001   6.658
 3266POPC   C3A44117  35.435   5.051   7.053
 3266POPC   C4A44118  35.304   5.105   7.515
 3266POPC   C1B44119  35.430   5.621   6.437
 3266POPC   C2B44120  35.566   5.519   6.868
 3266POPC   C3B44121  35.319   5.551   7.255
 3266POPC   C4B44122  35.273   5.577   7.744
 3267POPC   NC344123  37.302  35.434   4.952
 3267POPC   PO444124  37.721  35.423   5.420
 3267POPC   GL144125  37.586  35.350   5.796
 3267POPC   GL244126  37.778  35.050   5.821
 3267POPC   C1A44127  37.668  35.427   6.237
 3267POPC   D2A44128  37.767  35.501   6.663
 3267POPC   C3A44129  37.475  35.524   6.980
 3267POPC   C4A44130  37.170  35.345   7.273
 3267POPC   C1B44131  38.014  34.970   6.154
 3267POPC   C2B44132  38.105  35.107   6.543
 3267POPC   C3B44133  37.921  35.044   6.936
 3267POPC   C4B44134  37.722  35.209   7.322
 3268POPC   NC344135  27.235  40.856   5.516
 3268POPC   PO444136  27.884  40.610   5.445
 3268POPC   GL144137  27.793  40.745   5.858
 3268POPC   GL244138  28.004  40.534   6.009
 3268POPC   C1A44139  27.911  40.976   6.252
 3268POPC   D2A44140  27.862  40.935   6.685
 3268POPC   C3A44141  27.455  40.888   6.875
 3268POPC   C4A44142  27.582  40.851   7.275
 3268POPC   C1B44143  27.692  40.434   6.319
 3268POPC   C2B44144  27.670  40.421   6.764
 3268POPC   C3B44145  27.566  40.354   7.180
 3268POPC   C4B44146  27.285  40.508   7.512
 3269POPC   NC344147  39.382  42.104   5.126
 3269POPC   PO444148  39.412  41.530   5.473
 3269POPC   GL144149  39.193  41.475   5.829
 3269POPC   GL244150  39.361  41.201   5.973
 3269POPC   C1A44151  39.237  41.610   6.250
 3269POPC   D2A44152  39.225  41.379   6.613
 3269POPC   C3A44153  39.019  41.551   6.952
 3269POPC   C4A44154  39.277  41.793   7.198
 3269POPC   C1B44155  39.670  41.298   6.281
 3269POPC   C2B44156  39.730  41.387   6.710
 3269POPC   C3B44157  39.456  41.311   7.073
 3269POPC   C4B44158  39.327  41.399   7.507
 3270POPC   NC344159  13.617  34.894   4.878
 3270POPC   PO444160  13.850  34.513   5.430
 3270POPC   GL144161  13.918  34.577   5.894
 3270POPC   GL244162  13.591  34.522   6.017
 3270POPC   C1A44163  13.930  34.810   6.311
 3270POPC   D2A44164  13.708  34.758   6.720
 3270POPC   C3A44165  13.891  34.639   7.129
 3270POPC   C4A44166  13.888  34.425   7.540
 3270POPC   C1B44167  13.769  34.331   6.401
 3270POPC   C2B44168  13.703  34.248   6.859
 3270POPC   C3B44169  13.454  34.296   7.244
 3270POPC   C4B44170  13.354  33.962   7.570
 3271POPC   NC344171  39.322  26.323   5.327
 3271POPC   PO444172  39.022  25.727   5.305
 3271POPC   GL144173  39.304  25.857   5.702
 3271POPC   GL244174  39.377  26.232   5.819
 3271POPC   C1A44175  39.161  25.861   6.169
 3271POPC   D2A44176  38.811  25.858   6.504
 3271POPC   C3A44177  38.842  25.701   6.936
 3271POPC   C4A44178  39.065  25.845   7.322
 3271POPC   C1B44179  39.533  26.278   6.223
 3271POPC   C2B44180  39.176  26.242   6.516
 3271POPC   C3B44181  39.194  26.080   6.891
 3271POPC   C4B44182  39.415  26.262   7.204
 3272POPC   NC344183  31.792  36.145   5.450
 3272POPC   PO444184  32.416  36.388   5.363
 3272POPC   GL144185  32.316  36.317   5.830
 3272POPC   GL244186  31.952  36.390   5.880
 3272POPC   C1A44187  32.518  36.208   6.281
 3272POPC   D2A44188  32.736  36.071   6.709
 3272POPC   C3A44189  32.447  35.818   6.982
 3272POPC   C4A44190  31.986  35.891   7.125
 3272POPC   C1B44191  31.959  36.207   6.296
 3272POPC   C2B44192  31.888  36.227   6.747
 3272POPC   C3B44193  32.263  36.317   6.989
 3272POPC   C4B44194  32.608  36.568   6.876
 3273POPC   NC344195  21.554  14.780   5.397
 3273POPC   PO444196  21.010  14.376   5.550
 3273POPC   GL144197  21.350  14.514   5.832
 3273POPC   GL244198  21.668  14.348   5.805
 3273POPC   C1A44199  21.395  14.499   6.282
 3273POPC   D2A44200  21.133  14.710   6.575
 3273POPC   C3A44201  21.153  14.572   6.950
 3273POPC   C4A44202  21.254  14.412   7.340
 3273POPC   C1B44203  21.688  14.080   6.161
 3273POPC   C2B44204  21.550  14.060   6.593
 3273POPC   C3B44205  21.603  14.317   6.958
 3273POPC   C4B44206  21.748  14.359   7.376
 3274POPC   NC344207  19.343  31.172   5.589
 3274POPC   PO444208  18.969  30.644   5.364
 3274POPC   GL144209  19.135  30.512   5.767
 3274POPC   GL244210  19.450  30.714   5.812
 3274POPC   C1A44211  18.923  30.407   6.162
 3274POPC   D2A44212  18.777  30.603   6.531
 3274POPC   C3A44213  18.613  30.400   6.867
 3274POPC   C4A44214  18.792  30.534   7.224
 3274POPC   C1B44215  19.122  30.890   6.122
 3274POPC   C2B44216  19.084  31.017   6.529
 3274POPC   C3B44217  19.095  30.855   6.950
 3274POPC   C4B44218  19.019  30.930   7.405
 3275POPC   NC344219  10.123  39.805   5.606
 3275POPC   PO444220   9.634  39.474   5.247
 3275POPC   GL144221   9.766  39.435   5.742
 3275POPC   GL244222  10.047  39.219   5.873
 3275POPC   C1A44223   9.708  39.508   6.188
 3275POPC   D2A44224   9.718  39.462   6.638
 3275POPC   C3A44225   9.480  39.595   6.978
 3275POPC   C4A44226   9.588  39.429   7.348
 3275POPC   C1B44227   9.829  38.999   6.199
 3275POPC   C2B44228   9.749  38.947   6.621
 3275POPC   C3B44229   9.849  39.130   7.001
 3275POPC   C4B44230   9.639  38.927   7.278
 3276POPC   NC344231  33.087  22.359   5.568
 3276POPC   PO444232  32.711  21.924   5.324
 3276POPC   GL144233  32.760  22.052   5.775
 3276POPC   GL244234  32.755  22.383   5.967
 3276POPC   C1A44235  33.005  22.005   6.169
 3276POPC   D2A44236  33.144  22.176   6.555
 3276POPC   C3A44237  33.016  21.987   6.902
 3276POPC   C4A44238  32.804  22.163   7.200
 3276POPC   C1B44239  33.221  22.493   6.168
 3276POPC   C2B44240  33.364  22.646   6.584
 3276POPC   C3B44241  33.202  22.482   6.978
 3276POPC   C4B44242  33.335  22.194   7.266
 3277POPC   NC344243  39.465  34.750   5.502
 3277POPC   PO444244  40.150  34.478   5.331
 3277POPC   GL144245  39.945  34.643   5.676
 3277POPC   GL244246  39.889  34.320   5.755
 3277POPC   C1A44247  39.880  34.776   6.097
 3277POPC   D2A44248  40.132  34.706   6.456
 3277POPC   C3A44249  39.918  34.756   6.840
 3277POPC   C4A44250  39.773  34.902   7.234
 3277POPC   C1B44251  40.054  34.282   6.179
 3277POPC   C2B44252  39.969  34.231   6.623
 3277POPC   C3B44253  39.965  34.284   7.059
 3277POPC   C4B44254  39.986  34.279   7.511
 3278POPC   NC344255  10.649  24.618   5.323
 3278POPC   PO444256  10.479  23.977   5.175
 3278POPC   GL144257  10.791  24.176   5.633
 3278POPC   GL244258  10.623  24.468   5.806
 3278POPC   C1A44259  10.819  24.231   6.185
 3278POPC   D2A44260  10.568  24.313   6.620
 3278POPC   C3A44261  10.751  24.537   7.027
 3278POPC   C4A44262  10.721  24.482   7.491
 3278POPC   C1B44263  10.315  24.392   6.150
 3278POPC   C2B44264  10.118  24.576   6.525
 3278POPC   C3B44265  10.112  24.583   6.967
 3278POPC   C4B44266  10.309  24.298   7.243
 3279POPC   NC344267  32.536  14.905   5.060
 3279POPC   PO444268  32.403  15.372   5.629
 3279POPC   GL144269  32.066  15.333   5.887
 3279POPC   GL244270  32.103  15.000   5.922
 3279POPC   C1A44271  32.128  15.406   6.291
 3279POPC   D2A44272  32.398  15.278   6.583
 3279POPC   C3A44273  32.301  15.301   6.972
 3279POPC   C4A44274  32.438  15.399   7.355
 3279POPC   C1B44275  32.352  14.863   6.287
 3279POPC   C2B44276  32.322  14.779   6.752
 3279POPC   C3B44277  32.570  14.895   7.129
 3279POPC   C4B44278  32.475  14.923   7.603
 3280POPC   NC344279  10.929  15.844   5.386
 3280POPC   PO444280  10.329  16.266   5.414
 3280POPC   GL144281  10.517  16.007   5.716
 3280POPC   GL244282  10.498  15.668   5.625
 3280POPC   C1A44283  10.470  16.067   6.167
 3280POPC   D2A44284  10.796  16.141   6.483
 3280POPC   C3A44285  10.616  16.108   6.882
 3280POPC   C4A44286  10.699  15.926   7.251
 3280POPC   C1B44287  10.366  15.594   6.075
 3280POPC   C2B44288  10.553  15.666   6.534
 3280POPC   C3B44289  10.377  15.651   6.985
 3280POPC   C4B44290  10.256  15.658   7.443
 3281POPC   NC344291  41.988  44.309   5.534
 3281POPC   PO444292  42.615  44.501   5.814
 3281POPC   GL144293  42.244  44.522   5.947
 3281POPC   GL244294  42.138  44.758   5.754
 3281POPC   C1A44295  42.237  44.616   6.367
 3281POPC   D2A44296  42.255  44.522   6.778
 3281POPC   C3A44297  42.519  44.722   7.080
 3281POPC   C4A44298  42.569  44.617   7.527
 3281POPC   C1B44299  41.931  44.929   6.120
 3281POPC   C2B44300  41.808  44.818   6.569
 3281POPC   C3B44301  41.969  44.883   6.986
 3281POPC   C4B44302  42.164  44.891   7.397
 3282POPC   NC344303  11.513  37.665   5.415
 3282POPC   PO444304  10.870  37.740   5.500
 3282POPC   GL144305  11.164  37.758   5.826
 3282POPC   GL244306  11.380  37.445   5.847
 3282POPC   C1A44307  11.051  37.896   6.249
 3282POPC   D2A44308  11.303  38.017   6.585
 3282POPC   C3A44309  11.149  37.827   6.937
 3282POPC   C4A44310  10.984  37.499   7.183
 3282POPC   C1B44311  11.497  37.650   6.250
 3282POPC   C2B44312  11.551  37.582   6.712
 3282POPC   C3B44313  11.639  37.729   7.135
 3282POPC   C4B44314  11.596  37.531   7.541
 3283POPC   NC344315  39.891  13.988   5.089
 3283POPC   PO444316  39.916  13.559   5.563
 3283POPC   GL144317  39.984  13.610   5.941
 3283POPC   GL244318  39.751  13.879   5.986
 3283POPC   C1A44319  39.962  13.578   6.371
 3283POPC   D2A44320  40.223  13.574   6.690
 3283POPC   C3A44321  40.055  13.422   7.061
 3283POPC   C4A44322  40.235  13.699   7.354
 3283POPC   C1B44323  39.526  13.831   6.404
 3283POPC   C2B44324  39.694  13.708   6.827
 3283POPC   C3B44325  39.772  13.840   7.274
 3283POPC   C4B44326  39.663  14.063   7.674
 3284POPC   NC344327   8.944  18.279   5.493
 3284POPC   PO444328   9.440  17.773   5.559
 3284POPC   GL144329   9.239  18.042   5.868
 3284POPC   GL244330   8.862  18.061   5.934
 3284POPC   C1A44331   9.209  18.193   6.302
 3284POPC   D2A44332   8.866  18.082   6.613
 3284POPC   C3A44333   8.940  18.158   7.066
 3284POPC   C4A44334   9.216  18.179   7.453
 3284POPC   C1B44335   8.750  18.436   6.198
 3284POPC   C2B44336   8.664  18.587   6.631
 3284POPC   C3B44337   8.793  18.645   7.073
 3284POPC   C4B44338   8.773  18.429   7.487
 3285POPC   NC344339  20.370   4.846   5.397
 3285POPC   PO444340  21.003   5.016   5.179
 3285POPC   GL144341  20.756   5.139   5.639
 3285POPC   GL244342  20.500   4.944   5.864
 3285POPC   C1A44343  20.779   5.277   6.147
 3285POPC   D2A44344  20.693   5.110   6.599
 3285POPC   C3A44345  20.787   5.347   7.001
 3285POPC   C4A44346  20.581   5.395   7.429
 3285POPC   C1B44347  20.285   5.074   6.248
 3285POPC   C2B44348  20.190   5.203   6.657
 3285POPC   C3B44349  20.326   5.078   7.102
 3285POPC   C4B44350  20.368   4.950   7.576
 3286POPC   NC344351  20.818  11.445   5.372
 3286POPC   PO444352  20.355  10.952   5.484
 3286POPC   GL144353  20.661  11.097   5.786
 3286POPC   GL244354  20.651  11.485   5.837
 3286POPC   C1A44355  20.604  11.170   6.224
 3286POPC   D2A44356  20.764  11.345   6.568
 3286POPC   C3A44357  20.716  11.180   6.941
 3286POPC   C4A44358  20.914  11.097   7.320
 3286POPC   C1B44359  20.585  11.685   6.228
 3286POPC   C2B44360  20.275  11.605   6.530
 3286POPC   C3B44361  20.348  11.646   6.949
 3286POPC   C4B44362  20.547  11.482   7.307
 3287POPC   NC344363  25.402  38.768   5.307
 3287POPC   PO444364  25.083  38.066   5.416
 3287POPC   GL144365  25.115  38.218   5.853
 3287POPC   GL244366  25.245  38.526   5.739
 3287POPC   C1A44367  25.124  38.290   6.373
 3287POPC   D2A44368  24.972  38.487   6.799
 3287POPC   C3A44369  25.054  38.295   7.226
 3287POPC   C4A44370  25.429  38.341   7.540
 3287POPC   C1B44371  25.512  38.465   6.095
 3287POPC   C2B44372  25.634  38.562   6.536
 3287POPC   C3B44373  25.499  38.475   6.969
 3287POPC   C4B44374  25.285  38.731   7.248
 3288POPC   NC344375   6.673  29.530   5.336
 3288POPC   PO444376   6.401  30.151   5.335
 3288POPC   GL144377   6.480  29.854   5.718
 3288POPC   GL244378   6.853  29.829   5.775
 3288POPC   C1A44379   6.386  29.760   6.191
 3288POPC   D2A44380   6.331  29.750   6.668
 3288POPC   C3A44381   6.360  30.111   6.906
 3288POPC   C4A44382   6.182  30.282   7.240
 3288POPC   C1B44383   7.068  29.786   6.171
 3288POPC   C2B44384   6.851  29.828   6.537
 3288POPC   C3B44385   6.822  29.888   6.949
 3288POPC   C4B44386   6.755  29.605   7.273
 3289POPC   NC344387  16.652  10.869   5.074
 3289POPC   PO444388  16.852  10.327   5.486
 3289POPC   GL144389  16.951  10.409   5.873
 3289POPC   GL244390  16.606  10.460   5.943
 3289POPC   C1A44391  17.088  10.540   6.261
 3289POPC   D2A44392  16.856  10.829   6.489
 3289POPC   C3A44393  16.926  10.814   6.912
 3289POPC   C4A44394  16.638  10.809   7.233
 3289POPC   C1B44395  16.439  10.500   6.360
 3289POPC   C2B44396  16.424  10.541   6.826
 3289POPC   C3B44397  16.466  10.299   7.221
 3289POPC   C4B44398  16.354  10.238   7.687
 3290POPC   NC344399  30.905  30.644   5.395
 3290POPC   PO444400  31.588  30.830   5.349
 3290POPC   GL144401  31.651  30.765   5.785
 3290POPC   GL244402  31.343  30.577   5.765
 3290POPC   C1A44403  31.623  30.650   6.259
 3290POPC   D2A44404  31.773  30.426   6.663
 3290POPC   C3A44405  31.525  30.472   7.044
 3290POPC   C4A44406  31.194  30.537   7.364
 3290POPC   C1B44407  31.094  30.702   6.115
 3290POPC   C2B44408  31.009  30.844   6.551
 3290POPC   C3B44409  31.190  30.862   6.951
 3290POPC   C4B44410  31.583  30.958   7.164
 3291POPC   NC344411   5.284   9.147   5.274
 3291POPC   PO444412   4.834   8.748   5.551
 3291POPC   GL144413   5.074   8.945   5.784
 3291POPC   GL244414   4.811   9.077   5.970
 3291POPC   C1A44415   5.278   8.777   6.145
 3291POPC   D2A44416   5.118   8.993   6.493
 3291POPC   C3A44417   5.258   8.905   6.918
 3291POPC   C4A44418   5.348   9.009   7.356
 3291POPC   C1B44419   4.658   9.179   6.401
 3291POPC   C2B44420   4.671   8.905   6.779
 3291POPC   C3B44421   4.805   9.016   7.198
 3291POPC   C4B44422   4.653   9.296   7.573
 3292POPC   NC344423  40.542  28.422   5.424
 3292POPC   PO444424  41.167  28.208   5.253
 3292POPC   GL144425  41.019  28.282   5.725
 3292POPC   GL244426  41.089  27.947   5.777
 3292POPC   C1A44427  40.804  28.461   6.166
 3292POPC   D2A44428  40.438  28.519   6.493
 3292POPC   C3A44429  40.571  28.695   6.918
 3292POPC   C4A44430  40.994  28.717   7.154
 3292POPC   C1B44431  40.946  27.981   6.224
 3292POPC   C2B44432  40.779  28.124   6.648
 3292POPC   C3B44433  40.734  28.237   7.113
 3292POPC   C4B44434  40.649  28.079   7.547
 3293POPC   NC344435  28.644   2.560   5.183
 3293POPC   PO444436  28.719   3.161   5.515
 3293POPC   GL144437  28.397   2.878   5.803
 3293POPC   GL244438  28.224   2.523   5.771
 3293POPC   C1A44439  28.349   2.842   6.278
 3293POPC   D2A44440  28.461   2.929   6.732
 3293POPC   C3A44441  28.524   2.648   7.093
 3293POPC   C4A44442  28.829   2.721   7.430
 3293POPC   C1B44443  27.927   2.561   6.128
 3293POPC   C2B44444  27.868   2.427   6.536
 3293POPC   C3B44445  28.068   2.505   6.912
 3293POPC   C4B44446  28.029   2.633   7.330
 3294POPC   NC344447  24.886  34.410   5.163
 3294POPC   PO444448  25.293  34.387   5.650
 3294POPC   GL144449  25.269  34.630   5.976
 3294POPC   GL244450  24.926  34.582   6.015
 3294POPC   C1A44451  25.321  34.477   6.395
 3294POPC   D2A44452  25.186  34.329   6.784
 3294POPC   C3A44453  25.399  34.513   7.090
 3294POPC   C4A44454  25.100  34.733   7.278
 3294POPC   C1B44455  25.042  34.898   6.339
 3294POPC   C2B44456  25.176  34.880   6.771
 3294POPC   C3B44457  25.486  35.012   7.087
 3294POPC   C4B44458  25.471  34.970   7.558
 3295POPC   NC344459  17.290  34.844   5.498
 3295POPC   PO444460  17.636  34.249   5.369
 3295POPC   GL144461  17.703  34.528   5.754
 3295POPC   GL244462  17.366  34.502   5.866
 3295POPC   C1A44463  17.657  34.693   6.218
 3295POPC   D2A44464  17.883  34.673   6.584
 3295POPC   C3A44465  17.657  34.538   6.935
 3295POPC   C4A44466  17.748  34.403   7.356
 3295POPC   C1B44467  17.163  34.813   6.147
 3295POPC   C2B44468  17.274  34.865   6.575
 3295POPC   C3B44469  17.121  34.884   6.991
 3295POPC   C4B44470  17.286  34.608   7.289
 3296POPC   NC344471  24.172  32.662   5.501
 3296POPC   PO444472  24.712  33.047   5.151
 3296POPC   GL144473  24.679  33.012   5.648
 3296POPC   GL244474  24.386  32.907   5.873
 3296POPC   C1A44475  24.665  33.263   6.070
 3296POPC   D2A44476  24.400  33.301   6.410
 3296POPC   C3A44477  24.435  33.063   6.794
 3296POPC   C4A44478  24.543  32.980   7.236
 3296POPC   C1B44479  24.750  32.772   6.103
 3296POPC   C2B44480  24.780  32.728   6.556
 3296POPC   C3B44481  24.523  32.588   6.910
 3296POPC   C4B44482  24.679  32.485   7.310
 3297POPC   NC344483   3.850  34.305   5.618
 3297POPC   PO444484   3.363  34.761   5.290
 3297POPC   GL144485   3.464  34.768   5.730
 3297POPC   GL244486   3.153  34.703   5.896
 3297POPC   C1A44487   3.697  34.673   6.129
 3297POPC   D2A44488   3.698  34.519   6.564
 3297POPC   C3A44489   3.844  34.644   6.934
 3297POPC   C4A44490   3.832  34.869   7.282
 3297POPC   C1B44491   3.213  34.565   6.296
 3297POPC   C2B44492   3.230  34.397   6.685
 3297POPC   C3B44493   3.296  34.570   7.080
 3297POPC   C4B44494   2.974  34.529   7.375
 3298POPC   NC344495  10.775  13.179   5.179
 3298POPC   PO444496  10.226  12.791   5.341
 3298POPC   GL144497  10.390  12.594   5.769
 3298POPC   GL244498  10.252  12.842   5.981
 3298POPC   C1A44499  10.632  12.629   6.211
 3298POPC   D2A44500  10.280  12.760   6.513
 3298POPC   C3A44501  10.404  12.903   6.904
 3298POPC   C4A44502  10.807  12.832   6.962
 3298POPC   C1B44503  10.500  13.136   6.238
 3298POPC   C2B44504  10.840  13.121   6.509
 3298POPC   C3B44505  10.769  13.328   6.880
 3298POPC   C4B44506  10.771  13.237   7.281
 3299POPC   NC344507  21.548   1.781   5.332
 3299POPC   PO444508  21.508   2.440   5.463
 3299POPC   GL144509  21.507   2.140   5.814
 3299POPC   GL244510  21.404   1.790   5.823
 3299POPC   C1A44511  21.357   2.092   6.279
 3299POPC   D2A44512  21.498   2.227   6.704
 3299POPC   C3A44513  21.341   1.929   7.011
 3299POPC   C4A44514  21.547   1.567   7.133
 3299POPC   C1B44515  21.187   1.612   6.171
 3299POPC   C2B44516  21.307   1.629   6.590
 3299POPC   C3B44517  21.088   1.484   6.925
 3299POPC   C4B44518  21.039   1.655   7.336
 3300POPC   NC344519  18.400  26.896   5.356
 3300POPC   PO444520  18.117  26.295   5.435
 3300POPC   GL144521  18.183  26.662   5.762
 3300POPC   GL244522  18.277  27.073   5.814
 3300POPC   C1A44523  18.343  26.740   6.177
 3300POPC   D2A44524  18.250  26.929   6.560
 3300POPC   C3A44525  18.421  26.715   6.899
 3300POPC   C4A44526  18.199  26.680   7.287
 3300POPC   C1B44527  18.422  27.301   6.221
 3300POPC   C2B44528  18.416  27.392   6.706
 3300POPC   C3B44529  18.405  27.168   7.125
 3300POPC   C4B44530  18.453  27.035   7.570
 3301POPC   NC344531   6.713  15.599   5.271
 3301POPC   PO444532   6.351  16.275   5.242
 3301POPC   GL144533   6.723  16.270   5.593
 3301POPC   GL244534   6.710  15.952   5.664
 3301POPC   C1A44535   6.915  16.149   6.072
 3301POPC   D2A44536   6.951  16.272   6.528
 3301POPC   C3A44537   6.983  16.003   6.913
 3301POPC   C4A44538   6.716  16.227   7.231
 3301POPC   C1B44539   6.412  16.118   5.995
 3301POPC   C2B44540   6.528  15.960   6.405
 3301POPC   C3B44541   6.478  15.996   6.833
 3301POPC   C4B44542   6.558  15.750   7.224
 3302POPC   NC344543  26.252  30.131   5.474
 3302POPC   PO444544  25.593  29.782   5.431
 3302POPC   GL144545  25.945  29.805   5.738
 3302POPC   GL244546  25.895  30.112   5.867
 3302POPC   C1A44547  26.249  29.889   6.128
 3302POPC   D2A44548  26.025  29.752   6.482
 3302POPC   C3A44549  26.132  29.811   6.896
 3302POPC   C4A44550  26.037  29.927   7.299
 3302POPC   C1B44551  25.707  30.119   6.266
 3302POPC   C2B44552  25.783  30.155   6.698
 3302POPC   C3B44553  25.612  30.146   7.100
 3302POPC   C4B44554  25.793  30.386   7.446
 3303POPC   NC344555  14.511  32.580   5.439
 3303POPC   PO444556  14.525  31.901   5.468
 3303POPC   GL144557  14.324  32.123   5.786
 3303POPC   GL244558  14.598  32.267   5.893
 3303POPC   C1A44559  14.169  32.236   6.236
 3303POPC   D2A44560  14.295  32.362   6.668
 3303POPC   C3A44561  14.074  32.224   7.066
 3303POPC   C4A44562  13.908  32.159   7.514
 3303POPC   C1B44563  14.784  32.049   6.246
 3303POPC   C2B44564  14.905  31.981   6.669
 3303POPC   C3B44565  14.599  32.100   6.983
 3303POPC   C4B44566  14.494  32.500   7.162
 3304POPC   NC344567  29.596  38.011   5.596
 3304POPC   PO444568  30.029  37.565   5.276
 3304POPC   GL144569  29.849  37.505   5.719
 3304POPC   GL244570  30.187  37.352   5.773
 3304POPC   C1A44571  29.757  37.683   6.182
 3304POPC   D2A44572  29.901  37.848   6.602
 3304POPC   C3A44573  29.720  37.683   6.982
 3304POPC   C4A44574  29.690  37.937   7.345
 3304POPC   C1B44575  30.270  37.579   6.136
 3304POPC   C2B44576  30.275  37.498   6.555
 3304POPC   C3B44577  30.224  37.511   6.985
 3304POPC   C4B44578  30.164  37.912   7.162
 3305POPC   NC344579  44.131  22.798   5.447
 3305POPC   PO444580  43.569  23.187   5.348
 3305POPC   GL144581  43.739  22.983   5.791
 3305POPC   GL244582  43.966  22.674   5.907
 3305POPC   C1A44583  43.901  23.004   6.265
 3305POPC   D2A44584  43.920  23.200   6.668
 3305POPC   C3A44585  44.122  22.998   7.016
 3305POPC   C4A44586  44.005  23.013   7.454
 3305POPC   C1B44587  43.876  22.473   6.312
 3305POPC   C2B44588  43.826  22.563   6.782
 3305POPC   C3B44589  43.911  22.571   7.223
 3305POPC   C4B44590  43.961  22.580   7.703
 3306POPC   NC344591  38.332  39.131   5.336
 3306POPC   PO444592  37.986  39.648   5.511
 3306POPC   GL144593  38.222  39.366   5.809
 3306POPC   GL244594  38.580  39.346   5.740
 3306POPC   C1A44595  38.330  39.307   6.241
 3306POPC   D2A44596  38.207  39.128   6.653
 3306POPC   C3A44597  38.271  39.417   7.004
 3306POPC   C4A44598  38.256  39.399   7.482
 3306POPC   C1B44599  38.689  39.022   6.003
 3306POPC   C2B44600  38.657  38.934   6.415
 3306POPC   C3B44601  38.714  39.068   6.833
 3306POPC   C4B44602  38.510  39.025   7.201
 3307POPC   NC344603   0.550  12.983   5.383
 3307POPC   PO444604   0.937  12.479   5.599
 3307POPC   GL144605   0.537  12.637   5.770
 3307POPC   GL244606   0.260  12.375   5.753
 3307POPC   C1A44607   0.483  13.018   6.070
 3307POPC   D2A44608   0.447  13.221   6.508
 3307POPC   C3A44609   0.391  13.092   6.949
 3307POPC   C4A44610   0.278  12.971   7.401
 3307POPC   C1B44611   0.225  12.580   6.174
 3307POPC   C2B44612   0.252  12.748   6.596
 3307POPC   C3B44613   0.200  12.610   7.050
 3307POPC   C4B44614   0.173  12.322   7.429
 3308POPC   NC344615  23.125  37.524   5.341
 3308POPC   PO444616  22.712  37.952   5.466
 3308POPC   GL144617  22.970  37.769   5.764
 3308POPC   GL244618  22.787  37.477   5.755
 3308POPC   C1A44619  22.913  37.744   6.207
 3308POPC   D2A44620  22.660  37.589   6.564
 3308POPC   C3A44621  22.893  37.668   6.933
 3308POPC   C4A44622  23.016  37.879   7.284
 3308POPC   C1B44623  22.853  37.247   6.170
 3308POPC   C2B44624  23.132  37.387   6.531
 3308POPC   C3B44625  23.271  37.260   6.920
 3308POPC   C4B44626  23.179  37.407   7.316
 3309POPC   NC344627   5.849  18.595   5.154
 3309POPC   PO444628   6.192  17.963   5.343
 3309POPC   GL144629   6.191  18.107   5.793
 3309POPC   GL244630   6.410  18.381   5.803
 3309POPC   C1A44631   5.885  18.176   6.193
 3309POPC   D2A44632   5.588  18.131   6.548
 3309POPC   C3A44633   5.713  18.385   6.881
 3309POPC   C4A44634   5.832  18.288   7.268
 3309POPC   C1B44635   6.358  18.367   6.236
 3309POPC   C2B44636   6.151  18.519   6.608
 3309POPC   C3B44637   6.162  18.630   7.055
 3309POPC   C4B44638   6.199  18.547   7.498
 3310POPC   NC344639  38.011  24.262   5.644
 3310POPC   PO444640  38.675  24.179   5.467
 3310POPC   GL144641  38.525  24.399   5.828
 3310POPC   GL244642  38.690  24.743   5.801
 3310POPC   C1A44643  38.365  24.494   6.272
 3310POPC   D2A44644  38.443  24.829   6.608
 3310POPC   C3A44645  38.231  24.743   7.010
 3310POPC   C4A44646  38.141  24.336   7.216
 3310POPC   C1B44647  38.852  24.588   6.211
 3310POPC   C2B44648  38.812  24.454   6.667
 3310POPC   C3B44649  38.726  24.556   7.135
 3310POPC   C4B44650  38.798  24.620   7.640
 3311POPC   NC344651  32.214  32.799   5.353
 3311POPC   PO444652  32.635  33.298   5.373
 3311POPC   GL144653  32.355  33.297   5.736
 3311POPC   GL244654  32.187  32.962   5.821
 3311POPC   C1A44655  32.208  33.285   6.192
 3311POPC   D2A44656  32.264  33.003   6.531
 3311POPC   C3A44657  32.114  33.094   6.927
 3311POPC   C4A44658  32.374  33.234   7.234
 3311POPC   C1B44659  32.357  32.663   6.121
 3311POPC   C2B44660  32.185  32.494   6.495
 3311POPC   C3B44661  32.182  32.593   6.909
 3311POPC   C4B44662  32.003  32.734   7.278
 3312POPC   NC344663  35.451  11.699   5.282
 3312POPC   PO444664  35.031  11.122   5.321
 3312POPC   GL144665  35.195  11.302   5.722
 3312POPC   GL244666  35.435  11.099   5.926
 3312POPC   C1A44667  35.425  11.606   6.048
 3312POPC   D2A44668  35.570  11.742   6.472
 3312POPC   C3A44669  35.593  11.476   6.828
 3312POPC   C4A44670  35.749  11.530   7.245
 3312POPC   C1B44671  35.283  11.242   6.370
 3312POPC   C2B44672  35.080  11.497   6.709
 3312POPC   C3B44673  35.182  11.397   7.163
 3312POPC   C4B44674  35.328  10.972   7.261
 3313POPC   NC344675  22.807  13.699   5.375
 3313POPC   PO444676  23.507  13.602   5.246
 3313POPC   GL144677  23.249  13.654   5.636
 3313POPC   GL244678  23.214  13.332   5.800
 3313POPC   C1A44679  23.089  13.777   6.082
 3313POPC   D2A44680  22.764  13.677   6.412
 3313POPC   C3A44681  22.876  13.659   6.840
 3313POPC   C4A44682  22.801  13.633   7.246
 3313POPC   C1B44683  23.084  13.277   6.230
 3313POPC   C2B44684  23.226  13.338   6.658
 3313POPC   C3B44685  23.094  13.263   7.084
 3313POPC   C4B44686  23.002  13.234   7.554
 3314POPC   NC344687  24.747  37.261   5.336
 3314POPC   PO444688  24.283  37.758   5.367
 3314POPC   GL144689  24.424  37.780   5.751
 3314POPC   GL244690  24.302  38.130   5.788
 3314POPC   C1A44691  24.775  37.781   6.044
 3314POPC   D2A44692  24.790  37.917   6.469
 3314POPC   C3A44693  24.776  37.603   6.757
 3314POPC   C4A44694  24.646  37.335   7.087
 3314POPC   C1B44695  24.303  37.952   6.207
 3314POPC   C2B44696  24.391  37.577   6.403
 3314POPC   C3B44697  24.312  37.785   6.771
 3314POPC   C4B44698  24.238  37.794   7.200
 3315POPC   NC344699  39.766  13.117   5.564
 3315POPC   PO444700  39.592  12.464   5.403
 3315POPC   GL144701  39.680  12.650   5.823
 3315POPC   GL244702  40.002  12.675   5.892
 3315POPC   C1A44703  39.718  12.921   6.241
 3315POPC   D2A44704  40.010  13.108   6.580
 3315POPC   C3A44705  40.006  12.893   6.981
 3315POPC   C4A44706  39.789  12.942   7.374
 3315POPC   C1B44707  40.244  12.880   6.191
 3315POPC   C2B44708  40.417  12.746   6.593
 3315POPC   C3B44709  40.429  12.607   7.039
 3315POPC   C4B44710  40.157  12.578   7.390
 3316POPC   NC344711  14.551  24.708   5.386
 3316POPC   PO444712  14.578  24.119   5.571
 3316POPC   GL144713  14.405  24.462   5.889
 3316POPC   GL244714  14.120  24.656   5.774
 3316POPC   C1A44715  14.372  24.675   6.341
 3316POPC   D2A44716  14.314  24.766   6.816
 3316POPC   C3A44717  14.643  24.811   7.094
 3316POPC   C4A44718  14.670  24.791   7.537
 3316POPC   C1B44719  13.931  24.467   6.165
 3316POPC   C2B44720  14.063  24.308   6.572
 3316POPC   C3B44721  14.295  24.281   6.971
 3316POPC   C4B44722  14.263  24.551   7.330
 3317POPC   NC344723  26.999  30.232   5.333
 3317POPC   PO444724  26.590  29.788   5.503
 3317POPC   GL144725  26.690  30.171   5.742
 3317POPC   GL244726  27.033  30.157   5.845
 3317POPC   C1A44727  26.615  30.279   6.157
 3317POPC   D2A44728  26.478  30.118   6.553
 3317POPC   C3A44729  26.788  30.030   6.830
 3317POPC   C4A44730  26.587  29.901   7.168
 3317POPC   C1B44731  26.999  29.751   6.062
 3317POPC   C2B44732  26.994  29.528   6.459
 3317POPC   C3B44733  26.970  29.557   6.905
 3317POPC   C4B44734  27.076  29.799   7.281
 3318POPC   NC344735   7.372  42.516   5.344
 3318POPC   PO444736   6.908  41.984   5.423
 3318POPC   GL144737   7.165  42.245   5.783
 3318POPC   GL244738   7.145  42.615   5.826
 3318POPC   C1A44739   7.378  42.046   6.186
 3318POPC   D2A44740   7.608  42.053   6.591
 3318POPC   C3A44741   7.421  42.153   6.997
 3318POPC   C4A44742   7.181  42.027   7.411
 3318POPC   C1B44743   7.456  42.549   6.223
 3318POPC   C2B44744   7.573  42.597   6.680
 3318POPC   C3B44745   7.545  42.652   7.102
 3318POPC   C4B44746   7.216  42.516   7.319
 3319POPC   NC344747  38.452   2.659   5.256
 3319POPC   PO444748  38.164   3.205   5.518
 3319POPC   GL144749  38.309   2.800   5.742
 3319POPC   GL244750  38.637   2.644   5.740
 3319POPC   C1A44751  38.237   2.620   6.123
 3319POPC   D2A44752  38.413   2.576   6.501
 3319POPC   C3A44753  38.262   2.754   6.856
 3319POPC   C4A44754  38.345   2.501   7.173
 3319POPC   C1B44755  38.843   2.362   6.047
 3319POPC   C2B44756  38.848   2.288   6.517
 3319POPC   C3B44757  38.786   2.583   6.884
 3319POPC   C4B44758  38.824   2.543   7.330
 3320POPC   NC344759  20.355  19.700   5.430
 3320POPC   PO444760  20.813  20.095   5.335
 3320POPC   GL144761  20.635  20.014   5.762
 3320POPC   GL244762  20.588  19.678   5.893
 3320POPC   C1A44763  20.499  20.128   6.191
 3320POPC   D2A44764  20.601  20.172   6.606
 3320POPC   C3A44765  20.380  20.028   6.966
 3320POPC   C4A44766  20.404  20.293   7.307
 3320POPC   C1B44767  20.773  19.707   6.317
 3320POPC   C2B44768  20.738  19.709   6.756
 3320POPC   C3B44769  20.578  19.496   7.113
 3320POPC   C4B44770  20.891  19.457   7.459
 3321POPC   NC344771  25.843  30.906   5.641
 3321POPC   PO444772  25.229  30.905   5.405
 3321POPC   GL144773  25.138  30.720   5.758
 3321POPC   GL244774  25.398  30.508   5.803
 3321POPC   C1A44775  25.240  30.886   6.161
 3321POPC   D2A44776  25.107  31.058   6.543
 3321POPC   C3A44777  25.315  30.938   6.912
 3321POPC   C4A44778  25.148  31.037   7.318
 3321POPC   C1B44779  25.260  30.372   6.173
 3321POPC   C2B44780  25.209  30.541   6.562
 3321POPC   C3B44781  25.182  30.404   6.952
 3321POPC   C4B44782  25.339  30.569   7.305
 3322POPC   NC344783  21.036  31.630   5.584
 3322POPC   PO444784  20.610  31.309   5.180
 3322POPC   GL144785  20.593  31.404   5.637
 3322POPC   GL244786  20.495  31.763   5.687
 3322POPC   C1A44787  20.662  31.454   6.132
 3322POPC   D2A44788  20.483  31.460   6.582
 3322POPC   C3A44789  20.754  31.528   6.943
 3322POPC   C4A44790  20.705  31.737   7.357
 3322POPC   C1B44791  20.304  31.832   6.102
 3322POPC   C2B44792  20.177  31.858   6.548
 3322POPC   C3B44793  20.322  31.804   6.972
 3322POPC   C4B44794  20.195  31.802   7.400
 3323POPC   NC344795  35.798   8.859   5.430
 3323POPC   PO444796  36.376   9.013   5.146
 3323POPC   GL144797  36.259   9.014   5.597
 3323POPC   GL244798  35.977   9.262   5.708
 3323POPC   C1A44799  36.172   8.806   5.998
 3323POPC   D2A44800  36.187   8.842   6.418
 3323POPC   C3A44801  36.220   8.923   6.890
 3323POPC   C4A44802  36.326   8.555   7.166
 3323POPC   C1B44803  35.876   9.179   6.159
 3323POPC   C2B44804  35.757   9.053   6.575
 3323POPC   C3B44805  35.777   9.210   6.964
 3323POPC   C4B44806  35.784   8.964   7.296
 3324POPC   NC344807  27.536  14.561   5.370
 3324POPC   PO444808  27.606  13.894   5.525
 3324POPC   GL144809  27.632  14.252   5.842
 3324POPC   GL244810  27.355  14.484   5.841
 3324POPC   C1A44811  27.503  14.275   6.316
 3324POPC   D2A44812  27.350  14.224   6.781
 3324POPC   C3A44813  27.598  14.337   7.141
 3324POPC   C4A44814  27.826  14.237   7.504
 3324POPC   C1B44815  27.479  14.765   6.156
 3324POPC   C2B44816  27.368  14.717   6.564
 3324POPC   C3B44817  27.395  14.759   6.967
 3324POPC   C4B44818  27.249  14.887   7.332
 3325POPC   NC344819  18.554   7.443   5.310
 3325POPC   PO444820  17.933   7.678   5.487
 3325POPC   GL144821  18.120   7.503   5.846
 3325POPC   GL244822  18.481   7.582   5.864
 3325POPC   C1A44823  18.017   7.602   6.275
 3325POPC   D2A44824  17.692   7.501   6.605
 3325POPC   C3A44825  17.885   7.302   6.979
 3325POPC   C4A44826  18.298   7.122   7.030
 3325POPC   C1B44827  18.563   7.449   6.309
 3325POPC   C2B44828  18.512   7.522   6.768
 3325POPC   C3B44829  18.673   7.452   7.196
 3325POPC   C4B44830  18.623   7.619   7.587
 3326POPC   NC344831  24.962  16.545   5.401
 3326POPC   PO444832  24.315  16.801   5.302
 3326POPC   GL144833  24.553  16.600   5.702
 3326POPC   GL244834  24.394  16.625   5.984
 3326POPC   C1A44835  24.826  16.512   6.158
 3326POPC   D2A44836  24.780  16.730   6.567
 3326POPC   C3A44837  24.903  16.662   7.004
 3326POPC   C4A44838  24.733  16.719   7.400
 3326POPC   C1B44839  24.230  16.970   6.224
 3326POPC   C2B44840  24.154  16.768   6.601
 3326POPC   C3B44841  24.371  16.731   6.978
 3326POPC   C4B44842  24.084  16.971   7.240
 3327POPC   NC344843   1.909   6.973   5.271
 3327POPC   PO444844   1.709   6.296   5.415
 3327POPC   GL144845   1.895   6.566   5.751
 3327POPC   GL244846   2.202   6.407   5.773
 3327POPC   C1A44847   1.875   6.806   6.168
 3327POPC   D2A44848   1.735   6.603   6.554
 3327POPC   C3A44849   1.859   6.743   6.924
 3327POPC   C4A44850   2.066   6.570   7.216
 3327POPC   C1B44851   2.334   6.590   6.172
 3327POPC   C2B44852   2.249   6.790   6.562
 3327POPC   C3B44853   2.431   6.817   6.942
 3327POPC   C4B44854   2.324   6.976   7.338
 3328POPC   NC344855   8.915  11.144   5.461
 3328POPC   PO444856   9.250  11.657   5.410
 3328POPC   GL144857   9.096  11.586   5.797
 3328POPC   GL244858   8.761  11.529   5.775
 3328POPC   C1A44859   9.118  11.286   6.143
 3328POPC   D2A44860   8.898  11.121   6.521
 3328POPC   C3A44861   9.089  11.271   6.883
 3328POPC   C4A44862   8.948  11.412   7.268
 3328POPC   C1B44863   8.606  11.397   6.161
 3328POPC   C2B44864   8.458  11.517   6.554
 3328POPC   C3B44865   8.564  11.338   6.905
 3328POPC   C4B44866   8.544  11.127   7.271
 3329POPC   NC344867  28.335  28.874   5.420
 3329POPC   PO444868  28.041  29.543   5.482
 3329POPC   GL144869  28.288  29.216   5.791
 3329POPC   GL244870  28.621  29.169   5.805
 3329POPC   C1A44871  28.311  28.938   6.157
 3329POPC   D2A44872  28.169  28.939   6.611
 3329POPC   C3A44873  28.402  29.201   6.927
 3329POPC   C4A44874  28.172  29.048   7.268
 3329POPC   C1B44875  28.558  29.382   6.234
 3329POPC   C2B44876  28.701  29.531   6.658
 3329POPC   C3B44877  28.814  29.489   7.119
 3329POPC   C4B44878  28.483  29.385   7.460
 3330POPC   NC344879   9.715  22.803   5.373
 3330POPC   PO444880  10.129  22.320   5.675
 3330POPC   GL144881   9.980  22.625   5.967
 3330POPC   GL244882   9.788  22.926   5.916
 3330POPC   C1A44883   9.852  22.702   6.423
 3330POPC   D2A44884   9.743  22.935   6.808
 3330POPC   C3A44885   9.870  22.785   7.218
 3330POPC   C4A44886   9.785  22.716   7.677
 3330POPC   C1B44887  10.003  23.185   6.272
 3330POPC   C2B44888  10.214  23.087   6.682
 3330POPC   C3B44889  10.109  23.224   7.087
 3330POPC   C4B44890   9.840  23.311   7.455
 3331POPC   NC344891  21.787  34.726   5.675
 3331POPC   PO444892  21.357  34.608   5.132
 3331POPC   GL144893  21.291  34.575   5.615
 3331POPC   GL244894  21.301  34.834   5.826
 3331POPC   C1A44895  21.212  34.386   6.043
 3331POPC   D2A44896  21.331  34.423   6.495
 3331POPC   C3A44897  21.235  34.254   6.886
 3331POPC   C4A44898  21.241  34.454   7.269
 3331POPC   C1B44899  21.474  34.835   6.230
 3331POPC   C2B44900  21.672  34.850   6.589
 3331POPC   C3B44901  21.446  34.759   6.921
 3331POPC   C4B44902  21.465  34.912   7.339
 3332POPC   NC344903  21.340  34.176   5.318
 3332POPC   PO444904  21.650  33.559   5.311
 3332POPC   GL144905  21.406  33.720   5.640
 3332POPC   GL244906  21.461  33.417   5.831
 3332POPC   C1A44907  21.442  33.918   6.058
 3332POPC   D2A44908  21.597  33.951   6.498
 3332POPC   C3A44909  21.497  33.818   6.923
 3332POPC   C4A44910  21.466  34.008   7.336
 3332POPC   C1B44911  21.699  33.503   6.231
 3332POPC   C2B44912  21.750  33.427   6.661
 3332POPC   C3B44913  21.786  33.430   7.088
 3332POPC   C4B44914  21.434  33.506   7.337
 3333POPC   NC344915  33.423   8.461   5.380
 3333POPC   PO444916  33.964   8.147   5.396
 3333POPC   GL144917  33.861   8.286   5.797
 3333POPC   GL244918  33.967   8.614   5.750
 3333POPC   C1A44919  33.974   8.086   6.195
 3333POPC   D2A44920  33.759   7.943   6.584
 3333POPC   C3A44921  33.736   8.181   6.970
 3333POPC   C4A44922  33.755   7.984   7.345
 3333POPC   C1B44923  34.052   8.618   6.184
 3333POPC   C2B44924  33.975   8.428   6.573
 3333POPC   C3B44925  34.202   8.429   6.904
 3333POPC   C4B44926  34.076   8.446   7.293
 3334POPC   NC344927  21.369   4.860   5.428
 3334POPC   PO444928  21.572   5.455   5.661
 3334POPC   GL144929  21.642   5.036   5.848
 3334POPC   GL244930  21.858   4.728   5.768
 3334POPC   C1A44931  21.375   4.927   6.207
 3334POPC   D2A44932  21.198   5.209   6.539
 3334POPC   C3A44933  21.229   5.069   6.965
 3334POPC   C4A44934  21.562   5.220   7.205
 3334POPC   C1B44935  21.863   4.761   6.213
 3334POPC   C2B44936  21.712   4.962   6.605
 3334POPC   C3B44937  21.661   4.765   6.993
 3334POPC   C4B44938  21.913   4.738   7.347
 3335POPC   NC344939   8.332   8.131   5.297
 3335POPC   PO444940   7.748   8.482   5.526
 3335POPC   GL144941   8.108   8.326   5.750
 3335POPC   GL244942   8.010   8.604   5.969
 3335POPC   C1A44943   8.332   7.981   5.973
 3335POPC   D2A44944   8.454   7.784   6.384
 3335POPC   C3A44945   8.337   8.066   6.733
 3335POPC   C4A44946   8.341   8.131   7.165
 3335POPC   C1B44947   7.862   8.231   6.209
 3335POPC   C2B44948   7.810   8.207   6.660
 3335POPC   C3B44949   7.861   8.232   7.087
 3335POPC   C4B44950   7.769   8.148   7.509
 3336POPC   NC344951  36.083  36.649   5.316
 3336POPC   PO444952  36.617  36.957   5.662
 3336POPC   GL144953  36.302  37.140   5.908
 3336POPC   GL244954  36.024  37.153   5.662
 3336POPC   C1A44955  36.294  37.030   6.356
 3336POPC   D2A44956  36.655  37.077   6.678
 3336POPC   C3A44957  36.546  36.988   7.079
 3336POPC   C4A44958  36.181  36.825   7.280
 3336POPC   C1B44959  35.833  36.970   6.024
 3336POPC   C2B44960  35.759  37.041   6.459
 3336POPC   C3B44961  35.891  37.068   6.875
 3336POPC   C4B44962  35.735  37.124   7.283
 3337POPC   NC344963  27.194  12.871   5.337
 3337POPC   PO444964  26.570  12.882   5.156
 3337POPC   GL144965  26.722  12.942   5.624
 3337POPC   GL244966  26.692  13.293   5.766
 3337POPC   C1A44967  27.025  12.878   6.030
 3337POPC   D2A44968  27.139  12.883   6.509
 3337POPC   C3A44969  26.926  12.898   6.891
 3337POPC   C4A44970  26.737  12.633   7.207
 3337POPC   C1B44971  26.578  13.063   6.149
 3337POPC   C2B44972  26.500  12.971   6.586
 3337POPC   C3B44973  26.442  13.028   7.017
 3337POPC   C4B44974  26.578  13.235   7.377
 3338POPC   NC344975  19.180  22.589   5.566
 3338POPC   PO444976  18.745  23.015   5.232
 3338POPC   GL144977  18.866  23.041   5.745
 3338POPC   GL244978  18.993  22.764   5.987
 3338POPC   C1A44979  19.043  23.203   6.171
 3338POPC   D2A44980  18.941  23.060   6.596
 3338POPC   C3A44981  19.015  23.058   7.035
 3338POPC   C4A44982  18.829  23.069   7.469
 3338POPC   C1B44983  19.307  22.795   6.349
 3338POPC   C2B44984  19.445  22.868   6.780
 3338POPC   C3B44985  19.315  22.608   7.126
 3338POPC   C4B44986  19.177  22.699   7.525
 3339POPC   NC344987  30.309  31.915   5.288
 3339POPC   PO444988  29.671  32.280   5.406
 3339POPC   GL144989  29.976  32.222   5.711
 3339POPC   GL244990  29.986  31.857   5.707
 3339POPC   C1A44991  30.007  32.415   6.142
 3339POPC   D2A44992  29.813  32.350   6.548
 3339POPC   C3A44993  30.021  32.415   6.939
 3339POPC   C4A44994  29.918  32.659   7.284
 3339POPC   C1B44995  29.753  31.931   6.108
 3339POPC   C2B44996  29.862  31.856   6.536
 3339POPC   C3B44997  29.694  32.025   6.932
 3339POPC   C4B44998  29.929  31.991   7.348
 3340POPC   NC344999  31.922  27.716   5.469
 3340POPC   PO445000  31.501  27.130   5.254
 3340POPC   GL145001  31.469  27.369   5.708
 3340POPC   GL245002  31.634  27.664   5.875
 3340POPC   C1A45003  31.510  27.321   6.209
 3340POPC   D2A45004  31.417  27.506   6.613
 3340POPC   C3A45005  31.147  27.503   6.963
 3340POPC   C4A45006  31.157  27.316   7.361
 3340POPC   C1B45007  31.819  27.779   6.256
 3340POPC   C2B45008  31.690  27.931   6.637
 3340POPC   C3B45009  31.558  27.793   7.059
 3340POPC   C4B45010  31.634  27.614   7.468
 3341POPC   NC345011  38.271   9.629   5.492
 3341POPC   PO445012  38.868   9.449   5.484
 3341POPC   GL145013  38.672   9.585   5.835
 3341POPC   GL245014  38.617   9.925   5.762
 3341POPC   C1A45015  38.375   9.757   6.160
 3341POPC   D2A45016  38.381   9.983   6.553
 3341POPC   C3A45017  38.462   9.738   6.920
 3341POPC   C4A45018  38.274   9.842   7.301
 3341POPC   C1B45019  38.777  10.097   6.177
 3341POPC   C2B45020  38.900  10.019   6.638
 3341POPC   C3B45021  38.728  10.153   7.064
 3341POPC   C4B45022  38.744   9.983   7.498
 3342POPC   NC345023  23.243  12.456   5.433
 3342POPC   PO445024  22.569  12.215   5.444
 3342POPC   GL145025  22.870  12.189   5.757
 3342POPC   GL245026  22.944  11.852   5.863
 3342POPC   C1A45027  22.897  12.251   6.201
 3342POPC   D2A45028  22.771  12.099   6.636
 3342POPC   C3A45029  23.061  12.239   6.967
 3342POPC   C4A45030  23.049  12.370   7.373
 3342POPC   C1B45031  22.869  11.748   6.238
 3342POPC   C2B45032  23.127  11.658   6.557
 3342POPC   C3B45033  23.005  11.707   6.938
 3342POPC   C4B45034  23.140  11.857   7.305
 3343POPC   NC345035  21.958   5.663   5.503
 3343POPC   PO445036  22.103   5.009   5.278
 3343POPC   GL145037  22.177   5.166   5.708
 3343POPC   GL245038  22.402   5.444   5.676
 3343POPC   C1A45039  22.045   5.239   6.169
 3343POPC   D2A45040  22.016   5.399   6.632
 3343POPC   C3A45041  22.042   5.144   7.038
 3343POPC   C4A45042  21.982   5.206   7.526
 3343POPC   C1B45043  22.476   5.530   6.111
 3343POPC   C2B45044  22.469   5.646   6.547
 3343POPC   C3B45045  22.439   5.463   6.949
 3343POPC   C4B45046  22.737   5.338   7.223
 3344POPC   NC345047  28.590  34.028   5.523
 3344POPC   PO445048  28.099  33.497   5.386
 3344POPC   GL145049  28.179  33.692   5.798
 3344POPC   GL245050  28.536  33.659   5.894
 3344POPC   C1A45051  28.237  33.794   6.271
 3344POPC   D2A45052  28.154  33.640   6.699
 3344POPC   C3A45053  28.223  33.935   7.053
 3344POPC   C4A45054  28.257  34.382   7.101
 3344POPC   C1B45055  28.852  33.503   6.186
 3344POPC   C2B45056  28.911  33.684   6.589
 3344POPC   C3B45057  28.850  33.584   7.023
 3344POPC   C4B45058  28.613  33.746   7.334
 3345POPC   NC345059  22.384   3.676   5.020
 3345POPC   PO445060  21.933   3.346   5.461
 3345POPC   GL145061  22.029   3.420   5.892
 3345POPC   GL245062  22.056   3.771   5.949
 3345POPC   C1A45063  22.377   3.433   6.208
 3345POPC   D2A45064  22.436   3.403   6.652
 3345POPC   C3A45065  22.118   3.626   6.910
 3345POPC   C4A45066  21.790   3.601   7.221
 3345POPC   C1B45067  22.408   3.977   6.172
 3345POPC   C2B45068  22.565   3.904   6.608
 3345POPC   C3B45069  22.610   3.696   7.034
 3345POPC   C4B45070  22.417   3.274   7.154
 3346POPC   NC345071   0.034   5.278   5.048
 3346POPC   PO445072  44.460   5.020   5.391
 3346POPC   GL145073  44.589   5.006   5.811
 3346POPC   GL245074  44.920   5.085   5.786
 3346POPC   C1A45075  44.438   4.975   6.240
 3346POPC   D2A45076  44.625   5.049   6.665
 3346POPC   C3A45077  44.525   4.791   7.013
 3346POPC   C4A45078  44.273   4.813   7.401
 3346POPC   C1B45079  44.960   4.944   6.214
 3346POPC   C2B45080   0.124   4.949   6.644
 3346POPC   C3B45081   0.011   4.909   7.100
 3346POPC   C4B45082  44.679   5.124   7.369
 3347POPC   NC345083  37.513  38.559   5.359
 3347POPC   PO445084  38.027  38.107   5.633
 3347POPC   GL145085  37.673  38.296   5.776
 3347POPC   GL245086  37.704  38.631   5.835
 3347POPC   C1A45087  37.674  38.246   6.210
 3347POPC   D2A45088  37.584  38.323   6.628
 3347POPC   C3A45089  37.855  38.570   6.902
 3347POPC   C4A45090  37.797  38.249   7.200
 3347POPC   C1B45091  37.517  38.743   6.190
 3347POPC   C2B45092  37.259  38.696   6.516
 3347POPC   C3B45093  37.352  38.665   6.921
 3347POPC   C4B45094  37.538  38.896   7.196
 3348POPC   NC345095  33.873  31.569   5.410
 3348POPC   PO445096  33.457  31.148   5.613
 3348POPC   GL145097  33.645  31.427   5.866
 3348POPC   GL245098  33.639  31.777   5.818
 3348POPC   C1A45099  33.693  31.328   6.277
 3348POPC   D2A45100  33.838  31.618   6.554
 3348POPC   C3A45101  33.751  31.448   6.965
 3348POPC   C4A45102  33.561  31.429   7.339
 3348POPC   C1B45103  34.049  31.776   6.085
 3348POPC   C2B45104  34.332  31.692   6.495
 3348POPC   C3B45105  34.221  31.632   6.962
 3348POPC   C4B45106  34.147  31.583   7.440
 3349POPC   NC345107  12.124  29.893   5.180
 3349POPC   PO445108  12.414  29.432   5.468
 3349POPC   GL145109  12.057  29.600   5.694
 3349POPC   GL245110  11.976  29.958   5.662
 3349POPC   C1A45111  12.034  29.754   6.140
 3349POPC   D2A45112  11.842  29.594   6.526
 3349POPC   C3A45113  12.104  29.753   6.862
 3349POPC   C4A45114  12.277  29.600   7.260
 3349POPC   C1B45115  11.787  30.169   6.018
 3349POPC   C2B45116  11.764  30.095   6.488
 3349POPC   C3B45117  11.784  30.129   6.972
 3349POPC   C4B45118  12.197  30.121   7.222
 3350POPC   NC345119  44.380  28.402   5.481
 3350POPC   PO445120   0.040  28.061   5.481
 3350POPC   GL145121  44.899  28.415   5.729
 3350POPC   GL245122  44.576  28.449   5.942
 3350POPC   C1A45123   0.035  28.504   6.153
 3350POPC   D2A45124  44.859  28.380   6.545
 3350POPC   C3A45125  44.825  28.660   6.883
 3350POPC   C4A45126  44.984  28.578   7.283
 3350POPC   C1B45127  44.318  28.136   6.171
 3350POPC   C2B45128  44.172  28.088   6.578
 3350POPC   C3B45129  44.350  28.321   6.868
 3350POPC   C4B45130  44.524  28.347   7.237
 3351POPC   NC345131  38.962   4.095   5.612
 3351POPC   PO445132  38.381   4.323   5.499
 3351POPC   GL145133  38.466   4.076   5.879
 3351POPC   GL245134  38.760   4.167   6.098
 3351POPC   C1A45135  38.253   4.181   6.276
 3351POPC   D2A45136  38.306   4.445   6.651
 3351POPC   C3A45137  38.340   4.245   7.057
 3351POPC   C4A45138  38.588   4.054   7.380
 3351POPC   C1B45139  38.602   4.605   6.228
 3351POPC   C2B45140  38.465   4.926   6.560
 3351POPC   C3B45141  38.427   4.821   7.018
 3351POPC   C4B45142  38.669   4.582   7.309
 3352POPC   NC345143  16.799  29.543   5.455
 3352POPC   PO445144  16.561  28.894   5.318
 3352POPC   GL145145  16.785  29.077   5.727
 3352POPC   GL245146  16.997  29.383   5.881
 3352POPC   C1A45147  16.613  29.179   6.148
 3352POPC   D2A45148  16.560  29.346   6.560
 3352POPC   C3A45149  16.810  29.135   6.845
 3352POPC   C4A45150  16.650  29.037   7.224
 3352POPC   C1B45151  17.016  29.490   6.319
 3352POPC   C2B45152  17.235  29.445   6.705
 3352POPC   C3B45153  17.011  29.566   7.054
 3352POPC   C4B45154  16.542  29.532   7.115
 3353POPC   NC345155   9.852   6.610   5.437
 3353POPC   PO445156   9.420   7.231   5.535
 3353POPC   GL145157   9.643   7.002   5.847
 3353POPC   GL245158   9.986   6.861   5.901
 3353POPC   C1A45159   9.612   6.797   6.251
 3353POPC   D2A45160   9.598   6.565   6.609
 3353POPC   C3A45161   9.668   6.709   7.008
 3353POPC   C4A45162   9.633   6.604   7.444
 3353POPC   C1B45163   9.970   6.436   6.146
 3353POPC   C2B45164   9.896   6.171   6.523
 3353POPC   C3B45165  10.007   6.245   6.950
 3353POPC   C4B45166  10.170   6.610   7.135
 3354POPC   NC345167  35.797  41.011   5.524
 3354POPC   PO445168  35.464  40.349   5.402
 3354POPC   GL145169  35.352  40.597   5.771
 3354POPC   GL245170  35.183  40.960   5.739
 3354POPC   C1A45171  35.438  40.640   6.184
 3354POPC   D2A45172  35.445  40.957   6.485
 3354POPC   C3A45173  35.424  40.827   6.893
 3354POPC   C4A45174  35.219  40.675   7.213
 3354POPC   C1B45175  34.997  40.913   6.171
 3354POPC   C2B45176  34.943  41.077   6.610
 3354POPC   C3B45177  35.088  41.175   7.076
 3354POPC   C4B45178  35.100  41.000   7.573
 3355POPC   NC345179  20.744   8.806   5.450
 3355POPC   PO445180  20.244   9.284   5.305
 3355POPC   GL145181  20.327   9.058   5.673
 3355POPC   GL245182  20.542   9.229   5.853
 3355POPC   C1A45183  20.383   8.759   6.015
 3355POPC   D2A45184  20.533   8.824   6.432
 3355POPC   C3A45185  20.583   8.733   6.858
 3355POPC   C4A45186  20.583   8.656   7.286
 3355POPC   C1B45187  20.608   9.331   6.307
 3355POPC   C2B45188  20.671   9.297   6.759
 3355POPC   C3B45189  20.522   9.162   7.173
 3355POPC   C4B45190  20.821   9.149   7.526
 3356POPC   NC345191  43.565  16.254   5.199
 3356POPC   PO445192  43.287  15.693   5.516
 3356POPC   GL145193  43.029  15.706   5.891
 3356POPC   GL245194  43.168  16.008   6.009
 3356POPC   C1A45195  42.896  15.790   6.361
 3356POPC   D2A45196  43.042  16.162   6.638
 3356POPC   C3A45197  42.917  16.209   7.098
 3356POPC   C4A45198  43.156  16.068   7.476
 3356POPC   C1B45199  43.376  15.648   6.245
 3356POPC   C2B45200  43.300  15.721   6.661
 3356POPC   C3B45201  43.236  15.825   7.036
 3356POPC   C4B45202  43.272  15.571   7.362
 3357POPC   NC345203  42.598   3.712   5.308
 3357POPC   PO445204  42.392   3.087   5.423
 3357POPC   GL145205  42.318   3.473   5.671
 3357POPC   GL245206  42.207   3.267   5.869
 3357POPC   C1A45207  42.261   3.755   6.061
 3357POPC   D2A45208  42.168   3.801   6.515
 3357POPC   C3A45209  42.352   3.909   6.925
 3357POPC   C4A45210  42.471   3.758   7.326
 3357POPC   C1B45211  42.019   3.331   6.260
 3357POPC   C2B45212  42.205   3.311   6.668
 3357POPC   C3B45213  42.167   3.432   7.089
 3357POPC   C4B45214  42.109   3.424   7.552
 3358POPC   NC345215  13.948  42.059   5.325
 3358POPC   PO445216  13.505  42.587   5.408
 3358POPC   GL145217  13.481  42.380   5.825
 3358POPC   GL245218  13.823  42.315   5.785
 3358POPC   C1A45219  13.377  42.289   6.302
 3358POPC   D2A45220  13.563  42.335   6.720
 3358POPC   C3A45221  13.384  42.136   7.094
 3358POPC   C4A45222  13.368  42.251   7.542
 3358POPC   C1B45223  13.873  42.383   6.223
 3358POPC   C2B45224  14.030  42.173   6.587
 3358POPC   C3B45225  13.881  42.023   6.982
 3358POPC   C4B45226  13.838  42.253   7.342
 3359POPC   NC345227   2.079   8.927   5.379
 3359POPC   PO445228   1.674   8.465   5.523
 3359POPC   GL145229   1.766   8.884   5.789
 3359POPC   GL245230   2.133   8.938   5.883
 3359POPC   C1A45231   1.816   9.056   6.245
 3359POPC   D2A45232   1.978   8.837   6.627
 3359POPC   C3A45233   2.072   9.110   6.969
 3359POPC   C4A45234   1.734   9.152   7.264
 3359POPC   C1B45235   2.169   8.590   6.206
 3359POPC   C2B45236   2.367   8.458   6.625
 3359POPC   C3B45237   2.233   8.622   7.030
 3359POPC   C4B45238   1.819   8.665   7.195
 3360POPC   NC345239  28.642  13.203   5.277
 3360POPC   PO445240  28.807  13.857   5.378
 3360POPC   GL145241  29.021  13.774   5.768
 3360POPC   GL245242  29.077  13.398   5.765
 3360POPC   C1A45243  29.122  13.936   6.183
 3360POPC   D2A45244  29.311  14.035   6.570
 3360POPC   C3A45245  29.198  13.714   6.825
 3360POPC   C4A45246  29.200  13.667   7.237
 3360POPC   C1B45247  28.824  13.377   6.149
 3360POPC   C2B45248  28.937  13.319   6.585
 3360POPC   C3B45249  28.773  13.390   7.014
 3360POPC   C4B45250  28.940  13.256   7.409
 3361POPC   NC345251   1.371  40.742   5.451
 3361POPC   PO445252   1.892  40.853   5.041
 3361POPC   GL145253   1.886  40.796   5.623
 3361POPC   GL245254   1.661  40.650   5.837
 3361POPC   C1A45255   2.075  40.856   6.086
 3361POPC   D2A45256   2.143  40.614   6.504
 3361POPC   C3A45257   2.025  40.784   6.930
 3361POPC   C4A45258   2.165  40.773   7.363
 3361POPC   C1B45259   1.742  40.490   6.211
 3361POPC   C2B45260   1.637  40.622   6.615
 3361POPC   C3B45261   1.545  40.574   7.034
 3361POPC   C4B45262   1.663  40.887   7.312
 3362POPC   NC345263  27.814   1.051   5.432
 3362POPC   PO445264  27.572   1.655   5.502
 3362POPC   GL145265  27.598   1.373   5.844
 3362POPC   GL245266  27.888   1.154   5.912
 3362POPC   C1A45267  27.595   1.315   6.288
 3362POPC   D2A45268  27.927   1.322   6.551
 3362POPC   C3A45269  27.709   1.413   6.896
 3362POPC   C4A45270  27.461   1.368   7.229
 3362POPC   C1B45271  27.902   0.849   6.244
 3362POPC   C2B45272  27.806   0.724   6.654
 3362POPC   C3B45273  27.644   0.839   7.056
 3362POPC   C4B45274  27.896   0.728   7.376
 3363POPC   NC345275   3.489   6.295   5.413
 3363POPC   PO445276   3.522   5.606   5.296
 3363POPC   GL145277   3.471   5.522   5.743
 3363POPC   GL245278   3.447   5.893   5.801
 3363POPC   C1A45279   3.538   5.585   6.209
 3363POPC   D2A45280   3.414   5.813   6.594
 3363POPC   C3A45281   3.508   5.643   6.999
 3363POPC   C4A45282   3.784   5.728   7.353
 3363POPC   C1B45283   3.753   6.064   6.117
 3363POPC   C2B45284   3.828   6.157   6.566
 3363POPC   C3B45285   3.673   6.140   6.999
 3363POPC   C4B45286   3.723   6.399   7.363
 3364POPC   NC345287   7.654   8.027   5.450
 3364POPC   PO445288   7.078   8.371   5.251
 3364POPC   GL145289   7.262   8.340   5.642
 3364POPC   GL245290   7.187   7.988   5.668
 3364POPC   C1A45291   7.383   8.429   6.080
 3364POPC   D2A45292   7.115   8.545   6.437
 3364POPC   C3A45293   7.289   8.481   6.826
 3364POPC   C4A45294   7.370   8.284   7.188
 3364POPC   C1B45295   7.010   8.088   6.071
 3364POPC   C2B45296   6.834   8.077   6.473
 3364POPC   C3B45297   6.997   8.054   6.857
 3364POPC   C4B45298   7.071   7.843   7.210
 3365POPC   NC345299  33.998  14.498   5.363
 3365POPC   PO445300  33.344  14.153   5.483
 3365POPC   GL145301  33.670  14.369   5.725
 3365POPC   GL245302  33.987  14.173   5.757
 3365POPC   C1A45303  33.900  14.568   6.077
 3365POPC   D2A45304  33.689  14.495   6.465
 3365POPC   C3A45305  33.813  14.598   6.893
 3365POPC   C4A45306  33.580  14.559   7.276
 3365POPC   C1B45307  33.909  14.055   6.166
 3365POPC   C2B45308  33.826  14.021   6.578
 3365POPC   C3B45309  34.037  14.113   6.911
 3365POPC   C4B45310  33.980  14.234   7.280
 3366POPC   NC345311  27.865  41.206   5.623
 3366POPC   PO445312  28.043  41.768   5.285
 3366POPC   GL145313  28.094  41.769   5.757
 3366POPC   GL245314  28.298  42.069   5.886
 3366POPC   C1A45315  28.273  41.517   6.132
 3366POPC   D2A45316  28.250  41.290   6.538
 3366POPC   C3A45317  28.421  41.483   6.916
 3366POPC   C4A45318  28.468  41.425   7.349
 3366POPC   C1B45319  28.079  41.962   6.261
 3366POPC   C2B45320  28.153  41.856   6.691
 3366POPC   C3B45321  27.971  41.861   7.108
 3366POPC   C4B45322  28.054  41.973   7.524
 3367POPC   NC345323  37.867   7.213   5.391
 3367POPC   PO445324  37.370   7.609   5.400
 3367POPC   GL145325  37.507   7.593   5.827
 3367POPC   GL245326  37.865   7.488   5.838
 3367POPC   C1A45327  37.487   7.402   6.244
 3367POPC   D2A45328  37.495   7.228   6.677
 3367POPC   C3A45329  37.494   7.510   7.031
 3367POPC   C4A45330  37.627   7.461   7.474
 3367POPC   C1B45331  37.960   7.183   6.164
 3367POPC   C2B45332  38.137   7.097   6.557
 3367POPC   C3B45333  37.993   7.317   6.898
 3367POPC   C4B45334  38.080   7.266   7.310
 3368POPC   NC345335  43.667   2.702   5.309
 3368POPC   PO445336  43.150   2.913   5.571
 3368POPC   GL145337  43.269   3.091   5.946
 3368POPC   GL245338  42.957   3.027   6.036
 3368POPC   C1A45339  43.304   2.897   6.364
 3368POPC   D2A45340  43.201   2.554   6.661
 3368POPC   C3A45341  43.335   2.742   7.048
 3368POPC   C4A45342  43.218   3.157   7.123
 3368POPC   C1B45343  42.803   2.765   6.318
 3368POPC   C2B45344  42.612   3.021   6.599
 3368POPC   C3B45345  42.501   2.919   6.987
 3368POPC   C4B45346  42.838   2.754   7.213
 3369POPC   NC345347   4.623  28.119   5.185
 3369POPC   PO445348   4.744  28.698   5.555
 3369POPC   GL145349   4.318  28.598   5.742
 3369POPC   GL245350   4.313  28.239   5.845
 3369POPC   C1A45351   4.049  28.580   6.142
 3369POPC   D2A45352   4.197  28.621   6.566
 3369POPC   C3A45353   4.206  28.531   7.023
 3369POPC   C4A45354   4.595  28.643   7.261
 3369POPC   C1B45355   4.129  28.095   6.262
 3369POPC   C2B45356   4.142  28.104   6.728
 3369POPC   C3B45357   4.437  28.089   7.095
 3369POPC   C4B45358   4.693  27.793   7.305
 3370POPC   NC345359  35.851  15.750   5.346
 3370POPC   PO445360  36.277  15.523   5.741
 3370POPC   GL145361  35.864  15.694   5.876
 3370POPC   GL245362  35.792  16.022   5.800
 3370POPC   C1A45363  35.682  15.791   6.303
 3370POPC   D2A45364  35.647  15.834   6.786
 3370POPC   C3A45365  35.959  15.677   7.071
 3370POPC   C4A45366  36.066  15.748   7.517
 3370POPC   C1B45367  36.105  16.036   6.191
 3370POPC   C2B45368  36.107  16.019   6.659
 3370POPC   C3B45369  35.974  16.197   7.083
 3370POPC   C4B45370  36.155  16.290   7.499
 3371POPC   NC345371  10.877  18.350   5.597
 3371POPC   PO445372  10.200  18.197   5.508
 3371POPC   GL145373  10.334  18.294   5.911
 3371POPC   GL245374  10.591  18.059   6.016
 3371POPC   C1A45375  10.115  18.279   6.291
 3371POPC   D2A45376  10.285  18.037   6.605
 3371POPC   C3A45377  10.430  18.318   6.868
 3371POPC   C4A45378  10.359  18.317   7.273
 3371POPC   C1B45379  10.634  18.374   6.354
 3371POPC   C2B45380  10.886  18.495   6.714
 3371POPC   C3B45381  10.791  18.595   7.156
 3371POPC   C4B45382  10.713  18.475   7.617
 3372POPC   NC345383  35.587  10.902   5.444
 3372POPC   PO445384  35.675  10.187   5.437
 3372POPC   GL145385  35.433  10.495   5.773
 3372POPC   GL245386  35.116  10.744   5.695
 3372POPC   C1A45387  35.430  10.409   6.249
 3372POPC   D2A45388  35.536  10.059   6.575
 3372POPC   C3A45389  35.623  10.222   7.023
 3372POPC   C4A45390  35.393  10.423   7.375
 3372POPC   C1B45391  35.083  10.801   6.158
 3372POPC   C2B45392  35.178  10.752   6.621
 3372POPC   C3B45393  35.034  10.577   7.043
 3372POPC   C4B45394  34.971  10.700   7.506
 3373POPC   NC345395   6.076  15.890   5.381
 3373POPC   PO445396   5.589  16.363   5.426
 3373POPC   GL145397   5.677  15.987   5.723
 3373POPC   GL245398   5.995  15.832   5.850
 3373POPC   C1A45399   5.598  15.738   6.133
 3373POPC   D2A45400   5.583  15.541   6.541
 3373POPC   C3A45401   5.558  15.854   6.886
 3373POPC   C4A45402   5.653  15.845   7.326
 3373POPC   C1B45403   6.131  15.689   6.219
 3373POPC   C2B45404   6.019  15.832   6.593
 3373POPC   C3B45405   6.059  15.761   7.004
 3373POPC   C4B45406   6.210  16.087   7.255
 3374POPC   NC345407   8.955  22.264   5.458
 3374POPC   PO445408   8.677  21.729   5.485
 3374POPC   GL145409   8.862  21.904   5.840
 3374POPC   GL245410   9.186  21.826   5.779
 3374POPC   C1A45411   8.925  21.749   6.263
 3374POPC   D2A45412   8.827  21.891   6.674
 3374POPC   C3A45413   9.181  21.980   6.908
 3374POPC   C4A45414   9.250  22.084   7.319
 3374POPC   C1B45415   9.308  22.074   6.166
 3374POPC   C2B45416   9.430  22.299   6.577
 3374POPC   C3B45417   9.357  22.490   7.004
 3374POPC   C4B45418   9.043  22.549   7.357
 3375POPC   NC345419  28.944  15.490   5.366
 3375POPC   PO445420  29.273  16.047   5.107
 3375POPC   GL145421  29.055  16.019   5.535
 3375POPC   GL245422  29.244  15.740   5.698
 3375POPC   C1A45423  28.909  16.113   6.002
 3375POPC   D2A45424  28.903  16.014   6.485
 3375POPC   C3A45425  28.914  16.310   6.861
 3375POPC   C4A45426  29.131  16.140   7.232
 3375POPC   C1B45427  29.052  15.608   6.091
 3375POPC   C2B45428  29.217  15.508   6.499
 3375POPC   C3B45429  29.149  15.680   6.904
 3375POPC   C4B45430  28.976  15.613   7.299
 3376POPC   NC345431   1.260  41.729   5.332
 3376POPC   PO445432   1.588  41.154   5.405
 3376POPC   GL145433   1.495  41.469   5.740
 3376POPC   GL245434   1.590  41.817   5.685
 3376POPC   C1A45435   1.243  41.466   6.141
 3376POPC   D2A45436   0.977  41.659   6.481
 3376POPC   C3A45437   0.947  41.447   6.882
 3376POPC   C4A45438   1.123  41.555   7.295
 3376POPC   C1B45439   1.532  41.919   6.105
 3376POPC   C2B45440   1.574  41.695   6.490
 3376POPC   C3B45441   1.452  41.632   6.902
 3376POPC   C4B45442   1.551  41.840   7.248
 3377POPC   NC345443  23.219  25.477   5.396
 3377POPC   PO445444  23.825  25.461   5.229
 3377POPC   GL145445  23.640  25.359   5.692
 3377POPC   GL245446  23.749  25.028   5.835
 3377POPC   C1A45447  23.622  25.414   6.176
 3377POPC   D2A45448  23.865  25.400   6.607
 3377POPC   C3A45449  23.669  25.327   7.035
 3377POPC   C4A45450  23.396  25.015   7.255
 3377POPC   C1B45451  23.895  24.985   6.268
 3377POPC   C2B45452  23.992  24.839   6.676
 3377POPC   C3B45453  24.035  24.957   7.124
 3377POPC   C4B45454  23.838  25.095   7.521
 3378POPC   NC345455  38.226  33.532   5.393
 3378POPC   PO445456  38.678  32.970   5.485
 3378POPC   GL145457  38.534  33.025   5.899
 3378POPC   GL245458  38.250  33.261   5.848
 3378POPC   C1A45459  38.511  32.858   6.304
 3378POPC   D2A45460  38.761  32.975   6.642
 3378POPC   C3A45461  38.640  32.830   7.049
 3378POPC   C4A45462  38.694  33.041   7.421
 3378POPC   C1B45463  38.110  33.380   6.273
 3378POPC   C2B45464  38.262  33.144   6.657
 3378POPC   C3B45465  38.193  33.097   7.094
 3378POPC   C4B45466  37.821  33.316   7.236
 3379POPC   NC345467  11.357  35.989   5.401
 3379POPC   PO445468  11.398  36.605   5.380
 3379POPC   GL145469  11.445  36.528   5.849
 3379POPC   GL245470  11.420  36.172   5.878
 3379POPC   C1A45471  11.252  36.458   6.306
 3379POPC   D2A45472  11.102  36.210   6.695
 3379POPC   C3A45473  11.276  36.367   7.089
 3379POPC   C4A45474  11.453  36.477   7.508
 3379POPC   C1B45475  11.226  35.958   6.247
 3379POPC   C2B45476  11.241  35.716   6.634
 3379POPC   C3B45477  11.204  35.834   7.068
 3379POPC   C4B45478  10.996  35.595   7.406
 3380POPC   NC345479  35.633  24.818   5.496
 3380POPC   PO445480  36.290  24.435   5.428
 3380POPC   GL145481  36.166  24.302   5.827
 3380POPC   GL245482  35.815  24.379   5.807
 3380POPC   C1A45483  36.249  24.481   6.228
 3380POPC   D2A45484  36.535  24.474   6.610
 3380POPC   C3A45485  36.377  24.468   7.024
 3380POPC   C4A45486  36.133  24.786   7.178
 3380POPC   C1B45487  35.800  24.155   6.215
 3380POPC   C2B45488  36.080  24.205   6.610
 3380POPC   C3B45489  35.918  24.230   7.007
 3380POPC   C4B45490  35.911  24.401   7.412
 3381POPC   NC345491   9.338  36.842   5.448
 3381POPC   PO445492   8.617  37.095   5.361
 3381POPC   GL145493   8.801  37.135   5.761
 3381POPC   GL245494   8.984  36.835   5.814
 3381POPC   C1A45495   8.848  37.142   6.223
 3381POPC   D2A45496   8.752  37.405   6.593
 3381POPC   C3A45497   8.804  37.193   6.999
 3381POPC   C4A45498   9.072  37.175   7.339
 3381POPC   C1B45499   9.098  36.679   6.253
 3381POPC   C2B45500   9.022  36.849   6.680
 3381POPC   C3B45501   9.149  36.720   7.112
 3381POPC   C4B45502   9.199  36.408   7.443
 3382POPC   NC345503   0.760  21.708   5.371
 3382POPC   PO445504   0.311  22.228   5.279
 3382POPC   GL145505   0.361  22.291   5.736
 3382POPC   GL245506   0.722  22.311   5.762
 3382POPC   C1A45507   0.484  22.056   6.142
 3382POPC   D2A45508   0.491  21.878   6.564
 3382POPC   C3A45509   0.461  22.145   6.952
 3382POPC   C4A45510   0.160  22.148   7.303
 3382POPC   C1B45511   0.541  22.561   6.140
 3382POPC   C2B45512   0.384  22.617   6.568
 3382POPC   C3B45513   0.619  22.653   6.965
 3382POPC   C4B45514   0.742  22.479   7.387
 3383POPC   NC345515  16.794  41.213   5.679
 3383POPC   PO445516  17.151  40.854   5.269
 3383POPC   GL145517  17.120  40.829   5.746
 3383POPC   GL245518  16.788  40.804   5.965
 3383POPC   C1A45519  17.217  40.628   6.142
 3383POPC   D2A45520  17.066  40.484   6.550
 3383POPC   C3A45521  17.145  40.636   6.976
 3383POPC   C4A45522  16.905  40.568   7.394
 3383POPC   C1B45523  16.992  41.083   6.299
 3383POPC   C2B45524  16.984  41.103   6.764
 3383POPC   C3B45525  16.773  40.986   7.142
 3383POPC   C4B45526  16.879  41.077   7.560
 3384POPC   NC345527  36.473  27.327   5.546
 3384POPC   PO445528  36.642  26.733   5.209
 3384POPC   GL145529  36.590  26.827   5.692
 3384POPC   GL245530  36.889  27.052   5.796
 3384POPC   C1A45531  36.680  26.727   6.176
 3384POPC   D2A45532  36.973  26.686   6.574
 3384POPC   C3A45533  36.763  26.641   7.004
 3384POPC   C4A45534  36.861  26.488   7.475
 3384POPC   C1B45535  37.024  27.107   6.237
 3384POPC   C2B45536  36.782  27.149   6.649
 3384POPC   C3B45537  36.969  27.093   7.042
 3384POPC   C4B45538  36.874  27.010   7.495
 3385POPC   NC345539   6.896  15.452   5.749
 3385POPC   PO445540   6.475  15.110   5.292
 3385POPC   GL145541   6.564  15.040   5.757
 3385POPC   GL245542   6.477  15.296   6.007
 3385POPC   C1A45543   6.791  14.918   6.182
 3385POPC   D2A45544   6.960  15.017   6.634
 3385POPC   C3A45545   6.653  14.987   6.988
 3385POPC   C4A45546   6.351  15.291   7.198
 3385POPC   C1B45547   6.666  15.439   6.378
 3385POPC   C2B45548   6.625  15.487   6.798
 3385POPC   C3B45549   6.900  15.399   7.148
 3385POPC   C4B45550   7.048  15.391   7.539
 3386POPC   NC345551  13.058  13.060   5.396
 3386POPC   PO445552  12.628  12.569   5.587
 3386POPC   GL145553  12.714  12.942   5.792
 3386POPC   GL245554  13.055  12.804   5.828
 3386POPC   C1A45555  12.625  13.209   6.156
 3386POPC   D2A45556  12.885  13.259   6.512
 3386POPC   C3A45557  12.996  12.881   6.786
 3386POPC   C4A45558  12.774  12.733   7.138
 3386POPC   C1B45559  12.971  12.802   6.249
 3386POPC   C2B45560  13.275  12.576   6.460
 3386POPC   C3B45561  13.253  12.424   6.860
 3386POPC   C4B45562  13.235  12.620   7.257
 3387POPC   NC345563  34.800  44.588   5.410
 3387POPC   PO445564  34.196  44.840   5.336
 3387POPC   GL145565  34.305  44.495   5.642
 3387POPC   GL245566  34.039  44.524   5.867
 3387POPC   C1A45567  34.481  44.301   6.043
 3387POPC   D2A45568  34.401  44.244   6.511
 3387POPC   C3A45569  34.520  44.479   6.874
 3387POPC   C4A45570  34.717  44.503   7.287
 3387POPC   C1B45571  34.234  44.701   6.261
 3387POPC   C2B45572  34.386  44.921   6.645
 3387POPC   C3B45573  34.455  44.948   7.104
 3387POPC   C4B45574  34.347  44.743   7.511
 3388POPC   NC345575  21.626   3.726   5.428
 3388POPC   PO445576  20.956   3.625   5.425
 3388POPC   GL145577  21.213   3.544   5.772
 3388POPC   GL245578  21.513   3.336   5.774
 3388POPC   C1A45579  21.261   3.618   6.212
 3388POPC   D2A45580  21.055   3.621   6.618
 3388POPC   C3A45581  21.311   3.569   7.026
 3388POPC   C4A45582  21.293   3.562   7.513
 3388POPC   C1B45583  21.683   3.313   6.225
 3388POPC   C2B45584  21.969   3.195   6.555
 3388POPC   C3B45585  21.911   3.124   6.990
 3388POPC   C4B45586  21.588   3.148   7.317
 3389POPC   NC345587  39.587  24.396   5.466
 3389POPC   PO445588  40.188  24.741   5.471
 3389POPC   GL145589  40.026  24.552   5.813
 3389POPC   GL245590  39.730  24.716   5.872
 3389POPC   C1A45591  40.179  24.577   6.239
 3389POPC   D2A45592  40.371  24.517   6.647
 3389POPC   C3A45593  40.149  24.565   7.038
 3389POPC   C4A45594  40.111  24.329   7.432
 3389POPC   C1B45595  39.709  24.374   6.209
 3389POPC   C2B45596  39.842  24.421   6.657
 3389POPC   C3B45597  39.671  24.368   7.114
 3389POPC   C4B45598  39.629  24.436   7.614
 3390POPC   NC345599  38.082  21.603   5.486
 3390POPC   PO445600  37.480  21.482   5.250
 3390POPC   GL145601  37.584  21.485   5.716
 3390POPC   GL245602  37.406  21.796   5.819
 3390POPC   C1A45603  37.693  21.451   6.193
 3390POPC   D2A45604  37.569  21.409   6.681
 3390POPC   C3A45605  37.814  21.258   7.076
 3390POPC   C4A45606  38.015  21.353   7.501
 3390POPC   C1B45607  37.235  21.677   6.277
 3390POPC   C2B45608  37.163  21.725   6.753
 3390POPC   C3B45609  37.284  21.446   7.123
 3390POPC   C4B45610  37.524  21.473   7.511
 3391POPC   NC345611  29.529  12.558   5.050
 3391POPC   PO445612  28.970  12.883   5.217
 3391POPC   GL145613  29.002  12.884   5.679
 3391POPC   GL245614  29.307  12.711   5.766
 3391POPC   C1A45615  29.145  12.998   6.133
 3391POPC   D2A45616  29.224  12.859   6.551
 3391POPC   C3A45617  29.148  13.017   6.956
 3391POPC   C4A45618  29.418  13.205   7.205
 3391POPC   C1B45619  29.504  12.615   6.191
 3391POPC   C2B45620  29.550  12.458   6.673
 3391POPC   C3B45621  29.593  12.579   7.147
 3391POPC   C4B45622  29.665  12.644   7.646
 3392POPC   NC345623   9.613  40.663   5.552
 3392POPC   PO445624  10.180  41.016   5.431
 3392POPC   GL145625  10.032  40.837   5.826
 3392POPC   GL245626  10.041  40.472   5.851
 3392POPC   C1A45627   9.837  41.024   6.206
 3392POPC   D2A45628   9.913  41.242   6.587
 3392POPC   C3A45629   9.748  41.109   6.980
 3392POPC   C4A45630   9.960  40.891   7.293
 3392POPC   C1B45631   9.854  40.526   6.235
 3392POPC   C2B45632   9.803  40.710   6.655
 3392POPC   C3B45633   9.777  40.448   7.042
 3392POPC   C4B45634   9.765  40.438   7.495
 3393POPC   NC345635  26.108  27.780   5.485
 3393POPC   PO445636  25.770  27.210   5.472
 3393POPC   GL145637  25.880  27.418   5.815
 3393POPC   GL245638  26.244  27.430   5.875
 3393POPC   C1A45639  25.869  27.654   6.186
 3393POPC   D2A45640  25.932  27.917   6.546
 3393POPC   C3A45641  25.851  27.965   6.975
 3393POPC   C4A45642  26.057  27.874   7.358
 3393POPC   C1B45643  26.185  27.275   6.289
 3393POPC   C2B45644  26.020  27.402   6.665
 3393POPC   C3B45645  25.992  27.426   7.098
 3393POPC   C4B45646  25.880  27.332   7.517
 3394POPC   NC345647  44.052   5.340   5.225
 3394POPC   PO445648  43.441   5.433   5.478
 3394POPC   GL145649  43.769   5.176   5.698
 3394POPC   GL245650  44.137   5.260   5.729
 3394POPC   C1A45651  43.900   4.920   6.079
 3394POPC   D2A45652  43.941   4.738   6.506
 3394POPC   C3A45653  43.762   5.001   6.838
 3394POPC   C4A45654  43.782   4.900   7.258
 3394POPC   C1B45655  44.111   5.388   6.165
 3394POPC   C2B45656  44.157   5.236   6.593
 3394POPC   C3B45657  44.206   5.179   7.038
 3394POPC   C4B45658  44.101   5.331   7.447
 3395POPC   NC345659  30.506  42.003   5.419
 3395POPC   PO445660  30.066  42.603   5.478
 3395POPC   GL145661  29.922  42.604   5.878
 3395POPC   GL245662  30.189  42.822   5.952
 3395POPC   C1A45663  29.737  42.358   6.264
 3395POPC   D2A45664  29.848  42.052   6.597
 3395POPC   C3A45665  30.010  42.148   7.035
 3395POPC   C4A45666  30.030  42.094   7.531
 3395POPC   C1B45667  30.236  42.554   6.324
 3395POPC   C2B45668  30.322  42.467   6.768
 3395POPC   C3B45669  30.148  42.673   7.126
 3395POPC   C4B45670  30.079  42.617   7.563
 3396POPC   NC345671  30.700  22.650   5.398
 3396POPC   PO445672  30.407  23.240   5.600
 3396POPC   GL145673  30.568  22.926   5.851
 3396POPC   GL245674  30.919  22.922   5.785
 3396POPC   C1A45675  30.429  22.831   6.256
 3396POPC   D2A45676  30.550  22.671   6.641
 3396POPC   C3A45677  30.544  22.942   6.974
 3396POPC   C4A45678  30.405  23.219   7.255
 3396POPC   C1B45679  30.965  22.780   6.203
 3396POPC   C2B45680  31.050  22.575   6.623
 3396POPC   C3B45681  30.946  22.647   7.036
 3396POPC   C4B45682  30.966  22.987   7.321
 3397POPC   NC345683   9.351   7.684   5.683
 3397POPC   PO445684   8.704   7.793   5.394
 3397POPC   GL145685   8.713   7.433   5.722
 3397POPC   GL245686   9.027   7.314   5.867
 3397POPC   C1A45687   8.606   7.308   6.164
 3397POPC   D2A45688   8.703   7.179   6.612
 3397POPC   C3A45689   8.535   7.495   6.875
 3397POPC   C4A45690   8.655   7.757   7.200
 3397POPC   C1B45691   9.331   7.253   6.223
 3397POPC   C2B45692   9.471   7.101   6.638
 3397POPC   C3B45693   9.214   7.024   7.004
 3397POPC   C4B45694   8.899   7.295   7.212
 3398POPC   NC345695  31.232  10.130   5.402
 3398POPC   PO445696  31.209  10.855   5.226
 3398POPC   GL145697  31.299  10.603   5.714
 3398POPC   GL245698  31.490  10.314   5.817
 3398POPC   C1A45699  31.162  10.539   6.149
 3398POPC   D2A45700  31.267  10.697   6.574
 3398POPC   C3A45701  31.237  10.444   6.963
 3398POPC   C4A45702  31.216  10.487   7.439
 3398POPC   C1B45703  31.651  10.657   6.128
 3398POPC   C2B45704  31.755  10.884   6.536
 3398POPC   C3B45705  31.643  10.806   6.958
 3398POPC   C4B45706  31.668  10.468   7.226
 3399POPC   NC345707   2.131  16.178   5.106
 3399POPC   PO445708   1.948  15.671   5.399
 3399POPC   GL145709   2.014  16.011   5.707
 3399POPC   GL245710   1.690  16.166   5.836
 3399POPC   C1A45711   2.081  16.146   6.172
 3399POPC   D2A45712   1.898  16.246   6.590
 3399POPC   C3A45713   2.148  16.227   6.999
 3399POPC   C4A45714   2.110  15.941   7.368
 3399POPC   C1B45715   1.477  16.122   6.244
 3399POPC   C2B45716   1.386  16.183   6.701
 3399POPC   C3B45717   1.679  15.987   6.995
 3399POPC   C4B45718   1.698  15.603   7.226
 3400POPC   NC345719  20.363  28.507   5.360
 3400POPC   PO445720  20.805  27.970   5.343
 3400POPC   GL145721  20.760  28.279   5.684
 3400POPC   GL245722  20.410  28.185   5.774
 3400POPC   C1A45723  20.727  28.433   6.152
 3400POPC   D2A45724  20.722  28.707   6.557
 3400POPC   C3A45725  20.967  28.550   6.919
 3400POPC   C4A45726  20.839  28.168   7.160
 3400POPC   C1B45727  20.216  28.523   6.017
 3400POPC   C2B45728  20.227  28.726   6.396
 3400POPC   C3B45729  20.185  28.706   6.824
 3400POPC   C4B45730  20.472  28.519   7.072
 3401POPC   NC345731  39.295  44.378   5.149
 3401POPC   PO445732  39.460   0.038   5.325
 3401POPC   GL145733  39.476  44.728   5.676
 3401POPC   GL245734  39.142  44.618   5.638
 3401POPC   C1A45735  39.305  44.819   6.114
 3401POPC   D2A45736  39.166  44.829   6.553
 3401POPC   C3A45737  39.513  44.710   6.837
 3401POPC   C4A45738  39.639  44.694   7.269
 3401POPC   C1B45739  38.959  44.416   6.016
 3401POPC   C2B45740  38.911  44.380   6.467
 3401POPC   C3B45741  39.067  44.447   6.882
 3401POPC   C4B45742  38.909  44.453   7.267
 3402POPC   NC345743  35.316  22.084   5.197
 3402POPC   PO445744  34.962  22.529   5.477
 3402POPC   GL145745  35.267  22.349   5.790
 3402POPC   GL245746  35.338  21.989   5.732
 3402POPC   C1A45747  35.342  22.326   6.249
 3402POPC   D2A45748  35.107  22.125   6.574
 3402POPC   C3A45749  35.246  22.076   6.972
 3402POPC   C4A45750  35.409  22.413   7.225
 3402POPC   C1B45751  35.662  21.968   6.054
 3402POPC   C2B45752  35.755  21.913   6.505
 3402POPC   C3B45753  35.739  22.147   6.914
 3402POPC   C4B45754  35.730  22.026   7.372
 3403POPC   NC345755  25.064  28.553   5.182
 3403POPC   PO445756  25.639  28.362   5.213
 3403POPC   GL145757  25.339  28.483   5.597
 3403POPC   GL245758  25.171  28.210   5.795
 3403POPC   C1A45759  25.226  28.679   6.030
 3403POPC   D2A45760  25.461  28.673   6.444
 3403POPC   C3A45761  25.256  28.639   6.877
 3403POPC   C4A45762  24.926  28.414   7.140
 3403POPC   C1B45763  25.332  28.189   6.220
 3403POPC   C2B45764  25.482  28.194   6.655
 3403POPC   C3B45765  25.352  28.139   7.065
 3403POPC   C4B45766  25.280  28.024   7.476
 3404POPC   NC345767   3.171  35.208   5.153
 3404POPC   PO445768   2.591  35.372   5.468
 3404POPC   GL145769   2.856  35.417   5.845
 3404POPC   GL245770   3.137  35.196   5.779
 3404POPC   C1A45771   2.760  35.570   6.281
 3404POPC   D2A45772   2.808  35.326   6.632
 3404POPC   C3A45773   2.757  35.442   7.011
 3404POPC   C4A45774   2.629  35.333   7.384
 3404POPC   C1B45775   3.038  35.057   6.241
 3404POPC   C2B45776   3.108  34.907   6.701
 3404POPC   C3B45777   3.032  35.020   7.157
 3404POPC   C4B45778   2.996  35.049   7.627
 3405POPC   NC345779  31.553  25.978   5.061
 3405POPC   PO445780  31.232  25.874   5.620
 3405POPC   GL145781  31.403  25.781   5.950
 3405POPC   GL245782  31.501  26.139   5.954
 3405POPC   C1A45783  31.569  25.821   6.336
 3405POPC   D2A45784  31.512  26.155   6.602
 3405POPC   C3A45785  31.490  25.888   6.946
 3405POPC   C4A45786  31.702  25.840   7.310
 3405POPC   C1B45787  31.401  26.473   6.227
 3405POPC   C2B45788  31.143  26.501   6.594
 3405POPC   C3B45789  31.372  26.471   6.967
 3405POPC   C4B45790  31.331  26.235   7.309
 3406POPC   NC345791  17.763  25.581   5.428
 3406POPC   PO445792  17.451  25.017   5.471
 3406POPC   GL145793  17.628  25.254   5.802
 3406POPC   GL245794  17.418  25.525   5.814
 3406POPC   C1A45795  17.734  25.466   6.202
 3406POPC   D2A45796  17.959  25.488   6.582
 3406POPC   C3A45797  17.709  25.422   6.959
 3406POPC   C4A45798  17.763  25.128   7.321
 3406POPC   C1B45799  17.243  25.262   6.138
 3406POPC   C2B45800  17.374  25.290   6.547
 3406POPC   C3B45801  17.194  25.440   6.897
 3406POPC   C4B45802  17.301  25.374   7.294
 3407POPC   NC345803  21.348  26.275   5.548
 3407POPC   PO445804  21.592  25.666   5.374
 3407POPC   GL145805  21.476  25.821   5.757
 3407POPC   GL245806  21.146  25.888   5.875
 3407POPC   C1A45807  21.554  25.953   6.181
 3407POPC   D2A45808  21.721  26.100   6.583
 3407POPC   C3A45809  21.607  26.108   7.042
 3407POPC   C4A45810  21.697  25.955   7.455
 3407POPC   C1B45811  21.176  26.311   6.146
 3407POPC   C2B45812  21.008  26.540   6.474
 3407POPC   C3B45813  20.948  26.318   6.859
 3407POPC   C4B45814  21.113  26.171   7.268
 3408POPC   NC345815   2.550  23.216   5.033
 3408POPC   PO445816   2.774  22.582   5.414
 3408POPC   GL145817   2.555  22.839   5.666
 3408POPC   GL245818   2.436  22.584   5.901
 3408POPC   C1A45819   2.385  23.116   5.980
 3408POPC   D2A45820   2.375  23.188   6.430
 3408POPC   C3A45821   2.625  23.012   6.766
 3408POPC   C4A45822   2.512  23.032   7.210
 3408POPC   C1B45823   2.654  22.748   6.287
 3408POPC   C2B45824   2.906  22.580   6.668
 3408POPC   C3B45825   2.903  22.598   7.155
 3408POPC   C4B45826   3.121  22.667   7.568
 3409POPC   NC345827   8.380  36.715   5.257
 3409POPC   PO445828   7.751  36.858   5.433
 3409POPC   GL145829   7.996  36.922   5.829
 3409POPC   GL245830   8.334  36.891   5.758
 3409POPC   C1A45831   7.964  36.720   6.240
 3409POPC   D2A45832   8.039  36.568   6.658
 3409POPC   C3A45833   7.815  36.687   7.014
 3409POPC   C4A45834   7.803  37.082   7.175
 3409POPC   C1B45835   8.343  37.070   6.193
 3409POPC   C2B45836   8.167  37.127   6.609
 3409POPC   C3B45837   8.278  36.958   7.001
 3409POPC   C4B45838   8.517  36.984   7.375
 3410POPC   NC345839  17.915   6.470   5.649
 3410POPC   PO445840  17.359   6.947   5.363
 3410POPC   GL145841  17.497   6.910   5.820
 3410POPC   GL245842  17.639   6.633   6.052
 3410POPC   C1A45843  17.223   6.885   6.200
 3410POPC   D2A45844  17.095   6.746   6.642
 3410POPC   C3A45845  17.431   6.640   6.960
 3410POPC   C4A45846  17.426   6.840   7.369
 3410POPC   C1B45847  17.824   6.243   6.241
 3410POPC   C2B45848  17.734   6.060   6.637
 3410POPC   C3B45849  17.532   6.120   7.034
 3410POPC   C4B45850  17.576   6.362   7.413
 3411POPC   NC345851  29.491  27.129   5.455
 3411POPC   PO445852  30.048  26.847   5.512
 3411POPC   GL145853  29.796  26.877   5.860
 3411POPC   GL245854  29.493  26.670   5.774
 3411POPC   C1A45855  29.947  26.863   6.301
 3411POPC   D2A45856  30.225  26.706   6.638
 3411POPC   C3A45857  30.098  26.878   7.049
 3411POPC   C4A45858  30.116  26.850   7.498
 3411POPC   C1B45859  29.429  26.801   6.207
 3411POPC   C2B45860  29.536  27.059   6.575
 3411POPC   C3B45861  29.587  26.887   6.990
 3411POPC   C4B45862  29.707  26.616   7.337
 3412POPC   NC345863   5.387  39.101   5.293
 3412POPC   PO445864   4.783  39.466   5.282
 3412POPC   GL145865   5.065  39.357   5.596
 3412POPC   GL245866   4.911  39.056   5.661
 3412POPC   C1A45867   5.277  39.213   5.978
 3412POPC   D2A45868   5.212  39.134   6.424
 3412POPC   C3A45869   5.332  39.226   6.861
 3412POPC   C4A45870   5.165  39.266   7.278
 3412POPC   C1B45871   4.825  38.964   6.097
 3412POPC   C2B45872   4.852  38.757   6.486
 3412POPC   C3B45873   4.932  38.890   6.905
 3412POPC   C4B45874   4.873  38.861   7.343
 3413POPC   NC345875   4.527  21.690   5.426
 3413POPC   PO445876   4.241  21.024   5.430
 3413POPC   GL145877   4.262  21.274   5.774
 3413POPC   GL245878   4.580  21.192   5.803
 3413POPC   C1A45879   4.063  21.283   6.185
 3413POPC   D2A45880   4.042  21.018   6.566
 3413POPC   C3A45881   4.129  21.273   6.920
 3413POPC   C4A45882   4.014  21.272   7.305
 3413POPC   C1B45883   4.599  21.386   6.202
 3413POPC   C2B45884   4.601  21.295   6.645
 3413POPC   C3B45885   4.561  21.508   7.068
 3413POPC   C4B45886   4.485  21.393   7.512
 3414POPC   NC345887   8.493  11.767   5.409
 3414POPC   PO445888   7.834  11.975   5.375
 3414POPC   GL145889   8.049  12.193   5.768
 3414POPC   GL245890   8.331  12.419   5.753
 3414POPC   C1A45891   8.140  12.259   6.222
 3414POPC   D2A45892   8.455  12.045   6.480
 3414POPC   C3A45893   8.401  11.934   6.882
 3414POPC   C4A45894   8.153  12.053   7.221
 3414POPC   C1B45895   8.608  12.375   6.104
 3414POPC   C2B45896   8.517  12.576   6.518
 3414POPC   C3B45897   8.416  12.455   6.953
 3414POPC   C4B45898   8.679  12.187   7.262
 3415POPC   NC345899   0.994  18.479   5.353
 3415POPC   PO445900   0.880  17.938   5.643
 3415POPC   GL145901   0.990  18.266   5.914
 3415POPC   GL245902   1.323  18.249   5.902
 3415POPC   C1A45903   1.162  18.482   6.321
 3415POPC   D2A45904   1.323  18.646   6.720
 3415POPC   C3A45905   1.035  18.531   7.098
 3415POPC   C4A45906   0.879  18.215   7.422
 3415POPC   C1B45907   1.222  17.962   6.265
 3415POPC   C2B45908   1.229  17.980   6.715
 3415POPC   C3B45909   1.449  18.244   6.996
 3415POPC   C4B45910   1.364  18.342   7.451
 3416POPC   NC345911  33.329  40.219   5.500
 3416POPC   PO445912  33.176  39.549   5.434
 3416POPC   GL145913  33.165  39.778   5.840
 3416POPC   GL245914  32.991  40.094   5.881
 3416POPC   C1A45915  32.938  39.695   6.247
 3416POPC   D2A45916  32.988  39.603   6.697
 3416POPC   C3A45917  33.011  39.993   6.927
 3416POPC   C4A45918  33.179  40.074   7.313
 3416POPC   C1B45919  33.114  40.177   6.326
 3416POPC   C2B45920  32.855  40.397   6.621
 3416POPC   C3B45921  32.533  40.230   6.908
 3416POPC   C4B45922  32.664  40.218   7.359
 3417POPC   NC345923   9.371  24.556   5.430
 3417POPC   PO445924   8.860  24.451   5.582
 3417POPC   GL145925   9.185  24.508   5.906
 3417POPC   GL245926   9.409  24.237   5.859
 3417POPC   C1A45927   9.298  24.643   6.333
 3417POPC   D2A45928   9.154  24.471   6.726
 3417POPC   C3A45929   9.089  24.657   7.132
 3417POPC   C4A45930   9.023  24.737   7.596
 3417POPC   C1B45931   9.252  24.135   6.287
 3417POPC   C2B45932   9.213  23.966   6.719
 3417POPC   C3B45933   9.289  24.149   7.107
 3417POPC   C4B45934   9.238  24.020   7.527
 3418POPC   NC345935  39.295  27.297   5.101
 3418POPC   PO445936  39.069  26.695   5.187
 3418POPC   GL145937  39.110  26.700   5.661
 3418POPC   GL245938  39.012  27.038   5.783
 3418POPC   C1A45939  39.138  26.621   6.132
 3418POPC   D2A45940  39.410  26.689   6.518
 3418POPC   C3A45941  39.233  26.674   6.936
 3418POPC   C4A45942  39.490  26.831   7.275
 3418POPC   C1B45943  39.284  27.120   6.150
 3418POPC   C2B45944  39.168  27.124   6.574
 3418POPC   C3B45945  39.227  27.197   6.991
 3418POPC   C4B45946  39.057  27.098   7.386
 3419POPC   NC345947  15.453  17.324   5.376
 3419POPC   PO445948  14.953  17.765   5.160
 3419POPC   GL145949  14.889  17.500   5.620
 3419POPC   GL245950  15.091  17.208   5.761
 3419POPC   C1A45951  14.753  17.467   6.098
 3419POPC   D2A45952  15.017  17.577   6.474
 3419POPC   C3A45953  14.939  17.536   6.915
 3419POPC   C4A45954  15.064  17.808   7.279
 3419POPC   C1B45955  15.121  17.143   6.232
 3419POPC   C2B45956  15.188  17.129   6.684
 3419POPC   C3B45957  15.258  17.202   7.144
 3419POPC   C4B45958  15.401  17.175   7.584
 3420POPC   NC345959  24.914  31.993   5.513
 3420POPC   PO445960  25.270  32.508   5.226
 3420POPC   GL145961  25.158  32.478   5.722
 3420POPC   GL245962  25.471  32.407   5.937
 3420POPC   C1A45963  25.046  32.382   6.197
 3420POPC   D2A45964  25.092  32.073   6.548
 3420POPC   C3A45965  24.974  32.277   6.908
 3420POPC   C4A45966  25.169  32.348   7.282
 3420POPC   C1B45967  25.515  32.312   6.379
 3420POPC   C2B45968  25.514  32.304   6.837
 3420POPC   C3B45969  25.515  32.668   7.118
 3420POPC   C4B45970  25.488  32.610   7.575
 3421POPC   NC345971  14.017  12.810   5.261
 3421POPC   PO445972  13.380  12.591   5.423
 3421POPC   GL145973  13.575  12.801   5.749
 3421POPC   GL245974  13.807  13.056   5.698
 3421POPC   C1A45975  13.467  12.976   6.131
 3421POPC   D2A45976  13.384  13.089   6.531
 3421POPC   C3A45977  13.483  12.907   6.910
 3421POPC   C4A45978  13.430  13.097   7.302
 3421POPC   C1B45979  13.981  13.018   6.125
 3421POPC   C2B45980  13.910  13.194   6.530
 3421POPC   C3B45981  13.984  13.010   6.914
 3421POPC   C4B45982  13.929  13.083   7.331
 3422POPC   NC345983   1.915  42.255   5.275
 3422POPC   PO445984   2.053  42.738   5.732
 3422POPC   GL145985   2.080  42.305   5.802
 3422POPC   GL245986   1.734  42.296   5.752
 3422POPC   C1A45987   2.090  42.139   6.237
 3422POPC   D2A45988   2.146  42.398   6.646
 3422POPC   C3A45989   2.209  42.217   7.054
 3422POPC   C4A45990   2.313  42.313   7.498
 3422POPC   C1B45991   1.622  42.432   6.161
 3422POPC   C2B45992   1.642  42.218   6.552
 3422POPC   C3B45993   1.690  42.254   6.988
 3422POPC   C4B45994   1.821  42.248   7.426
 3423POPC   NC345995  13.735   5.231   5.582
 3423POPC   PO445996  13.384   4.741   5.432
 3423POPC   GL145997  13.399   4.938   5.861
 3423POPC   GL245998  13.494   5.265   6.036
 3423POPC   C1A45999  13.564   4.789   6.257
 3423POPC   D2A46000  13.711   5.077   6.560
 3423POPC   C3A46001  13.448   5.131   6.914
 3423POPC   C4A46002  13.569   4.919   7.289
 3423POPC   C1B46003  13.939   5.364   6.189
 3423POPC   C2B46004  14.071   5.506   6.602
 3423POPC   C3B46005  13.916   5.348   6.952
 3423POPC   C4B46006  13.956   5.265   7.355
 3424POPC   NC346007   4.393  39.790   5.438
 3424POPC   PO446008   4.139  40.465   5.380
 3424POPC   GL146009   4.226  40.174   5.758
 3424POPC   GL246010   3.995  39.903   5.770
 3424POPC   C1A46011   4.398  39.850   6.102
 3424POPC   D2A46012   4.597  39.748   6.522
 3424POPC   C3A46013   4.379  39.709   6.934
 3424POPC   C4A46014   4.515  40.014   7.198
 3424POPC   C1B46015   3.807  39.972   6.173
 3424POPC   C2B46016   3.733  40.018   6.628
 3424POPC   C3B46017   4.027  40.091   6.995
 3424POPC   C4B46018   4.059  40.074   7.458
 3425POPC   NC346019  28.749  25.274   5.422
 3425POPC   PO446020  28.037  25.584   5.336
 3425POPC   GL146021  28.185  25.441   5.742
 3425POPC   GL246022  28.512  25.588   5.748
 3425POPC   C1A46023  28.234  25.483   6.222
 3425POPC   D2A46024  28.364  25.526   6.684
 3425POPC   C3A46025  28.412  25.149   6.982
 3425POPC   C4A46026  28.193  25.058   7.396
 3425POPC   C1B46027  28.737  25.555   6.138
 3425POPC   C2B46028  28.849  25.698   6.555
 3425POPC   C3B46029  28.809  25.492   6.953
 3425POPC   C4B46030  28.537  25.548   7.272
 3426POPC   NC346031  37.368  44.907   5.265
 3426POPC   PO446032  37.982  44.578   5.283
 3426POPC   GL146033  37.683  44.647   5.615
 3426POPC   GL246034  37.694  44.922   5.829
 3426POPC   C1A46035  37.616  44.445   6.029
 3426POPC   D2A46036  37.863  44.383   6.419
 3426POPC   C3A46037  37.682  44.387   6.840
 3426POPC   C4A46038  37.792  44.523   7.248
 3426POPC   C1B46039  37.438  44.945   6.177
 3426POPC   C2B46040  37.266  44.927   6.585
 3426POPC   C3B46041  37.529  44.860   6.939
 3426POPC   C4B46042  37.571  44.994   7.334
 3427POPC   NC346043  34.149  10.416   5.471
 3427POPC   PO446044  33.480  10.535   5.552
 3427POPC   GL146045  33.542  10.545   6.006
 3427POPC   GL246046  33.880  10.398   5.904
 3427POPC   C1A46047  33.595  10.779   6.453
 3427POPC   D2A46048  33.952  10.816   6.734
 3427POPC   C3A46049  33.736  10.738   7.091
 3427POPC   C4A46050  33.575  10.366   7.207
 3427POPC   C1B46051  33.928  10.439   6.324
 3427POPC   C2B46052  33.765  10.353   6.721
 3427POPC   C3B46053  34.069  10.364   7.038
 3427POPC   C4B46054  34.119  10.431   7.472
 3428POPC   NC346055  25.793  42.250   5.242
 3428POPC   PO446056  26.431  42.260   5.257
 3428POPC   GL146057  26.129  42.384   5.591
 3428POPC   GL246058  26.002  42.077   5.710
 3428POPC   C1A46059  26.099  42.500   6.026
 3428POPC   D2A46060  26.008  42.462   6.466
 3428POPC   C3A46061  26.247  42.695   6.785
 3428POPC   C4A46062  25.948  42.689   7.102
 3428POPC   C1B46063  25.917  42.025   6.150
 3428POPC   C2B46064  25.786  41.851   6.537
 3428POPC   C3B46065  25.640  42.066   6.909
 3428POPC   C4B46066  25.867  42.204   7.249
 3429POPC   NC346067  14.791  11.160   5.495
 3429POPC   PO446068  14.130  11.493   5.497
 3429POPC   GL146069  14.368  11.297   5.824
 3429POPC   GL246070  14.665  11.461   5.894
 3429POPC   C1A46071  14.323  11.178   6.263
 3429POPC   D2A46072  14.086  11.137   6.645
 3429POPC   C3A46073  14.280  11.184   7.022
 3429POPC   C4A46074  14.355  11.025   7.385
 3429POPC   C1B46075  14.527  11.635   6.269
 3429POPC   C2B46076  14.429  11.547   6.692
 3429POPC   C3B46077  14.414  11.684   7.128
 3429POPC   C4B46078  14.588  11.476   7.511
 3430POPC   NC346079  38.831   6.204   5.443
 3430POPC   PO446080  39.404   5.746   5.362
 3430POPC   GL146081  39.206   5.932   5.699
 3430POPC   GL246082  39.132   5.604   5.806
 3430POPC   C1A46083  39.207   6.002   6.161
 3430POPC   D2A46084  39.355   6.147   6.581
 3430POPC   C3A46085  39.179   5.955   6.962
 3430POPC   C4A46086  38.902   6.148   7.246
 3430POPC   C1B46087  39.079   5.499   6.234
 3430POPC   C2B46088  39.268   5.534   6.651
 3430POPC   C3B46089  39.110   5.431   7.062
 3430POPC   C4B46090  39.146   5.535   7.507
 3431POPC   NC346091   1.912  36.601   4.876
 3431POPC   PO446092   2.203  36.998   5.344
 3431POPC   GL146093   2.070  37.051   5.781
 3431POPC   GL246094   1.832  36.781   5.813
 3431POPC   C1A46095   2.198  37.087   6.221
 3431POPC   D2A46096   2.364  37.005   6.627
 3431POPC   C3A46097   2.169  37.040   7.007
 3431POPC   C4A46098   2.198  37.104   7.452
 3431POPC   C1B46099   1.705  37.006   6.195
 3431POPC   C2B46100   1.829  37.033   6.601
 3431POPC   C3B46101   1.623  37.020   6.970
 3431POPC   C4B46102   1.796  36.851   7.303
 3432POPC   NC346103  18.099   1.295   5.185
 3432POPC   PO446104  18.448   0.946   5.623
 3432POPC   GL146105  18.320   1.187   5.945
 3432POPC   GL246106  18.644   1.408   5.921
 3432POPC   C1A46107  17.964   1.083   6.239
 3432POPC   D2A46108  17.864   1.193   6.668
 3432POPC   C3A46109  18.256   1.305   6.895
 3432POPC   C4A46110  18.458   1.412   7.269
 3432POPC   C1B46111  18.762   1.027   6.197
 3432POPC   C2B46112  18.589   0.813   6.552
 3432POPC   C3B46113  18.732   0.708   6.944
 3432POPC   C4B46114  18.837   1.012   7.257
 3433POPC   NC346115  25.803   2.903   5.405
 3433POPC   PO446116  26.228   2.418   5.260
 3433POPC   GL146117  26.077   2.548   5.696
 3433POPC   GL246118  25.719   2.597   5.814
 3433POPC   C1A46119  26.155   2.510   6.156
 3433POPC   D2A46120  26.077   2.562   6.609
 3433POPC   C3A46121  26.315   2.783   6.919
 3433POPC   C4A46122  26.241   2.469   7.230
 3433POPC   C1B46123  25.870   2.946   6.122
 3433POPC   C2B46124  25.938   3.057   6.578
 3433POPC   C3B46125  25.812   2.899   7.027
 3433POPC   C4B46126  25.609   3.095   7.418
 3434POPC   NC346127  16.118  30.987   5.359
 3434POPC   PO446128  15.717  30.413   5.509
 3434POPC   GL146129  15.957  30.697   5.755
 3434POPC   GL246130  15.842  31.050   5.797
 3434POPC   C1A46131  16.219  30.609   6.142
 3434POPC   D2A46132  16.357  30.637   6.581
 3434POPC   C3A46133  16.057  30.660   6.927
 3434POPC   C4A46134  16.020  30.879   7.290
 3434POPC   C1B46135  15.787  30.867   6.196
 3434POPC   C2B46136  15.818  30.539   6.483
 3434POPC   C3B46137  15.590  30.433   6.845
 3434POPC   C4B46138  15.621  30.553   7.256
 3435POPC   NC346139  22.874  41.346   5.440
 3435POPC   PO446140  22.504  41.926   5.252
 3435POPC   GL146141  22.833  41.856   5.620
 3435POPC   GL246142  23.173  41.996   5.725
 3435POPC   C1A46143  22.989  41.624   6.017
 3435POPC   D2A46144  23.034  41.610   6.459
 3435POPC   C3A46145  22.746  41.438   6.760
 3435POPC   C4A46146  22.855  41.265   7.191
 3435POPC   C1B46147  23.229  42.053   6.207
 3435POPC   C2B46148  23.281  41.996   6.679
 3435POPC   C3B46149  23.171  41.636   6.973
 3435POPC   C4B46150  23.192  41.674   7.422
 3436POPC   NC346151   7.044  28.989   5.416
 3436POPC   PO446152   6.396  29.151   5.352
 3436POPC   GL146153   6.652  29.203   5.714
 3436POPC   GL246154   6.741  28.893   5.823
 3436POPC   C1A46155   6.740  29.414   6.075
 3436POPC   D2A46156   6.623  29.379   6.482
 3436POPC   C3A46157   6.545  29.315   6.902
 3436POPC   C4A46158   6.781  29.093   7.206
 3436POPC   C1B46159   6.837  28.947   6.262
 3436POPC   C2B46160   6.933  28.987   6.705
 3436POPC   C3B46161   7.226  28.898   7.047
 3436POPC   C4B46162   7.073  28.722   7.438
 3437POPC   NC346163  19.447  10.112   5.567
 3437POPC   PO446164  19.273  10.659   5.183
 3437POPC   GL146165  19.045  10.609   5.624
 3437POPC   GL246166  19.254  10.479   5.844
 3437POPC   C1A46167  18.999  10.795   6.093
 3437POPC   D2A46168  18.883  10.857   6.530
 3437POPC   C3A46169  19.016  10.671   6.936
 3437POPC   C4A46170  19.085  10.883   7.338
 3437POPC   C1B46171  19.363  10.318   6.209
 3437POPC   C2B46172  19.353  10.519   6.566
 3437POPC   C3B46173  19.422  10.306   6.932
 3437POPC   C4B46174  19.324  10.442   7.299
 3438POPC   NC346175  16.991  17.696   5.519
 3438POPC   PO446176  16.570  17.269   5.622
 3438POPC   GL146177  16.684  17.559   5.903
 3438POPC   GL246178  17.013  17.423   5.984
 3438POPC   C1A46179  16.638  17.546   6.317
 3438POPC   D2A46180  16.836  17.398   6.673
 3438POPC   C3A46181  16.579  17.570   7.004
 3438POPC   C4A46182  16.595  17.701   7.445
 3438POPC   C1B46183  17.150  17.706   6.327
 3438POPC   C2B46184  17.204  17.740   6.772
 3438POPC   C3B46185  17.054  17.605   7.161
 3438POPC   C4B46186  17.088  17.789   7.563
 3439POPC   NC346187  22.012  27.844   5.543
 3439POPC   PO446188  22.367  27.222   5.476
 3439POPC   GL146189  22.546  27.436   5.848
 3439POPC   GL246190  22.481  27.806   5.885
 3439POPC   C1A46191  22.512  27.496   6.300
 3439POPC   D2A46192  22.163  27.499   6.590
 3439POPC   C3A46193  22.206  27.739   6.965
 3439POPC   C4A46194  22.141  27.590   7.391
 3439POPC   C1B46195  22.139  27.873   6.219
 3439POPC   C2B46196  21.798  27.861   6.578
 3439POPC   C3B46197  21.815  28.100   6.961
 3439POPC   C4B46198  22.127  28.083   7.347
 3440POPC   NC346199   3.703   8.653   5.471
 3440POPC   PO446200   3.412   9.285   5.434
 3440POPC   GL146201   3.473   9.135   5.831
 3440POPC   GL246202   3.833   9.107   5.737
 3440POPC   C1A46203   3.327   8.863   6.199
 3440POPC   D2A46204   3.357   8.685   6.628
 3440POPC   C3A46205   3.549   8.913   6.963
 3440POPC   C4A46206   3.432   8.881   7.404
 3440POPC   C1B46207   3.836   8.908   6.130
 3440POPC   C2B46208   3.694   9.138   6.504
 3440POPC   C3B46209   3.881   9.302   6.896
 3440POPC   C4B46210   3.879   9.119   7.313
 3441POPC   NC346211  39.333  36.775   5.384
 3441POPC   PO446212  39.323  36.066   5.335
 3441POPC   GL146213  39.145  36.136   5.713
 3441POPC   GL246214  39.354  36.444   5.776
 3441POPC   C1A46215  39.060  35.900   6.100
 3441POPC   D2A46216  39.201  35.882   6.526
 3441POPC   C3A46217  39.004  35.996   6.949
 3441POPC   C4A46218  39.001  35.720   7.294
 3441POPC   C1B46219  39.124  36.405   6.178
 3441POPC   C2B46220  38.984  36.381   6.604
 3441POPC   C3B46221  38.955  36.498   7.046
 3441POPC   C4B46222  39.180  36.281   7.373
 3442POPC   NC346223  14.052  29.884   5.420
 3442POPC   PO446224  14.735  29.742   5.254
 3442POPC   GL146225  14.574  29.821   5.705
 3442POPC   GL246226  14.280  30.023   5.859
 3442POPC   C1A46227  14.685  29.786   6.154
 3442POPC   D2A46228  14.748  30.048   6.534
 3442POPC   C3A46229  14.590  29.941   6.940
 3442POPC   C4A46230  14.580  29.687   7.306
 3442POPC   C1B46231  13.966  30.228   6.164
 3442POPC   C2B46232  13.827  30.114   6.598
 3442POPC   C3B46233  14.075  29.954   6.931
 3442POPC   C4B46234  14.178  30.047   7.333
 3443POPC   NC346235  33.293  28.271   5.018
 3443POPC   PO446236  32.622  28.422   5.216
 3443POPC   GL146237  32.872  28.411   5.661
 3443POPC   GL246238  33.176  28.637   5.777
 3443POPC   C1A46239  32.914  28.303   6.083
 3443POPC   D2A46240  33.058  28.278   6.505
 3443POPC   C3A46241  32.859  28.442   6.872
 3443POPC   C4A46242  32.826  28.178   7.247
 3443POPC   C1B46243  33.369  28.603   6.244
 3443POPC   C2B46244  33.348  28.647   6.723
 3443POPC   C3B46245  33.350  28.707   7.138
 3443POPC   C4B46246  32.916  28.740   7.297
 3444POPC   NC346247  36.193   3.526   5.346
 3444POPC   PO446248  35.732   3.348   5.638
 3444POPC   GL146249  36.208   3.225   5.751
 3444POPC   GL246250  36.439   3.543   5.781
 3444POPC   C1A46251  36.358   3.190   6.171
 3444POPC   D2A46252  36.165   3.343   6.539
 3444POPC   C3A46253  36.165   3.116   6.921
 3444POPC   C4A46254  35.922   3.307   7.241
 3444POPC   C1B46255  36.304   3.703   6.163
 3444POPC   C2B46256  36.434   3.783   6.587
 3444POPC   C3B46257  36.225   3.633   6.965
 3444POPC   C4B46258  36.163   3.712   7.387
 3445POPC   NC346259  43.488  31.817   5.367
 3445POPC   PO446260  42.969  31.416   5.109
 3445POPC   GL146261  43.237  31.411   5.582
 3445POPC   GL246262  43.436  31.112   5.742
 3445POPC   C1A46263  43.256  31.644   6.036
 3445POPC   D2A46264  43.067  31.873   6.431
 3445POPC   C3A46265  43.095  31.756   6.882
 3445POPC   C4A46266  42.978  31.358   7.031
 3445POPC   C1B46267  43.505  31.220   6.201
 3445POPC   C2B46268  43.339  31.372   6.599
 3445POPC   C3B46269  43.485  31.217   7.017
 3445POPC   C4B46270  43.349  31.380   7.402
 3446POPC   NC346271  20.787  22.360   5.592
 3446POPC   PO446272  20.978  21.739   5.376
 3446POPC   GL146273  20.625  21.878   5.597
 3446POPC   GL246274  20.878  21.933   5.846
 3446POPC   C1A46275  20.351  21.979   5.968
 3446POPC   D2A46276  20.340  21.874   6.402
 3446POPC   C3A46277  20.378  21.981   6.824
 3446POPC   C4A46278  20.096  22.128   7.148
 3446POPC   C1B46279  20.778  22.092   6.214
 3446POPC   C2B46280  20.842  21.963   6.597
 3446POPC   C3B46281  20.825  21.812   6.985
 3446POPC   C4B46282  20.609  22.101   7.264
 3447POPC   NC346283  17.850  35.712   5.223
 3447POPC   PO446284  17.680  35.104   5.443
 3447POPC   GL146285  17.640  35.042   5.849
 3447POPC   GL246286  17.960  34.979   5.885
 3447POPC   C1A46287  17.500  35.233   6.224
 3447POPC   D2A46288  17.593  35.617   6.496
 3447POPC   C3A46289  17.572  35.578   6.958
 3447POPC   C4A46290  17.196  35.488   7.192
 3447POPC   C1B46291  17.986  35.074   6.301
 3447POPC   C2B46292  17.709  35.135   6.672
 3447POPC   C3B46293  17.588  35.058   7.084
 3447POPC   C4B46294  17.720  34.893   7.464
 3448POPC   NC346295   6.656  16.695   5.261
 3448POPC   PO446296   7.058  16.737   5.778
 3448POPC   GL146297   6.711  16.630   5.983
 3448POPC   GL246298   6.449  16.670   5.740
 3448POPC   C1A46299   6.643  16.728   6.425
 3448POPC   D2A46300   6.629  17.112   6.688
 3448POPC   C3A46301   6.537  17.020   7.115
 3448POPC   C4A46302   6.799  16.739   7.364
 3448POPC   C1B46303   6.230  16.603   6.139
 3448POPC   C2B46304   6.250  16.372   6.540
 3448POPC   C3B46305   6.324  16.521   6.988
 3448POPC   C4B46306   6.065  16.832   7.234
 3449POPC   NC346307  36.602  23.104   5.541
 3449POPC   PO446308  36.087  23.417   5.268
 3449POPC   GL146309  36.121  23.101   5.712
 3449POPC   GL246310  36.360  22.879   5.898
 3449POPC   C1A46311  35.951  22.976   6.152
 3449POPC   D2A46312  36.098  22.849   6.559
 3449POPC   C3A46313  35.999  22.886   6.984
 3449POPC   C4A46314  36.309  22.877   7.270
 3449POPC   C1B46315  36.338  22.575   6.186
 3449POPC   C2B46316  36.567  22.492   6.560
 3449POPC   C3B46317  36.674  22.564   6.971
 3449POPC   C4B46318  36.454  22.405   7.297
 3450POPC   NC346319  17.429  16.404   5.411
 3450POPC   PO446320  17.866  16.848   5.519
 3450POPC   GL146321  17.588  16.717   5.864
 3450POPC   GL246322  17.229  16.631   5.821
 3450POPC   C1A46323  17.531  16.868   6.292
 3450POPC   D2A46324  17.356  16.835   6.714
 3450POPC   C3A46325  17.581  16.736   7.113
 3450POPC   C4A46326  17.601  16.917   7.552
 3450POPC   C1B46327  17.054  16.671   6.207
 3450POPC   C2B46328  17.044  16.453   6.570
 3450POPC   C3B46329  17.044  16.578   6.999
 3450POPC   C4B46330  17.182  16.568   7.397
 3451POPC   NC346331   9.614  15.075   4.966
 3451POPC   PO446332   9.897  15.431   5.434
 3451POPC   GL146333   9.576  15.211   5.669
 3451POPC   GL246334   9.738  14.945   5.856
 3451POPC   C1A46335   9.430  15.284   6.096
 3451POPC   D2A46336   9.665  15.384   6.498
 3451POPC   C3A46337   9.548  15.205   6.884
 3451POPC   C4A46338   9.399  15.471   7.170
 3451POPC   C1B46339   9.963  15.268   6.094
 3451POPC   C2B46340  10.174  15.326   6.501
 3451POPC   C3B46341  10.041  15.285   6.942
 3451POPC   C4B46342   9.898  15.279   7.385
 3452POPC   NC346343   5.687   7.334   5.438
 3452POPC   PO446344   6.201   7.562   5.823
 3452POPC   GL146345   5.734   7.529   5.922
 3452POPC   GL246346   5.632   7.186   5.910
 3452POPC   C1A46347   5.606   7.488   6.350
 3452POPC   D2A46348   6.043   7.473   6.541
 3452POPC   C3A46349   6.112   7.689   6.923
 3452POPC   C4A46350   5.795   7.569   7.200
 3452POPC   C1B46351   5.838   7.053   6.259
 3452POPC   C2B46352   5.704   7.097   6.688
 3452POPC   C3B46353   5.664   7.088   7.104
 3452POPC   C4B46354   5.920   7.017   7.449
 3453POPC   NC346355  13.694  18.240   5.443
 3453POPC   PO446356  13.154  18.713   5.450
 3453POPC   GL146357  13.367  18.411   5.810
 3453POPC   GL246358  13.749  18.349   5.922
 3453POPC   C1A46359  13.402  18.164   6.235
 3453POPC   D2A46360  13.446  18.330   6.673
 3453POPC   C3A46361  13.562  18.137   7.065
 3453POPC   C4A46362  13.774  18.290   7.456
 3453POPC   C1B46363  13.871  17.986   6.173
 3453POPC   C2B46364  13.732  17.889   6.596
 3453POPC   C3B46365  13.931  17.761   6.999
 3453POPC   C4B46366  14.091  17.887   7.410
 3454POPC   NC346367  44.949  12.333   5.177
 3454POPC   PO446368  44.436  12.545   5.332
 3454POPC   GL146369  44.743  12.351   5.665
 3454POPC   GL246370  44.627  12.002   5.718
 3454POPC   C1A46371  44.873  12.203   6.119
 3454POPC   D2A46372  44.670  12.185   6.562
 3454POPC   C3A46373  44.855  12.213   6.998
 3454POPC   C4A46374  44.662  12.212   7.416
 3454POPC   C1B46375  44.427  11.944   6.154
 3454POPC   C2B46376  44.380  11.762   6.586
 3454POPC   C3B46377  44.495  11.841   7.033
 3454POPC   C4B46378  44.542  11.721   7.483
 3455POPC   NC346379   4.045   9.419   5.363
 3455POPC   PO446380   4.698   9.734   5.456
 3455POPC   GL146381   4.367   9.759   5.729
 3455POPC   GL246382   4.247  10.091   5.782
 3455POPC   C1A46383   4.523   9.638   6.134
 3455POPC   D2A46384   4.665   9.672   6.551
 3455POPC   C3A46385   4.375   9.868   6.827
 3455POPC   C4A46386   4.643   9.733   7.139
 3455POPC   C1B46387   4.017   9.868   6.124
 3455POPC   C2B46388   3.849   9.909   6.563
 3455POPC   C3B46389   3.888  10.062   6.980
 3455POPC   C4B46390   4.165   9.945   7.303
 3456POPC   NC346391  36.141  30.798   5.046
 3456POPC   PO446392  36.371  30.202   5.394
 3456POPC   GL146393  36.153  30.434   5.713
 3456POPC   GL246394  36.000  30.735   5.560
 3456POPC   C1A46395  36.010  30.375   6.141
 3456POPC   D2A46396  35.849  30.331   6.567
 3456POPC   C3A46397  36.080  30.476   6.927
 3456POPC   C4A46398  36.178  30.397   7.375
 3456POPC   C1B46399  36.048  30.860   6.000
 3456POPC   C2B46400  36.050  30.825   6.444
 3456POPC   C3B46401  35.932  30.960   6.837
 3456POPC   C4B46402  36.020  30.921   7.261
 3457POPC   NC346403  20.508  37.946   5.454
 3457POPC   PO446404  20.324  37.274   5.542
 3457POPC   GL146405  20.605  37.513   5.834
 3457POPC   GL246406  20.772  37.824   5.882
 3457POPC   C1A46407  20.692  37.569   6.305
 3457POPC   D2A46408  20.441  37.803   6.577
 3457POPC   C3A46409  20.559  37.757   7.002
 3457POPC   C4A46410  20.520  37.409   7.250
 3457POPC   C1B46411  20.955  37.989   6.293
 3457POPC   C2B46412  20.952  37.879   6.719
 3457POPC   C3B46413  20.968  38.007   7.159
 3457POPC   C4B46414  20.704  37.933   7.498
 3458POPC   NC346415  43.019   5.623   5.491
 3458POPC   PO446416  43.378   6.145   5.432
 3458POPC   GL146417  43.345   5.842   5.838
 3458POPC   GL246418  42.974   5.829   5.980
 3458POPC   C1A46419  43.335   5.780   6.335
 3458POPC   D2A46420  43.099   5.870   6.739
 3458POPC   C3A46421  43.190   6.013   7.180
 3458POPC   C4A46422  43.163   6.236   7.628
 3458POPC   C1B46423  42.845   5.568   6.380
 3458POPC   C2B46424  42.817   5.464   6.859
 3458POPC   C3B46425  42.785   5.492   7.305
 3458POPC   C4B46426  42.769   5.499   7.761
 3459POPC   NC346427  37.456  25.709   5.293
 3459POPC   PO446428  36.938  25.138   5.386
 3459POPC   GL146429  36.847  25.215   5.795
 3459POPC   GL246430  36.503  25.163   5.755
 3459POPC   C1A46431  36.694  25.397   6.200
 3459POPC   D2A46432  36.768  25.396   6.655
 3459POPC   C3A46433  37.094  25.144   6.852
 3459POPC   C4A46434  37.086  25.464   7.132
 3459POPC   C1B46435  36.566  24.883   6.107
 3459POPC   C2B46436  36.744  24.916   6.532
 3459POPC   C3B46437  36.609  24.975   6.992
 3459POPC   C4B46438  36.612  24.979   7.476
 3460POPC   NC346439   9.657  19.635   5.602
 3460POPC   PO446440  10.264  19.891   5.464
 3460POPC   GL146441  10.074  20.157   5.779
 3460POPC   GL246442   9.700  20.145   5.753
 3460POPC   C1A46443   9.929  20.036   6.201
 3460POPC   D2A46444   9.779  20.104   6.637
 3460POPC   C3A46445   9.782  19.802   7.012
 3460POPC   C4A46446  10.111  19.601   7.307
 3460POPC   C1B46447   9.405  20.076   6.106
 3460POPC   C2B46448   9.292  20.258   6.505
 3460POPC   C3B46449   9.296  19.991   6.845
 3460POPC   C4B46450   9.406  20.102   7.247
 3461POPC   NC346451  19.615  38.128   5.398
 3461POPC   PO446452  20.249  38.538   5.452
 3461POPC   GL146453  20.043  38.344   5.847
 3461POPC   GL246454  20.309  38.106   5.912
 3461POPC   C1A46455  19.774  38.399   6.266
 3461POPC   D2A46456  19.480  38.568   6.628
 3461POPC   C3A46457  19.600  38.641   7.048
 3461POPC   C4A46458  19.920  38.380   7.253
 3461POPC   C1B46459  20.058  37.957   6.236
 3461POPC   C2B46460  19.941  37.991   6.653
 3461POPC   C3B46461  19.589  38.121   6.853
 3461POPC   C4B46462  19.441  38.167   7.253
 3462POPC   NC346463   0.017  24.974   5.294
 3462POPC   PO446464   0.586  24.594   5.317
 3462POPC   GL146465   0.337  24.485   5.736
 3462POPC   GL246466   0.077  24.757   5.783
 3462POPC   C1A46467   0.184  24.254   6.147
 3462POPC   D2A46468   0.358  24.084   6.555
 3462POPC   C3A46469   0.451  24.359   6.912
 3462POPC   C4A46470   0.314  24.186   7.312
 3462POPC   C1B46471   0.104  24.768   6.243
 3462POPC   C2B46472   0.207  24.785   6.678
 3462POPC   C3B46473   0.515  24.907   6.995
 3462POPC   C4B46474   0.540  24.639   7.346
 3463POPC   NC346475  14.118  26.172   5.280
 3463POPC   PO446476  14.744  25.820   5.270
 3463POPC   GL146477  14.674  25.990   5.705
 3463POPC   GL246478  14.330  26.111   5.765
 3463POPC   C1A46479  14.737  26.181   6.126
 3463POPC   D2A46480  14.682  26.409   6.524
 3463POPC   C3A46481  14.599  26.202   6.929
 3463POPC   C4A46482  14.423  25.815   7.074
 3463POPC   C1B46483  14.258  26.381   6.152
 3463POPC   C2B46484  14.200  26.246   6.587
 3463POPC   C3B46485  14.068  26.305   7.014
 3463POPC   C4B46486  14.054  26.016   7.346
 3464POPC   NC346487  22.937  35.841   5.519
 3464POPC   PO446488  23.455  36.269   5.470
 3464POPC   GL146489  23.240  36.143   5.801
 3464POPC   GL246490  22.941  36.350   5.765
 3464POPC   C1A46491  23.040  36.058   6.179
 3464POPC   D2A46492  22.940  36.355   6.483
 3464POPC   C3A46493  22.929  36.199   6.866
 3464POPC   C4A46494  23.013  35.957   7.233
 3464POPC   C1B46495  22.592  36.299   6.098
 3464POPC   C2B46496  22.445  36.115   6.516
 3464POPC   C3B46497  22.467  36.002   6.959
 3464POPC   C4B46498  22.628  36.297   7.261
 3465POPC   NC346499   0.022   2.187   5.229
 3465POPC   PO446500  44.662   1.720   5.481
 3465POPC   GL146501  44.629   2.096   5.772
 3465POPC   GL246502  44.312   2.308   5.755
 3465POPC   C1A46503  44.820   2.139   6.215
 3465POPC   D2A46504  44.862   1.847   6.593
 3465POPC   C3A46505  44.830   2.042   7.008
 3465POPC   C4A46506  44.658   1.983   7.426
 3465POPC   C1B46507  44.306   2.106   6.178
 3465POPC   C2B46508  44.485   2.196   6.613
 3465POPC   C3B46509  44.371   2.295   7.059
 3465POPC   C4B46510  44.152   2.188   7.442
 3466POPC   NC346511  31.413   6.496   5.387
 3466POPC   PO446512  31.917   6.932   5.498
 3466POPC   GL146513  31.602   6.941   5.851
 3466POPC   GL246514  31.258   6.833   5.845
 3466POPC   C1A46515  31.650   6.816   6.297
 3466POPC   D2A46516  31.873   6.974   6.676
 3466POPC   C3A46517  31.669   6.790   7.038
 3466POPC   C4A46518  31.272   6.579   7.197
 3466POPC   C1B46519  31.151   6.968   6.298
 3466POPC   C2B46520  31.306   6.980   6.744
 3466POPC   C3B46521  31.203   7.075   7.202
 3466POPC   C4B46522  31.099   6.890   7.650
 3467POPC   NC346523  38.587   6.929   5.407
 3467POPC   PO446524  37.916   6.751   5.439
 3467POPC   GL146525  38.246   6.683   5.736
 3467POPC   GL246526  38.219   7.050   5.757
 3467POPC   C1A46527  38.556   6.510   6.064
 3467POPC   D2A46528  38.610   6.293   6.478
 3467POPC   C3A46529  38.581   6.429   6.935
 3467POPC   C4A46530  38.852   6.684   7.203
 3467POPC   C1B46531  38.451   7.003   6.135
 3467POPC   C2B46532  38.583   6.814   6.520
 3467POPC   C3B46533  38.487   6.945   6.938
 3467POPC   C4B46534  38.387   6.836   7.380
 3468POPC   NC346535  39.201  41.108   5.403
 3468POPC   PO446536  39.513  40.519   5.467
 3468POPC   GL146537  39.201  40.715   5.778
 3468POPC   GL246538  38.929  40.998   5.821
 3468POPC   C1A46539  39.124  40.655   6.232
 3468POPC   D2A46540  38.846  40.453   6.550
 3468POPC   C3A46541  39.021  40.468   6.986
 3468POPC   C4A46542  39.365  40.751   7.071
 3468POPC   C1B46543  38.931  41.127   6.270
 3468POPC   C2B46544  39.008  40.924   6.700
 3468POPC   C3B46545  38.989  41.070   7.140
 3468POPC   C4B46546  38.889  41.170   7.564
 3469POPC   NC346547  31.683  34.284   5.462
 3469POPC   PO446548  31.397  33.737   5.448
 3469POPC   GL146549  31.416  33.886   5.869
 3469POPC   GL246550  31.752  34.024   5.896
 3469POPC   C1A46551  31.428  33.783   6.317
 3469POPC   D2A46552  31.790  33.927   6.547
 3469POPC   C3A46553  31.705  33.907   6.933
 3469POPC   C4A46554  31.388  33.779   7.197
 3469POPC   C1B46555  31.881  33.657   6.128
 3469POPC   C2B46556  31.792  33.397   6.529
 3469POPC   C3B46557  31.744  33.420   7.003
 3469POPC   C4B46558  32.071  33.655   7.238
 3470POPC   NC346559  39.695   6.131   5.381
 3470POPC   PO446560  40.220   5.726   5.442
 3470POPC   GL146561  40.019   5.954   5.769
 3470POPC   GL246562  39.702   5.777   5.776
 3470POPC   C1A46563  39.844   6.031   6.200
 3470POPC   D2A46564  39.762   5.826   6.593
 3470POPC   C3A46565  39.921   6.012   6.965
 3470POPC   C4A46566  40.105   5.954   7.383
 3470POPC   C1B46567  39.580   5.582   6.165
 3470POPC   C2B46568  39.711   5.310   6.536
 3470POPC   C3B46569  39.747   5.462   6.958
 3470POPC   C4B46570  39.576   5.760   7.264
 3471POPC   NC346571  29.438  17.478   5.056
 3471POPC   PO446572  28.897  17.618   5.505
 3471POPC   GL146573  28.855  17.473   5.895
 3471POPC   GL246574  29.092  17.773   5.962
 3471POPC   C1A46575  29.006  17.312   6.278
 3471POPC   D2A46576  29.255  17.203   6.641
 3471POPC   C3A46577  29.111  17.187   7.068
 3471POPC   C4A46578  29.520  17.281   7.210
 3471POPC   C1B46579  28.767  17.796   6.258
 3471POPC   C2B46580  28.894  17.860   6.630
 3471POPC   C3B46581  29.160  17.683   6.911
 3471POPC   C4B46582  28.816  17.768   7.156
 3472POPC   NC346583   4.589  42.877   5.485
 3472POPC   PO446584   3.884  43.036   5.452
 3472POPC   GL146585   4.181  42.985   5.846
 3472POPC   GL246586   4.509  43.212   5.868
 3472POPC   C1A46587   4.262  43.123   6.310
 3472POPC   D2A46588   4.628  43.247   6.606
 3472POPC   C3A46589   4.519  43.275   7.087
 3472POPC   C4A46590   4.427  43.268   7.574
 3472POPC   C1B46591   4.657  42.847   6.138
 3472POPC   C2B46592   4.662  42.676   6.553
 3472POPC   C3B46593   4.777  42.866   6.917
 3472POPC   C4B46594   4.664  42.832   7.310
 3473POPC   NC346595  30.501  12.509   5.277
 3473POPC   PO446596  30.810  13.105   5.264
 3473POPC   GL146597  30.847  12.872   5.663
 3473POPC   GL246598  30.606  12.611   5.758
 3473POPC   C1A46599  31.001  12.943   6.084
 3473POPC   D2A46600  30.764  13.062   6.463
 3473POPC   C3A46601  30.997  12.912   6.791
 3473POPC   C4A46602  30.997  12.881   7.207
 3473POPC   C1B46603  30.587  12.669   6.182
 3473POPC   C2B46604  30.765  12.531   6.553
 3473POPC   C3B46605  30.613  12.596   6.969
 3473POPC   C4B46606  30.419  12.974   7.118
 3474POPC   NC346607  42.079  36.505   5.378
 3474POPC   PO446608  42.225  35.726   5.411
 3474POPC   GL146609  42.133  36.006   5.771
 3474POPC   GL246610  41.989  35.864   6.070
 3474POPC   C1A46611  42.211  36.387   6.053
 3474POPC   D2A46612  42.371  36.551   6.478
 3474POPC   C3A46613  42.370  36.258   6.860
 3474POPC   C4A46614  42.070  36.120   7.189
 3474POPC   C1B46615  42.283  36.010   6.386
 3474POPC   C2B46616  42.658  35.888   6.597
 3474POPC   C3B46617  42.656  35.726   6.982
 3474POPC   C4B46618  42.341  35.671   7.228
 3475POPC   NC346619  41.816  20.654   5.412
 3475POPC   PO446620  41.277  20.295   5.334
 3475POPC   GL146621  41.486  20.402   5.767
 3475POPC   GL246622  41.691  20.719   5.878
 3475POPC   C1A46623  41.340  20.612   6.188
 3475POPC   D2A46624  41.559  20.759   6.523
 3475POPC   C3A46625  41.407  20.598   6.920
 3475POPC   C4A46626  41.570  20.745   7.308
 3475POPC   C1B46627  41.792  20.395   6.188
 3475POPC   C2B46628  41.659  20.258   6.581
 3475POPC   C3B46629  41.805  20.270   6.992
 3475POPC   C4B46630  41.638  20.245   7.402
 3476POPC   NC346631  27.784  35.587   5.458
 3476POPC   PO446632  28.385  35.387   5.235
 3476POPC   GL146633  28.319  35.338   5.713
 3476POPC   GL246634  28.692  35.381   5.751
 3476POPC   C1A46635  28.137  35.314   6.188
 3476POPC   D2A46636  28.197  35.567   6.614
 3476POPC   C3A46637  28.288  35.409   7.045
 3476POPC   C4A46638  28.180  35.138   7.438
 3476POPC   C1B46639  28.632  35.159   6.126
 3476POPC   C2B46640  28.513  35.150   6.560
 3476POPC   C3B46641  28.755  35.268   6.917
 3476POPC   C4B46642  28.674  35.122   7.286
 3477POPC   NC346643  37.139  43.493   5.418
 3477POPC   PO446644  37.241  44.260   5.448
 3477POPC   GL146645  36.927  43.934   5.731
 3477POPC   GL246646  37.057  43.625   5.903
 3477POPC   C1A46647  36.743  43.911   6.192
 3477POPC   D2A46648  36.774  44.118   6.600
 3477POPC   C3A46649  36.554  44.068   6.995
 3477POPC   C4A46650  36.882  44.232   7.227
 3477POPC   C1B46651  36.747  43.400   6.160
 3477POPC   C2B46652  36.667  43.509   6.588
 3477POPC   C3B46653  36.886  43.702   6.910
 3477POPC   C4B46654  37.119  43.764   7.289
 3478POPC   NC346655   1.425   7.386   5.055
 3478POPC   PO446656   1.527   7.582   5.674
 3478POPC   GL146657   1.369   7.358   6.091
 3478POPC   GL246658   1.192   7.011   6.034
 3478POPC   C1A46659   1.286   7.444   6.536
 3478POPC   D2A46660   1.242   7.770   6.873
 3478POPC   C3A46661   1.074   7.602   7.242
 3478POPC   C4A46662   1.208   7.535   7.658
 3478POPC   C1B46663   1.362   6.924   6.440
 3478POPC   C2B46664   1.515   7.107   6.845
 3478POPC   C3B46665   1.421   7.222   7.275
 3478POPC   C4B46666   1.389   7.032   7.701
 3479POPC   NC346667  42.831  44.237   5.517
 3479POPC   PO446668  43.257  43.688   5.277
 3479POPC   GL146669  43.151  43.754   5.691
 3479POPC   GL246670  43.360  44.014   5.851
 3479POPC   C1A46671  43.037  43.653   6.119
 3479POPC   D2A46672  43.227  43.871   6.479
 3479POPC   C3A46673  42.956  43.794   6.818
 3479POPC   C4A46674  43.016  43.831   7.221
 3479POPC   C1B46675  43.679  44.137   6.191
 3479POPC   C2B46676  43.681  44.160   6.653
 3479POPC   C3B46677  43.331  44.155   6.939
 3479POPC   C4B46678  43.358  44.171   7.391
 3480POPC   NC346679  31.277  44.185   5.162
 3480POPC   PO446680  31.669  43.693   5.355
 3480POPC   GL146681  31.644  43.791   5.769
 3480POPC   GL246682  31.332  43.867   5.780
 3480POPC   C1A46683  31.743  43.784   6.198
 3480POPC   D2A46684  31.680  43.606   6.613
 3480POPC   C3A46685  31.736  43.896   6.925
 3480POPC   C4A46686  31.571  44.067   7.281
 3480POPC   C1B46687  31.233  43.926   6.234
 3480POPC   C2B46688  31.246  43.862   6.689
 3480POPC   C3B46689  30.979  43.865   7.044
 3480POPC   C4B46690  31.073  44.082   7.473
 3481POPC   NC346691  23.050  38.299   5.438
 3481POPC   PO446692  22.382  38.479   5.485
 3481POPC   GL146693  22.767  38.580   5.761
 3481POPC   GL246694  22.787  38.246   5.882
 3481POPC   C1A46695  23.142  38.528   6.085
 3481POPC   D2A46696  23.056  38.197   6.379
 3481POPC   C3A46697  23.114  38.207   6.855
 3481POPC   C4A46698  23.086  38.528   7.197
 3481POPC   C1B46699  22.546  38.102   6.208
 3481POPC   C2B46700  22.645  38.094   6.656
 3481POPC   C3B46701  22.663  38.173   7.106
 3481POPC   C4B46702  22.499  37.924   7.472
 3482POPC   NC346703   3.473  17.799   5.444
 3482POPC   PO446704   3.957  17.402   5.396
 3482POPC   GL146705   3.738  17.478   5.772
 3482POPC   GL246706   3.749  17.142   5.881
 3482POPC   C1A46707   3.612  17.551   6.204
 3482POPC   D2A46708   3.254  17.718   6.450
 3482POPC   C3A46709   3.302  17.804   6.910
 3482POPC   C4A46710   3.521  17.785   7.343
 3482POPC   C1B46711   3.632  17.060   6.331
 3482POPC   C2B46712   3.512  17.320   6.697
 3482POPC   C3B46713   3.403  17.351   7.135
 3482POPC   C4B46714   3.710  17.326   7.468
 3483POPC   NC346715  20.457  33.905   5.649
 3483POPC   PO446716  20.094  33.410   5.368
 3483POPC   GL146717  19.873  33.648   5.697
 3483POPC   GL246718  19.805  34.026   5.654
 3483POPC   C1A46719  19.979  33.697   6.139
 3483POPC   D2A46720  19.866  33.523   6.529
 3483POPC   C3A46721  19.942  33.811   6.866
 3483POPC   C4A46722  19.795  33.970   7.245
 3483POPC   C1B46723  19.750  34.161   6.109
 3483POPC   C2B46724  20.032  34.168   6.506
 3483POPC   C3B46725  20.200  34.262   6.949
 3483POPC   C4B46726  20.220  34.237   7.434
 3484POPC   NC346727  37.045   2.918   5.693
 3484POPC   PO446728  36.743   3.471   5.361
 3484POPC   GL146729  36.930   3.417   5.788
 3484POPC   GL246730  37.237   3.575   5.845
 3484POPC   C1A46731  36.791   3.551   6.219
 3484POPC   D2A46732  36.695   3.368   6.653
 3484POPC   C3A46733  36.743   3.638   7.014
 3484POPC   C4A46734  36.648   3.735   7.453
 3484POPC   C1B46735  37.266   3.352   6.293
 3484POPC   C2B46736  37.204   3.295   6.764
 3484POPC   C3B46737  37.443   3.318   7.155
 3484POPC   C4B46738  37.350   3.260   7.637
 3485POPC   NC346739  36.500  23.383   5.030
 3485POPC   PO446740  37.011  22.972   5.367
 3485POPC   GL146741  36.997  22.913   5.799
 3485POPC   GL246742  36.798  22.607   5.849
 3485POPC   C1A46743  36.848  23.140   6.159
 3485POPC   D2A46744  36.571  22.970   6.395
 3485POPC   C3A46745  36.518  23.027   6.822
 3485POPC   C4A46746  36.791  23.042   7.167
 3485POPC   C1B46747  36.994  22.651   6.264
 3485POPC   C2B46748  37.006  22.842   6.688
 3485POPC   C3B46749  37.183  22.721   7.098
 3485POPC   C4B46750  36.956  22.486   7.384
 3486POPC   NC346751  18.296  40.318   5.435
 3486POPC   PO446752  18.220  39.737   5.382
 3486POPC   GL146753  18.350  39.878   5.822
 3486POPC   GL246754  18.409  40.223   5.919
 3486POPC   C1A46755  18.285  39.880   6.299
 3486POPC   D2A46756  17.980  40.049   6.633
 3486POPC   C3A46757  18.032  39.787   7.002
 3486POPC   C4A46758  18.403  39.656   7.211
 3486POPC   C1B46759  18.196  40.385   6.286
 3486POPC   C2B46760  18.445  40.262   6.653
 3486POPC   C3B46761  18.360  40.184   7.089
 3486POPC   C4B46762  18.449  40.320   7.530
 3487POPC   NC346763  39.246  12.266   5.638
 3487POPC   PO446764  38.775  11.759   5.458
 3487POPC   GL146765  38.974  11.816   5.865
 3487POPC   GL246766  38.964  12.137   6.015
 3487POPC   C1A46767  39.215  11.734   6.261
 3487POPC   D2A46768  39.414  11.662   6.682
 3487POPC   C3A46769  39.365  12.036   6.974
 3487POPC   C4A46770  39.233  12.085   7.413
 3487POPC   C1B46771  38.884  12.307   6.376
 3487POPC   C2B46772  39.035  12.405   6.773
 3487POPC   C3B46773  39.028  12.485   7.196
 3487POPC   C4B46774  38.922  12.433   7.666
 3488POPC   NC346775  13.190  10.750   5.496
 3488POPC   PO446776  12.728  10.275   5.508
 3488POPC   GL146777  12.811  10.281   5.916
 3488POPC   GL246778  12.838  10.654   5.917
 3488POPC   C1A46779  12.690  10.242   6.341
 3488POPC   D2A46780  12.731  10.515   6.691
 3488POPC   C3A46781  12.873  10.394   7.110
 3488POPC   C4A46782  12.639  10.523   7.464
 3488POPC   C1B46783  13.101  10.891   6.199
 3488POPC   C2B46784  13.152  10.790   6.643
 3488POPC   C3B46785  12.916  10.904   7.023
 3488POPC   C4B46786  13.115  10.786   7.390
 3489POPC   NC346787   4.427  27.222   5.583
 3489POPC   PO446788   3.948  26.902   5.629
 3489POPC   GL146789   4.221  26.981   6.005
 3489POPC   GL246790   4.571  26.874   5.976
 3489POPC   C1A46791   4.333  26.968   6.460
 3489POPC   D2A46792   4.180  26.797   6.876
 3489POPC   C3A46793   4.108  27.059   7.237
 3489POPC   C4A46794   4.137  26.984   7.681
 3489POPC   C1B46795   4.823  26.808   6.374
 3489POPC   C2B46796   4.765  26.879   6.831
 3489POPC   C3B46797   4.665  27.062   7.229
 3489POPC   C4B46798   4.683  26.980   7.676
 3490POPC   NC346799  20.699  38.590   5.372
 3490POPC   PO446800  20.924  38.026   5.269
 3490POPC   GL146801  20.755  38.306   5.762
 3490POPC   GL246802  20.507  38.600   5.869
 3490POPC   C1A46803  20.804  38.454   6.226
 3490POPC   D2A46804  20.606  38.293   6.635
 3490POPC   C3A46805  20.784  38.466   7.038
 3490POPC   C4A46806  20.709  38.426   7.499
 3490POPC   C1B46807  20.305  38.573   6.306
 3490POPC   C2B46808  20.432  38.773   6.741
 3490POPC   C3B46809  20.354  38.670   7.203
 3490POPC   C4B46810  20.320  38.741   7.646
 3491POPC   NC346811  13.282  24.591   5.480
 3491POPC   PO446812  12.752  24.245   5.360
 3491POPC   GL146813  12.792  24.487   5.743
 3491POPC   GL246814  12.950  24.283   5.987
 3491POPC   C1A46815  12.953  24.779   6.080
 3491POPC   D2A46816  13.133  24.799   6.461
 3491POPC   C3A46817  12.978  24.503   6.768
 3491POPC   C4A46818  12.896  24.584   7.202
 3491POPC   C1B46819  12.576  24.453   6.236
 3491POPC   C2B46820  12.451  24.402   6.694
 3491POPC   C3B46821  12.489  24.270   7.140
 3491POPC   C4B46822  12.829  24.140   7.431
 3492POPC   NC346823  11.576  25.979   5.408
 3492POPC   PO446824  11.057  25.508   5.406
 3492POPC   GL146825  11.223  25.813   5.738
 3492POPC   GL246826  11.040  26.129   5.720
 3492POPC   C1A46827  11.452  25.992   6.096
 3492POPC   D2A46828  11.398  26.315   6.415
 3492POPC   C3A46829  11.413  26.258   6.870
 3492POPC   C4A46830  11.462  25.937   7.186
 3492POPC   C1B46831  10.949  26.194   6.159
 3492POPC   C2B46832  10.943  26.127   6.599
 3492POPC   C3B46833  10.904  26.325   6.985
 3492POPC   C4B46834  11.161  26.410   7.329
 3493POPC   NC346835  10.092   8.188   5.460
 3493POPC   PO446836  10.794   8.442   5.574
 3493POPC   GL146837  10.664   8.287   5.944
 3493POPC   GL246838  10.496   7.934   5.874
 3493POPC   C1A46839  10.733   8.440   6.362
 3493POPC   D2A46840  10.940   8.360   6.742
 3493POPC   C3A46841  10.687   8.591   6.985
 3493POPC   C4A46842  10.561   8.388   7.309
 3493POPC   C1B46843  10.339   8.099   6.289
 3493POPC   C2B46844  10.434   8.201   6.718
 3493POPC   C3B46845  10.626   7.980   6.997
 3493POPC   C4B46846  10.638   7.847   7.391
 3494POPC   NC346847   9.311  43.634   5.774
 3494POPC   PO446848   8.839  43.661   5.320
 3494POPC   GL146849   8.941  43.982   5.648
 3494POPC   GL246850   8.671  43.874   5.801
 3494POPC   C1A46851   8.919  44.209   6.081
 3494POPC   D2A46852   8.738  44.048   6.492
 3494POPC   C3A46853   8.907  44.099   6.909
 3494POPC   C4A46854   8.828  43.827   7.255
 3494POPC   C1B46855   8.825  43.676   6.188
 3494POPC   C2B46856   8.837  43.568   6.648
 3494POPC   C3B46857   9.093  43.446   7.009
 3494POPC   C4B46858   9.038  43.414   7.478
 3495POPC   NC346859  34.407  41.366   5.402
 3495POPC   PO446860  34.875  41.802   5.369
 3495POPC   GL146861  34.617  41.693   5.719
 3495POPC   GL246862  34.799  41.397   5.780
 3495POPC   C1A46863  34.440  41.796   6.120
 3495POPC   D2A46864  34.454  41.990   6.538
 3495POPC   C3A46865  34.592  41.752   6.905
 3495POPC   C4A46866  34.657  41.537   7.288
 3495POPC   C1B46867  34.736  41.390   6.237
 3495POPC   C2B46868  34.437  41.317   6.606
 3495POPC   C3B46869  34.222  41.154   6.991
 3495POPC   C4B46870  34.213  41.224   7.450
 3496POPC   NC346871  10.165  18.667   5.596
 3496POPC   PO446872   9.717  19.180   5.569
 3496POPC   GL146873   9.515  18.981   5.900
 3496POPC   GL246874   9.852  18.830   5.955
 3496POPC   C1A46875   9.303  19.195   6.249
 3496POPC   D2A46876   9.128  19.137   6.670
 3496POPC   C3A46877   9.283  19.460   7.014
 3496POPC   C4A46878   9.599  19.428   7.354
 3496POPC   C1B46879   9.794  19.016   6.345
 3496POPC   C2B46880   9.633  19.155   6.737
 3496POPC   C3B46881   9.723  18.961   7.108
 3496POPC   C4B46882  10.010  19.114   7.395
 3497POPC   NC346883  42.877  25.048   5.322
 3497POPC   PO446884  43.251  25.661   5.371
 3497POPC   GL146885  43.175  25.338   5.650
 3497POPC   GL246886  43.381  25.073   5.581
 3497POPC   C1A46887  42.978  25.268   6.051
 3497POPC   D2A46888  42.766  25.320   6.464
 3497POPC   C3A46889  42.910  25.131   6.834
 3497POPC   C4A46890  43.035  25.228   7.221
 3497POPC   C1B46891  43.494  25.165   6.037
 3497POPC   C2B46892  43.297  25.265   6.473
 3497POPC   C3B46893  43.427  25.112   6.866
 3497POPC   C4B46894  43.334  24.820   7.194
 3498POPC   NC346895  34.217  39.872   5.282
 3498POPC   PO446896  33.784  40.343   5.421
 3498POPC   GL146897  33.822  40.103   5.780
 3498POPC   GL246898  33.893  39.744   5.798
 3498POPC   C1A46899  33.579  40.010   6.150
 3498POPC   D2A46900  33.760  40.002   6.562
 3498POPC   C3A46901  33.564  40.091   6.948
 3498POPC   C4A46902  33.696  39.944   7.371
 3498POPC   C1B46903  33.862  39.595   6.255
 3498POPC   C2B46904  34.003  39.548   6.691
 3498POPC   C3B46905  33.889  39.549   7.128
 3498POPC   C4B46906  33.933  39.576   7.642
 3499POPC   NC346907  12.495  28.961   5.416
 3499POPC   PO446908  11.861  28.810   5.446
 3499POPC   GL146909  12.100  29.085   5.720
 3499POPC   GL246910  12.408  29.103   5.887
 3499POPC   C1A46911  12.021  29.269   6.144
 3499POPC   D2A46912  12.236  29.286   6.542
 3499POPC   C3A46913  11.996  29.272   6.906
 3499POPC   C4A46914  11.956  29.180   7.298
 3499POPC   C1B46915  12.493  28.848   6.229
 3499POPC   C2B46916  12.351  28.770   6.651
 3499POPC   C3B46917  12.340  28.903   7.085
 3499POPC   C4B46918  12.331  28.971   7.565
 3500POPC   NC346919  44.298   4.525   5.423
 3500POPC   PO446920  43.923   3.960   5.429
 3500POPC   GL146921  44.086   4.155   5.781
 3500POPC   GL246922  43.752   4.167   5.886
 3500POPC   C1A46923  44.118   4.319   6.207
 3500POPC   D2A46924  43.840   4.197   6.544
 3500POPC   C3A46925  43.980   4.162   6.960
 3500POPC   C4A46926  44.073   4.575   7.005
 3500POPC   C1B46927  43.604   4.479   6.168
 3500POPC   C2B46928  43.395   4.442   6.534
 3500POPC   C3B46929  43.581   4.525   6.875
 3500POPC   C4B46930  43.560   4.421   7.246
 3501POPC   NC346931  17.844  17.965   5.339
 3501POPC   PO446932  17.363  18.463   5.270
 3501POPC   GL146933  17.451  18.227   5.618
 3501POPC   GL246934  17.782  18.218   5.783
 3501POPC   C1A46935  17.348  18.293   6.061
 3501POPC   D2A46936  17.434  18.190   6.507
 3501POPC   C3A46937  17.138  18.260   6.814
 3501POPC   C4A46938  17.195  18.163   7.240
 3501POPC   C1B46939  17.817  18.427   6.206
 3501POPC   C2B46940  17.744  18.598   6.636
 3501POPC   C3B46941  17.581  18.469   7.037
 3501POPC   C4B46942  17.454  18.623   7.468
 3502POPC   NC346943  15.189  10.243   5.476
 3502POPC   PO446944  14.981   9.555   5.373
 3502POPC   GL146945  15.293   9.721   5.669
 3502POPC   GL246946  15.264   9.414   5.847
 3502POPC   C1A46947  15.283   9.871   6.112
 3502POPC   D2A46948  15.013   9.812   6.482
 3502POPC   C3A46949  15.106   9.930   6.895
 3502POPC   C4A46950  15.118  10.257   7.219
 3502POPC   C1B46951  15.605   9.481   6.062
 3502POPC   C2B46952  15.470   9.522   6.477
 3502POPC   C3B46953  15.469   9.570   6.900
 3502POPC   C4B46954  15.216   9.636   7.290
 3503POPC   NC346955  22.804  43.101   5.430
 3503POPC   PO446956  23.399  43.413   5.399
 3503POPC   GL146957  23.161  43.303   5.752
 3503POPC   GL246958  23.209  42.967   5.731
 3503POPC   C1A46959  22.827  43.201   6.068
 3503POPC   D2A46960  22.716  43.276   6.491
 3503POPC   C3A46961  22.791  43.103   6.885
 3503POPC   C4A46962  22.903  43.329   7.242
 3503POPC   C1B46963  23.291  43.021   6.179
 3503POPC   C2B46964  23.162  42.914   6.570
 3503POPC   C3B46965  23.296  43.066   6.949
 3503POPC   C4B46966  23.058  42.843   7.245
 3504POPC   NC346967  21.695   2.860   5.346
 3504POPC   PO446968  21.039   3.001   5.291
 3504POPC   GL146969  21.266   2.875   5.687
 3504POPC   GL246970  21.198   2.546   5.895
 3504POPC   C1A46971  21.309   2.994   6.112
 3504POPC   D2A46972  21.254   3.174   6.515
 3504POPC   C3A46973  21.402   2.994   6.875
 3504POPC   C4A46974  21.305   2.721   7.210
 3504POPC   C1B46975  21.573   2.545   6.171
 3504POPC   C2B46976  21.725   2.727   6.556
 3504POPC   C3B46977  21.773   2.606   6.988
 3504POPC   C4B46978  21.592   2.295   7.251
 3505POPC   NC346979   7.664   9.624   5.348
 3505POPC   PO446980   7.039   9.793   5.242
 3505POPC   GL146981   7.280   9.759   5.636
 3505POPC   GL246982   7.382   9.422   5.742
 3505POPC   C1A46983   7.328   9.891   6.061
 3505POPC   D2A46984   7.337   9.757   6.494
 3505POPC   C3A46985   7.533   9.949   6.854
 3505POPC   C4A46986   7.314   9.907   7.252
 3505POPC   C1B46987   7.577   9.440   6.160
 3505POPC   C2B46988   7.739   9.439   6.622
 3505POPC   C3B46989   7.613   9.485   7.089
 3505POPC   C4B46990   7.806   9.333   7.509
 3506POPC   NC346991  16.022  19.050   5.332
 3506POPC   PO446992  15.764  19.435   5.465
 3506POPC   GL146993  15.849  19.120   5.822
 3506POPC   GL246994  15.876  18.745   5.737
 3506POPC   C1A46995  16.017  19.192   6.260
 3506POPC   D2A46996  15.858  19.303   6.686
 3506POPC   C3A46997  15.977  19.098   7.098
 3506POPC   C4A46998  16.330  18.911   7.366
 3506POPC   C1B46999  15.837  18.720   6.217
 3506POPC   C2B47000  16.058  18.803   6.634
 3506POPC   C3B47001  16.066  18.587   7.051
 3506POPC   C4B47002  15.834  18.706   7.429
 3507POPC   NC347003  24.462  24.631   4.982
 3507POPC   PO447004  24.582  24.394   5.406
 3507POPC   GL147005  24.346  24.399   5.850
 3507POPC   GL247006  24.222  24.746   5.953
 3507POPC   C1A47007  24.359  24.435   6.335
 3507POPC   D2A47008  24.463  24.618   6.746
 3507POPC   C3A47009  24.502  24.363   7.135
 3507POPC   C4A47010  24.720  24.054   7.436
 3507POPC   C1B47011  24.403  24.969   6.351
 3507POPC   C2B47012  24.396  25.129   6.788
 3507POPC   C3B47013  24.559  24.904   7.165
 3507POPC   C4B47014  24.323  24.695   7.501
 3508POPC   NC347015  17.711  26.517   5.495
 3508POPC   PO447016  17.948  26.995   5.120
 3508POPC   GL147017  17.791  27.006   5.640
 3508POPC   GL247018  17.534  26.780   5.864
 3508POPC   C1A47019  17.889  26.946   6.145
 3508POPC   D2A47020  17.671  26.943   6.565
 3508POPC   C3A47021  17.898  26.983   6.954
 3508POPC   C4A47022  17.697  26.755   7.277
 3508POPC   C1B47023  17.275  26.815   6.219
 3508POPC   C2B47024  17.052  26.879   6.606
 3508POPC   C3B47025  17.231  26.815   7.003
 3508POPC   C4B47026  17.346  26.397   7.115
 3509POPC   NC347027  21.417  12.245   5.404
 3509POPC   PO447028  21.485  11.576   5.368
 3509POPC   GL147029  21.469  11.925   5.772
 3509POPC   GL247030  21.754  12.068   5.777
 3509POPC   C1A47031  21.292  12.150   6.178
 3509POPC   D2A47032  21.109  12.207   6.612
 3509POPC   C3A47033  21.285  11.993   6.965
 3509POPC   C4A47034  21.239  12.176   7.362
 3509POPC   C1B47035  21.807  12.275   6.176
 3509POPC   C2B47036  21.631  12.218   6.577
 3509POPC   C3B47037  21.801  12.037   6.943
 3509POPC   C4B47038  21.729  12.010   7.344
 3510POPC   NC347039  31.604   7.267   5.427
 3510POPC   PO447040  31.412   7.844   5.211
 3510POPC   GL147041  31.461   7.709   5.675
 3510POPC   GL247042  31.253   7.380   5.767
 3510POPC   C1A47043  31.660   7.621   6.093
 3510POPC   D2A47044  31.564   7.301   6.405
 3510POPC   C3A47045  31.641   7.395   6.825
 3510POPC   C4A47046  31.660   7.304   7.239
 3510POPC   C1B47047  31.163   7.531   6.185
 3510POPC   C2B47048  31.306   7.709   6.587
 3510POPC   C3B47049  31.225   7.573   7.023
 3510POPC   C4B47050  31.120   7.756   7.377
 3511POPC   NC347051  36.591  40.614   5.632
 3511POPC   PO447052  37.159  40.969   5.498
 3511POPC   GL147053  36.993  40.831   5.897
 3511POPC   GL247054  36.650  40.775   6.094
 3511POPC   C1A47055  37.102  40.857   6.317
 3511POPC   D2A47056  36.851  40.861   6.667
 3511POPC   C3A47057  36.990  40.650   7.028
 3511POPC   C4A47058  37.171  40.804   7.410
 3511POPC   C1B47059  36.685  40.407   6.358
 3511POPC   C2B47060  36.646  40.284   6.785
 3511POPC   C3B47061  36.377  40.358   7.143
 3511POPC   C4B47062  36.687  40.556   7.443
 3512POPC   NC347063  29.414  23.743   5.451
 3512POPC   PO447064  28.865  23.319   5.433
 3512POPC   GL147065  28.972  23.628   5.846
 3512POPC   GL247066  29.212  23.931   5.894
 3512POPC   C1A47067  28.986  23.764   6.331
 3512POPC   D2A47068  29.073  23.610   6.770
 3512POPC   C3A47069  29.094  23.875   7.142
 3512POPC   C4A47070  29.044  23.853   7.623
 3512POPC   C1B47071  29.473  23.685   6.235
 3512POPC   C2B47072  29.549  23.819   6.684
 3512POPC   C3B47073  29.525  23.598   7.084
 3512POPC   C4B47074  29.453  23.508   7.534
 3513POPC   NC347075  36.424  12.913   5.426
 3513POPC   PO447076  36.081  12.531   5.710
 3513POPC   GL147077  36.131  12.984   5.856
 3513POPC   GL247078  36.472  13.077   5.913
 3513POPC   C1A47079  36.106  13.192   6.263
 3513POPC   D2A47080  36.274  12.953   6.615
 3513POPC   C3A47081  35.952  12.716   6.844
 3513POPC   C4A47082  35.926  12.806   7.271
 3513POPC   C1B47083  36.457  12.680   6.197
 3513POPC   C2B47084  36.333  12.404   6.547
 3513POPC   C3B47085  36.430  12.550   6.969
 3513POPC   C4B47086  36.399  12.965   7.120
 3514POPC   NC347087   1.823  32.522   5.522
 3514POPC   PO447088   2.385  32.699   5.416
 3514POPC   GL147089   2.233  32.390   5.791
 3514POPC   GL247090   1.942  32.107   5.811
 3514POPC   C1A47091   2.074  32.371   6.230
 3514POPC   D2A47092   2.125  32.186   6.625
 3514POPC   C3A47093   2.236  32.316   7.028
 3514POPC   C4A47094   2.173  32.099   7.441
 3514POPC   C1B47095   1.632  31.900   6.115
 3514POPC   C2B47096   1.704  31.933   6.550
 3514POPC   C3B47097   1.750  32.098   6.968
 3514POPC   C4B47098   1.537  31.786   7.170
 3515POPC   NC347099   6.830   7.969   5.264
 3515POPC   PO447100   6.305   7.603   5.250
 3515POPC   GL147101   6.474   7.950   5.628
 3515POPC   GL247102   6.735   8.252   5.674
 3515POPC   C1A47103   6.482   8.092   6.089
 3515POPC   D2A47104   6.323   7.921   6.476
 3515POPC   C3A47105   6.465   8.094   6.853
 3515POPC   C4A47106   6.382   7.981   7.279
 3515POPC   C1B47107   6.762   8.541   6.048
 3515POPC   C2B47108   6.579   8.554   6.476
 3515POPC   C3B47109   6.748   8.520   6.880
 3515POPC   C4B47110   6.872   8.310   7.276
 3516POPC   NC347111  20.646  17.982   5.441
 3516POPC   PO447112  20.645  18.581   5.371
 3516POPC   GL147113  20.660  18.378   5.795
 3516POPC   GL247114  20.911  18.112   5.863
 3516POPC   C1A47115  20.711  18.438   6.244
 3516POPC   D2A47116  20.515  18.300   6.629
 3516POPC   C3A47117  20.725  18.444   7.019
 3516POPC   C4A47118  20.896  18.201   7.359
 3516POPC   C1B47119  20.572  17.953   6.138
 3516POPC   C2B47120  20.554  17.784   6.547
 3516POPC   C3B47121  20.716  17.911   6.944
 3516POPC   C4B47122  20.668  17.737   7.340
 3517POPC   NC347123  37.560   4.514   5.352
 3517POPC   PO447124  37.470   3.919   5.423
 3517POPC   GL147125  37.512   4.162   5.783
 3517POPC   GL247126  37.342   4.479   5.799
 3517POPC   C1A47127  37.756   4.266   6.143
 3517POPC   D2A47128  37.811   4.558   6.472
 3517POPC   C3A47129  37.850   4.419   6.894
 3517POPC   C4A47130  38.050   4.599   7.278
 3517POPC   C1B47131  37.278   4.445   6.213
 3517POPC   C2B47132  37.421   4.226   6.574
 3517POPC   C3B47133  37.312   4.370   6.982
 3517POPC   C4B47134  37.565   4.450   7.307
 3518POPC   NC347135   0.727   2.359   5.457
 3518POPC   PO447136   0.370   1.850   5.215
 3518POPC   GL147137   0.435   1.763   5.697
 3518POPC   GL247138   0.660   2.024   5.824
 3518POPC   C1A47139   0.291   1.940   6.135
 3518POPC   D2A47140   0.297   2.119   6.555
 3518POPC   C3A47141   0.292   1.839   6.922
 3518POPC   C4A47142   0.672   1.825   7.153
 3518POPC   C1B47143   0.837   2.228   6.216
 3518POPC   C2B47144   0.798   2.308   6.671
 3518POPC   C3B47145   0.479   2.306   7.009
 3518POPC   C4B47146   0.530   2.201   7.449
 3519POPC   NC347147  21.452  15.674   5.279
 3519POPC   PO447148  21.032  16.220   5.522
 3519POPC   GL147149  21.230  16.093   5.884
 3519POPC   GL247150  21.518  15.889   5.807
 3519POPC   C1A47151  21.341  16.246   6.276
 3519POPC   D2A47152  21.569  16.253   6.657
 3519POPC   C3A47153  21.277  16.067   6.945
 3519POPC   C4A47154  21.103  16.151   7.315
 3519POPC   C1B47155  21.458  15.748   6.286
 3519POPC   C2B47156  21.551  15.678   6.742
 3519POPC   C3B47157  21.424  15.649   7.207
 3519POPC   C4B47158  21.653  15.565   7.594
 3520POPC   NC347159   7.644  43.424   5.359
 3520POPC   PO447160   7.147  42.925   5.388
 3520POPC   GL147161   7.395  43.041   5.696
 3520POPC   GL247162   7.326  43.360   5.769
 3520POPC   C1A47163   7.308  43.020   6.136
 3520POPC   D2A47164   7.404  43.050   6.545
 3520POPC   C3A47165   7.146  42.912   6.855
 3520POPC   C4A47166   7.208  43.043   7.258
 3520POPC   C1B47167   7.523  43.467   6.199
 3520POPC   C2B47168   7.294  43.537   6.563
 3520POPC   C3B47169   7.153  43.457   6.943
 3520POPC   C4B47170   7.308  43.558   7.323
 3521POPC   NC347171  22.244  16.281   5.208
 3521POPC   PO447172  22.313  16.930   5.497
 3521POPC   GL147173  22.276  16.633   5.779
 3521POPC   GL247174  21.968  16.458   5.662
 3521POPC   C1A47175  22.358  16.790   6.202
 3521POPC   D2A47176  22.388  16.951   6.627
 3521POPC   C3A47177  21.977  17.027   6.778
 3521POPC   C4A47178  21.959  16.862   7.180
 3521POPC   C1B47179  22.063  16.302   6.097
 3521POPC   C2B47180  22.081  16.483   6.513
 3521POPC   C3B47181  22.230  16.453   6.920
 3521POPC   C4B47182  22.048  16.287   7.280
 3522POPC   NC347183  34.220  28.053   5.385
 3522POPC   PO447184  34.511  27.428   5.400
 3522POPC   GL147185  34.439  27.646   5.791
 3522POPC   GL247186  34.475  28.009   5.834
 3522POPC   C1A47187  34.578  27.663   6.234
 3522POPC   D2A47188  34.795  27.451   6.587
 3522POPC   C3A47189  34.488  27.236   6.868
 3522POPC   C4A47190  34.398  27.215   7.346
 3522POPC   C1B47191  34.477  28.180   6.266
 3522POPC   C2B47192  34.750  28.253   6.631
 3522POPC   C3B47193  34.932  27.902   6.869
 3522POPC   C4B47194  34.722  27.595   7.118
 3523POPC   NC347195   5.431   4.027   5.087
 3523POPC   PO447196   6.121   4.275   5.272
 3523POPC   GL147197   6.274   4.231   5.799
 3523POPC   GL247198   5.987   4.076   5.990
 3523POPC   C1A47199   6.370   4.294   6.270
 3523POPC   D2A47200   6.212   4.571   6.629
 3523POPC   C3A47201   6.123   4.420   7.078
 3523POPC   C4A47202   5.890   4.463   7.503
 3523POPC   C1B47203   5.857   4.304   6.301
 3523POPC   C2B47204   5.780   4.270   6.719
 3523POPC   C3B47205   5.563   4.337   7.093
 3523POPC   C4B47206   5.259   4.031   7.200
 3524POPC   NC347207  19.864   0.940   5.428
 3524POPC   PO447208  19.809   1.635   5.514
 3524POPC   GL147209  19.775   1.352   5.841
 3524POPC   GL247210  19.547   1.606   5.972
 3524POPC   C1A47211  20.020   1.136   6.172
 3524POPC   D2A47212  20.145   0.911   6.555
 3524POPC   C3A47213  19.905   1.012   6.904
 3524POPC   C4A47214  19.962   0.788   7.260
 3524POPC   C1B47215  19.928   1.638   6.258
 3524POPC   C2B47216  19.912   1.587   6.707
 3524POPC   C3B47217  19.870   1.482   7.122
 3524POPC   C4B47218  19.463   1.374   7.184
 3525POPC   NC347219  14.662  33.757   5.426
 3525POPC   PO447220  13.931  33.811   5.377
 3525POPC   GL147221  14.236  33.894   5.731
 3525POPC   GL247222  14.426  33.609   5.892
 3525POPC   C1A47223  14.243  34.050   6.185
 3525POPC   D2A47224  14.110  34.010   6.643
 3525POPC   C3A47225  14.280  33.882   7.063
 3525POPC   C4A47226  14.295  34.083   7.502
 3525POPC   C1B47227  14.341  33.583   6.378
 3525POPC   C2B47228  14.286  33.389   6.795
 3525POPC   C3B47229  14.518  33.443   7.197
 3525POPC   C4B47230  14.594  33.385   7.664
 3526POPC   NC347231   6.127  43.482   5.532
 3526POPC   PO447232   5.711  43.133   5.100
 3526POPC   GL147233   5.818  43.104   5.624
 3526POPC   GL247234   5.665  42.810   5.775
 3526POPC   C1A47235   6.004  43.073   6.076
 3526POPC   D2A47236   6.127  42.925   6.515
 3526POPC   C3A47237   6.009  43.225   6.861
 3526POPC   C4A47238   6.151  43.271   7.296
 3526POPC   C1B47239   5.522  42.550   6.116
 3526POPC   C2B47240   5.686  42.512   6.515
 3526POPC   C3B47241   5.775  42.744   6.869
 3526POPC   C4B47242   5.597  42.666   7.237
 3527POPC   NC347243  24.184  40.725   5.550
 3527POPC   PO447244  24.849  40.470   5.658
 3527POPC   GL147245  24.509  40.521   5.905
 3527POPC   GL247246  24.542  40.872   5.898
 3527POPC   C1A47247  24.385  40.608   6.326
 3527POPC   D2A47248  24.480  40.563   6.752
 3527POPC   C3A47249  24.214  40.883   6.862
 3527POPC   C4A47250  24.080  40.991   7.225
 3527POPC   C1B47251  24.806  40.912   6.282
 3527POPC   C2B47252  24.758  41.028   6.719
 3527POPC   C3B47253  24.599  41.085   7.125
 3527POPC   C4B47254  24.748  40.951   7.502
 3528POPC   NC347255  31.152   8.159   5.425
 3528POPC   PO447256  31.825   8.465   5.474
 3528POPC   GL147257  31.549   8.218   5.736
 3528POPC   GL247258  31.585   8.475   5.934
 3528POPC   C1A47259  31.370   8.051   6.160
 3528POPC   D2A47260  31.423   8.233   6.620
 3528POPC   C3A47261  31.479   8.041   7.060
 3528POPC   C4A47262  31.366   8.187   7.517
 3528POPC   C1B47263  31.452   8.648   6.305
 3528POPC   C2B47264  31.436   8.803   6.733
 3528POPC   C3B47265  31.300   8.540   7.111
 3528POPC   C4B47266  30.953   8.475   7.448
 3529POPC   NC347267  39.306  39.438   5.326
 3529POPC   PO447268  38.785  39.066   5.361
 3529POPC   GL147269  39.093  39.145   5.712
 3529POPC   GL247270  39.444  39.256   5.789
 3529POPC   C1A47271  39.078  39.303   6.138
 3529POPC   D2A47272  39.125  39.109   6.517
 3529POPC   C3A47273  39.154  39.383   6.842
 3529POPC   C4A47274  39.132  39.510   7.234
 3529POPC   C1B47275  39.546  39.072   6.233
 3529POPC   C2B47276  39.590  39.147   6.741
 3529POPC   C3B47277  39.512  39.115   7.196
 3529POPC   C4B47278  39.507  39.410   7.563
 3530POPC   NC347279  36.626  24.769   5.400
 3530POPC   PO447280  37.230  24.397   5.424
 3530POPC   GL147281  37.003  24.623   5.741
 3530POPC   GL247282  36.673  24.452   5.816
 3530POPC   C1A47283  37.020  24.605   6.196
 3530POPC   D2A47284  37.213  24.694   6.599
 3530POPC   C3A47285  36.962  24.587   6.918
 3530POPC   C4A47286  37.038  24.806   7.268
 3530POPC   C1B47287  36.673  24.182   6.200
 3530POPC   C2B47288  36.543  23.977   6.589
 3530POPC   C3B47289  36.729  24.086   6.978
 3530POPC   C4B47290  36.787  24.352   7.348
 3531POPC   NC347291  26.370  34.166   5.517
 3531POPC   PO447292  26.049  33.638   5.508
 3531POPC   GL147293  25.967  33.636   5.912
 3531POPC   GL247294  26.045  33.979   5.985
 3531POPC   C1A47295  25.880  33.599   6.339
 3531POPC   D2A47296  25.904  33.808   6.708
 3531POPC   C3A47297  26.153  33.769   7.092
 3531POPC   C4A47298  26.029  33.715   7.532
 3531POPC   C1B47299  25.689  34.087   6.281
 3531POPC   C2B47300  25.686  34.264   6.694
 3531POPC   C3B47301  25.750  34.109   7.124
 3531POPC   C4B47302  25.699  34.116   7.576
 3532POPC   NC347303   9.092   8.077   5.433
 3532POPC   PO447304   8.545   8.555   5.405
 3532POPC   GL147305   8.775   8.322   5.770
 3532POPC   GL247306   8.853   7.942   5.874
 3532POPC   C1A47307   8.934   8.335   6.214
 3532POPC   D2A47308   9.027   8.523   6.606
 3532POPC   C3A47309   8.738   8.352   6.888
 3532POPC   C4A47310   8.642   8.518   7.273
 3532POPC   C1B47311   8.974   7.667   6.251
 3532POPC   C2B47312   9.095   7.518   6.696
 3532POPC   C3B47313   9.153   7.795   7.072
 3532POPC   C4B47314   9.115   8.240   7.220
 3533POPC   NC347315  30.178  18.682   5.164
 3533POPC   PO447316  29.722  19.079   5.385
 3533POPC   GL147317  29.896  19.177   5.784
 3533POPC   GL247318  30.138  19.438   5.728
 3533POPC   C1A47319  29.799  19.140   6.219
 3533POPC   D2A47320  29.724  18.976   6.620
 3533POPC   C3A47321  29.731  19.196   7.019
 3533POPC   C4A47322  29.715  18.967   7.407
 3533POPC   C1B47323  30.288  19.353   6.137
 3533POPC   C2B47324  30.216  19.092   6.513
 3533POPC   C3B47325  30.229  19.272   6.932
 3533POPC   C4B47326  30.155  19.204   7.363
 3534POPC   NC347327  10.172  38.312   5.484
 3534POPC   PO447328  10.726  38.647   5.276
 3534POPC   GL147329  10.639  38.480   5.665
 3534POPC   GL247330  10.427  38.717   5.772
 3534POPC   C1A47331  10.579  38.306   6.103
 3534POPC   D2A47332  10.707  38.169   6.536
 3534POPC   C3A47333  10.462  38.328   6.868
 3534POPC   C4A47334  10.398  38.371   7.301
 3534POPC   C1B47335  10.795  38.766   6.103
 3534POPC   C2B47336  10.740  38.729   6.578
 3534POPC   C3B47337  10.748  38.708   7.057
 3534POPC   C4B47338  10.844  38.575   7.529
 3535POPC   NC347339   6.902  11.063   5.023
 3535POPC   PO447340   6.536  11.483   5.355
 3535POPC   GL147341   6.448  11.456   5.769
 3535POPC   GL247342   6.481  11.125   5.855
 3535POPC   C1A47343   6.270  11.521   6.180
 3535POPC   D2A47344   6.404  11.627   6.589
 3535POPC   C3A47345   6.520  11.304   6.858
 3535POPC   C4A47346   6.329  11.183   7.244
 3535POPC   C1B47347   6.700  11.234   6.257
 3535POPC   C2B47348   6.885  11.018   6.641
 3535POPC   C3B47349   6.790  10.917   7.106
 3535POPC   C4B47350   6.663  11.016   7.569
 3536POPC   NC347351  13.708   7.669   5.482
 3536POPC   PO447352  13.399   7.087   5.351
 3536POPC   GL147353  13.462   7.307   5.756
 3536POPC   GL247354  13.305   7.644   5.794
 3536POPC   C1A47355  13.687   7.217   6.164
 3536POPC   D2A47356  13.611   7.393   6.602
 3536POPC   C3A47357  13.621   7.184   7.009
 3536POPC   C4A47358  13.907   7.409   7.284
 3536POPC   C1B47359  13.291   7.530   6.210
 3536POPC   C2B47360  13.197   7.701   6.608
 3536POPC   C3B47361  13.308   7.611   7.043
 3536POPC   C4B47362  13.265   7.845   7.428
 3537POPC   NC347363  15.271   7.320   5.371
 3537POPC   PO447364  14.558   7.286   5.429
 3537POPC   GL147365  14.936   7.393   5.753
 3537POPC   GL247366  15.203   7.119   5.840
 3537POPC   C1A47367  15.165   7.603   6.137
 3537POPC   D2A47368  15.148   7.509   6.601
 3537POPC   C3A47369  15.255   7.720   7.018
 3537POPC   C4A47370  15.199   7.737   7.509
 3537POPC   C1B47371  15.065   6.900   6.223
 3537POPC   C2B47372  15.088   7.003   6.667
 3537POPC   C3B47373  15.348   7.163   7.031
 3537POPC   C4B47374  15.195   7.224   7.473
 3538POPC   NC347375  29.300  18.831   5.438
 3538POPC   PO447376  28.718  19.218   5.328
 3538POPC   GL147377  29.037  19.233   5.692
 3538POPC   GL247378  29.103  18.909   5.897
 3538POPC   C1A47379  29.344  19.309   6.050
 3538POPC   D2A47380  29.223  19.020   6.400
 3538POPC   C3A47381  29.256  19.110   6.822
 3538POPC   C4A47382  29.269  19.151   7.252
 3538POPC   C1B47383  28.898  18.664   6.206
 3538POPC   C2B47384  28.918  18.548   6.613
 3538POPC   C3B47385  28.990  18.688   7.000
 3538POPC   C4B47386  28.804  18.961   7.258
 3539POPC   NC347387  10.513   5.868   5.325
 3539POPC   PO447388  10.834   6.186   5.780
 3539POPC   GL147389  10.590   5.871   5.927
 3539POPC   GL247390  10.225   5.831   5.755
 3539POPC   C1A47391  10.721   5.818   6.369
 3539POPC   D2A47392  10.946   6.033   6.684
 3539POPC   C3A47393  10.790   5.938   7.080
 3539POPC   C4A47394  10.387   6.111   7.259
 3539POPC   C1B47395  10.214   5.631   6.152
 3539POPC   C2B47396  10.246   5.818   6.549
 3539POPC   C3B47397  10.348   5.737   6.929
 3539POPC   C4B47398  10.398   5.531   7.331
 3540POPC   NC347399   6.527  12.753   5.405
 3540POPC   PO447400   5.874  12.949   5.375
 3540POPC   GL147401   5.868  12.813   5.813
 3540POPC   GL247402   6.226  12.923   5.830
 3540POPC   C1A47403   5.792  12.798   6.294
 3540POPC   D2A47404   5.661  12.716   6.740
 3540POPC   C3A47405   5.713  12.939   7.135
 3540POPC   C4A47406   5.580  12.860   7.577
 3540POPC   C1B47407   6.212  12.564   6.155
 3540POPC   C2B47408   6.169  12.691   6.617
 3540POPC   C3B47409   6.083  12.548   7.014
 3540POPC   C4B47410   5.961  12.543   7.425
 3541POPC   NC347411   1.119  39.368   5.462
 3541POPC   PO447412   1.294  38.830   5.106
 3541POPC   GL147413   1.308  38.791   5.634
 3541POPC   GL247414   1.107  39.032   5.859
 3541POPC   C1A47415   1.515  38.895   6.081
 3541POPC   D2A47416   1.602  39.089   6.493
 3541POPC   C3A47417   1.386  39.222   6.869
 3541POPC   C4A47418   1.369  38.838   7.106
 3541POPC   C1B47419   1.166  39.346   6.195
 3541POPC   C2B47420   0.947  39.312   6.601
 3541POPC   C3B47421   0.913  38.934   6.857
 3541POPC   C4B47422   0.815  39.012   7.280
 3542POPC   NC347423   2.403  20.743   5.101
 3542POPC   PO447424   1.830  20.574   5.404
 3542POPC   GL147425   1.864  20.757   5.830
 3542POPC   GL247426   1.564  20.890   5.862
 3542POPC   C1A47427   2.107  20.782   6.236
 3542POPC   D2A47428   2.196  20.436   6.565
 3542POPC   C3A47429   1.925  20.368   6.963
 3542POPC   C4A47430   2.222  20.470   7.245
 3542POPC   C1B47431   1.617  20.616   6.257
 3542POPC   C2B47432   1.787  20.738   6.658
 3542POPC   C3B47433   1.836  20.842   7.116
 3542POPC   C4B47434   1.816  20.628   7.530
 3543POPC   NC347435   5.380  34.174   5.084
 3543POPC   PO447436   5.328  33.595   5.466
 3543POPC   GL147437   5.139  33.753   5.882
 3543POPC   GL247438   4.819  33.683   5.897
 3543POPC   C1A47439   5.246  33.868   6.348
 3543POPC   D2A47440   5.352  33.872   6.844
 3543POPC   C3A47441   5.184  33.588   7.216
 3543POPC   C4A47442   5.319  33.359   7.637
 3543POPC   C1B47443   4.739  33.864   6.272
 3543POPC   C2B47444   4.880  33.756   6.685
 3543POPC   C3B47445   4.694  33.865   7.047
 3543POPC   C4B47446   4.613  34.272   7.226
 3544POPC   NC347447  18.456  28.662   5.110
 3544POPC   PO447448  18.204  27.957   5.268
 3544POPC   GL147449  18.293  28.176   5.658
 3544POPC   GL247450  18.609  28.337   5.542
 3544POPC   C1A47451  18.203  28.348   6.119
 3544POPC   D2A47452  18.017  28.186   6.526
 3544POPC   C3A47453  18.099  28.305   6.979
 3544POPC   C4A47454  17.796  28.342   7.312
 3544POPC   C1B47455  18.695  28.212   5.978
 3544POPC   C2B47456  18.682  28.409   6.391
 3544POPC   C3B47457  18.596  28.357   6.828
 3544POPC   C4B47458  18.494  28.616   7.151
 3545POPC   NC347459  34.488  23.489   5.482
 3545POPC   PO447460  34.620  24.150   5.491
 3545POPC   GL147461  34.651  23.872   5.813
 3545POPC   GL247462  34.318  23.826   5.839
 3545POPC   C1A47463  34.682  23.623   6.197
 3545POPC   D2A47464  34.938  23.480   6.525
 3545POPC   C3A47465  34.727  23.500   6.917
 3545POPC   C4A47466  34.780  23.813   7.219
 3545POPC   C1B47467  34.230  23.965   6.241
 3545POPC   C2B47468  34.340  24.135   6.644
 3545POPC   C3B47469  34.310  23.901   7.022
 3545POPC   C4B47470  34.326  23.508   7.243
 3546POPC   NC347471   1.214   1.527   5.191
 3546POPC   PO447472   1.219   2.188   5.496
 3546POPC   GL147473   1.158   2.018   5.857
 3546POPC   GL247474   1.059   1.662   5.828
 3546POPC   C1A47475   1.268   1.904   6.241
 3546POPC   D2A47476   1.193   1.662   6.560
 3546POPC   C3A47477   1.132   1.946   6.881
 3546POPC   C4A47478   1.396   2.058   7.220
 3546POPC   C1B47479   0.767   1.696   6.194
 3546POPC   C2B47480   0.707   1.754   6.631
 3546POPC   C3B47481   0.904   1.441   6.925
 3546POPC   C4B47482   1.128   1.609   7.271
 3547POPC   NC347483  16.789  10.793   5.565
 3547POPC   PO447484  16.538  11.327   5.197
 3547POPC   GL147485  16.535  11.457   5.700
 3547POPC   GL247486  16.833  11.647   5.840
 3547POPC   C1A47487  16.473  11.356   6.151
 3547POPC   D2A47488  16.717  11.348   6.552
 3547POPC   C3A47489  16.493  11.486   6.966
 3547POPC   C4A47490  16.460  11.282   7.376
 3547POPC   C1B47491  17.052  11.666   6.222
 3547POPC   C2B47492  17.023  11.753   6.668
 3547POPC   C3B47493  17.001  11.404   6.976
 3547POPC   C4B47494  16.943  11.457   7.385
 3548POPC   NC347495   1.155  14.650   5.628
 3548POPC   PO447496   0.736  14.210   5.479
 3548POPC   GL147497   1.036  14.194   5.816
 3548POPC   GL247498   1.397  14.212   5.766
 3548POPC   C1A47499   1.055  14.301   6.258
 3548POPC   D2A47500   1.311  14.412   6.596
 3548POPC   C3A47501   1.204  14.297   6.998
 3548POPC   C4A47502   0.901  14.498   7.258
 3548POPC   C1B47503   1.575  14.231   6.193
 3548POPC   C2B47504   1.820  14.347   6.577
 3548POPC   C3B47505   1.695  14.520   6.945
 3548POPC   C4B47506   1.644  14.273   7.302
 3549POPC   NC347507  18.479  35.837   5.295
 3549POPC   PO447508  18.599  35.238   5.521
 3549POPC   GL147509  18.325  35.337   5.833
 3549POPC   GL247510  18.014  35.462   5.674
 3549POPC   C1A47511  18.423  35.463   6.245
 3549POPC   D2A47512  18.558  35.624   6.650
 3549POPC   C3A47513  18.394  35.674   7.032
 3549POPC   C4A47514  18.451  35.592   7.462
 3549POPC   C1B47515  17.932  35.529   6.113
 3549POPC   C2B47516  18.068  35.488   6.591
 3549POPC   C3B47517  18.022  35.344   7.011
 3549POPC   C4B47518  17.965  35.675   7.313
 3550POPC   NC347519  41.118   4.074   5.180
 3550POPC   PO447520  41.652   4.398   5.321
 3550POPC   GL147521  41.596   4.413   5.770
 3550POPC   GL247522  41.564   4.073   5.819
 3550POPC   C1A47523  41.636   4.457   6.219
 3550POPC   D2A47524  41.878   4.209   6.490
 3550POPC   C3A47525  41.956   4.311   6.900
 3550POPC   C4A47526  41.818   4.591   7.214
 3550POPC   C1B47527  41.300   4.043   6.211
 3550POPC   C2B47528  41.426   4.053   6.654
 3550POPC   C3B47529  41.428   4.312   7.012
 3550POPC   C4B47530  41.077   4.134   7.236
 3551POPC   NC347531  16.415  10.221   5.448
 3551POPC   PO447532  16.491   9.606   5.341
 3551POPC   GL147533  16.708   9.620   5.732
 3551POPC   GL247534  16.738   9.945   5.810
 3551POPC   C1A47535  16.608   9.632   6.204
 3551POPC   D2A47536  16.855   9.743   6.580
 3551POPC   C3A47537  16.688   9.884   6.934
 3551POPC   C4A47538  16.870   9.810   7.278
 3551POPC   C1B47539  16.819  10.100   6.238
 3551POPC   C2B47540  16.830  10.305   6.650
 3551POPC   C3B47541  16.973  10.293   7.079
 3551POPC   C4B47542  16.870  10.252   7.538
 3552POPC   NC347543  13.470  19.041   5.445
 3552POPC   PO447544  13.919  18.641   5.466
 3552POPC   GL147545  13.696  18.843   5.859
 3552POPC   GL247546  13.731  19.212   5.876
 3552POPC   C1A47547  13.535  18.681   6.280
 3552POPC   D2A47548  13.422  18.839   6.723
 3552POPC   C3A47549  13.650  18.682   7.127
 3552POPC   C4A47550  13.839  18.795   7.565
 3552POPC   C1B47551  13.806  19.115   6.330
 3552POPC   C2B47552  13.926  18.941   6.749
 3552POPC   C3B47553  13.994  19.094   7.179
 3552POPC   C4B47554  14.241  19.133   7.577
 3553POPC   NC347555  15.072  43.542   5.457
 3553POPC   PO447556  15.311  44.168   5.443
 3553POPC   GL147557  15.091  43.942   5.763
 3553POPC   GL247558  15.387  43.756   5.797
 3553POPC   C1A47559  14.989  43.757   6.148
 3553POPC   D2A47560  15.173  43.784   6.561
 3553POPC   C3A47561  15.039  43.554   6.916
 3553POPC   C4A47562  15.076  43.923   7.183
 3553POPC   C1B47563  15.484  43.595   6.192
 3553POPC   C2B47564  15.698  43.682   6.585
 3553POPC   C3B47565  15.525  43.694   6.971
 3553POPC   C4B47566  15.373  43.516   7.332
 3554POPC   NC347567  15.871   7.700   5.364
 3554POPC   PO447568  16.005   8.337   5.219
 3554POPC   GL147569  15.912   8.289   5.676
 3554POPC   GL247570  16.224   8.386   5.845
 3554POPC   C1A47571  15.673   8.109   6.056
 3554POPC   D2A47572  15.827   7.973   6.480
 3554POPC   C3A47573  15.657   8.070   6.909
 3554POPC   C4A47574  15.782   8.052   7.323
 3554POPC   C1B47575  16.013   8.428   6.267
 3554POPC   C2B47576  16.117   8.332   6.687
 3554POPC   C3B47577  16.157   8.312   7.104
 3554POPC   C4B47578  16.015   8.475   7.494
 3555POPC   NC347579   1.639  30.746   5.594
 3555POPC   PO447580   2.223  30.742   5.313
 3555POPC   GL147581   2.127  30.878   5.735
 3555POPC   GL247582   2.022  30.539   5.878
 3555POPC   C1A47583   2.004  30.954   6.186
 3555POPC   D2A47584   2.088  30.707   6.582
 3555POPC   C3A47585   1.911  30.853   6.979
 3555POPC   C4A47586   2.027  30.844   7.401
 3555POPC   C1B47587   1.725  30.433   6.238
 3555POPC   C2B47588   1.652  30.117   6.543
 3555POPC   C3B47589   1.785  30.377   6.859
 3555POPC   C4B47590   2.140  30.420   7.144
 3556POPC   NC347591   0.530  34.832   5.388
 3556POPC   PO447592   0.211  34.233   5.475
 3556POPC   GL147593   0.424  34.531   5.793
 3556POPC   GL247594   0.671  34.842   5.866
 3556POPC   C1A47595   0.271  34.711   6.159
 3556POPC   D2A47596   0.210  34.458   6.494
 3556POPC   C3A47597   0.139  34.672   6.848
 3556POPC   C4A47598   0.185  34.434   7.204
 3556POPC   C1B47599   0.798  34.565   6.211
 3556POPC   C2B47600   0.883  34.482   6.651
 3556POPC   C3B47601   0.689  34.387   7.046
 3556POPC   C4B47602   0.628  34.431   7.494
 3557POPC   NC347603   8.315   3.105   5.345
 3557POPC   PO447604   7.791   3.482   5.296
 3557POPC   GL147605   7.844   3.569   5.760
 3557POPC   GL247606   8.196   3.563   5.727
 3557POPC   C1A47607   7.849   3.528   6.258
 3557POPC   D2A47608   7.946   3.183   6.550
 3557POPC   C3A47609   8.085   3.360   6.939
 3557POPC   C4A47610   8.307   3.477   7.302
 3557POPC   C1B47611   8.306   3.744   6.127
 3557POPC   C2B47612   8.291   3.629   6.549
 3557POPC   C3B47613   8.494   3.760   6.926
 3557POPC   C4B47614   8.180   3.984   7.156
 3558POPC   NC347615  13.694   5.983   5.344
 3558POPC   PO447616  13.334   5.475   5.549
 3558POPC   GL147617  13.628   5.706   5.785
 3558POPC   GL247618  13.461   6.012   5.807
 3558POPC   C1A47619  13.666   5.798   6.223
 3558POPC   D2A47620  13.568   5.554   6.546
 3558POPC   C3A47621  13.575   5.741   6.916
 3558POPC   C4A47622  13.511   5.485   7.289
 3558POPC   C1B47623  13.383   6.230   6.189
 3558POPC   C2B47624  13.485   6.219   6.618
 3558POPC   C3B47625  13.557   6.235   7.059
 3558POPC   C4B47626  13.696   5.939   7.379
 3559POPC   NC347627  22.448  31.749   5.307
 3559POPC   PO447628  22.052  31.204   5.262
 3559POPC   GL147629  22.056  31.388   5.718
 3559POPC   GL247630  22.125  31.725   5.718
 3559POPC   C1A47631  22.371  31.301   6.114
 3559POPC   D2A47632  22.649  31.282   6.486
 3559POPC   C3A47633  22.427  31.214   6.871
 3559POPC   C4A47634  22.308  31.435   7.247
 3559POPC   C1B47635  22.121  31.748   6.146
 3559POPC   C2B47636  22.134  31.508   6.531
 3559POPC   C3B47637  21.983  31.669   6.907
 3559POPC   C4B47638  21.790  31.719   7.292
 3560POPC   NC347639  29.325  25.575   5.378
 3560POPC   PO447640  29.074  24.913   5.330
 3560POPC   GL147641  29.040  24.994   5.774
 3560POPC   GL247642  29.083  25.354   5.834
 3560POPC   C1A47643  29.116  25.026   6.241
 3560POPC   D2A47644  28.834  25.103   6.619
 3560POPC   C3A47645  29.023  25.030   7.037
 3560POPC   C4A47646  29.465  24.968   7.188
 3560POPC   C1B47647  29.248  25.534   6.239
 3560POPC   C2B47648  29.253  25.404   6.687
 3560POPC   C3B47649  29.286  25.439   7.133
 3560POPC   C4B47650  28.993  25.520   7.495
 3561POPC   NC347651  35.910  35.872   5.407
 3561POPC   PO447652  36.023  35.179   5.493
 3561POPC   GL147653  36.236  35.381   5.832
 3561POPC   GL247654  36.381  35.136   6.050
 3561POPC   C1A47655  36.006  35.468   6.223
 3561POPC   D2A47656  36.044  35.269   6.616
 3561POPC   C3A47657  35.926  35.571   6.947
 3561POPC   C4A47658  35.851  35.610   7.371
 3561POPC   C1B47659  36.507  35.478   6.365
 3561POPC   C2B47660  36.445  35.521   6.829
 3561POPC   C3B47661  36.246  35.173   7.086
 3561POPC   C4B47662  35.885  34.856   7.159
 3562POPC   NC347663  39.223  12.495   5.133
 3562POPC   PO447664  39.217  13.108   5.402
 3562POPC   GL147665  39.182  12.782   5.729
 3562POPC   GL247666  39.346  13.018   5.891
 3562POPC   C1A47667  39.279  12.603   6.189
 3562POPC   D2A47668  39.359  12.801   6.613
 3562POPC   C3A47669  39.500  12.650   7.026
 3562POPC   C4A47670  39.402  12.642   7.476
 3562POPC   C1B47671  39.129  13.085   6.241
 3562POPC   C2B47672  39.008  13.158   6.660
 3562POPC   C3B47673  39.138  13.080   7.073
 3562POPC   C4B47674  39.073  13.392   7.422
 3563POPC   NC347675  23.825  43.432   5.566
 3563POPC   PO447676  23.914  42.701   5.584
 3563POPC   GL147677  23.669  42.779   5.859
 3563POPC   GL247678  23.707  43.126   5.936
 3563POPC   C1A47679  23.783  42.718   6.244
 3563POPC   D2A47680  23.682  42.951   6.552
 3563POPC   C3A47681  23.749  42.770   6.906
 3563POPC   C4A47682  23.556  42.800   7.280
 3563POPC   C1B47683  23.801  43.399   6.314
 3563POPC   C2B47684  23.823  43.387   6.780
 3563POPC   C3B47685  23.677  43.355   7.216
 3563POPC   C4B47686  23.642  43.538   7.679
 3564POPC   NC347687  22.528  29.911   5.094
 3564POPC   PO447688  21.950  29.863   5.438
 3564POPC   GL147689  21.921  29.926   5.846
 3564POPC   GL247690  21.927  30.283   5.827
 3564POPC   C1A47691  21.935  29.688   6.228
 3564POPC   D2A47692  22.142  29.803   6.599
 3564POPC   C3A47693  22.124  29.662   7.000
 3564POPC   C4A47694  22.539  29.700   7.170
 3564POPC   C1B47695  22.159  30.160   6.220
 3564POPC   C2B47696  22.323  30.290   6.624
 3564POPC   C3B47697  22.271  30.152   7.037
 3564POPC   C4B47698  21.986  30.311   7.290
 3565POPC   NC347699  35.857   1.749   5.122
 3565POPC   PO447700  36.374   2.156   5.421
 3565POPC   GL147701  36.217   2.046   5.785
 3565POPC   GL247702  36.246   1.697   5.868
 3565POPC   C1A47703  36.206   2.074   6.213
 3565POPC   D2A47704  35.967   2.319   6.482
 3565POPC   C3A47705  36.015   2.180   6.916
 3565POPC   C4A47706  35.806   1.883   7.207
 3565POPC   C1B47707  36.530   1.637   6.221
 3565POPC   C2B47708  36.440   1.840   6.619
 3565POPC   C3B47709  36.303   1.783   7.055
 3565POPC   C4B47710  36.269   2.089   7.360
 3566POPC   NC347711  19.166   4.352   5.301
 3566POPC   PO447712  18.548   4.636   5.141
 3566POPC   GL147713  18.717   4.444   5.542
 3566POPC   GL247714  18.856   4.078   5.613
 3566POPC   C1A47715  18.957   4.527   5.933
 3566POPC   D2A47716  18.887   4.570   6.389
 3566POPC   C3A47717  19.033   4.495   6.797
 3566POPC   C4A47718  18.944   4.433   7.224
 3566POPC   C1B47719  18.993   3.991   6.036
 3566POPC   C2B47720  18.964   4.045   6.488
 3566POPC   C3B47721  18.814   4.020   6.905
 3566POPC   C4B47722  19.065   3.949   7.259
 3567POPC   NC347723  21.272  22.095   5.297
 3567POPC   PO447724  21.758  22.192   5.614
 3567POPC   GL147725  21.363  22.106   5.823
 3567POPC   GL247726  21.160  22.372   5.939
 3567POPC   C1A47727  21.267  21.974   6.264
 3567POPC   D2A47728  21.330  22.108   6.699
 3567POPC   C3A47729  21.043  22.258   7.031
 3567POPC   C4A47730  21.084  21.970   7.398
 3567POPC   C1B47731  21.490  22.430   6.250
 3567POPC   C2B47732  21.563  22.566   6.692
 3567POPC   C3B47733  21.518  22.373   7.139
 3567POPC   C4B47734  21.253  22.397   7.586
 3568POPC   NC347735   6.863  10.221   5.309
 3568POPC   PO447736   6.649  10.901   5.394
 3568POPC   GL147737   6.725  10.662   5.745
 3568POPC   GL247738   6.503  10.401   5.785
 3568POPC   C1A47739   6.748  10.714   6.188
 3568POPC   D2A47740   6.569  10.622   6.597
 3568POPC   C3A47741   6.442  10.353   6.916
 3568POPC   C4A47742   6.390  10.633   7.272
 3568POPC   C1B47743   6.486  10.257   6.230
 3568POPC   C2B47744   6.736  10.042   6.574
 3568POPC   C3B47745   6.832   9.978   7.017
 3568POPC   C4B47746   6.612  10.164   7.362
 3569POPC   NC347747  18.943  13.174   5.279
 3569POPC   PO447748  19.217  12.503   5.296
 3569POPC   GL147749  19.004  12.798   5.629
 3569POPC   GL247750  19.291  13.033   5.650
 3569POPC   C1A47751  18.761  12.926   6.055
 3569POPC   D2A47752  18.632  13.041   6.507
 3569POPC   C3A47753  18.940  12.877   6.836
 3569POPC   C4A47754  19.200  12.952   7.254
 3569POPC   C1B47755  19.292  12.821   6.057
 3569POPC   C2B47756  19.405  12.925   6.490
 3569POPC   C3B47757  19.412  12.680   6.864
 3569POPC   C4B47758  19.353  12.431   7.232
 3570POPC   NC347759  16.712   5.455   5.194
 3570POPC   PO447760  16.831   6.155   5.208
 3570POPC   GL147761  16.809   5.892   5.652
 3570POPC   GL247762  16.528   5.729   5.858
 3570POPC   C1A47763  16.937   5.775   6.129
 3570POPC   D2A47764  16.669   5.886   6.484
 3570POPC   C3A47765  16.748   5.711   6.896
 3570POPC   C4A47766  16.885   5.967   7.247
 3570POPC   C1B47767  16.315   5.581   6.218
 3570POPC   C2B47768  16.264   5.556   6.663
 3570POPC   C3B47769  16.296   5.585   7.108
 3570POPC   C4B47770  16.482   5.484   7.529
 3571POPC   NC347771  16.241  17.586   5.568
 3571POPC   PO447772  15.620  17.666   5.628
 3571POPC   GL147773  15.846  17.387   5.861
 3571POPC   GL247774  15.601  17.138   5.850
 3571POPC   C1A47775  16.161  17.331   6.202
 3571POPC   D2A47776  16.326  17.227   6.641
 3571POPC   C3A47777  16.090  17.469   6.991
 3571POPC   C4A47778  16.089  17.620   7.443
 3571POPC   C1B47779  15.607  17.298   6.309
 3571POPC   C2B47780  15.621  17.371   6.788
 3571POPC   C3B47781  15.573  17.615   7.190
 3571POPC   C4B47782  15.634  17.607   7.641
 3572POPC   NC347783   4.661  20.821   5.367
 3572POPC   PO447784   5.245  20.522   5.246
 3572POPC   GL147785   5.218  20.550   5.705
 3572POPC   GL247786   4.873  20.588   5.789
 3572POPC   C1A47787   5.209  20.541   6.190
 3572POPC   D2A47788   5.347  20.510   6.656
 3572POPC   C3A47789   5.293  20.651   7.092
 3572POPC   C4A47790   5.504  20.523   7.459
 3572POPC   C1B47791   4.705  20.469   6.175
 3572POPC   C2B47792   4.885  20.317   6.558
 3572POPC   C3B47793   4.869  20.351   6.992
 3572POPC   C4B47794   4.796  20.658   7.288
 3573POPC   NC347795   3.701  44.253   5.438
 3573POPC   PO447796   3.320  43.714   5.326
 3573POPC   GL147797   3.289  43.651   5.772
 3573POPC   GL247798   3.483  43.952   5.803
 3573POPC   C1A47799   3.422  43.622   6.242
 3573POPC   D2A47800   3.705  43.776   6.592
 3573POPC   C3A47801   3.654  43.607   7.002
 3573POPC   C4A47802   3.370  43.799   7.228
 3573POPC   C1B47803   3.606  44.267   6.112
 3573POPC   C2B47804   3.476  44.246   6.517
 3573POPC   C3B47805   3.611  44.297   6.910
 3573POPC   C4B47806   3.459  44.307   7.308
 3574POPC   NC347807  25.696  36.461   5.320
 3574POPC   PO447808  25.177  35.855   5.321
 3574POPC   GL147809  25.080  36.103   5.664
 3574POPC   GL247810  25.380  36.270   5.690
 3574POPC   C1A47811  25.043  36.270   6.117
 3574POPC   D2A47812  25.050  36.620   6.448
 3574POPC   C3A47813  25.080  36.407   6.850
 3574POPC   C4A47814  24.865  36.179   7.166
 3574POPC   C1B47815  25.564  36.280   6.098
 3574POPC   C2B47816  25.484  36.354   6.521
 3574POPC   C3B47817  25.597  36.401   6.938
 3574POPC   C4B47818  25.394  36.146   7.225
 3575POPC   NC347819  34.198  38.987   5.089
 3575POPC   PO447820  34.732  39.230   5.460
 3575POPC   GL147821  34.616  39.355   5.831
 3575POPC   GL247822  34.262  39.358   5.859
 3575POPC   C1A47823  34.596  39.111   6.187
 3575POPC   D2A47824  34.670  38.963   6.560
 3575POPC   C3A47825  34.425  39.036   6.922
 3575POPC   C4A47826  34.549  38.892   7.332
 3575POPC   C1B47827  34.366  39.543   6.244
 3575POPC   C2B47828  34.539  39.469   6.618
 3575POPC   C3B47829  34.413  39.537   7.015
 3575POPC   C4B47830  34.237  39.279   7.351
 3576POPC   NC347831   5.423  35.702   5.311
 3576POPC   PO447832   4.833  35.404   5.525
 3576POPC   GL147833   4.996  35.082   5.817
 3576POPC   GL247834   5.314  35.223   5.936
 3576POPC   C1A47835   5.043  34.928   6.265
 3576POPC   D2A47836   5.253  35.200   6.587
 3576POPC   C3A47837   5.058  35.143   7.011
 3576POPC   C4A47838   4.914  35.181   7.450
 3576POPC   C1B47839   4.949  35.427   6.217
 3576POPC   C2B47840   4.805  35.464   6.689
 3576POPC   C3B47841   4.777  35.573   7.144
 3576POPC   C4B47842   4.799  35.787   7.552
 3577POPC   NC347843  29.901  38.052   5.018
 3577POPC   PO447844  29.582  38.455   5.471
 3577POPC   GL147845  29.694  38.422   5.869
 3577POPC   GL247846  30.022  38.504   5.812
 3577POPC   C1A47847  29.830  38.273   6.259
 3577POPC   D2A47848  29.781  38.508   6.620
 3577POPC   C3A47849  29.830  38.291   6.995
 3577POPC   C4A47850  29.800  38.435   7.428
 3577POPC   C1B47851  30.237  38.610   6.192
 3577POPC   C2B47852  30.266  38.674   6.634
 3577POPC   C3B47853  30.211  38.623   7.069
 3577POPC   C4B47854  30.321  38.611   7.493
 3578POPC   NC347855  27.838  18.267   5.156
 3578POPC   PO447856  27.247  18.579   5.409
 3578POPC   GL147857  27.214  18.288   5.775
 3578POPC   GL247858  27.378  17.922   5.789
 3578POPC   C1A47859  27.379  18.245   6.201
 3578POPC   D2A47860  27.636  18.302   6.577
 3578POPC   C3A47861  27.488  18.516   6.976
 3578POPC   C4A47862  27.186  18.360   7.301
 3578POPC   C1B47863  27.561  17.756   6.198
 3578POPC   C2B47864  27.522  17.783   6.666
 3578POPC   C3B47865  27.657  18.053   7.019
 3578POPC   C4B47866  27.553  18.066   7.472
 3579POPC   NC347867  38.284  27.537   5.510
 3579POPC   PO447868  38.962  27.409   5.404
 3579POPC   GL147869  38.717  27.568   5.765
 3579POPC   GL247870  38.548  27.253   5.901
 3579POPC   C1A47871  38.473  27.733   6.131
 3579POPC   D2A47872  38.589  27.931   6.520
 3579POPC   C3A47873  38.453  27.690   6.875
 3579POPC   C4A47874  38.281  27.811   7.274
 3579POPC   C1B47875  38.858  27.404   6.244
 3579POPC   C2B47876  38.933  27.574   6.671
 3579POPC   C3B47877  38.881  27.544   7.096
 3579POPC   C4B47878  38.587  27.301   7.268
 3580POPC   NC347879   3.131  42.173   5.541
 3580POPC   PO447880   2.709  42.471   5.139
 3580POPC   GL147881   2.676  42.397   5.656
 3580POPC   GL247882   2.770  42.108   5.889
 3580POPC   C1A47883   2.525  42.461   6.125
 3580POPC   D2A47884   2.575  42.166   6.477
 3580POPC   C3A47885   2.713  42.315   6.870
 3580POPC   C4A47886   2.894  42.416   7.265
 3580POPC   C1B47887   2.620  41.759   6.152
 3580POPC   C2B47888   2.615  41.644   6.571
 3580POPC   C3B47889   2.546  41.837   6.985
 3580POPC   C4B47890   2.680  41.976   7.408
 3581POPC   NC347891  36.136  10.273   5.359
 3581POPC   PO447892  36.012  10.932   5.269
 3581POPC   GL147893  36.182  10.780   5.702
 3581POPC   GL247894  36.303  10.462   5.778
 3581POPC   C1A47895  36.012  10.616   6.148
 3581POPC   D2A47896  35.865  10.450   6.564
 3581POPC   C3A47897  36.064  10.544   6.966
 3581POPC   C4A47898  36.076  10.389   7.355
 3581POPC   C1B47899  36.426  10.289   6.173
 3581POPC   C2B47900  36.380  10.335   6.612
 3581POPC   C3B47901  36.465  10.209   7.046
 3581POPC   C4B47902  36.559  10.492   7.392
 3582POPC   NC347903  18.015   3.770   5.457
 3582POPC   PO447904  17.366   3.543   5.417
 3582POPC   GL147905  17.588   3.681   5.759
 3582POPC   GL247906  17.811   3.366   5.715
 3582POPC   C1A47907  17.346   3.752   6.152
 3582POPC   D2A47908  17.304   3.510   6.537
 3582POPC   C3A47909  17.284   3.803   6.900
 3582POPC   C4A47910  17.369   3.754   7.346
 3582POPC   C1B47911  17.699   3.365   6.163
 3582POPC   C2B47912  17.860   3.282   6.568
 3582POPC   C3B47913  17.756   3.151   6.956
 3582POPC   C4B47914  17.388   3.327   7.056
 3583POPC   NC347915  44.490  31.747   5.307
 3583POPC   PO447916  44.292  31.186   5.630
 3583POPC   GL147917  44.657  31.459   5.722
 3583POPC   GL247918  44.643  31.794   5.841
 3583POPC   C1A47919  44.888  31.357   6.082
 3583POPC   D2A47920   0.025  31.246   6.499
 3583POPC   C3A47921  44.721  31.229   6.801
 3583POPC   C4A47922  44.551  31.474   7.131
 3583POPC   C1B47923  44.489  31.622   6.267
 3583POPC   C2B47924  44.323  31.637   6.685
 3583POPC   C3B47925  44.114  31.709   7.090
 3583POPC   C4B47926  44.228  31.674   7.523
 3584POPC   NC347927  34.242  38.923   5.595
 3584POPC   PO447928  34.127  39.431   5.196
 3584POPC   GL147929  33.839  39.270   5.597
 3584POPC   GL247930  33.551  39.064   5.711
 3584POPC   C1A47931  33.877  39.126   6.093
 3584POPC   D2A47932  34.149  39.116   6.475
 3584POPC   C3A47933  33.920  39.075   6.884
 3584POPC   C4A47934  33.822  38.916   7.290
 3584POPC   C1B47935  33.407  38.931   6.123
 3584POPC   C2B47936  33.529  39.015   6.540
 3584POPC   C3B47937  33.381  39.111   6.962
 3584POPC   C4B47938  33.312  38.897   7.347
 3585POPC   NC347939  31.630  29.684   5.652
 3585POPC   PO447940  31.258  30.150   5.471
 3585POPC   GL147941  31.099  29.972   5.898
 3585POPC   GL247942  31.363  29.740   6.063
 3585POPC   C1A47943  31.111  30.014   6.388
 3585POPC   D2A47944  31.466  29.801   6.642
 3585POPC   C3A47945  31.563  29.960   7.017
 3585POPC   C4A47946  31.505  30.135   7.417
 3585POPC   C1B47947  31.792  29.672   6.272
 3585POPC   C2B47948  31.976  29.468   6.626
 3585POPC   C3B47949  31.885  29.561   7.038
 3585POPC   C4B47950  31.703  29.662   7.414
 3586POPC   NC347951  43.639   5.805   5.272
 3586POPC   PO447952  44.352   5.713   5.283
 3586POPC   GL147953  44.218   5.772   5.717
 3586POPC   GL247954  43.848   5.692   5.737
 3586POPC   C1A47955  44.366   5.837   6.169
 3586POPC   D2A47956  44.389   5.705   6.635
 3586POPC   C3A47957  44.032   5.658   6.944
 3586POPC   C4A47958  44.084   5.854   7.390
 3586POPC   C1B47959  43.836   5.827   6.186
 3586POPC   C2B47960  43.738   5.967   6.623
 3586POPC   C3B47961  43.709   6.045   7.061
 3586POPC   C4B47962  43.601   6.016   7.493
 3587POPC   NC347963   7.778   1.421   5.590
 3587POPC   PO447964   7.291   1.117   5.165
 3587POPC   GL147965   7.325   1.157   5.655
 3587POPC   GL247966   7.210   0.884   5.715
 3587POPC   C1A47967   7.393   1.308   6.132
 3587POPC   D2A47968   7.486   1.115   6.577
 3587POPC   C3A47969   7.547   1.335   6.992
 3587POPC   C4A47970   7.255   1.686   7.144
 3587POPC   C1B47971   7.122   0.879   6.130
 3587POPC   C2B47972   6.997   1.129   6.457
 3587POPC   C3B47973   7.055   1.299   6.832
 3587POPC   C4B47974   7.134   1.154   7.233
 3588POPC   NC347975   0.616   3.070   5.134
 3588POPC   PO447976   0.306   2.556   5.319
 3588POPC   GL147977   0.367   2.836   5.691
 3588POPC   GL247978   0.703   2.980   5.683
 3588POPC   C1A47979   0.241   2.784   6.137
 3588POPC   D2A47980   0.410   2.642   6.546
 3588POPC   C3A47981   0.270   2.769   6.956
 3588POPC   C4A47982   0.389   2.673   7.366
 3588POPC   C1B47983   0.781   2.879   6.133
 3588POPC   C2B47984   0.874   2.867   6.589
 3588POPC   C3B47985   0.765   2.772   7.017
 3588POPC   C4B47986   0.736   3.026   7.423
 3589POPC   NC347987   8.715  27.619   5.281
 3589POPC   PO447988   9.222  27.409   5.476
 3589POPC   GL147989   8.989  27.690   5.732
 3589POPC   GL247990   9.118  28.034   5.739
 3589POPC   C1A47991   8.823  27.641   6.155
 3589POPC   D2A47992   8.979  27.764   6.567
 3589POPC   C3A47993   8.826  27.632   6.988
 3589POPC   C4A47994   8.836  27.407   7.395
 3589POPC   C1B47995   9.295  27.839   6.147
 3589POPC   C2B47996   9.464  27.621   6.518
 3589POPC   C3B47997   9.321  27.795   6.938
 3589POPC   C4B47998   9.129  27.822   7.353
 3590POPC   NC347999  35.413  18.462   5.235
 3590POPC   PO448000  35.767  17.964   5.363
 3590POPC   GL148001  35.551  18.149   5.741
 3590POPC   GL248002  35.214  18.045   5.878
 3590POPC   C1A48003  35.582  18.218   6.195
 3590POPC   D2A48004  35.655  18.142   6.633
 3590POPC   C3A48005  35.602  18.445   6.961
 3590POPC   C4A48006  35.615  18.315   7.370
 3590POPC   C1B48007  35.085  18.345   6.204
 3590POPC   C2B48008  35.150  18.365   6.678
 3590POPC   C3B48009  35.206  18.167   7.094
 3590POPC   C4B48010  35.140  18.228   7.569
 3591POPC   NC348011   3.378  22.066   5.456
 3591POPC   PO448012   4.037  21.728   5.537
 3591POPC   GL148013   3.691  21.882   5.844
 3591POPC   GL248014   3.312  21.891   5.914
 3591POPC   C1A48015   3.634  22.063   6.268
 3591POPC   D2A48016   3.494  21.896   6.660
 3591POPC   C3A48017   3.646  22.096   7.041
 3591POPC   C4A48018   3.748  22.053   7.473
 3591POPC   C1B48019   3.120  21.837   6.275
 3591POPC   C2B48020   2.958  21.999   6.615
 3591POPC   C3B48021   3.139  22.119   6.966
 3591POPC   C4B48022   3.245  22.212   7.377
 3592POPC   NC348023  13.424  17.426   5.445
 3592POPC   PO448024  14.079  17.656   5.406
 3592POPC   GL148025  13.805  17.658   5.763
 3592POPC   GL248026  13.833  17.320   5.750
 3592POPC   C1A48027  13.490  17.639   6.126
 3592POPC   D2A48028  13.358  17.452   6.529
 3592POPC   C3A48029  13.441  17.640   6.932
 3592POPC   C4A48030  13.584  17.736   7.401
 3592POPC   C1B48031  13.847  17.245   6.129
 3592POPC   C2B48032  13.883  17.416   6.487
 3592POPC   C3B48033  13.942  17.253   6.845
 3592POPC   C4B48034  13.694  17.282   7.192
 3593POPC   NC348035  30.135  17.812   5.328
 3593POPC   PO448036  29.552  18.094   5.241
 3593POPC   GL148037  29.916  18.236   5.516
 3593POPC   GL248038  29.988  18.583   5.641
 3593POPC   C1A48039  29.956  18.157   5.973
 3593POPC   D2A48040  29.774  18.279   6.382
 3593POPC   C3A48041  29.787  18.287   6.866
 3593POPC   C4A48042  29.562  18.246   7.289
 3593POPC   C1B48043  29.994  18.670   6.109
 3593POPC   C2B48044  30.128  18.603   6.564
 3593POPC   C3B48045  30.047  18.777   6.975
 3593POPC   C4B48046  29.976  18.532   7.315
 3594POPC   NC348047  31.834  25.834   5.647
 3594POPC   PO448048  32.595  25.689   5.584
 3594POPC   GL148049  32.369  25.891   5.900
 3594POPC   GL248050  32.172  26.176   5.845
 3594POPC   C1A48051  32.374  25.967   6.326
 3594POPC   D2A48052  32.425  25.768   6.686
 3594POPC   C3A48053  32.329  26.047   7.009
 3594POPC   C4A48054  32.382  25.942   7.414
 3594POPC   C1B48055  31.916  26.183   6.239
 3594POPC   C2B48056  31.960  25.987   6.659
 3594POPC   C3B48057  31.843  26.245   7.008
 3594POPC   C4B48058  32.000  26.256   7.407
 3595POPC   NC348059  18.732  38.595   5.446
 3595POPC   PO448060  19.383  38.535   5.416
 3595POPC   GL148061  19.286  38.326   5.790
 3595POPC   GL248062  18.917  38.305   5.835
 3595POPC   C1A48063  19.238  38.461   6.203
 3595POPC   D2A48064  18.943  38.418   6.534
 3595POPC   C3A48065  19.108  38.330   6.906
 3595POPC   C4A48066  19.140  38.548   7.274
 3595POPC   C1B48067  18.791  38.689   6.111
 3595POPC   C2B48068  18.666  38.843   6.549
 3595POPC   C3B48069  18.697  38.652   6.962
 3595POPC   C4B48070  18.779  38.881   7.318
 3596POPC   NC348071  37.089  23.977   5.578
 3596POPC   PO448072  36.619  23.561   5.429
 3596POPC   GL148073  36.880  23.509   5.787
 3596POPC   GL248074  36.665  23.796   5.888
 3596POPC   C1A48075  37.185  23.639   6.141
 3596POPC   D2A48076  37.055  23.892   6.527
 3596POPC   C3A48077  37.117  23.720   6.936
 3596POPC   C4A48078  37.058  23.914   7.342
 3596POPC   C1B48079  36.700  23.607   6.294
 3596POPC   C2B48080  36.695  23.502   6.745
 3596POPC   C3B48081  36.622  23.631   7.197
 3596POPC   C4B48082  36.701  23.744   7.659
 3597POPC   NC348083   5.509  40.779   5.143
 3597POPC   PO448084   5.995  40.504   5.459
 3597POPC   GL148085   5.910  40.837   5.811
 3597POPC   GL248086   5.563  40.948   5.648
 3597POPC   C1A48087   6.189  41.072   6.182
 3597POPC   D2A48088   6.278  41.250   6.628
 3597POPC   C3A48089   6.303  40.876   6.929
 3597POPC   C4A48090   6.144  40.496   7.153
 3597POPC   C1B48091   5.436  40.876   6.066
 3597POPC   C2B48092   5.522  41.087   6.451
 3597POPC   C3B48093   5.343  41.096   6.815
 3597POPC   C4B48094   5.614  40.971   7.116
 3598POPC   NC348095   9.933  11.507   5.526
 3598POPC   PO448096   9.765  12.199   5.285
 3598POPC   GL148097   9.617  12.246   5.707
 3598POPC   GL248098   9.568  11.906   5.755
 3598POPC   C1A48099   9.624  12.259   6.154
 3598POPC   D2A48100   9.827  12.184   6.534
 3598POPC   C3A48101   9.835  12.397   6.930
 3598POPC   C4A48102  10.067  12.134   7.180
 3598POPC   C1B48103   9.340  11.830   6.164
 3598POPC   C2B48104   9.351  11.950   6.587
 3598POPC   C3B48105   9.548  11.990   6.973
 3598POPC   C4B48106   9.479  12.204   7.343
 3599POPC   NC348107  42.346  27.726   5.547
 3599POPC   PO448108  42.791  27.199   5.496
 3599POPC   GL148109  42.631  27.435   5.866
 3599POPC   GL248110  42.741  27.784   5.906
 3599POPC   C1A48111  42.382  27.444   6.288
 3599POPC   D2A48112  42.018  27.436   6.624
 3599POPC   C3A48113  42.183  27.424   7.064
 3599POPC   C4A48114  42.638  27.475   7.092
 3599POPC   C1B48115  42.396  27.951   6.147
 3599POPC   C2B48116  42.251  27.900   6.546
 3599POPC   C3B48117  42.358  27.870   6.949
 3599POPC   C4B48118  42.032  27.898   7.271
 3600POPC   NC348119  22.659  39.756   5.327
 3600POPC   PO448120  23.214  40.131   5.208
 3600POPC   GL148121  22.989  40.082   5.638
 3600POPC   GL248122  22.602  40.122   5.689
 3600POPC   C1A48123  23.098  40.159   6.080
 3600POPC   D2A48124  23.187  39.864   6.434
 3600POPC   C3A48125  23.311  40.024   6.842
 3600POPC   C4A48126  23.151  39.853   7.215
 3600POPC   C1B48127  22.651  39.907   6.058
 3600POPC   C2B48128  22.718  40.043   6.455
 3600POPC   C3B48129  22.789  40.084   6.870
 3600POPC   C4B48130  22.977  40.323   7.174
 3601POPC   NC348131  44.978  21.996   5.551
 3601POPC   PO448132  44.467  22.447   5.399
 3601POPC   GL148133  44.803  22.408   5.784
 3601POPC   GL248134  44.778  22.130   6.023
 3601POPC   C1A48135  44.990  22.561   6.208
 3601POPC   D2A48136  44.800  22.645   6.643
 3601POPC   C3A48137  44.870  22.543   7.108
 3601POPC   C4A48138  44.783  22.391   7.548
 3601POPC   C1B48139  44.697  21.829   6.361
 3601POPC   C2B48140  44.749  22.090   6.742
 3601POPC   C3B48141  44.643  22.068   7.158
 3601POPC   C4B48142  44.425  21.707   7.225
 3602POPC   NC348143   8.788  36.034   5.409
 3602POPC   PO448144   9.303  36.399   5.570
 3602POPC   GL148145   8.917  36.323   5.832
 3602POPC   GL248146   8.625  36.476   5.683
 3602POPC   C1A48147   8.805  36.226   6.283
 3602POPC   D2A48148   8.987  36.344   6.691
 3602POPC   C3A48149   8.900  36.139   7.078
 3602POPC   C4A48150   9.031  35.924   7.459
 3602POPC   C1B48151   8.614  36.662   6.116
 3602POPC   C2B48152   8.552  36.615   6.592
 3602POPC   C3B48153   8.660  36.595   7.061
 3602POPC   C4B48154   8.659  36.339   7.482
 3603POPC   NC348155  42.219  32.641   5.433
 3603POPC   PO448156  42.302  32.000   5.267
 3603POPC   GL148157  42.181  32.028   5.699
 3603POPC   GL248158  41.852  32.106   5.576
 3603POPC   C1A48159  42.310  32.180   6.138
 3603POPC   D2A48160  42.579  32.084   6.515
 3603POPC   C3A48161  42.403  32.213   6.909
 3603POPC   C4A48162  42.058  32.434   7.090
 3603POPC   C1B48163  41.809  32.091   6.033
 3603POPC   C2B48164  41.901  32.039   6.449
 3603POPC   C3B48165  41.878  32.016   6.878
 3603POPC   C4B48166  42.153  31.887   7.225
 3604POPC   NC348167  18.716  14.866   5.515
 3604POPC   PO448168  18.177  15.211   5.264
 3604POPC   GL148169  18.263  15.196   5.707
 3604POPC   GL248170  18.588  15.351   5.720
 3604POPC   C1A48171  18.159  15.015   6.124
 3604POPC   D2A48172  18.330  14.970   6.535
 3604POPC   C3A48173  18.129  14.873   6.925
 3604POPC   C4A48174  18.225  14.991   7.371
 3604POPC   C1B48175  18.627  15.186   6.139
 3604POPC   C2B48176  18.615  15.380   6.545
 3604POPC   C3B48177  18.456  15.274   6.943
 3604POPC   C4B48178  18.513  15.431   7.341
 3605POPC   NC348179  38.227   0.942   5.355
 3605POPC   PO448180  38.668   1.464   5.419
 3605POPC   GL148181  38.538   1.356   5.819
 3605POPC   GL248182  38.195   1.251   5.765
 3605POPC   C1A48183  38.413   1.436   6.230
 3605POPC   D2A48184  38.585   1.229   6.568
 3605POPC   C3A48185  38.385   1.181   6.937
 3605POPC   C4A48186  38.479   1.368   7.342
 3605POPC   C1B48187  38.261   0.964   6.079
 3605POPC   C2B48188  38.244   0.842   6.504
 3605POPC   C3B48189  38.111   0.715   6.909
 3605POPC   C4B48190  38.168   0.881   7.332
 3606POPC   NC348191  44.807  33.966   5.450
 3606POPC   PO448192  44.408  33.413   5.600
 3606POPC   GL148193  44.465  33.648   5.957
 3606POPC   GL248194  44.404  33.951   5.777
 3606POPC   C1A48195  44.815  33.865   6.150
 3606POPC   D2A48196   0.076  33.853   6.498
 3606POPC   C3A48197  44.868  33.807   6.850
 3606POPC   C4A48198  44.857  34.055   7.205
 3606POPC   C1B48199  44.380  34.145   6.155
 3606POPC   C2B48200  44.438  33.871   6.517
 3606POPC   C3B48201  44.404  33.985   6.940
 3606POPC   C4B48202  44.523  33.686   7.243
 3607POPC   NC348203  10.312  23.537   5.159
 3607POPC   PO448204  10.423  23.864   5.724
 3607POPC   GL148205  10.717  23.772   6.032
 3607POPC   GL248206  10.920  23.450   6.022
 3607POPC   C1A48207  10.495  23.831   6.411
 3607POPC   D2A48208  10.181  23.610   6.657
 3607POPC   C3A48209  10.339  23.742   7.048
 3607POPC   C4A48210  10.710  24.030   7.057
 3607POPC   C1B48211  10.518  23.327   6.210
 3607POPC   C2B48212  10.624  23.366   6.618
 3607POPC   C3B48213  10.608  23.302   7.030
 3607POPC   C4B48214  10.763  23.592   7.313
 3608POPC   NC348215  33.697  42.003   5.614
 3608POPC   PO448216  34.096  42.536   5.545
 3608POPC   GL148217  33.863  42.576   5.947
 3608POPC   GL248218  33.539  42.451   5.889
 3608POPC   C1A48219  33.775  42.510   6.411
 3608POPC   D2A48220  34.013  42.223   6.691
 3608POPC   C3A48221  33.872  42.071   7.088
 3608POPC   C4A48222  34.004  42.078   7.527
 3608POPC   C1B48223  33.415  42.164   6.211
 3608POPC   C2B48224  33.304  42.271   6.620
 3608POPC   C3B48225  33.549  42.446   6.946
 3608POPC   C4B48226  33.605  42.361   7.413
 3609POPC   NC348227  20.465  12.367   5.534
 3609POPC   PO448228  20.446  13.106   5.486
 3609POPC   GL148229  20.617  12.862   5.879
 3609POPC   GL248230  20.798  12.544   5.881
 3609POPC   C1A48231  20.521  12.650   6.313
 3609POPC   D2A48232  20.395  12.620   6.776
 3609POPC   C3A48233  20.625  12.851   7.127
 3609POPC   C4A48234  20.853  13.270   7.149
 3609POPC   C1B48235  21.048  12.611   6.277
 3609POPC   C2B48236  21.027  12.709   6.736
 3609POPC   C3B48237  21.089  12.645   7.184
 3609POPC   C4B48238  20.930  12.650   7.625
 3610POPC   NC348239  27.304  26.750   5.450
 3610POPC   PO448240  26.611  26.677   5.380
 3610POPC   GL148241  26.861  26.696   5.730
 3610POPC   GL248242  26.671  27.020   5.780
 3610POPC   C1A48243  26.848  26.690   6.167
 3610POPC   D2A48244  26.778  26.905   6.511
 3610POPC   C3A48245  26.898  26.723   6.864
 3610POPC   C4A48246  26.925  26.543   7.250
 3610POPC   C1B48247  26.671  27.250   6.136
 3610POPC   C2B48248  26.742  27.412   6.528
 3610POPC   C3B48249  26.626  27.197   6.900
 3610POPC   C4B48250  26.779  27.032   7.281
 3611POPC   NC348251  22.517   5.207   5.236
 3611POPC   PO448252  22.992   4.785   5.426
 3611POPC   GL148253  22.713   5.024   5.683
 3611POPC   GL248254  22.867   5.305   5.877
 3611POPC   C1A48255  22.510   5.001   6.084
 3611POPC   D2A48256  22.438   5.146   6.498
 3611POPC   C3A48257  22.728   5.043   6.800
 3611POPC   C4A48258  22.911   4.848   7.162
 3611POPC   C1B48259  22.901   5.335   6.343
 3611POPC   C2B48260  23.168   5.314   6.721
 3611POPC   C3B48261  23.253   5.342   7.145
 3611POPC   C4B48262  23.141   5.181   7.522
 3612POPC   NC348263  27.616  28.716   5.463
 3612POPC   PO448264  27.449  28.090   5.548
 3612POPC   GL148265  27.678  28.387   5.862
 3612POPC   GL248266  27.972  28.678   5.839
 3612POPC   C1A48267  27.436  28.489   6.271
 3612POPC   D2A48268  27.339  28.253   6.669
 3612POPC   C3A48269  27.398  28.457   7.025
 3612POPC   C4A48270  27.083  28.672   7.211
 3612POPC   C1B48271  27.938  28.612   6.257
 3612POPC   C2B48272  27.793  28.569   6.657
 3612POPC   C3B48273  28.025  28.594   7.022
 3612POPC   C4B48274  27.859  28.627   7.405
 3613POPC   NC348275  12.178  12.627   5.590
 3613POPC   PO448276  11.866  13.214   5.537
 3613POPC   GL148277  11.842  13.020   5.913
 3613POPC   GL248278  12.194  12.981   5.952
 3613POPC   C1A48279  11.835  12.707   6.232
 3613POPC   D2A48280  12.036  12.689   6.627
 3613POPC   C3A48281  11.834  12.728   7.025
 3613POPC   C4A48282  11.985  12.982   7.389
 3613POPC   C1B48283  12.407  12.739   6.247
 3613POPC   C2B48284  12.520  12.887   6.629
 3613POPC   C3B48285  12.315  12.879   7.011
 3613POPC   C4B48286  12.249  12.555   7.300
 3614POPC   NC348287  14.314   7.720   5.523
 3614POPC   PO448288  14.575   8.305   5.321
 3614POPC   GL148289  14.346   8.272   5.736
 3614POPC   GL248290  14.158   8.580   5.838
 3614POPC   C1A48291  14.119   8.152   6.137
 3614POPC   D2A48292  13.963   8.257   6.572
 3614POPC   C3A48293  14.182   8.043   6.933
 3614POPC   C4A48294  14.285   7.950   7.372
 3614POPC   C1B48295  14.484   8.544   6.198
 3614POPC   C2B48296  14.784   8.427   6.550
 3614POPC   C3B48297  14.679   8.388   7.007
 3614POPC   C4B48298  14.274   8.451   7.241
 3615POPC   NC348299  38.988  20.346   4.989
 3615POPC   PO448300  38.563  20.024   5.231
 3615POPC   GL148301  38.582  19.889   5.738
 3615POPC   GL248302  38.338  19.635   5.880
 3615POPC   C1A48303  38.622  19.913   6.246
 3615POPC   D2A48304  38.366  20.022   6.643
 3615POPC   C3A48305  38.465  19.878   7.071
 3615POPC   C4A48306  38.253  19.828   7.484
 3615POPC   C1B48307  38.139  19.743   6.284
 3615POPC   C2B48308  38.127  19.561   6.726
 3615POPC   C3B48309  38.315  19.377   7.138
 3615POPC   C4B48310  38.261  19.247   7.609
 3616POPC   NC348311   1.146   6.329   5.334
 3616POPC   PO448312   1.434   6.969   5.254
 3616POPC   GL148313   1.395   6.643   5.661
 3616POPC   GL248314   1.087   6.534   5.821
 3616POPC   C1A48315   1.479   6.483   6.115
 3616POPC   D2A48316   1.280   6.353   6.517
 3616POPC   C3A48317   1.308   6.619   6.867
 3616POPC   C4A48318   1.446   6.733   7.270
 3616POPC   C1B48319   0.945   6.608   6.233
 3616POPC   C2B48320   0.878   6.803   6.647
 3616POPC   C3B48321   1.009   7.043   7.013
 3616POPC   C4B48322   0.950   7.118   7.453
 3617POPC   NC348323  42.427  17.242   5.658
 3617POPC   PO448324  42.682  17.820   5.234
 3617POPC   GL148325  42.647  17.696   5.688
 3617POPC   GL248326  42.464  17.985   5.858
 3617POPC   C1A48327  42.626  17.629   6.181
 3617POPC   D2A48328  42.271  17.550   6.500
 3617POPC   C3A48329  42.346  17.451   6.965
 3617POPC   C4A48330  42.507  17.060   7.219
 3617POPC   C1B48331  42.332  18.039   6.328
 3617POPC   C2B48332  42.352  17.964   6.795
 3617POPC   C3B48333  42.278  17.925   7.249
 3617POPC   C4B48334  42.328  17.879   7.718
 3618POPC   NC348335   7.920   2.347   5.271
 3618POPC   PO448336   8.017   1.692   5.271
 3618POPC   GL148337   7.973   1.894   5.693
 3618POPC   GL248338   7.861   2.223   5.772
 3618POPC   C1A48339   8.002   1.931   6.179
 3618POPC   D2A48340   8.165   1.683   6.539
 3618POPC   C3A48341   8.303   1.843   6.952
 3618POPC   C4A48342   8.054   1.771   7.304
 3618POPC   C1B48343   7.672   2.374   6.160
 3618POPC   C2B48344   7.731   2.222   6.579
 3618POPC   C3B48345   7.993   2.270   6.952
 3618POPC   C4B48346   7.860   2.503   7.300
 3619POPC   NC348347  26.469  36.609   5.392
 3619POPC   PO448348  25.934  36.876   5.279
 3619POPC   GL148349  25.805  36.779   5.719
 3619POPC   GL248350  25.808  37.106   5.863
 3619POPC   C1A48351  26.131  36.753   6.078
 3619POPC   D2A48352  26.379  36.813   6.482
 3619POPC   C3A48353  26.139  36.779   6.902
 3619POPC   C4A48354  25.790  36.776   7.222
 3619POPC   C1B48355  26.061  37.241   6.250
 3619POPC   C2B48356  26.210  37.254   6.678
 3619POPC   C3B48357  26.018  37.255   7.051
 3619POPC   C4B48358  25.597  37.234   7.159
 3620POPC   NC348359   7.440  37.095   5.180
 3620POPC   PO448360   6.952  36.639   5.401
 3620POPC   GL148361   7.253  36.694   5.773
 3620POPC   GL248362   7.600  36.598   5.865
 3620POPC   C1A48363   7.418  37.029   6.071
 3620POPC   D2A48364   7.673  37.070   6.462
 3620POPC   C3A48365   7.453  37.253   6.833
 3620POPC   C4A48366   7.349  37.275   7.267
 3620POPC   C1B48367   7.448  36.581   6.305
 3620POPC   C2B48368   7.348  36.778   6.706
 3620POPC   C3B48369   7.309  36.766   7.125
 3620POPC   C4B48370   7.290  36.441   7.412
 3621POPC   NC348371  23.093  31.784   5.571
 3621POPC   PO448372  23.036  31.151   5.523
 3621POPC   GL148373  22.848  31.299   5.878
 3621POPC   GL248374  22.578  31.417   5.672
 3621POPC   C1A48375  22.998  31.571   6.221
 3621POPC   D2A48376  23.087  31.770   6.602
 3621POPC   C3A48377  23.058  31.484   6.939
 3621POPC   C4A48378  22.810  31.270   7.222
 3621POPC   C1B48379  22.594  31.749   5.979
 3621POPC   C2B48380  22.580  31.812   6.426
 3621POPC   C3B48381  22.506  31.721   6.851
 3621POPC   C4B48382  22.728  31.772   7.225
 3622POPC   NC348383   6.565  18.251   5.315
 3622POPC   PO448384   7.205  18.287   5.207
 3622POPC   GL148385   6.987  18.316   5.632
 3622POPC   GL248386   6.763  18.026   5.744
 3622POPC   C1A48387   6.857  18.411   6.071
 3622POPC   D2A48388   6.838  18.205   6.488
 3622POPC   C3A48389   6.586  18.334   6.847
 3622POPC   C4A48390   6.657  18.512   7.256
 3622POPC   C1B48391   6.571  17.911   6.140
 3622POPC   C2B48392   6.331  17.965   6.534
 3622POPC   C3B48393   6.132  18.077   6.895
 3622POPC   C4B48394   6.327  18.078   7.284
 3623POPC   NC348395  14.318  25.681   5.364
 3623POPC   PO448396  14.242  25.028   5.438
 3623POPC   GL148397  14.309  25.366   5.776
 3623POPC   GL248398  14.067  25.660   5.817
 3623POPC   C1A48399  14.432  25.361   6.230
 3623POPC   D2A48400  14.268  25.254   6.649
 3623POPC   C3A48401  14.552  25.324   7.009
 3623POPC   C4A48402  14.581  25.480   7.458
 3623POPC   C1B48403  14.188  25.838   6.226
 3623POPC   C2B48404  14.067  25.750   6.669
 3623POPC   C3B48405  13.978  25.564   7.075
 3623POPC   C4B48406  14.074  25.492   7.510
 3624POPC   NC348407  40.427  24.337   5.549
 3624POPC   PO448408  41.059  24.364   5.551
 3624POPC   GL148409  40.790  24.390   5.911
 3624POPC   GL248410  40.549  24.714   5.871
 3624POPC   C1A48411  40.856  24.189   6.329
 3624POPC   D2A48412  40.620  24.061   6.703
 3624POPC   C3A48413  40.673  24.358   7.033
 3624POPC   C4A48414  40.986  24.356   7.329
 3624POPC   C1B48415  40.706  24.715   6.297
 3624POPC   C2B48416  40.829  24.800   6.716
 3624POPC   C3B48417  40.559  24.873   7.032
 3624POPC   C4B48418  40.475  24.708   7.404
 3625POPC   NC348419  37.588  24.131   5.270
 3625POPC   PO448420  37.828  24.706   5.532
 3625POPC   GL148421  37.540  24.520   5.808
 3625POPC   GL248422  37.534  24.149   5.783
 3625POPC   C1A48423  37.566  24.642   6.227
 3625POPC   D2A48424  37.917  24.727   6.516
 3625POPC   C3A48425  37.789  24.501   6.871
 3625POPC   C4A48426  37.496  24.619   7.142
 3625POPC   C1B48427  37.322  24.165   6.160
 3625POPC   C2B48428  37.436  24.244   6.560
 3625POPC   C3B48429  37.304  24.189   6.959
 3625POPC   C4B48430  37.653  24.106   7.210
 3626POPC   NC348431   4.622  12.916   5.532
 3626POPC   PO448432   4.192  12.423   5.246
 3626POPC   GL148433   4.176  12.618   5.670
 3626POPC   GL248434   3.876  12.659   5.823
 3626POPC   C1A48435   4.357  12.769   6.140
 3626POPC   D2A48436   4.601  12.956   6.475
 3626POPC   C3A48437   4.427  12.845   6.872
 3626POPC   C4A48438   4.378  12.551   7.220
 3626POPC   C1B48439   3.954  12.478   6.233
 3626POPC   C2B48440   4.169  12.458   6.655
 3626POPC   C3B48441   3.901  12.480   7.030
 3626POPC   C4B48442   3.933  12.605   7.495
 3627POPC   NC348443  35.361  42.015   5.443
 3627POPC   PO448444  35.161  42.619   5.558
 3627POPC   GL148445  35.259  42.387   5.892
 3627POPC   GL248446  35.449  42.663   6.046
 3627POPC   C1A48447  35.206  42.353   6.348
 3627POPC   D2A48448  35.259  42.557   6.726
 3627POPC   C3A48449  35.025  42.336   7.043
 3627POPC   C4A48450  34.846  42.429   7.463
 3627POPC   C1B48451  35.824  42.778   6.337
 3627POPC   C2B48452  35.824  42.810   6.818
 3627POPC   C3B48453  35.611  42.510   7.091
 3627POPC   C4B48454  35.467  42.152   7.276
 3628POPC   NC348455  20.102   2.505   5.439
 3628POPC   PO448456  19.647   3.025   5.440
 3628POPC   GL148457  19.733   2.722   5.738
 3628POPC   GL248458  20.029   2.718   5.901
 3628POPC   C1A48459  19.580   2.520   6.065
 3628POPC   D2A48460  19.602   2.541   6.476
 3628POPC   C3A48461  19.527   2.432   6.874
 3628POPC   C4A48462  19.723   2.725   7.162
 3628POPC   C1B48463  20.082   2.558   6.316
 3628POPC   C2B48464  20.037   2.551   6.783
 3628POPC   C3B48465  20.229   2.696   7.202
 3628POPC   C4B48466  20.008   2.625   7.614
 3629POPC   NC348467  31.959  13.112   5.313
 3629POPC   PO448468  32.510  12.734   5.421
 3629POPC   GL148469  32.220  12.872   5.702
 3629POPC   GL248470  32.499  13.018   5.889
 3629POPC   C1A48471  31.977  13.015   6.027
 3629POPC   D2A48472  31.868  12.975   6.457
 3629POPC   C3A48473  32.070  13.176   6.818
 3629POPC   C4A48474  32.173  12.898   7.206
 3629POPC   C1B48475  32.380  13.031   6.329
 3629POPC   C2B48476  32.335  12.767   6.665
 3629POPC   C3B48477  32.605  12.712   7.007
 3629POPC   C4B48478  32.720  12.662   7.432
 3630POPC   NC348479  18.920  16.243   5.310
 3630POPC   PO448480  19.258  15.776   4.984
 3630POPC   GL148481  19.185  15.798   5.511
 3630POPC   GL248482  18.861  15.799   5.697
 3630POPC   C1A48483  19.286  15.946   5.980
 3630POPC   D2A48484  19.157  15.980   6.448
 3630POPC   C3A48485  18.880  16.113   6.800
 3630POPC   C4A48486  19.201  16.154   7.115
 3630POPC   C1B48487  18.916  15.606   6.136
 3630POPC   C2B48488  19.098  15.495   6.549
 3630POPC   C3B48489  19.087  15.680   6.964
 3630POPC   C4B48490  18.802  15.880   7.302
 3631POPC   NC348491  27.142  43.436   5.522
 3631POPC   PO448492  26.640  43.049   5.414
 3631POPC   GL148493  26.807  43.164   5.806
 3631POPC   GL248494  26.717  43.515   5.833
 3631POPC   C1A48495  27.137  43.210   6.140
 3631POPC   D2A48496  27.345  42.958   6.462
 3631POPC   C3A48497  27.074  42.961   6.819
 3631POPC   C4A48498  27.007  42.964   7.244
 3631POPC   C1B48499  26.606  43.366   6.245
 3631POPC   C2B48500  26.467  43.169   6.615
 3631POPC   C3B48501  26.610  43.197   7.036
 3631POPC   C4B48502  26.674  43.228   7.522
 3632POPC   NC348503  44.132  42.634   5.471
 3632POPC   PO448504  44.660  43.064   5.327
 3632POPC   GL148505  44.535  42.926   5.723
 3632POPC   GL248506  44.318  43.140   5.819
 3632POPC   C1A48507  44.730  42.993   6.142
 3632POPC   D2A48508  44.694  42.872   6.579
 3632POPC   C3A48509  44.787  43.171   6.884
 3632POPC   C4A48510  44.651  42.997   7.267
 3632POPC   C1B48511  44.352  43.359   6.206
 3632POPC   C2B48512  44.128  43.330   6.595
 3632POPC   C3B48513  44.288  43.296   7.025
 3632POPC   C4B48514  44.627  43.501   7.246
 3633POPC   NC348515  31.629  10.844   5.452
 3633POPC   PO448516  31.488  11.539   5.376
 3633POPC   GL148517  31.379  11.236   5.736
 3633POPC   GL248518  31.057  11.050   5.746
 3633POPC   C1A48519  31.542  11.167   6.154
 3633POPC   D2A48520  31.605  11.427   6.514
 3633POPC   C3A48521  31.550  11.314   6.946
 3633POPC   C4A48522  31.696  11.523   7.300
 3633POPC   C1B48523  31.054  11.063   6.210
 3633POPC   C2B48524  31.148  11.206   6.650
 3633POPC   C3B48525  31.151  10.961   7.064
 3633POPC   C4B48526  31.218  11.003   7.552
 3634POPC   NC348527  20.118  20.525   5.423
 3634POPC   PO448528  19.628  20.957   5.294
 3634POPC   GL148529  19.860  20.839   5.725
 3634POPC   GL248530  19.713  20.519   5.786
 3634POPC   C1A48531  20.070  20.633   6.141
 3634POPC   D2A48532  20.187  20.461   6.576
 3634POPC   C3A48533  20.008  20.396   7.012
 3634POPC   C4A48534  20.086  20.684   7.398
 3634POPC   C1B48535  19.576  20.610   6.208
 3634POPC   C2B48536  19.572  20.431   6.620
 3634POPC   C3B48537  19.371  20.464   7.014
 3634POPC   C4B48538  19.596  20.568   7.399
 3635POPC   NC348539   4.230  17.791   5.414
 3635POPC   PO448540   4.721  17.270   5.434
 3635POPC   GL148541   4.350  17.231   5.724
 3635POPC   GL248542   4.245  17.574   5.879
 3635POPC   C1A48543   4.204  17.148   6.159
 3635POPC   D2A48544   4.019  17.379   6.517
 3635POPC   C3A48545   4.269  17.717   6.734
 3635POPC   C4A48546   4.468  17.653   7.139
 3635POPC   C1B48547   4.047  17.834   6.228
 3635POPC   C2B48548   3.758  17.812   6.615
 3635POPC   C3B48549   3.837  17.624   6.993
 3635POPC   C4B48550   4.061  17.940   7.211
 3636POPC   NC348551   5.934  29.172   5.418
 3636POPC   PO448552   5.603  29.760   5.329
 3636POPC   GL148553   5.740  29.547   5.717
 3636POPC   GL248554   6.135  29.444   5.820
 3636POPC   C1A48555   5.722  29.437   6.161
 3636POPC   D2A48556   6.085  29.355   6.464
 3636POPC   C3A48557   6.031  29.352   6.913
 3636POPC   C4A48558   5.651  29.430   7.132
 3636POPC   C1B48559   6.342  29.094   6.113
 3636POPC   C2B48560   6.418  28.922   6.570
 3636POPC   C3B48561   6.333  28.831   7.018
 3636POPC   C4B48562   6.073  28.732   7.415
 3637POPC   NC348563  19.524  28.027   5.394
 3637POPC   PO448564  19.916  28.640   5.438
 3637POPC   GL148565  19.674  28.452   5.771
 3637POPC   GL248566  19.856  28.164   5.796
 3637POPC   C1A48567  19.600  28.270   6.227
 3637POPC   D2A48568  19.442  28.180   6.666
 3637POPC   C3A48569  19.487  28.405   7.055
 3637POPC   C4A48570  19.832  28.673   7.216
 3637POPC   C1B48571  20.094  28.045   6.169
 3637POPC   C2B48572  20.211  28.215   6.575
 3637POPC   C3B48573  19.979  28.248   6.967
 3637POPC   C4B48574  20.150  28.292   7.383
 3638POPC   NC348575  28.643  17.169   5.406
 3638POPC   PO448576  28.642  16.523   5.359
 3638POPC   GL148577  28.419  16.789   5.690
 3638POPC   GL248578  28.119  16.569   5.758
 3638POPC   C1A48579  28.223  16.950   6.093
 3638POPC   D2A48580  28.386  16.936   6.529
 3638POPC   C3A48581  28.171  16.959   6.885
 3638POPC   C4A48582  28.292  16.849   7.241
 3638POPC   C1B48583  28.467  16.410   6.032
 3638POPC   C2B48584  28.603  16.447   6.454
 3638POPC   C3B48585  28.390  16.468   6.853
 3638POPC   C4B48586  28.566  16.432   7.253
 3639POPC   NC348587  42.820  18.414   5.495
 3639POPC   PO448588  43.405  18.098   5.521
 3639POPC   GL148589  43.228  18.240   5.864
 3639POPC   GL248590  42.980  18.039   5.824
 3639POPC   C1A48591  43.227  18.459   6.255
 3639POPC   D2A48592  43.027  18.511   6.644
 3639POPC   C3A48593  43.205  18.285   6.971
 3639POPC   C4A48594  43.412  18.457   7.296
 3639POPC   C1B48595  42.827  18.125   6.213
 3639POPC   C2B48596  42.840  18.040   6.641
 3639POPC   C3B48597  42.699  18.217   7.060
 3639POPC   C4B48598  42.740  18.013   7.479
 3640POPC   NC348599  22.369  40.711   5.390
 3640POPC   PO448600  23.042  40.920   5.354
 3640POPC   GL148601  22.963  40.905   5.761
 3640POPC   GL248602  22.763  40.617   5.720
 3640POPC   C1A48603  22.993  40.779   6.195
 3640POPC   D2A48604  23.128  40.460   6.501
 3640POPC   C3A48605  23.024  40.706   6.847
 3640POPC   C4A48606  23.256  40.934   7.124
 3640POPC   C1B48607  22.654  40.430   6.110
 3640POPC   C2B48608  22.619  40.536   6.553
 3640POPC   C3B48609  22.559  40.551   7.000
 3640POPC   C4B48610  22.830  40.772   7.363
 3641POPC   NC348611  24.429  28.286   5.416
 3641POPC   PO448612  24.671  28.738   5.066
 3641POPC   GL148613  24.758  28.633   5.589
 3641POPC   GL248614  24.410  28.649   5.783
 3641POPC   C1A48615  24.775  28.425   6.044
 3641POPC   D2A48616  24.502  28.581   6.373
 3641POPC   C3A48617  24.546  28.435   6.783
 3641POPC   C4A48618  24.435  28.605   7.174
 3641POPC   C1B48619  24.255  28.276   6.048
 3641POPC   C2B48620  24.421  28.006   6.367
 3641POPC   C3B48621  24.396  27.951   6.798
 3641POPC   C4B48622  24.383  28.105   7.205
 3642POPC   NC348623  30.122  29.550   5.440
 3642POPC   PO448624  29.641  29.134   5.349
 3642POPC   GL148625  29.899  29.168   5.700
 3642POPC   GL248626  29.768  29.440   5.865
 3642POPC   C1A48627  30.043  29.070   6.112
 3642POPC   D2A48628  30.034  29.214   6.525
 3642POPC   C3A48629  30.019  28.887   6.804
 3642POPC   C4A48630  29.785  28.887   7.214
 3642POPC   C1B48631  29.628  29.604   6.280
 3642POPC   C2B48632  29.579  29.524   6.710
 3642POPC   C3B48633  29.852  29.360   7.029
 3642POPC   C4B48634  29.694  29.330   7.499
 3643POPC   NC348635  12.727  25.360   5.363
 3643POPC   PO448636  13.304  25.047   5.435
 3643POPC   GL148637  13.000  25.185   5.759
 3643POPC   GL248638  12.662  25.004   5.728
 3643POPC   C1A48639  12.886  25.345   6.165
 3643POPC   D2A48640  12.789  25.637   6.522
 3643POPC   C3A48641  12.864  25.509   6.950
 3643POPC   C4A48642  12.772  25.640   7.387
 3643POPC   C1B48643  12.497  25.004   6.137
 3643POPC   C2B48644  12.633  24.870   6.552
 3643POPC   C3B48645  12.919  25.000   6.892
 3643POPC   C4B48646  12.790  25.120   7.296
 3644POPC   NC348647  36.446  20.762   5.307
 3644POPC   PO448648  35.953  21.145   5.574
 3644POPC   GL148649  35.968  21.049   5.987
 3644POPC   GL248650  35.762  20.766   5.974
 3644POPC   C1A48651  36.018  20.891   6.426
 3644POPC   D2A48652  36.254  20.535   6.601
 3644POPC   C3A48653  36.356  20.516   7.051
 3644POPC   C4A48654  36.344  20.323   7.462
 3644POPC   C1B48655  35.869  20.416   6.179
 3644POPC   C2B48656  35.816  20.273   6.577
 3644POPC   C3B48657  35.840  20.557   6.911
 3644POPC   C4B48658  35.856  20.474   7.322
 3645POPC   NC348659  41.354  25.458   5.170
 3645POPC   PO448660  41.750  24.972   5.432
 3645POPC   GL148661  41.734  25.199   5.807
 3645POPC   GL248662  41.798  25.578   5.696
 3645POPC   C1A48663  41.723  25.101   6.259
 3645POPC   D2A48664  41.432  25.291   6.566
 3645POPC   C3A48665  41.342  25.127   6.963
 3645POPC   C4A48666  41.384  25.315   7.340
 3645POPC   C1B48667  41.596  25.647   6.119
 3645POPC   C2B48668  41.527  25.811   6.552
 3645POPC   C3B48669  41.591  25.664   6.981
 3645POPC   C4B48670  41.432  25.833   7.414
 3646POPC   NC348671  17.135  44.181   5.355
 3646POPC   PO448672  16.540  43.847   5.068
 3646POPC   GL148673  16.722  43.927   5.553
 3646POPC   GL248674  17.041  43.742   5.697
 3646POPC   C1A48675  16.824  44.042   6.037
 3646POPC   D2A48676  17.013  43.925   6.469
 3646POPC   C3A48677  16.844  44.083   6.868
 3646POPC   C4A48678  16.674  44.230   7.267
 3646POPC   C1B48679  16.950  43.548   6.104
 3646POPC   C2B48680  16.991  43.408   6.517
 3646POPC   C3B48681  16.915  43.560   6.926
 3646POPC   C4B48682  16.985  43.812   7.290
 3647POPC   NC348683   0.640  30.673   5.452
 3647POPC   PO448684   0.131  31.116   5.474
 3647POPC   GL148685   0.422  31.028   5.844
 3647POPC   GL248686   0.376  30.668   5.873
 3647POPC   C1A48687   0.420  30.937   6.320
 3647POPC   D2A48688   0.491  31.062   6.740
 3647POPC   C3A48689   0.577  30.733   7.109
 3647POPC   C4A48690   0.717  30.689   7.601
 3647POPC   C1B48691   0.284  30.438   6.235
 3647POPC   C2B48692   0.359  30.489   6.666
 3647POPC   C3B48693   0.351  30.270   7.027
 3647POPC   C4B48694   0.367  30.380   7.440
 3648POPC   NC348695  26.934   4.102   5.516
 3648POPC   PO448696  26.454   4.586   5.593
 3648POPC   GL148697  26.751   4.412   5.863
 3648POPC   GL248698  27.094   4.490   5.807
 3648POPC   C1A48699  26.741   4.268   6.248
 3648POPC   D2A48700  26.588   4.101   6.629
 3648POPC   C3A48701  26.743   4.253   6.995
 3648POPC   C4A48702  26.745   4.573   7.289
 3648POPC   C1B48703  27.243   4.211   6.145
 3648POPC   C2B48704  27.154   4.160   6.571
 3648POPC   C3B48705  27.255   4.120   6.993
 3648POPC   C4B48706  27.004   3.915   7.266
 3649POPC   NC348707  34.920  38.185   5.324
 3649POPC   PO448708  34.369  38.591   5.295
 3649POPC   GL148709  34.693  38.608   5.612
 3649POPC   GL248710  34.671  38.253   5.764
 3649POPC   C1A48711  34.731  38.632   6.094
 3649POPC   D2A48712  34.823  38.469   6.509
 3649POPC   C3A48713  34.721  38.623   6.925
 3649POPC   C4A48714  34.588  38.386   7.267
 3649POPC   C1B48715  34.950  38.120   6.140
 3649POPC   C2B48716  35.139  38.074   6.607
 3649POPC   C3B48717  35.045  38.261   7.045
 3649POPC   C4B48718  34.976  38.170   7.539
 3650POPC   NC348719  41.896   1.537   5.515
 3650POPC   PO448720  41.659   2.184   5.608
 3650POPC   GL148721  41.693   1.809   5.901
 3650POPC   GL248722  41.398   1.604   6.008
 3650POPC   C1A48723  41.760   1.840   6.338
 3650POPC   D2A48724  41.556   2.109   6.615
 3650POPC   C3A48725  41.622   1.923   6.984
 3650POPC   C4A48726  41.571   1.984   7.401
 3650POPC   C1B48727  41.253   1.901   6.270
 3650POPC   C2B48728  41.218   1.721   6.691
 3650POPC   C3B48729  41.111   1.938   7.060
 3650POPC   C4B48730  41.097   1.856   7.488
 3651POPC   NC348731   8.003  44.947   5.485
 3651POPC   PO448732   8.586  44.613   5.354
 3651POPC   GL148733   8.355  44.640   5.752
 3651POPC   GL248734   8.253  44.308   5.843
 3651POPC   C1A48735   8.160  44.791   6.171
 3651POPC   D2A48736   8.065  44.593   6.582
 3651POPC   C3A48737   7.965  44.785   6.986
 3651POPC   C4A48738   7.769  44.468   7.218
 3651POPC   C1B48739   8.467  44.405   6.268
 3651POPC   C2B48740   8.509  44.399   6.754
 3651POPC   C3B48741   8.240  44.347   7.060
 3651POPC   C4B48742   8.230  44.601   7.439
 3652POPC   NC348743  36.018  41.834   5.450
 3652POPC   PO448744  35.597  41.331   5.269
 3652POPC   GL148745  36.005  41.408   5.732
 3652POPC   GL248746  35.989  41.776   5.967
 3652POPC   C1A48747  36.273  41.431   6.145
 3652POPC   D2A48748  36.086  41.714   6.502
 3652POPC   C3A48749  36.168  41.593   6.934
 3652POPC   C4A48750  36.441  41.335   7.194
 3652POPC   C1B48751  35.769  41.409   6.215
 3652POPC   C2B48752  35.882  41.195   6.596
 3652POPC   C3B48753  35.976  41.126   7.023
 3652POPC   C4B48754  35.965  41.401   7.373
 3653POPC   NC348755   9.157  43.345   5.164
 3653POPC   PO448756   8.729  42.884   5.420
 3653POPC   GL148757   9.019  43.155   5.646
 3653POPC   GL248758   8.783  43.355   5.803
 3653POPC   C1A48759   9.132  43.110   6.101
 3653POPC   D2A48760   9.173  43.123   6.552
 3653POPC   C3A48761   8.942  42.837   6.811
 3653POPC   C4A48762   8.960  42.964   7.211
 3653POPC   C1B48763   8.596  43.240   6.264
 3653POPC   C2B48764   8.540  43.163   6.741
 3653POPC   C3B48765   8.617  43.370   7.155
 3653POPC   C4B48766   8.543  43.524   7.604
 3654POPC   NC348767  39.769  14.223   5.555
 3654POPC   PO448768  40.329  13.893   5.226
 3654POPC   GL148769  40.206  14.004   5.683
 3654POPC   GL248770  40.210  14.364   5.791
 3654POPC   C1A48771  40.201  14.020   6.184
 3654POPC   D2A48772  39.925  14.122   6.568
 3654POPC   C3A48773  39.955  14.272   7.032
 3654POPC   C4A48774  39.739  14.486   7.396
 3654POPC   C1B48775  40.133  14.569   6.214
 3654POPC   C2B48776  40.127  14.632   6.685
 3654POPC   C3B48777  40.355  14.613   7.093
 3654POPC   C4B48778  40.629  14.825   7.408
 3655POPC   NC348779  15.651   3.680   5.543
 3655POPC   PO448780  15.861   3.118   5.293
 3655POPC   GL148781  15.905   3.335   5.781
 3655POPC   GL248782  16.140   3.621   5.837
 3655POPC   C1A48783  15.825   3.591   6.201
 3655POPC   D2A48784  15.990   3.708   6.580
 3655POPC   C3A48785  15.785   3.497   6.930
 3655POPC   C4A48786  15.624   3.342   7.315
 3655POPC   C1B48787  16.308   3.392   6.268
 3655POPC   C2B48788  16.226   3.298   6.735
 3655POPC   C3B48789  16.243   3.485   7.162
 3655POPC   C4B48790  16.470   3.523   7.571
 3656POPC   NC348791  21.854  16.994   5.687
 3656POPC   PO448792  22.074  17.600   5.440
 3656POPC   GL148793  22.133  17.579   5.880
 3656POPC   GL248794  22.165  17.943   5.924
 3656POPC   C1A48795  22.118  17.335   6.283
 3656POPC   D2A48796  22.277  17.492   6.673
 3656POPC   C3A48797  22.283  17.295   7.073
 3656POPC   C4A48798  21.888  17.367   7.251
 3656POPC   C1B48799  22.341  17.856   6.300
 3656POPC   C2B48800  22.158  17.996   6.672
 3656POPC   C3B48801  22.083  17.809   7.050
 3656POPC   C4B48802  21.863  17.852   7.396
 3657POPC   NC348803  31.278  41.945   5.387
 3657POPC   PO448804  31.742  41.490   5.478
 3657POPC   GL148805  31.528  41.387   5.816
 3657POPC   GL248806  31.243  41.589   5.835
 3657POPC   C1A48807  31.605  41.518   6.208
 3657POPC   D2A48808  31.578  41.336   6.577
 3657POPC   C3A48809  31.695  41.557   6.950
 3657POPC   C4A48810  31.631  41.375   7.322
 3657POPC   C1B48811  31.167  41.235   6.180
 3657POPC   C2B48812  31.137  41.050   6.607
 3657POPC   C3B48813  31.258  41.262   6.998
 3657POPC   C4B48814  31.232  41.709   7.098
 3658POPC   NC348815  36.874  41.320   5.391
 3658POPC   PO448816  36.511  41.875   5.350
 3658POPC   GL148817  36.654  41.617   5.757
 3658POPC   GL248818  36.600  41.222   5.817
 3658POPC   C1A48819  37.026  41.605   6.087
 3658POPC   D2A48820  37.105  41.828   6.495
 3658POPC   C3A48821  37.171  41.694   6.908
 3658POPC   C4A48822  36.817  41.676   7.155
 3658POPC   C1B48823  36.739  41.234   6.280
 3658POPC   C2B48824  36.789  41.370   6.723
 3658POPC   C3B48825  36.905  41.154   7.110
 3658POPC   C4B48826  36.738  41.050   7.531
 3659POPC   NC348827  43.777  36.868   5.354
 3659POPC   PO448828  44.338  37.285   5.581
 3659POPC   GL148829  43.939  37.168   5.756
 3659POPC   GL248830  43.876  36.797   5.828
 3659POPC   C1A48831  43.795  37.160   6.182
 3659POPC   D2A48832  43.682  36.999   6.575
 3659POPC   C3A48833  43.978  37.057   6.877
 3659POPC   C4A48834  43.993  36.959   7.266
 3659POPC   C1B48835  44.027  36.603   6.184
 3659POPC   C2B48836  44.128  36.653   6.600
 3659POPC   C3B48837  44.238  36.532   7.016
 3659POPC   C4B48838  44.193  36.546   7.477
 3660POPC   NC348839   0.090  42.483   5.424
 3660POPC   PO448840   0.541  41.938   5.292
 3660POPC   GL148841   0.387  42.025   5.750
 3660POPC   GL248842   0.184  42.300   5.870
 3660POPC   C1A48843   0.580  42.234   6.157
 3660POPC   D2A48844   0.785  42.166   6.551
 3660POPC   C3A48845   0.609  42.362   6.917
 3660POPC   C4A48846   0.569  42.156   7.323
 3660POPC   C1B48847   0.087  42.092   6.258
 3660POPC   C2B48848   0.195  42.080   6.695
 3660POPC   C3B48849   0.122  42.257   7.094
 3660POPC   C4B48850   0.084  42.181   7.573
 3661POPC   NC348851  13.244   9.047   5.165
 3661POPC   PO448852  12.680   8.730   5.324
 3661POPC   GL148853  12.897   8.938   5.668
 3661POPC   GL248854  12.682   8.699   5.839
 3661POPC   C1A48855  12.941   9.058   6.118
 3661POPC   D2A48856  12.775   9.082   6.552
 3661POPC   C3A48857  12.992   9.092   6.940
 3661POPC   C4A48858  13.255   9.129   7.280
 3661POPC   C1B48859  12.432   8.834   6.142
 3661POPC   C2B48860  12.328   8.829   6.565
 3661POPC   C3B48861  12.545   8.825   6.943
 3661POPC   C4B48862  12.573   8.540   7.261
 3662POPC   NC348863  19.511  13.870   5.554
 3662POPC   PO448864  18.894  13.820   5.376
 3662POPC   GL148865  19.080  13.623   5.763
 3662POPC   GL248866  18.886  13.324   5.774
 3662POPC   C1A48867  19.332  13.737   6.160
 3662POPC   D2A48868  19.270  13.963   6.523
 3662POPC   C3A48869  19.181  13.737   6.877
 3662POPC   C4A48870  19.366  13.560   7.230
 3662POPC   C1B48871  19.136  13.279   6.172
 3662POPC   C2B48872  19.052  13.327   6.619
 3662POPC   C3B48873  18.926  13.327   7.084
 3662POPC   C4B48874  19.027  13.387   7.564
 3663POPC   NC348875   6.834  41.475   5.320
 3663POPC   PO448876   6.200  41.698   5.461
 3663POPC   GL148877   6.539  41.714   5.755
 3663POPC   GL248878   6.907  41.655   5.815
 3663POPC   C1A48879   6.532  41.479   6.148
 3663POPC   D2A48880   6.768  41.513   6.532
 3663POPC   C3A48881   6.586  41.596   6.901
 3663POPC   C4A48882   6.298  41.348   7.155
 3663POPC   C1B48883   6.876  41.874   6.181
 3663POPC   C2B48884   7.078  41.933   6.600
 3663POPC   C3B48885   7.121  41.726   6.987
 3663POPC   C4B48886   6.891  41.466   7.279
 3664POPC   NC348887  24.191   6.711   5.355
 3664POPC   PO448888  24.796   6.687   5.583
 3664POPC   GL148889  24.536   6.579   5.959
 3664POPC   GL248890  24.207   6.454   5.931
 3664POPC   C1A48891  24.358   6.630   6.419
 3664POPC   D2A48892  24.285   6.480   6.874
 3664POPC   C3A48893  24.357   6.734   7.246
 3664POPC   C4A48894  24.112   6.954   7.586
 3664POPC   C1B48895  24.400   6.162   6.225
 3664POPC   C2B48896  24.493   6.049   6.645
 3664POPC   C3B48897  24.750   6.259   6.960
 3664POPC   C4B48898  24.846   6.597   7.275
 3665POPC   NC348899  12.240  19.498   5.617
 3665POPC   PO448900  11.713  19.933   5.463
 3665POPC   GL148901  11.784  19.987   5.909
 3665POPC   GL248902  12.109  19.849   5.974
 3665POPC   C1A48903  11.816  19.980   6.381
 3665POPC   D2A48904  11.815  19.685   6.727
 3665POPC   C3A48905  11.888  19.873   7.147
 3665POPC   C4A48906  12.094  19.888   7.551
 3665POPC   C1B48907  12.317  20.001   6.369
 3665POPC   C2B48908  12.117  20.161   6.779
 3665POPC   C3B48909  12.233  20.268   7.226
 3665POPC   C4B48910  12.533  20.168   7.564
 3666POPC   NC348911   7.094  19.839   5.398
 3666POPC   PO448912   7.603  20.243   5.534
 3666POPC   GL148913   7.456  19.914   5.780
 3666POPC   GL248914   7.115  19.842   5.916
 3666POPC   C1A48915   7.566  19.795   6.179
 3666POPC   D2A48916   7.368  19.826   6.564
 3666POPC   C3A48917   7.580  19.943   6.944
 3666POPC   C4A48918   7.476  20.032   7.382
 3666POPC   C1B48919   7.247  19.412   6.141
 3666POPC   C2B48920   7.446  19.273   6.528
 3666POPC   C3B48921   7.492  19.442   6.911
 3666POPC   C4B48922   7.262  19.594   7.218
 3667POPC   NC348923  35.721  20.690   5.476
 3667POPC   PO448924  35.154  20.226   5.342
 3667POPC   GL148925  35.274  20.458   5.705
 3667POPC   GL248926  35.566  20.281   5.799
 3667POPC   C1A48927  35.279  20.694   6.104
 3667POPC   D2A48928  35.538  20.695   6.478
 3667POPC   C3A48929  35.375  20.761   6.899
 3667POPC   C4A48930  35.617  20.933   7.232
 3667POPC   C1B48931  35.391  20.204   6.232
 3667POPC   C2B48932  35.318  20.282   6.678
 3667POPC   C3B48933  35.543  20.143   7.040
 3667POPC   C4B48934  35.336  20.405   7.279
 3668POPC   NC348935  26.623  28.635   5.547
 3668POPC   PO448936  26.724  28.054   5.423
 3668POPC   GL148937  26.776  28.206   5.848
 3668POPC   GL248938  27.061  27.991   5.885
 3668POPC   C1A48939  26.822  28.548   6.206
 3668POPC   D2A48940  26.917  28.631   6.672
 3668POPC   C3A48941  26.597  28.620   7.001
 3668POPC   C4A48942  26.633  28.507   7.419
 3668POPC   C1B48943  27.058  28.114   6.276
 3668POPC   C2B48944  26.808  28.141   6.608
 3668POPC   C3B48945  26.902  28.209   7.026
 3668POPC   C4B48946  27.006  28.137   7.452
 3669POPC   NC348947  26.498  32.480   5.235
 3669POPC   PO448948  26.631  31.986   5.629
 3669POPC   GL148949  26.871  32.274   5.819
 3669POPC   GL248950  26.601  32.515   5.744
 3669POPC   C1A48951  26.933  32.198   6.281
 3669POPC   D2A48952  26.839  32.054   6.634
 3669POPC   C3A48953  27.043  32.301   6.882
 3669POPC   C4A48954  26.885  32.306   7.262
 3669POPC   C1B48955  26.461  32.275   6.144
 3669POPC   C2B48956  26.411  32.361   6.542
 3669POPC   C3B48957  26.550  32.486   6.906
 3669POPC   C4B48958  26.391  32.471   7.298
 3670POPC   NC348959  19.133   5.919   5.233
 3670POPC   PO448960  18.588   5.440   5.531
 3670POPC   GL148961  18.875   5.765   5.696
 3670POPC   GL248962  19.206   5.751   5.717
 3670POPC   C1A48963  18.991   5.839   6.155
 3670POPC   D2A48964  19.117   6.038   6.526
 3670POPC   C3A48965  19.026   5.879   6.960
 3670POPC   C4A48966  18.840   5.987   7.369
 3670POPC   C1B48967  19.438   5.605   6.071
 3670POPC   C2B48968  19.498   5.681   6.520
 3670POPC   C3B48969  19.372   5.514   6.957
 3670POPC   C4B48970  19.245   5.674   7.408
 3671POPC   NC348971  33.312  38.102   5.405
 3671POPC   PO448972  32.998  38.684   5.295
 3671POPC   GL148973  32.976  38.443   5.659
 3671POPC   GL248974  33.250  38.559   5.833
 3671POPC   C1A48975  32.774  38.320   6.057
 3671POPC   D2A48976  32.624  38.550   6.425
 3671POPC   C3A48977  32.703  38.444   6.850
 3671POPC   C4A48978  32.946  38.561   7.210
 3671POPC   C1B48979  33.188  38.499   6.311
 3671POPC   C2B48980  33.249  38.606   6.760
 3671POPC   C3B48981  33.459  38.460   7.157
 3671POPC   C4B48982  33.318  38.374   7.592
 3672POPC   NC348983  37.654   5.379   5.373
 3672POPC   PO448984  37.905   4.813   5.311
 3672POPC   GL148985  37.611   4.961   5.700
 3672POPC   GL248986  37.655   5.319   5.860
 3672POPC   C1A48987  37.522   4.896   6.179
 3672POPC   D2A48988  37.347   4.762   6.623
 3672POPC   C3A48989  37.551   4.883   7.038
 3672POPC   C4A48990  37.467   4.872   7.529
 3672POPC   C1B48991  37.661   5.379   6.255
 3672POPC   C2B48992  37.504   5.262   6.644
 3672POPC   C3B48993  37.627   5.413   7.037
 3672POPC   C4B48994  37.468   5.358   7.432
 3673POPC   NC348995   1.473   4.947   5.170
 3673POPC   PO448996   1.282   5.504   5.557
 3673POPC   GL148997   1.160   5.182   5.872
 3673POPC   GL248998   0.889   4.986   5.769
 3673POPC   C1A48999   1.280   4.956   6.259
 3673POPC   D2A49000   1.403   4.845   6.700
 3673POPC   C3A49001   1.345   5.227   6.953
 3673POPC   C4A49002   1.074   5.304   7.267
 3673POPC   C1B49003   0.895   4.646   6.093
 3673POPC   C2B49004   0.982   4.484   6.502
 3673POPC   C3B49005   0.979   4.652   6.915
 3673POPC   C4B49006   0.991   4.811   7.310
 3674POPC   NC349007   5.295  22.388   5.506
 3674POPC   PO449008   5.022  21.868   5.437
 3674POPC   GL149009   4.936  22.011   5.838
 3674POPC   GL249010   4.918  22.377   5.850
 3674POPC   C1A49011   4.864  21.855   6.261
 3674POPC   D2A49012   5.130  21.913   6.610
 3674POPC   C3A49013   5.015  21.977   7.048
 3674POPC   C4A49014   5.247  22.019   7.451
 3674POPC   C1B49015   5.120  22.316   6.258
 3674POPC   C2B49016   5.096  22.423   6.714
 3674POPC   C3B49017   5.257  22.438   7.153
 3674POPC   C4B49018   5.203  22.567   7.600
 3675POPC   NC349019  23.902  13.902   5.567
 3675POPC   PO449020  23.647  14.382   5.170
 3675POPC   GL149021  23.587  14.381   5.648
 3675POPC   GL249022  23.647  14.727   5.787
 3675POPC   C1A49023  23.473  14.387   6.101
 3675POPC   D2A49024  23.486  14.318   6.555
 3675POPC   C3A49025  23.590  14.664   6.844
 3675POPC   C4A49026  23.531  14.615   7.256
 3675POPC   C1B49027  23.913  14.658   6.183
 3675POPC   C2B49028  23.991  14.481   6.589
 3675POPC   C3B49029  24.158  14.595   6.951
 3675POPC   C4B49030  24.038  14.576   7.352
 3676POPC   NC349031   6.091  13.365   5.464
 3676POPC   PO449032   5.462  13.653   5.299
 3676POPC   GL149033   5.691  13.619   5.703
 3676POPC   GL249034   5.638  13.270   5.713
 3676POPC   C1A49035   5.877  13.753   6.119
 3676POPC   D2A49036   5.817  14.017   6.481
 3676POPC   C3A49037   5.874  13.791   6.886
 3676POPC   C4A49038   5.717  13.923   7.309
 3676POPC   C1B49039   5.889  13.252   6.075
 3676POPC   C2B49040   6.097  13.187   6.465
 3676POPC   C3B49041   6.122  13.270   6.902
 3676POPC   C4B49042   5.876  13.413   7.256
 3677POPC   NC349043  44.362  25.461   5.547
 3677POPC   PO449044  44.638  24.907   5.554
 3677POPC   GL149045  44.697  25.192   5.835
 3677POPC   GL249046   0.004  25.306   5.809
 3677POPC   C1A49047  44.574  25.135   6.223
 3677POPC   D2A49048  44.748  25.010   6.576
 3677POPC   C3A49049  44.527  25.185   6.915
 3677POPC   C4A49050  44.706  25.204   7.273
 3677POPC   C1B49051   0.030  25.346   6.273
 3677POPC   C2B49052  44.791  25.530   6.618
 3677POPC   C3B49053  44.879  25.611   7.031
 3677POPC   C4B49054  44.918  25.624   7.493
 3678POPC   NC349055  32.438  31.021   5.346
 3678POPC   PO449056  31.983  31.478   5.160
 3678POPC   GL149057  31.964  31.387   5.674
 3678POPC   GL249058  32.100  31.061   5.770
 3678POPC   C1A49059  32.195  31.431   6.127
 3678POPC   D2A49060  32.402  31.728   6.413
 3678POPC   C3A49061  32.479  31.630   6.833
 3678POPC   C4A49062  32.422  31.799   7.262
 3678POPC   C1B49063  31.798  31.110   6.147
 3678POPC   C2B49064  31.662  31.072   6.617
 3678POPC   C3B49065  31.996  31.177   6.931
 3678POPC   C4B49066  32.374  31.287   7.180
 3679POPC   NC349067  35.742  14.284   5.645
 3679POPC   PO449068  35.275  14.528   5.179
 3679POPC   GL149069  35.237  14.430   5.660
 3679POPC   GL249070  35.407  14.701   5.812
 3679POPC   C1A49071  35.291  14.361   6.154
 3679POPC   D2A49072  35.061  14.320   6.564
 3679POPC   C3A49073  35.335  14.462   6.901
 3679POPC   C4A49074  35.356  14.432   7.347
 3679POPC   C1B49075  35.665  14.706   6.223
 3679POPC   C2B49076  35.777  14.735   6.689
 3679POPC   C3B49077  35.698  14.760   7.153
 3679POPC   C4B49078  35.744  14.692   7.611
 3680POPC   NC349079  25.448  27.995   5.429
 3680POPC   PO449080  25.497  27.433   5.043
 3680POPC   GL149081  25.352  27.500   5.540
 3680POPC   GL249082  25.027  27.665   5.554
 3680POPC   C1A49083  25.351  27.700   6.001
 3680POPC   D2A49084  25.457  27.722   6.456
 3680POPC   C3A49085  25.350  27.653   6.894
 3680POPC   C4A49086  25.573  27.677   7.286
 3680POPC   C1B49087  24.955  27.398   5.931
 3680POPC   C2B49088  25.041  27.398   6.396
 3680POPC   C3B49089  24.897  27.411   6.836
 3680POPC   C4B49090  24.926  27.146   7.201
 3681POPC   NC349091  32.357   7.087   5.518
 3681POPC   PO449092  31.932   7.583   5.488
 3681POPC   GL149093  32.129   7.521   5.879
 3681POPC   GL249094  32.485   7.444   5.888
 3681POPC   C1A49095  32.167   7.717   6.287
 3681POPC   D2A49096  32.112   7.503   6.680
 3681POPC   C3A49097  32.028   7.633   7.107
 3681POPC   C4A49098  32.066   7.476   7.568
 3681POPC   C1B49099  32.389   7.248   6.310
 3681POPC   C2B49100  32.498   7.201   6.783
 3681POPC   C3B49101  32.452   7.344   7.230
 3681POPC   C4B49102  32.470   7.110   7.646
 3682POPC   NC349103  25.651  40.304   5.396
 3682POPC   PO449104  25.110  40.027   5.265
 3682POPC   GL149105  25.145  40.022   5.719
 3682POPC   GL249106  25.466  39.957   5.812
 3682POPC   C1A49107  25.073  39.997   6.182
 3682POPC   D2A49108  25.163  39.812   6.614
 3682POPC   C3A49109  25.141  40.069   7.018
 3682POPC   C4A49110  24.851  40.448   7.139
 3682POPC   C1B49111  25.600  39.974   6.269
 3682POPC   C2B49112  25.609  40.006   6.745
 3682POPC   C3B49113  25.834  39.763   7.055
 3682POPC   C4B49114  25.535  39.890   7.359
 3683POPC   NC349115   3.268  33.205   5.087
 3683POPC   PO449116   2.775  33.313   5.466
 3683POPC   GL149117   2.595  33.055   5.799
 3683POPC   GL249118   2.624  32.713   5.871
 3683POPC   C1A49119   2.763  33.098   6.220
 3683POPC   D2A49120   2.905  33.326   6.571
 3683POPC   C3A49121   2.961  33.123   6.959
 3683POPC   C4A49122   3.109  33.299   7.344
 3683POPC   C1B49123   2.414  32.748   6.237
 3683POPC   C2B49124   2.622  32.825   6.643
 3683POPC   C3B49125   2.707  32.646   7.024
 3683POPC   C4B49126   2.660  32.971   7.346
 3684POPC   NC349127   2.123  34.228   5.040
 3684POPC   PO449128   2.068  33.637   5.389
 3684POPC   GL149129   2.008  33.725   5.832
 3684POPC   GL249130   1.992  34.074   5.939
 3684POPC   C1A49131   1.951  33.680   6.270
 3684POPC   D2A49132   2.121  33.688   6.672
 3684POPC   C3A49133   1.897  33.647   7.043
 3684POPC   C4A49134   2.107  33.592   7.437
 3684POPC   C1B49135   2.101  34.155   6.391
 3684POPC   C2B49136   1.958  34.182   6.829
 3684POPC   C3B49137   2.091  34.082   7.218
 3684POPC   C4B49138   2.410  33.963   7.561
 3685POPC   NC349139  39.746  40.257   5.165
 3685POPC   PO449140  40.390  40.303   5.448
 3685POPC   GL149141  40.272  40.159   5.845
 3685POPC   GL249142  39.925  39.997   5.803
 3685POPC   C1A49143  40.027  40.327   6.229
 3685POPC   D2A49144  39.852  40.205   6.640
 3685POPC   C3A49145  40.046  40.367   7.035
 3685POPC   C4A49146  40.112  40.308   7.505
 3685POPC   C1B49147  40.110  39.841   6.203
 3685POPC   C2B49148  40.249  39.886   6.630
 3685POPC   C3B49149  40.168  39.862   7.061
 3685POPC   C4B49150  40.441  39.921   7.395
 3686POPC   NC349151   6.825  31.527   5.492
 3686POPC   PO449152   6.164  31.623   5.396
 3686POPC   GL149153   6.268  31.436   5.789
 3686POPC   GL249154   6.280  31.067   5.686
 3686POPC   C1A49155   6.426  31.480   6.266
 3686POPC   D2A49156   6.386  31.615   6.739
 3686POPC   C3A49157   6.476  31.882   7.135
 3686POPC   C4A49158   6.535  31.736   7.589
 3686POPC   C1B49159   6.114  31.089   6.116
 3686POPC   C2B49160   6.307  31.014   6.530
 3686POPC   C3B49161   6.217  31.161   6.945
 3686POPC   C4B49162   6.525  31.369   7.199
 3687POPC   NC349163  41.510  38.980   5.545
 3687POPC   PO449164  41.128  39.559   5.481
 3687POPC   GL149165  41.394  39.422   5.834
 3687POPC   GL249166  41.324  39.095   6.018
 3687POPC   C1A49167  41.528  39.499   6.264
 3687POPC   D2A49168  41.473  39.221   6.614
 3687POPC   C3A49169  41.438  39.337   7.051
 3687POPC   C4A49170  41.496  39.005   7.355
 3687POPC   C1B49171  41.775  39.067   6.139
 3687POPC   C2B49172  41.996  39.105   6.526
 3687POPC   C3B49173  41.869  39.109   6.936
 3687POPC   C4B49174  41.992  39.086   7.351
 3688POPC   NC349175   8.842  28.966   5.214
 3688POPC   PO449176   9.388  29.074   5.567
 3688POPC   GL149177   9.100  28.968   5.917
 3688POPC   GL249178   8.767  29.012   5.750
 3688POPC   C1A49179   9.006  29.036   6.379
 3688POPC   D2A49180   8.728  29.088   6.735
 3688POPC   C3A49181   9.019  29.233   7.040
 3688POPC   C4A49182   9.190  29.636   7.175
 3688POPC   C1B49183   8.562  28.945   6.145
 3688POPC   C2B49184   8.499  28.681   6.511
 3688POPC   C3B49185   8.384  28.719   6.954
 3688POPC   C4B49186   8.632  28.955   7.243
 3689POPC   NC349187   6.990  22.402   5.137
 3689POPC   PO449188   7.288  21.947   5.321
 3689POPC   GL149189   7.386  21.889   5.775
 3689POPC   GL249190   7.618  21.614   5.890
 3689POPC   C1A49191   7.521  22.019   6.208
 3689POPC   D2A49192   7.574  21.804   6.614
 3689POPC   C3A49193   7.623  22.136   6.909
 3689POPC   C4A49194   7.450  22.233   7.340
 3689POPC   C1B49195   7.232  21.610   6.184
 3689POPC   C2B49196   7.077  21.856   6.537
 3689POPC   C3B49197   7.136  21.985   6.970
 3689POPC   C4B49198   6.863  22.150   7.297
 3690POPC   NC349199   2.969  23.009   5.342
 3690POPC   PO449200   3.444  22.507   5.332
 3690POPC   GL149201   3.216  22.713   5.738
 3690POPC   GL249202   2.946  22.588   5.892
 3690POPC   C1A49203   3.172  22.858   6.243
 3690POPC   D2A49204   3.408  22.907   6.657
 3690POPC   C3A49205   3.279  23.039   7.118
 3690POPC   C4A49206   3.406  23.113   7.569
 3690POPC   C1B49207   3.223  22.351   6.163
 3690POPC   C2B49208   3.371  22.384   6.590
 3690POPC   C3B49209   3.397  22.550   7.021
 3690POPC   C4B49210   3.605  22.585   7.422
 3691POPC   NC349211  11.482  27.738   5.279
 3691POPC   PO449212  11.577  27.077   5.269
 3691POPC   GL149213  11.355  27.285   5.654
 3691POPC   GL249214  10.968  27.298   5.652
 3691POPC   C1A49215  11.433  27.398   6.118
 3691POPC   D2A49216  11.581  27.362   6.586
 3691POPC   C3A49217  11.486  27.723   6.903
 3691POPC   C4A49218  11.422  27.921   7.319
 3691POPC   C1B49219  10.967  27.202   6.111
 3691POPC   C2B49220  11.087  27.452   6.508
 3691POPC   C3B49221  11.166  27.315   6.927
 3691POPC   C4B49222  11.030  27.407   7.355
 3692POPC   NC349223  12.888  15.396   5.651
 3692POPC   PO449224  12.546  14.980   5.320
 3692POPC   GL149225  12.529  15.023   5.758
 3692POPC   GL249226  12.413  15.332   5.826
 3692POPC   C1A49227  12.531  14.985   6.227
 3692POPC   D2A49228  12.835  15.122   6.541
 3692POPC   C3A49229  12.865  15.248   6.972
 3692POPC   C4A49230  12.900  15.056   7.406
 3692POPC   C1B49231  12.613  15.487   6.219
 3692POPC   C2B49232  12.662  15.624   6.628
 3692POPC   C3B49233  12.559  15.683   7.028
 3692POPC   C4B49234  12.487  15.345   7.299
 3693POPC   NC349235  23.798   1.256   5.123
 3693POPC   PO449236  23.490   0.733   5.398
 3693POPC   GL149237  23.594   0.951   5.785
 3693POPC   GL249238  23.911   1.085   5.853
 3693POPC   C1A49239  23.463   1.119   6.197
 3693POPC   D2A49240  23.666   1.113   6.590
 3693POPC   C3A49241  23.520   1.174   7.016
 3693POPC   C4A49242  23.900   1.192   7.201
 3693POPC   C1B49243  24.065   1.215   6.255
 3693POPC   C2B49244  23.891   1.579   6.505
 3693POPC   C3B49245  23.774   1.620   6.924
 3693POPC   C4B49246  23.517   1.655   7.279
 3694POPC   NC349247  37.066  12.980   5.420
 3694POPC   PO449248  36.625  12.506   5.241
 3694POPC   GL149249  36.767  12.685   5.739
 3694POPC   GL249250  37.141  12.716   5.834
 3694POPC   C1A49251  36.878  12.950   6.178
 3694POPC   D2A49252  37.157  12.889   6.545
 3694POPC   C3A49253  36.901  12.937   6.931
 3694POPC   C4A49254  36.825  12.711   7.276
 3694POPC   C1B49255  37.352  13.084   6.093
 3694POPC   C2B49256  37.477  13.299   6.481
 3694POPC   C3B49257  37.390  13.234   6.910
 3694POPC   C4B49258  37.236  13.070   7.297
 3695POPC   NC349259  20.852  26.880   5.332
 3695POPC   PO449260  20.234  27.126   5.413
 3695POPC   GL149261  20.364  26.854   5.816
 3695POPC   GL249262  20.719  26.704   5.813
 3695POPC   C1A49263  20.463  26.874   6.306
 3695POPC   D2A49264  20.233  27.054   6.706
 3695POPC   C3A49265  20.426  27.068   7.137
 3695POPC   C4A49266  20.219  26.948   7.543
 3695POPC   C1B49267  20.999  26.935   6.128
 3695POPC   C2B49268  21.038  27.067   6.555
 3695POPC   C3B49269  20.739  26.854   6.799
 3695POPC   C4B49270  20.672  26.608   7.168
 3696POPC   NC349271  39.149   2.180   5.321
 3696POPC   PO449272  39.396   1.655   5.104
 3696POPC   GL149273  39.393   1.743   5.591
 3696POPC   GL249274  39.644   1.652   5.875
 3696POPC   C1A49275  39.072   1.852   5.948
 3696POPC   D2A49276  38.835   1.756   6.366
 3696POPC   C3A49277  39.055   1.864   6.770
 3696POPC   C4A49278  39.121   2.210   7.068
 3696POPC   C1B49279  39.521   2.022   6.138
 3696POPC   C2B49280  39.399   2.210   6.557
 3696POPC   C3B49281  39.556   2.018   6.903
 3696POPC   C4B49282  39.862   1.831   7.121
 3697POPC   NC349283  22.170  11.962   5.439
 3697POPC   PO449284  21.818  12.477   5.488
 3697POPC   GL149285  22.209  12.301   5.834
 3697POPC   GL249286  22.428  11.947   5.869
 3697POPC   C1A49287  22.349  12.208   6.304
 3697POPC   D2A49288  22.129  12.376   6.729
 3697POPC   C3A49289  22.256  12.174   7.154
 3697POPC   C4A49290  22.659  12.013   7.168
 3697POPC   C1B49291  22.056  11.830   6.087
 3697POPC   C2B49292  22.010  11.884   6.494
 3697POPC   C3B49293  22.280  11.810   6.824
 3697POPC   C4B49294  22.103  11.644   7.208
 3698POPC   NC349295  17.236  15.604   5.665
 3698POPC   PO449296  17.741  16.033   5.462
 3698POPC   GL149297  17.580  16.196   5.857
 3698POPC   GL249298  17.453  15.912   6.011
 3698POPC   C1A49299  17.477  16.350   6.284
 3698POPC   D2A49300  17.520  16.152   6.699
 3698POPC   C3A49301  17.475  16.226   7.138
 3698POPC   C4A49302  17.279  16.002   7.491
 3698POPC   C1B49303  17.669  15.594   6.252
 3698POPC   C2B49304  17.636  15.646   6.673
 3698POPC   C3B49305  17.393  15.702   7.025
 3698POPC   C4B49306  17.565  15.553   7.360
 3699POPC   NC349307  41.323   5.602   5.326
 3699POPC   PO449308  41.904   6.024   5.409
 3699POPC   GL149309  41.530   5.919   5.677
 3699POPC   GL249310  41.462   5.600   5.790
 3699POPC   C1A49311  41.512   5.963   6.125
 3699POPC   D2A49312  41.292   5.943   6.505
 3699POPC   C3A49313  41.478   5.805   6.835
 3699POPC   C4A49314  41.453   5.912   7.214
 3699POPC   C1B49315  41.276   5.511   6.156
 3699POPC   C2B49316  41.388   5.396   6.549
 3699POPC   C3B49317  41.200   5.398   6.963
 3699POPC   C4B49318  41.508   5.422   7.249
 3700POPC   NC349319  41.315  28.611   5.464
 3700POPC   PO449320  41.568  29.298   5.425
 3700POPC   GL149321  41.729  29.091   5.783
 3700POPC   GL249322  41.460  28.942   5.843
 3700POPC   C1A49323  41.835  28.971   6.200
 3700POPC   D2A49324  41.767  29.199   6.585
 3700POPC   C3A49325  41.669  28.977   6.966
 3700POPC   C4A49326  41.881  28.897   7.358
 3700POPC   C1B49327  41.497  29.347   6.143
 3700POPC   C2B49328  41.355  29.566   6.506
 3700POPC   C3B49329  41.506  29.497   6.934
 3700POPC   C4B49330  41.783  29.432   7.292
 3701POPC   NC349331   4.560  35.007   5.565
 3701POPC   PO449332   4.100  35.463   5.436
 3701POPC   GL149333   4.100  35.264   5.824
 3701POPC   GL249334   4.449  35.264   5.984
 3701POPC   C1A49335   4.022  35.437   6.215
 3701POPC   D2A49336   4.350  35.506   6.476
 3701POPC   C3A49337   4.283  35.573   6.904
 3701POPC   C4A49338   4.327  35.771   7.302
 3701POPC   C1B49339   4.187  34.963   6.248
 3701POPC   C2B49340   4.181  35.057   6.693
 3701POPC   C3B49341   4.529  35.135   6.984
 3701POPC   C4B49342   4.277  35.119   7.319
 3702POPC   NC349343  18.348   8.704   5.365
 3702POPC   PO449344  18.168   9.340   5.431
 3702POPC   GL149345  18.165   8.997   5.770
 3702POPC   GL249346  18.509   8.824   5.820
 3702POPC   C1A49347  18.059   9.034   6.226
 3702POPC   D2A49348  18.267   9.057   6.620
 3702POPC   C3A49349  18.111   9.056   7.017
 3702POPC   C4A49350  18.284   8.739   7.213
 3702POPC   C1B49351  18.600   9.042   6.176
 3702POPC   C2B49352  18.793   9.060   6.571
 3702POPC   C3B49353  18.682   8.908   6.935
 3702POPC   C4B49354  18.600   9.176   7.243
 3703POPC   NC349355  41.942  42.005   5.615
 3703POPC   PO449356  41.512  42.468   5.232
 3703POPC   GL149357  41.613  42.401   5.676
 3703POPC   GL249358  41.339  42.199   5.755
 3703POPC   C1A49359  41.658  42.414   6.150
 3703POPC   D2A49360  41.575  42.639   6.568
 3703POPC   C3A49361  41.775  42.476   6.948
 3703POPC   C4A49362  41.629  42.414   7.404
 3703POPC   C1B49363  41.201  42.103   6.149
 3703POPC   C2B49364  41.206  42.264   6.557
 3703POPC   C3B49365  41.350  42.206   6.969
 3703POPC   C4B49366  41.138  42.298   7.337
 3704POPC   NC349367  20.185   8.817   5.250
 3704POPC   PO449368  19.628   8.937   5.585
 3704POPC   GL149369  19.864   9.093   5.898
 3704POPC   GL249370  19.602   9.329   5.991
 3704POPC   C1A49371  20.040   9.000   6.312
 3704POPC   D2A49372  20.203   9.061   6.728
 3704POPC   C3A49373  20.097   8.856   7.097
 3704POPC   C4A49374  19.970   9.067   7.453
 3704POPC   C1B49375  19.527   8.928   6.252
 3704POPC   C2B49376  19.700   8.835   6.683
 3704POPC   C3B49377  19.623   9.074   7.072
 3704POPC   C4B49378  19.470   8.871   7.445
 3705POPC   NC349379  40.941  26.981   5.382
 3705POPC   PO449380  40.354  27.172   5.515
 3705POPC   GL149381  40.599  26.856   5.774
 3705POPC   GL249382  40.981  26.752   5.834
 3705POPC   C1A49383  40.623  26.640   6.166
 3705POPC   D2A49384  40.768  26.865   6.522
 3705POPC   C3A49385  40.586  26.770   6.912
 3705POPC   C4A49386  40.666  26.620   7.349
 3705POPC   C1B49387  41.138  26.579   6.258
 3705POPC   C2B49388  41.141  26.604   6.744
 3705POPC   C3B49389  41.052  26.840   7.134
 3705POPC   C4B49390  41.140  26.672   7.577
 3706POPC   NC349391   9.167  15.769   5.392
 3706POPC   PO449392   8.754  16.297   5.480
 3706POPC   GL149393   8.981  16.102   5.838
 3706POPC   GL249394   9.225  15.820   5.884
 3706POPC   C1A49395   8.843  15.834   6.224
 3706POPC   D2A49396   8.961  15.661   6.647
 3706POPC   C3A49397   8.721  15.680   7.057
 3706POPC   C4A49398   8.703  16.061   7.312
 3706POPC   C1B49399   9.363  15.761   6.304
 3706POPC   C2B49400   9.456  15.799   6.733
 3706POPC   C3B49401   9.171  15.917   7.038
 3706POPC   C4B49402   9.132  15.809   7.439
 3707POPC   NC349403  38.714  28.687   5.449
 3707POPC   PO449404  38.473  28.011   5.483
 3707POPC   GL149405  38.489  28.189   5.877
 3707POPC   GL249406  38.339  28.502   5.846
 3707POPC   C1A49407  38.211  28.178   6.236
 3707POPC   D2A49408  38.123  28.113   6.682
 3707POPC   C3A49409  38.465  28.195   6.993
 3707POPC   C4A49410  38.467  28.418   7.410
 3707POPC   C1B49411  38.594  28.628   6.173
 3707POPC   C2B49412  38.682  28.447   6.574
 3707POPC   C3B49413  38.679  28.658   6.942
 3707POPC   C4B49414  38.879  28.724   7.280
 3708POPC   NC349415  44.358   1.429   5.318
 3708POPC   PO449416  44.306   0.786   5.490
 3708POPC   GL149417  44.581   1.107   5.658
 3708POPC   GL249418  44.489   0.945   5.945
 3708POPC   C1A49419  44.617   1.406   6.045
 3708POPC   D2A49420  44.519   1.177   6.427
 3708POPC   C3A49421  44.708   1.340   6.809
 3708POPC   C4A49422  44.706   1.516   7.221
 3708POPC   C1B49423  44.928   0.992   6.076
 3708POPC   C2B49424   0.062   1.083   6.480
 3708POPC   C3B49425   0.050   0.986   6.892
 3708POPC   C4B49426  44.777   0.900   7.201
 3709POPC   NC349427  37.915   6.260   5.090
 3709POPC   PO449428  37.362   6.219   5.477
 3709POPC   GL149429  37.417   6.523   5.806
 3709POPC   GL249430  37.736   6.748   5.917
 3709POPC   C1A49431  37.463   6.413   6.222
 3709POPC   D2A49432  37.492   6.618   6.607
 3709POPC   C3A49433  37.718   6.423   6.908
 3709POPC   C4A49434  37.628   6.542   7.295
 3709POPC   C1B49435  38.068   6.646   6.232
 3709POPC   C2B49436  38.155   6.572   6.670
 3709POPC   C3B49437  38.006   6.809   7.044
 3709POPC   C4B49438  37.629   7.038   7.166
 3710POPC   NC349439  14.849  10.606   5.091
 3710POPC   PO449440  15.241  10.909   5.522
 3710POPC   GL149441  15.244  10.621   5.813
 3710POPC   GL249442  14.914  10.519   5.810
 3710POPC   C1A49443  15.203  10.657   6.230
 3710POPC   D2A49444  15.534  10.574   6.503
 3710POPC   C3A49445  15.404  10.520   6.902
 3710POPC   C4A49446  15.177  10.773   7.239
 3710POPC   C1B49447  14.924  10.232   6.152
 3710POPC   C2B49448  15.006  10.321   6.579
 3710POPC   C3B49449  14.895  10.641   6.840
 3710POPC   C4B49450  14.698  10.653   7.235
 3711POPC   NC349451  19.695  40.006   5.418
 3711POPC   PO449452  20.334  40.252   5.439
 3711POPC   GL149453  19.983  40.188   5.788
 3711POPC   GL249454  19.990  39.806   5.804
 3711POPC   C1A49455  19.942  40.099   6.255
 3711POPC   D2A49456  19.637  40.241   6.570
 3711POPC   C3A49457  19.770  40.363   6.979
 3711POPC   C4A49458  19.884  40.155   7.320
 3711POPC   C1B49459  19.591  39.795   6.056
 3711POPC   C2B49460  19.562  39.741   6.545
 3711POPC   C3B49461  19.684  39.775   7.022
 3711POPC   C4B49462  19.621  39.775   7.534
 3712POPC   NC349463  26.032  14.394   5.187
 3712POPC   PO449464  25.758  15.000   5.148
 3712POPC   GL149465  25.827  14.657   5.618
 3712POPC   GL249466  26.049  14.347   5.690
 3712POPC   C1A49467  26.110  14.627   6.084
 3712POPC   D2A49468  26.128  14.740   6.542
 3712POPC   C3A49469  26.144  14.610   7.002
 3712POPC   C4A49470  26.284  14.854   7.367
 3712POPC   C1B49471  25.928  14.156   6.104
 3712POPC   C2B49472  25.950  14.255   6.541
 3712POPC   C3B49473  26.069  14.115   6.962
 3712POPC   C4B49474  25.746  14.205   7.228
 3713POPC   NC349475  36.173  23.982   5.398
 3713POPC   PO449476  35.557  23.996   5.549
 3713POPC   GL149477  35.927  23.851   5.811
 3713POPC   GL249478  36.180  23.606   5.734
 3713POPC   C1A49479  36.206  23.857   6.182
 3713POPC   D2A49480  35.966  23.737   6.536
 3713POPC   C3A49481  36.200  23.810   6.923
 3713POPC   C4A49482  35.941  23.780   7.249
 3713POPC   C1B49483  36.327  23.366   6.070
 3713POPC   C2B49484  36.269  23.353   6.462
 3713POPC   C3B49485  36.108  23.333   6.819
 3713POPC   C4B49486  36.194  23.354   7.211
 3714POPC   NC349487  21.950  39.568   5.384
 3714POPC   PO449488  22.229  40.233   5.348
 3714POPC   GL149489  22.073  40.137   5.767
 3714POPC   GL249490  21.959  39.785   5.852
 3714POPC   C1A49491  22.224  40.185   6.192
 3714POPC   D2A49492  22.273  40.185   6.652
 3714POPC   C3A49493  22.313  39.798   6.851
 3714POPC   C4A49494  22.468  39.917   7.229
 3714POPC   C1B49495  21.883  39.826   6.302
 3714POPC   C2B49496  21.780  40.112   6.653
 3714POPC   C3B49497  21.972  40.100   7.084
 3714POPC   C4B49498  22.057  39.655   7.315
 3715POPC   NC349499  17.301  37.614   5.427
 3715POPC   PO449500  16.764  37.584   5.509
 3715POPC   GL149501  17.005  37.614   5.888
 3715POPC   GL249502  17.245  37.363   5.895
 3715POPC   C1A49503  16.833  37.697   6.313
 3715POPC   D2A49504  16.589  37.743   6.717
 3715POPC   C3A49505  16.790  37.663   7.099
 3715POPC   C4A49506  16.663  37.406   7.404
 3715POPC   C1B49507  17.113  37.269   6.312
 3715POPC   C2B49508  16.839  37.277   6.674
 3715POPC   C3B49509  17.043  37.238   7.053
 3715POPC   C4B49510  16.950  37.004   7.446
 3716POPC   NC349511  37.883  41.874   5.424
 3716POPC   PO449512  37.246  41.619   5.454
 3716POPC   GL149513  37.500  41.703   5.818
 3716POPC   GL249514  37.795  41.511   5.873
 3716POPC   C1A49515  37.556  41.694   6.284
 3716POPC   D2A49516  37.863  41.750   6.581
 3716POPC   C3A49517  37.677  41.566   6.917
 3716POPC   C4A49518  37.773  41.576   7.316
 3716POPC   C1B49519  37.505  41.214   6.157
 3716POPC   C2B49520  37.302  41.294   6.585
 3716POPC   C3B49521  37.417  41.113   7.016
 3716POPC   C4B49522  37.586  41.115   7.462
 3717POPC   NC349523   7.208   2.874   5.019
 3717POPC   PO449524   7.594   2.562   5.524
 3717POPC   GL149525   7.302   2.619   5.849
 3717POPC   GL249526   7.240   2.973   5.829
 3717POPC   C1A49527   7.180   2.755   6.286
 3717POPC   D2A49528   7.097   2.608   6.702
 3717POPC   C3A49529   7.469   2.520   6.951
 3717POPC   C4A49530   7.404   2.759   7.313
 3717POPC   C1B49531   7.623   2.931   6.110
 3717POPC   C2B49532   7.653   2.760   6.539
 3717POPC   C3B49533   7.683   2.983   6.940
 3717POPC   C4B49534   7.816   3.165   7.328
 3718POPC   NC349535   2.183   2.958   5.044
 3718POPC   PO449536   1.880   2.506   5.385
 3718POPC   GL149537   1.820   2.741   5.787
 3718POPC   GL249538   2.189   2.721   5.822
 3718POPC   C1A49539   1.790   2.627   6.249
 3718POPC   D2A49540   2.185   2.650   6.568
 3718POPC   C3A49541   2.011   2.556   6.950
 3718POPC   C4A49542   1.665   2.574   7.202
 3718POPC   C1B49543   2.142   2.970   6.176
 3718POPC   C2B49544   1.856   3.016   6.581
 3718POPC   C3B49545   1.934   3.051   7.028
 3718POPC   C4B49546   1.645   3.066   7.394
 3719POPC   NC349547  10.067  39.639   5.071
 3719POPC   PO449548  10.512  39.979   5.423
 3719POPC   GL149549  10.459  40.165   5.805
 3719POPC   GL249550  10.793  40.243   5.861
 3719POPC   C1A49551  10.393  40.015   6.219
 3719POPC   D2A49552  10.544  39.970   6.652
 3719POPC   C3A49553  10.264  40.029   7.007
 3719POPC   C4A49554  10.518  39.871   7.296
 3719POPC   C1B49555  10.825  40.262   6.304
 3719POPC   C2B49556  10.673  40.469   6.665
 3719POPC   C3B49557  10.700  40.297   7.060
 3719POPC   C4B49558  11.009  40.077   7.268
 3720POPC   NC349559  26.192  35.639   5.573
 3720POPC   PO449560  26.150  36.259   5.363
 3720POPC   GL149561  25.904  36.143   5.702
 3720POPC   GL249562  25.692  35.844   5.631
 3720POPC   C1A49563  26.066  36.249   6.113
 3720POPC   D2A49564  25.974  36.486   6.498
 3720POPC   C3A49565  26.087  36.257   6.862
 3720POPC   C4A49566  26.137  36.403   7.259
 3720POPC   C1B49567  25.827  35.782   6.091
 3720POPC   C2B49568  25.850  35.981   6.491
 3720POPC   C3B49569  25.703  35.902   6.901
 3720POPC   C4B49570  25.870  35.983   7.345
 3721POPC   NC349571  25.561  34.753   5.566
 3721POPC   PO449572  26.243  34.617   5.438
 3721POPC   GL149573  26.107  34.510   5.869
 3721POPC   GL249574  25.755  34.423   5.906
 3721POPC   C1A49575  26.094  34.391   6.325
 3721POPC   D2A49576  26.209  34.216   6.732
 3721POPC   C3A49577  26.411  34.473   7.014
 3721POPC   C4A49578  26.277  34.773   7.324
 3721POPC   C1B49579  25.727  34.763   6.215
 3721POPC   C2B49580  25.677  34.778   6.654
 3721POPC   C3B49581  25.896  34.594   7.021
 3721POPC   C4B49582  25.799  34.600   7.434
 3722POPC   NC349583  28.488  20.405   5.326
 3722POPC   PO449584  28.360  20.965   5.474
 3722POPC   GL149585  28.653  20.681   5.733
 3722POPC   GL249586  28.649  20.289   5.793
 3722POPC   C1A49587  28.805  20.647   6.124
 3722POPC   D2A49588  28.730  20.838   6.542
 3722POPC   C3A49589  28.692  20.647   6.945
 3722POPC   C4A49590  28.338  20.729   7.216
 3722POPC   C1B49591  28.764  20.107   6.220
 3722POPC   C2B49592  28.685  20.142   6.709
 3722POPC   C3B49593  28.356  20.226   7.049
 3722POPC   C4B49594  28.149  20.314   7.455
 3723POPC   NC349595  41.299  43.896   5.333
 3723POPC   PO449596  41.860  43.877   5.613
 3723POPC   GL149597  41.559  43.891   5.927
 3723POPC   GL249598  41.177  43.846   5.821
 3723POPC   C1A49599  41.691  43.897   6.365
 3723POPC   D2A49600  41.746  43.671   6.764
 3723POPC   C3A49601  41.889  43.924   7.136
 3723POPC   C4A49602  41.792  44.014   7.577
 3723POPC   C1B49603  41.189  43.937   6.275
 3723POPC   C2B49604  41.291  44.002   6.701
 3723POPC   C3B49605  41.384  43.883   7.099
 3723POPC   C4B49606  41.463  43.562   7.376
 3724POPC   NC349607  32.080  41.836   5.409
 3724POPC   PO449608  32.579  41.655   4.967
 3724POPC   GL149609  32.494  41.508   5.501
 3724POPC   GL249610  32.437  41.763   5.771
 3724POPC   C1A49611  32.290  41.349   5.991
 3724POPC   D2A49612  32.067  41.479   6.416
 3724POPC   C3A49613  32.164  41.396   6.854
 3724POPC   C4A49614  32.392  41.530   7.229
 3724POPC   C1B49615  32.125  41.863   6.093
 3724POPC   C2B49616  32.083  42.003   6.534
 3724POPC   C3B49617  32.104  41.899   6.964
 3724POPC   C4B49618  31.952  41.747   7.377
 3725POPC   NC349619  21.212  33.404   5.224
 3725POPC   PO449620  21.422  32.790   5.404
 3725POPC   GL149621  21.399  32.898   5.790
 3725POPC   GL249622  21.667  32.693   5.846
 3725POPC   C1A49623  21.362  33.059   6.187
 3725POPC   D2A49624  21.124  32.990   6.558
 3725POPC   C3A49625  21.307  33.228   6.899
 3725POPC   C4A49626  21.379  33.006   7.275
 3725POPC   C1B49627  21.670  32.658   6.243
 3725POPC   C2B49628  21.633  32.888   6.591
 3725POPC   C3B49629  21.652  32.658   6.955
 3725POPC   C4B49630  21.828  32.773   7.312
 3726POPC   NC349631  40.068  39.310   5.139
 3726POPC   PO449632  39.516  39.001   5.339
 3726POPC   GL149633  39.919  39.066   5.615
 3726POPC   GL249634  40.127  39.392   5.647
 3726POPC   C1A49635  40.150  39.018   6.024
 3726POPC   D2A49636  40.001  39.031   6.453
 3726POPC   C3A49637  40.090  38.835   6.832
 3726POPC   C4A49638  40.236  39.023   7.208
 3726POPC   C1B49639  39.854  39.447   6.012
 3726POPC   C2B49640  39.802  39.520   6.457
 3726POPC   C3B49641  40.023  39.404   6.834
 3726POPC   C4B49642  39.913  39.427   7.220
 3727POPC   NC349643  42.309  13.127   5.223
 3727POPC   PO449644  42.221  12.525   5.324
 3727POPC   GL149645  42.217  12.766   5.712
 3727POPC   GL249646  42.405  13.071   5.715
 3727POPC   C1A49647  42.434  12.768   6.146
 3727POPC   D2A49648  42.247  12.714   6.568
 3727POPC   C3A49649  42.417  12.728   6.977
 3727POPC   C4A49650  42.371  12.787   7.468
 3727POPC   C1B49651  42.386  13.295   6.098
 3727POPC   C2B49652  42.241  13.227   6.484
 3727POPC   C3B49653  42.431  13.334   6.817
 3727POPC   C4B49654  42.327  13.174   7.147
 3728POPC   NC349655  39.823  44.744   5.286
 3728POPC   PO449656  40.453  44.526   5.409
 3728POPC   GL149657  40.090  44.582   5.705
 3728POPC   GL249658  40.053  44.950   5.700
 3728POPC   C1A49659  39.887  44.593   6.144
 3728POPC   D2A49660  39.897  44.431   6.594
 3728POPC   C3A49661  40.067  44.566   7.011
 3728POPC   C4A49662  40.085  44.504   7.484
 3728POPC   C1B49663  40.295  44.902   6.088
 3728POPC   C2B49664  40.143  44.919   6.539
 3728POPC   C3B49665  39.944   0.062   6.945
 3728POPC   C4B49666  40.097  44.999   7.392
 3729POPC   NC349667  40.247   6.965   5.382
 3729POPC   PO449668  39.779   6.548   5.212
 3729POPC   GL149669  39.992   6.479   5.616
 3729POPC   GL249670  39.912   6.805   5.738
 3729POPC   C1A49671  40.178   6.387   6.046
 3729POPC   D2A49672  40.034   6.453   6.461
 3729POPC   C3A49673  40.230   6.469   6.880
 3729POPC   C4A49674  40.042   6.427   7.270
 3729POPC   C1B49675  40.030   6.871   6.169
 3729POPC   C2B49676  39.934   6.965   6.616
 3729POPC   C3B49677  40.183   7.074   6.968
 3729POPC   C4B49678  40.315   6.843   7.299
 3730POPC   NC349679  32.181  23.449   5.260
 3730POPC   PO449680  32.356  23.989   5.315
 3730POPC   GL149681  32.157  23.755   5.703
 3730POPC   GL249682  31.965  23.442   5.758
 3730POPC   C1A49683  32.163  23.843   6.179
 3730POPC   D2A49684  32.008  24.047   6.567
 3730POPC   C3A49685  32.165  23.955   6.962
 3730POPC   C4A49686  32.126  23.767   7.378
 3730POPC   C1B49687  31.976  23.375   6.206
 3730POPC   C2B49688  32.145  23.516   6.638
 3730POPC   C3B49689  32.379  23.469   7.067
 3730POPC   C4B49690  32.447  23.415   7.569
 3731POPC   NC349691  34.985  22.994   5.447
 3731POPC   PO449692  34.333  23.050   5.405
 3731POPC   GL149693  34.486  23.097   5.834
 3731POPC   GL249694  34.623  22.779   5.796
 3731POPC   C1A49695  34.608  23.089   6.318
 3731POPC   D2A49696  34.716  22.976   6.783
 3731POPC   C3A49697  34.603  23.060   7.234
 3731POPC   C4A49698  34.409  23.212   7.652
 3731POPC   C1B49699  34.943  22.736   6.111
 3731POPC   C2B49700  34.886  22.575   6.501
 3731POPC   C3B49701  35.046  22.591   6.904
 3731POPC   C4B49702  34.829  22.609   7.282
 3732POPC   NC349703   7.254  16.392   5.551
 3732POPC   PO449704   7.165  15.753   5.498
 3732POPC   GL149705   7.339  15.778   5.912
 3732POPC   GL249706   7.673  15.957   5.894
 3732POPC   C1A49707   7.311  15.942   6.349
 3732POPC   D2A49708   7.477  16.237   6.666
 3732POPC   C3A49709   7.486  16.086   7.075
 3732POPC   C4A49710   7.207  16.266   7.324
 3732POPC   C1B49711   7.754  15.696   6.262
 3732POPC   C2B49712   7.619  15.745   6.719
 3732POPC   C3B49713   7.801  15.650   7.132
 3732POPC   C4B49714   7.919  15.445   7.529
 3733POPC   NC349715   4.299  16.168   5.141
 3733POPC   PO449716   4.833  15.829   5.481
 3733POPC   GL149717   4.664  15.945   5.852
 3733POPC   GL249718   4.312  16.124   5.824
 3733POPC   C1A49719   4.442  15.818   6.232
 3733POPC   D2A49720   4.140  16.116   6.380
 3733POPC   C3A49721   4.069  16.179   6.815
 3733POPC   C4A49722   3.955  16.053   7.224
 3733POPC   C1B49723   4.578  16.315   6.176
 3733POPC   C2B49724   4.646  16.162   6.574
 3733POPC   C3B49725   4.541  16.338   6.946
 3733POPC   C4B49726   4.503  16.143   7.329
 3734POPC   NC349727  39.962  25.811   5.256
 3734POPC   PO449728  39.770  26.371   5.462
 3734POPC   GL149729  39.819  25.992   5.737
 3734POPC   GL249730  40.134  25.931   5.835
 3734POPC   C1A49731  39.659  25.781   6.105
 3734POPC   D2A49732  39.531  25.864   6.543
 3734POPC   C3A49733  39.675  26.247   6.741
 3734POPC   C4A49734  39.897  26.197   7.137
 3734POPC   C1B49735  40.066  25.996   6.304
 3734POPC   C2B49736  40.113  25.965   6.729
 3734POPC   C3B49737  40.069  25.696   7.062
 3734POPC   C4B49738  40.298  25.917   7.294
 3735POPC   NC349739  15.673  31.755   5.338
 3735POPC   PO449740  16.312  31.416   5.343
 3735POPC   GL149741  16.163  31.462   5.777
 3735POPC   GL249742  15.810  31.579   5.802
 3735POPC   C1A49743  16.053  31.316   6.207
 3735POPC   D2A49744  16.038  31.059   6.594
 3735POPC   C3A49745  16.045  31.277   6.985
 3735POPC   C4A49746  16.301  31.314   7.334
 3735POPC   C1B49747  15.611  31.578   6.210
 3735POPC   C2B49748  15.737  31.489   6.623
 3735POPC   C3B49749  15.601  31.591   7.036
 3735POPC   C4B49750  15.604  31.381   7.436
 3736POPC   NC349751   2.523  19.984   5.323
 3736POPC   PO449752   2.907  19.486   5.335
 3736POPC   GL149753   2.668  19.546   5.697
 3736POPC   GL249754   2.915  19.376   5.867
 3736POPC   C1A49755   2.647  19.738   6.133
 3736POPC   D2A49756   2.492  19.724   6.562
 3736POPC   C3A49757   2.678  19.809   7.001
 3736POPC   C4A49758   2.508  20.065   7.385
 3736POPC   C1B49759   3.124  19.561   6.196
 3736POPC   C2B49760   3.014  19.778   6.587
 3736POPC   C3B49761   3.177  19.635   6.990
 3736POPC   C4B49762   2.912  19.355   7.181
 3737POPC   NC349763  27.931  40.141   5.463
 3737POPC   PO449764  27.364  39.760   5.373
 3737POPC   GL149765  27.612  39.858   5.769
 3737POPC   GL249766  27.608  40.236   5.838
 3737POPC   C1A49767  27.749  39.783   6.216
 3737POPC   D2A49768  27.947  40.025   6.555
 3737POPC   C3A49769  27.923  40.012   6.989
 3737POPC   C4A49770  27.694  39.837   7.310
 3737POPC   C1B49771  27.325  40.082   6.145
 3737POPC   C2B49772  27.423  40.009   6.557
 3737POPC   C3B49773  27.323  39.897   6.937
 3737POPC   C4B49774  27.217  40.027   7.322
 3738POPC   NC349775   2.307  33.197   5.384
 3738POPC   PO449776   1.627  33.139   5.437
 3738POPC   GL149777   1.930  33.211   5.744
 3738POPC   GL249778   2.089  32.893   5.791
 3738POPC   C1A49779   2.229  33.283   6.088
 3738POPC   D2A49780   2.300  33.208   6.523
 3738POPC   C3A49781   1.934  33.184   6.791
 3738POPC   C4A49782   1.874  33.176   7.236
 3738POPC   C1B49783   1.916  32.874   6.231
 3738POPC   C2B49784   2.105  32.719   6.650
 3738POPC   C3B49785   2.206  32.811   7.104
 3738POPC   C4B49786   2.011  32.577   7.466
 3739POPC   NC349787  15.290   6.121   5.496
 3739POPC   PO449788  15.213   6.812   5.413
 3739POPC   GL149789  15.243   6.588   5.763
 3739POPC   GL249790  14.918   6.417   5.709
 3739POPC   C1A49791  15.452   6.557   6.168
 3739POPC   D2A49792  15.291   6.412   6.581
 3739POPC   C3A49793  15.229   6.618   6.966
 3739POPC   C4A49794  14.924   6.888   7.181
 3739POPC   C1B49795  14.995   6.349   6.148
 3739POPC   C2B49796  14.940   6.062   6.479
 3739POPC   C3B49797  14.955   6.137   6.910
 3739POPC   C4B49798  14.972   6.344   7.305
 3740POPC   NC349799  19.141  19.136   5.094
 3740POPC   PO449800  18.917  18.622   5.420
 3740POPC   GL149801  19.198  18.870   5.679
 3740POPC   GL249802  19.176  19.226   5.626
 3740POPC   C1A49803  19.376  19.020   6.070
 3740POPC   D2A49804  19.392  19.293   6.400
 3740POPC   C3A49805  19.391  19.176   6.812
 3740POPC   C4A49806  19.188  19.063   7.175
 3740POPC   C1B49807  18.984  19.376   6.054
 3740POPC   C2B49808  18.891  19.376   6.522
 3740POPC   C3B49809  18.862  19.385   6.985
 3740POPC   C4B49810  18.613  19.280   7.371
 3741POPC   NC349811  22.566  34.321   5.538
 3741POPC   PO449812  23.044  34.504   5.056
 3741POPC   GL149813  22.957  34.641   5.568
 3741POPC   GL249814  23.006  34.328   5.804
 3741POPC   C1A49815  23.100  34.749   6.060
 3741POPC   D2A49816  23.106  34.516   6.496
 3741POPC   C3A49817  23.021  34.728   6.911
 3741POPC   C4A49818  22.767  35.042   7.117
 3741POPC   C1B49819  22.731  34.106   6.145
 3741POPC   C2B49820  22.582  34.002   6.575
 3741POPC   C3B49821  22.714  34.145   7.002
 3741POPC   C4B49822  23.098  34.307   7.216
 3742POPC   NC349823  33.899  23.184   5.421
 3742POPC   PO449824  33.402  22.673   5.387
 3742POPC   GL149825  33.649  22.790   5.749
 3742POPC   GL249826  34.031  22.791   5.730
 3742POPC   C1A49827  33.533  22.923   6.171
 3742POPC   D2A49828  33.623  23.126   6.581
 3742POPC   C3A49829  33.826  22.814   6.839
 3742POPC   C4A49830  33.653  22.619   7.175
 3742POPC   C1B49831  34.138  22.884   6.145
 3742POPC   C2B49832  34.128  23.099   6.518
 3742POPC   C3B49833  34.230  23.129   6.910
 3742POPC   C4B49834  34.093  22.968   7.296
 3743POPC   NC349835   9.498  37.699   5.293
 3743POPC   PO449836  10.007  37.530   5.554
 3743POPC   GL149837   9.671  37.717   5.778
 3743POPC   GL249838   9.609  38.064   5.653
 3743POPC   C1A49839   9.593  37.628   6.202
 3743POPC   D2A49840   9.547  37.465   6.635
 3743POPC   C3A49841   9.836  37.620   6.965
 3743POPC   C4A49842  10.137  37.912   7.188
 3743POPC   C1B49843   9.700  38.129   6.097
 3743POPC   C2B49844   9.650  37.981   6.559
 3743POPC   C3B49845   9.501  38.014   6.975
 3743POPC   C4B49846   9.644  37.836   7.389
 3744POPC   NC349847  29.433  36.217   5.593
 3744POPC   PO449848  28.827  36.138   5.281
 3744POPC   GL149849  28.911  36.123   5.781
 3744POPC   GL249850  29.171  36.321   6.007
 3744POPC   C1A49851  28.848  36.041   6.269
 3744POPC   D2A49852  29.133  35.919   6.643
 3744POPC   C3A49853  29.129  36.161   7.042
 3744POPC   C4A49854  28.784  36.240   7.304
 3744POPC   C1B49855  29.323  35.880   6.149
 3744POPC   C2B49856  29.599  35.763   6.516
 3744POPC   C3B49857  29.604  35.906   6.936
 3744POPC   C4B49858  29.527  35.950   7.370
 3745POPC   NC349859  39.525  42.028   5.623
 3745POPC   PO449860  38.921  42.132   5.255
 3745POPC   GL149861  39.002  42.154   5.735
 3745POPC   GL249862  39.241  42.441   5.794
 3745POPC   C1A49863  39.126  42.120   6.216
 3745POPC   D2A49864  39.231  41.944   6.661
 3745POPC   C3A49865  39.073  42.202   7.002
 3745POPC   C4A49866  38.938  42.351   7.409
 3745POPC   C1B49867  39.502  42.514   6.176
 3745POPC   C2B49868  39.399  42.432   6.592
 3745POPC   C3B49869  39.584  42.338   6.951
 3745POPC   C4B49870  39.654  42.618   7.246
 3746POPC   NC349871   1.459  27.714   5.379
 3746POPC   PO449872   2.147  27.703   5.522
 3746POPC   GL149873   1.999  27.523   5.854
 3746POPC   GL249874   1.686  27.423   5.767
 3746POPC   C1A49875   2.089  27.610   6.254
 3746POPC   D2A49876   2.140  27.827   6.592
 3746POPC   C3A49877   2.181  27.568   6.935
 3746POPC   C4A49878   2.192  27.693   7.382
 3746POPC   C1B49879   1.588  27.499   6.218
 3746POPC   C2B49880   1.778  27.438   6.631
 3746POPC   C3B49881   1.716  27.475   7.085
 3746POPC   C4B49882   1.690  27.783   7.425
 3747POPC   NC349883  41.369  13.308   5.345
 3747POPC   PO449884  41.321  13.971   5.140
 3747POPC   GL149885  41.402  13.825   5.630
 3747POPC   GL249886  41.313  13.496   5.817
 3747POPC   C1A49887  41.498  13.855   6.103
 3747POPC   D2A49888  41.329  13.662   6.499
 3747POPC   C3A49889  41.479  13.596   6.908
 3747POPC   C4A49890  41.640  13.852   7.209
 3747POPC   C1B49891  41.645  13.366   6.089
 3747POPC   C2B49892  41.800  13.471   6.509
 3747POPC   C3B49893  41.915  13.355   6.929
 3747POPC   C4B49894  42.027  13.541   7.329
 3748POPC   NC349895   9.868  42.696   5.432
 3748POPC   PO449896   9.788  42.092   5.246
 3748POPC   GL149897   9.623  42.344   5.667
 3748POPC   GL249898   9.302  42.375   5.770
 3748POPC   C1A49899   9.718  42.483   6.127
 3748POPC   D2A49900   9.765  42.174   6.482
 3748POPC   C3A49901   9.934  42.171   6.923
 3748POPC   C4A49902   9.855  42.447   7.277
 3748POPC   C1B49903   9.377  42.108   6.115
 3748POPC   C2B49904   9.267  42.030   6.519
 3748POPC   C3B49905   9.430  42.188   6.885
 3748POPC   C4B49906   9.555  42.035   7.273
 3749POPC   NC349907  38.178   0.062   5.578
 3749POPC   PO449908  38.647  44.619   5.463
 3749POPC   GL149909  38.465  44.711   5.844
 3749POPC   GL249910  38.118  44.628   5.910
 3749POPC   C1A49911  38.602  44.751   6.253
 3749POPC   D2A49912  38.664  44.956   6.627
 3749POPC   C3A49913  38.563  44.652   6.913
 3749POPC   C4A49914  38.265  44.399   7.113
 3749POPC   C1B49915  38.084  44.846   6.330
 3749POPC   C2B49916  38.063  44.817   6.809
 3749POPC   C3B49917  38.077  44.943   7.265
 3749POPC   C4B49918  37.902  44.923   7.708
 3750POPC   NC349919  33.426  26.543   5.166
 3750POPC   PO449920  32.969  26.696   5.613
 3750POPC   GL149921  32.995  26.959   5.898
 3750POPC   GL249922  33.283  27.128   5.796
 3750POPC   C1A49923  32.894  26.824   6.273
 3750POPC   D2A49924  32.938  26.848   6.681
 3750POPC   C3A49925  33.190  26.586   6.896
 3750POPC   C4A49926  32.985  26.713   7.265
 3750POPC   C1B49927  33.340  27.099   6.256
 3750POPC   C2B49928  33.476  26.960   6.663
 3750POPC   C3B49929  33.309  27.052   7.073
 3750POPC   C4B49930  33.390  26.888   7.511
 3751POPC   NC349931  28.444  36.314   5.476
 3751POPC   PO449932  27.843  36.063   5.563
 3751POPC   GL149933  28.188  35.989   5.827
 3751POPC   GL249934  28.480  35.840   5.681
 3751POPC   C1A49935  28.345  36.168   6.212
 3751POPC   D2A49936  28.424  36.051   6.643
 3751POPC   C3A49937  28.242  35.948   7.078
 3751POPC   C4A49938  28.355  36.077   7.512
 3751POPC   C1B49939  28.493  35.677   6.133
 3751POPC   C2B49940  28.707  35.623   6.535
 3751POPC   C3B49941  28.733  35.794   6.942
 3751POPC   C4B49942  28.645  35.686   7.323
 3752POPC   NC349943  20.439   9.737   5.253
 3752POPC   PO449944  20.862  10.104   5.641
 3752POPC   GL149945  20.642   9.753   5.783
 3752POPC   GL249946  20.919   9.555   5.930
 3752POPC   C1A49947  20.492   9.823   6.191
 3752POPC   D2A49948  20.717   9.824   6.567
 3752POPC   C3A49949  20.471   9.789   6.922
 3752POPC   C4A49950  20.245   9.896   7.302
 3752POPC   C1B49951  21.187   9.864   6.164
 3752POPC   C2B49952  21.211  10.026   6.588
 3752POPC   C3B49953  21.051   9.896   6.991
 3752POPC   C4B49954  20.808   9.584   7.237
 3753POPC   NC349955  23.968  44.379   5.482
 3753POPC   PO449956  23.328  44.408   5.322
 3753POPC   GL149957  23.507  44.493   5.754
 3753POPC   GL249958  23.618  44.840   5.767
 3753POPC   C1A49959  23.550  44.545   6.229
 3753POPC   D2A49960  23.605  44.803   6.614
 3753POPC   C3A49961  23.478  44.649   7.035
 3753POPC   C4A49962  23.458  44.225   7.199
 3753POPC   C1B49963  23.987  44.777   6.062
 3753POPC   C2B49964  24.029  44.553   6.487
 3753POPC   C3B49965  23.982  44.642   6.930
 3753POPC   C4B49966  24.171  44.946   7.170
 3754POPC   NC349967  44.476  18.804   5.514
 3754POPC   PO449968   0.048  19.109   5.495
 3754POPC   GL149969  44.823  19.007   5.855
 3754POPC   GL249970  44.811  18.643   5.862
 3754POPC   C1A49971  44.803  19.174   6.256
 3754POPC   D2A49972   0.033  19.255   6.622
 3754POPC   C3A49973  44.715  19.326   6.929
 3754POPC   C4A49974  44.535  19.172   7.333
 3754POPC   C1B49975  44.557  18.710   6.238
 3754POPC   C2B49976  44.719  18.818   6.650
 3754POPC   C3B49977  44.717  18.790   7.081
 3754POPC   C4B49978  44.398  18.671   7.403
 3755POPC   NC349979  42.903  31.062   5.414
 3755POPC   PO449980  43.289  30.611   5.690
 3755POPC   GL149981  42.913  30.713   5.850
 3755POPC   GL249982  42.950  31.074   5.917
 3755POPC   C1A49983  42.716  30.594   6.274
 3755POPC   D2A49984  42.872  30.627   6.694
 3755POPC   C3A49985  42.738  30.472   7.099
 3755POPC   C4A49986  42.870  30.615   7.524
 3755POPC   C1B49987  43.147  30.877   6.285
 3755POPC   C2B49988  43.310  30.866   6.683
 3755POPC   C3B49989  43.112  30.852   7.090
 3755POPC   C4B49990  43.298  30.883   7.483
 3756POPC   NC349991   1.474   3.478   5.445
 3756POPC   PO449992   2.063   3.755   5.331
 3756POPC   GL149993   1.940   3.602   5.712
 3756POPC   GL249994   2.041   3.232   5.695
 3756POPC   C1A49995   1.825   3.843   6.087
 3756POPC   D2A49996   2.041   3.940   6.482
 3756POPC   C3A49997   1.954   3.973   6.888
 3756POPC   C4A49998   1.610   3.982   7.107
 3756POPC   C1B49999   1.757   3.282   6.060
 3756POPC   C2B50000   1.837   3.485   6.439
 3756POPC   C3B50001   1.801   3.493   6.844
 3756POPC   C4B50002   2.040   3.544   7.201
 3757POPC   NC350003  39.787  10.885   5.281
 3757POPC   PO450004  39.457  10.255   5.085
 3757POPC   GL150005  39.268  10.344   5.550
 3757POPC   GL250006  38.917  10.390   5.732
 3757POPC   C1A50007  39.313  10.468   6.027
 3757POPC   D2A50008  39.087  10.472   6.441
 3757POPC   C3A50009  39.309  10.446   6.857
 3757POPC   C4A50010  39.433  10.713   7.222
 3757POPC   C1B50011  38.908  10.804   6.031
 3757POPC   C2B50012  38.798  10.914   6.487
 3757POPC   C3B50013  38.918  10.772   6.918
 3757POPC   C4B50014  38.794  10.700   7.373
 3758POPC   NC350015  37.992  37.581   5.428
 3758POPC   PO450016  37.741  38.173   5.221
 3758POPC   GL150017  37.658  37.794   5.727
 3758POPC   GL250018  37.935  37.650   5.910
 3758POPC   C1A50019  37.519  37.758   6.174
 3758POPC   D2A50020  37.447  37.559   6.568
 3758POPC   C3A50021  37.587  37.830   6.912
 3758POPC   C4A50022  37.440  37.825   7.328
 3758POPC   C1B50023  38.031  37.795   6.288
 3758POPC   C2B50024  37.971  37.585   6.664
 3758POPC   C3B50025  38.075  37.701   7.061
 3758POPC   C4B50026  37.949  37.801   7.444
 3759POPC   NC350027  12.442  21.649   5.422
 3759POPC   PO450028  11.816  21.569   5.463
 3759POPC   GL150029  11.696  21.419   5.879
 3759POPC   GL250030  11.650  21.030   5.914
 3759POPC   C1A50031  11.806  21.430   6.287
 3759POPC   D2A50032  12.160  21.541   6.514
 3759POPC   C3A50033  11.979  21.648   6.870
 3759POPC   C4A50034  11.810  21.486   7.236
 3759POPC   C1B50035  11.727  20.867   6.295
 3759POPC   C2B50036  11.971  21.063   6.614
 3759POPC   C3B50037  12.168  21.184   6.999
 3759POPC   C4B50038  12.148  21.130   7.440
 3760POPC   NC350039  22.746  30.809   5.474
 3760POPC   PO450040  23.486  30.673   5.453
 3760POPC   GL150041  23.118  30.647   5.779
 3760POPC   GL250042  22.813  30.398   5.768
 3760POPC   C1A50043  22.846  30.824   6.137
 3760POPC   D2A50044  23.016  30.907   6.537
 3760POPC   C3A50045  22.827  30.889   6.894
 3760POPC   C4A50046  22.953  30.734   7.259
 3760POPC   C1B50047  22.638  30.355   6.184
 3760POPC   C2B50048  22.843  30.413   6.573
 3760POPC   C3B50049  22.701  30.401   6.977
 3760POPC   C4B50050  22.677  30.147   7.392
 3761POPC   NC350051   8.712  12.680   5.485
 3761POPC   PO450052   9.210  13.019   5.427
 3761POPC   GL150053   9.241  13.002   5.854
 3761POPC   GL250054   9.150  12.635   5.800
 3761POPC   C1A50055   9.138  13.206   6.296
 3761POPC   D2A50056   9.048  13.219   6.783
 3761POPC   C3A50057   9.267  13.119   7.155
 3761POPC   C4A50058   9.284  12.991   7.592
 3761POPC   C1B50059   8.887  12.786   6.147
 3761POPC   C2B50060   8.999  12.762   6.549
 3761POPC   C3B50061   8.854  12.732   6.933
 3761POPC   C4B50062   8.687  12.841   7.307
 3762POPC   NC350063   6.229  37.836   5.554
 3762POPC   PO450064   5.682  37.608   5.348
 3762POPC   GL150065   5.861  37.494   5.738
 3762POPC   GL250066   5.521  37.394   5.825
 3762POPC   C1A50067   6.097  37.579   6.130
 3762POPC   D2A50068   6.036  37.480   6.545
 3762POPC   C3A50069   6.088  37.726   6.876
 3762POPC   C4A50070   6.167  37.565   7.252
 3762POPC   C1B50071   5.650  37.303   6.221
 3762POPC   C2B50072   5.540  37.476   6.605
 3762POPC   C3B50073   5.679  37.434   6.993
 3762POPC   C4B50074   5.706  37.764   7.240
 3763POPC   NC350075  27.186  16.779   5.236
 3763POPC   PO450076  26.670  16.417   5.460
 3763POPC   GL150077  26.819  16.697   5.774
 3763POPC   GL250078  26.897  16.988   5.609
 3763POPC   C1A50079  26.678  16.635   6.179
 3763POPC   D2A50080  26.812  16.391   6.501
 3763POPC   C3A50081  26.839  16.637   6.835
 3763POPC   C4A50082  26.832  16.849   7.219
 3763POPC   C1B50083  27.055  17.069   6.008
 3763POPC   C2B50084  26.970  16.990   6.440
 3763POPC   C3B50085  26.956  17.158   6.837
 3763POPC   C4B50086  27.230  17.346   7.116
 3764POPC   NC350087  16.396  44.518   5.372
 3764POPC   PO450088  17.030  44.647   5.414
 3764POPC   GL150089  16.784  44.465   5.728
 3764POPC   GL250090  16.566  44.737   5.824
 3764POPC   C1A50091  16.887  44.525   6.170
 3764POPC   D2A50092  16.681  44.690   6.490
 3764POPC   C3A50093  16.773  44.614   6.906
 3764POPC   C4A50094  16.496  44.750   7.206
 3764POPC   C1B50095  16.406  44.370   6.093
 3764POPC   C2B50096  16.499  44.199   6.501
 3764POPC   C3B50097  16.334  44.300   6.917
 3764POPC   C4B50098  16.168  44.218   7.355
 3765POPC   NC350099  18.158  37.419   5.422
 3765POPC   PO450100  18.534  38.003   5.476
 3765POPC   GL150101  18.418  37.803   5.864
 3765POPC   GL250102  18.426  37.442   5.886
 3765POPC   C1A50103  18.291  37.860   6.300
 3765POPC   D2A50104  18.243  38.072   6.712
 3765POPC   C3A50105  18.231  37.830   7.082
 3765POPC   C4A50106  18.533  37.542   7.214
 3765POPC   C1B50107  18.220  37.359   6.307
 3765POPC   C2B50108  18.033  37.480   6.731
 3765POPC   C3B50109  18.047  37.358   7.182
 3765POPC   C4B50110  18.365  37.089   7.408
 3766POPC   NC350111   6.327   2.242   5.381
 3766POPC   PO450112   6.479   2.890   5.187
 3766POPC   GL150113   6.574   2.744   5.669
 3766POPC   GL250114   6.792   2.462   5.781
 3766POPC   C1A50115   6.638   2.974   6.109
 3766POPC   D2A50116   6.864   3.116   6.498
 3766POPC   C3A50117   6.717   3.015   6.919
 3766POPC   C4A50118   6.899   2.713   7.212
 3766POPC   C1B50119   6.741   2.493   6.244
 3766POPC   C2B50120   6.479   2.723   6.559
 3766POPC   C3B50121   6.391   2.614   7.009
 3766POPC   C4B50122   6.605   2.292   7.247
 3767POPC   NC350123  30.905  29.767   5.454
 3767POPC   PO450124  30.272  29.989   5.429
 3767POPC   GL150125  30.562  30.013   5.758
 3767POPC   GL250126  30.572  29.662   5.844
 3767POPC   C1A50127  30.594  29.997   6.214
 3767POPC   D2A50128  30.382  30.086   6.585
 3767POPC   C3A50129  30.672  29.990   6.942
 3767POPC   C4A50130  31.086  30.143   7.051
 3767POPC   C1B50131  30.905  29.561   6.159
 3767POPC   C2B50132  31.049  29.535   6.573
 3767POPC   C3B50133  30.873  29.503   6.937
 3767POPC   C4B50134  30.665  29.610   7.298
 3768POPC   NC350135  22.654  44.653   5.390
 3768POPC   PO450136  22.067  44.348   5.482
 3768POPC   GL150137  22.411  44.445   5.789
 3768POPC   GL250138  22.413  44.840   5.867
 3768POPC   C1A50139  22.318  44.459   6.220
 3768POPC   D2A50140  22.179  44.242   6.563
 3768POPC   C3A50141  22.024  44.510   6.870
 3768POPC   C4A50142  21.982  44.494   7.290
 3768POPC   C1B50143  22.677  44.809   6.288
 3768POPC   C2B50144  22.650  44.537   6.653
 3768POPC   C3B50145  22.486  44.659   7.055
 3768POPC   C4B50146  22.154  44.956   7.148
 3769POPC   NC350147  24.971  18.087   5.483
 3769POPC   PO450148  25.569  18.357   5.327
 3769POPC   GL150149  25.389  18.172   5.776
 3769POPC   GL250150  25.014  18.248   5.962
 3769POPC   C1A50151  25.351  17.960   6.209
 3769POPC   D2A50152  25.022  18.036   6.519
 3769POPC   C3A50153  25.143  18.001   6.929
 3769POPC   C4A50154  25.472  17.979   7.206
 3769POPC   C1B50155  24.752  18.431   6.341
 3769POPC   C2B50156  24.818  18.432   6.820
 3769POPC   C3B50157  25.136  18.438   7.195
 3769POPC   C4B50158  25.145  18.169   7.573
 3770POPC   NC350159  26.258  33.267   5.336
 3770POPC   PO450160  25.633  33.123   5.318
 3770POPC   GL150161  25.924  33.148   5.704
 3770POPC   GL250162  26.158  32.840   5.702
 3770POPC   C1A50163  26.090  33.179   6.143
 3770POPC   D2A50164  25.922  33.079   6.573
 3770POPC   C3A50165  25.919  33.313   6.970
 3770POPC   C4A50166  25.976  33.222   7.416
 3770POPC   C1B50167  26.326  32.748   6.141
 3770POPC   C2B50168  26.402  32.902   6.576
 3770POPC   C3B50169  26.299  32.932   7.054
 3770POPC   C4B50170  26.374  32.918   7.543
 3771POPC   NC350171  19.357  39.375   5.449
 3771POPC   PO450172  18.760  39.059   5.438
 3771POPC   GL150173  18.987  39.206   5.809
 3771POPC   GL250174  19.311  39.022   5.902
 3771POPC   C1A50175  18.917  39.174   6.243
 3771POPC   D2A50176  19.172  38.918   6.455
 3771POPC   C3A50177  19.133  38.903   6.887
 3771POPC   C4A50178  19.255  39.052   7.289
 3771POPC   C1B50179  19.394  39.343   6.244
 3771POPC   C2B50180  19.182  39.418   6.655
 3771POPC   C3B50181  19.235  39.543   7.110
 3771POPC   C4B50182  19.208  39.485   7.597
 3772POPC   NC350183   2.357  41.540   5.549
 3772POPC   PO450184   2.975  41.737   5.611
 3772POPC   GL150185   2.922  41.373   5.852
 3772POPC   GL250186   3.262  41.270   5.972
 3772POPC   C1A50187   2.839  41.226   6.273
 3772POPC   D2A50188   3.021  41.360   6.689
 3772POPC   C3A50189   2.722  41.371   7.021
 3772POPC   C4A50190   2.589  41.488   7.461
 3772POPC   C1B50191   3.127  41.651   6.267
 3772POPC   C2B50192   3.023  41.943   6.629
 3772POPC   C3B50193   3.075  41.951   7.065
 3772POPC   C4B50194   3.075  41.616   7.361
 3773POPC   NC350195  39.027   9.196   5.115
 3773POPC   PO450196  39.345   8.685   5.450
 3773POPC   GL150197  39.577   8.778   5.828
 3773POPC   GL250198  39.325   8.964   6.050
 3773POPC   C1A50199  39.590   8.595   6.250
 3773POPC   D2A50200  39.253   8.634   6.543
 3773POPC   C3A50201  39.316   9.019   6.765
 3773POPC   C4A50202  39.597   9.140   7.145
 3773POPC   C1B50203  38.918   8.814   6.192
 3773POPC   C2B50204  38.707   8.837   6.587
 3773POPC   C3B50205  38.804   9.111   6.928
 3773POPC   C4B50206  39.107   9.085   7.218
 3774POPC   NC350207  43.564  25.379   5.119
 3774POPC   PO450208  43.795  24.823   5.414
 3774POPC   GL150209  43.920  25.107   5.706
 3774POPC   GL250210  43.774  25.394   5.595
 3774POPC   C1A50211  44.059  25.089   6.137
 3774POPC   D2A50212  44.205  25.007   6.550
 3774POPC   C3A50213  43.973  25.080   6.906
 3774POPC   C4A50214  43.864  24.815   7.247
 3774POPC   C1B50215  43.857  25.540   6.036
 3774POPC   C2B50216  43.779  25.409   6.461
 3774POPC   C3B50217  43.740  25.536   6.888
 3774POPC   C4B50218  43.657  25.312   7.269
 3775POPC   NC350219  35.584  23.560   5.390
 3775POPC   PO450220  34.949  23.523   5.583
 3775POPC   GL150221  35.139  23.686   5.967
 3775POPC   GL250222  35.466  23.663   5.895
 3775POPC   C1A50223  35.427  23.718   6.380
 3775POPC   D2A50224  35.540  23.994   6.703
 3775POPC   C3A50225  35.228  23.804   6.954
 3775POPC   C4A50226  35.258  23.633   7.331
 3775POPC   C1B50227  35.803  23.466   6.119
 3775POPC   C2B50228  35.709  23.265   6.500
 3775POPC   C3B50229  35.627  23.497   6.856
 3775POPC   C4B50230  35.656  23.335   7.225
 3776POPC   NC350231   9.842  39.088   5.407
 3776POPC   PO450232   9.796  38.458   5.241
 3776POPC   GL150233   9.602  38.599   5.619
 3776POPC   GL250234   9.914  38.708   5.758
 3776POPC   C1A50235   9.515  38.607   6.081
 3776POPC   D2A50236   9.708  38.473   6.477
 3776POPC   C3A50237   9.581  38.534   6.908
 3776POPC   C4A50238   9.722  38.328   7.302
 3776POPC   C1B50239  10.105  38.552   6.156
 3776POPC   C2B50240  10.190  38.676   6.611
 3776POPC   C3B50241  10.053  38.665   7.075
 3776POPC   C4B50242   9.962  38.666   7.567
 3777POPC   NC350243   2.300  31.190   5.317
 3777POPC   PO450244   1.631  31.220   5.465
 3777POPC   GL150245   1.752  31.460   5.850
 3777POPC   GL250246   2.101  31.591   5.829
 3777POPC   C1A50247   1.781  31.449   6.317
 3777POPC   D2A50248   1.979  31.241   6.653
 3777POPC   C3A50249   1.947  31.350   7.095
 3777POPC   C4A50250   1.628  31.157   7.317
 3777POPC   C1B50251   2.120  31.848   6.213
 3777POPC   C2B50252   2.225  31.688   6.591
 3777POPC   C3B50253   2.163  31.801   6.999
 3777POPC   C4B50254   2.311  31.631   7.372
 3778POPC   NC350255  16.842   2.217   5.500
 3778POPC   PO450256  16.578   1.581   5.345
 3778POPC   GL150257  16.704   1.769   5.749
 3778POPC   GL250258  16.950   1.539   5.816
 3778POPC   C1A50259  16.609   2.056   6.139
 3778POPC   D2A50260  16.637   2.268   6.567
 3778POPC   C3A50261  17.039   2.200   6.801
 3778POPC   C4A50262  17.009   2.107   7.244
 3778POPC   C1B50263  17.044   1.633   6.241
 3778POPC   C2B50264  16.835   1.559   6.639
 3778POPC   C3B50265  16.671   1.861   6.932
 3778POPC   C4B50266  16.623   1.836   7.409
 3779POPC   NC350267  23.554  13.165   5.437
 3779POPC   PO450268  23.773  12.488   5.347
 3779POPC   GL150269  23.607  12.693   5.720
 3779POPC   GL250270  23.869  12.949   5.799
 3779POPC   C1A50271  23.401  12.532   6.111
 3779POPC   D2A50272  23.556  12.350   6.494
 3779POPC   C3A50273  23.505  12.510   6.875
 3779POPC   C4A50274  23.797  12.623   7.164
 3779POPC   C1B50275  23.550  13.044   6.119
 3779POPC   C2B50276  23.432  12.893   6.521
 3779POPC   C3B50277  23.540  13.018   6.928
 3779POPC   C4B50278  23.959  13.074   6.988
 3780POPC   NC350279  42.076  31.623   5.408
 3780POPC   PO450280  42.722  31.472   5.590
 3780POPC   GL150281  42.313  31.465   5.836
 3780POPC   GL250282  42.071  31.173   5.879
 3780POPC   C1A50283  42.181  31.673   6.216
 3780POPC   D2A50284  42.244  31.736   6.675
 3780POPC   C3A50285  42.585  31.717   6.920
 3780POPC   C4A50286  42.493  31.483   7.259
 3780POPC   C1B50287  41.885  31.260   6.294
 3780POPC   C2B50288  41.800  31.499   6.688
 3780POPC   C3B50289  41.927  31.435   7.135
 3780POPC   C4B50290  42.067  31.500   7.575
 3781POPC   NC350291  16.390  16.878   5.440
 3781POPC   PO450292  16.968  16.415   5.421
 3781POPC   GL150293  16.676  16.473   5.807
 3781POPC   GL250294  16.629  16.822   5.894
 3781POPC   C1A50295  16.583  16.459   6.300
 3781POPC   D2A50296  16.594  16.319   6.787
 3781POPC   C3A50297  16.553  16.630   7.114
 3781POPC   C4A50298  16.752  16.818   7.491
 3781POPC   C1B50299  16.703  17.037   6.276
 3781POPC   C2B50300  16.752  16.877   6.680
 3781POPC   C3B50301  16.714  17.094   7.064
 3781POPC   C4B50302  16.393  17.233   7.343
 3782POPC   NC350303   2.273  44.399   5.558
 3782POPC   PO450304   1.940  44.928   5.453
 3782POPC   GL150305   1.945  44.693   5.865
 3782POPC   GL250306   2.253  44.558   6.027
 3782POPC   C1A50307   1.850  44.697   6.337
 3782POPC   D2A50308   1.701  44.955   6.717
 3782POPC   C3A50309   1.979  44.846   7.041
 3782POPC   C4A50310   2.170  44.425   7.026
 3782POPC   C1B50311   2.242  44.988   6.160
 3782POPC   C2B50312   2.228   0.016   6.595
 3782POPC   C3B50313   2.474  44.845   6.903
 3782POPC   C4B50314   2.482  44.821   7.313
 3783POPC   NC350315   1.609  13.302   5.391
 3783POPC   PO450316   1.439  13.916   5.340
 3783POPC   GL150317   1.261  13.720   5.734
 3783POPC   GL250318   1.270  13.377   5.824
 3783POPC   C1A50319   1.104  13.794   6.165
 3783POPC   D2A50320   1.290  13.898   6.569
 3783POPC   C3A50321   1.137  13.772   6.979
 3783POPC   C4A50322   1.133  13.969   7.389
 3783POPC   C1B50323   0.963  13.300   6.189
 3783POPC   C2B50324   0.859  13.497   6.606
 3783POPC   C3B50325   0.855  13.348   7.047
 3783POPC   C4B50326   1.248  13.167   7.225
 3784POPC   NC350327  28.798  21.058   5.398
 3784POPC   PO450328  29.117  21.598   5.313
 3784POPC   GL150329  28.944  21.495   5.700
 3784POPC   GL250330  29.185  21.226   5.805
 3784POPC   C1A50331  29.089  21.624   6.129
 3784POPC   D2A50332  29.358  21.321   6.370
 3784POPC   C3A50333  29.356  21.365   6.850
 3784POPC   C4A50334  29.014  21.583   7.091
 3784POPC   C1B50335  28.895  21.164   6.167
 3784POPC   C2B50336  28.886  21.328   6.615
 3784POPC   C3B50337  28.688  21.186   7.013
 3784POPC   C4B50338  28.719  21.001   7.421
 3785POPC   NC350339  13.023  12.312   5.540
 3785POPC   PO450340  12.580  11.863   5.459
 3785POPC   GL150341  12.662  12.072   5.825
 3785POPC   GL250342  12.988  11.939   5.917
 3785POPC   C1A50343  12.713  12.330   6.189
 3785POPC   D2A50344  12.789  12.454   6.604
 3785POPC   C3A50345  12.564  12.317   6.965
 3785POPC   C4A50346  12.912  12.207   7.199
 3785POPC   C1B50347  13.091  12.044   6.354
 3785POPC   C2B50348  13.286  11.761   6.660
 3785POPC   C3B50349  13.403  11.693   7.078
 3785POPC   C4B50350  13.141  11.819   7.418
 3786POPC   NC350351  29.605  31.018   5.569
 3786POPC   PO450352  30.051  31.490   5.322
 3786POPC   GL150353  30.013  31.333   5.768
 3786POPC   GL250354  30.244  31.122   5.906
 3786POPC   C1A50355  29.902  31.401   6.228
 3786POPC   D2A50356  29.671  31.412   6.656
 3786POPC   C3A50357  29.888  31.581   7.009
 3786POPC   C4A50358  30.001  31.479   7.451
 3786POPC   C1B50359  30.259  31.012   6.291
 3786POPC   C2B50360  30.031  31.039   6.651
 3786POPC   C3B50361  30.175  31.187   7.022
 3786POPC   C4B50362  30.442  31.243   7.361
 3787POPC   NC350363  27.921  34.707   5.348
 3787POPC   PO450364  27.475  34.226   5.175
 3787POPC   GL150365  27.420  34.508   5.549
 3787POPC   GL250366  27.733  34.453   5.757
 3787POPC   C1A50367  27.302  34.502   6.017
 3787POPC   D2A50368  27.568  34.410   6.387
 3787POPC   C3A50369  27.465  34.311   6.818
 3787POPC   C4A50370  27.446  34.546   7.180
 3787POPC   C1B50371  27.735  34.825   6.061
 3787POPC   C2B50372  27.698  34.928   6.511
 3787POPC   C3B50373  27.812  34.714   6.883
 3787POPC   C4B50374  27.916  34.693   7.320
 3788POPC   NC350375  42.440  12.136   5.288
 3788POPC   PO450376  41.891  11.956   5.536
 3788POPC   GL150377  42.182  12.245   5.790
 3788POPC   GL250378  42.541  12.372   5.733
 3788POPC   C1A50379  42.037  12.444   6.177
 3788POPC   D2A50380  41.825  12.420   6.587
 3788POPC   C3A50381  42.055  12.350   6.986
 3788POPC   C4A50382  42.112  12.049   7.338
 3788POPC   C1B50383  42.530  12.260   6.190
 3788POPC   C2B50384  42.361  12.204   6.608
 3788POPC   C3B50385  42.573  12.257   7.031
 3788POPC   C4B50386  42.814  12.609   7.277
 3789POPC   NC350387   9.475   5.818   5.454
 3789POPC   PO450388  10.040   6.179   5.378
 3789POPC   GL150389   9.736   6.184   5.729
 3789POPC   GL250390   9.566   6.490   5.852
 3789POPC   C1A50391   9.738   5.950   6.094
 3789POPC   D2A50392   9.782   5.647   6.429
 3789POPC   C3A50393   9.819   5.733   6.854
 3789POPC   C4A50394   9.979   5.813   7.256
 3789POPC   C1B50395   9.370   6.317   6.213
 3789POPC   C2B50396   9.399   5.980   6.499
 3789POPC   C3B50397   9.527   6.124   6.883
 3789POPC   C4B50398   9.583   6.120   7.300
 3790POPC   NC350399  31.251  43.414   5.320
 3790POPC   PO450400  31.713  42.939   5.345
 3790POPC   GL150401  31.481  43.017   5.708
 3790POPC   GL250402  31.395  43.342   5.803
 3790POPC   C1A50403  31.605  42.979   6.129
 3790POPC   D2A50404  31.396  42.910   6.491
 3790POPC   C3A50405  31.619  43.033   6.857
 3790POPC   C4A50406  31.665  43.111   7.272
 3790POPC   C1B50407  31.389  43.426   6.241
 3790POPC   C2B50408  31.245  43.354   6.681
 3790POPC   C3B50409  31.396  43.529   7.085
 3790POPC   C4B50410  31.785  43.587   7.320
 3791POPC   NC350411   6.928   1.495   5.666
 3791POPC   PO450412   6.704   1.920   5.271
 3791POPC   GL150413   6.664   1.959   5.722
 3791POPC   GL250414   6.328   1.880   5.787
 3791POPC   C1A50415   6.771   1.945   6.180
 3791POPC   D2A50416   6.874   1.699   6.565
 3791POPC   C3A50417   6.794   1.918   6.964
 3791POPC   C4A50418   6.855   1.910   7.447
 3791POPC   C1B50419   6.328   2.212   6.115
 3791POPC   C2B50420   6.438   2.202   6.573
 3791POPC   C3B50421   6.239   2.090   6.964
 3791POPC   C4B50422   6.369   1.806   7.279
 3792POPC   NC350423  44.213  22.010   5.417
 3792POPC   PO450424  43.740  22.460   5.504
 3792POPC   GL150425  43.937  22.163   5.852
 3792POPC   GL250426  44.292  22.262   5.858
 3792POPC   C1A50427  43.743  21.913   6.228
 3792POPC   D2A50428  43.519  21.743   6.651
 3792POPC   C3A50429  43.660  21.828   7.095
 3792POPC   C4A50430  43.717  22.153   7.417
 3792POPC   C1B50431  44.243  22.096   6.278
 3792POPC   C2B50432  43.982  22.073   6.659
 3792POPC   C3B50433  44.102  22.079   7.082
 3792POPC   C4B50434  44.249  22.249   7.457
 3793POPC   NC350435  26.513  16.140   5.100
 3793POPC   PO450436  26.108  15.607   5.398
 3793POPC   GL150437  25.888  15.693   5.793
 3793POPC   GL250438  26.036  15.989   5.785
 3793POPC   C1A50439  25.792  15.608   6.209
 3793POPC   D2A50440  25.940  15.750   6.581
 3793POPC   C3A50441  26.081  15.976   6.924
 3793POPC   C4A50442  26.344  15.885   7.267
 3793POPC   C1B50443  25.972  16.096   6.202
 3793POPC   C2B50444  25.799  16.320   6.558
 3793POPC   C3B50445  25.824  16.406   6.977
 3793POPC   C4B50446  26.104  16.336   7.307
 3794POPC   NC350447  35.799   6.065   5.204
 3794POPC   PO450448  35.161   6.004   5.421
 3794POPC   GL150449  35.323   6.098   5.832
 3794POPC   GL250450  35.631   6.099   5.724
 3794POPC   C1A50451  35.246   6.178   6.280
 3794POPC   D2A50452  35.205   6.003   6.701
 3794POPC   C3A50453  35.084   6.126   7.108
 3794POPC   C4A50454  35.282   6.019   7.482
 3794POPC   C1B50455  35.697   5.944   6.178
 3794POPC   C2B50456  35.711   6.057   6.608
 3794POPC   C3B50457  35.604   5.995   7.047
 3794POPC   C4B50458  35.704   6.263   7.357
 3795POPC   NC350459   6.460  30.594   5.405
 3795POPC   PO450460   6.957  31.036   5.480
 3795POPC   GL150461   6.716  30.762   5.811
 3795POPC   GL250462   6.703  30.357   5.802
 3795POPC   C1A50463   6.434  30.665   6.153
 3795POPC   D2A50464   6.239  30.471   6.531
 3795POPC   C3A50465   6.357  30.655   6.918
 3795POPC   C4A50466   6.375  30.857   7.324
 3795POPC   C1B50467   6.659  30.205   6.246
 3795POPC   C2B50468   6.743  30.337   6.683
 3795POPC   C3B50469   6.809  30.526   7.090
 3795POPC   C4B50470   6.880  30.952   7.219
 3796POPC   NC350471  13.058  42.472   5.409
 3796POPC   PO450472  12.553  42.117   5.467
 3796POPC   GL150473  12.658  42.175   5.875
 3796POPC   GL250474  12.979  42.324   5.900
 3796POPC   C1A50475  12.638  42.273   6.293
 3796POPC   D2A50476  12.835  42.054   6.636
 3796POPC   C3A50477  12.848  42.252   7.042
 3796POPC   C4A50478  12.463  42.406   7.150
 3796POPC   C1B50479  12.998  42.612   6.251
 3796POPC   C2B50480  13.073  42.517   6.671
 3796POPC   C3B50481  13.232  42.606   7.079
 3796POPC   C4B50482  12.981  42.555   7.462
 3797POPC   NC350483  18.307   2.832   5.386
 3797POPC   PO450484  18.178   2.170   5.545
 3797POPC   GL150485  18.400   2.434   5.825
 3797POPC   GL250486  18.418   2.816   5.877
 3797POPC   C1A50487  18.232   2.521   6.237
 3797POPC   D2A50488  18.280   2.803   6.561
 3797POPC   C3A50489  18.241   2.607   6.936
 3797POPC   C4A50490  18.234   2.546   7.376
 3797POPC   C1B50491  18.307   3.175   6.156
 3797POPC   C2B50492  18.357   3.304   6.586
 3797POPC   C3B50493  18.291   3.122   6.996
 3797POPC   C4B50494  18.418   3.040   7.422
 3798POPC   NC350495  13.780   6.874   5.529
 3798POPC   PO450496  13.302   6.287   5.394
 3798POPC   GL150497  13.404   6.531   5.765
 3798POPC   GL250498  13.277   6.841   5.770
 3798POPC   C1A50499  13.651   6.681   6.152
 3798POPC   D2A50500  13.752   6.899   6.567
 3798POPC   C3A50501  13.896   6.702   6.956
 3798POPC   C4A50502  14.000   6.778   7.380
 3798POPC   C1B50503  13.220   6.993   6.177
 3798POPC   C2B50504  13.289   6.694   6.505
 3798POPC   C3B50505  13.384   6.714   6.913
 3798POPC   C4B50506  13.177   6.584   7.241
 3799POPC   NC350507  14.550  30.743   5.260
 3799POPC   PO450508  13.980  30.398   5.281
 3799POPC   GL150509  14.260  30.528   5.695
 3799POPC   GL250510  14.564  30.771   5.767
 3799POPC   C1A50511  14.450  30.448   6.156
 3799POPC   D2A50512  14.310  30.307   6.587
 3799POPC   C3A50513  14.376  30.522   6.983
 3799POPC   C4A50514  14.172  30.856   7.225
 3799POPC   C1B50515  14.389  30.978   6.132
 3799POPC   C2B50516  14.414  30.896   6.575
 3799POPC   C3B50517  14.619  31.001   6.957
 3799POPC   C4B50518  14.747  30.754   7.285
 3800POPC   NC350519  10.708  11.445   5.325
 3800POPC   PO450520  10.098  11.151   5.251
 3800POPC   GL150521  10.436  11.273   5.696
 3800POPC   GL250522  10.819  11.289   5.783
 3800POPC   C1A50523  10.464  11.406   6.168
 3800POPC   D2A50524  10.605  11.531   6.611
 3800POPC   C3A50525  10.434  11.390   7.003
 3800POPC   C4A50526  10.481  11.293   7.427
 3800POPC   C1B50527  10.981  11.549   6.109
 3800POPC   C2B50528  11.124  11.492   6.533
 3800POPC   C3B50529  10.975  11.417   6.965
 3800POPC   C4B50530  10.821  11.636   7.290
 3801POPC   NC350531  16.987   6.646   5.336
 3801POPC   PO450532  17.463   6.419   5.638
 3801POPC   GL150533  17.084   6.544   5.833
 3801POPC   GL250534  16.715   6.450   5.722
 3801POPC   C1A50535  16.886   6.470   6.227
 3801POPC   D2A50536  16.577   6.418   6.548
 3801POPC   C3A50537  16.827   6.345   6.911
 3801POPC   C4A50538  17.072   6.466   7.282
 3801POPC   C1B50539  16.457   6.687   6.040
 3801POPC   C2B50540  16.410   6.906   6.434
 3801POPC   C3B50541  16.264   6.753   6.843
 3801POPC   C4B50542  16.560   6.695   7.188
 3802POPC   NC350543  31.726   5.609   5.048
 3802POPC   PO450544  31.492   6.055   5.284
 3802POPC   GL150545  31.603   6.181   5.741
 3802POPC   GL250546  31.936   6.012   5.758
 3802POPC   C1A50547  31.405   6.388   6.156
 3802POPC   D2A50548  31.408   6.479   6.644
 3802POPC   C3A50549  31.312   6.132   6.956
 3802POPC   C4A50550  31.475   5.736   7.171
 3802POPC   C1B50551  31.849   6.108   6.222
 3802POPC   C2B50552  31.694   6.000   6.647
 3802POPC   C3B50553  31.816   6.110   7.085
 3802POPC   C4B50554  31.674   6.069   7.530
 3803POPC   NC350555  18.787  20.022   5.392
 3803POPC   PO450556  19.210  19.558   5.227
 3803POPC   GL150557  19.187  19.733   5.709
 3803POPC   GL250558  18.960  19.973   5.885
 3803POPC   C1A50559  19.325  19.769   6.207
 3803POPC   D2A50560  19.291  19.692   6.708
 3803POPC   C3A50561  19.172  19.955   7.086
 3803POPC   C4A50562  19.092  19.923   7.532
 3803POPC   C1B50563  18.826  19.832   6.307
 3803POPC   C2B50564  18.794  19.839   6.776
 3803POPC   C3B50565  18.695  19.810   7.233
 3803POPC   C4B50566  18.621  19.753   7.684
 3804POPC   NC350567  27.819  22.025   5.275
 3804POPC   PO450568  27.246  22.165   5.278
 3804POPC   GL150569  27.476  22.209   5.700
 3804POPC   GL250570  27.767  21.995   5.800
 3804POPC   C1A50571  27.428  22.170   6.177
 3804POPC   D2A50572  27.422  22.020   6.637
 3804POPC   C3A50573  27.426  22.251   7.074
 3804POPC   C4A50574  27.218  22.473   7.426
 3804POPC   C1B50575  27.929  22.021   6.256
 3804POPC   C2B50576  27.948  21.951   6.733
 3804POPC   C3B50577  27.770  21.867   7.151
 3804POPC   C4B50578  27.811  21.476   7.459
 3805POPC   NC350579   9.244   0.895   5.405
 3805POPC   PO450580   9.900   0.964   5.497
 3805POPC   GL150581   9.635   1.156   5.840
 3805POPC   GL250582   9.527   0.880   6.032
 3805POPC   C1A50583   9.638   1.331   6.298
 3805POPC   D2A50584   9.602   1.058   6.669
 3805POPC   C3A50585   9.552   1.164   7.102
 3805POPC   C4A50586   9.279   1.086   7.416
 3805POPC   C1B50587   9.926   0.906   6.292
 3805POPC   C2B50588  10.114   0.996   6.732
 3805POPC   C3B50589  10.059   1.123   7.182
 3805POPC   C4B50590  10.173   1.500   7.414
 3806POPC   NC350591   4.638  40.546   5.330
 3806POPC   PO450592   4.332  41.136   5.357
 3806POPC   GL150593   4.340  41.017   5.787
 3806POPC   GL250594   4.433  40.662   5.789
 3806POPC   C1A50595   4.137  40.992   6.168
 3806POPC   D2A50596   4.221  40.713   6.506
 3806POPC   C3A50597   4.115  40.933   6.855
 3806POPC   C4A50598   4.003  41.098   7.252
 3806POPC   C1B50599   4.559  40.357   6.122
 3806POPC   C2B50600   4.696  40.430   6.551
 3806POPC   C3B50601   4.483  40.508   6.939
 3806POPC   C4B50602   4.482  40.845   7.220
 3807POPC   NC350603  25.387  31.349   5.324
 3807POPC   PO450604  25.354  31.979   5.653
 3807POPC   GL150605  25.158  31.638   5.896
 3807POPC   GL250606  25.128  31.272   5.770
 3807POPC   C1A50607  25.379  31.391   6.240
 3807POPC   D2A50608  25.604  31.287   6.658
 3807POPC   C3A50609  25.415  31.451   7.049
 3807POPC   C4A50610  25.246  31.878   7.079
 3807POPC   C1B50611  24.862  31.289   6.135
 3807POPC   C2B50612  24.826  31.503   6.535
 3807POPC   C3B50613  24.927  31.346   6.950
 3807POPC   C4B50614  25.018  31.524   7.381
 3808POPC   NC350615  19.658  17.721   5.365
 3808POPC   PO450616  19.875  18.335   5.402
 3808POPC   GL150617  19.859  18.103   5.760
 3808POPC   GL250618  20.226  18.070   5.770
 3808POPC   C1A50619  19.679  18.244   6.154
 3808POPC   D2A50620  19.469  18.317   6.538
 3808POPC   C3A50621  19.613  18.232   6.938
 3808POPC   C4A50622  19.852  18.472   7.227
 3808POPC   C1B50623  20.199  18.350   6.134
 3808POPC   C2B50624  19.996  18.355   6.547
 3808POPC   C3B50625  20.127  18.132   6.924
 3808POPC   C4B50626  20.378  18.139   7.266
 3809POPC   NC350627  43.506  22.054   5.597
 3809POPC   PO450628  42.961  22.393   5.373
 3809POPC   GL150629  43.000  22.048   5.758
 3809POPC   GL250630  42.878  21.691   5.706
 3809POPC   C1A50631  43.203  22.016   6.219
 3809POPC   D2A50632  43.471  22.244   6.548
 3809POPC   C3A50633  43.364  22.238   6.995
 3809POPC   C4A50634  43.229  22.441   7.363
 3809POPC   C1B50635  42.773  21.724   6.141
 3809POPC   C2B50636  42.762  21.976   6.522
 3809POPC   C3B50637  42.838  22.285   6.846
 3809POPC   C4B50638  42.844  22.140   7.246
 3810POPC   NC350639  23.955   0.681   5.528
 3810POPC   PO450640  24.355   0.130   5.550
 3810POPC   GL150641  24.421   0.496   5.833
 3810POPC   GL250642  24.170   0.667   6.022
 3810POPC   C1A50643  24.674   0.445   6.213
 3810POPC   D2A50644  24.631   0.129   6.534
 3810POPC   C3A50645  24.627   0.225   6.959
 3810POPC   C4A50646  24.623   0.661   7.131
 3810POPC   C1B50647  24.178   0.258   6.254
 3810POPC   C2B50648  24.123   0.103   6.666
 3810POPC   C3B50649  24.166   0.422   6.985
 3810POPC   C4B50650  24.146   0.740   7.304
 3811POPC   NC350651  16.497  42.643   5.216
 3811POPC   PO450652  17.086  42.289   5.326
 3811POPC   GL150653  16.820  42.410   5.703
 3811POPC   GL250654  16.654  42.146   5.837
 3811POPC   C1A50655  16.873  42.508   6.183
 3811POPC   D2A50656  17.073  42.519   6.628
 3811POPC   C3A50657  16.738  42.563   6.942
 3811POPC   C4A50658  16.715  42.358   7.325
 3811POPC   C1B50659  16.479  42.182   6.207
 3811POPC   C2B50660  16.633  42.228   6.590
 3811POPC   C3B50661  16.434  42.111   6.981
 3811POPC   C4B50662  16.273  41.770   7.245
 3812POPC   NC350663  18.624   5.174   5.129
 3812POPC   PO450664  18.025   5.094   5.434
 3812POPC   GL150665  18.321   5.100   5.799
 3812POPC   GL250666  18.681   4.958   5.689
 3812POPC   C1A50667  18.198   5.371   6.137
 3812POPC   D2A50668  18.062   5.459   6.539
 3812POPC   C3A50669  18.200   5.170   6.789
 3812POPC   C4A50670  18.428   5.097   7.124
 3812POPC   C1B50671  18.661   4.968   6.160
 3812POPC   C2B50672  18.450   4.793   6.539
 3812POPC   C3B50673  18.548   4.625   6.942
 3812POPC   C4B50674  18.497   4.635   7.386
 3813POPC   NC350675  19.267  43.355   5.608
 3813POPC   PO450676  19.111  43.956   5.313
 3813POPC   GL150677  19.269  43.878   5.751
 3813POPC   GL250678  18.952  43.738   5.822
 3813POPC   C1A50679  19.292  44.034   6.224
 3813POPC   D2A50680  19.299  44.258   6.666
 3813POPC   C3A50681  19.218  43.952   7.025
 3813POPC   C4A50682  19.149  43.963   7.440
 3813POPC   C1B50683  18.804  43.920   6.205
 3813POPC   C2B50684  18.898  43.957   6.623
 3813POPC   C3B50685  18.728  43.781   7.008
 3813POPC   C4B50686  18.780  43.520   7.346
 3814POPC   NC350687  20.909  32.602   5.386
 3814POPC   PO450688  20.701  33.265   5.196
 3814POPC   GL150689  20.783  33.060   5.640
 3814POPC   GL250690  20.529  32.803   5.719
 3814POPC   C1A50691  20.810  33.074   6.142
 3814POPC   D2A50692  20.713  33.294   6.580
 3814POPC   C3A50693  20.812  33.093   7.007
 3814POPC   C4A50694  20.598  33.000   7.466
 3814POPC   C1B50695  20.269  32.925   6.116
 3814POPC   C2B50696  20.225  33.129   6.537
 3814POPC   C3B50697  20.291  32.962   6.982
 3814POPC   C4B50698  20.272  32.645   7.322
 3815POPC   NC350699  36.582  36.431   5.573
 3815POPC   PO450700  35.843  36.330   5.556
 3815POPC   GL150701  36.169  36.261   5.814
 3815POPC   GL250702  36.200  36.640   5.835
 3815POPC   C1A50703  36.168  35.987   6.184
 3815POPC   D2A50704  35.850  35.909   6.521
 3815POPC   C3A50705  36.003  36.101   6.894
 3815POPC   C4A50706  36.292  35.916   7.195
 3815POPC   C1B50707  36.148  36.521   6.269
 3815POPC   C2B50708  36.388  36.371   6.631
 3815POPC   C3B50709  36.387  36.406   7.074
 3815POPC   C4B50710  36.060  36.345   7.387
 3816POPC   NC350711  24.062   4.109   5.528
 3816POPC   PO450712  23.420   3.991   5.479
 3816POPC   GL150713  23.609   4.244   5.777
 3816POPC   GL250714  23.422   4.564   5.790
 3816POPC   C1A50715  23.735   4.136   6.193
 3816POPC   D2A50716  23.553   4.055   6.585
 3816POPC   C3A50717  23.778   4.164   6.933
 3816POPC   C4A50718  23.586   4.095   7.298
 3816POPC   C1B50719  23.814   4.623   6.066
 3816POPC   C2B50720  23.919   4.502   6.515
 3816POPC   C3B50721  23.751   4.666   6.901
 3816POPC   C4B50722  23.827   4.540   7.324
 3817POPC   NC350723   6.187  36.264   5.375
 3817POPC   PO450724   6.611  35.703   5.411
 3817POPC   GL150725   6.431  35.974   5.734
 3817POPC   GL250726   6.656  36.307   5.798
 3817POPC   C1A50727   6.313  36.141   6.133
 3817POPC   D2A50728   6.570  36.278   6.451
 3817POPC   C3A50729   6.463  36.104   6.821
 3817POPC   C4A50730   6.610  35.982   7.221
 3817POPC   C1B50731   6.940  36.516   6.159
 3817POPC   C2B50732   7.044  36.393   6.606
 3817POPC   C3B50733   6.910  36.381   7.056
 3817POPC   C4B50734   6.779  36.377   7.506
 3818POPC   NC350735  34.005  17.618   5.320
 3818POPC   PO450736  33.524  17.253   5.439
 3818POPC   GL150737  33.682  17.565   5.750
 3818POPC   GL250738  34.035  17.525   5.821
 3818POPC   C1A50739  33.738  17.699   6.188
 3818POPC   D2A50740  33.954  17.577   6.569
 3818POPC   C3A50741  33.796  17.829   6.883
 3818POPC   C4A50742  33.545  17.796   7.239
 3818POPC   C1B50743  34.041  17.215   6.170
 3818POPC   C2B50744  34.076  17.076   6.608
 3818POPC   C3B50745  33.982  17.238   7.000
 3818POPC   C4B50746  34.104  17.578   7.205
 3819POPC   NC350747  20.962  40.129   5.169
 3819POPC   PO450748  21.547  39.803   5.286
 3819POPC   GL150749  21.489  39.990   5.734
 3819POPC   GL250750  21.136  39.898   5.790
 3819POPC   C1A50751  21.339  40.283   6.136
 3819POPC   D2A50752  21.377  40.423   6.618
 3819POPC   C3A50753  21.371  40.096   6.993
 3819POPC   C4A50754  21.205  40.167   7.452
 3819POPC   C1B50755  21.370  39.788   6.199
 3819POPC   C2B50756  21.525  39.575   6.570
 3819POPC   C3B50757  21.721  39.689   6.944
 3819POPC   C4B50758  21.630  39.906   7.402
 3820POPC   NC350759  40.255  26.660   5.451
 3820POPC   PO450760  39.917  27.216   5.177
 3820POPC   GL150761  39.940  26.981   5.700
 3820POPC   GL250762  39.788  26.664   5.888
 3820POPC   C1A50763  40.171  26.913   6.136
 3820POPC   D2A50764  39.911  26.656   6.444
 3820POPC   C3A50765  40.002  26.653   6.881
 3820POPC   C4A50766  40.165  26.989   7.135
 3820POPC   C1B50767  40.168  26.417   6.071
 3820POPC   C2B50768  40.353  26.399   6.544
 3820POPC   C3B50769  40.369  26.331   7.015
 3820POPC   C4B50770  40.163  26.543   7.383
 3821POPC   NC350771  26.765  18.556   5.405
 3821POPC   PO450772  26.480  17.944   5.314
 3821POPC   GL150773  26.715  18.118   5.703
 3821POPC   GL250774  26.657  18.468   5.878
 3821POPC   C1A50775  26.888  18.059   6.129
 3821POPC   D2A50776  27.075  18.018   6.554
 3821POPC   C3A50777  26.842  18.199   6.901
 3821POPC   C4A50778  26.732  18.025   7.302
 3821POPC   C1B50779  26.976  18.578   6.165
 3821POPC   C2B50780  27.148  18.548   6.577
 3821POPC   C3B50781  26.989  18.685   6.960
 3821POPC   C4B50782  26.703  18.528   7.296
 3822POPC   NC350783  10.307  26.446   5.571
 3822POPC   PO450784  10.643  26.984   5.315
 3822POPC   GL150785  10.594  26.956   5.782
 3822POPC   GL250786  10.644  26.616   5.940
 3822POPC   C1A50787  10.491  27.054   6.231
 3822POPC   D2A50788  10.769  27.083   6.588
 3822POPC   C3A50789  10.669  27.199   7.013
 3822POPC   C4A50790  10.337  26.984   7.230
 3822POPC   C1B50791  10.676  26.587   6.401
 3822POPC   C2B50792  10.593  26.692   6.835
 3822POPC   C3B50793  10.452  26.497   7.182
 3822POPC   C4B50794  10.437  26.613   7.605
 3823POPC   NC350795  36.462   7.469   5.164
 3823POPC   PO450796  35.827   7.570   5.445
 3823POPC   GL150797  35.883   7.411   5.897
 3823POPC   GL250798  36.233   7.401   6.047
 3823POPC   C1A50799  35.866   7.382   6.379
 3823POPC   D2A50800  36.239   7.446   6.605
 3823POPC   C3A50801  36.150   7.409   7.031
 3823POPC   C4A50802  35.763   7.290   7.219
 3823POPC   C1B50803  36.537   7.704   6.197
 3823POPC   C2B50804  36.724   7.874   6.527
 3823POPC   C3B50805  36.609   7.672   6.918
 3823POPC   C4B50806  36.435   7.781   7.307
 3824POPC   NC350807  36.343  11.251   5.346
 3824POPC   PO450808  35.654  11.352   5.520
 3824POPC   GL150809  35.945  11.217   5.780
 3824POPC   GL250810  36.139  11.478   5.761
 3824POPC   C1A50811  36.142  11.104   6.191
 3824POPC   D2A50812  36.209  10.847   6.579
 3824POPC   C3A50813  36.247  11.057   7.003
 3824POPC   C4A50814  36.103  11.205   7.422
 3824POPC   C1B50815  35.988  11.582   6.183
 3824POPC   C2B50816  36.083  11.443   6.641
 3824POPC   C3B50817  36.267  11.579   7.064
 3824POPC   C4B50818  36.285  11.665   7.534
 3825POPC   NC350819  12.542   7.470   5.050
 3825POPC   PO450820  11.911   7.382   5.388
 3825POPC   GL150821  12.056   7.498   5.802
 3825POPC   GL250822  12.385   7.377   5.770
 3825POPC   C1A50823  11.878   7.422   6.230
 3825POPC   D2A50824  11.652   7.275   6.571
 3825POPC   C3A50825  11.900   7.392   6.853
 3825POPC   C4A50826  11.910   7.342   7.243
 3825POPC   C1B50827  12.398   7.471   6.212
 3825POPC   C2B50828  12.384   7.349   6.665
 3825POPC   C3B50829  12.345   7.559   7.092
 3825POPC   C4B50830  12.411   7.591   7.586
 3826POPC   NC350831   7.359   5.484   5.162
 3826POPC   PO450832   7.566   6.060   5.490
 3826POPC   GL150833   7.269   6.038   5.819
 3826POPC   GL250834   7.561   5.882   5.994
 3826POPC   C1A50835   7.128   5.866   6.232
 3826POPC   D2A50836   7.309   5.714   6.636
 3826POPC   C3A50837   7.417   5.978   6.993
 3826POPC   C4A50838   7.344   6.037   7.439
 3826POPC   C1B50839   7.666   5.546   6.313
 3826POPC   C2B50840   7.886   5.526   6.700
 3826POPC   C3B50841   7.856   5.410   7.105
 3826POPC   C4B50842   7.729   5.748   7.316
 3827POPC   NC350843  32.042  24.327   5.387
 3827POPC   PO450844  32.660  24.693   5.506
 3827POPC   GL150845  32.315  24.576   5.757
 3827POPC   GL250846  32.294  24.225   5.815
 3827POPC   C1A50847  31.953  24.648   6.026
 3827POPC   D2A50848  31.870  24.525   6.464
 3827POPC   C3A50849  32.134  24.651   6.833
 3827POPC   C4A50850  32.148  24.594   7.297
 3827POPC   C1B50851  32.301  24.351   6.231
 3827POPC   C2B50852  32.462  24.311   6.601
 3827POPC   C3B50853  32.545  24.388   6.999
 3827POPC   C4B50854  32.444  24.182   7.341
 3828POPC   NC350855   6.045   1.355   5.615
 3828POPC   PO450856   5.700   1.780   5.258
 3828POPC   GL150857   5.824   1.803   5.705
 3828POPC   GL250858   5.651   1.506   5.881
 3828POPC   C1A50859   5.952   1.824   6.156
 3828POPC   D2A50860   6.058   1.739   6.598
 3828POPC   C3A50861   5.767   1.894   6.914
 3828POPC   C4A50862   5.900   1.953   7.364
 3828POPC   C1B50863   5.590   1.344   6.300
 3828POPC   C2B50864   5.501   1.460   6.720
 3828POPC   C3B50865   5.359   1.576   7.115
 3828POPC   C4B50866   5.407   1.980   7.265
 3829POPC   NC350867  11.331  22.857   5.302
 3829POPC   PO450868  10.765  23.055   5.437
 3829POPC   GL150869  11.075  22.767   5.756
 3829POPC   GL250870  11.458  22.792   5.832
 3829POPC   C1A50871  11.177  22.563   6.188
 3829POPC   D2A50872  11.170  22.573   6.666
 3829POPC   C3A50873  11.410  22.751   7.007
 3829POPC   C4A50874  11.379  23.163   7.217
 3829POPC   C1B50875  11.588  22.847   6.315
 3829POPC   C2B50876  11.686  23.092   6.708
 3829POPC   C3B50877  11.855  23.011   7.113
 3829POPC   C4B50878  11.666  22.780   7.453
 3830POPC   NC350879  34.195  40.564   5.403
 3830POPC   PO450880  33.989  41.188   5.449
 3830POPC   GL150881  33.854  40.985   5.819
 3830POPC   GL250882  33.939  40.630   5.840
 3830POPC   C1A50883  33.671  40.861   6.212
 3830POPC   D2A50884  33.874  40.844   6.597
 3830POPC   C3A50885  33.604  41.012   6.900
 3830POPC   C4A50886  33.759  41.320   7.204
 3830POPC   C1B50887  33.908  40.416   6.234
 3830POPC   C2B50888  34.090  40.385   6.632
 3830POPC   C3B50889  33.873  40.502   6.970
 3830POPC   C4B50890  33.892  40.821   7.275
 3831POPC   NC350891  41.772  23.858   5.360
 3831POPC   PO450892  41.163  23.465   5.347
 3831POPC   GL150893  41.341  23.473   5.761
 3831POPC   GL250894  41.690  23.609   5.820
 3831POPC   C1A50895  41.243  23.734   6.151
 3831POPC   D2A50896  41.442  23.948   6.517
 3831POPC   C3A50897  41.184  24.108   6.877
 3831POPC   C4A50898  41.242  23.888   7.256
 3831POPC   C1B50899  41.569  23.334   6.183
 3831POPC   C2B50900  41.324  23.332   6.520
 3831POPC   C3B50901  41.455  23.555   6.884
 3831POPC   C4B50902  41.629  23.505   7.301
 3832POPC   NC350903  43.263   5.145   5.145
 3832POPC   PO450904  42.675   5.456   5.213
 3832POPC   GL150905  43.044   5.152   5.628
 3832POPC   GL250906  43.154   5.362   5.918
 3832POPC   C1A50907  43.350   4.917   5.954
 3832POPC   D2A50908  43.479   4.943   6.403
 3832POPC   C3A50909  43.235   4.887   6.788
 3832POPC   C4A50910  43.129   4.747   7.228
 3832POPC   C1B50911  43.575   5.374   6.129
 3832POPC   C2B50912  43.703   5.460   6.561
 3832POPC   C3B50913  43.509   5.546   6.976
 3832POPC   C4B50914  43.192   5.256   7.134
 3833POPC   NC350915   6.216  44.070   5.543
 3833POPC   PO450916   5.671  43.593   5.510
 3833POPC   GL150917   5.793  43.816   5.851
 3833POPC   GL250918   5.674  44.159   5.836
 3833POPC   C1A50919   5.562  43.808   6.238
 3833POPC   D2A50920   5.620  43.528   6.569
 3833POPC   C3A50921   5.514  43.630   6.990
 3833POPC   C4A50922   5.870  43.664   7.192
 3833POPC   C1B50923   5.960  44.180   6.207
 3833POPC   C2B50924   6.086  44.333   6.637
 3833POPC   C3B50925   6.124  44.126   7.044
 3833POPC   C4B50926   5.709  44.147   7.239
 3834POPC   NC350927  23.602   7.416   5.320
 3834POPC   PO450928  23.319   6.758   5.410
 3834POPC   GL150929  23.284   7.158   5.691
 3834POPC   GL250930  23.611   7.277   5.802
 3834POPC   C1A50931  23.274   7.313   6.172
 3834POPC   D2A50932  23.482   7.282   6.618
 3834POPC   C3A50933  23.576   7.589   6.940
 3834POPC   C4A50934  23.452   7.669   7.352
 3834POPC   C1B50935  23.766   7.131   6.212
 3834POPC   C2B50936  23.978   6.967   6.620
 3834POPC   C3B50937  24.060   7.113   7.056
 3834POPC   C4B50938  23.810   7.315   7.360
 3835POPC   NC350939  28.796  19.692   5.373
 3835POPC   PO450940  29.422  19.917   5.303
 3835POPC   GL150941  29.264  19.702   5.691
 3835POPC   GL250942  29.011  19.927   5.784
 3835POPC   C1A50943  29.351  19.822   6.160
 3835POPC   D2A50944  29.144  19.960   6.541
 3835POPC   C3A50945  29.324  19.975   6.951
 3835POPC   C4A50946  29.393  19.666   7.241
 3835POPC   C1B50947  28.915  19.576   6.073
 3835POPC   C2B50948  28.968  19.482   6.538
 3835POPC   C3B50949  28.937  19.475   7.020
 3835POPC   C4B50950  28.809  19.449   7.474
 3836POPC   NC350951   1.266  43.630   5.190
 3836POPC   PO450952   1.484  44.328   4.993
 3836POPC   GL150953   1.379  44.135   5.494
 3836POPC   GL250954   1.231  43.790   5.655
 3836POPC   C1A50955   1.272  44.141   5.990
 3836POPC   D2A50956   1.130  43.976   6.413
 3836POPC   C3A50957   1.349  44.017   6.817
 3836POPC   C4A50958   1.248  44.185   7.249
 3836POPC   C1B50959   1.373  43.635   6.073
 3836POPC   C2B50960   1.278  43.474   6.475
 3836POPC   C3B50961   1.431  43.435   6.879
 3836POPC   C4B50962   1.229  43.665   7.185
 3837POPC   NC350963   8.085  12.378   5.292
 3837POPC   PO450964   8.382  12.985   5.402
 3837POPC   GL150965   8.212  12.927   5.760
 3837POPC   GL250966   7.920  12.745   5.665
 3837POPC   C1A50967   8.366  12.967   6.177
 3837POPC   D2A50968   8.630  13.147   6.490
 3837POPC   C3A50969   8.452  13.083   6.893
 3837POPC   C4A50970   8.197  12.940   7.232
 3837POPC   C1B50971   7.840  12.878   6.093
 3837POPC   C2B50972   8.008  12.707   6.454
 3837POPC   C3B50973   7.915  12.759   6.863
 3837POPC   C4B50974   7.846  12.466   7.199
 3838POPC   NC350975   3.304   0.174   5.626
 3838POPC   PO450976   3.578  44.678   5.268
 3838POPC   GL150977   3.487  44.669   5.707
 3838POPC   GL250978   3.256  44.417   5.781
 3838POPC   C1A50979   3.679  44.794   6.109
 3838POPC   D2A50980   3.591  44.740   6.541
 3838POPC   C3A50981   3.832  44.877   6.885
 3838POPC   C4A50982   3.896  44.600   7.238
 3838POPC   C1B50983   3.183  44.592   6.220
 3838POPC   C2B50984   3.109  44.607   6.690
 3838POPC   C3B50985   3.362  44.726   7.035
 3838POPC   C4B50986   3.477  44.840   7.460
 3839POPC   NC350987   1.384  22.453   5.585
 3839POPC   PO450988   1.228  21.835   5.350
 3839POPC   GL150989   1.163  22.007   5.746
 3839POPC   GL250990   1.441  21.859   5.876
 3839POPC   C1A50991   1.044  22.221   6.160
 3839POPC   D2A50992   0.805  22.305   6.543
 3839POPC   C3A50993   0.990  22.313   6.957
 3839POPC   C4A50994   1.092  22.121   7.339
 3839POPC   C1B50995   1.536  22.098   6.237
 3839POPC   C2B50996   1.366  22.148   6.640
 3839POPC   C3B50997   1.494  22.249   7.047
 3839POPC   C4B50998   1.520  22.365   7.499
 3840POPC   NC350999   3.981  16.938   5.440
 3840POPC   PO451000   3.411  16.697   5.159
 3840POPC   GL151001   3.515  16.724   5.622
 3840POPC   GL251002   3.279  16.913   5.789
 3840POPC   C1A51003   3.701  16.649   6.032
 3840POPC   D2A51004   3.754  16.461   6.450
 3840POPC   C3A51005   3.590  16.750   6.763
 3840POPC   C4A51006   3.636  16.912   7.164
 3840POPC   C1B51007   3.213  16.763   6.207
 3840POPC   C2B51008   3.161  16.969   6.572
 3840POPC   C3B51009   3.158  16.922   6.995
 3840POPC   C4B51010   3.217  16.541   7.153
 3841POPC   NC351011  38.153   8.796   5.393
 3841POPC   PO451012  38.803   8.842   5.339
 3841POPC   GL151013  38.610   9.045   5.728
 3841POPC   GL251014  38.300   9.179   5.737
 3841POPC   C1A51015  38.550   9.185   6.173
 3841POPC   D2A51016  38.238   9.034   6.456
 3841POPC   C3A51017  38.294   9.027   6.906
 3841POPC   C4A51018  38.504   9.040   7.346
 3841POPC   C1B51019  38.038   9.360   6.081
 3841POPC   C2B51020  38.086   9.527   6.504
 3841POPC   C3B51021  37.978   9.566   6.920
 3841POPC   C4B51022  38.115   9.348   7.264
 3842POPC   NC351023   6.876  37.756   5.169
 3842POPC   PO451024   6.354  37.383   5.425
 3842POPC   GL151025   6.564  37.567   5.845
 3842POPC   GL251026   6.927  37.630   5.770
 3842POPC   C1A51027   6.582  37.642   6.336
 3842POPC   D2A51028   6.572  37.619   6.807
 3842POPC   C3A51029   6.535  37.899   7.182
 3842POPC   C4A51030   6.420  38.069   7.608
 3842POPC   C1B51031   7.083  37.516   6.199
 3842POPC   C2B51032   7.035  37.507   6.656
 3842POPC   C3B51033   6.990  37.608   7.137
 3842POPC   C4B51034   6.942  37.377   7.554
 3843POPC   NC351035  22.074  29.431   5.291
 3843POPC   PO451036  22.464  28.913   5.448
 3843POPC   GL151037  22.128  29.132   5.717
 3843POPC   GL251038  22.151  29.482   5.789
 3843POPC   C1A51039  21.839  29.196   6.099
 3843POPC   D2A51040  21.758  29.021   6.508
 3843POPC   C3A51041  21.810  29.247   6.899
 3843POPC   C4A51042  21.769  28.962   7.252
 3843POPC   C1B51043  22.318  29.341   6.150
 3843POPC   C2B51044  22.219  29.280   6.544
 3843POPC   C3B51045  22.440  29.287   6.902
 3843POPC   C4B51046  22.200  29.251   7.304
 3844POPC   NC351047  20.597  24.691   5.447
 3844POPC   PO451048  20.194  24.228   5.611
 3844POPC   GL151049  20.494  24.466   5.929
 3844POPC   GL251050  20.757  24.747   5.926
 3844POPC   C1A51051  20.526  24.621   6.364
 3844POPC   D2A51052  20.285  24.826   6.648
 3844POPC   C3A51053  20.517  24.713   7.027
 3844POPC   C4A51054  20.718  24.310   7.176
 3844POPC   C1B51055  21.030  24.645   6.292
 3844POPC   C2B51056  20.960  24.495   6.740
 3844POPC   C3B51057  21.096  24.636   7.163
 3844POPC   C4B51058  21.066  24.418   7.583
 3845POPC   NC351059   0.723  15.823   5.493
 3845POPC   PO451060   0.024  15.953   5.555
 3845POPC   GL151061   0.322  15.815   5.833
 3845POPC   GL251062   0.576  16.126   5.871
 3845POPC   C1A51063   0.145  15.618   6.189
 3845POPC   D2A51064   0.356  15.580   6.547
 3845POPC   C3A51065   0.306  15.675   6.927
 3845POPC   C4A51066   0.672  15.727   7.164
 3845POPC   C1B51067   0.216  16.295   6.093
 3845POPC   C2B51068   0.192  16.077   6.459
 3845POPC   C3B51069   0.447  16.156   6.810
 3845POPC   C4B51070   0.319  16.120   7.208
 3846POPC   NC351071  44.281  30.051   5.346
 3846POPC   PO451072  44.798  29.654   5.509
 3846POPC   GL151073  44.635  29.915   5.743
 3846POPC   GL251074  44.956  30.047   5.863
 3846POPC   C1A51075  44.455  30.010   6.104
 3846POPC   D2A51076  44.437  30.078   6.537
 3846POPC   C3A51077  44.674  29.790   6.797
 3846POPC   C4A51078  44.455  29.667   7.158
 3846POPC   C1B51079  44.928  30.074   6.334
 3846POPC   C2B51080  44.891  30.266   6.761
 3846POPC   C3B51081  44.904  30.081   7.199
 3846POPC   C4B51082  44.924  30.268   7.641
 3847POPC   NC351083  14.525   9.677   5.380
 3847POPC   PO451084  14.670  10.322   5.412
 3847POPC   GL151085  14.629   9.996   5.792
 3847POPC   GL251086  14.807   9.668   5.836
 3847POPC   C1A51087  14.456   9.731   6.185
 3847POPC   D2A51088  14.185   9.486   6.500
 3847POPC   C3A51089  14.207   9.680   6.932
 3847POPC   C4A51090  14.171  10.088   7.101
 3847POPC   C1B51091  14.909   9.410   6.203
 3847POPC   C2B51092  14.691   9.417   6.605
 3847POPC   C3B51093  14.713   9.555   7.023
 3847POPC   C4B51094  14.519   9.313   7.305
 3848POPC   NC351095  25.476  35.487   5.254
 3848POPC   PO451096  25.135  34.856   5.350
 3848POPC   GL151097  25.175  35.123   5.759
 3848POPC   GL251098  25.345  35.470   5.731
 3848POPC   C1A51099  25.348  35.288   6.193
 3848POPC   D2A51100  25.489  35.300   6.633
 3848POPC   C3A51101  25.152  35.378   6.928
 3848POPC   C4A51102  25.080  35.240   7.330
 3848POPC   C1B51103  25.334  35.813   6.023
 3848POPC   C2B51104  25.373  35.818   6.466
 3848POPC   C3B51105  25.178  35.881   6.863
 3848POPC   C4B51106  25.110  35.743   7.321
 3849POPC   NC351107  12.648  16.756   5.278
 3849POPC   PO451108  13.138  16.301   5.403
 3849POPC   GL151109  12.894  16.593   5.701
 3849POPC   GL251110  13.019  16.897   5.868
 3849POPC   C1A51111  12.656  16.677   6.128
 3849POPC   D2A51112  12.872  16.719   6.556
 3849POPC   C3A51113  12.788  16.959   6.962
 3849POPC   C4A51114  12.806  17.088   7.407
 3849POPC   C1B51115  13.124  16.505   6.153
 3849POPC   C2B51116  13.249  16.355   6.558
 3849POPC   C3B51117  13.211  16.575   6.931
 3849POPC   C4B51118  12.967  16.617   7.301
 3850POPC   NC351119  20.703  44.586   5.265
 3850POPC   PO451120  20.001  44.646   5.306
 3850POPC   GL151121  20.382  44.605   5.644
 3850POPC   GL251122  20.694  44.802   5.730
 3850POPC   C1A51123  20.387  44.586   6.103
 3850POPC   D2A51124  20.221  44.790   6.476
 3850POPC   C3A51125  20.331  44.655   6.893
 3850POPC   C4A51126  20.182  44.894   7.238
 3850POPC   C1B51127  20.913  44.606   6.037
 3850POPC   C2B51128  20.828  44.564   6.431
 3850POPC   C3B51129  20.849  44.647   6.845
 3850POPC   C4B51130  20.733  44.759   7.224
 3851POPC   NC351131  38.639  26.705   5.351
 3851POPC   PO451132  38.093  27.086   5.496
 3851POPC   GL151133  38.269  26.769   5.794
 3851POPC   GL251134  38.628  26.702   5.879
 3851POPC   C1A51135  38.273  26.635   6.241
 3851POPC   D2A51136  38.390  26.710   6.687
 3851POPC   C3A51137  38.217  26.998   6.995
 3851POPC   C4A51138  38.252  26.847   7.409
 3851POPC   C1B51139  38.726  26.917   6.302
 3851POPC   C2B51140  38.691  27.116   6.752
 3851POPC   C3B51141  38.722  26.824   7.108
 3851POPC   C4B51142  38.739  26.744   7.564
 3852POPC   NC351143  23.451  17.756   5.237
 3852POPC   PO451144  23.492  18.385   5.435
 3852POPC   GL151145  23.579  18.270   5.822
 3852POPC   GL251146  23.611  17.913   5.768
 3852POPC   C1A51147  23.528  18.387   6.245
 3852POPC   D2A51148  23.714  18.189   6.597
 3852POPC   C3A51149  23.626  18.390   6.976
 3852POPC   C4A51150  24.005  18.373   7.178
 3852POPC   C1B51151  23.419  17.871   6.163
 3852POPC   C2B51152  23.501  17.724   6.564
 3852POPC   C3B51153  23.427  17.918   6.961
 3852POPC   C4B51154  23.664  18.040   7.340
 3853POPC   NC351155  40.063  12.464   5.432
 3853POPC   PO451156  39.560  11.932   5.521
 3853POPC   GL151157  39.777  12.157   5.820
 3853POPC   GL251158  40.116  12.177   5.849
 3853POPC   C1A51159  39.811  12.253   6.263
 3853POPC   D2A51160  39.836  11.971   6.630
 3853POPC   C3A51161  39.887  12.124   7.046
 3853POPC   C4A51162  39.743  12.243   7.437
 3853POPC   C1B51163  40.317  12.370   6.207
 3853POPC   C2B51164  40.280  12.255   6.652
 3853POPC   C3B51165  40.391  12.100   7.068
 3853POPC   C4B51166  40.247  12.093   7.503
 3854POPC   NC351167  31.989  43.346   5.396
 3854POPC   PO451168  32.480  42.872   5.444
 3854POPC   GL151169  32.132  42.969   5.702
 3854POPC   GL251170  31.890  42.711   5.809
 3854POPC   C1A51171  32.067  43.215   6.072
 3854POPC   D2A51172  31.946  43.189   6.500
 3854POPC   C3A51173  32.059  43.422   6.892
 3854POPC   C4A51174  32.176  43.247   7.279
 3854POPC   C1B51175  32.229  42.717   6.120
 3854POPC   C2B51176  32.399  42.949   6.438
 3854POPC   C3B51177  32.316  42.962   6.868
 3854POPC   C4B51178  32.507  42.824   7.245
 3855POPC   NC351179  33.599  29.850   5.207
 3855POPC   PO451180  34.035  30.251   5.480
 3855POPC   GL151181  33.729  30.135   5.795
 3855POPC   GL251182  33.378  30.164   5.727
 3855POPC   C1A51183  33.645  29.912   6.186
 3855POPC   D2A51184  33.640  29.614   6.513
 3855POPC   C3A51185  33.668  29.805   6.902
 3855POPC   C4A51186  33.931  29.784   7.240
 3855POPC   C1B51187  33.180  30.154   6.146
 3855POPC   C2B51188  33.219  29.951   6.567
 3855POPC   C3B51189  33.279  30.124   7.008
 3855POPC   C4B51190  33.562  30.103   7.413
 3856POPC   NC351191   2.308   4.968   5.498
 3856POPC   PO451192   2.926   5.138   5.386
 3856POPC   GL151193   2.736   5.181   5.793
 3856POPC   GL251194   2.763   4.835   5.857
 3856POPC   C1A51195   2.683   5.109   6.264
 3856POPC   D2A51196   2.886   5.007   6.656
 3856POPC   C3A51197   2.579   5.111   6.955
 3856POPC   C4A51198   2.600   5.420   7.279
 3856POPC   C1B51199   3.096   4.788   6.221
 3856POPC   C2B51200   3.357   4.714   6.604
 3856POPC   C3B51201   3.197   4.769   7.014
 3856POPC   C4B51202   2.973   5.051   7.260
 3857POPC   NC351203  20.094  32.148   5.420
 3857POPC   PO451204  19.517  32.179   5.166
 3857POPC   GL151205  19.608  32.248   5.680
 3857POPC   GL251206  19.931  32.153   5.899
 3857POPC   C1A51207  19.525  32.201   6.175
 3857POPC   D2A51208  19.770  32.177   6.599
 3857POPC   C3A51209  19.568  32.174   7.031
 3857POPC   C4A51210  19.720  32.029   7.431
 3857POPC   C1B51211  20.179  32.308   6.279
 3857POPC   C2B51212  20.286  32.327   6.747
 3857POPC   C3B51213  20.062  32.229   7.136
 3857POPC   C4B51214  20.162  32.239   7.646
 3858POPC   NC351215  33.332  30.770   5.399
 3858POPC   PO451216  33.921  31.115   5.308
 3858POPC   GL151217  33.862  30.967   5.822
 3858POPC   GL251218  33.627  30.669   5.813
 3858POPC   C1A51219  33.957  30.847   6.234
 3858POPC   D2A51220  33.981  30.655   6.632
 3858POPC   C3A51221  33.764  30.879   6.956
 3858POPC   C4A51222  33.950  30.741   7.322
 3858POPC   C1B51223  33.620  30.435   6.205
 3858POPC   C2B51224  33.643  30.239   6.605
 3858POPC   C3B51225  33.755  30.348   7.012
 3858POPC   C4B51226  33.475  30.572   7.290
 3859POPC   NC351227  37.634  35.894   5.467
 3859POPC   PO451228  37.412  36.484   5.364
 3859POPC   GL151229  37.456  36.270   5.792
 3859POPC   GL251230  37.569  35.889   5.949
 3859POPC   C1A51231  37.596  36.387   6.183
 3859POPC   D2A51232  37.496  36.270   6.543
 3859POPC   C3A51233  37.669  36.409   6.902
 3859POPC   C4A51234  37.789  36.297   7.320
 3859POPC   C1B51235  37.817  35.927   6.297
 3859POPC   C2B51236  38.026  36.177   6.569
 3859POPC   C3B51237  38.023  36.005   6.959
 3859POPC   C4B51238  38.183  35.954   7.358
 3860POPC   NC351239   4.076  13.750   5.436
 3860POPC   PO451240   4.203  13.115   5.636
 3860POPC   GL151241   4.433  13.396   5.874
 3860POPC   GL251242   4.342  13.744   5.882
 3860POPC   C1A51243   4.482  13.423   6.299
 3860POPC   D2A51244   4.189  13.239   6.584
 3860POPC   C3A51245   4.355  13.376   6.937
 3860POPC   C4A51246   4.154  13.426   7.274
 3860POPC   C1B51247   4.017  13.539   6.193
 3860POPC   C2B51248   3.969  13.730   6.609
 3860POPC   C3B51249   4.033  13.865   7.036
 3860POPC   C4B51250   4.225  13.892   7.483
 3861POPC   NC351251   5.189  39.779   5.305
 3861POPC   PO451252   4.716  40.121   5.509
 3861POPC   GL151253   4.942  39.829   5.784
 3861POPC   GL251254   5.128  40.104   5.876
 3861POPC   C1A51255   5.268  39.692   6.151
 3861POPC   D2A51256   5.122  39.622   6.610
 3861POPC   C3A51257   5.248  39.735   7.075
 3861POPC   C4A51258   5.016  39.938   7.462
 3861POPC   C1B51259   5.021  40.091   6.334
 3861POPC   C2B51260   5.316  40.107   6.710
 3861POPC   C3B51261   5.311  40.252   7.158
 3861POPC   C4B51262   4.869  40.383   7.258
 3862POPC   NC351263   1.582  25.003   5.628
 3862POPC   PO451264   1.093  25.402   5.370
 3862POPC   GL151265   1.089  25.058   5.731
 3862POPC   GL251266   1.262  25.333   5.865
 3862POPC   C1A51267   1.095  25.032   6.221
 3862POPC   D2A51268   1.375  25.120   6.564
 3862POPC   C3A51269   1.143  25.019   6.921
 3862POPC   C4A51270   0.954  24.929   7.302
 3862POPC   C1B51271   1.279  25.728   6.095
 3862POPC   C2B51272   1.330  25.866   6.525
 3862POPC   C3B51273   1.305  25.633   6.909
 3862POPC   C4B51274   1.215  25.402   7.287
 3863POPC   NC351275   5.076  31.756   5.384
 3863POPC   PO451276   5.311  31.132   5.498
 3863POPC   GL151277   5.211  31.496   5.807
 3863POPC   GL251278   4.852  31.677   5.828
 3863POPC   C1A51279   5.053  31.409   6.206
 3863POPC   D2A51280   5.223  31.528   6.579
 3863POPC   C3A51281   5.126  31.333   6.968
 3863POPC   C4A51282   4.751  31.298   7.140
 3863POPC   C1B51283   4.918  31.892   6.236
 3863POPC   C2B51284   5.156  32.049   6.572
 3863POPC   C3B51285   5.192  31.850   6.962
 3863POPC   C4B51286   4.812  31.799   7.177
 3864POPC   NC351287  35.765   9.712   5.389
 3864POPC   PO451288  36.348   9.560   5.045
 3864POPC   GL151289  36.312   9.670   5.518
 3864POPC   GL251290  36.470   9.444   5.772
 3864POPC   C1A51291  36.205   9.845   5.965
 3864POPC   D2A51292  36.297   9.833   6.443
 3864POPC   C3A51293  36.046  10.009   6.805
 3864POPC   C4A51294  36.108   9.901   7.259
 3864POPC   C1B51295  36.393   9.254   6.159
 3864POPC   C2B51296  36.202   9.324   6.546
 3864POPC   C3B51297  36.200   9.531   6.902
 3864POPC   C4B51298  36.173   9.379   7.294
 3865POPC   NC351299   7.663  10.489   5.324
 3865POPC   PO451300   7.003  10.626   5.106
 3865POPC   GL151301   7.194  10.609   5.535
 3865POPC   GL251302   7.242  10.259   5.641
 3865POPC   C1A51303   7.362  10.590   6.000
 3865POPC   D2A51304   7.526  10.283   6.349
 3865POPC   C3A51305   7.563  10.460   6.788
 3865POPC   C4A51306   7.577  10.345   7.240
 3865POPC   C1B51307   6.972  10.262   6.043
 3865POPC   C2B51308   7.054  10.432   6.498
 3865POPC   C3B51309   7.068  10.432   6.985
 3865POPC   C4B51310   7.086  10.318   7.458
 3866POPC   NC351311   3.362   3.444   5.225
 3866POPC   PO451312   4.039   3.671   5.248
 3866POPC   GL151313   3.816   3.612   5.688
 3866POPC   GL251314   3.473   3.453   5.729
 3866POPC   C1A51315   3.739   3.688   6.171
 3866POPC   D2A51316   3.846   3.786   6.627
 3866POPC   C3A51317   3.617   3.598   7.005
 3866POPC   C4A51318   3.598   3.594   7.493
 3866POPC   C1B51319   3.284   3.451   6.143
 3866POPC   C2B51320   3.332   3.645   6.541
 3866POPC   C3B51321   3.107   3.595   6.918
 3866POPC   C4B51322   3.245   3.310   7.219
 3867POPC   NC351323  33.341  15.199   5.086
 3867POPC   PO451324  32.901  14.929   5.390
 3867POPC   GL151325  32.879  15.163   5.744
 3867POPC   GL251326  33.186  15.119   5.793
 3867POPC   C1A51327  32.857  15.075   6.209
 3867POPC   D2A51328  32.792  14.975   6.648
 3867POPC   C3A51329  32.806  15.327   6.953
 3867POPC   C4A51330  32.882  15.197   7.388
 3867POPC   C1B51331  33.296  15.370   6.160
 3867POPC   C2B51332  33.209  15.255   6.570
 3867POPC   C3B51333  33.219  15.052   6.955
 3867POPC   C4B51334  33.268  15.446   7.190
 3868POPC   NC351335  29.090   0.052   5.288
 3868POPC   PO451336  29.318   0.742   5.338
 3868POPC   GL151337  29.150   0.684   5.803
 3868POPC   GL251338  28.993   0.365   5.798
 3868POPC   C1A51339  28.981   0.627   6.266
 3868POPC   D2A51340  28.851   0.514   6.713
 3868POPC   C3A51341  29.125   0.657   7.083
 3868POPC   C4A51342  29.093   0.744   7.553
 3868POPC   C1B51343  29.170   0.177   6.186
 3868POPC   C2B51344  29.107   0.059   6.604
 3868POPC   C3B51345  29.160   0.148   7.023
 3868POPC   C4B51346  29.034  44.935   7.369
 3869POPC   NC351347  39.832   0.856   5.413
 3869POPC   PO451348  40.210   1.402   5.176
 3869POPC   GL151349  40.251   1.211   5.686
 3869POPC   GL251350  39.948   0.989   5.886
 3869POPC   C1A51351  40.094   1.408   6.107
 3869POPC   D2A51352  40.247   1.428   6.519
 3869POPC   C3A51353  39.994   1.357   6.854
 3869POPC   C4A51354  39.954   1.346   7.265
 3869POPC   C1B51355  39.645   1.208   6.202
 3869POPC   C2B51356  39.546   1.405   6.601
 3869POPC   C3B51357  39.552   1.088   6.914
 3869POPC   C4B51358  39.699   0.925   7.287
 3870POPC   NC351359  24.627  38.077   5.370
 3870POPC   PO451360  24.305  38.662   5.495
 3870POPC   GL151361  24.683  38.497   5.682
 3870POPC   GL251362  24.842  38.814   5.650
 3870POPC   C1A51363  24.683  38.295   6.115
 3870POPC   D2A51364  24.480  38.313   6.547
 3870POPC   C3A51365  24.607  38.160   6.964
 3870POPC   C4A51366  24.251  38.300   7.199
 3870POPC   C1B51367  24.761  38.805   6.096
 3870POPC   C2B51368  24.616  38.814   6.520
 3870POPC   C3B51369  24.496  38.699   6.937
 3870POPC   C4B51370  24.779  38.744   7.257
 3871POPC   NC351371  20.765  29.331   4.961
 3871POPC   PO451372  20.703  28.829   5.385
 3871POPC   GL151373  20.594  29.137   5.744
 3871POPC   GL251374  20.299  29.389   5.798
 3871POPC   C1A51375  20.755  29.063   6.169
 3871POPC   D2A51376  20.938  29.285   6.504
 3871POPC   C3A51377  20.865  29.088   6.881
 3871POPC   C4A51378  21.006  29.300   7.226
 3871POPC   C1B51379  20.270  29.217   6.224
 3871POPC   C2B51380  20.398  29.151   6.663
 3871POPC   C3B51381  20.400  29.056   7.116
 3871POPC   C4B51382  20.271  28.823   7.496
 3872POPC   NC351383   1.984  10.845   5.491
 3872POPC   PO451384   1.753  10.190   5.390
 3872POPC   GL151385   1.881  10.275   5.832
 3872POPC   GL251386   1.882  10.654   5.954
 3872POPC   C1A51387   2.078  10.275   6.243
 3872POPC   D2A51388   2.061  10.524   6.606
 3872POPC   C3A51389   1.938  10.392   7.003
 3872POPC   C4A51390   1.605  10.431   7.255
 3872POPC   C1B51391   2.256  10.786   6.196
 3872POPC   C2B51392   2.418  10.894   6.628
 3872POPC   C3B51393   2.126  10.878   6.988
 3872POPC   C4B51394   2.009  10.741   7.411
 3873POPC   NC351395   1.719  17.717   5.416
 3873POPC   PO451396   2.180  17.266   5.429
 3873POPC   GL151397   2.020  17.505   5.794
 3873POPC   GL251398   2.277  17.752   5.866
 3873POPC   C1A51399   1.973  17.382   6.239
 3873POPC   D2A51400   2.049  17.559   6.628
 3873POPC   C3A51401   1.982  17.364   7.020
 3873POPC   C4A51402   1.798  17.550   7.395
 3873POPC   C1B51403   2.454  17.378   6.073
 3873POPC   C2B51404   2.381  17.178   6.487
 3873POPC   C3B51405   2.491  17.440   6.863
 3873POPC   C4B51406   2.409  17.510   7.296
 3874POPC   NC351407  23.077  18.440   5.646
 3874POPC   PO451408  22.401  18.205   5.548
 3874POPC   GL151409  22.674  18.224   5.880
 3874POPC   GL251410  22.700  18.613   5.933
 3874POPC   C1A51411  22.856  17.981   6.247
 3874POPC   D2A51412  22.975  17.833   6.670
 3874POPC   C3A51413  22.942  18.074   7.081
 3874POPC   C4A51414  23.213  18.201   7.428
 3874POPC   C1B51415  22.982  18.477   6.287
 3874POPC   C2B51416  23.201  18.320   6.669
 3874POPC   C3B51417  23.123  18.540   7.056
 3874POPC   C4B51418  22.696  18.628   7.034
 3875POPC   NC351419  11.635  14.412   5.378
 3875POPC   PO451420  10.959  14.507   5.403
 3875POPC   GL151421  11.022  14.338   5.802
 3875POPC   GL251422  11.382  14.308   5.818
 3875POPC   C1A51423  10.981  14.302   6.255
 3875POPC   D2A51424  10.940  14.151   6.654
 3875POPC   C3A51425  11.052  14.401   7.046
 3875POPC   C4A51426  11.126  14.678   7.427
 3875POPC   C1B51427  11.481  14.313   6.237
 3875POPC   C2B51428  11.388  14.404   6.627
 3875POPC   C3B51429  11.638  14.240   6.923
 3875POPC   C4B51430  11.541  14.448   7.237
 3876POPC   NC351431   4.114   0.339   5.538
 3876POPC   PO451432   4.623   0.702   5.464
 3876POPC   GL151433   4.510   0.478   5.856
 3876POPC   GL251434   4.631   0.141   5.947
 3876POPC   C1A51435   4.345   0.487   6.296
 3876POPC   D2A51436   4.560   0.659   6.671
 3876POPC   C3A51437   4.360   0.699   7.052
 3876POPC   C4A51438   3.983   0.543   7.214
 3876POPC   C1B51439   4.167   0.029   6.086
 3876POPC   C2B51440   3.928   0.164   6.438
 3876POPC   C3B51441   4.157   0.275   6.811
 3876POPC   C4B51442   4.183   0.061   7.231
 3877POPC   NC351443  14.083   4.333   5.432
 3877POPC   PO451444  14.766   4.230   5.339
 3877POPC   GL151445  14.547   4.332   5.799
 3877POPC   GL251446  14.320   4.613   5.770
 3877POPC   C1A51447  14.411   4.434   6.299
 3877POPC   D2A51448  14.251   4.316   6.776
 3877POPC   C3A51449  14.391   4.074   7.150
 3877POPC   C4A51450  14.217   3.843   7.523
 3877POPC   C1B51451  14.630   4.803   6.002
 3877POPC   C2B51452  14.741   4.842   6.433
 3877POPC   C3B51453  14.536   4.739   6.828
 3877POPC   C4B51454  14.548   4.555   7.251
 3878POPC   NC351455  27.386   0.041   5.451
 3878POPC   PO451456  27.345  44.327   5.452
 3878POPC   GL151457  27.527  44.654   5.758
 3878POPC   GL251458  27.665  44.419   5.915
 3878POPC   C1A51459  27.777  44.832   6.161
 3878POPC   D2A51460  27.703  44.637   6.591
 3878POPC   C3A51461  27.717  44.843   6.996
 3878POPC   C4A51462  27.650  44.727   7.419
 3878POPC   C1B51463  27.515  44.249   6.273
 3878POPC   C2B51464  27.308  44.327   6.657
 3878POPC   C3B51465  27.529  44.304   7.047
 3878POPC   C4B51466  27.301  44.187   7.420
 3879POPC   NC351467  39.713  36.253   5.184
 3879POPC   PO451468  40.362  36.141   5.172
 3879POPC   GL151469  40.112  36.198   5.588
 3879POPC   GL251470  39.759  36.043   5.659
 3879POPC   C1A51471  40.087  36.186   6.069
 3879POPC   D2A51472  40.346  36.191   6.482
 3879POPC   C3A51473  40.093  36.232   6.863
 3879POPC   C4A51474  40.175  36.023   7.252
 3879POPC   C1B51475  39.550  36.067   6.071
 3879POPC   C2B51476  39.531  36.256   6.467
 3879POPC   C3B51477  39.480  36.163   6.886
 3879POPC   C4B51478  39.699  36.203   7.258
 3880POPC   NC351479  18.992   8.481   5.187
 3880POPC   PO451480  19.456   8.113   5.618
 3880POPC   GL151481  19.121   8.239   5.881
 3880POPC   GL251482  18.847   8.388   5.675
 3880POPC   C1A51483  19.151   8.246   6.298
 3880POPC   D2A51484  19.100   8.138   6.698
 3880POPC   C3A51485  19.275   8.211   7.093
 3880POPC   C4A51486  19.285   8.338   7.530
 3880POPC   C1B51487  18.687   8.410   6.097
 3880POPC   C2B51488  18.653   8.541   6.534
 3880POPC   C3B51489  18.770   8.409   6.948
 3880POPC   C4B51490  18.593   8.380   7.347
 3881POPC   NC351491  21.577  30.041   5.222
 3881POPC   PO451492  20.998  29.658   5.211
 3881POPC   GL151493  21.188  29.756   5.634
 3881POPC   GL251494  21.440  30.009   5.701
 3881POPC   C1A51495  21.058  29.965   6.031
 3881POPC   D2A51496  21.075  29.831   6.469
 3881POPC   C3A51497  21.191  30.139   6.806
 3881POPC   C4A51498  20.999  30.167   7.219
 3881POPC   C1B51499  21.547  30.125   6.126
 3881POPC   C2B51500  21.602  29.966   6.514
 3881POPC   C3B51501  21.767  30.029   6.895
 3881POPC   C4B51502  21.733  29.850   7.268
 3882POPC   NC351503  39.830   1.683   5.273
 3882POPC   PO451504  39.574   2.277   5.483
 3882POPC   GL151505  39.924   2.055   5.733
 3882POPC   GL251506  40.150   1.733   5.694
 3882POPC   C1A51507  40.018   1.920   6.170
 3882POPC   D2A51508  39.935   1.831   6.598
 3882POPC   C3A51509  40.135   2.149   6.836
 3882POPC   C4A51510  40.186   2.346   7.226
 3882POPC   C1B51511  40.474   1.735   6.078
 3882POPC   C2B51512  40.469   1.878   6.532
 3882POPC   C3B51513  40.390   1.705   6.951
 3882POPC   C4B51514  40.291   1.879   7.340
 3883POPC   NC351515   3.065  15.063   5.262
 3883POPC   PO451516   2.500  15.405   5.459
 3883POPC   GL151517   2.729  15.510   5.867
 3883POPC   GL251518   3.096  15.469   5.814
 3883POPC   C1A51519   2.699  15.383   6.329
 3883POPC   D2A51520   2.349  15.254   6.655
 3883POPC   C3A51521   2.470  15.055   7.058
 3883POPC   C4A51522   2.720  15.349   7.316
 3883POPC   C1B51523   3.060  15.074   6.064
 3883POPC   C2B51524   2.990  14.972   6.487
 3883POPC   C3B51525   2.922  15.181   6.866
 3883POPC   C4B51526   2.966  14.891   7.227
 3884POPC   NC351527   6.050  11.475   5.345
 3884POPC   PO451528   5.858  10.807   5.180
 3884POPC   GL151529   6.004  10.980   5.670
 3884POPC   GL251530   5.951  11.330   5.805
 3884POPC   C1A51531   5.817  11.015   6.143
 3884POPC   D2A51532   5.719  11.204   6.571
 3884POPC   C3A51533   6.002  11.348   6.846
 3884POPC   C4A51534   5.874  11.431   7.242
 3884POPC   C1B51535   5.768  11.554   6.155
 3884POPC   C2B51536   5.865  11.761   6.550
 3884POPC   C3B51537   5.603  11.697   6.920
 3884POPC   C4B51538   5.390  11.660   7.330
 3885POPC   NC351539  30.993  33.580   5.288
 3885POPC   PO451540  30.547  34.057   5.339
 3885POPC   GL151541  30.484  33.894   5.740
 3885POPC   GL251542  30.717  33.593   5.807
 3885POPC   C1A51543  30.385  33.791   6.160
 3885POPC   D2A51544  30.457  33.558   6.525
 3885POPC   C3A51545  30.387  33.783   6.876
 3885POPC   C4A51546  30.581  34.025   7.166
 3885POPC   C1B51547  30.889  33.707   6.277
 3885POPC   C2B51548  30.913  33.742   6.804
 3885POPC   C3B51549  30.896  33.653   7.297
 3885POPC   C4B51550  30.730  33.604   7.782
 3886POPC   NC351551  23.647  28.815   5.486
 3886POPC   PO451552  24.011  28.086   5.440
 3886POPC   GL151553  23.764  28.190   5.825
 3886POPC   GL251554  23.453  28.413   5.853
 3886POPC   C1A51555  23.776  28.191   6.263
 3886POPC   D2A51556  24.063  28.325   6.561
 3886POPC   C3A51557  23.941  28.187   6.946
 3886POPC   C4A51558  23.984  28.416   7.297
 3886POPC   C1B51559  23.524  28.668   6.261
 3886POPC   C2B51560  23.694  28.711   6.716
 3886POPC   C3B51561  23.533  28.601   7.138
 3886POPC   C4B51562  23.377  28.778   7.538
 3887POPC   NC351563  13.772  24.994   5.405
 3887POPC   PO451564  13.857  25.697   5.307
 3887POPC   GL151565  13.657  25.392   5.677
 3887POPC   GL251566  13.868  25.136   5.871
 3887POPC   C1A51567  13.432  25.369   6.105
 3887POPC   D2A51568  13.224  25.296   6.544
 3887POPC   C3A51569  13.367  25.333   6.987
 3887POPC   C4A51570  13.635  25.265   7.336
 3887POPC   C1B51571  13.927  25.357   6.239
 3887POPC   C2B51572  13.743  25.339   6.630
 3887POPC   C3B51573  13.898  25.086   6.957
 3887POPC   C4B51574  14.216  25.058   7.280
 3888POPC   NC351575  32.909  32.499   5.285
 3888POPC   PO451576  33.293  31.942   5.474
 3888POPC   GL151577  33.268  32.179   5.853
 3888POPC   GL251578  33.168  32.526   5.817
 3888POPC   C1A51579  33.068  32.103   6.259
 3888POPC   D2A51580  32.904  31.795   6.549
 3888POPC   C3A51581  32.831  31.985   6.946
 3888POPC   C4A51582  33.147  32.180   7.190
 3888POPC   C1B51583  33.332  32.524   6.261
 3888POPC   C2B51584  33.190  32.448   6.713
 3888POPC   C3B51585  33.150  32.689   7.106
 3888POPC   C4B51586  33.082  32.560   7.552
 3889POPC   NC351587  10.041   4.997   5.378
 3889POPC   PO451588   9.509   5.345   5.527
 3889POPC   GL151589   9.833   5.344   5.877
 3889POPC   GL251590   9.837   4.992   5.866
 3889POPC   C1A51591  10.000   5.202   6.322
 3889POPC   D2A51592   9.769   5.232   6.714
 3889POPC   C3A51593  10.055   5.310   7.004
 3889POPC   C4A51594  10.114   5.034   7.278
 3889POPC   C1B51595   9.540   5.051   6.211
 3889POPC   C2B51596   9.562   4.794   6.578
 3889POPC   C3B51597   9.706   4.764   7.034
 3889POPC   C4B51598   9.603   5.146   7.226
 3890POPC   NC351599  40.785  12.506   5.467
 3890POPC   PO451600  40.210  12.937   5.496
 3890POPC   GL151601  40.570  13.037   5.763
 3890POPC   GL251602  40.942  13.063   5.650
 3890POPC   C1A51603  40.739  12.981   6.149
 3890POPC   D2A51604  40.945  12.849   6.483
 3890POPC   C3A51605  40.816  12.885   6.889
 3890POPC   C4A51606  40.952  12.782   7.255
 3890POPC   C1B51607  41.223  13.046   6.025
 3890POPC   C2B51608  41.346  13.147   6.430
 3890POPC   C3B51609  41.087  13.281   6.734
 3890POPC   C4B51610  41.172  13.228   7.127
 3891POPC   NC351611   8.603  20.712   5.350
 3891POPC   PO451612   7.987  20.574   5.197
 3891POPC   GL151613   8.123  20.704   5.608
 3891POPC   GL251614   8.383  20.504   5.775
 3891POPC   C1A51615   8.009  20.748   6.067
 3891POPC   D2A51616   8.192  20.578   6.453
 3891POPC   C3A51617   8.017  20.788   6.845
 3891POPC   C4A51618   7.928  20.799   7.272
 3891POPC   C1B51619   8.087  20.239   6.040
 3891POPC   C2B51620   7.828  20.173   6.419
 3891POPC   C3B51621   7.972  20.284   6.811
 3891POPC   C4B51622   8.133  20.353   7.210
 3892POPC   NC351623  22.036  28.659   5.513
 3892POPC   PO451624  22.412  28.084   5.447
 3892POPC   GL151625  22.302  28.291   5.809
 3892POPC   GL251626  22.467  28.593   5.825
 3892POPC   C1A51627  22.365  28.347   6.251
 3892POPC   D2A51628  22.130  28.254   6.584
 3892POPC   C3A51629  22.256  28.387   6.949
 3892POPC   C4A51630  21.937  28.508   7.229
 3892POPC   C1B51631  22.215  28.825   6.139
 3892POPC   C2B51632  22.268  28.766   6.563
 3892POPC   C3B51633  22.159  28.875   6.946
 3892POPC   C4B51634  22.371  28.725   7.324
 3893POPC   NC351635  42.408  30.183   5.267
 3893POPC   PO451636  42.376  29.572   5.551
 3893POPC   GL151637  42.312  29.822   5.938
 3893POPC   GL251638  42.317  30.195   5.830
 3893POPC   C1A51639  42.392  29.759   6.397
 3893POPC   D2A51640  42.054  29.626   6.689
 3893POPC   C3A51641  42.227  29.653   7.070
 3893POPC   C4A51642  42.572  29.744   7.290
 3893POPC   C1B51643  42.258  30.254   6.304
 3893POPC   C2B51644  42.186  30.142   6.777
 3893POPC   C3B51645  42.207  30.132   7.273
 3893POPC   C4B51646  42.125  30.217   7.741
 3894POPC   NC351647  35.565  31.585   5.285
 3894POPC   PO451648  35.142  31.223   5.628
 3894POPC   GL151649  35.389  31.581   5.790
 3894POPC   GL251650  35.732  31.487   5.875
 3894POPC   C1A51651  35.361  31.759   6.212
 3894POPC   D2A51652  35.529  31.616   6.627
 3894POPC   C3A51653  35.201  31.520   6.889
 3894POPC   C4A51654  35.037  31.157   7.035
 3894POPC   C1B51655  35.652  31.192   6.252
 3894POPC   C2B51656  35.461  31.096   6.686
 3894POPC   C3B51657  35.608  31.295   7.090
 3894POPC   C4B51658  35.664  31.148   7.537
 3895POPC   NC351659  24.093   2.184   5.368
 3895POPC   PO451660  24.413   2.843   5.231
 3895POPC   GL151661  24.372   2.812   5.690
 3895POPC   GL251662  24.242   2.496   5.793
 3895POPC   C1A51663  24.506   2.867   6.125
 3895POPC   D2A51664  24.306   2.879   6.552
 3895POPC   C3A51665  24.529   2.878   6.920
 3895POPC   C4A51666  24.697   3.165   7.241
 3895POPC   C1B51667  24.026   2.677   6.173
 3895POPC   C2B51668  23.900   2.573   6.608
 3895POPC   C3B51669  24.015   2.788   6.989
 3895POPC   C4B51670  24.281   2.852   7.363
 3896POPC   NC351671  20.765  40.353   5.610
 3896POPC   PO451672  20.772  39.727   5.319
 3896POPC   GL151673  20.618  39.755   5.773
 3896POPC   GL251674  20.455  40.061   5.906
 3896POPC   C1A51675  20.566  39.698   6.250
 3896POPC   D2A51676  20.364  39.984   6.581
 3896POPC   C3A51677  20.460  39.900   7.025
 3896POPC   C4A51678  20.849  39.851   7.219
 3896POPC   C1B51679  20.711  40.215   6.233
 3896POPC   C2B51680  21.010  40.066   6.505
 3896POPC   C3B51681  20.878  40.220   6.874
 3896POPC   C4B51682  20.734  40.345   7.273
 3897POPC   NC351683   4.302   3.345   5.482
 3897POPC   PO451684   4.515   3.947   5.534
 3897POPC   GL151685   4.301   3.700   5.833
 3897POPC   GL251686   4.608   3.514   5.897
 3897POPC   C1A51687   4.182   3.456   6.216
 3897POPC   D2A51688   4.353   3.316   6.603
 3897POPC   C3A51689   4.104   3.422   6.912
 3897POPC   C4A51690   3.977   3.342   7.289
 3897POPC   C1B51691   4.558   3.814   6.249
 3897POPC   C2B51692   4.370   3.824   6.639
 3897POPC   C3B51693   4.322   3.845   7.057
 3897POPC   C4B51694   4.435   3.532   7.383
 3898POPC   NC351695  27.808  25.170   5.413
 3898POPC   PO451696  27.316  25.634   5.377
 3898POPC   GL151697  27.412  25.502   5.815
 3898POPC   GL251698  27.544  25.163   5.854
 3898POPC   C1A51699  27.569  25.531   6.250
 3898POPC   D2A51700  27.579  25.203   6.582
 3898POPC   C3A51701  27.582  25.352   7.005
 3898POPC   C4A51702  28.007  25.456   7.129
 3898POPC   C1B51703  27.899  25.097   6.148
 3898POPC   C2B51704  28.068  25.030   6.602
 3898POPC   C3B51705  27.838  24.914   7.007
 3898POPC   C4B51706  27.472  24.909   7.325
 3899POPC   NC351707  43.522  20.389   5.131
 3899POPC   PO451708  43.316  20.885   5.570
 3899POPC   GL151709  43.010  20.640   5.803
 3899POPC   GL251710  42.790  20.885   5.832
 3899POPC   C1A51711  43.075  20.465   6.225
 3899POPC   D2A51712  43.441  20.511   6.510
 3899POPC   C3A51713  43.333  20.406   6.939
 3899POPC   C4A51714  42.906  20.370   7.124
 3899POPC   C1B51715  42.961  20.983   6.221
 3899POPC   C2B51716  42.764  20.876   6.600
 3899POPC   C3B51717  42.874  20.867   7.021
 3899POPC   C4B51718  42.973  21.034   7.392
 3900POPC   NC351719  20.289  17.173   5.376
 3900POPC   PO451720  19.623  17.252   5.320
 3900POPC   GL151721  19.871  17.229   5.724
 3900POPC   GL251722  19.940  17.591   5.820
 3900POPC   C1A51723  19.748  17.250   6.192
 3900POPC   D2A51724  19.634  17.398   6.635
 3900POPC   C3A51725  19.902  17.265   7.014
 3900POPC   C4A51726  19.862  17.441   7.440
 3900POPC   C1B51727  20.043  17.866   6.204
 3900POPC   C2B51728  19.834  17.878   6.588
 3900POPC   C3B51729  19.782  17.757   7.012
 3900POPC   C4B51730  19.882  17.989   7.373
 3901POPC   NC351731  22.370  15.655   5.439
 3901POPC   PO451732  21.833  16.072   5.315
 3901POPC   GL151733  22.028  15.944   5.690
 3901POPC   GL251734  22.346  16.101   5.695
 3901POPC   C1A51735  21.932  15.790   6.099
 3901POPC   D2A51736  22.137  15.632   6.460
 3901POPC   C3A51737  22.031  15.924   6.806
 3901POPC   C4A51738  21.920  15.778   7.195
 3901POPC   C1B51739  22.414  15.897   6.073
 3901POPC   C2B51740  22.408  16.067   6.477
 3901POPC   C3B51741  22.549  15.992   6.899
 3901POPC   C4B51742  22.404  15.886   7.322
 3902POPC   NC351743  39.592   7.675   5.383
 3902POPC   PO451744  38.955   7.696   5.401
 3902POPC   GL151745  38.983   7.597   5.829
 3902POPC   GL251746  39.333   7.728   5.865
 3902POPC   C1A51747  38.914   7.227   6.100
 3902POPC   D2A51748  39.060   6.998   6.458
 3902POPC   C3A51749  38.980   7.119   6.887
 3902POPC   C4A51750  39.315   7.158   7.192
 3902POPC   C1B51751  39.259   7.556   6.274
 3902POPC   C2B51752  39.086   7.582   6.678
 3902POPC   C3B51753  39.288   7.660   7.071
 3902POPC   C4B51754  39.601   7.614   7.397
 3903POPC   NC351755  29.613  35.401   5.477
 3903POPC   PO451756  30.215  35.625   5.285
 3903POPC   GL151757  30.053  35.457   5.741
 3903POPC   GL251758  29.975  35.145   5.843
 3903POPC   C1A51759  30.173  35.466   6.188
 3903POPC   D2A51760  30.127  35.698   6.557
 3903POPC   C3A51761  29.905  35.476   6.866
 3903POPC   C4A51762  29.940  35.666   7.240
 3903POPC   C1B51763  30.109  34.955   6.244
 3903POPC   C2B51764  29.911  34.860   6.672
 3903POPC   C3B51765  29.660  35.022   7.027
 3903POPC   C4B51766  29.679  35.270   7.402
 3904POPC   NC351767  23.155  43.803   5.551
 3904POPC   PO451768  23.835  43.900   5.424
 3904POPC   GL151769  23.794  43.878   5.842
 3904POPC   GL251770  23.509  43.653   5.915
 3904POPC   C1A51771  23.926  44.061   6.224
 3904POPC   D2A51772  23.990  43.887   6.616
 3904POPC   C3A51773  23.902  44.132   6.946
 3904POPC   C4A51774  23.847  43.882   7.326
 3904POPC   C1B51775  23.396  44.049   6.149
 3904POPC   C2B51776  23.508  44.138   6.590
 3904POPC   C3B51777  23.535  43.793   6.908
 3904POPC   C4B51778  23.340  43.722   7.304
 3905POPC   NC351779  27.910  27.180   5.382
 3905POPC   PO451780  27.764  26.525   5.436
 3905POPC   GL151781  27.772  26.814   5.797
 3905POPC   GL251782  27.489  27.053   5.823
 3905POPC   C1A51783  27.728  26.929   6.264
 3905POPC   D2A51784  27.667  27.208   6.617
 3905POPC   C3A51785  27.846  27.040   6.991
 3905POPC   C4A51786  27.869  26.619   7.170
 3905POPC   C1B51787  27.342  26.676   6.084
 3905POPC   C2B51788  27.318  26.709   6.532
 3905POPC   C3B51789  27.405  26.659   6.961
 3905POPC   C4B51790  27.268  26.952   7.222
 3906POPC   NC351791  11.831  23.658   5.352
 3906POPC   PO451792  11.957  24.206   5.647
 3906POPC   GL151793  12.086  24.011   5.993
 3906POPC   GL251794  12.007  23.675   5.969
 3906POPC   C1A51795  12.225  23.869   6.417
 3906POPC   D2A51796  11.986  23.754   6.804
 3906POPC   C3A51797  12.104  23.932   7.202
 3906POPC   C4A51798  11.968  24.008   7.627
 3906POPC   C1B51799  11.976  23.420   6.386
 3906POPC   C2B51800  12.183  23.281   6.789
 3906POPC   C3B51801  12.263  23.299   7.239
 3906POPC   C4B51802  12.029  23.136   7.605
 3907POPC   NC351803  12.717  32.907   5.425
 3907POPC   PO451804  13.236  33.105   5.398
 3907POPC   GL151805  13.205  32.972   5.848
 3907POPC   GL251806  12.970  32.693   5.828
 3907POPC   C1A51807  13.286  32.948   6.337
 3907POPC   D2A51808  13.137  32.847   6.797
 3907POPC   C3A51809  12.861  33.127   7.065
 3907POPC   C4A51810  12.899  33.205   7.500
 3907POPC   C1B51811  12.769  32.863   6.217
 3907POPC   C2B51812  12.627  32.830   6.677
 3907POPC   C3B51813  12.721  32.645   7.104
 3907POPC   C4B51814  12.752  32.683   7.554
 3908POPC   NC351815  43.763  39.402   5.428
 3908POPC   PO451816  43.088  39.154   5.319
 3908POPC   GL151817  43.008  39.327   5.779
 3908POPC   GL251818  42.683  39.285   5.933
 3908POPC   C1A51819  43.164  39.437   6.246
 3908POPC   D2A51820  43.186  39.599   6.703
 3908POPC   C3A51821  43.171  39.292   7.065
 3908POPC   C4A51822  43.328  39.314   7.505
 3908POPC   C1B51823  42.916  39.000   6.203
 3908POPC   C2B51824  43.005  39.080   6.626
 3908POPC   C3B51825  42.840  38.896   6.996
 3908POPC   C4B51826  43.019  38.878   7.376
 3909POPC   NC351827  16.120   8.723   5.466
 3909POPC   PO451828  15.830   9.298   5.417
 3909POPC   GL151829  15.909   9.135   5.853
 3909POPC   GL251830  15.905   8.787   5.921
 3909POPC   C1A51831  15.819   9.081   6.326
 3909POPC   D2A51832  15.961   8.823   6.679
 3909POPC   C3A51833  15.881   9.015   7.077
 3909POPC   C4A51834  15.502   9.180   7.234
 3909POPC   C1B51835  16.272   8.869   6.237
 3909POPC   C2B51836  16.447   9.012   6.650
 3909POPC   C3B51837  16.353   8.801   7.054
 3909POPC   C4B51838  16.287   8.929   7.475
 3910POPC   NC351839  26.887  44.401   5.573
 3910POPC   PO451840  26.906   0.029   5.505
 3910POPC   GL151841  26.997  44.796   5.904
 3910POPC   GL251842  27.129  44.443   6.008
 3910POPC   C1A51843  26.772  44.688   6.293
 3910POPC   D2A51844  26.851  44.627   6.726
 3910POPC   C3A51845  26.629  44.818   7.052
 3910POPC   C4A51846  26.760  44.555   7.371
 3910POPC   C1B51847  27.291  44.746   6.310
 3910POPC   C2B51848  27.282  44.890   6.737
 3910POPC   C3B51849  27.205  44.699   7.143
 3910POPC   C4B51850  27.189  44.629   7.620
 3911POPC   NC351851  21.096  37.682   5.515
 3911POPC   PO451852  21.778  37.614   5.588
 3911POPC   GL151853  21.428  37.587   5.879
 3911POPC   GL251854  21.089  37.407   5.928
 3911POPC   C1A51855  21.333  37.652   6.300
 3911POPC   D2A51856  21.428  37.962   6.571
 3911POPC   C3A51857  21.393  37.783   6.964
 3911POPC   C4A51858  21.548  38.012   7.267
 3911POPC   C1B51859  21.058  37.211   6.301
 3911POPC   C2B51860  21.110  37.384   6.711
 3911POPC   C3B51861  21.015  37.495   7.131
 3911POPC   C4B51862  21.174  37.255   7.445
 3912POPC   NC351863  23.093   4.325   5.412
 3912POPC   PO451864  22.664   3.854   5.339
 3912POPC   GL151865  22.788   4.094   5.762
 3912POPC   GL251866  22.754   4.477   5.784
 3912POPC   C1A51867  23.178   4.191   6.054
 3912POPC   D2A51868  23.376   4.484   6.368
 3912POPC   C3A51869  23.261   4.448   6.837
 3912POPC   C4A51870  23.134   4.352   7.280
 3912POPC   C1B51871  22.826   4.513   6.240
 3912POPC   C2B51872  22.618   4.435   6.634
 3912POPC   C3B51873  22.493   4.217   7.003
 3912POPC   C4B51874  22.690   4.093   7.373
 3913POPC   NC351875  35.045  35.574   5.004
 3913POPC   PO451876  35.195  35.047   5.454
 3913POPC   GL151877  35.272  35.132   5.842
 3913POPC   GL251878  35.202  35.490   5.824
 3913POPC   C1A51879  35.519  35.213   6.212
 3913POPC   D2A51880  35.559  35.446   6.594
 3913POPC   C3A51881  35.437  35.232   6.970
 3913POPC   C4A51882  35.531  35.187   7.406
 3913POPC   C1B51883  35.001  35.351   6.218
 3913POPC   C2B51884  35.000  35.366   6.653
 3913POPC   C3B51885  35.135  35.665   6.923
 3913POPC   C4B51886  35.334  35.658   7.288
 3914POPC   NC351887  38.211  40.940   5.384
 3914POPC   PO451888  38.851  40.811   5.308
 3914POPC   GL151889  38.633  40.617   5.682
 3914POPC   GL251890  38.253  40.590   5.743
 3914POPC   C1A51891  38.617  40.691   6.136
 3914POPC   D2A51892  38.497  40.923   6.511
 3914POPC   C3A51893  38.561  40.700   6.907
 3914POPC   C4A51894  38.540  40.889   7.282
 3914POPC   C1B51895  38.110  40.613   6.163
 3914POPC   C2B51896  38.312  40.437   6.528
 3914POPC   C3B51897  38.148  40.351   6.922
 3914POPC   C4B51898  38.121  40.632   7.244
 3915POPC   NC351899  16.854  26.052   5.316
 3915POPC   PO451900  16.406  26.454   5.674
 3915POPC   GL151901  16.688  26.160   5.903
 3915POPC   GL251902  16.957  25.943   5.795
 3915POPC   C1A51903  16.769  26.070   6.346
 3915POPC   D2A51904  16.504  25.923   6.658
 3915POPC   C3A51905  16.536  26.065   7.090
 3915POPC   C4A51906  16.545  25.990   7.550
 3915POPC   C1B51907  17.152  25.777   6.148
 3915POPC   C2B51908  17.223  25.845   6.567
 3915POPC   C3B51909  16.971  25.888   6.925
 3915POPC   C4B51910  16.837  25.632   7.313
 3916POPC   NC351911  37.111  21.769   5.313
 3916POPC   PO451912  36.935  21.052   5.406
 3916POPC   GL151913  36.778  21.454   5.598
 3916POPC   GL251914  37.070  21.433   5.768
 3916POPC   C1A51915  36.722  21.708   6.013
 3916POPC   D2A51916  36.741  21.588   6.460
 3916POPC   C3A51917  36.562  21.543   6.858
 3916POPC   C4A51918  36.772  21.485   7.252
 3916POPC   C1B51919  36.956  21.237   6.182
 3916POPC   C2B51920  37.042  21.226   6.672
 3916POPC   C3B51921  36.960  21.040   7.095
 3916POPC   C4B51922  37.105  21.126   7.533
 3917POPC   NC351923  44.226  13.867   5.340
 3917POPC   PO451924  43.560  13.780   5.382
 3917POPC   GL151925  43.790  13.848   5.778
 3917POPC   GL251926  44.093  14.033   5.801
 3917POPC   C1A51927  43.762  13.742   6.223
 3917POPC   D2A51928  43.525  13.642   6.596
 3917POPC   C3A51929  43.772  13.694   7.008
 3917POPC   C4A51930  43.554  13.394   7.282
 3917POPC   C1B51931  44.277  13.865   6.170
 3917POPC   C2B51932  44.217  13.931   6.604
 3917POPC   C3B51933  44.344  13.695   6.948
 3917POPC   C4B51934  44.200  13.798   7.312
 3918POPC   NC351935  18.292  14.809   5.062
 3918POPC   PO451936  18.067  14.367   5.506
 3918POPC   GL151937  18.315  14.327   5.861
 3918POPC   GL251938  18.377  14.666   5.823
 3918POPC   C1A51939  18.448  14.125   6.252
 3918POPC   D2A51940  18.279  13.974   6.645
 3918POPC   C3A51941  18.341  14.139   7.042
 3918POPC   C4A51942  18.248  14.497   7.251
 3918POPC   C1B51943  18.571  14.625   6.218
 3918POPC   C2B51944  18.423  14.484   6.639
 3918POPC   C3B51945  18.638  14.639   6.966
 3918POPC   C4B51946  18.707  14.952   7.261
 3919POPC   NC351947  12.860  29.561   5.401
 3919POPC   PO451948  13.001  30.076   5.091
 3919POPC   GL151949  12.962  30.030   5.610
 3919POPC   GL251950  13.158  29.761   5.779
 3919POPC   C1A51951  12.833  30.011   6.105
 3919POPC   D2A51952  12.849  30.006   6.603
 3919POPC   C3A51953  12.705  29.993   7.067
 3919POPC   C4A51954  12.679  29.906   7.523
 3919POPC   C1B51955  13.164  29.628   6.200
 3919POPC   C2B51956  13.028  29.528   6.604
 3919POPC   C3B51957  13.106  29.656   6.988
 3919POPC   C4B51958  13.149  29.717   7.428
 3920POPC   NC351959  30.741  21.303   5.278
 3920POPC   PO451960  30.918  21.873   5.556
 3920POPC   GL151961  30.693  21.549   5.762
 3920POPC   GL251962  30.927  21.278   5.753
 3920POPC   C1A51963  30.597  21.297   6.165
 3920POPC   D2A51964  30.491  21.446   6.592
 3920POPC   C3A51965  30.513  21.386   7.041
 3920POPC   C4A51966  30.718  21.389   7.423
 3920POPC   C1B51967  31.040  20.979   6.058
 3920POPC   C2B51968  31.011  21.132   6.463
 3920POPC   C3B51969  30.956  21.184   6.877
 3920POPC   C4B51970  31.006  21.004   7.287
 3921POPC   NC351971  40.653  39.892   5.372
 3921POPC   PO451972  41.086  40.409   5.379
 3921POPC   GL151973  40.823  40.294   5.738
 3921POPC   GL251974  40.909  39.945   5.797
 3921POPC   C1A51975  40.667  40.163   6.181
 3921POPC   D2A51976  40.760  39.860   6.537
 3921POPC   C3A51977  40.759  39.988   6.982
 3921POPC   C4A51978  40.920  40.105   7.409
 3921POPC   C1B51979  41.065  39.735   6.127
 3921POPC   C2B51980  41.051  39.453   6.430
 3921POPC   C3B51981  40.969  39.476   6.854
 3921POPC   C4B51982  41.094  39.657   7.231
 3922POPC   NC351983  33.121  29.376   5.485
 3922POPC   PO451984  33.084  29.998   5.302
 3922POPC   GL151985  32.866  29.993   5.737
 3922POPC   GL251986  33.050  29.743   5.813
 3922POPC   C1A51987  32.779  29.842   6.213
 3922POPC   D2A51988  32.740  30.144   6.536
 3922POPC   C3A51989  32.786  29.953   6.890
 3922POPC   C4A51990  32.891  29.880   7.284
 3922POPC   C1B51991  33.237  29.589   6.165
 3922POPC   C2B51992  33.172  29.411   6.540
 3922POPC   C3B51993  33.149  29.588   6.931
 3922POPC   C4B51994  33.354  29.667   7.288
 3923POPC   NC351995  27.797  37.833   5.228
 3923POPC   PO451996  28.114  37.521   5.686
 3923POPC   GL151997  27.825  37.790   5.868
 3923POPC   GL251998  27.489  37.785   5.783
 3923POPC   C1A51999  27.716  37.771   6.287
 3923POPC   D2A52000  27.837  37.533   6.623
 3923POPC   C3A52001  27.761  37.803   6.930
 3923POPC   C4A52002  27.668  37.678   7.327
 3923POPC   C1B52003  27.302  37.515   6.102
 3923POPC   C2B52004  27.343  37.391   6.552
 3923POPC   C3B52005  27.452  37.346   6.998
 3923POPC   C4B52006  27.238  37.422   7.442
 3924POPC   NC352007   4.820   2.577   5.469
 3924POPC   PO452008   4.208   2.897   5.579
 3924POPC   GL152009   4.606   2.989   5.764
 3924POPC   GL252010   4.662   2.671   5.943
 3924POPC   C1A52011   4.525   3.084   6.187
 3924POPC   D2A52012   4.126   2.912   6.373
 3924POPC   C3A52013   4.096   2.910   6.819
 3924POPC   C4A52014   4.363   3.021   7.150
 3924POPC   C1B52015   4.246   2.480   6.079
 3924POPC   C2B52016   4.090   2.343   6.465
 3924POPC   C3B52017   3.957   2.423   6.879
 3924POPC   C4B52018   4.157   2.515   7.267
 3925POPC   NC352019  40.990  39.103   5.464
 3925POPC   PO452020  40.473  39.489   5.237
 3925POPC   GL152021  40.645  39.480   5.681
 3925POPC   GL252022  40.883  39.323   5.897
 3925POPC   C1A52023  40.560  39.637   6.103
 3925POPC   D2A52024  40.315  39.430   6.425
 3925POPC   C3A52025  40.510  39.216   6.800
 3925POPC   C4A52026  40.712  39.237   7.246
 3925POPC   C1B52027  40.693  39.152   6.276
 3925POPC   C2B52028  40.950  38.995   6.645
 3925POPC   C3B52029  41.094  38.931   7.053
 3925POPC   C4B52030  40.983  38.858   7.484
 3926POPC   NC352031  30.413  16.063   5.281
 3926POPC   PO452032  30.967  15.720   5.342
 3926POPC   GL152033  30.651  15.767   5.667
 3926POPC   GL252034  30.696  16.110   5.785
 3926POPC   C1A52035  30.517  15.811   6.126
 3926POPC   D2A52036  30.630  15.973   6.532
 3926POPC   C3A52037  30.561  15.721   6.882
 3926POPC   C4A52038  30.412  15.840   7.288
 3926POPC   C1B52039  30.739  16.361   6.205
 3926POPC   C2B52040  30.804  16.430   6.671
 3926POPC   C3B52041  30.643  16.226   7.032
 3926POPC   C4B52042  30.477  16.331   7.441
 3927POPC   NC352043  20.419  35.210   5.432
 3927POPC   PO452044  20.882  35.662   5.205
 3927POPC   GL152045  20.741  35.596   5.683
 3927POPC   GL252046  20.644  35.282   5.875
 3927POPC   C1A52047  20.903  35.620   6.147
 3927POPC   D2A52048  20.834  35.288   6.498
 3927POPC   C3A52049  20.678  35.399   6.932
 3927POPC   C4A52050  20.704  35.529   7.376
 3927POPC   C1B52051  20.352  35.137   6.193
 3927POPC   C2B52052  20.106  35.106   6.596
 3927POPC   C3B52053  20.188  35.170   7.055
 3927POPC   C4B52054  20.187  35.129   7.532
 3928POPC   NC352055   0.324  41.529   5.237
 3928POPC   PO452056   1.008  41.250   5.286
 3928POPC   GL152057   0.750  41.537   5.598
 3928POPC   GL252058   0.411  41.422   5.728
 3928POPC   C1A52059   0.661  41.714   6.061
 3928POPC   D2A52060   0.415  41.677   6.470
 3928POPC   C3A52061   0.574  41.811   6.894
 3928POPC   C4A52062   0.623  41.584   7.276
 3928POPC   C1B52063   0.437  41.234   6.164
 3928POPC   C2B52064   0.204  41.140   6.554
 3928POPC   C3B52065   0.080  41.329   6.967
 3928POPC   C4B52066   0.221  41.302   7.421
 3929POPC   NC352067  19.703   6.492   5.008
 3929POPC   PO452068  20.232   6.681   5.469
 3929POPC   GL152069  19.898   6.696   5.796
 3929POPC   GL252070  19.540   6.686   5.738
 3929POPC   C1A52071  19.920   6.588   6.219
 3929POPC   D2A52072  20.184   6.712   6.558
 3929POPC   C3A52073  20.010   6.475   6.864
 3929POPC   C4A52074  19.617   6.545   7.014
 3929POPC   C1B52075  19.462   6.860   6.170
 3929POPC   C2B52076  19.678   6.880   6.578
 3929POPC   C3B52077  19.866   7.011   6.933
 3929POPC   C4B52078  19.655   7.063   7.312
 3930POPC   NC352079  17.796   2.241   5.299
 3930POPC   PO452080  17.244   1.820   5.477
 3930POPC   GL152081  17.388   2.053   5.823
 3930POPC   GL252082  17.736   2.156   5.804
 3930POPC   C1A52083  17.540   1.877   6.224
 3930POPC   D2A52084  17.708   1.715   6.612
 3930POPC   C3A52085  17.412   1.842   6.904
 3930POPC   C4A52086  17.452   1.827   7.317
 3930POPC   C1B52087  17.681   2.385   6.201
 3930POPC   C2B52088  17.591   2.243   6.626
 3930POPC   C3B52089  17.826   2.149   7.003
 3930POPC   C4B52090  17.865   2.091   7.438
 3931POPC   NC352091  26.407  16.805   5.534
 3931POPC   PO452092  26.033  16.266   5.271
 3931POPC   GL152093  25.986  16.497   5.669
 3931POPC   GL252094  26.308  16.421   5.840
 3931POPC   C1A52095  25.827  16.847   5.958
 3931POPC   D2A52096  25.676  16.830   6.402
 3931POPC   C3A52097  25.953  16.886   6.758
 3931POPC   C4A52098  25.920  16.830   7.212
 3931POPC   C1B52099  26.162  16.572   6.243
 3931POPC   C2B52100  26.289  16.494   6.650
 3931POPC   C3B52101  26.371  16.679   7.022
 3931POPC   C4B52102  26.383  16.734   7.436
 3932POPC   NC352103   0.233  20.966   5.589
 3932POPC   PO452104   0.272  20.528   4.984
 3932POPC   GL152105   0.316  20.458   5.511
 3932POPC   GL252106   0.577  20.645   5.751
 3932POPC   C1A52107   0.205  20.460   6.014
 3932POPC   D2A52108   0.302  20.619   6.449
 3932POPC   C3A52109   0.559  20.396   6.740
 3932POPC   C4A52110   0.437  20.243   7.132
 3932POPC   C1B52111   0.723  20.747   6.162
 3932POPC   C2B52112   0.780  20.874   6.597
 3932POPC   C3B52113   0.689  20.776   7.048
 3932POPC   C4B52114   0.977  20.704   7.396
 3933POPC   NC352115  11.813  32.507   5.274
 3933POPC   PO452116  12.303  32.747   5.357
 3933POPC   GL152117  12.335  32.855   5.821
 3933POPC   GL252118  12.094  33.145   5.859
 3933POPC   C1A52119  12.264  32.974   6.303
 3933POPC   D2A52120  12.088  33.124   6.722
 3933POPC   C3A52121  12.324  32.975   7.079
 3933POPC   C4A52122  12.266  32.640   7.375
 3933POPC   C1B52123  11.920  33.385   6.242
 3933POPC   C2B52124  11.665  33.449   6.631
 3933POPC   C3B52125  11.605  33.171   6.992
 3933POPC   C4B52126  11.823  32.838   7.198
 3934POPC   NC352127  34.493  30.210   5.474
 3934POPC   PO452128  34.871  29.757   5.150
 3934POPC   GL152129  34.799  29.809   5.615
 3934POPC   GL252130  34.484  29.701   5.745
 3934POPC   C1A52131  34.754  29.987   6.062
 3934POPC   D2A52132  34.578  29.995   6.483
 3934POPC   C3A52133  34.805  29.767   6.761
 3934POPC   C4A52134  34.924  29.792   7.157
 3934POPC   C1B52135  34.244  29.775   6.141
 3934POPC   C2B52136  34.061  29.940   6.543
 3934POPC   C3B52137  34.216  30.108   6.933
 3934POPC   C4B52138  34.423  29.903   7.269
 3935POPC   NC352139  39.516   6.922   5.213
 3935POPC   PO452140  38.969   6.644   5.428
 3935POPC   GL152141  39.153   6.450   5.788
 3935POPC   GL252142  39.472   6.505   5.640
 3935POPC   C1A52143  39.075   6.501   6.244
 3935POPC   D2A52144  39.003   6.546   6.685
 3935POPC   C3A52145  39.283   6.706   6.944
 3935POPC   C4A52146  39.403   6.363   7.211
 3935POPC   C1B52147  39.635   6.496   6.062
 3935POPC   C2B52148  39.535   6.632   6.475
 3935POPC   C3B52149  39.725   6.507   6.849
 3935POPC   C4B52150  39.747   6.825   7.146
 3936POPC   NC352151  44.411  29.380   5.528
 3936POPC   PO452152  44.681  28.745   5.350
 3936POPC   GL152153  44.757  28.917   5.717
 3936POPC   GL252154  44.396  28.914   5.757
 3936POPC   C1A52155  44.760  28.950   6.159
 3936POPC   D2A52156  44.549  29.177   6.492
 3936POPC   C3A52157  44.835  29.213   6.820
 3936POPC   C4A52158  44.934  29.474   7.170
 3936POPC   C1B52159  44.253  28.823   6.143
 3936POPC   C2B52160  44.408  28.685   6.526
 3936POPC   C3B52161  44.363  28.871   6.943
 3936POPC   C4B52162  44.664  29.008   7.251
 3937POPC   NC352163  44.872  23.390   5.376
 3937POPC   PO452164  44.385  23.751   5.013
 3937POPC   GL152165  44.443  23.677   5.536
 3937POPC   GL252166  44.411  23.978   5.744
 3937POPC   C1A52167  44.632  23.564   5.992
 3937POPC   D2A52168  44.532  23.541   6.459
 3937POPC   C3A52169  44.842  23.518   6.799
 3937POPC   C4A52170   0.089  23.753   7.144
 3937POPC   C1B52171  44.234  23.855   6.149
 3937POPC   C2B52172  44.307  24.023   6.562
 3937POPC   C3B52173  44.470  24.029   6.976
 3937POPC   C4B52174  44.574  23.662   7.200
 3938POPC   NC352175  18.187   5.696   5.463
 3938POPC   PO452176  18.347   6.395   5.473
 3938POPC   GL152177  18.192   6.076   5.846
 3938POPC   GL252178  18.425   5.782   5.909
 3938POPC   C1A52179  18.209   5.912   6.329
 3938POPC   D2A52180  18.193   5.883   6.796
 3938POPC   C3A52181  18.258   5.671   7.171
 3938POPC   C4A52182  17.959   5.992   7.329
 3938POPC   C1B52183  18.629   6.186   6.076
 3938POPC   C2B52184  18.706   6.374   6.480
 3938POPC   C3B52185  18.627   6.159   6.841
 3938POPC   C4B52186  18.397   6.191   7.199
 3939POPC   NC352187  41.744   2.597   5.406
 3939POPC   PO452188  41.499   3.237   5.264
 3939POPC   GL152189  41.288   3.036   5.693
 3939POPC   GL252190  41.532   2.800   5.816
 3939POPC   C1A52191  41.164   2.944   6.143
 3939POPC   D2A52192  41.040   3.099   6.559
 3939POPC   C3A52193  41.272   3.126   6.949
 3939POPC   C4A52194  41.568   2.884   7.207
 3939POPC   C1B52195  41.608   2.673   6.233
 3939POPC   C2B52196  41.419   2.640   6.641
 3939POPC   C3B52197  41.534   2.429   7.002
 3939POPC   C4B52198  41.816   2.456   7.320
 3940POPC   NC352199  15.313  11.181   5.150
 3940POPC   PO452200  14.971  11.630   5.526
 3940POPC   GL152201  15.174  11.337   5.834
 3940POPC   GL252202  14.973  11.040   5.938
 3940POPC   C1A52203  15.361  11.168   6.225
 3940POPC   D2A52204  15.225  10.987   6.619
 3940POPC   C3A52205  15.272  11.250   6.934
 3940POPC   C4A52206  15.219  11.258   7.350
 3940POPC   C1B52207  14.839  11.199   6.312
 3940POPC   C2B52208  14.695  11.106   6.709
 3940POPC   C3B52209  14.784  11.149   7.134
 3940POPC   C4B52210  14.816  11.024   7.592
 3941POPC   NC352211  41.161  14.994   5.585
 3941POPC   PO452212  41.788  15.025   5.446
 3941POPC   GL152213  41.589  15.260   5.734
 3941POPC   GL252214  41.825  15.512   5.802
 3941POPC   C1A52215  41.524  15.289   6.175
 3941POPC   D2A52216  41.384  15.123   6.569
 3941POPC   C3A52217  41.652  15.038   6.899
 3941POPC   C4A52218  41.544  15.232   7.292
 3941POPC   C1B52219  41.998  15.511   6.203
 3941POPC   C2B52220  41.835  15.536   6.640
 3941POPC   C3B52221  42.004  15.636   7.076
 3941POPC   C4B52222  41.818  15.616   7.504
 3942POPC   NC352223  28.193  37.171   5.393
 3942POPC   PO452224  27.549  37.395   5.175
 3942POPC   GL152225  27.597  37.300   5.682
 3942POPC   GL252226  27.426  36.993   5.841
 3942POPC   C1A52227  27.730  37.250   6.181
 3942POPC   D2A52228  27.723  37.025   6.619
 3942POPC   C3A52229  27.936  37.186   7.022
 3942POPC   C4A52230  27.700  37.188   7.430
 3942POPC   C1B52231  27.286  36.954   6.298
 3942POPC   C2B52232  27.217  36.942   6.772
 3942POPC   C3B52233  27.405  36.850   7.175
 3942POPC   C4B52234  27.621  36.691   7.554
 3943POPC   NC352235  35.825  38.289   5.553
 3943POPC   PO452236  35.245  38.526   5.354
 3943POPC   GL152237  35.157  38.455   5.790
 3943POPC   GL252238  35.145  38.797   5.846
 3943POPC   C1A52239  35.292  38.483   6.254
 3943POPC   D2A52240  35.630  38.612   6.549
 3943POPC   C3A52241  35.540  38.444   6.955
 3943POPC   C4A52242  35.404  38.393   7.385
 3943POPC   C1B52243  35.103  38.966   6.254
 3943POPC   C2B52244  35.160  38.817   6.689
 3943POPC   C3B52245  35.177  38.815   7.130
 3943POPC   C4B52246  34.977  38.655   7.469
 3944POPC   NC352247  30.141  31.110   5.078
 3944POPC   PO452248  30.612  31.547   5.244
 3944POPC   GL152249  30.456  31.599   5.689
 3944POPC   GL252250  30.771  31.462   5.804
 3944POPC   C1A52251  30.435  31.500   6.171
 3944POPC   D2A52252  30.245  31.521   6.602
 3944POPC   C3A52253  30.548  31.542   6.939
 3944POPC   C4A52254  30.856  31.655   7.247
 3944POPC   C1B52255  30.999  31.620   6.152
 3944POPC   C2B52256  30.920  31.707   6.580
 3944POPC   C3B52257  31.051  31.389   6.860
 3944POPC   C4B52258  31.175  31.264   7.257
 3945POPC   NC352259  22.516  26.785   5.436
 3945POPC   PO452260  21.849  26.532   5.428
 3945POPC   GL152261  22.013  26.697   5.830
 3945POPC   GL252262  22.134  27.035   5.869
 3945POPC   C1A52263  22.273  26.517   6.183
 3945POPC   D2A52264  22.481  26.576   6.596
 3945POPC   C3A52265  22.261  26.728   6.980
 3945POPC   C4A52266  22.367  26.752   7.393
 3945POPC   C1B52267  22.444  27.000   6.217
 3945POPC   C2B52268  22.473  27.090   6.668
 3945POPC   C3B52269  22.355  27.231   7.087
 3945POPC   C4B52270  22.374  27.213   7.580
 3946POPC   NC352271  41.290  36.632   5.330
 3946POPC   PO452272  41.811  37.114   5.341
 3946POPC   GL152273  41.740  36.997   5.757
 3946POPC   GL252274  41.374  36.908   5.807
 3946POPC   C1A52275  41.661  37.100   6.203
 3946POPC   D2A52276  41.538  37.164   6.629
 3946POPC   C3A52277  41.772  37.095   7.018
 3946POPC   C4A52278  41.727  37.223   7.444
 3946POPC   C1B52279  41.270  36.668   6.211
 3946POPC   C2B52280  41.184  36.792   6.631
 3946POPC   C3B52281  41.243  37.038   7.026
 3946POPC   C4B52282  41.363  36.833   7.383
 3947POPC   NC352283  32.438  40.338   5.236
 3947POPC   PO452284  32.212  40.914   5.484
 3947POPC   GL152285  32.374  40.670   5.818
 3947POPC   GL252286  32.507  40.319   5.771
 3947POPC   C1A52287  32.361  40.861   6.224
 3947POPC   D2A52288  32.497  41.188   6.498
 3947POPC   C3A52289  32.509  41.024   6.914
 3947POPC   C4A52290  32.213  41.043   7.221
 3947POPC   C1B52291  32.487  40.362   6.239
 3947POPC   C2B52292  32.096  40.469   6.491
 3947POPC   C3B52293  31.999  40.597   6.912
 3947POPC   C4B52294  32.282  40.546   7.244
 3948POPC   NC352295  24.879   6.242   5.595
 3948POPC   PO452296  24.144   6.254   5.483
 3948POPC   GL152297  24.359   5.957   5.770
 3948POPC   GL252298  24.154   5.704   5.927
 3948POPC   C1A52299  24.626   5.724   6.094
 3948POPC   D2A52300  24.683   5.570   6.514
 3948POPC   C3A52301  24.828   5.752   6.918
 3948POPC   C4A52302  24.790   5.739   7.360
 3948POPC   C1B52303  24.158   5.740   6.374
 3948POPC   C2B52304  24.130   5.678   6.808
 3948POPC   C3B52305  24.357   5.873   7.115
 3948POPC   C4B52306  24.445   6.232   7.354
 3949POPC   NC352307  29.708  42.907   5.476
 3949POPC   PO452308  30.137  43.507   5.339
 3949POPC   GL152309  30.086  43.291   5.775
 3949POPC   GL252310  29.750  43.118   5.922
 3949POPC   C1A52311  30.091  43.300   6.234
 3949POPC   D2A52312  29.960  43.171   6.643
 3949POPC   C3A52313  30.133  43.319   7.004
 3949POPC   C4A52314  29.897  43.349   7.356
 3949POPC   C1B52315  29.803  42.858   6.284
 3949POPC   C2B52316  29.809  42.669   6.699
 3949POPC   C3B52317  29.720  42.933   7.057
 3949POPC   C4B52318  29.631  42.900   7.477
 3950POPC   NC352319  37.275  13.618   5.404
 3950POPC   PO452320  36.696  13.289   5.489
 3950POPC   GL152321  36.998  13.374   5.805
 3950POPC   GL252322  37.019  13.735   5.831
 3950POPC   C1A52323  37.038  13.480   6.256
 3950POPC   D2A52324  36.932  13.343   6.645
 3950POPC   C3A52325  36.948  13.495   7.074
 3950POPC   C4A52326  37.195  13.642   7.428
 3950POPC   C1B52327  36.746  13.954   6.146
 3950POPC   C2B52328  36.828  14.137   6.523
 3950POPC   C3B52329  36.818  13.987   6.908
 3950POPC   C4B52330  36.711  13.890   7.319
 3951POPC   NC352331  30.160  44.634   5.269
 3951POPC   PO452332  30.747  44.280   5.509
 3951POPC   GL152333  30.606  44.701   5.565
 3951POPC   GL252334  30.904  44.869   5.621
 3951POPC   C1A52335  30.492  44.720   5.990
 3951POPC   D2A52336  30.608  44.502   6.381
 3951POPC   C3A52337  30.514  44.722   6.769
 3951POPC   C4A52338  30.401  44.578   7.187
 3951POPC   C1B52339  30.949  44.864   6.088
 3951POPC   C2B52340  30.961  44.845   6.514
 3951POPC   C3B52341  31.125  44.762   6.880
 3951POPC   C4B52342  30.871  44.781   7.185
 3952POPC   NC352343  22.461  14.290   5.326
 3952POPC   PO452344  21.967  14.666   5.562
 3952POPC   GL152345  22.197  14.358   5.761
 3952POPC   GL252346  22.213  14.564   6.065
 3952POPC   C1A52347  22.235  14.054   6.073
 3952POPC   D2A52348  22.303  13.982   6.486
 3952POPC   C3A52349  22.143  14.309   6.767
 3952POPC   C4A52350  22.203  14.302   7.201
 3952POPC   C1B52351  21.832  14.772   6.219
 3952POPC   C2B52352  21.683  14.738   6.646
 3952POPC   C3B52353  21.916  14.734   7.061
 3952POPC   C4B52354  22.098  14.705   7.511
 3953POPC   NC352355  17.906  30.721   5.042
 3953POPC   PO452356  17.330  30.964   5.321
 3953POPC   GL152357  17.360  30.783   5.718
 3953POPC   GL252358  17.675  30.928   5.797
 3953POPC   C1A52359  17.224  30.851   6.148
 3953POPC   D2A52360  17.341  30.968   6.561
 3953POPC   C3A52361  17.205  30.770   6.968
 3953POPC   C4A52362  17.336  30.817   7.413
 3953POPC   C1B52363  17.865  30.809   6.154
 3953POPC   C2B52364  17.755  30.670   6.536
 3953POPC   C3B52365  17.706  30.860   6.917
 3953POPC   C4B52366  17.811  30.693   7.272
 3954POPC   NC352367  19.335  11.177   5.107
 3954POPC   PO452368  18.781  11.038   5.490
 3954POPC   GL152369  19.023  11.224   5.775
 3954POPC   GL252370  19.371  11.248   5.942
 3954POPC   C1A52371  18.932  11.296   6.170
 3954POPC   D2A52372  19.140  11.420   6.523
 3954POPC   C3A52373  19.072  11.191   6.895
 3954POPC   C4A52374  19.037  11.397   7.276
 3954POPC   C1B52375  19.401  11.007   6.348
 3954POPC   C2B52376  19.513  10.931   6.819
 3954POPC   C3B52377  19.520  11.158   7.228
 3954POPC   C4B52378  19.291  11.216   7.686
 3955POPC   NC352379  40.212  27.565   5.027
 3955POPC   PO452380  39.869  27.795   5.576
 3955POPC   GL152381  40.058  27.727   5.988
 3955POPC   GL252382  40.223  27.397   5.981
 3955POPC   C1A52383  39.980  27.608   6.441
 3955POPC   D2A52384  40.070  27.405   6.833
 3955POPC   C3A52385  40.065  27.720   7.146
 3955POPC   C4A52386  40.209  27.852   7.549
 3955POPC   C1B52387  39.806  27.257   6.130
 3955POPC   C2B52388  39.678  27.142   6.497
 3955POPC   C3B52389  39.700  27.058   6.885
 3955POPC   C4B52390  39.761  27.303   7.251
 3956POPC   NC352391  36.576  32.981   5.482
 3956POPC   PO452392  35.931  32.811   5.601
 3956POPC   GL152393  36.201  32.998   5.859
 3956POPC   GL252394  36.421  32.726   5.887
 3956POPC   C1A52395  36.058  33.122   6.264
 3956POPC   D2A52396  35.819  32.887   6.577
 3956POPC   C3A52397  35.978  32.802   6.992
 3956POPC   C4A52398  36.253  33.100   7.173
 3956POPC   C1B52399  36.357  32.717   6.315
 3956POPC   C2B52400  36.363  32.954   6.658
 3956POPC   C3B52401  36.643  32.880   6.938
 3956POPC   C4B52402  36.500  32.650   7.266
 3957POPC   NC352403  11.828  18.068   5.248
 3957POPC   PO452404  12.456  18.167   5.534
 3957POPC   GL152405  12.124  18.036   5.811
 3957POPC   GL252406  11.840  18.224   5.739
 3957POPC   C1A52407  11.942  18.081   6.224
 3957POPC   D2A52408  12.031  18.261   6.598
 3957POPC   C3A52409  12.175  18.017   6.895
 3957POPC   C4A52410  11.946  18.165   7.219
 3957POPC   C1B52411  11.899  18.561   6.034
 3957POPC   C2B52412  11.812  18.696   6.452
 3957POPC   C3B52413  11.696  18.751   6.904
 3957POPC   C4B52414  11.980  18.663   7.272
 3958POPC   NC352415  43.520  14.215   5.540
 3958POPC   PO452416  44.121  14.356   5.372
 3958POPC   GL152417  43.889  14.497   5.785
 3958POPC   GL252418  43.566  14.704   5.771
 3958POPC   C1A52419  43.747  14.242   6.187
 3958POPC   D2A52420  43.726  14.098   6.645
 3958POPC   C3A52421  44.003  14.211   7.037
 3958POPC   C4A52422  44.051  14.213   7.525
 3958POPC   C1B52423  43.768  14.736   6.221
 3958POPC   C2B52424  43.747  14.847   6.650
 3958POPC   C3B52425  43.856  14.740   7.055
 3958POPC   C4B52426  43.743  14.615   7.494
 3959POPC   NC352427  12.218  13.600   5.360
 3959POPC   PO452428  11.681  13.983   5.542
 3959POPC   GL152429  11.997  13.775   5.808
 3959POPC   GL252430  11.824  13.984   6.034
 3959POPC   C1A52431  12.112  13.452   6.121
 3959POPC   D2A52432  12.127  13.171   6.473
 3959POPC   C3A52433  12.152  13.358   6.910
 3959POPC   C4A52434  12.334  13.401   7.316
 3959POPC   C1B52435  11.983  13.857   6.400
 3959POPC   C2B52436  11.769  13.538   6.612
 3959POPC   C3B52437  11.720  13.711   6.989
 3959POPC   C4B52438  12.126  13.862   7.167
 3960POPC   NC352439  32.844  19.468   5.483
 3960POPC   PO452440  33.120  20.086   5.488
 3960POPC   GL152441  32.971  19.861   5.844
 3960POPC   GL252442  33.147  19.561   5.909
 3960POPC   C1A52443  32.756  19.801   6.261
 3960POPC   D2A52444  32.510  19.618   6.567
 3960POPC   C3A52445  32.422  19.919   6.867
 3960POPC   C4A52446  32.733  19.817   7.117
 3960POPC   C1B52447  33.266  19.833   6.270
 3960POPC   C2B52448  33.089  19.926   6.697
 3960POPC   C3B52449  33.223  19.706   7.079
 3960POPC   C4B52450  33.398  19.800   7.524
 3961POPC   NC352451  24.119  33.604   5.432
 3961POPC   PO452452  23.431  33.600   5.240
 3961POPC   GL152453  23.536  33.610   5.701
 3961POPC   GL252454  23.823  33.792   5.854
 3961POPC   C1A52455  23.470  33.440   6.131
 3961POPC   D2A52456  23.615  33.618   6.514
 3961POPC   C3A52457  23.588  33.483   6.932
 3961POPC   C4A52458  23.693  33.733   7.274
 3961POPC   C1B52459  23.769  34.052   6.254
 3961POPC   C2B52460  23.909  34.216   6.695
 3961POPC   C3B52461  24.061  34.087   7.148
 3961POPC   C4B52462  23.854  34.087   7.605
 3962POPC   NC352463  19.278   2.683   5.483
 3962POPC   PO452464  18.665   3.111   5.538
 3962POPC   GL152465  18.963   2.950   5.847
 3962POPC   GL252466  18.900   2.597   5.900
 3962POPC   C1A52467  19.215   2.855   6.229
 3962POPC   D2A52468  19.119   2.611   6.590
 3962POPC   C3A52469  19.231   2.838   6.949
 3962POPC   C4A52470  19.096   3.175   7.191
 3962POPC   C1B52471  18.711   2.787   6.282
 3962POPC   C2B52472  18.746   2.977   6.699
 3962POPC   C3B52473  18.724   2.794   7.092
 3962POPC   C4B52474  18.994   2.507   7.295
 3963POPC   NC352475  40.471  29.093   5.402
 3963POPC   PO452476  39.855  28.759   5.310
 3963POPC   GL152477  39.942  28.937   5.713
 3963POPC   GL252478  40.026  29.250   5.615
 3963POPC   C1A52479  40.185  28.818   6.106
 3963POPC   D2A52480  40.253  29.002   6.525
 3963POPC   C3A52481  39.912  29.014   6.796
 3963POPC   C4A52482  39.883  29.019   7.193
 3963POPC   C1B52483  40.083  29.322   6.062
 3963POPC   C2B52484  39.922  29.402   6.460
 3963POPC   C3B52485  40.077  29.510   6.869
 3963POPC   C4B52486  39.886  29.514   7.260
 3964POPC   NC352487   5.228  18.983   5.342
 3964POPC   PO452488   4.546  18.941   5.431
 3964POPC   GL152489   4.874  19.133   5.701
 3964POPC   GL252490   5.043  18.845   5.789
 3964POPC   C1A52491   5.009  19.236   6.124
 3964POPC   D2A52492   5.148  19.015   6.537
 3964POPC   C3A52493   5.135  19.191   6.948
 3964POPC   C4A52494   4.779  19.374   7.185
 3964POPC   C1B52495   4.961  18.688   6.190
 3964POPC   C2B52496   4.785  18.584   6.585
 3964POPC   C3B52497   4.965  18.697   6.980
 3964POPC   C4B52498   4.914  18.890   7.342
 3965POPC   NC352499  18.026   9.845   5.370
 3965POPC   PO452500  18.704   9.870   5.288
 3965POPC   GL152501  18.428   9.943   5.706
 3965POPC   GL252502  18.075   9.886   5.865
 3965POPC   C1A52503  18.458   9.950   6.192
 3965POPC   D2A52504  18.572   9.937   6.659
 3965POPC   C3A52505  18.425   9.951   7.105
 3965POPC   C4A52506  18.368   9.598   7.379
 3965POPC   C1B52507  18.286   9.494   6.046
 3965POPC   C2B52508  18.480   9.476   6.449
 3965POPC   C3B52509  18.279   9.522   6.865
 3965POPC   C4B52510  17.914   9.787   7.037
 3966POPC   NC352511  41.344  24.736   5.520
 3966POPC   PO452512  41.727  24.270   5.165
 3966POPC   GL152513  41.730  24.312   5.631
 3966POPC   GL252514  41.744  24.626   5.823
 3966POPC   C1A52515  41.628  24.157   6.062
 3966POPC   D2A52516  41.833  24.310   6.476
 3966POPC   C3A52517  41.697  24.227   6.898
 3966POPC   C4A52518  41.497  24.322   7.299
 3966POPC   C1B52519  41.511  24.634   6.222
 3966POPC   C2B52520  41.594  24.743   6.667
 3966POPC   C3B52521  41.683  24.761   7.112
 3966POPC   C4B52522  41.340  24.794   7.423
 3967POPC   NC352523   2.528  15.868   5.514
 3967POPC   PO452524   3.090  16.236   5.504
 3967POPC   GL152525   2.890  16.012   5.855
 3967POPC   GL252526   2.535  16.179   5.909
 3967POPC   C1A52527   3.047  15.814   6.256
 3967POPC   D2A52528   3.199  15.872   6.686
 3967POPC   C3A52529   3.050  15.680   7.060
 3967POPC   C4A52530   2.947  15.844   7.480
 3967POPC   C1B52531   2.538  15.882   6.277
 3967POPC   C2B52532   2.620  15.704   6.724
 3967POPC   C3B52533   2.548  15.804   7.164
 3967POPC   C4B52534   2.476  15.665   7.631
 3968POPC   NC352535   6.856  35.290   5.426
 3968POPC   PO452536   6.227  35.036   5.587
 3968POPC   GL152537   6.520  35.370   5.830
 3968POPC   GL252538   6.816  35.611   5.851
 3968POPC   C1A52539   6.416  35.635   6.179
 3968POPC   D2A52540   6.160  35.512   6.522
 3968POPC   C3A52541   6.332  35.603   6.938
 3968POPC   C4A52542   6.477  35.246   7.208
 3968POPC   C1B52543   6.915  35.497   6.264
 3968POPC   C2B52544   6.712  35.430   6.651
 3968POPC   C3B52545   6.837  35.574   7.062
 3968POPC   C4B52546   6.842  35.472   7.508
 3969POPC   NC352547  23.120   0.798   5.680
 3969POPC   PO452548  22.736   1.382   5.497
 3969POPC   GL152549  22.810   1.171   5.849
 3969POPC   GL252550  22.502   1.036   5.871
 3969POPC   C1A52551  22.926   1.025   6.274
 3969POPC   D2A52552  23.157   1.156   6.624
 3969POPC   C3A52553  23.019   1.119   7.027
 3969POPC   C4A52554  23.163   1.286   7.450
 3969POPC   C1B52555  22.548   1.367   6.226
 3969POPC   C2B52556  22.667   1.325   6.647
 3969POPC   C3B52557  22.544   1.374   7.050
 3969POPC   C4B52558  22.680   1.150   7.396
 3970POPC   NC352559   6.711  43.068   5.408
 3970POPC   PO452560   6.500  43.704   5.328
 3970POPC   GL152561   6.688  43.401   5.758
 3970POPC   GL252562   6.892  43.081   5.877
 3970POPC   C1A52563   6.577  43.262   6.219
 3970POPC   D2A52564   6.804  43.256   6.631
 3970POPC   C3A52565   6.540  43.157   6.982
 3970POPC   C4A52566   6.237  42.812   7.106
 3970POPC   C1B52567   6.876  42.853   6.327
 3970POPC   C2B52568   6.666  42.701   6.744
 3970POPC   C3B52569   6.782  42.748   7.199
 3970POPC   C4B52570   6.951  42.810   7.648
 3971POPC   NC352571  28.386  14.048   5.492
 3971POPC   PO452572  28.152  13.407   5.177
 3971POPC   GL152573  28.288  13.435   5.607
 3971POPC   GL252574  28.587  13.526   5.689
 3971POPC   C1A52575  28.306  13.429   6.081
 3971POPC   D2A52576  28.423  13.329   6.504
 3971POPC   C3A52577  28.308  13.650   6.789
 3971POPC   C4A52578  28.252  13.768   7.202
 3971POPC   C1B52579  28.619  13.826   6.073
 3971POPC   C2B52580  28.753  13.798   6.518
 3971POPC   C3B52581  28.742  13.892   6.955
 3971POPC   C4B52582  28.592  14.155   7.235
 3972POPC   NC352583  44.980  15.507   5.450
 3972POPC   PO452584  44.582  16.012   5.235
 3972POPC   GL152585  44.545  16.024   5.679
 3972POPC   GL252586  44.532  15.654   5.646
 3972POPC   C1A52587  44.734  16.052   6.125
 3972POPC   D2A52588  44.703  16.212   6.535
 3972POPC   C3A52589  44.888  15.989   6.865
 3972POPC   C4A52590  44.667  16.097   7.185
 3972POPC   C1B52591  44.660  15.566   6.037
 3972POPC   C2B52592  44.693  15.665   6.494
 3972POPC   C3B52593  44.447  15.675   6.893
 3972POPC   C4B52594  44.513  15.614   7.330
 3973POPC   NC352595  33.495  32.415   5.432
 3973POPC   PO452596  33.962  32.008   5.371
 3973POPC   GL152597  33.909  32.208   5.808
 3973POPC   GL252598  33.691  32.491   5.888
 3973POPC   C1A52599  33.676  32.121   6.222
 3973POPC   D2A52600  33.493  32.035   6.621
 3973POPC   C3A52601  33.824  31.966   6.919
 3973POPC   C4A52602  33.761  31.920   7.343
 3973POPC   C1B52603  34.012  32.587   6.173
 3973POPC   C2B52604  34.178  32.667   6.598
 3973POPC   C3B52605  34.028  32.449   6.965
 3973POPC   C4B52606  33.599  32.364   7.121
 3974POPC   NC352607  41.450  26.448   5.360
 3974POPC   PO452608  41.493  25.879   5.264
 3974POPC   GL152609  41.537  26.049   5.712
 3974POPC   GL252610  41.887  26.094   5.824
 3974POPC   C1A52611  41.534  26.166   6.173
 3974POPC   D2A52612  41.570  26.401   6.543
 3974POPC   C3A52613  41.472  26.189   6.923
 3974POPC   C4A52614  41.179  26.325   7.193
 3974POPC   C1B52615  42.006  25.948   6.269
 3974POPC   C2B52616  41.942  26.081   6.718
 3974POPC   C3B52617  41.886  26.004   7.216
 3974POPC   C4B52618  41.891  25.937   7.684
 3975POPC   NC352619  18.671  29.349   5.404
 3975POPC   PO452620  18.115  28.886   5.415
 3975POPC   GL152621  18.119  29.074   5.826
 3975POPC   GL252622  18.464  29.170   5.863
 3975POPC   C1A52623  18.119  28.882   6.241
 3975POPC   D2A52624  18.240  28.684   6.627
 3975POPC   C3A52625  18.227  28.993   6.955
 3975POPC   C4A52626  18.058  28.906   7.355
 3975POPC   C1B52627  18.685  29.484   6.126
 3975POPC   C2B52628  18.827  29.437   6.561
 3975POPC   C3B52629  18.615  29.354   6.953
 3975POPC   C4B52630  18.585  29.566   7.346
 3976POPC   NC352631   8.391   9.928   5.470
 3976POPC   PO452632   7.731  10.061   5.495
 3976POPC   GL152633   7.775   9.782   5.832
 3976POPC   GL252634   8.034   9.559   5.725
 3976POPC   C1A52635   7.854   9.865   6.269
 3976POPC   D2A52636   8.290   9.921   6.374
 3976POPC   C3A52637   8.363   9.954   6.837
 3976POPC   C4A52638   8.315  10.002   7.290
 3976POPC   C1B52639   8.104   9.432   6.154
 3976POPC   C2B52640   8.278   9.456   6.580
 3976POPC   C3B52641   8.129   9.528   7.016
 3976POPC   C4B52642   8.507   9.531   7.231
 3977POPC   NC352643   0.228  40.031   5.481
 3977POPC   PO452644   0.866  39.757   5.433
 3977POPC   GL152645   0.600  39.888   5.779
 3977POPC   GL252646   0.312  39.661   5.817
 3977POPC   C1A52647   0.399  40.114   6.137
 3977POPC   D2A52648   0.595  40.051   6.552
 3977POPC   C3A52649   0.284  40.030   6.858
 3977POPC   C4A52650   0.118  39.894   7.209
 3977POPC   C1B52651   0.565  39.640   6.216
 3977POPC   C2B52652   0.433  39.549   6.630
 3977POPC   C3B52653   0.498  39.576   7.093
 3977POPC   C4B52654   0.373  39.584   7.560
 3978POPC   NC352655  17.745   9.124   5.438
 3978POPC   PO452656  17.171   9.405   5.385
 3978POPC   GL152657  17.341   9.227   5.800
 3978POPC   GL252658  17.457   8.854   5.793
 3978POPC   C1A52659  17.334   9.112   6.269
 3978POPC   D2A52660  17.306   9.146   6.754
 3978POPC   C3A52661  17.359   8.792   7.022
 3978POPC   C4A52662  17.322   8.915   7.426
 3978POPC   C1B52663  17.651   8.713   6.189
 3978POPC   C2B52664  17.696   8.840   6.617
 3978POPC   C3B52665  17.830   8.629   6.998
 3978POPC   C4B52666  17.813   8.786   7.434
 3979POPC   NC352667  40.597   4.865   5.375
 3979POPC   PO452668  41.147   5.201   5.489
 3979POPC   GL152669  40.898   4.958   5.795
 3979POPC   GL252670  40.536   5.132   5.815
 3979POPC   C1A52671  40.716   4.829   6.194
 3979POPC   D2A52672  40.574   5.124   6.539
 3979POPC   C3A52673  40.819   5.055   6.908
 3979POPC   C4A52674  40.738   4.871   7.307
 3979POPC   C1B52675  40.794   5.365   6.118
 3979POPC   C2B52676  40.902   5.535   6.526
 3979POPC   C3B52677  40.690   5.552   6.902
 3979POPC   C4B52678  40.692   5.367   7.298
 3980POPC   NC352679  28.802  33.053   5.590
 3980POPC   PO452680  29.391  32.786   5.572
 3980POPC   GL152681  29.143  32.771   5.946
 3980POPC   GL252682  28.788  32.645   5.873
 3980POPC   C1A52683  29.238  33.034   6.334
 3980POPC   D2A52684  29.076  33.218   6.725
 3980POPC   C3A52685  29.179  33.192   7.176
 3980POPC   C4A52686  28.972  33.415   7.516
 3980POPC   C1B52687  28.752  32.888   6.255
 3980POPC   C2B52688  28.892  32.726   6.624
 3980POPC   C3B52689  28.855  32.838   7.019
 3980POPC   C4B52690  28.666  33.135   7.226
 3981POPC   NC352691  18.459  31.794   5.312
 3981POPC   PO452692  18.120  31.161   5.262
 3981POPC   GL152693  18.246  31.444   5.666
 3981POPC   GL252694  18.531  31.729   5.803
 3981POPC   C1A52695  18.395  31.344   6.095
 3981POPC   D2A52696  18.381  31.557   6.471
 3981POPC   C3A52697  18.350  31.385   6.869
 3981POPC   C4A52698  18.437  31.545   7.252
 3981POPC   C1B52699  18.148  31.817   6.074
 3981POPC   C2B52700  17.949  31.807   6.505
 3981POPC   C3B52701  18.065  31.812   6.953
 3981POPC   C4B52702  17.944  31.636   7.367
 3982POPC   NC352703  15.734   0.122   5.435
 3982POPC   PO452704  15.857   0.755   5.394
 3982POPC   GL152705  15.990   0.446   5.758
 3982POPC   GL252706  16.291   0.210   5.813
 3982POPC   C1A52707  15.948   0.343   6.211
 3982POPC   D2A52708  16.110   0.511   6.635
 3982POPC   C3A52709  15.822   0.395   6.977
 3982POPC   C4A52710  15.425   0.435   7.228
 3982POPC   C1B52711  16.443   0.266   6.282
 3982POPC   C2B52712  16.392   0.060   6.709
 3982POPC   C3B52713  16.292   0.214   7.109
 3982POPC   C4B52714  16.162   0.584   7.342
 3983POPC   NC352715  24.225  31.870   5.277
 3983POPC   PO452716  24.918  31.509   5.348
 3983POPC   GL152717  24.670  31.566   5.733
 3983POPC   GL252718  24.471  31.283   5.741
 3983POPC   C1A52719  24.437  31.574   6.161
 3983POPC   D2A52720  24.380  31.792   6.561
 3983POPC   C3A52721  24.467  31.580   6.955
 3983POPC   C4A52722  24.163  31.367   7.168
 3983POPC   C1B52723  24.275  31.082   6.090
 3983POPC   C2B52724  24.460  31.137   6.469
 3983POPC   C3B52725  24.432  31.063   6.880
 3983POPC   C4B52726  24.629  31.143   7.304
 3984POPC   NC352727  23.881  39.772   5.532
 3984POPC   PO452728  23.731  39.278   5.145
 3984POPC   GL152729  23.726  39.289   5.657
 3984POPC   GL252730  23.406  39.243   5.856
 3984POPC   C1A52731  23.783  39.462   6.122
 3984POPC   D2A52732  23.897  39.313   6.543
 3984POPC   C3A52733  23.715  39.420   6.945
 3984POPC   C4A52734  23.888  39.414   7.370
 3984POPC   C1B52735  23.544  39.018   6.261
 3984POPC   C2B52736  23.565  38.938   6.732
 3984POPC   C3B52737  23.456  38.914   7.182
 3984POPC   C4B52738  23.348  38.823   7.624
 3985POPC   NC352739  43.123  35.034   5.479
 3985POPC   PO452740  43.445  34.429   5.468
 3985POPC   GL152741  43.172  34.587   5.775
 3985POPC   GL252742  42.958  34.292   5.823
 3985POPC   C1A52743  43.253  34.836   6.155
 3985POPC   D2A52744  43.219  34.760   6.596
 3985POPC   C3A52745  42.879  34.592   6.817
 3985POPC   C4A52746  42.790  34.614   7.280
 3985POPC   C1B52747  43.260  34.316   6.208
 3985POPC   C2B52748  43.233  34.230   6.655
 3985POPC   C3B52749  43.174  34.317   7.107
 3985POPC   C4B52750  43.216  34.077   7.463
 3986POPC   NC352751   1.049  24.723   5.321
 3986POPC   PO452752   1.426  24.611   5.858
 3986POPC   GL152753   1.124  24.527   6.085
 3986POPC   GL252754   0.867  24.465   5.790
 3986POPC   C1A52755   1.233  24.611   6.530
 3986POPC   D2A52756   1.544  24.717   6.854
 3986POPC   C3A52757   1.442  24.503   7.257
 3986POPC   C4A52758   1.336  24.580   7.703
 3986POPC   C1B52759   0.688  24.316   6.204
 3986POPC   C2B52760   0.871  24.233   6.614
 3986POPC   C3B52761   0.991  24.479   6.984
 3986POPC   C4B52762   0.968  24.383   7.412
 3987POPC   NC352763  20.428  27.618   5.405
 3987POPC   PO452764  20.946  27.291   5.145
 3987POPC   GL152765  20.927  27.482   5.638
 3987POPC   GL252766  20.731  27.774   5.801
 3987POPC   C1A52767  20.782  27.404   6.123
 3987POPC   D2A52768  20.605  27.350   6.545
 3987POPC   C3A52769  20.805  27.408   6.947
 3987POPC   C4A52770  20.930  27.629   7.327
 3987POPC   C1B52771  20.622  27.912   6.235
 3987POPC   C2B52772  20.644  27.872   6.686
 3987POPC   C3B52773  20.397  27.959   7.024
 3987POPC   C4B52774  20.470  27.902   7.443
 3988POPC   NC352775  32.941  12.968   5.433
 3988POPC   PO452776  33.239  12.293   5.457
 3988POPC   GL152777  33.366  12.583   5.820
 3988POPC   GL252778  33.199  12.925   5.891
 3988POPC   C1A52779  33.262  12.572   6.290
 3988POPC   D2A52780  33.015  12.571   6.708
 3988POPC   C3A52781  33.089  12.876   7.079
 3988POPC   C4A52782  33.187  12.809   7.534
 3988POPC   C1B52783  32.897  12.970   6.243
 3988POPC   C2B52784  32.767  13.088   6.669
 3988POPC   C3B52785  32.556  13.213   7.052
 3988POPC   C4B52786  32.819  13.164   7.444
 3989POPC   NC352787  41.833  42.120   5.123
 3989POPC   PO452788  42.386  42.167   5.614
 3989POPC   GL152789  42.136  42.410   5.900
 3989POPC   GL252790  42.207  42.726   5.743
 3989POPC   C1A52791  42.208  42.371   6.357
 3989POPC   D2A52792  42.580  42.244   6.629
 3989POPC   C3A52793  42.419  42.136   7.035
 3989POPC   C4A52794  42.105  42.204   7.331
 3989POPC   C1B52795  42.506  42.727   6.100
 3989POPC   C2B52796  42.577  42.787   6.523
 3989POPC   C3B52797  42.416  42.655   6.929
 3989POPC   C4B52798  42.528  42.551   7.355
 3990POPC   NC352799  28.445  30.484   5.064
 3990POPC   PO452800  28.158  30.920   5.422
 3990POPC   GL152801  28.338  30.619   5.736
 3990POPC   GL252802  28.702  30.625   5.839
 3990POPC   C1A52803  28.218  30.398   6.120
 3990POPC   D2A52804  28.142  30.624   6.485
 3990POPC   C3A52805  28.458  30.684   6.803
 3990POPC   C4A52806  28.513  30.416   7.161
 3990POPC   C1B52807  28.598  30.719   6.241
 3990POPC   C2B52808  28.591  31.076   6.473
 3990POPC   C3B52809  28.685  31.160   6.892
 3990POPC   C4B52810  28.608  30.923   7.252
 3991POPC   NC352811  33.041   0.032   5.359
 3991POPC   PO452812  32.527  44.584   5.382
 3991POPC   GL152813  32.857  44.625   5.751
 3991POPC   GL252814  33.066  44.910   5.849
 3991POPC   C1A52815  33.152  44.454   6.074
 3991POPC   D2A52816  33.220  44.544   6.512
 3991POPC   C3A52817  33.141  44.334   6.921
 3991POPC   C4A52818  33.059  44.505   7.338
 3991POPC   C1B52819  33.354  44.940   6.202
 3991POPC   C2B52820  33.428   0.018   6.665
 3991POPC   C3B52821  33.312  44.943   7.123
 3991POPC   C4B52822  33.408  44.826   7.616
 3992POPC   NC352823  30.852  38.330   5.146
 3992POPC   PO452824  30.215  38.511   5.269
 3992POPC   GL152825  30.526  38.629   5.675
 3992POPC   GL252826  30.862  38.423   5.699
 3992POPC   C1A52827  30.723  38.734   6.107
 3992POPC   D2A52828  30.679  38.396   6.415
 3992POPC   C3A52829  30.673  38.460   6.845
 3992POPC   C4A52830  30.536  38.239   7.206
 3992POPC   C1B52831  31.105  38.378   6.111
 3992POPC   C2B52832  31.174  38.383   6.571
 3992POPC   C3B52833  31.246  38.445   7.023
 3992POPC   C4B52834  30.924  38.579   7.290
 3993POPC   NC352835  28.606  35.020   5.399
 3993POPC   PO452836  28.281  34.414   5.440
 3993POPC   GL152837  28.336  34.750   5.758
 3993POPC   GL252838  28.704  34.725   5.839
 3993POPC   C1A52839  28.315  34.780   6.222
 3993POPC   D2A52840  28.268  34.622   6.641
 3993POPC   C3A52841  28.285  34.891   7.011
 3993POPC   C4A52842  28.427  34.712   7.464
 3993POPC   C1B52843  28.761  34.371   6.172
 3993POPC   C2B52844  28.624  34.175   6.598
 3993POPC   C3B52845  28.725  34.159   7.048
 3993POPC   C4B52846  28.571  34.217   7.482
 3994POPC   NC352847  33.484   9.416   5.515
 3994POPC   PO452848  33.939   9.931   5.389
 3994POPC   GL152849  33.732   9.905   5.765
 3994POPC   GL252850  33.888   9.590   5.810
 3994POPC   C1A52851  33.802   9.950   6.211
 3994POPC   D2A52852  33.839   9.674   6.575
 3994POPC   C3A52853  33.747   9.887   6.942
 3994POPC   C4A52854  33.881   9.989   7.328
 3994POPC   C1B52855  33.626   9.467   6.150
 3994POPC   C2B52856  33.490   9.289   6.530
 3994POPC   C3B52857  33.738   9.266   6.907
 3994POPC   C4B52858  33.668   9.497   7.259
 3995POPC   NC352859  28.433   5.232   5.301
 3995POPC   PO452860  28.890   4.661   5.403
 3995POPC   GL152861  28.515   4.834   5.649
 3995POPC   GL252862  28.259   4.579   5.643
 3995POPC   C1A52863  28.499   5.084   6.055
 3995POPC   D2A52864  28.547   5.273   6.480
 3995POPC   C3A52865  28.280   5.182   6.817
 3995POPC   C4A52866  28.366   5.181   7.224
 3995POPC   C1B52867  28.349   4.581   6.103
 3995POPC   C2B52868  28.396   4.785   6.498
 3995POPC   C3B52869  28.456   4.734   6.941
 3995POPC   C4B52870  28.479   4.711   7.357
 3996POPC   NC352871  24.861  12.410   5.332
 3996POPC   PO452872  24.318  12.019   5.158
 3996POPC   GL152873  24.288  12.104   5.656
 3996POPC   GL252874  24.124  12.411   5.783
 3996POPC   C1A52875  24.426  12.153   6.127
 3996POPC   D2A52876  24.548  12.317   6.548
 3996POPC   C3A52877  24.451  12.099   6.951
 3996POPC   C4A52878  24.607  12.061   7.388
 3996POPC   C1B52879  23.904  12.549   6.153
 3996POPC   C2B52880  23.932  12.715   6.585
 3996POPC   C3B52881  24.237  12.602   6.897
 3996POPC   C4B52882  24.252  12.412   7.320
 3997POPC   NC352883  18.477  14.053   5.452
 3997POPC   PO452884  17.915  13.652   5.504
 3997POPC   GL152885  18.172  13.824   5.827
 3997POPC   GL252886  18.544  13.726   5.828
 3997POPC   C1A52887  18.208  13.678   6.237
 3997POPC   D2A52888  18.320  13.458   6.612
 3997POPC   C3A52889  18.110  13.629   6.981
 3997POPC   C4A52890  17.949  13.467   7.327
 3997POPC   C1B52891  18.704  13.552   6.205
 3997POPC   C2B52892  18.754  13.766   6.567
 3997POPC   C3B52893  18.610  13.701   6.970
 3997POPC   C4B52894  18.834  13.767   7.314
 3998POPC   NC352895  44.303   2.805   5.563
 3998POPC   PO452896  43.785   3.151   5.237
 3998POPC   GL152897  43.743   2.964   5.737
 3998POPC   GL252898  43.889   2.622   5.826
 3998POPC   C1A52899  43.798   2.960   6.225
 3998POPC   D2A52900  43.688   2.777   6.663
 3998POPC   C3A52901  43.801   3.014   7.035
 3998POPC   C4A52902  44.008   3.206   7.378
 3998POPC   C1B52903  44.152   2.590   6.228
 3998POPC   C2B52904  44.053   2.439   6.671
 3998POPC   C3B52905  43.884   2.518   7.118
 3998POPC   C4B52906  44.058   2.696   7.523
 3999POPC   NC352907  16.067  25.737   5.227
 3999POPC   PO452908  16.456  26.275   5.189
 3999POPC   GL152909  16.260  25.981   5.638
 3999POPC   GL252910  15.931  26.167   5.850
 3999POPC   C1A52911  16.274  25.990   6.154
 3999POPC   D2A52912  16.093  26.269   6.499
 3999POPC   C3A52913  16.057  26.051   6.898
 3999POPC   C4A52914  16.074  26.089   7.339
 3999POPC   C1B52915  15.647  26.082   6.279
 3999POPC   C2B52916  15.559  26.008   6.765
 3999POPC   C3B52917  15.478  25.969   7.234
 3999POPC   C4B52918  15.664  26.140   7.640
 4000POPC   NC352919  27.703   3.964   5.238
 4000POPC   PO452920  27.207   3.758   5.673
 4000POPC   GL152921  27.346   3.640   6.066
 4000POPC   GL252922  27.440   3.329   5.824
 4000POPC   C1A52923  27.609   3.853   6.409
 4000POPC   D2A52924  28.013   3.852   6.673
 4000POPC   C3A52925  27.873   3.617   7.019
 4000POPC   C4A52926  27.443   3.679   7.182
 4000POPC   C1B52927  27.398   3.168   6.228
 4000POPC   C2B52928  27.611   3.321   6.596
 4000POPC   C3B52929  27.573   3.211   7.030
 4000POPC   C4B52930  27.422   3.229   7.455
 4001POPC   NC352931  29.741  37.094   5.226
 4001POPC   PO452932  30.177  36.574   5.288
 4001POPC   GL152933  29.937  36.620   5.682
 4001POPC   GL252934  29.849  36.971   5.736
 4001POPC   C1A52935  30.020  36.660   6.138
 4001POPC   D2A52936  29.820  36.677   6.541
 4001POPC   C3A52937  30.016  36.639   6.919
 4001POPC   C4A52938  30.105  36.635   7.347
 4001POPC   C1B52939  29.868  37.174   6.160
 4001POPC   C2B52940  29.777  37.326   6.578
 4001POPC   C3B52941  29.858  37.147   6.972
 4001POPC   C4B52942  30.062  37.174   7.365
 4002POPC   NC352943  20.492  16.316   5.496
 4002POPC   PO452944  20.869  15.832   5.206
 4002POPC   GL152945  20.616  15.872   5.714
 4002POPC   GL252946  20.430  16.139   5.952
 4002POPC   C1A52947  20.750  15.846   6.195
 4002POPC   D2A52948  20.561  16.108   6.552
 4002POPC   C3A52949  20.707  15.969   6.975
 4002POPC   C4A52950  20.604  16.095   7.394
 4002POPC   C1B52951  20.240  15.836   6.234
 4002POPC   C2B52952  20.062  15.956   6.636
 4002POPC   C3B52953  20.196  16.225   6.981
 4002POPC   C4B52954  20.101  16.040   7.372
 4003POPC   NC352955  23.181   5.213   5.480
 4003POPC   PO452956  23.849   5.300   5.432
 4003POPC   GL152957  23.710   5.471   5.826
 4003POPC   GL252958  23.337   5.536   5.839
 4003POPC   C1A52959  23.927   5.319   6.211
 4003POPC   D2A52960  24.253   5.265   6.534
 4003POPC   C3A52961  24.098   5.144   6.953
 4003POPC   C4A52962  23.773   5.055   7.228
 4003POPC   C1B52963  23.430   5.425   6.284
 4003POPC   C2B52964  23.700   5.336   6.677
 4003POPC   C3B52965  23.709   5.542   7.080
 4003POPC   C4B52966  23.605   5.387   7.555
 4004POPC   NC352967  35.843  39.576   5.610
 4004POPC   PO452968  36.380  39.953   5.340
 4004POPC   GL152969  36.185  40.219   5.676
 4004POPC   GL252970  35.819  40.121   5.697
 4004POPC   C1A52971  36.222  40.231   6.153
 4004POPC   D2A52972  36.124  40.248   6.637
 4004POPC   C3A52973  36.045  39.939   6.978
 4004POPC   C4A52974  36.286  39.810   7.352
 4004POPC   C1B52975  35.691  40.188   6.141
 4004POPC   C2B52976  35.542  40.289   6.588
 4004POPC   C3B52977  35.618  40.280   7.053
 4004POPC   C4B52978  35.935  40.181   7.425
 4005POPC   NC352979  23.523  33.146   5.231
 4005POPC   PO452980  24.209  33.143   5.428
 4005POPC   GL152981  23.893  33.048   5.768
 4005POPC   GL252982  23.527  33.085   5.743
 4005POPC   C1A52983  23.928  33.108   6.235
 4005POPC   D2A52984  23.976  33.282   6.676
 4005POPC   C3A52985  23.999  33.063   7.076
 4005POPC   C4A52986  23.726  33.236   7.364
 4005POPC   C1B52987  23.473  32.896   6.155
 4005POPC   C2B52988  23.497  33.079   6.558
 4005POPC   C3B52989  23.502  32.959   6.987
 4005POPC   C4B52990  23.400  32.880   7.437
 4006POPC   NC352991  18.935  16.868   5.625
 4006POPC   PO452992  19.376  16.389   5.392
 4006POPC   GL152993  19.331  16.582   5.813
 4006POPC   GL252994  19.413  16.965   5.843
 4006POPC   C1A52995  19.171  16.441   6.242
 4006POPC   D2A52996  19.231  16.470   6.702
 4006POPC   C3A52997  18.948  16.585   7.048
 4006POPC   C4A52998  19.268  16.707   7.318
 4006POPC   C1B52999  19.105  16.934   6.215
 4006POPC   C2B53000  18.956  16.871   6.599
 4006POPC   C3B53001  18.891  17.083   6.949
 4006POPC   C4B53002  18.828  17.023   7.323
 4007POPC   NC353003  38.367   4.748   5.325
 4007POPC   PO453004  38.648   5.381   5.172
 4007POPC   GL153005  38.572   5.271   5.642
 4007POPC   GL253006  38.557   4.923   5.794
 4007POPC   C1A53007  38.590   5.346   6.114
 4007POPC   D2A53008  38.487   5.497   6.526
 4007POPC   C3A53009  38.558   5.319   6.912
 4007POPC   C4A53010  38.358   5.281   7.295
 4007POPC   C1B53011  38.162   5.056   6.066
 4007POPC   C2B53012  37.965   5.044   6.489
 4007POPC   C3B53013  38.024   5.113   6.929
 4007POPC   C4B53014  37.900   5.075   7.373
 4008POPC   NC353015  14.777   6.912   5.588
 4008POPC   PO453016  14.261   6.532   5.292
 4008POPC   GL153017  14.269   6.839   5.658
 4008POPC   GL253018  14.453   6.614   5.842
 4008POPC   C1A53019  14.142   6.889   6.133
 4008POPC   D2A53020  14.256   6.761   6.582
 4008POPC   C3A53021  14.524   6.991   6.858
 4008POPC   C4A53022  14.408   7.086   7.269
 4008POPC   C1B53023  14.614   6.643   6.251
 4008POPC   C2B53024  14.778   6.579   6.682
 4008POPC   C3B53025  14.543   6.556   7.096
 4008POPC   C4B53026  14.474   6.384   7.492
 4009POPC   NC353027   4.179  37.973   5.489
 4009POPC   PO453028   4.248  38.624   5.351
 4009POPC   GL153029   4.357  38.416   5.737
 4009POPC   GL253030   4.525  38.722   5.787
 4009POPC   C1A53031   4.192  38.251   6.141
 4009POPC   D2A53032   4.015  38.454   6.528
 4009POPC   C3A53033   4.163  38.307   6.931
 4009POPC   C4A53034   4.471  38.176   7.223
 4009POPC   C1B53035   4.376  38.728   6.229
 4009POPC   C2B53036   4.374  38.865   6.676
 4009POPC   C3B53037   4.502  38.664   7.072
 4009POPC   C4B53038   4.528  38.554   7.557
 4010POPC   NC353039  20.700  21.371   5.468
 4010POPC   PO453040  20.166  21.695   5.419
 4010POPC   GL153041  20.288  21.409   5.803
 4010POPC   GL253042  20.599  21.525   5.956
 4010POPC   C1A53043  20.351  21.243   6.258
 4010POPC   D2A53044  20.598  21.479   6.571
 4010POPC   C3A53045  20.456  21.474   6.955
 4010POPC   C4A53046  20.662  21.157   7.177
 4010POPC   C1B53047  20.959  21.578   6.235
 4010POPC   C2B53048  21.159  21.562   6.674
 4010POPC   C3B53049  21.119  21.419   7.128
 4010POPC   C4B53050  21.231  21.508   7.560
 4011POPC   NC353051   1.637   0.113   5.130
 4011POPC   PO453052   1.166   0.533   5.331
 4011POPC   GL153053   1.246   0.472   5.754
 4011POPC   GL253054   0.921   0.363   5.828
 4011POPC   C1A53055   1.332   0.641   6.170
 4011POPC   D2A53056   1.452   0.429   6.553
 4011POPC   C3A53057   1.418   0.645   6.909
 4011POPC   C4A53058   1.323   0.555   7.335
 4011POPC   C1B53059   1.118   0.158   6.188
 4011POPC   C2B53060   1.186  44.998   6.612
 4011POPC   C3B53061   1.125   0.235   6.969
 4011POPC   C4B53062   0.992   0.161   7.356
 4012POPC   NC353063  33.094  23.062   5.395
 4012POPC   PO453064  32.708  22.602   5.493
 4012POPC   GL153065  32.989  22.806   5.822
 4012POPC   GL253066  33.138  23.154   5.900
 4012POPC   C1A53067  32.888  22.859   6.251
 4012POPC   D2A53068  33.102  23.135   6.498
 4012POPC   C3A53069  33.083  22.975   6.907
 4012POPC   C4A53070  33.293  22.957   7.278
 4012POPC   C1B53071  32.721  23.300   6.059
 4012POPC   C2B53072  32.607  23.316   6.491
 4012POPC   C3B53073  32.848  23.429   6.864
 4012POPC   C4B53074  32.791  23.204   7.269
 4013POPC   NC353075   5.416  32.462   5.511
 4013POPC   PO453076   4.830  32.118   5.477
 4013POPC   GL153077   4.918  32.223   5.855
 4013POPC   GL253078   5.206  32.040   5.822
 4013POPC   C1A53079   4.765  32.385   6.264
 4013POPC   D2A53080   4.890  32.521   6.646
 4013POPC   C3A53081   4.941  32.286   6.993
 4013POPC   C4A53082   4.850  32.430   7.360
 4013POPC   C1B53083   5.329  32.309   6.169
 4013POPC   C2B53084   5.384  32.552   6.528
 4013POPC   C3B53085   5.299  32.653   6.940
 4013POPC   C4B53086   5.658  32.648   7.156
 4014POPC   NC353087  39.148  29.791   5.211
 4014POPC   PO453088  39.617  29.553   5.580
 4014POPC   GL153089  39.295  29.725   5.819
 4014POPC   GL253090  39.105  30.028   5.726
 4014POPC   C1A53091  39.344  29.893   6.226
 4014POPC   D2A53092  39.181  29.787   6.609
 4014POPC   C3A53093  39.328  29.995   6.958
 4014POPC   C4A53094  39.511  29.834   7.310
 4014POPC   C1B53095  39.021  30.280   6.128
 4014POPC   C2B53096  39.019  30.284   6.596
 4014POPC   C3B53097  39.053  30.427   7.041
 4014POPC   C4B53098  39.129  30.178   7.416
 4015POPC   NC353099   8.676  40.316   5.586
 4015POPC   PO453100   8.940  39.880   5.131
 4015POPC   GL153101   9.119  39.880   5.612
 4015POPC   GL253102   8.825  39.880   5.793
 4015POPC   C1A53103   9.187  39.795   6.121
 4015POPC   D2A53104   9.090  40.074   6.518
 4015POPC   C3A53105   9.287  40.075   6.946
 4015POPC   C4A53106   9.330  40.331   7.286
 4015POPC   C1B53107   8.670  40.062   6.184
 4015POPC   C2B53108   8.598  39.974   6.590
 4015POPC   C3B53109   8.787  39.975   6.990
 4015POPC   C4B53110   9.000  39.603   7.180
 4016POPC   NC353111  33.466  33.319   5.632
 4016POPC   PO453112  33.057  33.763   5.377
 4016POPC   GL153113  32.957  33.821   5.804
 4016POPC   GL253114  32.903  33.443   5.781
 4016POPC   C1A53115  32.987  33.960   6.265
 4016POPC   D2A53116  32.796  33.851   6.678
 4016POPC   C3A53117  33.089  33.784   7.053
 4016POPC   C4A53118  33.466  34.006   7.215
 4016POPC   C1B53119  33.048  33.461   6.203
 4016POPC   C2B53120  33.104  33.432   6.643
 4016POPC   C3B53121  32.834  33.338   6.984
 4016POPC   C4B53122  32.813  33.425   7.428
 4017POPC   NC353123  14.134  24.090   5.634
 4017POPC   PO453124  13.728  24.527   5.445
 4017POPC   GL153125  13.615  24.672   5.840
 4017POPC   GL253126  13.405  24.911   5.901
 4017POPC   C1A53127  13.400  24.476   6.169
 4017POPC   D2A53128  13.524  24.467   6.582
 4017POPC   C3A53129  13.429  24.789   6.880
 4017POPC   C4A53130  13.398  24.460   7.226
 4017POPC   C1B53131  13.604  24.936   6.298
 4017POPC   C2B53132  13.898  24.805   6.550
 4017POPC   C3B53133  13.872  24.574   6.969
 4017POPC   C4B53134  13.790  24.780   7.336
 4018POPC   NC353135  13.644  43.011   5.329
 4018POPC   PO453136  13.396  43.579   5.489
 4018POPC   GL153137  13.664  43.279   5.786
 4018POPC   GL253138  13.701  42.880   5.811
 4018POPC   C1A53139  13.689  43.204   6.235
 4018POPC   D2A53140  13.477  43.334   6.604
 4018POPC   C3A53141  13.687  43.234   7.014
 4018POPC   C4A53142  13.502  43.293   7.445
 4018POPC   C1B53143  13.503  42.753   6.208
 4018POPC   C2B53144  13.481  42.830   6.670
 4018POPC   C3B53145  13.736  42.716   7.069
 4018POPC   C4B53146  14.164  42.625   7.217
 4019POPC   NC353147  18.875   0.944   5.418
 4019POPC   PO453148  18.939   1.629   5.372
 4019POPC   GL153149  19.139   1.390   5.694
 4019POPC   GL253150  19.335   1.087   5.724
 4019POPC   C1A53151  19.136   1.363   6.122
 4019POPC   D2A53152  19.235   1.299   6.543
 4019POPC   C3A53153  18.888   1.349   6.843
 4019POPC   C4A53154  18.984   1.481   7.254
 4019POPC   C1B53155  19.291   0.875   6.135
 4019POPC   C2B53156  19.117   0.770   6.525
 4019POPC   C3B53157  19.209   0.944   6.916
 4019POPC   C4B53158  19.475   0.868   7.219
 4020POPC   NC353159   7.776  17.033   5.234
 4020POPC   PO453160   7.131  16.728   5.254
 4020POPC   GL153161   7.510  16.874   5.634
 4020POPC   GL253162   7.672  16.580   5.823
 4020POPC   C1A53163   7.589  16.971   6.142
 4020POPC   D2A53164   7.333  16.840   6.538
 4020POPC   C3A53165   7.358  17.034   6.979
 4020POPC   C4A53166   7.591  17.061   7.383
 4020POPC   C1B53167   7.714  16.484   6.280
 4020POPC   C2B53168   7.779  16.660   6.716
 4020POPC   C3B53169   7.601  16.588   7.154
 4020POPC   C4B53170   7.777  16.577   7.592
 4021POPC   NC353171  42.615  44.853   5.509
 4021POPC   PO453172  43.158  44.469   5.255
 4021POPC   GL153173  43.198  44.610   5.720
 4021POPC   GL253174  43.275  44.985   5.738
 4021POPC   C1A53175  43.353  44.575   6.196
 4021POPC   D2A53176  43.455  44.637   6.686
 4021POPC   C3A53177  43.184  44.615   7.105
 4021POPC   C4A53178  42.837  44.319   7.187
 4021POPC   C1B53179  43.004  44.985   6.131
 4021POPC   C2B53180  42.767   0.036   6.552
 4021POPC   C3B53181  42.905   0.027   7.000
 4021POPC   C4B53182  42.952  44.928   7.464
 4022POPC   NC353183   1.532  29.162   5.374
 4022POPC   PO453184   2.167  29.452   5.423
 4022POPC   GL153185   2.106  29.318   5.819
 4022POPC   GL253186   1.831  29.069   5.781
 4022POPC   C1A53187   2.142  29.153   6.220
 4022POPC   D2A53188   2.180  28.819   6.506
 4022POPC   C3A53189   2.289  29.069   6.829
 4022POPC   C4A53190   2.227  29.035   7.227
 4022POPC   C1B53191   1.644  28.922   6.160
 4022POPC   C2B53192   1.736  29.087   6.547
 4022POPC   C3B53193   1.701  28.986   6.944
 4022POPC   C4B53194   1.716  29.182   7.328
 4023POPC   NC353195  35.883  30.028   5.560
 4023POPC   PO453196  35.885  29.479   5.186
 4023POPC   GL153197  36.013  29.645   5.820
 4023POPC   GL253198  36.310  29.840   5.770
 4023POPC   C1A53199  35.996  29.859   6.237
 4023POPC   D2A53200  36.167  29.760   6.649
 4023POPC   C3A53201  36.016  29.964   7.013
 4023POPC   C4A53202  36.145  29.828   7.407
 4023POPC   C1B53203  36.435  30.087   6.100
 4023POPC   C2B53204  36.342  30.209   6.502
 4023POPC   C3B53205  36.485  30.161   6.907
 4023POPC   C4B53206  36.607  30.118   7.311
 4024POPC   NC353207  21.823  26.077   5.304
 4024POPC   PO453208  22.358  25.678   5.324
 4024POPC   GL153209  22.039  25.814   5.730
 4024POPC   GL253210  21.845  26.173   5.801
 4024POPC   C1A53211  22.086  26.001   6.202
 4024POPC   D2A53212  22.449  26.075   6.501
 4024POPC   C3A53213  22.413  25.857   6.903
 4024POPC   C4A53214  22.023  25.754   7.123
 4024POPC   C1B53215  21.759  26.431   6.182
 4024POPC   C2B53216  21.943  26.558   6.582
 4024POPC   C3B53217  22.098  26.265   6.871
 4024POPC   C4B53218  22.085  26.238   7.293
 4025POPC   NC353219  38.293   1.715   5.545
 4025POPC   PO453220  38.094   2.399   5.406
 4025POPC   GL153221  38.307   2.232   5.772
 4025POPC   GL253222  38.066   2.009   5.906
 4025POPC   C1A53223  38.428   2.130   6.233
 4025POPC   D2A53224  38.284   2.130   6.681
 4025POPC   C3A53225  38.618   2.106   6.973
 4025POPC   C4A53226  38.789   1.777   7.219
 4025POPC   C1B53227  38.042   1.802   6.305
 4025POPC   C2B53228  38.198   1.624   6.695
 4025POPC   C3B53229  38.256   1.770   7.125
 4025POPC   C4B53230  38.232   1.742   7.591
 4026POPC   NC353231  33.437  16.802   5.423
 4026POPC   PO453232  33.775  16.291   5.545
 4026POPC   GL153233  33.775  16.579   5.904
 4026POPC   GL253234  33.686  16.969   5.855
 4026POPC   C1A53235  33.930  16.649   6.343
 4026POPC   D2A53236  34.280  16.607   6.667
 4026POPC   C3A53237  34.076  16.745   7.039
 4026POPC   C4A53238  33.980  16.770   7.495
 4026POPC   C1B53239  33.405  16.803   6.153
 4026POPC   C2B53240  33.431  16.602   6.537
 4026POPC   C3B53241  33.621  16.862   6.810
 4026POPC   C4B53242  33.584  16.762   7.200
 4027POPC   NC353243   7.525   8.467   5.119
 4027POPC   PO453244   7.440   9.125   5.296
 4027POPC   GL153245   7.510   8.913   5.704
 4027POPC   GL253246   7.815   9.090   5.771
 4027POPC   C1A53247   7.296   8.945   6.118
 4027POPC   D2A53248   7.292   9.187   6.511
 4027POPC   C3A53249   7.361   9.005   6.894
 4027POPC   C4A53250   7.399   9.080   7.315
 4027POPC   C1B53251   7.787   8.987   6.200
 4027POPC   C2B53252   7.650   8.671   6.468
 4027POPC   C3B53253   7.755   8.680   6.885
 4027POPC   C4B53254   7.870   9.030   7.106
 4028POPC   NC353255  38.356   5.664   4.922
 4028POPC   PO453256  38.351   6.254   5.332
 4028POPC   GL153257  38.414   6.115   5.757
 4028POPC   GL253258  38.638   5.799   5.721
 4028POPC   C1A53259  38.208   6.131   6.176
 4028POPC   D2A53260  38.255   5.953   6.588
 4028POPC   C3A53261  38.162   6.148   6.977
 4028POPC   C4A53262  38.363   6.001   7.348
 4028POPC   C1B53263  38.672   5.865   6.162
 4028POPC   C2B53264  38.862   5.856   6.557
 4028POPC   C3B53265  38.633   5.849   6.923
 4028POPC   C4B53266  38.709   5.643   7.289
 4029POPC   NC353267  16.930  11.565   5.349
 4029POPC   PO453268  16.446  12.029   5.414
 4029POPC   GL153269  16.594  12.110   5.845
 4029POPC   GL253270  16.445  11.886   6.070
 4029POPC   C1A53271  16.899  12.210   6.195
 4029POPC   D2A53272  16.920  12.435   6.606
 4029POPC   C3A53273  16.875  12.197   6.972
 4029POPC   C4A53274  17.068  11.889   7.184
 4029POPC   C1B53275  16.391  12.303   6.313
 4029POPC   C2B53276  16.410  12.359   6.783
 4029POPC   C3B53277  16.364  12.159   7.206
 4029POPC   C4B53278  16.567  11.809   7.437
 4030POPC   NC353279   5.473   0.558   5.467
 4030POPC   PO453280   6.106   0.264   5.374
 4030POPC   GL153281   5.920   0.180   5.756
 4030POPC   GL253282   5.893   0.512   5.806
 4030POPC   C1A53283   6.047   0.081   6.167
 4030POPC   D2A53284   5.849   0.325   6.496
 4030POPC   C3A53285   5.960   0.316   6.917
 4030POPC   C4A53286   5.872   0.651   7.212
 4030POPC   C1B53287   5.572   0.541   6.089
 4030POPC   C2B53288   5.359   0.455   6.445
 4030POPC   C3B53289   5.440   0.469   6.899
 4030POPC   C4B53290   5.362   0.688   7.300
 4031POPC   NC353291   5.942  16.582   5.233
 4031POPC   PO453292   6.239  17.160   5.390
 4031POPC   GL153293   5.961  16.831   5.696
 4031POPC   GL253294   6.011  16.409   5.720
 4031POPC   C1A53295   5.725  16.725   6.111
 4031POPC   D2A53296   5.452  16.728   6.510
 4031POPC   C3A53297   5.668  16.733   6.917
 4031POPC   C4A53298   5.521  16.736   7.357
 4031POPC   C1B53299   5.889  16.218   6.138
 4031POPC   C2B53300   5.694  16.250   6.524
 4031POPC   C3B53301   5.887  16.249   6.888
 4031POPC   C4B53302   5.808  16.343   7.260
 4032POPC   NC353303  33.460  19.769   5.541
 4032POPC   PO453304  34.093  19.710   5.603
 4032POPC   GL153305  33.826  19.958   5.890
 4032POPC   GL253306  33.477  20.165   5.869
 4032POPC   C1A53307  34.007  19.947   6.295
 4032POPC   D2A53308  34.147  20.005   6.685
 4032POPC   C3A53309  34.117  19.634   6.948
 4032POPC   C4A53310  33.736  19.595   7.204
 4032POPC   C1B53311  33.583  20.243   6.302
 4032POPC   C2B53312  33.616  20.009   6.691
 4032POPC   C3B53313  33.541  20.093   7.108
 4032POPC   C4B53314  33.661  20.439   7.304
 4033POPC   NC353315  31.881   8.782   5.144
 4033POPC   PO453316  31.693   9.242   5.606
 4033POPC   GL153317  31.521   8.989   5.887
 4033POPC   GL253318  31.201   8.932   5.822
 4033POPC   C1A53319  31.699   9.086   6.296
 4033POPC   D2A53320  31.963   8.994   6.639
 4033POPC   C3A53321  31.867   9.158   7.012
 4033POPC   C4A53322  31.546   8.999   7.217
 4033POPC   C1B53323  31.184   9.112   6.233
 4033POPC   C2B53324  31.336   9.343   6.580
 4033POPC   C3B53325  31.187   9.219   6.960
 4033POPC   C4B53326  31.045   8.955   7.291
 4034POPC   NC353327  39.097   9.077   5.616
 4034POPC   PO453328  39.260   9.605   5.139
 4034POPC   GL153329  39.293   9.675   5.620
 4034POPC   GL253330  39.120   9.910   5.803
 4034POPC   C1A53331  39.325   9.505   6.064
 4034POPC   D2A53332  39.176   9.463   6.502
 4034POPC   C3A53333  39.285   9.500   6.953
 4034POPC   C4A53334  38.930   9.566   7.261
 4034POPC   C1B53335  39.284   9.987   6.238
 4034POPC   C2B53336  39.429   9.915   6.664
 4034POPC   C3B53337  39.222   9.986   7.068
 4034POPC   C4B53338  39.124  10.317   7.367
 4035POPC   NC353339  15.684   6.791   5.275
 4035POPC   PO453340  16.405   6.652   5.285
 4035POPC   GL153341  16.081   6.768   5.704
 4035POPC   GL253342  15.704   6.872   5.784
 4035POPC   C1A53343  15.961   6.661   6.200
 4035POPC   D2A53344  15.788   6.316   6.478
 4035POPC   C3A53345  15.910   6.314   6.927
 4035POPC   C4A53346  16.135   6.434   7.298
 4035POPC   C1B53347  15.585   7.038   6.217
 4035POPC   C2B53348  15.622   6.812   6.646
 4035POPC   C3B53349  15.701   6.751   7.112
 4035POPC   C4B53350  15.680   7.082   7.443
 4036POPC   NC353351  20.105  13.413   5.621
 4036POPC   PO453352  20.678  13.589   5.222
 4036POPC   GL153353  20.689  13.648   5.714
 4036POPC   GL253354  20.536  13.381   5.913
 4036POPC   C1A53355  20.737  13.755   6.209
 4036POPC   D2A53356  20.655  13.582   6.653
 4036POPC   C3A53357  20.701  13.791   7.086
 4036POPC   C4A53358  20.673  13.632   7.511
 4036POPC   C1B53359  20.241  13.549   6.229
 4036POPC   C2B53360  20.083  13.459   6.613
 4036POPC   C3B53361  20.245  13.583   6.982
 4036POPC   C4B53362  20.187  13.756   7.357
 4037POPC   NC353363  11.992  28.282   5.355
 4037POPC   PO453364  12.637  28.529   5.246
 4037POPC   GL153365  12.325  28.594   5.720
 4037POPC   GL253366  11.979  28.482   5.815
 4037POPC   C1A53367  12.293  28.387   6.196
 4037POPC   D2A53368  11.990  28.441   6.537
 4037POPC   C3A53369  12.210  28.376   6.945
 4037POPC   C4A53370  12.115  28.152   7.324
 4037POPC   C1B53371  11.989  28.775   6.122
 4037POPC   C2B53372  11.872  28.946   6.504
 4037POPC   C3B53373  11.861  28.785   6.901
 4037POPC   C4B53374  11.937  28.643   7.291
 4038POPC   NC353375  11.375  18.693   4.693
 4038POPC   PO453376  11.492  18.376   5.370
 4038POPC   GL153377  11.337  18.228   5.805
 4038POPC   GL253378  11.104  17.924   5.831
 4038POPC   C1A53379  11.481  18.300   6.227
 4038POPC   D2A53380  11.522  18.107   6.632
 4038POPC   C3A53381  11.326  18.366   6.944
 4038POPC   C4A53382  11.519  18.460   7.306
 4038POPC   C1B53383  11.062  17.985   6.279
 4038POPC   C2B53384  10.800  17.939   6.649
 4038POPC   C3B53385  10.871  18.100   7.056
 4038POPC   C4B53386  11.082  18.214   7.419
 4039POPC   NC353387  22.461  12.731   5.515
 4039POPC   PO453388  23.150  12.918   5.484
 4039POPC   GL153389  22.973  12.692   5.841
 4039POPC   GL253390  22.610  12.601   5.976
 4039POPC   C1A53391  22.987  12.776   6.266
 4039POPC   D2A53392  23.074  12.537   6.574
 4039POPC   C3A53393  23.052  12.781   6.907
 4039POPC   C4A53394  23.253  12.835   7.297
 4039POPC   C1B53395  22.548  13.027   6.189
 4039POPC   C2B53396  22.717  13.179   6.596
 4039POPC   C3B53397  22.572  13.187   7.016
 4039POPC   C4B53398  22.742  12.898   7.300
 4040POPC   NC353399  43.944  35.226   5.371
 4040POPC   PO453400  44.034  35.812   5.542
 4040POPC   GL153401  43.876  35.479   5.844
 4040POPC   GL253402  44.089  35.145   5.871
 4040POPC   C1A53403  43.901  35.326   6.300
 4040POPC   D2A53404  44.233  35.050   6.458
 4040POPC   C3A53405  44.260  35.241   6.848
 4040POPC   C4A53406  43.931  35.222   7.129
 4040POPC   C1B53407  43.767  34.895   6.077
 4040POPC   C2B53408  43.722  34.843   6.521
 4040POPC   C3B53409  43.540  34.981   6.940
 4040POPC   C4B53410  43.523  34.961   7.420
 4041POPC   NC353411  16.594  16.229   5.222
 4041POPC   PO453412  16.374  15.625   5.267
 4041POPC   GL153413  16.687  15.651   5.619
 4041POPC   GL253414  16.836  15.991   5.674
 4041POPC   C1A53415  16.720  15.713   6.093
 4041POPC   D2A53416  16.577  15.954   6.441
 4041POPC   C3A53417  16.601  15.782   6.861
 4041POPC   C4A53418  16.863  15.704   7.223
 4041POPC   C1B53419  17.003  16.165   6.074
 4041POPC   C2B53420  17.110  15.953   6.457
 4041POPC   C3B53421  17.045  16.058   6.897
 4041POPC   C4B53422  16.829  16.205   7.254
 4042POPC   NC353423  33.959   0.225   5.297
 4042POPC   PO453424  33.347   0.368   5.316
 4042POPC   GL153425  33.481   0.281   5.773
 4042POPC   GL253426  33.831   0.410   5.783
 4042POPC   C1A53427  33.576   0.399   6.232
 4042POPC   D2A53428  33.760   0.537   6.626
 4042POPC   C3A53429  33.640   0.345   7.028
 4042POPC   C4A53430  33.784   0.035   7.333
 4042POPC   C1B53431  34.094   0.420   6.183
 4042POPC   C2B53432  34.256   0.430   6.622
 4042POPC   C3B53433  34.151   0.386   7.067
 4042POPC   C4B53434  34.284   0.264   7.470
 4043POPC   NC353435  31.574  31.336   5.344
 4043POPC   PO453436  30.935  31.096   5.507
 4043POPC   GL153437  31.248  31.113   5.805
 4043POPC   GL253438  31.371  31.455   5.820
 4043POPC   C1A53439  31.291  31.173   6.251
 4043POPC   D2A53440  31.398  31.511   6.512
 4043POPC   C3A53441  31.546  31.466   6.961
 4043POPC   C4A53442  31.546  31.823   7.262
 4043POPC   C1B53443  31.708  31.611   6.109
 4043POPC   C2B53444  31.910  31.527   6.539
 4043POPC   C3B53445  31.986  31.712   6.944
 4043POPC   C4B53446  31.962  31.526   7.328
 4044POPC   NC353447  25.725  19.717   5.434
 4044POPC   PO453448  25.698  20.262   5.528
 4044POPC   GL153449  25.948  19.936   5.847
 4044POPC   GL253450  26.181  19.625   5.728
 4044POPC   C1A53451  25.919  19.855   6.314
 4044POPC   D2A53452  26.220  19.875   6.682
 4044POPC   C3A53453  26.087  20.114   7.079
 4044POPC   C4A53454  25.906  19.972   7.495
 4044POPC   C1B53455  26.170  19.434   6.167
 4044POPC   C2B53456  25.954  19.413   6.592
 4044POPC   C3B53457  25.881  19.644   6.989
 4044POPC   C4B53458  26.247  19.667   7.249
 4045POPC   NC353459   9.532  27.743   5.553
 4045POPC   PO453460   9.982  27.205   5.423
 4045POPC   GL153461  10.024  27.461   5.795
 4045POPC   GL253462   9.699  27.485   5.963
 4045POPC   C1A53463  10.119  27.447   6.250
 4045POPC   D2A53464   9.994  27.704   6.605
 4045POPC   C3A53465   9.767  27.521   6.936
 4045POPC   C4A53466   9.919  27.281   7.262
 4045POPC   C1B53467   9.813  27.892   6.170
 4045POPC   C2B53468   9.624  28.091   6.524
 4045POPC   C3B53469   9.757  28.045   6.934
 4045POPC   C4B53470   9.646  27.824   7.336
 4046POPC   NC353471  12.980  27.087   5.295
 4046POPC   PO453472  13.005  26.397   5.374
 4046POPC   GL153473  12.818  26.603   5.731
 4046POPC   GL253474  12.594  26.394   5.918
 4046POPC   C1A53475  13.012  26.686   6.149
 4046POPC   D2A53476  13.045  27.039   6.439
 4046POPC   C3A53477  12.800  26.947   6.805
 4046POPC   C4A53478  12.945  26.658   7.089
 4046POPC   C1B53479  12.537  26.613   6.329
 4046POPC   C2B53480  12.297  26.609   6.721
 4046POPC   C3B53481  12.412  26.636   7.165
 4046POPC   C4B53482  12.660  27.034   7.307
 4047POPC   NC353483  17.200   4.000   5.411
 4047POPC   PO453484  17.827   4.430   5.372
 4047POPC   GL153485  17.652   4.244   5.718
 4047POPC   GL253486  17.345   4.447   5.684
 4047POPC   C1A53487  17.723   4.390   6.135
 4047POPC   D2A53488  17.531   4.285   6.524
 4047POPC   C3A53489  17.749   4.206   6.900
 4047POPC   C4A53490  17.535   4.257   7.274
 4047POPC   C1B53491  17.228   4.281   6.091
 4047POPC   C2B53492  17.020   4.339   6.500
 4047POPC   C3B53493  17.136   4.295   6.925
 4047POPC   C4B53494  16.973   4.051   7.272
 4048POPC   NC353495  21.521  42.146   5.576
 4048POPC   PO453496  21.372  41.445   5.473
 4048POPC   GL153497  21.156  41.494   5.837
 4048POPC   GL253498  21.291  41.810   5.868
 4048POPC   C1A53499  21.328  41.490   6.271
 4048POPC   D2A53500  21.496  41.595   6.657
 4048POPC   C3A53501  21.201  41.533   6.973
 4048POPC   C4A53502  21.444  41.319   7.267
 4048POPC   C1B53503  21.384  42.023   6.240
 4048POPC   C2B53504  21.180  41.991   6.625
 4048POPC   C3B53505  21.440  42.021   6.958
 4048POPC   C4B53506  21.492  41.812   7.312
 4049POPC   NC353507  15.151   5.311   5.044
 4049POPC   PO453508  14.917   5.857   5.390
 4049POPC   GL153509  15.021   5.925   5.866
 4049POPC   GL253510  15.100   5.656   6.069
 4049POPC   C1A53511  15.398   6.048   6.169
 4049POPC   D2A53512  15.459   5.927   6.600
 4049POPC   C3A53513  15.448   6.112   7.016
 4049POPC   C4A53514  15.206   5.856   7.291
 4049POPC   C1B53515  14.688   5.707   6.222
 4049POPC   C2B53516  14.548   5.714   6.630
 4049POPC   C3B53517  14.824   5.630   6.976
 4049POPC   C4B53518  14.834   5.431   7.384
 4050POPC   NC353519   9.703  10.888   5.226
 4050POPC   PO453520   9.990  11.096   5.780
 4050POPC   GL153521   9.615  11.126   5.999
 4050POPC   GL253522   9.589  11.448   5.947
 4050POPC   C1A53523   9.656  11.287   6.429
 4050POPC   D2A53524  10.077  11.278   6.646
 4050POPC   C3A53525   9.988  11.088   7.044
 4050POPC   C4A53526   9.545  11.011   7.071
 4050POPC   C1B53527   9.876  11.736   6.227
 4050POPC   C2B53528  10.131  11.786   6.647
 4050POPC   C3B53529   9.939  11.618   7.042
 4050POPC   C4B53530   9.464  11.520   7.142
 4051POPC   NC353531  26.291  19.082   5.309
 4051POPC   PO453532  26.898  19.299   5.356
 4051POPC   GL153533  26.919  18.987   5.665
 4051POPC   GL253534  26.595  19.041   5.732
 4051POPC   C1A53535  27.016  19.084   6.119
 4051POPC   D2A53536  26.879  18.993   6.551
 4051POPC   C3A53537  26.958  19.202   6.957
 4051POPC   C4A53538  26.781  19.026   7.318
 4051POPC   C1B53539  26.510  18.999   6.165
 4051POPC   C2B53540  26.370  19.120   6.567
 4051POPC   C3B53541  26.436  19.263   7.000
 4051POPC   C4B53542  26.323  19.212   7.457
 4052POPC   NC353543  28.451  25.836   5.036
 4052POPC   PO453544  28.721  26.219   5.496
 4052POPC   GL153545  28.395  26.085   5.801
 4052POPC   GL253546  28.029  26.177   5.753
 4052POPC   C1A53547  28.459  25.986   6.242
 4052POPC   D2A53548  28.641  26.183   6.586
 4052POPC   C3A53549  28.584  25.950   6.952
 4052POPC   C4A53550  28.626  26.040   7.401
 4052POPC   C1B53551  27.966  25.920   6.137
 4052POPC   C2B53552  28.012  26.003   6.570
 4052POPC   C3B53553  28.156  26.209   6.937
 4052POPC   C4B53554  28.160  25.910   7.291
 4053POPC   NC353555  17.287  24.582   5.383
 4053POPC   PO453556  17.796  24.255   5.522
 4053POPC   GL153557  17.561  24.418   5.869
 4053POPC   GL253558  17.628  24.746   5.863
 4053POPC   C1A53559  17.707  24.445   6.311
 4053POPC   D2A53560  17.839  24.423   6.767
 4053POPC   C3A53561  17.547  24.456   7.150
 4053POPC   C4A53562  17.477  24.261   7.581
 4053POPC   C1B53563  17.660  24.956   6.259
 4053POPC   C2B53564  17.791  24.964   6.689
 4053POPC   C3B53565  17.441  24.982   6.974
 4053POPC   C4B53566  17.281  24.857   7.352
 4054POPC   NC353567  29.757  21.334   5.459
 4054POPC   PO453568  30.345  21.567   5.309
 4054POPC   GL153569  30.155  21.510   5.766
 4054POPC   GL253570  29.920  21.193   5.910
 4054POPC   C1A53571  30.112  21.525   6.225
 4054POPC   D2A53572  29.810  21.464   6.562
 4054POPC   C3A53573  29.855  21.554   6.991
 4054POPC   C4A53574  30.112  21.614   7.346
 4054POPC   C1B53575  30.179  20.985   6.230
 4054POPC   C2B53576  30.320  20.972   6.667
 4054POPC   C3B53577  30.106  21.087   7.065
 4054POPC   C4B53578  29.955  20.859   7.412
 4055POPC   NC353579  41.328  33.900   5.492
 4055POPC   PO453580  41.911  34.114   5.277
 4055POPC   GL153581  41.809  34.034   5.750
 4055POPC   GL253582  41.906  33.691   5.949
 4055POPC   C1A53583  41.815  34.148   6.205
 4055POPC   D2A53584  41.690  33.905   6.598
 4055POPC   C3A53585  41.502  34.094   6.973
 4055POPC   C4A53586  41.143  34.146   7.266
 4055POPC   C1B53587  41.722  33.431   6.300
 4055POPC   C2B53588  41.821  33.422   6.731
 4055POPC   C3B53589  41.709  33.622   7.077
 4055POPC   C4B53590  41.267  33.666   7.126
 4056POPC   NC353591  19.077  40.424   5.368
 4056POPC   PO453592  19.278  39.829   5.395
 4056POPC   GL153593  19.274  40.117   5.758
 4056POPC   GL253594  18.917  40.253   5.816
 4056POPC   C1A53595  19.221  40.086   6.229
 4056POPC   D2A53596  19.063  39.948   6.602
 4056POPC   C3A53597  19.285  40.098   6.928
 4056POPC   C4A53598  19.221  40.011   7.342
 4056POPC   C1B53599  18.883  40.459   6.211
 4056POPC   C2B53600  18.925  40.469   6.687
 4056POPC   C3B53601  18.826  40.390   7.146
 4056POPC   C4B53602  18.962  40.366   7.612
 4057POPC   NC353603  29.326  40.408   5.328
 4057POPC   PO453604  29.110  39.746   5.556
 4057POPC   GL153605  29.420  39.934   5.831
 4057POPC   GL253606  29.419  40.307   5.819
 4057POPC   C1A53607  29.423  39.766   6.267
 4057POPC   D2A53608  29.086  39.514   6.530
 4057POPC   C3A53609  28.899  39.740   6.906
 4057POPC   C4A53610  29.176  39.960   7.217
 4057POPC   C1B53611  29.315  40.400   6.263
 4057POPC   C2B53612  29.350  40.273   6.725
 4057POPC   C3B53613  29.128  40.439   7.106
 4057POPC   C4B53614  28.843  40.275   7.445
 4058POPC   NC353615  15.433  41.218   5.318
 4058POPC   PO453616  15.231  41.766   5.061
 4058POPC   GL153617  15.237  41.813   5.607
 4058POPC   GL253618  15.281  41.508   5.827
 4058POPC   C1A53619  15.154  41.927   6.136
 4058POPC   D2A53620  15.159  41.842   6.664
 4058POPC   C3A53621  14.925  41.637   7.085
 4058POPC   C4A53622  14.961  41.619   7.566
 4058POPC   C1B53623  15.214  41.428   6.309
 4058POPC   C2B53624  15.105  41.297   6.747
 4058POPC   C3B53625  15.312  41.305   7.168
 4058POPC   C4B53626  15.400  41.329   7.626
 4059POPC   NC353627  27.922  43.152   5.202
 4059POPC   PO453628  27.290  42.997   5.497
 4059POPC   GL153629  27.580  43.227   5.779
 4059POPC   GL253630  27.905  43.070   5.729
 4059POPC   C1A53631  27.753  43.225   6.224
 4059POPC   D2A53632  27.964  43.149   6.629
 4059POPC   C3A53633  27.782  43.428   6.920
 4059POPC   C4A53634  27.425  43.242   7.107
 4059POPC   C1B53635  27.725  42.757   6.038
 4059POPC   C2B53636  27.779  42.686   6.503
 4059POPC   C3B53637  27.585  42.770   6.916
 4059POPC   C4B53638  27.602  42.666   7.351
 4060POPC   NC353639   3.324  13.967   5.344
 4060POPC   PO453640   3.701  13.422   5.306
 4060POPC   GL153641   3.615  13.638   5.734
 4060POPC   GL253642   3.835  13.879   5.906
 4060POPC   C1A53643   3.501  13.562   6.191
 4060POPC   D2A53644   3.659  13.335   6.566
 4060POPC   C3A53645   3.611  13.499   6.999
 4060POPC   C4A53646   3.727  13.664   7.398
 4060POPC   C1B53647   3.677  14.041   6.290
 4060POPC   C2B53648   3.462  13.871   6.660
 4060POPC   C3B53649   3.523  14.022   7.083
 4060POPC   C4B53650   3.805  14.189   7.367
 4061POPC   NC353651  20.990  30.801   5.483
 4061POPC   PO453652  20.450  30.327   5.455
 4061POPC   GL153653  20.568  30.598   5.724
 4061POPC   GL253654  20.451  30.893   5.530
 4061POPC   C1A53655  20.688  30.582   6.163
 4061POPC   D2A53656  20.469  30.510   6.570
 4061POPC   C3A53657  20.667  30.515   6.980
 4061POPC   C4A53658  20.508  30.550   7.366
 4061POPC   C1B53659  20.441  31.029   5.957
 4061POPC   C2B53660  20.511  30.993   6.403
 4061POPC   C3B53661  20.571  31.023   6.856
 4061POPC   C4B53662  20.778  30.969   7.252
 4062POPC   NC353663  21.292  35.404   5.213
 4062POPC   PO453664  20.881  34.913   5.510
 4062POPC   GL153665  21.132  35.277   5.690
 4062POPC   GL253666  21.286  35.613   5.692
 4062POPC   C1A53667  21.255  35.273   6.114
 4062POPC   D2A53668  21.315  35.465   6.499
 4062POPC   C3A53669  21.265  35.241   6.874
 4062POPC   C4A53670  21.101  35.248   7.289
 4062POPC   C1B53671  21.506  35.737   6.069
 4062POPC   C2B53672  21.559  35.913   6.483
 4062POPC   C3B53673  21.462  35.769   6.897
 4062POPC   C4B53674  21.572  35.482   7.225
 4063POPC   NC353675  18.716  27.844   5.394
 4063POPC   PO453676  19.337  27.569   5.415
 4063POPC   GL153677  19.033  27.656   5.750
 4063POPC   GL253678  19.219  27.626   6.044
 4063POPC   C1A53679  18.745  27.716   6.129
 4063POPC   D2A53680  18.873  27.557   6.527
 4063POPC   C3A53681  18.800  27.692   6.962
 4063POPC   C4A53682  19.014  27.681   7.398
 4063POPC   C1B53683  19.432  27.714   6.407
 4063POPC   C2B53684  19.302  27.715   6.808
 4063POPC   C3B53685  19.435  27.865   7.184
 4063POPC   C4B53686  19.537  27.727   7.612
 4064POPC   NC353687  44.618  25.846   5.011
 4064POPC   PO453688  44.502  25.895   5.628
 4064POPC   GL153689  44.696  26.052   5.947
 4064POPC   GL253690  44.891  25.767   6.005
 4064POPC   C1A53691  44.632  26.143   6.355
 4064POPC   D2A53692  44.449  25.962   6.698
 4064POPC   C3A53693  44.651  26.046   7.085
 4064POPC   C4A53694  44.713  26.101   7.525
 4064POPC   C1B53695  44.502  25.642   6.222
 4064POPC   C2B53696  44.266  25.504   6.573
 4064POPC   C3B53697  44.222  25.613   7.008
 4064POPC   C4B53698  44.443  25.642   7.365
 4065POPC   NC353699  31.608  14.865   5.155
 4065POPC   PO453700  31.366  14.304   5.461
 4065POPC   GL153701  31.407  14.344   5.850
 4065POPC   GL253702  31.219  14.641   5.846
 4065POPC   C1A53703  31.521  14.217   6.248
 4065POPC   D2A53704  31.308  14.294   6.634
 4065POPC   C3A53705  31.413  14.352   7.026
 4065POPC   C4A53706  31.374  14.080   7.398
 4065POPC   C1B53707  31.389  14.712   6.225
 4065POPC   C2B53708  31.566  14.737   6.626
 4065POPC   C3B53709  31.831  14.706   6.971
 4065POPC   C4B53710  31.579  14.794   7.303
 4066POPC   NC353711  43.200  23.488   5.372
 4066POPC   PO453712  42.614  23.822   5.269
 4066POPC   GL153713  42.788  23.545   5.680
 4066POPC   GL253714  43.103  23.720   5.828
 4066POPC   C1A53715  42.894  23.412   6.151
 4066POPC   D2A53716  42.870  23.652   6.564
 4066POPC   C3A53717  43.055  23.569   6.977
 4066POPC   C4A53718  43.317  23.933   7.136
 4066POPC   C1B53719  43.334  23.677   6.256
 4066POPC   C2B53720  43.467  23.457   6.670
 4066POPC   C3B53721  43.549  23.479   7.146
 4066POPC   C4B53722  43.234  23.582   7.503
 4067POPC   NC353723  26.573   2.418   5.620
 4067POPC   PO453724  27.078   2.042   5.307
 4067POPC   GL153725  26.915   2.085   5.781
 4067POPC   GL253726  27.031   2.403   5.868
 4067POPC   C1A53727  26.778   1.906   6.194
 4067POPC   D2A53728  26.938   2.011   6.612
 4067POPC   C3A53729  26.812   1.811   6.975
 4067POPC   C4A53730  26.536   2.020   7.227
 4067POPC   C1B53731  27.207   2.201   6.220
 4067POPC   C2B53732  27.391   2.273   6.619
 4067POPC   C3B53733  27.206   2.397   6.998
 4067POPC   C4B53734  27.076   2.136   7.321
 4068POPC   NC353735  35.091  23.980   5.540
 4068POPC   PO453736  35.312  24.568   5.270
 4068POPC   GL153737  35.305  24.426   5.723
 4068POPC   GL253738  34.963  24.349   5.856
 4068POPC   C1A53739  35.463  24.577   6.161
 4068POPC   D2A53740  35.699  24.510   6.560
 4068POPC   C3A53741  35.640  24.651   6.984
 4068POPC   C4A53742  35.431  24.551   7.368
 4068POPC   C1B53743  35.216  24.144   6.184
 4068POPC   C2B53744  35.198  24.354   6.583
 4068POPC   C3B53745  35.176  24.298   7.027
 4068POPC   C4B53746  35.072  24.144   7.477
 4069POPC   NC353747  15.397  27.827   5.152
 4069POPC   PO453748  14.989  27.380   5.421
 4069POPC   GL153749  15.254  27.555   5.735
 4069POPC   GL253750  15.593  27.598   5.653
 4069POPC   C1A53751  15.333  27.766   6.132
 4069POPC   D2A53752  15.056  27.737   6.494
 4069POPC   C3A53753  15.179  27.737   6.874
 4069POPC   C4A53754  15.054  27.745   7.243
 4069POPC   C1B53755  15.614  27.329   6.048
 4069POPC   C2B53756  15.761  27.385   6.475
 4069POPC   C3B53757  15.669  27.322   6.903
 4069POPC   C4B53758  15.549  27.594   7.204
 4070POPC   NC353759  14.101  13.446   5.559
 4070POPC   PO453760  13.419  13.349   5.452
 4070POPC   GL153761  13.644  13.591   5.738
 4070POPC   GL253762  13.577  13.945   5.737
 4070POPC   C1A53763  13.708  13.460   6.142
 4070POPC   D2A53764  13.492  13.577   6.521
 4070POPC   C3A53765  13.634  13.397   6.903
 4070POPC   C4A53766  13.690  13.547   7.287
 4070POPC   C1B53767  13.705  13.975   6.150
 4070POPC   C2B53768  13.948  13.771   6.475
 4070POPC   C3B53769  13.837  13.863   6.900
 4070POPC   C4B53770  13.774  14.071   7.274
 4071POPC   NC353771  34.381  35.867   5.500
 4071POPC   PO453772  34.860  36.407   5.440
 4071POPC   GL153773  34.752  36.158   5.749
 4071POPC   GL253774  34.960  35.910   5.609
 4071POPC   C1A53775  34.514  36.115   6.150
 4071POPC   D2A53776  34.325  36.016   6.555
 4071POPC   C3A53777  34.334  36.300   6.909
 4071POPC   C4A53778  34.358  36.040   7.256
 4071POPC   C1B53779  34.944  35.842   6.090
 4071POPC   C2B53780  34.791  35.810   6.517
 4071POPC   C3B53781  34.746  36.000   6.908
 4071POPC   C4B53782  34.832  35.839   7.321
 4072POPC   NC353783  36.588  13.761   5.545
 4072POPC   PO453784  36.034  14.047   5.344
 4072POPC   GL153785  35.901  13.802   5.750
 4072POPC   GL253786  36.185  13.558   5.852
 4072POPC   C1A53787  35.779  13.681   6.202
 4072POPC   D2A53788  36.034  13.615   6.593
 4072POPC   C3A53789  35.878  13.604   7.035
 4072POPC   C4A53790  35.897  13.308   7.394
 4072POPC   C1B53791  36.513  13.503   6.175
 4072POPC   C2B53792  36.567  13.695   6.566
 4072POPC   C3B53793  36.378  13.740   6.960
 4072POPC   C4B53794  36.395  13.452   7.271
 4073POPC   NC353795  12.938  43.462   5.483
 4073POPC   PO453796  12.749  42.835   5.401
 4073POPC   GL153797  12.932  42.839   5.787
 4073POPC   GL253798  12.614  42.682   5.900
 4073POPC   C1A53799  13.118  43.094   6.149
 4073POPC   D2A53800  12.996  43.013   6.595
 4073POPC   C3A53801  13.193  43.109   6.995
 4073POPC   C4A53802  13.013  43.083   7.399
 4073POPC   C1B53803  12.600  42.951   6.245
 4073POPC   C2B53804  12.546  43.273   6.561
 4073POPC   C3B53805  12.689  43.217   6.973
 4073POPC   C4B53806  12.775  42.800   7.057
 4074POPC   NC353807  41.626  19.993   5.336
 4074POPC   PO453808  41.821  19.450   5.565
 4074POPC   GL153809  41.661  19.839   5.813
 4074POPC   GL253810  41.917  20.078   5.812
 4074POPC   C1A53811  41.422  20.054   6.158
 4074POPC   D2A53812  41.321  19.846   6.550
 4074POPC   C3A53813  41.345  20.057   6.965
 4074POPC   C4A53814  41.261  19.911   7.400
 4074POPC   C1B53815  41.884  19.871   6.271
 4074POPC   C2B53816  41.797  19.781   6.728
 4074POPC   C3B53817  41.737  19.788   7.175
 4074POPC   C4B53818  41.737  19.762   7.639
 4075POPC   NC353819  43.816  40.337   5.349
 4075POPC   PO453820  44.016  39.699   5.121
 4075POPC   GL153821  43.957  39.939   5.593
 4075POPC   GL253822  44.211  40.162   5.692
 4075POPC   C1A53823  43.828  39.917   6.032
 4075POPC   D2A53824  43.656  40.148   6.396
 4075POPC   C3A53825  43.691  39.907   6.769
 4075POPC   C4A53826  43.784  40.090   7.137
 4075POPC   C1B53827  44.350  39.936   6.073
 4075POPC   C2B53828  44.142  39.929   6.491
 4075POPC   C3B53829  44.257  40.122   6.897
 4075POPC   C4B53830  44.274  39.975   7.313
 4076POPC   NC353831  23.920  25.909   5.237
 4076POPC   PO453832  23.253  25.955   5.477
 4076POPC   GL153833  23.533  25.992   5.832
 4076POPC   GL253834  23.840  25.830   5.754
 4076POPC   C1A53835  23.506  26.089   6.279
 4076POPC   D2A53836  23.354  26.247   6.675
 4076POPC   C3A53837  23.607  26.146   7.010
 4076POPC   C4A53838  23.703  26.030   7.407
 4076POPC   C1B53839  23.944  25.808   6.208
 4076POPC   C2B53840  23.873  25.922   6.631
 4076POPC   C3B53841  23.954  25.756   7.044
 4076POPC   C4B53842  23.966  25.593   7.478
 4077POPC   NC353843   6.147  34.587   5.479
 4077POPC   PO453844   5.451  34.392   5.495
 4077POPC   GL153845   5.755  34.554   5.802
 4077POPC   GL253846   5.751  34.906   5.906
 4077POPC   C1A53847   5.925  34.443   6.194
 4077POPC   D2A53848   5.858  34.547   6.637
 4077POPC   C3A53849   5.742  34.257   6.970
 4077POPC   C4A53850   5.915  34.354   7.391
 4077POPC   C1B53851   5.540  34.806   6.323
 4077POPC   C2B53852   5.411  34.764   6.790
 4077POPC   C3B53853   5.621  34.718   7.198
 4077POPC   C4B53854   5.847  34.872   7.594
 4078POPC   NC353855  41.397  30.405   5.352
 4078POPC   PO453856  41.698  30.971   5.579
 4078POPC   GL153857  41.583  30.798   5.932
 4078POPC   GL253858  41.579  30.446   5.831
 4078POPC   C1A53859  41.648  30.809   6.367
 4078POPC   D2A53860  41.857  30.608   6.690
 4078POPC   C3A53861  41.766  30.817   7.074
 4078POPC   C4A53862  41.848  30.526   7.374
 4078POPC   C1B53863  41.613  30.321   6.244
 4078POPC   C2B53864  41.387  30.428   6.632
 4078POPC   C3B53865  41.519  30.343   7.025
 4078POPC   C4B53866  41.311  30.358   7.418
 4079POPC   NC353867  23.954  14.687   5.367
 4079POPC   PO453868  23.432  15.054   5.450
 4079POPC   GL153869  23.491  15.228   5.867
 4079POPC   GL253870  23.675  15.552   5.835
 4079POPC   C1A53871  23.637  15.214   6.310
 4079POPC   D2A53872  24.032  15.148   6.588
 4079POPC   C3A53873  23.920  15.063   7.021
 4079POPC   C4A53874  23.514  15.134   7.179
 4079POPC   C1B53875  23.379  15.670   6.121
 4079POPC   C2B53876  23.201  15.498   6.476
 4079POPC   C3B53877  23.507  15.488   6.800
 4079POPC   C4B53878  23.449  15.653   7.208
 4080POPC   NC353879  42.773  14.645   5.332
 4080POPC   PO453880  43.079  14.120   5.487
 4080POPC   GL153881  42.977  14.211   5.858
 4080POPC   GL253882  43.006  14.561   5.792
 4080POPC   C1A53883  42.809  14.396   6.236
 4080POPC   D2A53884  42.781  14.537   6.653
 4080POPC   C3A53885  43.036  14.402   6.921
 4080POPC   C4A53886  43.104  14.245   7.325
 4080POPC   C1B53887  43.297  14.496   6.144
 4080POPC   C2B53888  43.400  14.493   6.567
 4080POPC   C3B53889  43.518  14.387   7.005
 4080POPC   C4B53890  43.586  14.141   7.365
 4081POPC   NC353891  27.028  34.275   5.221
 4081POPC   PO453892  26.764  34.933   5.258
 4081POPC   GL153893  26.906  34.693   5.629
 4081POPC   GL253894  26.930  34.325   5.708
 4081POPC   C1A53895  26.816  34.692   6.077
 4081POPC   D2A53896  26.603  34.533   6.448
 4081POPC   C3A53897  26.727  34.798   6.775
 4081POPC   C4A53898  26.795  34.815   7.202
 4081POPC   C1B53899  26.860  34.197   6.124
 4081POPC   C2B53900  27.028  34.261   6.542
 4081POPC   C3B53901  26.960  34.372   6.985
 4081POPC   C4B53902  26.703  34.246   7.351
 4082POPC   NC353903  34.049  30.707   5.457
 4082POPC   PO453904  34.696  30.638   5.321
 4082POPC   GL153905  34.522  30.663   5.734
 4082POPC   GL253906  34.771  30.442   5.855
 4082POPC   C1A53907  34.499  30.916   6.117
 4082POPC   D2A53908  34.610  31.204   6.467
 4082POPC   C3A53909  34.573  31.004   6.886
 4082POPC   C4A53910  34.473  30.715   7.235
 4082POPC   C1B53911  34.658  30.466   6.297
 4082POPC   C2B53912  34.548  30.490   6.741
 4082POPC   C3B53913  34.706  30.274   7.110
 4082POPC   C4B53914  34.615  30.288   7.578
 4083POPC   NC353915  18.851  25.161   5.288
 4083POPC   PO453916  19.490  25.256   5.554
 4083POPC   GL153917  19.121  25.196   5.790
 4083POPC   GL253918  18.849  25.442   5.829
 4083POPC   C1A53919  19.177  25.241   6.220
 4083POPC   D2A53920  19.440  25.259   6.542
 4083POPC   C3A53921  19.291  25.369   6.947
 4083POPC   C4A53922  19.096  25.109   7.254
 4083POPC   C1B53923  18.684  25.157   6.193
 4083POPC   C2B53924  18.867  25.175   6.649
 4083POPC   C3B53925  18.660  25.261   7.058
 4083POPC   C4B53926  18.688  25.267   7.542
 4084POPC   NC353927  37.993  40.072   5.323
 4084POPC   PO453928  38.621  40.258   5.098
 4084POPC   GL153929  38.472  40.153   5.571
 4084POPC   GL253930  38.420  39.836   5.715
 4084POPC   C1A53931  38.454  40.183   6.087
 4084POPC   D2A53932  38.422  39.930   6.522
 4084POPC   C3A53933  38.624  40.141   6.893
 4084POPC   C4A53934  38.526  40.323   7.291
 4084POPC   C1B53935  38.656  39.691   6.106
 4084POPC   C2B53936  38.734  39.473   6.502
 4084POPC   C3B53937  38.717  39.636   6.911
 4084POPC   C4B53938  38.663  39.648   7.344
 4085POPC   NC353939  43.394  42.485   5.319
 4085POPC   PO453940  44.025  42.184   5.344
 4085POPC   GL153941  43.836  42.296   5.746
 4085POPC   GL253942  43.490  42.208   5.816
 4085POPC   C1A53943  43.898  42.337   6.206
 4085POPC   D2A53944  43.682  42.349   6.617
 4085POPC   C3A53945  43.910  42.351   7.017
 4085POPC   C4A53946  43.834  42.405   7.469
 4085POPC   C1B53947  43.503  41.995   6.226
 4085POPC   C2B53948  43.662  41.830   6.647
 4085POPC   C3B53949  43.553  41.956   7.082
 4085POPC   C4B53950  43.469  42.020   7.544
 4086POPC   NC353951  32.792   8.398   5.062
 4086POPC   PO453952  33.214   8.040   5.426
 4086POPC   GL153953  33.288   8.293   5.840
 4086POPC   GL253954  33.456   8.630   5.856
 4086POPC   C1A53955  33.049   8.395   6.227
 4086POPC   D2A53956  32.790   8.154   6.523
 4086POPC   C3A53957  32.954   8.122   6.929
 4086POPC   C4A53958  33.257   7.997   7.224
 4086POPC   C1B53959  33.569   8.433   6.255
 4086POPC   C2B53960  33.360   8.291   6.637
 4086POPC   C3B53961  33.304   8.481   7.040
 4086POPC   C4B53962  33.546   8.480   7.392
 4087POPC   NC353963  17.129  13.876   5.390
 4087POPC   PO453964  16.412  13.856   5.358
 4087POPC   GL153965  16.675  13.700   5.734
 4087POPC   GL253966  16.994  13.487   5.734
 4087POPC   C1A53967  16.923  13.858   6.106
 4087POPC   D2A53968  17.122  13.741   6.516
 4087POPC   C3A53969  16.851  13.792   6.891
 4087POPC   C4A53970  16.737  13.629   7.265
 4087POPC   C1B53971  16.943  13.327   6.179
 4087POPC   C2B53972  16.799  13.356   6.626
 4087POPC   C3B53973  17.041  13.280   7.045
 4087POPC   C4B53974  17.023  13.304   7.561
 4088POPC   NC353975  35.134   1.184   5.522
 4088POPC   PO453976  35.765   1.362   5.414
 4088POPC   GL153977  35.557   1.369   5.787
 4088POPC   GL253978  35.498   1.045   5.868
 4088POPC   C1A53979  35.527   1.381   6.250
 4088POPC   D2A53980  35.561   1.099   6.589
 4088POPC   C3A53981  35.456   1.070   7.035
 4088POPC   C4A53982  35.526   1.301   7.424
 4088POPC   C1B53983  35.239   0.908   6.225
 4088POPC   C2B53984  35.135   0.838   6.688
 4088POPC   C3B53985  35.007   0.798   7.136
 4088POPC   C4B53986  35.255   0.863   7.500
 4089POPC   NC353987  18.614  26.126   5.399
 4089POPC   PO453988  18.107  25.706   5.138
 4089POPC   GL153989  18.216  25.811   5.602
 4089POPC   GL253990  18.540  25.869   5.819
 4089POPC   C1A53991  18.079  25.823   6.057
 4089POPC   D2A53992  18.103  26.022   6.461
 4089POPC   C3A53993  17.992  25.906   6.870
 4089POPC   C4A53994  17.929  25.768   7.261
 4089POPC   C1B53995  18.406  26.243   6.069
 4089POPC   C2B53996  18.469  26.365   6.527
 4089POPC   C3B53997  18.414  26.187   6.961
 4089POPC   C4B53998  18.282  26.138   7.414
 4090POPC   NC353999   5.174   1.904   5.206
 4090POPC   PO454000   5.072   2.356   5.780
 4090POPC   GL154001   5.034   1.927   5.801
 4090POPC   GL254002   5.327   1.862   5.698
 4090POPC   C1A54003   4.730   1.715   6.049
 4090POPC   D2A54004   4.625   1.651   6.501
 4090POPC   C3A54005   4.810   1.962   6.793
 4090POPC   C4A54006   4.916   1.921   7.223
 4090POPC   C1B54007   5.420   1.878   6.174
 4090POPC   C2B54008   5.314   2.052   6.619
 4090POPC   C3B54009   5.171   2.315   6.982
 4090POPC   C4B54010   5.309   2.463   7.383
 4091POPC   NC354011   9.326  10.236   5.382
 4091POPC   PO454012   9.959  10.496   5.315
 4091POPC   GL154013   9.657  10.554   5.677
 4091POPC   GL254014   9.531  10.222   5.843
 4091POPC   C1A54015   9.573  10.637   6.140
 4091POPC   D2A54016   9.495  10.799   6.582
 4091POPC   C3A54017   9.762  10.585   6.913
 4091POPC   C4A54018   9.992  10.524   7.297
 4091POPC   C1B54019   9.237  10.213   6.212
 4091POPC   C2B54020   9.214  10.099   6.661
 4091POPC   C3B54021   9.428  10.215   7.055
 4091POPC   C4B54022   9.342  10.576   7.277
 4092POPC   NC354023  27.509   1.959   5.145
 4092POPC   PO454024  27.809   2.538   5.441
 4092POPC   GL154025  27.569   2.358   5.816
 4092POPC   GL254026  27.407   2.034   5.778
 4092POPC   C1A54027  27.698   2.078   6.185
 4092POPC   D2A54028  27.650   1.806   6.529
 4092POPC   C3A54029  27.812   2.031   6.877
 4092POPC   C4A54030  27.672   2.270   7.221
 4092POPC   C1B54031  27.287   1.710   6.131
 4092POPC   C2B54032  27.199   1.576   6.590
 4092POPC   C3B54033  27.336   1.819   6.971
 4092POPC   C4B54034  27.483   1.839   7.412
 4093POPC   NC354035   5.861  31.272   5.420
 4093POPC   PO454036   5.518  31.926   5.423
 4093POPC   GL154037   5.760  31.656   5.743
 4093POPC   GL254038   5.693  31.320   5.884
 4093POPC   C1A54039   5.956  31.648   6.167
 4093POPC   D2A54040   5.966  31.392   6.542
 4093POPC   C3A54041   5.916  31.596   6.937
 4093POPC   C4A54042   5.589  31.649   7.222
 4093POPC   C1B54043   5.546  31.262   6.288
 4093POPC   C2B54044   5.540  31.152   6.741
 4093POPC   C3B54045   5.733  31.166   7.141
 4093POPC   C4B54046   5.690  31.065   7.542
 4094POPC   NC354047  23.683   6.457   5.500
 4094POPC   PO454048  23.919   7.081   5.307
 4094POPC   GL154049  23.891   6.838   5.768
 4094POPC   GL254050  23.540   6.769   5.878
 4094POPC   C1A54051  23.864   6.642   6.241
 4094POPC   D2A54052  23.487   6.790   6.505
 4094POPC   C3A54053  23.594   6.911   6.954
 4094POPC   C4A54054  23.879   6.637   7.164
 4094POPC   C1B54055  23.439   6.429   6.109
 4094POPC   C2B54056  23.503   6.287   6.492
 4094POPC   C3B54057  23.483   6.424   6.888
 4094POPC   C4B54058  23.513   6.328   7.296
 4095POPC   NC354059   1.442  31.678   5.480
 4095POPC   PO454060   0.925  31.154   5.359
 4095POPC   GL154061   1.161  31.310   5.691
 4095POPC   GL254062   0.857  31.365   5.822
 4095POPC   C1A54063   1.291  31.455   6.107
 4095POPC   D2A54064   1.304  31.628   6.508
 4095POPC   C3A54065   1.440  31.372   6.852
 4095POPC   C4A54066   1.192  31.422   7.226
 4095POPC   C1B54067   0.876  31.147   6.194
 4095POPC   C2B54068   1.140  31.080   6.536
 4095POPC   C3B54069   0.958  31.076   6.940
 4095POPC   C4B54070   0.837  31.121   7.389
 4096POPC   NC354071  27.574  41.697   5.381
 4096POPC   PO454072  27.438  41.158   5.797
 4096POPC   GL154073  27.427  41.479   6.078
 4096POPC   GL254074  27.643  41.774   6.021
 4096POPC   C1A54075  27.240  41.700   6.420
 4096POPC   D2A54076  27.149  41.944   6.808
 4096POPC   C3A54077  27.441  41.762   7.105
 4096POPC   C4A54078  27.421  41.331   7.249
 4096POPC   C1B54079  27.817  41.537   6.387
 4096POPC   C2B54080  27.822  41.453   6.824
 4096POPC   C3B54081  27.937  41.351   7.234
 4096POPC   C4B54082  27.736  41.176   7.624
 4097POPC   NC354083   0.895  29.082   5.290
 4097POPC   PO454084   1.491  28.731   5.540
 4097POPC   GL154085   1.248  29.032   5.773
 4097POPC   GL254086   0.970  28.808   5.729
 4097POPC   C1A54087   1.234  29.259   6.175
 4097POPC   D2A54088   1.342  29.429   6.608
 4097POPC   C3A54089   1.252  29.273   7.037
 4097POPC   C4A54090   1.246  29.295   7.496
 4097POPC   C1B54091   1.112  28.727   6.148
 4097POPC   C2B54092   1.252  28.889   6.535
 4097POPC   C3B54093   1.184  28.778   6.926
 4097POPC   C4B54094   1.378  28.774   7.281
 4098POPC   NC354095   0.499  27.993   5.378
 4098POPC   PO454096   0.611  28.655   5.336
 4098POPC   GL154097   0.443  28.570   5.738
 4098POPC   GL254098   0.393  28.247   5.809
 4098POPC   C1A54099   0.525  28.637   6.165
 4098POPC   D2A54100   0.436  28.410   6.533
 4098POPC   C3A54101   0.343  28.607   6.898
 4098POPC   C4A54102   0.514  28.498   7.312
 4098POPC   C1B54103   0.364  28.039   6.184
 4098POPC   C2B54104   0.191  27.955   6.613
 4098POPC   C3B54105   0.356  28.110   7.024
 4098POPC   C4B54106   0.309  28.067   7.487
 4099POPC   NC354107  22.477  24.984   5.451
 4099POPC   PO454108  22.551  24.362   5.401
 4099POPC   GL154109  22.599  24.610   5.804
 4099POPC   GL254110  22.985  24.621   5.874
 4099POPC   C1A54111  22.670  24.614   6.260
 4099POPC   D2A54112  22.916  24.664   6.655
 4099POPC   C3A54113  22.723  24.630   7.073
 4099POPC   C4A54114  22.878  24.679   7.518
 4099POPC   C1B54115  23.104  24.347   6.260
 4099POPC   C2B54116  23.052  24.180   6.705
 4099POPC   C3B54117  23.137  24.350   7.132
 4099POPC   C4B54118  23.376  24.534   7.493
 4100POPC   NC354119  14.172  17.104   5.436
 4100POPC   PO454120  14.466  16.485   5.273
 4100POPC   GL154121  14.300  16.643   5.715
 4100POPC   GL254122  13.990  16.809   5.842
 4100POPC   C1A54123  14.465  16.724   6.145
 4100POPC   D2A54124  14.778  16.693   6.474
 4100POPC   C3A54125  14.598  16.457   6.834
 4100POPC   C4A54126  14.546  16.656   7.216
 4100POPC   C1B54127  13.989  16.790   6.313
 4100POPC   C2B54128  14.204  16.813   6.732
 4100POPC   C3B54129  14.078  16.870   7.179
 4100POPC   C4B54130  13.959  17.066   7.560
 4101POPC   NC354131  25.544  43.181   5.509
 4101POPC   PO454132  24.890  42.834   5.414
 4101POPC   GL154133  24.937  43.042   5.788
 4101POPC   GL254134  25.145  42.779   5.889
 4101POPC   C1A54135  25.133  43.183   6.204
 4101POPC   D2A54136  25.190  43.274   6.635
 4101POPC   C3A54137  25.525  43.201   6.923
 4101POPC   C4A54138  25.387  43.501   7.226
 4101POPC   C1B54139  24.819  42.744   6.190
 4101POPC   C2B54140  25.065  42.754   6.548
 4101POPC   C3B54141  24.999  42.917   6.941
 4101POPC   C4B54142  25.222  43.001   7.287
 4102POPC   NC354143  33.412  16.016   5.481
 4102POPC   PO454144  32.854  16.256   5.506
 4102POPC   GL154145  33.049  15.983   5.825
 4102POPC   GL254146  33.196  15.635   5.727
 4102POPC   C1A54147  33.193  15.880   6.237
 4102POPC   D2A54148  32.990  16.005   6.597
 4102POPC   C3A54149  33.138  15.892   7.009
 4102POPC   C4A54150  33.002  16.124   7.420
 4102POPC   C1B54151  32.845  15.575   6.035
 4102POPC   C2B54152  32.803  15.546   6.454
 4102POPC   C3B54153  32.569  15.744   6.769
 4102POPC   C4B54154  32.676  15.804   7.189
 4103POPC   NC354155   8.369  15.188   5.552
 4103POPC   PO454156   8.896  15.347   5.205
 4103POPC   GL154157   8.885  15.292   5.676
 4103POPC   GL254158   8.878  14.946   5.761
 4103POPC   C1A54159   8.882  15.303   6.165
 4103POPC   D2A54160   9.166  15.216   6.527
 4103POPC   C3A54161   9.045  15.134   6.961
 4103POPC   C4A54162   9.102  14.854   7.355
 4103POPC   C1B54163   8.639  14.835   6.117
 4103POPC   C2B54164   8.721  14.946   6.544
 4103POPC   C3B54165   8.594  14.930   6.982
 4103POPC   C4B54166   8.611  14.611   7.274
 4104POPC   NC354167  12.345  35.883   5.285
 4104POPC   PO454168  11.756  35.764   5.477
 4104POPC   GL154169  11.919  36.004   5.842
 4104POPC   GL254170  11.937  36.368   5.864
 4104POPC   C1A54171  12.170  36.048   6.226
 4104POPC   D2A54172  12.071  36.075   6.670
 4104POPC   C3A54173  12.258  36.241   7.072
 4104POPC   C4A54174  12.211  36.042   7.493
 4104POPC   C1B54175  11.726  36.286   6.256
 4104POPC   C2B54176  11.597  36.249   6.664
 4104POPC   C3B54177  11.754  36.233   7.085
 4104POPC   C4B54178  11.685  36.010   7.465
 4105POPC   NC354179   8.116  38.276   5.534
 4105POPC   PO454180   8.680  38.737   5.414
 4105POPC   GL154181   8.507  38.563   5.808
 4105POPC   GL254182   8.581  38.200   5.861
 4105POPC   C1A54183   8.202  38.593   6.175
 4105POPC   D2A54184   7.922  38.592   6.554
 4105POPC   C3A54185   8.088  38.499   6.924
 4105POPC   C4A54186   8.142  38.648   7.326
 4105POPC   C1B54187   8.688  38.401   6.281
 4105POPC   C2B54188   8.591  38.525   6.742
 4105POPC   C3B54189   8.512  38.291   7.140
 4105POPC   C4B54190   8.406  38.252   7.604
 4106POPC   NC354191  22.509  42.443   5.423
 4106POPC   PO454192  21.892  42.077   5.269
 4106POPC   GL154193  22.013  42.225   5.727
 4106POPC   GL254194  22.305  42.402   5.874
 4106POPC   C1A54195  21.920  42.335   6.189
 4106POPC   D2A54196  21.981  42.591   6.569
 4106POPC   C3A54197  21.916  42.337   6.981
 4106POPC   C4A54198  22.062  42.260   7.445
 4106POPC   C1B54199  22.410  42.416   6.314
 4106POPC   C2B54200  22.375  42.307   6.753
 4106POPC   C3B54201  22.329  42.594   7.126
 4106POPC   C4B54202  22.572  42.939   7.333
 4107POPC   NC354203  16.246  43.529   5.356
 4107POPC   PO454204  15.524  43.432   5.398
 4107POPC   GL154205  15.792  43.397   5.775
 4107POPC   GL254206  16.138  43.228   5.777
 4107POPC   C1A54207  15.973  43.460   6.200
 4107POPC   D2A54208  16.014  43.242   6.588
 4107POPC   C3A54209  16.031  43.474   6.950
 4107POPC   C4A54210  15.901  43.470   7.359
 4107POPC   C1B54211  16.012  42.953   6.122
 4107POPC   C2B54212  15.823  42.786   6.508
 4107POPC   C3B54213  15.862  42.755   6.946
 4107POPC   C4B54214  16.070  43.025   7.229
 4108POPC   NC354215   3.095  44.834   5.203
 4108POPC   PO454216   2.680  44.285   5.379
 4108POPC   GL154217   2.743  44.505   5.759
 4108POPC   GL254218   2.936  44.814   5.721
 4108POPC   C1A54219   2.703  44.371   6.176
 4108POPC   D2A54220   2.439  44.473   6.528
 4108POPC   C3A54221   2.661  44.361   6.902
 4108POPC   C4A54222   2.928  44.563   7.227
 4108POPC   C1B54223   2.757  44.903   6.138
 4108POPC   C2B54224   2.826   0.017   6.578
 4108POPC   C3B54225   2.932   0.043   7.049
 4108POPC   C4B54226   2.959  44.982   7.528
 4109POPC   NC354227  22.824  27.273   5.426
 4109POPC   PO454228  23.139  27.857   5.528
 4109POPC   GL154229  23.002  27.696   5.917
 4109POPC   GL254230  23.155  27.401   5.809
 4109POPC   C1A54231  23.001  27.640   6.383
 4109POPC   D2A54232  23.037  27.951   6.714
 4109POPC   C3A54233  23.020  27.793   7.131
 4109POPC   C4A54234  22.648  27.613   7.297
 4109POPC   C1B54235  22.926  27.207   6.113
 4109POPC   C2B54236  22.955  27.136   6.527
 4109POPC   C3B54237  22.897  27.310   6.934
 4109POPC   C4B54238  22.798  27.122   7.331
 4110POPC   NC354239  36.522  43.013   5.564
 4110POPC   PO454240  36.942  42.531   5.264
 4110POPC   GL154241  37.008  42.802   5.664
 4110POPC   GL254242  36.982  43.148   5.757
 4110POPC   C1A54243  36.828  42.862   6.123
 4110POPC   D2A54244  36.869  43.027   6.524
 4110POPC   C3A54245  36.855  42.774   6.856
 4110POPC   C4A54246  36.720  43.013   7.191
 4110POPC   C1B54247  37.212  43.186   6.177
 4110POPC   C2B54248  37.303  43.320   6.624
 4110POPC   C3B54249  37.148  43.298   7.067
 4110POPC   C4B54250  37.078  43.279   7.544
 4111POPC   NC354251  30.369  43.991   5.533
 4111POPC   PO454252  30.979  43.806   5.211
 4111POPC   GL154253  30.829  43.807   5.674
 4111POPC   GL254254  30.932  43.571   5.915
 4111POPC   C1A54255  30.734  44.030   6.114
 4111POPC   D2A54256  30.754  43.911   6.548
 4111POPC   C3A54257  30.668  44.231   6.872
 4111POPC   C4A54258  30.571  44.100   7.283
 4111POPC   C1B54259  30.531  43.563   6.180
 4111POPC   C2B54260  30.277  43.615   6.584
 4111POPC   C3B54261  30.473  43.718   6.947
 4111POPC   C4B54262  30.503  43.551   7.329
 4112POPC   NC354263  12.968  11.551   5.518
 4112POPC   PO454264  12.717  10.906   5.474
 4112POPC   GL154265  12.788  11.202   5.848
 4112POPC   GL254266  12.622  11.553   5.878
 4112POPC   C1A54267  12.993  11.444   6.197
 4112POPC   D2A54268  12.993  11.270   6.598
 4112POPC   C3A54269  12.958  11.456   6.986
 4112POPC   C4A54270  13.120  11.314   7.373
 4112POPC   C1B54271  12.598  11.812   6.263
 4112POPC   C2B54272  12.713  11.921   6.684
 4112POPC   C3B54273  12.592  11.805   7.108
 4112POPC   C4B54274  12.658  11.504   7.416
 4113POPC   NC354275  18.779  37.599   5.538
 4113POPC   PO454276  19.440  37.589   5.389
 4113POPC   GL154277  19.322  37.806   5.779
 4113POPC   GL254278  18.977  37.808   5.945
 4113POPC   C1A54279  19.401  37.982   6.189
 4113POPC   D2A54280  19.095  37.927   6.538
 4113POPC   C3A54281  19.212  37.794   6.959
 4113POPC   C4A54282  19.037  37.475   7.197
 4113POPC   C1B54283  18.737  37.575   6.269
 4113POPC   C2B54284  18.582  37.643   6.688
 4113POPC   C3B54285  18.713  37.976   6.954
 4113POPC   C4B54286  18.933  38.049   7.314
 4114POPC   NC354287  38.923  24.537   5.339
 4114POPC   PO454288  39.435  24.829   5.453
 4114POPC   GL154289  39.216  24.657   5.798
 4114POPC   GL254290  39.044  24.349   5.783
 4114POPC   C1A54291  39.345  24.725   6.223
 4114POPC   D2A54292  39.338  24.457   6.580
 4114POPC   C3A54293  39.230  24.653   6.930
 4114POPC   C4A54294  39.199  24.512   7.351
 4114POPC   C1B54295  39.195  24.224   6.149
 4114POPC   C2B54296  39.099  24.003   6.528
 4114POPC   C3B54297  39.119  24.146   6.969
 4114POPC   C4B54298  39.362  24.047   7.362
 4115POPC   NC354299  44.584   6.122   5.339
 4115POPC   PO454300   0.089   6.501   5.192
 4115POPC   GL154301  44.890   6.519   5.638
 4115POPC   GL254302  44.667   6.284   5.833
 4115POPC   C1A54303  44.784   6.744   6.052
 4115POPC   D2A54304  44.884   6.649   6.516
 4115POPC   C3A54305  44.596   6.642   6.872
 4115POPC   C4A54306  44.666   6.814   7.289
 4115POPC   C1B54307  44.531   6.336   6.255
 4115POPC   C2B54308  44.217   6.180   6.546
 4115POPC   C3B54309  44.249   6.118   6.978
 4115POPC   C4B54310  44.453   6.345   7.287
 4116POPC   NC354311   7.811  39.838   5.431
 4116POPC   PO454312   7.393  40.391   5.458
 4116POPC   GL154313   7.573  40.111   5.787
 4116POPC   GL254314   7.375  39.803   5.902
 4116POPC   C1A54315   7.638  40.102   6.228
 4116POPC   D2A54316   7.480  39.995   6.624
 4116POPC   C3A54317   7.690  39.837   6.962
 4116POPC   C4A54318   7.512  40.087   7.311
 4116POPC   C1B54319   7.127  39.838   6.274
 4116POPC   C2B54320   6.969  39.868   6.691
 4116POPC   C3B54321   7.188  39.780   7.073
 4116POPC   C4B54322   7.160  39.768   7.549
 4117POPC   NC354323  18.251  21.373   5.302
 4117POPC   PO454324  17.854  21.747   5.505
 4117POPC   GL154325  18.295  21.644   5.721
 4117POPC   GL254326  18.361  21.273   5.794
 4117POPC   C1A54327  18.621  21.625   6.071
 4117POPC   D2A54328  18.644  21.505   6.539
 4117POPC   C3A54329  18.549  21.646   6.987
 4117POPC   C4A54330  18.415  21.353   7.295
 4117POPC   C1B54331  18.254  21.309   6.262
 4117POPC   C2B54332  18.199  21.329   6.754
 4117POPC   C3B54333  17.939  21.303   7.152
 4117POPC   C4B54334  17.962  21.383   7.611
 4118POPC   NC354335  25.302   3.700   5.415
 4118POPC   PO454336  24.874   3.191   5.564
 4118POPC   GL154337  25.153   3.401   5.880
 4118POPC   GL254338  25.512   3.536   5.857
 4118POPC   C1A54339  25.352   3.296   6.305
 4118POPC   D2A54340  25.434   3.102   6.734
 4118POPC   C3A54341  25.245   3.297   7.121
 4118POPC   C4A54342  25.017   3.647   7.294
 4118POPC   C1B54343  25.316   3.804   6.152
 4118POPC   C2B54344  25.118   3.714   6.534
 4118POPC   C3B54345  25.328   3.776   6.905
 4118POPC   C4B54346  25.430   3.982   7.269
 4119POPC   NC354347  41.512  40.647   5.349
 4119POPC   PO454348  41.969  41.107   5.651
 4119POPC   GL154349  41.738  40.783   5.828
 4119POPC   GL254350  41.413  40.832   5.815
 4119POPC   C1A54351  41.674  40.823   6.271
 4119POPC   D2A54352  41.959  40.973   6.582
 4119POPC   C3A54353  41.968  40.604   6.832
 4119POPC   C4A54354  41.633  40.539   7.149
 4119POPC   C1B54355  41.250  41.094   6.145
 4119POPC   C2B54356  41.360  41.130   6.613
 4119POPC   C3B54357  41.241  40.815   6.967
 4119POPC   C4B54358  41.026  40.651   7.357
 4120POPC   NC354359  18.675  23.440   5.424
 4120POPC   PO454360  19.277  23.923   5.353
 4120POPC   GL154361  19.152  23.870   5.787
 4120POPC   GL254362  19.046  23.533   5.796
 4120POPC   C1A54363  18.942  23.827   6.203
 4120POPC   D2A54364  18.932  23.552   6.504
 4120POPC   C3A54365  18.961  23.566   6.909
 4120POPC   C4A54366  18.810  23.909   7.162
 4120POPC   C1B54367  19.380  23.555   6.128
 4120POPC   C2B54368  19.396  23.339   6.539
 4120POPC   C3B54369  19.474  23.448   6.959
 4120POPC   C4B54370  19.233  23.537   7.338
 4121POPC   NC354371  18.103  15.668   5.352
 4121POPC   PO454372  18.510  16.149   5.532
 4121POPC   GL154373  18.315  15.817   5.808
 4121POPC   GL254374  17.943  15.764   5.839
 4121POPC   C1A54375  18.248  15.543   6.184
 4121POPC   D2A54376  18.151  15.584   6.626
 4121POPC   C3A54377  18.395  15.792   6.956
 4121POPC   C4A54378  18.277  15.863   7.396
 4121POPC   C1B54379  17.937  16.034   6.210
 4121POPC   C2B54380  18.023  16.078   6.658
 4121POPC   C3B54381  17.882  15.904   7.069
 4121POPC   C4B54382  17.810  15.951   7.538
 4122POPC   NC354383  25.680   5.232   5.381
 4122POPC   PO454384  25.950   4.656   5.268
 4122POPC   GL154385  25.962   4.873   5.667
 4122POPC   GL254386  25.624   4.911   5.793
 4122POPC   C1A54387  26.086   4.885   6.128
 4122POPC   D2A54388  26.333   5.017   6.513
 4122POPC   C3A54389  26.153   5.186   6.894
 4122POPC   C4A54390  26.030   5.029   7.323
 4122POPC   C1B54391  25.590   5.060   6.211
 4122POPC   C2B54392  25.799   4.945   6.595
 4122POPC   C3B54393  25.641   5.017   6.988
 4122POPC   C4B54394  25.509   5.096   7.390
 4123POPC   NC354395  12.261  15.389   5.303
 4123POPC   PO454396  11.770  14.876   5.388
 4123POPC   GL154397  11.921  15.172   5.696
 4123POPC   GL254398  12.063  14.955   5.952
 4123POPC   C1A54399  11.692  15.278   6.088
 4123POPC   D2A54400  11.697  15.409   6.510
 4123POPC   C3A54401  11.834  15.192   6.871
 4123POPC   C4A54402  12.049  15.118   7.238
 4123POPC   C1B54403  12.060  15.024   6.418
 4123POPC   C2B54404  12.353  15.146   6.774
 4123POPC   C3B54405  12.495  14.874   7.123
 4123POPC   C4B54406  12.403  14.909   7.584
 4124POPC   NC354407  25.668  41.296   5.517
 4124POPC   PO454408  26.297  41.399   5.283
 4124POPC   GL154409  26.135  41.554   5.710
 4124POPC   GL254410  25.947  41.319   5.927
 4124POPC   C1A54411  26.271  41.651   6.153
 4124POPC   D2A54412  26.307  41.528   6.588
 4124POPC   C3A54413  26.079  41.707   6.943
 4124POPC   C4A54414  26.303  41.859   7.282
 4124POPC   C1B54415  25.967  41.254   6.325
 4124POPC   C2B54416  25.830  41.327   6.698
 4124POPC   C3B54417  25.679  41.095   7.050
 4124POPC   C4B54418  25.825  41.294   7.408
 4125POPC   NC354419   3.205  33.557   5.563
 4125POPC   PO454420   3.707  33.317   5.143
 4125POPC   GL154421   3.705  33.313   5.633
 4125POPC   GL254422   3.502  33.027   5.747
 4125POPC   C1A54423   3.716  33.287   6.131
 4125POPC   D2A54424   3.702  32.985   6.515
 4125POPC   C3A54425   3.491  33.065   6.915
 4125POPC   C4A54426   3.611  33.303   7.240
 4125POPC   C1B54427   3.278  33.015   6.171
 4125POPC   C2B54428   3.149  32.844   6.563
 4125POPC   C3B54429   3.223  32.632   6.936
 4125POPC   C4B54430   3.129  32.767   7.314
 4126POPC   NC354431   1.991  12.787   5.080
 4126POPC   PO454432   2.501  13.086   5.535
 4126POPC   GL154433   2.185  12.987   5.903
 4126POPC   GL254434   1.795  12.925   5.809
 4126POPC   C1A54435   1.956  12.753   6.237
 4126POPC   D2A54436   1.824  12.931   6.605
 4126POPC   C3A54437   2.163  12.970   6.882
 4126POPC   C4A54438   2.101  12.808   7.263
 4126POPC   C1B54439   1.761  13.236   6.160
 4126POPC   C2B54440   1.596  13.397   6.576
 4126POPC   C3B54441   1.743  13.283   7.008
 4126POPC   C4B54442   1.826  13.216   7.467
 4127POPC   NC354443   2.132   4.197   5.220
 4127POPC   PO454444   1.761   4.702   5.477
 4127POPC   GL154445   2.042   4.472   5.769
 4127POPC   GL254446   2.122   4.104   5.733
 4127POPC   C1A54447   1.968   4.365   6.197
 4127POPC   D2A54448   2.033   4.428   6.641
 4127POPC   C3A54449   1.747   4.510   6.963
 4127POPC   C4A54450   1.879   4.330   7.346
 4127POPC   C1B54451   2.373   4.041   6.128
 4127POPC   C2B54452   2.475   4.207   6.566
 4127POPC   C3B54453   2.375   4.232   6.995
 4127POPC   C4B54454   2.232   3.982   7.351
 4128POPC   NC354455  44.124  19.638   5.404
 4128POPC   PO454456  43.520  19.929   5.489
 4128POPC   GL154457  43.753  19.629   5.807
 4128POPC   GL254458  44.107  19.753   5.890
 4128POPC   C1A54459  43.842  19.568   6.279
 4128POPC   D2A54460  44.001  19.902   6.554
 4128POPC   C3A54461  43.767  20.089   6.861
 4128POPC   C4A54462  43.683  19.808   7.147
 4128POPC   C1B54463  44.182  20.145   6.123
 4128POPC   C2B54464  44.413  20.189   6.528
 4128POPC   C3B54465  44.258  20.212   6.944
 4128POPC   C4B54466  44.163  19.944   7.297
 4129POPC   NC354467  18.308  22.882   5.174
 4129POPC   PO454468  18.194  23.422   5.426
 4129POPC   GL154469  18.395  23.232   5.808
 4129POPC   GL254470  18.149  23.025   5.948
 4129POPC   C1A54471  18.568  23.075   6.222
 4129POPC   D2A54472  18.484  22.826   6.604
 4129POPC   C3A54473  18.515  22.981   7.033
 4129POPC   C4A54474  18.359  22.816   7.421
 4129POPC   C1B54475  18.099  23.234   6.381
 4129POPC   C2B54476  18.069  23.181   6.863
 4129POPC   C3B54477  17.892  22.874   7.172
 4129POPC   C4B54478  17.482  22.853   7.421
 4130POPC   NC354479  11.045  28.596   5.312
 4130POPC   PO454480  11.518  28.184   5.197
 4130POPC   GL154481  11.506  28.342   5.644
 4130POPC   GL254482  11.386  28.673   5.687
 4130POPC   C1A54483  11.605  28.301   6.129
 4130POPC   D2A54484  11.635  28.071   6.547
 4130POPC   C3A54485  11.689  28.297   6.961
 4130POPC   C4A54486  11.459  28.466   7.292
 4130POPC   C1B54487  11.049  28.635   6.013
 4130POPC   C2B54488  11.081  28.431   6.421
 4130POPC   C3B54489  11.199  28.244   6.828
 4130POPC   C4B54490  11.012  28.227   7.239
 4131POPC   NC354491  12.138  11.896   5.334
 4131POPC   PO454492  11.751  12.435   5.492
 4131POPC   GL154493  11.967  12.131   5.786
 4131POPC   GL254494  12.185  11.806   5.811
 4131POPC   C1A54495  12.212  12.187   6.144
 4131POPC   D2A54496  12.316  12.286   6.529
 4131POPC   C3A54497  12.014  12.233   6.864
 4131POPC   C4A54498  12.169  12.066   7.209
 4131POPC   C1B54499  12.095  11.673   6.182
 4131POPC   C2B54500  12.159  11.802   6.573
 4131POPC   C3B54501  11.973  11.686   6.929
 4131POPC   C4B54502  11.683  11.907   7.188
 4132POPC   NC354503  41.519  29.752   5.422
 4132POPC   PO454504  41.875  30.264   5.407
 4132POPC   GL154505  41.844  29.990   5.798
 4132POPC   GL254506  41.823  29.610   5.825
 4132POPC   C1A54507  41.894  29.879   6.263
 4132POPC   D2A54508  41.644  29.973   6.643
 4132POPC   C3A54509  41.799  29.913   7.056
 4132POPC   C4A54510  41.709  30.031   7.478
 4132POPC   C1B54511  41.429  29.842   6.049
 4132POPC   C2B54512  41.186  30.060   6.351
 4132POPC   C3B54513  41.128  29.958   6.789
 4132POPC   C4B54514  41.309  29.910   7.166
 4133POPC   NC354515  38.246  32.777   5.575
 4133POPC   PO454516  38.607  32.318   5.260
 4133POPC   GL154517  38.423  32.278   5.718
 4133POPC   GL254518  38.062  32.302   5.769
 4133POPC   C1A54519  38.477  32.005   6.106
 4133POPC   D2A54520  38.679  32.250   6.442
 4133POPC   C3A54521  38.667  32.144   6.879
 4133POPC   C4A54522  38.870  32.346   7.215
 4133POPC   C1B54523  38.212  32.422   6.209
 4133POPC   C2B54524  38.203  32.246   6.640
 4133POPC   C3B54525  38.270  32.416   7.066
 4133POPC   C4B54526  37.998  32.364   7.452
 4134POPC   NC354527  41.365  27.778   5.360
 4134POPC   PO454528  42.010  27.416   5.512
 4134POPC   GL154529  41.861  27.772   5.754
 4134POPC   GL254530  41.523  27.668   5.838
 4134POPC   C1A54531  41.872  27.806   6.200
 4134POPC   D2A54532  41.533  27.777   6.509
 4134POPC   C3A54533  41.720  27.782   6.889
 4134POPC   C4A54534  41.641  27.526   7.251
 4134POPC   C1B54535  41.144  27.523   6.079
 4134POPC   C2B54536  40.955  27.550   6.493
 4134POPC   C3B54537  41.196  27.542   6.869
 4134POPC   C4B54538  41.097  27.340   7.224
 4135POPC   NC354539   8.476  39.830   5.211
 4135POPC   PO454540   8.076  40.241   5.490
 4135POPC   GL154541   8.075  40.144   5.919
 4135POPC   GL254542   8.311  39.906   5.841
 4135POPC   C1A54543   8.135  40.063   6.372
 4135POPC   D2A54544   8.246  40.278   6.756
 4135POPC   C3A54545   8.017  40.212   7.116
 4135POPC   C4A54546   7.981  39.890   7.406
 4135POPC   C1B54547   8.367  39.624   6.198
 4135POPC   C2B54548   8.309  39.549   6.634
 4135POPC   C3B54549   8.317  39.790   7.007
 4135POPC   C4B54550   8.408  39.617   7.414
 4136POPC   NC354551   0.650  34.056   5.469
 4136POPC   PO454552   0.127  33.542   5.400
 4136POPC   GL154553   0.148  33.767   5.775
 4136POPC   GL254554  44.960  33.452   5.896
 4136POPC   C1A54555   0.321  34.082   6.112
 4136POPC   D2A54556   0.565  34.091   6.522
 4136POPC   C3A54557   0.360  33.995   6.939
 4136POPC   C4A54558   0.552  33.768   7.296
 4136POPC   C1B54559   0.336  33.541   6.176
 4136POPC   C2B54560   0.481  33.582   6.606
 4136POPC   C3B54561   0.247  33.486   6.970
 4136POPC   C4B54562   0.057  33.614   7.315
 4137POPC   NC354563  17.425  44.895   5.527
 4137POPC   PO454564  17.927  44.461   5.538
 4137POPC   GL154565  17.613  44.584   5.885
 4137POPC   GL254566  17.283  44.477   5.822
 4137POPC   C1A54567  17.374  44.805   6.234
 4137POPC   D2A54568  17.544  44.734   6.646
 4137POPC   C3A54569  17.337  44.873   7.014
 4137POPC   C4A54570  17.527  44.662   7.364
 4137POPC   C1B54571  17.320  44.279   6.222
 4137POPC   C2B54572  17.155  44.406   6.614
 4137POPC   C3B54573  17.227  44.363   7.053
 4137POPC   C4B54574  17.026  44.575   7.395
 4138POPC   NC354575  34.415  28.719   5.473
 4138POPC   PO454576  34.750  28.186   5.407
 4138POPC   GL154577  34.753  28.457   5.792
 4138POPC   GL254578  34.868  28.802   5.777
 4138POPC   C1A54579  34.492  28.668   6.133
 4138POPC   D2A54580  34.341  28.627   6.577
 4138POPC   C3A54581  34.227  28.224   6.753
 4138POPC   C4A54582  34.477  28.052   7.106
 4138POPC   C1B54583  35.010  28.768   6.230
 4138POPC   C2B54584  34.962  28.768   6.701
 4138POPC   C3B54585  34.674  28.593   7.018
 4138POPC   C4B54586  34.642  28.636   7.475
 4139POPC   NC354587   5.429  12.347   5.375
 4139POPC   PO454588   6.073  11.969   5.354
 4139POPC   GL154589   6.079  11.837   5.774
 4139POPC   GL254590   6.390  11.978   5.848
 4139POPC   C1A54591   5.830  12.054   6.103
 4139POPC   D2A54592   5.837  12.314   6.461
 4139POPC   C3A54593   5.748  12.183   6.871
 4139POPC   C4A54594   5.745  12.036   7.298
 4139POPC   C1B54595   6.303  12.056   6.291
 4139POPC   C2B54596   6.246  12.114   6.718
 4139POPC   C3B54597   6.131  11.817   7.014
 4139POPC   C4B54598   6.223  11.715   7.439
 4140POPC   NC354599  11.817  26.668   5.372
 4140POPC   PO454600  12.465  26.897   5.372
 4140POPC   GL154601  12.235  26.720   5.732
 4140POPC   GL254602  11.916  26.555   5.847
 4140POPC   C1A54603  12.165  26.907   6.142
 4140POPC   D2A54604  12.051  27.025   6.568
 4140POPC   C3A54605  12.288  27.096   6.933
 4140POPC   C4A54606  12.012  26.964   7.237
 4140POPC   C1B54607  12.023  26.437   6.267
 4140POPC   C2B54608  11.889  26.249   6.640
 4140POPC   C3B54609  11.871  26.502   7.023
 4140POPC   C4B54610  11.891  26.538   7.504
 4141POPC   NC354611  25.774   6.025   5.467
 4141POPC   PO454612  26.091   5.442   5.411
 4141POPC   GL154613  25.899   5.622   5.787
 4141POPC   GL254614  25.920   5.326   5.928
 4141POPC   C1A54615  26.037   5.825   6.215
 4141POPC   D2A54616  26.127   5.723   6.702
 4141POPC   C3A54617  26.244   6.033   7.024
 4141POPC   C4A54618  26.013   6.352   7.286
 4141POPC   C1B54619  25.972   5.357   6.376
 4141POPC   C2B54620  25.697   5.455   6.736
 4141POPC   C3B54621  25.859   5.507   7.143
 4141POPC   C4B54622  26.291   5.479   7.326
 4142POPC   NC354623  40.187  34.984   5.367
 4142POPC   PO454624  39.551  35.179   5.322
 4142POPC   GL154625  39.862  35.249   5.686
 4142POPC   GL254626  40.119  35.548   5.665
 4142POPC   C1A54627  40.121  35.226   6.078
 4142POPC   D2A54628  39.979  35.189   6.507
 4142POPC   C3A54629  40.264  35.172   6.857
 4142POPC   C4A54630  40.035  35.358   7.169
 4142POPC   C1B54631  39.903  35.691   6.071
 4142POPC   C2B54632  39.902  35.911   6.494
 4142POPC   C3B54633  39.843  35.784   6.936
 4142POPC   C4B54634  39.737  35.724   7.389
 4143POPC   NC354635  32.341  17.897   5.707
 4143POPC   PO454636  32.241  18.338   5.294
 4143POPC   GL154637  32.116  18.351   5.760
 4143POPC   GL254638  32.051  18.061   6.075
 4143POPC   C1A54639  32.280  18.499   6.135
 4143POPC   D2A54640  32.150  18.378   6.545
 4143POPC   C3A54641  32.318  18.074   6.804
 4143POPC   C4A54642  32.312  18.394   7.118
 4143POPC   C1B54643  32.485  18.053   6.303
 4143POPC   C2B54644  32.792  17.945   6.585
 4143POPC   C3B54645  32.754  17.843   6.990
 4143POPC   C4B54646  32.507  17.946   7.306
 4144POPC   NC354647  20.332  41.238   5.444
 4144POPC   PO454648  20.657  40.726   5.372
 4144POPC   GL154649  20.493  40.812   5.742
 4144POPC   GL254650  20.319  40.566   5.817
 4144POPC   C1A54651  20.649  40.744   6.153
 4144POPC   D2A54652  20.930  40.635   6.474
 4144POPC   C3A54653  20.752  40.713   6.862
 4144POPC   C4A54654  20.622  40.851   7.241
 4144POPC   C1B54655  20.145  40.558   6.178
 4144POPC   C2B54656  20.381  40.520   6.546
 4144POPC   C3B54657  20.328  40.402   6.956
 4144POPC   C4B54658  20.154  40.616   7.273
 4145POPC   NC354659  25.335  26.265   5.423
 4145POPC   PO454660  25.492  25.677   5.226
 4145POPC   GL154661  25.539  25.890   5.708
 4145POPC   GL254662  25.662  26.272   5.812
 4145POPC   C1A54663  25.387  25.956   6.185
 4145POPC   D2A54664  25.080  25.970   6.572
 4145POPC   C3A54665  25.204  25.988   7.043
 4145POPC   C4A54666  25.013  25.922   7.485
 4145POPC   C1B54667  25.677  26.376   6.277
 4145POPC   C2B54668  25.500  26.273   6.713
 4145POPC   C3B54669  25.554  26.381   7.185
 4145POPC   C4B54670  25.498  26.406   7.652
 4146POPC   NC354671  33.271  14.609   5.297
 4146POPC   PO454672  32.674  14.488   5.293
 4146POPC   GL154673  33.031  14.617   5.738
 4146POPC   GL254674  32.752  14.681   5.895
 4146POPC   C1A54675  33.275  14.461   6.117
 4146POPC   D2A54676  33.222  14.712   6.513
 4146POPC   C3A54677  33.203  14.533   6.923
 4146POPC   C4A54678  33.035  14.701   7.298
 4146POPC   C1B54679  32.800  14.543   6.279
 4146POPC   C2B54680  32.747  14.469   6.685
 4146POPC   C3B54681  32.698  14.379   7.086
 4146POPC   C4B54682  32.487  14.077   7.315
 4147POPC   NC354683   7.839  37.315   5.558
 4147POPC   PO454684   7.306  37.547   5.184
 4147POPC   GL154685   7.437  37.744   5.644
 4147POPC   GL254686   7.772  37.736   5.824
 4147POPC   C1A54687   7.419  37.940   6.103
 4147POPC   D2A54688   7.291  37.917   6.512
 4147POPC   C3A54689   7.417  37.765   6.898
 4147POPC   C4A54690   7.299  38.023   7.246
 4147POPC   C1B54691   7.612  37.492   6.168
 4147POPC   C2B54692   7.763  37.560   6.550
 4147POPC   C3B54693   7.891  37.522   6.934
 4147POPC   C4B54694   7.766  37.717   7.283
 4148POPC   NC354695  42.583  22.704   5.451
 4148POPC   PO454696  41.981  23.139   5.345
 4148POPC   GL154697  42.272  23.033   5.700
 4148POPC   GL254698  42.158  22.690   5.829
 4148POPC   C1A54699  42.449  23.129   6.137
 4148POPC   D2A54700  42.574  22.921   6.556
 4148POPC   C3A54701  42.543  23.152   6.968
 4148POPC   C4A54702  42.322  23.109   7.376
 4148POPC   C1B54703  41.928  22.429   6.189
 4148POPC   C2B54704  41.848  22.483   6.662
 4148POPC   C3B54705  42.045  22.693   7.031
 4148POPC   C4B54706  42.038  22.702   7.522
 4149POPC   NC354707  12.334  27.342   5.294
 4149POPC   PO454708  11.921  27.815   5.372
 4149POPC   GL154709  11.936  27.575   5.753
 4149POPC   GL254710  11.866  27.169   5.752
 4149POPC   C1A54711  12.037  27.851   6.150
 4149POPC   D2A54712  12.224  28.003   6.540
 4149POPC   C3A54713  11.999  27.907   6.901
 4149POPC   C4A54714  12.290  27.704   7.139
 4149POPC   C1B54715  11.931  27.350   6.197
 4149POPC   C2B54716  12.072  27.516   6.605
 4149POPC   C3B54717  11.888  27.410   7.016
 4149POPC   C4B54718  11.541  27.315   7.279
 4150POPC   NC354719  43.603   1.881   5.420
 4150POPC   PO454720  42.913   1.947   5.302
 4150POPC   GL154721  43.038   2.073   5.749
 4150POPC   GL254722  43.399   2.217   5.769
 4150POPC   C1A54723  43.018   2.262   6.197
 4150POPC   D2A54724  42.798   2.182   6.609
 4150POPC   C3A54725  42.987   2.248   7.030
 4150POPC   C4A54726  43.409   2.255   7.148
 4150POPC   C1B54727  43.419   1.865   6.094
 4150POPC   C2B54728  43.200   1.861   6.496
 4150POPC   C3B54729  42.946   1.725   6.845
 4150POPC   C4B54730  43.040   1.789   7.273
 4151POPC   NC354731   1.619   5.188   5.629
 4151POPC   PO454732   2.285   5.495   5.581
 4151POPC   GL154733   2.247   5.251   5.941
 4151POPC   GL254734   1.999   4.972   5.913
 4151POPC   C1A54735   2.176   5.189   6.371
 4151POPC   D2A54736   1.906   4.905   6.579
 4151POPC   C3A54737   1.831   5.055   6.981
 4151POPC   C4A54738   2.135   5.260   7.214
 4151POPC   C1B54739   2.320   4.742   6.153
 4151POPC   C2B54740   2.437   4.743   6.601
 4151POPC   C3B54741   2.218   4.732   7.029
 4151POPC   C4B54742   1.992   4.816   7.433
 4152POPC   NC354743  44.895  16.346   5.365
 4152POPC   PO454744  44.543  16.907   5.468
 4152POPC   GL154745  44.726  16.663   5.730
 4152POPC   GL254746  44.939  16.907   5.821
 4152POPC   C1A54747  44.757  16.559   6.151
 4152POPC   D2A54748  44.748  16.759   6.540
 4152POPC   C3A54749  44.686  16.554   6.925
 4152POPC   C4A54750  44.834  16.570   7.350
 4152POPC   C1B54751   0.125  16.926   6.202
 4152POPC   C2B54752   0.124  17.106   6.604
 4152POPC   C3B54753  44.967  16.999   7.031
 4152POPC   C4B54754   0.135  16.981   7.468
 4153POPC   NC354755  16.280   0.959   5.466
 4153POPC   PO454756  15.833   1.468   5.426
 4153POPC   GL154757  15.845   1.240   5.829
 4153POPC   GL254758  16.044   0.962   5.905
 4153POPC   C1A54759  15.989   1.368   6.250
 4153POPC   D2A54760  15.809   1.611   6.584
 4153POPC   C3A54761  15.810   1.433   6.979
 4153POPC   C4A54762  15.830   1.605   7.375
 4153POPC   C1B54763  15.802   0.881   6.250
 4153POPC   C2B54764  15.681   1.043   6.649
 4153POPC   C3B54765  15.732   0.897   7.042
 4153POPC   C4B54766  16.037   1.077   7.279
 4154POPC   NC354767  43.954  33.311   5.622
 4154POPC   PO454768  43.604  33.840   5.283
 4154POPC   GL154769  43.636  33.983   5.720
 4154POPC   GL254770  43.909  33.793   5.805
 4154POPC   C1A54771  43.516  33.870   6.173
 4154POPC   D2A54772  43.444  33.743   6.624
 4154POPC   C3A54773  43.586  34.015   6.987
 4154POPC   C4A54774  44.001  34.249   7.121
 4154POPC   C1B54775  44.018  33.790   6.230
 4154POPC   C2B54776  43.961  33.848   6.685
 4154POPC   C3B54777  43.993  33.733   7.130
 4154POPC   C4B54778  43.791  33.487   7.464
 4155POPC   NC354779  31.432  33.338   5.667
 4155POPC   PO454780  31.777  32.800   5.503
 4155POPC   GL154781  31.596  32.899   5.903
 4155POPC   GL254782  31.261  32.786   5.849
 4155POPC   C1A54783  31.355  33.104   6.275
 4155POPC   D2A54784  31.041  33.306   6.556
 4155POPC   C3A54785  31.181  33.226   6.981
 4155POPC   C4A54786  31.563  32.943   7.105
 4155POPC   C1B54787  31.414  32.581   6.270
 4155POPC   C2B54788  31.530  32.544   6.733
 4155POPC   C3B54789  31.280  32.501   7.133
 4155POPC   C4B54790  31.239  32.513   7.634
 4156POPC   NC354791  34.811  11.531   5.401
 4156POPC   PO454792  34.205  11.667   5.466
 4156POPC   GL154793  34.387  11.380   5.767
 4156POPC   GL254794  34.650  11.140   5.687
 4156POPC   C1A54795  34.361  11.332   6.213
 4156POPC   D2A54796  34.477  11.531   6.599
 4156POPC   C3A54797  34.394  11.293   6.959
 4156POPC   C4A54798  34.405  11.535   7.313
 4156POPC   C1B54799  34.846  11.275   6.077
 4156POPC   C2B54800  34.787  11.117   6.493
 4156POPC   C3B54801  34.865  11.050   6.929
 4156POPC   C4B54802  34.736  11.145   7.345
 4157POPC   NC354803  27.121  15.145   5.667
 4157POPC   PO454804  27.647  15.314   5.357
 4157POPC   GL154805  27.686  15.152   5.785
 4157POPC   GL254806  27.770  14.791   5.748
 4157POPC   C1A54807  27.648  15.240   6.241
 4157POPC   D2A54808  27.415  15.214   6.667
 4157POPC   C3A54809  27.629  15.187   7.088
 4157POPC   C4A54810  27.538  15.203   7.582
 4157POPC   C1B54811  27.990  14.844   6.138
 4157POPC   C2B54812  27.870  14.924   6.585
 4157POPC   C3B54813  27.923  14.730   6.988
 4157POPC   C4B54814  27.762  14.764   7.398
 4158POPC   NC354815  37.399  23.266   5.452
 4158POPC   PO454816  38.008  22.889   5.375
 4158POPC   GL154817  37.854  22.747   5.781
 4158POPC   GL254818  37.510  22.854   5.766
 4158POPC   C1A54819  37.803  22.889   6.220
 4158POPC   D2A54820  37.483  22.807   6.524
 4158POPC   C3A54821  37.639  22.856   6.924
 4158POPC   C4A54822  37.830  22.716   7.280
 4158POPC   C1B54823  37.350  23.115   6.122
 4158POPC   C2B54824  37.218  23.303   6.532
 4158POPC   C3B54825  37.265  23.231   6.972
 4158POPC   C4B54826  37.477  23.099   7.336
 4159POPC   NC354827  41.537   0.108   5.137
 4159POPC   PO454828  41.751   0.756   5.403
 4159POPC   GL154829  41.781   0.550   5.809
 4159POPC   GL254830  41.434   0.601   5.841
 4159POPC   C1A54831  41.656   0.330   6.234
 4159POPC   D2A54832  41.385   0.083   6.514
 4159POPC   C3A54833  41.619   0.255   6.850
 4159POPC   C4A54834  41.895   0.336   7.196
 4159POPC   C1B54835  41.181   0.475   6.166
 4159POPC   C2B54836  41.291   0.579   6.523
 4159POPC   C3B54837  41.219   0.569   6.921
 4159POPC   C4B54838  41.519   0.687   7.219
 4160POPC   NC354839  13.746  11.745   5.419
 4160POPC   PO454840  13.337  11.223   5.592
 4160POPC   GL154841  13.459  11.529   5.894
 4160POPC   GL254842  13.838  11.644   5.919
 4160POPC   C1A54843  13.495  11.405   6.322
 4160POPC   D2A54844  13.578  11.064   6.611
 4160POPC   C3A54845  13.392  11.092   7.007
 4160POPC   C4A54846  13.554  11.045   7.437
 4160POPC   C1B54847  13.990  11.594   6.344
 4160POPC   C2B54848  13.774  11.526   6.736
 4160POPC   C3B54849  13.814  11.356   7.129
 4160POPC   C4B54850  14.021  11.371   7.535
 4161POPC   NC354851  36.302   5.959   5.548
 4161POPC   PO454852  35.780   5.597   5.340
 4161POPC   GL154853  35.951   5.708   5.804
 4161POPC   GL254854  36.089   6.110   5.963
 4161POPC   C1A54855  36.224   5.679   6.172
 4161POPC   D2A54856  36.237   5.889   6.554
 4161POPC   C3A54857  36.376   5.601   6.873
 4161POPC   C4A54858  36.035   5.698   7.146
 4161POPC   C1B54859  36.467   6.203   6.206
 4161POPC   C2B54860  36.537   6.339   6.652
 4161POPC   C3B54861  36.386   6.087   7.031
 4161POPC   C4B54862  36.519   5.769   7.347
 4162POPC   NC354863  36.224  17.960   5.311
 4162POPC   PO454864  36.671  18.224   5.477
 4162POPC   GL154865  36.274  18.152   5.788
 4162POPC   GL254866  35.998  17.874   5.825
 4162POPC   C1A54867  36.109  18.194   6.241
 4162POPC   D2A54868  36.141  17.961   6.658
 4162POPC   C3A54869  35.999  18.135   7.050
 4162POPC   C4A54870  36.064  18.557   7.192
 4162POPC   C1B54871  35.821  17.777   6.285
 4162POPC   C2B54872  35.739  17.638   6.728
 4162POPC   C3B54873  35.910  17.640   7.146
 4162POPC   C4B54874  35.915  17.897   7.516
 4163POPC   NC354875  27.050  38.410   5.322
 4163POPC   PO454876  26.561  38.857   5.449
 4163POPC   GL154877  26.827  38.638   5.722
 4163POPC   GL254878  26.622  38.364   5.839
 4163POPC   C1A54879  26.930  38.740   6.142
 4163POPC   D2A54880  26.683  38.748   6.529
 4163POPC   C3A54881  26.848  38.690   6.945
 4163POPC   C4A54882  26.620  38.432   7.231
 4163POPC   C1B54883  26.829  38.242   6.184
 4163POPC   C2B54884  27.039  38.356   6.531
 4163POPC   C3B54885  26.947  38.187   6.903
 4163POPC   C4B54886  27.106  38.255   7.271
 4164POPC   NC354887  11.555  21.188   5.455
 4164POPC   PO454888  11.068  21.653   5.356
 4164POPC   GL154889  11.211  21.523   5.763
 4164POPC   GL254890  11.174  21.198   5.856
 4164POPC   C1A54891  11.000  21.595   6.176
 4164POPC   D2A54892  10.995  21.394   6.630
 4164POPC   C3A54893  11.323  21.473   6.974
 4164POPC   C4A54894  11.348  21.495   7.435
 4164POPC   C1B54895  11.340  21.246   6.270
 4164POPC   C2B54896  11.460  21.084   6.670
 4164POPC   C3B54897  11.699  20.959   7.037
 4164POPC   C4B54898  11.644  21.035   7.436
 4165POPC   NC354899  37.384   8.937   5.392
 4165POPC   PO454900  37.941   9.292   5.399
 4165POPC   GL154901  37.842   8.950   5.781
 4165POPC   GL254902  37.498   8.820   5.856
 4165POPC   C1A54903  37.757   8.965   6.264
 4165POPC   D2A54904  37.860   8.787   6.683
 4165POPC   C3A54905  37.774   9.098   6.968
 4165POPC   C4A54906  37.608   9.200   7.373
 4165POPC   C1B54907  37.448   8.558   6.222
 4165POPC   C2B54908  37.361   8.719   6.642
 4165POPC   C3B54909  37.461   8.729   7.106
 4165POPC   C4B54910  37.201   8.846   7.485
 4166POPC   NC354911   2.348   2.360   5.477
 4166POPC   PO454912   2.895   2.038   5.187
 4166POPC   GL154913   2.769   2.068   5.679
 4166POPC   GL254914   2.555   2.190   5.906
 4166POPC   C1A54915   2.928   1.910   6.142
 4166POPC   D2A54916   2.917   1.662   6.589
 4166POPC   C3A54917   2.739   1.781   7.031
 4166POPC   C4A54918   2.819   2.189   7.244
 4166POPC   C1B54919   2.421   1.875   6.228
 4166POPC   C2B54920   2.397   1.713   6.624
 4166POPC   C3B54921   2.219   1.703   6.997
 4166POPC   C4B54922   2.289   1.872   7.354
 4167POPC   NC354923  13.067  28.629   5.405
 4167POPC   PO454924  12.619  28.199   5.680
 4167POPC   GL154925  12.879  28.437   5.868
 4167POPC   GL254926  12.802  28.776   5.806
 4167POPC   C1A54927  12.831  28.425   6.300
 4167POPC   D2A54928  12.627  28.321   6.632
 4167POPC   C3A54929  12.732  28.548   6.977
 4167POPC   C4A54930  12.555  28.453   7.357
 4167POPC   C1B54931  13.088  28.820   6.140
 4167POPC   C2B54932  13.062  28.795   6.588
 4167POPC   C3B54933  13.206  28.747   7.023
 4167POPC   C4B54934  13.085  28.574   7.405
 4168POPC   NC354935   5.992   9.838   5.512
 4168POPC   PO454936   5.518   9.476   5.489
 4168POPC   GL154937   5.704   9.649   5.892
 4168POPC   GL254938   6.086   9.577   5.929
 4168POPC   C1A54939   5.756   9.799   6.319
 4168POPC   D2A54940   5.568   9.969   6.707
 4168POPC   C3A54941   5.814   9.789   7.040
 4168POPC   C4A54942   6.179   9.940   7.198
 4168POPC   C1B54943   5.988   9.317   6.258
 4168POPC   C2B54944   5.957   9.449   6.675
 4168POPC   C3B54945   6.116   9.379   7.074
 4168POPC   C4B54946   6.074   9.470   7.505
 4169POPC   NC354947  34.838  27.075   5.499
 4169POPC   PO454948  34.602  26.515   5.195
 4169POPC   GL154949  34.481  26.662   5.643
 4169POPC   GL254950  34.347  27.013   5.705
 4169POPC   C1A54951  34.528  26.598   6.106
 4169POPC   D2A54952  34.378  26.484   6.522
 4169POPC   C3A54953  34.509  26.717   6.893
 4169POPC   C4A54954  34.806  26.605   7.202
 4169POPC   C1B54955  34.492  27.144   6.110
 4169POPC   C2B54956  34.677  26.938   6.458
 4169POPC   C3B54957  34.956  26.994   6.767
 4169POPC   C4B54958  34.891  27.112   7.164
 4170POPC   NC354959  16.726   4.850   5.397
 4170POPC   PO454960  16.325   5.516   5.440
 4170POPC   GL154961  16.637   5.258   5.675
 4170POPC   GL254962  16.948   5.411   5.773
 4170POPC   C1A54963  16.645   5.172   6.106
 4170POPC   D2A54964  16.713   5.374   6.483
 4170POPC   C3A54965  16.549   5.177   6.849
 4170POPC   C4A54966  16.742   5.122   7.228
 4170POPC   C1B54967  17.137   5.235   6.173
 4170POPC   C2B54968  17.193   5.259   6.606
 4170POPC   C3B54969  17.203   5.103   6.999
 4170POPC   C4B54970  17.417   5.280   7.321
 4171POPC   NC354971  37.694  44.218   5.347
 4171POPC   PO454972  37.623  43.548   5.270
 4171POPC   GL154973  37.726  43.843   5.670
 4171POPC   GL254974  37.447  43.931   5.754
 4171POPC   C1A54975  37.765  43.945   6.143
 4171POPC   D2A54976  37.708  43.918   6.616
 4171POPC   C3A54977  37.617  43.601   6.974
 4171POPC   C4A54978  37.889  43.625   7.362
 4171POPC   C1B54979  37.254  44.041   6.126
 4171POPC   C2B54980  37.199  43.843   6.508
 4171POPC   C3B54981  37.283  44.038   6.898
 4171POPC   C4B54982  37.572  44.049   7.237
 4172POPC   NC354983  42.938  27.702   5.449
 4172POPC   PO454984  43.516  27.336   5.489
 4172POPC   GL154985  43.195  27.431   5.827
 4172POPC   GL254986  43.269  27.762   5.924
 4172POPC   C1A54987  42.967  27.480   6.240
 4172POPC   D2A54988  42.818  27.314   6.639
 4172POPC   C3A54989  43.113  27.353   7.009
 4172POPC   C4A54990  43.403  27.268   7.308
 4172POPC   C1B54991  43.226  27.961   6.313
 4172POPC   C2B54992  42.917  27.890   6.661
 4172POPC   C3B54993  42.933  27.907   7.120
 4172POPC   C4B54994  43.297  27.944   7.470
 4173POPC   NC354995  29.499  20.391   5.247
 4173POPC   PO454996  28.890  20.624   5.292
 4173POPC   GL154997  29.133  20.426   5.630
 4173POPC   GL254998  29.328  20.708   5.745
 4173POPC   C1A54999  29.239  20.321   6.080
 4173POPC   D2A55000  29.079  20.450   6.485
 4173POPC   C3A55001  29.288  20.470   6.831
 4173POPC   C4A55002  29.068  20.384   7.159
 4173POPC   C1B55003  29.279  20.835   6.196
 4173POPC   C2B55004  29.212  20.924   6.640
 4173POPC   C3B55005  29.125  20.919   7.080
 4173POPC   C4B55006  29.197  21.197   7.425
 4174POPC   NC355007   2.064  21.044   5.474
 4174POPC   PO455008   2.211  21.761   5.516
 4174POPC   GL155009   2.168  21.483   5.837
 4174POPC   GL255010   1.858  21.311   5.864
 4174POPC   C1A55011   2.229  21.332   6.256
 4174POPC   D2A55012   2.059  21.506   6.639
 4174POPC   C3A55013   2.138  21.368   7.067
 4174POPC   C4A55014   1.970  21.631   7.422
 4174POPC   C1B55015   1.725  21.157   6.303
 4174POPC   C2B55016   1.652  21.212   6.767
 4174POPC   C3B55017   1.660  21.302   7.197
 4174POPC   C4B55018   1.825  21.164   7.575
 4175POPC   NC355019  28.917  43.249   5.213
 4175POPC   PO455020  29.254  42.726   5.436
 4175POPC   GL155021  29.254  43.126   5.664
 4175POPC   GL255022  28.908  43.183   5.730
 4175POPC   C1A55023  29.257  43.186   6.130
 4175POPC   D2A55024  29.452  43.097   6.554
 4175POPC   C3A55025  29.228  42.930   6.905
 4175POPC   C4A55026  29.120  42.894   7.335
 4175POPC   C1B55027  28.744  43.032   6.136
 4175POPC   C2B55028  28.869  43.068   6.559
 4175POPC   C3B55029  28.745  43.101   7.001
 4175POPC   C4B55030  28.846  43.296   7.405
 4176POPC   NC355031   2.561  37.366   5.437
 4176POPC   PO455032   3.103  37.655   5.742
 4176POPC   GL155033   2.689  37.713   5.890
 4176POPC   GL255034   2.455  37.423   5.927
 4176POPC   C1A55035   2.525  37.935   6.235
 4176POPC   D2A55036   2.757  37.893   6.581
 4176POPC   C3A55037   2.623  37.932   6.972
 4176POPC   C4A55038   2.915  37.599   7.125
 4176POPC   C1B55039   2.599  37.411   6.336
 4176POPC   C2B55040   2.618  37.413   6.766
 4176POPC   C3B55041   2.358  37.522   7.091
 4176POPC   C4B55042   2.270  37.603   7.497
 4177POPC   NC355043  19.416  18.508   5.379
 4177POPC   PO455044  19.182  17.812   5.330
 4177POPC   GL155045  19.315  17.990   5.744
 4177POPC   GL255046  19.148  18.299   5.758
 4177POPC   C1A55047  19.146  18.040   6.194
 4177POPC   D2A55048  18.962  18.275   6.579
 4177POPC   C3A55049  18.974  18.101   7.004
 4177POPC   C4A55050  19.266  18.208   7.327
 4177POPC   C1B55051  19.251  18.540   6.120
 4177POPC   C2B55052  19.214  18.770   6.518
 4177POPC   C3B55053  19.233  18.596   6.928
 4177POPC   C4B55054  18.936  18.612   7.222
 4178POPC   NC355055  27.627   2.973   5.346
 4178POPC   PO455056  26.960   2.887   5.279
 4178POPC   GL155057  27.285   2.826   5.717
 4178POPC   GL255058  27.671   2.879   5.829
 4178POPC   C1A55059  27.401   2.664   6.194
 4178POPC   D2A55060  27.350   2.818   6.635
 4178POPC   C3A55061  27.624   2.715   6.988
 4178POPC   C4A55062  27.562   2.734   7.469
 4178POPC   C1B55063  27.893   3.069   6.184
 4178POPC   C2B55064  27.950   2.934   6.614
 4178POPC   C3B55065  28.062   3.044   7.032
 4178POPC   C4B55066  27.907   3.108   7.435
 4179POPC   NC355067   1.719   8.007   5.531
 4179POPC   PO455068   2.367   8.069   5.434
 4179POPC   GL155069   2.140   8.173   5.834
 4179POPC   GL255070   1.861   7.990   6.007
 4179POPC   C1A55071   2.273   8.090   6.276
 4179POPC   D2A55072   2.117   7.881   6.653
 4179POPC   C3A55073   2.201   8.042   7.091
 4179POPC   C4A55074   2.140   8.351   7.445
 4179POPC   C1B55075   1.793   8.222   6.379
 4179POPC   C2B55076   1.874   8.332   6.797
 4179POPC   C3B55077   1.712   8.157   7.167
 4179POPC   C4B55078   1.312   8.060   7.399
 4180POPC   NC355079  21.155   7.131   5.129
 4180POPC   PO455080  21.516   7.636   5.335
 4180POPC   GL155081  21.574   7.498   5.793
 4180POPC   GL255082  21.681   7.168   5.955
 4180POPC   C1A55083  21.428   7.610   6.224
 4180POPC   D2A55084  21.180   7.579   6.616
 4180POPC   C3A55085  21.402   7.610   6.994
 4180POPC   C4A55086  21.736   7.744   7.271
 4180POPC   C1B55087  21.393   7.111   6.323
 4180POPC   C2B55088  21.471   7.153   6.751
 4180POPC   C3B55089  21.547   7.171   7.182
 4180POPC   C4B55090  21.159   7.266   7.310
 4181POPC   NC355091  20.160  29.042   5.459
 4181POPC   PO455092  19.524  29.214   5.359
 4181POPC   GL155093  19.784  29.335   5.695
 4181POPC   GL255094  19.762  28.991   5.793
 4181POPC   C1A55095  19.762  29.331   6.175
 4181POPC   D2A55096  19.883  29.073   6.556
 4181POPC   C3A55097  19.897  29.167   6.999
 4181POPC   C4A55098  19.842  29.489   7.301
 4181POPC   C1B55099  19.764  28.751   6.172
 4181POPC   C2B55100  19.747  28.587   6.605
 4181POPC   C3B55101  19.502  28.863   6.848
 4181POPC   C4B55102  19.404  28.991   7.238
 4182POPC   NC355103  44.950   4.667   5.461
 4182POPC   PO455104  44.498   4.119   5.346
 4182POPC   GL155105  44.607   4.157   5.775
 4182POPC   GL255106  44.806   3.854   5.751
 4182POPC   C1A55107  44.659   4.458   6.144
 4182POPC   D2A55108  44.431   4.555   6.552
 4182POPC   C3A55109  44.517   4.280   6.902
 4182POPC   C4A55110  44.800   4.423   7.224
 4182POPC   C1B55111  44.934   3.985   6.162
 4182POPC   C2B55112  44.953   4.157   6.575
 4182POPC   C3B55113  44.961   4.004   6.978
 4182POPC   C4B55114   0.115   4.045   7.380
 4183POPC   NC355115  27.035  11.029   5.445
 4183POPC   PO455116  26.496  11.116   5.480
 4183POPC   GL155117  26.675  11.298   5.894
 4183POPC   GL255118  27.011  11.411   5.822
 4183POPC   C1A55119  26.620  11.543   6.330
 4183POPC   D2A55120  26.527  11.680   6.799
 4183POPC   C3A55121  26.653  11.372   7.153
 4183POPC   C4A55122  26.902  11.087   7.439
 4183POPC   C1B55123  27.079  11.308   6.275
 4183POPC   C2B55124  26.921  11.356   6.719
 4183POPC   C3B55125  27.167  11.420   7.129
 4183POPC   C4B55126  27.245  11.426   7.622
 4184POPC   NC355127  19.152  35.870   5.502
 4184POPC   PO455128  19.223  35.311   5.235
 4184POPC   GL155129  19.109  35.239   5.694
 4184POPC   GL255130  18.888  35.506   5.829
 4184POPC   C1A55131  18.964  35.094   6.132
 4184POPC   D2A55132  18.807  35.208   6.554
 4184POPC   C3A55133  18.965  35.194   6.979
 4184POPC   C4A55134  19.130  34.911   7.287
 4184POPC   C1B55135  18.905  35.615   6.272
 4184POPC   C2B55136  19.053  35.678   6.725
 4184POPC   C3B55137  18.890  35.697   7.160
 4184POPC   C4B55138  18.922  35.538   7.622
 4185POPC   NC355139  24.400  32.706   5.038
 4185POPC   PO455140  24.383  32.202   5.570
 4185POPC   GL155141  24.659  32.283   5.862
 4185POPC   GL255142  24.403  32.415   6.085
 4185POPC   C1A55143  24.710  32.005   6.203
 4185POPC   D2A55144  24.609  32.250   6.547
 4185POPC   C3A55145  24.499  32.088   6.967
 4185POPC   C4A55146  24.764  31.974   7.309
 4185POPC   C1B55147  24.303  32.765   6.370
 4185POPC   C2B55148  23.960  32.785   6.643
 4185POPC   C3B55149  23.894  32.555   6.992
 4185POPC   C4B55150  24.188  32.373   7.265
 4186POPC   NC355151  42.037  15.414   5.349
 4186POPC   PO455152  42.552  15.015   5.526
 4186POPC   GL155153  42.271  15.209   5.825
 4186POPC   GL255154  41.974  15.023   5.963
 4186POPC   C1A55155  42.383  15.137   6.259
 4186POPC   D2A55156  42.374  14.791   6.532
 4186POPC   C3A55157  42.592  14.951   6.889
 4186POPC   C4A55158  42.523  15.370   7.083
 4186POPC   C1B55159  41.911  15.066   6.418
 4186POPC   C2B55160  42.147  15.174   6.780
 4186POPC   C3B55161  42.046  15.154   7.198
 4186POPC   C4B55162  41.854  14.826   7.356
 4187POPC   NC355163  24.787  33.443   5.399
 4187POPC   PO455164  24.382  33.984   5.563
 4187POPC   GL155165  24.566  33.888   5.979
 4187POPC   GL255166  24.880  33.710   6.008
 4187POPC   C1A55167  24.488  33.813   6.410
 4187POPC   D2A55168  24.138  33.759   6.721
 4187POPC   C3A55169  24.147  33.548   7.138
 4187POPC   C4A55170  24.258  33.774   7.551
 4187POPC   C1B55171  24.920  33.515   6.454
 4187POPC   C2B55172  24.602  33.536   6.827
 4187POPC   C3B55173  24.520  33.878   7.101
 4187POPC   C4B55174  24.765  33.955   7.464
 4188POPC   NC355175   5.265  37.423   5.391
 4188POPC   PO455176   5.035  38.058   5.105
 4188POPC   GL155177   5.115  37.897   5.576
 4188POPC   GL255178   5.005  37.572   5.786
 4188POPC   C1A55179   5.051  37.992   6.054
 4188POPC   D2A55180   4.772  37.903   6.447
 4188POPC   C3A55181   4.810  37.844   6.939
 4188POPC   C4A55182   5.029  37.834   7.379
 4188POPC   C1B55183   5.193  37.543   6.221
 4188POPC   C2B55184   5.038  37.488   6.649
 4188POPC   C3B55185   5.141  37.421   7.075
 4188POPC   C4B55186   4.868  37.323   7.410
 4189POPC   NC355187  35.705   0.817   5.020
 4189POPC   PO455188  36.095   0.363   5.334
 4189POPC   GL155189  36.216   0.389   5.744
 4189POPC   GL255190  36.484   0.163   5.791
 4189POPC   C1A55191  36.028   0.421   6.128
 4189POPC   D2A55192  36.067   0.349   6.570
 4189POPC   C3A55193  36.238   0.612   6.818
 4189POPC   C4A55194  36.303   0.643   7.221
 4189POPC   C1B55195  36.407   0.107   6.248
 4189POPC   C2B55196  36.331  44.923   6.639
 4189POPC   C3B55197  36.373   0.132   7.026
 4189POPC   C4B55198  36.329   0.151   7.465
 4190POPC   NC355199   9.405  28.621   5.667
 4190POPC   PO455200   8.866  28.367   5.292
 4190POPC   GL155201   8.894  28.512   5.726
 4190POPC   GL255202   8.561  28.520   5.834
 4190POPC   C1A55203   8.936  28.561   6.195
 4190POPC   D2A55204   9.127  28.251   6.474
 4190POPC   C3A55205   9.347  28.376   6.835
 4190POPC   C4A55206   9.338  28.246   7.230
 4190POPC   C1B55207   8.709  28.141   6.062
 4190POPC   C2B55208   8.639  28.130   6.536
 4190POPC   C3B55209   8.896  28.145   6.931
 4190POPC   C4B55210   8.903  28.520   7.201
 4191POPC   NC355211   0.733  25.672   5.330
 4191POPC   PO455212   0.098  25.467   5.300
 4191POPC   GL155213   0.421  25.199   5.556
 4191POPC   GL255214   0.696  25.364   5.711
 4191POPC   C1A55215   0.430  25.100   6.030
 4191POPC   D2A55216   0.531  25.241   6.462
 4191POPC   C3A55217   0.224  25.299   6.780
 4191POPC   C4A55218   0.228  25.292   7.226
 4191POPC   C1B55219   0.839  25.469   6.102
 4191POPC   C2B55220   1.007  25.471   6.507
 4191POPC   C3B55221   0.811  25.408   6.903
 4191POPC   C4B55222   0.702  25.456   7.311
 4192POPC   NC355223   7.411  12.200   5.332
 4192POPC   PO455224   7.239  11.548   5.413
 4192POPC   GL155225   7.356  11.817   5.786
 4192POPC   GL255226   7.557  12.079   5.800
 4192POPC   C1A55227   7.186  12.038   6.169
 4192POPC   D2A55228   7.242  12.301   6.536
 4192POPC   C3A55229   7.092  12.184   6.926
 4192POPC   C4A55230   7.167  11.831   7.219
 4192POPC   C1B55231   7.702  12.021   6.201
 4192POPC   C2B55232   7.755  12.265   6.577
 4192POPC   C3B55233   7.596  12.112   6.933
 4192POPC   C4B55234   7.669  11.946   7.305
 4193POPC   NC355235   0.762  42.277   5.499
 4193POPC   PO455236   1.392  42.183   5.357
 4193POPC   GL155237   1.233  42.437   5.720
 4193POPC   GL255238   1.001  42.728   5.666
 4193POPC   C1A55239   1.107  42.334   6.146
 4193POPC   D2A55240   1.186  42.502   6.551
 4193POPC   C3A55241   1.150  42.326   6.966
 4193POPC   C4A55242   1.371  42.509   7.315
 4193POPC   C1B55243   0.778  42.740   6.081
 4193POPC   C2B55244   0.750  42.884   6.501
 4193POPC   C3B55245   0.916  42.815   6.897
 4193POPC   C4B55246   0.882  42.673   7.274
 4194POPC   NC355247  16.089  33.300   5.499
 4194POPC   PO455248  15.660  32.819   5.466
 4194POPC   GL155249  15.645  33.160   5.763
 4194POPC   GL255250  15.967  32.982   5.869
 4194POPC   C1A55251  15.701  33.214   6.241
 4194POPC   D2A55252  15.925  32.907   6.548
 4194POPC   C3A55253  15.809  32.795   6.986
 4194POPC   C4A55254  15.806  33.060   7.324
 4194POPC   C1B55255  16.222  33.145   6.189
 4194POPC   C2B55256  16.375  33.133   6.599
 4194POPC   C3B55257  16.166  33.233   6.965
 4194POPC   C4B55258  16.290  33.237   7.379
 4195POPC   NC355259  31.824   8.009   5.347
 4195POPC   PO455260  32.333   8.446   5.182
 4195POPC   GL155261  32.258   8.300   5.670
 4195POPC   GL255262  32.019   8.032   5.809
 4195POPC   C1A55263  32.392   8.188   6.120
 4195POPC   D2A55264  32.274   8.180   6.552
 4195POPC   C3A55265  32.454   7.995   6.917
 4195POPC   C4A55266  32.456   8.330   7.226
 4195POPC   C1B55267  31.862   8.120   6.225
 4195POPC   C2B55268  31.835   7.935   6.648
 4195POPC   C3B55269  31.986   8.135   7.014
 4195POPC   C4B55270  31.853   8.225   7.404
 4196POPC   NC355271  34.354  12.216   5.376
 4196POPC   PO455272  34.971  12.296   5.596
 4196POPC   GL155273  34.632  12.009   5.765
 4196POPC   GL255274  34.372  12.267   5.893
 4196POPC   C1A55275  34.464  11.845   6.173
 4196POPC   D2A55276  34.472  12.092   6.575
 4196POPC   C3A55277  34.463  11.954   6.982
 4196POPC   C4A55278  34.815  11.744   7.095
 4196POPC   C1B55279  34.736  12.327   6.209
 4196POPC   C2B55280  34.871  12.457   6.647
 4196POPC   C3B55281  34.776  12.358   7.060
 4196POPC   C4B55282  34.382  12.468   7.277
 4197POPC   NC355283  31.102  11.306   5.312
 4197POPC   PO455284  30.410  11.293   5.366
 4197POPC   GL155285  30.641  11.364   5.739
 4197POPC   GL255286  30.883  11.633   5.698
 4197POPC   C1A55287  30.566  11.209   6.183
 4197POPC   D2A55288  30.379  11.213   6.612
 4197POPC   C3A55289  30.692  11.234   6.963
 4197POPC   C4A55290  30.731  11.065   7.364
 4197POPC   C1B55291  30.678  11.706   6.136
 4197POPC   C2B55292  30.759  11.534   6.547
 4197POPC   C3B55293  30.841  11.703   6.976
 4197POPC   C4B55294  31.102  11.441   7.239
 4198POPC   NC355295  22.403  35.447   5.357
 4198POPC   PO455296  21.710  35.459   5.394
 4198POPC   GL155297  21.911  35.428   5.798
 4198POPC   GL255298  21.699  35.178   5.895
 4198POPC   C1A55299  22.205  35.218   6.108
 4198POPC   D2A55300  22.160  35.033   6.560
 4198POPC   C3A55301  22.310  35.281   6.930
 4198POPC   C4A55302  22.447  35.381   7.350
 4198POPC   C1B55303  21.756  35.329   6.306
 4198POPC   C2B55304  21.770  35.351   6.738
 4198POPC   C3B55305  21.855  35.062   7.041
 4198POPC   C4B55306  21.965  35.243   7.401
 4199POPC   NC355307  23.311  39.266   5.327
 4199POPC   PO455308  22.640  39.360   5.086
 4199POPC   GL155309  22.825  39.329   5.556
 4199POPC   GL255310  22.977  39.042   5.670
 4199POPC   C1A55311  22.963  39.489   6.002
 4199POPC   D2A55312  23.197  39.346   6.409
 4199POPC   C3A55313  23.168  39.491   6.851
 4199POPC   C4A55314  22.796  39.518   7.143
 4199POPC   C1B55315  22.925  38.986   6.104
 4199POPC   C2B55316  23.098  38.833   6.501
 4199POPC   C3B55317  23.015  38.983   6.914
 4199POPC   C4B55318  22.961  39.060   7.338
 4200POPC   NC355319  31.688  17.271   5.415
 4200POPC   PO455320  31.358  17.910   5.354
 4200POPC   GL155321  31.540  17.680   5.776
 4200POPC   GL255322  31.406  17.343   5.874
 4200POPC   C1A55323  31.680  17.702   6.208
 4200POPC   D2A55324  31.523  17.554   6.618
 4200POPC   C3A55325  31.764  17.573   7.003
 4200POPC   C4A55326  31.663  17.721   7.438
 4200POPC   C1B55327  31.423  16.976   6.196
 4200POPC   C2B55328  31.514  17.035   6.652
 4200POPC   C3B55329  31.387  17.214   7.020
 4200POPC   C4B55330  31.528  17.234   7.403
 4201POPC   NC355331   9.170  42.715   5.405
 4201POPC   PO455332   8.803  42.264   5.248
 4201POPC   GL155333   8.785  42.405   5.694
 4201POPC   GL255334   8.919  42.700   5.881
 4201POPC   C1A55335   8.883  42.226   6.117
 4201POPC   D2A55336   8.881  42.373   6.559
 4201POPC   C3A55337   8.914  42.074   6.892
 4201POPC   C4A55338   9.092  42.244   7.248
 4201POPC   C1B55339   9.212  42.601   6.242
 4201POPC   C2B55340   9.405  42.648   6.675
 4201POPC   C3B55341   9.381  42.653   7.146
 4201POPC   C4B55342   9.399  42.469   7.569
 4202POPC   NC355343   2.921  13.052   5.334
 4202POPC   PO455344   2.826  13.722   5.295
 4202POPC   GL155345   2.817  13.697   5.784
 4202POPC   GL255346   2.597  13.379   5.937
 4202POPC   C1A55347   2.598  13.808   6.182
 4202POPC   D2A55348   2.608  13.560   6.570
 4202POPC   C3A55349   2.665  13.822   6.939
 4202POPC   C4A55350   2.484  13.849   7.325
 4202POPC   C1B55351   2.978  13.438   6.185
 4202POPC   C2B55352   3.148  13.447   6.568
 4202POPC   C3B55353   2.996  13.404   6.940
 4202POPC   C4B55354   3.143  13.705   7.204
 4203POPC   NC355355  31.881   9.662   5.525
 4203POPC   PO455356  31.209   9.635   5.351
 4203POPC   GL155357  31.382   9.762   5.741
 4203POPC   GL255358  31.402   9.485   5.945
 4203POPC   C1A55359  31.315   9.973   6.139
 4203POPC   D2A55360  31.466   9.880   6.545
 4203POPC   C3A55361  31.248   9.931   6.910
 4203POPC   C4A55362  31.449  10.012   7.274
 4203POPC   C1B55363  31.710   9.609   6.188
 4203POPC   C2B55364  31.829   9.498   6.598
 4203POPC   C3B55365  31.683   9.639   6.956
 4203POPC   C4B55366  31.471   9.509   7.259
 4204POPC   NC355367  44.924   0.634   5.522
 4204POPC   PO455368  44.691  45.000   5.383
 4204POPC   GL155369  44.769   0.215   5.770
 4204POPC   GL255370  44.543   0.444   5.843
 4204POPC   C1A55371  44.833   0.129   6.205
 4204POPC   D2A55372  44.585   0.216   6.580
 4204POPC   C3A55373  44.785   0.198   6.945
 4204POPC   C4A55374  44.767   0.408   7.337
 4204POPC   C1B55375  44.650   0.612   6.272
 4204POPC   C2B55376  44.625   0.753   6.695
 4204POPC   C3B55377  44.420   0.571   7.013
 4204POPC   C4B55378  44.349   0.694   7.446
 4205POPC   NC355379  42.606  35.785   5.699
 4205POPC   PO455380  43.116  36.181   5.399
 4205POPC   GL155381  43.232  36.087   5.841
 4205POPC   GL255382  42.985  35.867   6.047
 4205POPC   C1A55383  43.157  36.317   6.231
 4205POPC   D2A55384  43.041  36.225   6.668
 4205POPC   C3A55385  43.124  36.527   6.974
 4205POPC   C4A55386  43.352  36.411   7.295
 4205POPC   C1B55387  42.969  35.537   6.370
 4205POPC   C2B55388  43.060  35.484   6.794
 4205POPC   C3B55389  43.179  35.827   6.991
 4205POPC   C4B55390  42.931  36.102   7.202
 4206POPC   NC355391  28.356  40.645   5.389
 4206POPC   PO455392  28.316  41.300   5.530
 4206POPC   GL155393  28.304  40.928   5.835
 4206POPC   GL255394  28.500  40.564   5.873
 4206POPC   C1A55395  28.416  40.857   6.266
 4206POPC   D2A55396  28.576  40.908   6.668
 4206POPC   C3A55397  28.269  41.004   6.988
 4206POPC   C4A55398  28.109  40.899   7.399
 4206POPC   C1B55399  28.731  40.424   6.272
 4206POPC   C2B55400  28.607  40.346   6.717
 4206POPC   C3B55401  28.653  40.620   7.084
 4206POPC   C4B55402  28.645  40.961   7.325
 4207POPC   NC355403  40.365   0.988   5.073
 4207POPC   PO455404  40.214   0.414   5.329
 4207POPC   GL155405  40.216   0.456   5.769
 4207POPC   GL255406  40.433   0.732   5.767
 4207POPC   C1A55407  39.955   0.338   6.129
 4207POPC   D2A55408  39.996   0.438   6.562
 4207POPC   C3A55409  39.710   0.572   6.865
 4207POPC   C4A55410  39.886   0.472   7.247
 4207POPC   C1B55411  40.266   0.779   6.193
 4207POPC   C2B55412  40.000   0.948   6.529
 4207POPC   C3B55413  40.151   0.806   6.939
 4207POPC   C4B55414  40.224   0.863   7.377
 4208POPC   NC355415  42.118  43.539   5.448
 4208POPC   PO455416  42.398  44.196   5.334
 4208POPC   GL155417  42.331  44.008   5.798
 4208POPC   GL255418  42.145  43.672   5.958
 4208POPC   C1A55419  42.180  44.098   6.234
 4208POPC   D2A55420  42.089  44.036   6.665
 4208POPC   C3A55421  42.413  44.073   6.977
 4208POPC   C4A55422  42.288  44.317   7.264
 4208POPC   C1B55423  42.499  43.657   6.205
 4208POPC   C2B55424  42.472  43.697   6.642
 4208POPC   C3B55425  42.277  43.588   7.036
 4208POPC   C4B55426  42.689  43.450   7.152
 4209POPC   NC355427   6.017  15.161   5.370
 4209POPC   PO455428   6.380  15.585   5.591
 4209POPC   GL155429   6.000  15.324   5.855
 4209POPC   GL255430   5.642  15.242   5.724
 4209POPC   C1A55431   5.995  15.198   6.328
 4209POPC   D2A55432   5.956  15.279   6.808
 4209POPC   C3A55433   5.953  14.985   7.203
 4209POPC   C4A55434   6.081  15.164   7.665
 4209POPC   C1B55435   5.650  14.914   6.056
 4209POPC   C2B55436   5.558  14.984   6.497
 4209POPC   C3B55437   5.480  15.101   6.920
 4209POPC   C4B55438   5.581  15.336   7.286
 4210POPC   NC355439  19.953  41.808   5.274
 4210POPC   PO455440  19.896  41.145   5.339
 4210POPC   GL155441  19.964  41.477   5.704
 4210POPC   GL255442  20.144  41.800   5.755
 4210POPC   C1A55443  19.960  41.528   6.165
 4210POPC   D2A55444  19.684  41.374   6.505
 4210POPC   C3A55445  19.814  41.409   6.931
 4210POPC   C4A55446  19.763  41.318   7.372
 4210POPC   C1B55447  20.360  41.910   6.125
 4210POPC   C2B55448  20.280  41.754   6.515
 4210POPC   C3B55449  20.302  41.582   6.890
 4210POPC   C4B55450  20.114  41.683   7.260
 4211POPC   NC355451  34.345  43.699   5.383
 4211POPC   PO455452  34.970  44.124   5.406
 4211POPC   GL155453  34.881  43.963   5.828
 4211POPC   GL255454  34.570  43.754   5.857
 4211POPC   C1A55455  34.787  43.970   6.288
 4211POPC   D2A55456  34.628  43.791   6.659
 4211POPC   C3A55457  34.702  43.999   7.010
 4211POPC   C4A55458  34.961  43.801   7.298
 4211POPC   C1B55459  34.326  43.715   6.254
 4211POPC   C2B55460  34.183  43.530   6.660
 4211POPC   C3B55461  34.235  43.794   7.051
 4211POPC   C4B55462  34.309  44.219   7.266
 4212POPC   NC355463  23.949  41.980   5.432
 4212POPC   PO455464  23.639  42.482   5.125
 4212POPC   GL155465  23.587  42.319   5.564
 4212POPC   GL255466  23.316  42.474   5.641
 4212POPC   C1A55467  23.674  42.248   6.007
 4212POPC   D2A55468  23.714  42.046   6.398
 4212POPC   C3A55469  23.763  42.232   6.778
 4212POPC   C4A55470  23.742  42.324   7.179
 4212POPC   C1B55471  23.256  42.537   6.067
 4212POPC   C2B55472  23.419  42.472   6.478
 4212POPC   C3B55473  23.313  42.504   6.901
 4212POPC   C4B55474  23.270  42.374   7.314
 4213POPC   NC355475  18.179  42.008   5.335
 4213POPC   PO455476  18.016  42.712   5.371
 4213POPC   GL155477  18.215  42.508   5.728
 4213POPC   GL255478  18.509  42.246   5.656
 4213POPC   C1A55479  18.313  42.670   6.156
 4213POPC   D2A55480  18.384  42.762   6.611
 4213POPC   C3A55481  18.174  42.464   6.861
 4213POPC   C4A55482  18.296  42.464   7.268
 4213POPC   C1B55483  18.364  42.150   6.075
 4213POPC   C2B55484  18.532  42.114   6.511
 4213POPC   C3B55485  18.480  42.014   6.955
 4213POPC   C4B55486  18.094  41.994   7.164
 4214POPC   NC355487   7.705  11.481   5.439
 4214POPC   PO455488   8.414  11.267   5.492
 4214POPC   GL155489   8.207  11.381   5.830
 4214POPC   GL255490   7.996  11.676   5.800
 4214POPC   C1A55491   8.139  11.193   6.228
 4214POPC   D2A55492   7.997  11.278   6.639
 4214POPC   C3A55493   8.113  11.031   6.988
 4214POPC   C4A55494   8.027  10.978   7.424
 4214POPC   C1B55495   8.140  11.733   6.217
 4214POPC   C2B55496   7.963  11.782   6.653
 4214POPC   C3B55497   8.085  11.563   7.066
 4214POPC   C4B55498   8.478  11.652   7.305
 4215POPC   NC355499  18.760   3.533   5.383
 4215POPC   PO455500  19.314   3.916   5.391
 4215POPC   GL155501  19.273   3.607   5.762
 4215POPC   GL255502  18.921   3.477   5.862
 4215POPC   C1A55503  19.328   3.365   6.177
 4215POPC   D2A55504  19.180   3.256   6.622
 4215POPC   C3A55505  19.228   3.588   6.938
 4215POPC   C4A55506  19.434   3.577   7.359
 4215POPC   C1B55507  18.809   3.300   6.273
 4215POPC   C2B55508  18.771   3.561   6.670
 4215POPC   C3B55509  18.742   3.524   7.129
 4215POPC   C4B55510  18.661   3.744   7.497
 4216POPC   NC355511  40.434  25.124   5.375
 4216POPC   PO455512  40.976  25.354   5.408
 4216POPC   GL155513  40.660  25.344   5.778
 4216POPC   GL255514  40.553  25.660   5.904
 4216POPC   C1A55515  40.526  25.226   6.221
 4216POPC   D2A55516  40.442  25.260   6.685
 4216POPC   C3A55517  40.847  25.286   6.934
 4216POPC   C4A55518  40.914  25.089   7.329
 4216POPC   C1B55519  40.906  25.617   6.169
 4216POPC   C2B55520  41.027  25.633   6.593
 4216POPC   C3B55521  41.101  25.788   6.989
 4216POPC   C4B55522  40.976  25.611   7.376
 4217POPC   NC355523   2.994  24.106   5.141
 4217POPC   PO455524   2.850  23.469   5.278
 4217POPC   GL155525   2.730  23.348   5.705
 4217POPC   GL255526   2.519  23.603   5.900
 4217POPC   C1A55527   2.822  23.269   6.181
 4217POPC   D2A55528   2.805  23.486   6.604
 4217POPC   C3A55529   2.527  23.503   6.976
 4217POPC   C4A55530   2.658  23.580   7.404
 4217POPC   C1B55531   2.405  23.728   6.343
 4217POPC   C2B55532   2.565  23.953   6.720
 4217POPC   C3B55533   2.709  24.144   7.104
 4217POPC   C4B55534   3.114  24.262   7.270
 4218POPC   NC355535  28.343  17.887   5.506
 4218POPC   PO455536  28.188  17.291   5.456
 4218POPC   GL155537  28.358  17.455   5.837
 4218POPC   GL255538  28.285  17.793   5.995
 4218POPC   C1A55539  28.489  17.363   6.280
 4218POPC   D2A55540  28.730  17.373   6.709
 4218POPC   C3A55541  28.525  17.306   7.109
 4218POPC   C4A55542  28.088  17.322   7.281
 4218POPC   C1B55543  28.251  17.788   6.442
 4218POPC   C2B55544  28.391  17.788   6.863
 4218POPC   C3B55545  28.118  17.937   7.195
 4218POPC   C4B55546  27.968  17.846   7.623
 4219POPC   NC355547   7.950  18.274   5.385
 4219POPC   PO455548   8.541  18.025   5.503
 4219POPC   GL155549   8.370  18.234   5.895
 4219POPC   GL255550   8.053  18.413   5.912
 4219POPC   C1A55551   8.276  18.314   6.361
 4219POPC   D2A55552   8.064  18.374   6.766
 4219POPC   C3A55553   8.409  18.307   7.033
 4219POPC   C4A55554   8.503  18.025   7.348
 4219POPC   C1B55555   7.972  17.985   6.140
 4219POPC   C2B55556   7.864  17.854   6.595
 4219POPC   C3B55557   7.771  18.013   7.027
 4219POPC   C4B55558   8.024  18.227   7.370
 4220POPC   NC355559   4.326  18.560   5.261
 4220POPC   PO455560   3.829  18.128   5.471
 4220POPC   GL155561   3.634  18.005   5.874
 4220POPC   GL255562   3.304  17.816   5.917
 4220POPC   C1A55563   3.627  18.151   6.263
 4220POPC   D2A55564   3.701  18.345   6.643
 4220POPC   C3A55565   3.639  18.171   7.001
 4220POPC   C4A55566   3.698  18.243   7.397
 4220POPC   C1B55567   3.127  18.147   6.158
 4220POPC   C2B55568   3.191  18.355   6.529
 4220POPC   C3B55569   3.147  18.394   6.946
 4220POPC   C4B55570   3.181  18.143   7.293
 4221POPC   NC355571  20.170  18.718   5.381
 4221POPC   PO455572  19.534  18.989   5.282
 4221POPC   GL155573  19.696  19.095   5.690
 4221POPC   GL255574  20.064  19.056   5.764
 4221POPC   C1A55575  19.791  19.333   6.077
 4221POPC   D2A55576  20.144  19.208   6.312
 4221POPC   C3A55577  20.080  19.117   6.755
 4221POPC   C4A55578  20.225  19.134   7.185
 4221POPC   C1B55579  19.876  18.744   6.019
 4221POPC   C2B55580  19.712  18.769   6.399
 4221POPC   C3B55581  19.709  18.744   6.819
 4221POPC   C4B55582  19.723  19.024   7.168
 4222POPC   NC355583  24.538  27.593   5.336
 4222POPC   PO455584  24.876  28.145   5.374
 4222POPC   GL155585  24.689  27.999   5.768
 4222POPC   GL255586  24.358  27.852   5.767
 4222POPC   C1A55587  24.865  27.853   6.166
 4222POPC   D2A55588  25.026  27.953   6.596
 4222POPC   C3A55589  24.863  27.912   7.014
 4222POPC   C4A55590  24.545  27.631   7.176
 4222POPC   C1B55591  24.042  27.760   6.110
 4222POPC   C2B55592  23.960  27.804   6.573
 4222POPC   C3B55593  24.033  27.644   7.014
 4222POPC   C4B55594  24.134  27.418   7.423
 4223POPC   NC355595  24.058  16.449   5.461
 4223POPC   PO455596  23.911  17.078   5.120
 4223POPC   GL155597  23.791  16.886   5.563
 4223POPC   GL255598  24.001  16.835   5.786
 4223POPC   C1A55599  23.540  16.835   5.995
 4223POPC   D2A55600  23.423  16.861   6.442
 4223POPC   C3A55601  23.677  16.875   6.828
 4223POPC   C4A55602  23.561  16.934   7.257
 4223POPC   C1B55603  23.923  16.523   6.161
 4223POPC   C2B55604  23.735  16.423   6.581
 4223POPC   C3B55605  23.943  16.453   6.997
 4223POPC   C4B55606  24.230  16.457   7.381
 4224POPC   NC355607  36.715  33.510   5.530
 4224POPC   PO455608  36.865  34.098   5.343
 4224POPC   GL155609  37.030  33.902   5.761
 4224POPC   GL255610  37.194  33.549   5.760
 4224POPC   C1A55611  37.147  33.875   6.205
 4224POPC   D2A55612  36.867  33.730   6.568
 4224POPC   C3A55613  36.828  33.941   6.984
 4224POPC   C4A55614  36.960  33.831   7.399
 4224POPC   C1B55615  36.936  33.421   6.141
 4224POPC   C2B55616  36.560  33.347   6.406
 4224POPC   C3B55617  36.482  33.450   6.850
 4224POPC   C4B55618  36.553  33.555   7.290
 4225POPC   NC355619   2.978  12.387   5.245
 4225POPC   PO455620   2.480  11.920   5.504
 4225POPC   GL155621   2.711  12.085   5.875
 4225POPC   GL255622   2.992  12.198   5.710
 4225POPC   C1A55623   2.651  12.193   6.307
 4225POPC   D2A55624   2.486  11.941   6.628
 4225POPC   C3A55625   2.394  12.072   6.974
 4225POPC   C4A55626   2.640  12.104   7.316
 4225POPC   C1B55627   3.028  12.465   6.061
 4225POPC   C2B55628   2.963  12.563   6.498
 4225POPC   C3B55629   2.931  12.258   6.904
 4225POPC   C4B55630   3.083  11.876   7.195
 4226POPC   NC355631   2.903   1.584   5.177
 4226POPC   PO455632   2.524   1.011   5.319
 4226POPC   GL155633   2.767   1.187   5.705
 4226POPC   GL255634   2.750   1.563   5.711
 4226POPC   C1A55635   3.056   1.057   6.105
 4226POPC   D2A55636   3.126   1.206   6.499
 4226POPC   C3A55637   3.126   1.039   6.896
 4226POPC   C4A55638   2.967   1.292   7.190
 4226POPC   C1B55639   2.728   1.442   6.148
 4226POPC   C2B55640   2.579   1.267   6.507
 4226POPC   C3B55641   2.507   1.284   6.942
 4226POPC   C4B55642   2.508   1.421   7.371
 4227POPC   NC355643  26.573  42.614   5.504
 4227POPC   PO455644  26.981  42.110   5.448
 4227POPC   GL155645  26.831  42.302   5.814
 4227POPC   GL255646  26.535  42.114   5.739
 4227POPC   C1A55647  26.758  42.490   6.250
 4227POPC   D2A55648  26.742  42.297   6.687
 4227POPC   C3A55649  26.719  42.612   7.038
 4227POPC   C4A55650  26.612  42.739   7.510
 4227POPC   C1B55651  26.427  42.130   6.147
 4227POPC   C2B55652  26.279  42.030   6.533
 4227POPC   C3B55653  26.254  42.196   6.901
 4227POPC   C4B55654  26.340  42.390   7.263
 4228POPC   NC355655   4.626  30.284   5.402
 4228POPC   PO455656   4.627  29.565   5.422
 4228POPC   GL155657   4.433  29.911   5.697
 4228POPC   GL255658   4.061  29.939   5.732
 4228POPC   C1A55659   4.487  30.025   6.120
 4228POPC   D2A55660   4.373  30.186   6.524
 4228POPC   C3A55661   4.451  30.021   6.949
 4228POPC   C4A55662   4.548  30.132   7.381
 4228POPC   C1B55663   3.985  30.140   6.114
 4228POPC   C2B55664   3.896  29.984   6.549
 4228POPC   C3B55665   3.950  29.781   6.928
 4228POPC   C4B55666   4.127  29.829   7.332
 4229POPC   NC355667  32.385  20.963   4.998
 4229POPC   PO455668  32.401  20.410   5.311
 4229POPC   GL155669  32.388  20.450   5.777
 4229POPC   GL255670  32.418  20.802   5.883
 4229POPC   C1A55671  32.121  20.514   6.153
 4229POPC   D2A55672  32.100  20.442   6.578
 4229POPC   C3A55673  31.933  20.789   6.859
 4229POPC   C4A55674  32.004  20.819   7.308
 4229POPC   C1B55675  32.619  20.659   6.243
 4229POPC   C2B55676  32.609  20.796   6.661
 4229POPC   C3B55677  32.491  20.778   7.075
 4229POPC   C4B55678  32.737  20.871   7.434
 4230POPC   NC355679  10.973  41.944   5.406
 4230POPC   PO455680  11.297  42.504   5.221
 4230POPC   GL155681  11.383  42.335   5.679
 4230POPC   GL255682  11.380  41.973   5.728
 4230POPC   C1A55683  11.294  42.261   6.188
 4230POPC   D2A55684  11.056  42.374   6.631
 4230POPC   C3A55685  11.258  42.582   7.033
 4230POPC   C4A55686  11.147  42.594   7.493
 4230POPC   C1B55687  11.140  41.744   6.042
 4230POPC   C2B55688  11.002  41.735   6.465
 4230POPC   C3B55689  11.062  41.896   6.875
 4230POPC   C4B55690  11.335  42.095   7.213
 4231POPC   NC355691  18.724   9.416   5.419
 4231POPC   PO455692  19.366   9.665   5.593
 4231POPC   GL155693  18.971   9.780   5.780
 4231POPC   GL255694  18.889  10.134   5.796
 4231POPC   C1A55695  18.944   9.811   6.235
 4231POPC   D2A55696  18.969   9.567   6.603
 4231POPC   C3A55697  19.155   9.746   6.954
 4231POPC   C4A55698  18.868   9.630   7.257
 4231POPC   C1B55699  18.840  10.321   6.240
 4231POPC   C2B55700  18.997  10.185   6.659
 4231POPC   C3B55701  18.907  10.172   7.119
 4231POPC   C4B55702  19.179   9.997   7.455
 4232POPC   NC355703  21.584   1.048   5.477
 4232POPC   PO455704  21.193   1.528   5.175
 4232POPC   GL155705  21.132   1.298   5.640
 4232POPC   GL255706  21.413   1.259   5.892
 4232POPC   C1A55707  21.013   1.106   6.116
 4232POPC   D2A55708  21.235   1.128   6.517
 4232POPC   C3A55709  21.117   0.993   6.925
 4232POPC   C4A55710  21.259   1.194   7.308
 4232POPC   C1B55711  21.646   1.348   6.257
 4232POPC   C2B55712  21.766   1.068   6.560
 4232POPC   C3B55713  21.620   1.080   6.944
 4232POPC   C4B55714  21.776   1.134   7.341
 4233POPC   NC355715  41.292   0.847   5.419
 4233POPC   PO455716  41.428   1.496   5.533
 4233POPC   GL155717  41.561   1.107   5.805
 4233POPC   GL255718  41.874   1.086   5.792
 4233POPC   C1A55719  41.677   0.848   6.233
 4233POPC   D2A55720  41.636   0.868   6.727
 4233POPC   C3A55721  41.635   1.173   7.076
 4233POPC   C4A55722  41.398   1.524   7.198
 4233POPC   C1B55723  41.771   1.337   6.211
 4233POPC   C2B55724  41.688   1.454   6.660
 4233POPC   C3B55725  41.977   1.562   7.017
 4233POPC   C4B55726  41.848   1.536   7.449
 4234POPC   NC355727  42.734  31.802   5.257
 4234POPC   PO455728  43.256  32.269   5.309
 4234POPC   GL155729  43.300  32.209   5.770
 4234POPC   GL255730  43.542  32.451   5.914
 4234POPC   C1A55731  43.061  32.306   6.151
 4234POPC   D2A55732  42.900  32.481   6.536
 4234POPC   C3A55733  42.941  32.291   6.945
 4234POPC   C4A55734  43.053  32.451   7.386
 4234POPC   C1B55735  43.531  32.145   6.278
 4234POPC   C2B55736  43.404  32.131   6.710
 4234POPC   C3B55737  43.430  32.357   7.072
 4234POPC   C4B55738  43.591  32.336   7.488
 4235POPC   NC355739  11.855  40.214   5.405
 4235POPC   PO455740  12.251  39.688   5.486
 4235POPC   GL155741  12.105  40.059   5.814
 4235POPC   GL255742  11.794  40.318   5.899
 4235POPC   C1A55743  11.927  39.988   6.251
 4235POPC   D2A55744  12.143  39.921   6.622
 4235POPC   C3A55745  11.967  39.834   7.015
 4235POPC   C4A55746  12.224  39.916   7.392
 4235POPC   C1B55747  11.763  40.472   6.356
 4235POPC   C2B55748  11.859  40.311   6.778
 4235POPC   C3B55749  11.888  40.286   7.238
 4235POPC   C4B55750  11.846  40.076   7.684
 4236POPC   NC355751  35.110  28.508   5.379
 4236POPC   PO455752  35.480  27.936   5.379
 4236POPC   GL155753  35.213  28.162   5.735
 4236POPC   GL255754  35.291  28.511   5.858
 4236POPC   C1A55755  35.018  28.234   6.177
 4236POPC   D2A55756  35.270  28.399   6.541
 4236POPC   C3A55757  35.155  28.353   6.956
 4236POPC   C4A55758  34.944  28.210   7.316
 4236POPC   C1B55759  35.603  28.366   6.169
 4236POPC   C2B55760  35.784  28.525   6.587
 4236POPC   C3B55761  35.661  28.423   7.021
 4236POPC   C4B55762  35.542  28.573   7.466
 4237POPC   NC355763  40.644  17.935   5.343
 4237POPC   PO455764  41.103  17.607   5.309
 4237POPC   GL155765  40.984  17.632   5.756
 4237POPC   GL255766  40.635  17.694   5.860
 4237POPC   C1A55767  41.024  17.726   6.211
 4237POPC   D2A55768  40.834  17.664   6.635
 4237POPC   C3A55769  40.993  17.383   6.953
 4237POPC   C4A55770  41.198  17.626   7.254
 4237POPC   C1B55771  40.622  17.389   6.245
 4237POPC   C2B55772  40.540  17.252   6.714
 4237POPC   C3B55773  40.534  17.425   7.159
 4237POPC   C4B55774  40.455  17.364   7.596
 4238POPC   NC355775  35.114  36.569   5.084
 4238POPC   PO455776  35.689  36.949   5.302
 4238POPC   GL155777  35.388  36.962   5.713
 4238POPC   GL255778  35.054  36.753   5.784
 4238POPC   C1A55779  35.378  36.797   6.180
 4238POPC   D2A55780  35.166  36.765   6.599
 4238POPC   C3A55781  35.356  36.916   6.991
 4238POPC   C4A55782  35.292  36.976   7.464
 4238POPC   C1B55783  34.974  36.455   6.135
 4238POPC   C2B55784  35.029  36.273   6.544
 4238POPC   C3B55785  35.024  36.421   6.975
 4238POPC   C4B55786  34.901  36.746   7.256
 4239POPC   NC355787  41.683  37.552   5.347
 4239POPC   PO455788  41.065  37.749   5.541
 4239POPC   GL155789  41.334  37.800   5.860
 4239POPC   GL255790  41.516  37.467   5.840
 4239POPC   C1A55791  41.238  37.878   6.285
 4239POPC   D2A55792  41.356  37.636   6.616
 4239POPC   C3A55793  41.586  37.755   6.959
 4239POPC   C4A55794  41.376  37.533   7.250
 4239POPC   C1B55795  41.703  37.639   6.214
 4239POPC   C2B55796  41.910  37.553   6.597
 4239POPC   C3B55797  42.094  37.657   6.986
 4239POPC   C4B55798  41.910  37.677   7.392
 4240POPC   NC355799  27.767  13.671   5.159
 4240POPC   PO455800  27.414  13.201   5.585
 4240POPC   GL155801  27.550  13.530   5.891
 4240POPC   GL255802  27.869  13.568   5.867
 4240POPC   C1A55803  27.334  13.759   6.239
 4240POPC   D2A55804  27.043  13.814   6.613
 4240POPC   C3A55805  27.290  13.741   6.998
 4240POPC   C4A55806  27.732  13.852   7.096
 4240POPC   C1B55807  27.855  13.386   6.325
 4240POPC   C2B55808  27.820  13.424   6.788
 4240POPC   C3B55809  27.907  13.395   7.233
 4240POPC   C4B55810  27.882  13.248   7.672
 4241POPC   NC355811  37.585   2.196   5.441
 4241POPC   PO455812  37.853   1.636   5.637
 4241POPC   GL155813  37.586   1.700   5.986
 4241POPC   GL255814  37.559   2.029   5.924
 4241POPC   C1A55815  37.558   1.868   6.420
 4241POPC   D2A55816  37.773   2.076   6.748
 4241POPC   C3A55817  37.727   1.828   7.091
 4241POPC   C4A55818  37.747   1.748   7.512
 4241POPC   C1B55819  37.299   2.244   6.196
 4241POPC   C2B55820  37.340   2.348   6.624
 4241POPC   C3B55821  37.271   2.133   6.999
 4241POPC   C4B55822  37.230   1.743   7.188
 4242POPC   NC355823  14.880  44.365   5.555
 4242POPC   PO455824  15.374  44.867   5.590
 4242POPC   GL155825  15.316  44.599   5.992
 4242POPC   GL255826  15.429  44.238   6.017
 4242POPC   C1A55827  15.292  44.613   6.481
 4242POPC   D2A55828  15.286  44.506   6.939
 4242POPC   C3A55829  15.116  44.805   7.223
 4242POPC   C4A55830  14.929   0.207   7.279
 4242POPC   C1B55831  15.016  44.242   6.270
 4242POPC   C2B55832  14.840  44.401   6.690
 4242POPC   C3B55833  14.821  44.367   7.163
 4242POPC   C4B55834  15.183  44.392   7.485
 4243POPC   NC355835   5.499   2.482   5.680
 4243POPC   PO455836   5.105   2.979   5.394
 4243POPC   GL155837   5.127   2.915   5.820
 4243POPC   GL255838   5.455   3.063   5.794
 4243POPC   C1A55839   4.989   2.899   6.272
 4243POPC   D2A55840   5.120   2.695   6.663
 4243POPC   C3A55841   4.970   2.800   7.120
 4243POPC   C4A55842   4.783   3.158   7.387
 4243POPC   C1B55843   5.482   2.852   6.206
 4243POPC   C2B55844   5.565   2.979   6.606
 4243POPC   C3B55845   5.487   2.814   7.000
 4243POPC   C4B55846   5.446   2.940   7.380
 4244POPC   NC355847  27.069  24.531   5.602
 4244POPC   PO455848  27.691  24.721   5.540
 4244POPC   GL155849  27.607  24.651   5.957
 4244POPC   GL255850  27.451  24.337   5.897
 4244POPC   C1A55851  27.676  24.717   6.412
 4244POPC   D2A55852  27.973  24.523   6.666
 4244POPC   C3A55853  27.886  24.336   7.027
 4244POPC   C4A55854  27.509  24.409   7.245
 4244POPC   C1B55855  27.595  24.229   6.305
 4244POPC   C2B55856  27.475  24.203   6.748
 4244POPC   C3B55857  27.556  23.927   7.135
 4244POPC   C4B55858  27.446  24.025   7.597
 4245POPC   NC355859   3.151  31.579   5.619
 4245POPC   PO455860   2.757  31.116   5.375
 4245POPC   GL155861   2.671  31.404   5.738
 4245POPC   GL255862   2.936  31.355   6.005
 4245POPC   C1A55863   2.561  31.636   6.136
 4245POPC   D2A55864   2.713  31.506   6.525
 4245POPC   C3A55865   2.589  31.507   6.936
 4245POPC   C4A55866   2.829  31.521   7.287
 4245POPC   C1B55867   3.123  31.236   6.365
 4245POPC   C2B55868   3.069  31.248   6.815
 4245POPC   C3B55869   2.855  31.028   7.113
 4245POPC   C4B55870   2.849  31.045   7.561
 4246POPC   NC355871   6.901   1.469   5.112
 4246POPC   PO455872   6.457   1.187   5.534
 4246POPC   GL155873   6.719   1.079   5.842
 4246POPC   GL255874   6.719   0.745   5.800
 4246POPC   C1A55875   6.611   1.317   6.207
 4246POPC   D2A55876   6.465   1.193   6.590
 4246POPC   C3A55877   6.469   1.492   6.885
 4246POPC   C4A55878   6.768   1.483   7.214
 4246POPC   C1B55879   6.635   0.792   6.253
 4246POPC   C2B55880   6.710   0.762   6.675
 4246POPC   C3B55881   6.670   1.011   7.028
 4246POPC   C4B55882   6.819   0.729   7.261
 4247POPC   NC355883  25.523  37.945   5.455
 4247POPC   PO455884  25.177  37.379   5.419
 4247POPC   GL155885  25.201  37.660   5.742
 4247POPC   GL255886  25.519  37.533   5.804
 4247POPC   C1A55887  25.303  37.842   6.145
 4247POPC   D2A55888  25.259  37.675   6.537
 4247POPC   C3A55889  25.130  37.958   6.859
 4247POPC   C4A55890  24.941  37.761   7.222
 4247POPC   C1B55891  25.571  37.382   6.218
 4247POPC   C2B55892  25.713  37.427   6.648
 4247POPC   C3B55893  25.555  37.697   6.971
 4247POPC   C4B55894  25.419  37.888   7.337
 4248POPC   NC355895  22.854  28.208   5.416
 4248POPC   PO455896  23.211  28.683   5.387
 4248POPC   GL155897  22.981  28.631   5.792
 4248POPC   GL255898  22.889  28.267   5.899
 4248POPC   C1A55899  22.987  28.583   6.266
 4248POPC   D2A55900  22.750  28.417   6.622
 4248POPC   C3A55901  23.011  28.421   6.995
 4248POPC   C4A55902  23.136  28.327   7.413
 4248POPC   C1B55903  22.762  28.049   6.238
 4248POPC   C2B55904  22.528  27.926   6.584
 4248POPC   C3B55905  22.609  28.040   6.992
 4248POPC   C4B55906  22.637  28.262   7.347
 4249POPC   NC355907  32.190  37.773   5.346
 4249POPC   PO455908  32.877  37.916   5.488
 4249POPC   GL155909  32.700  37.637   5.815
 4249POPC   GL255910  32.330  37.678   5.817
 4249POPC   C1A55911  32.607  37.711   6.258
 4249POPC   D2A55912  32.456  37.482   6.601
 4249POPC   C3A55913  32.502  37.650   6.992
 4249POPC   C4A55914  32.694  37.983   7.173
 4249POPC   C1B55915  32.014  37.666   6.123
 4249POPC   C2B55916  32.026  37.750   6.533
 4249POPC   C3B55917  32.009  37.653   6.944
 4249POPC   C4B55918  31.806  37.809   7.270
 4250POPC   NC355919  16.769  32.711   5.660
 4250POPC   PO455920  16.394  32.163   5.636
 4250POPC   GL155921  16.816  32.201   5.816
 4250POPC   GL255922  16.853  32.489   6.097
 4250POPC   C1A55923  17.085  32.053   6.136
 4250POPC   D2A55924  17.149  32.312   6.492
 4250POPC   C3A55925  16.889  32.328   6.794
 4250POPC   C4A55926  16.773  32.592   7.132
 4250POPC   C1B55927  16.603  32.168   6.290
 4250POPC   C2B55928  16.432  32.055   6.660
 4250POPC   C3B55929  16.456  32.215   7.029
 4250POPC   C4B55930  16.812  31.965   7.147
 4251POPC   NC355931  32.550  34.764   5.334
 4251POPC   PO455932  32.013  34.493   5.672
 4251POPC   GL155933  32.327  34.626   5.941
 4251POPC   GL255934  32.517  34.909   5.860
 4251POPC   C1A55935  32.239  34.625   6.364
 4251POPC   D2A55936  31.919  34.426   6.609
 4251POPC   C3A55937  32.037  34.480   7.006
 4251POPC   C4A55938  32.103  34.591   7.450
 4251POPC   C1B55939  32.741  34.794   6.240
 4251POPC   C2B55940  32.642  34.834   6.682
 4251POPC   C3B55941  32.562  34.668   7.092
 4251POPC   C4B55942  32.524  34.873   7.474
 4252POPC   NC355943  36.044  39.143   5.081
 4252POPC   PO455944  36.195  39.120   5.671
 4252POPC   GL155945  36.337  39.337   5.986
 4252POPC   GL255946  36.582  39.080   6.019
 4252POPC   C1A55947  36.055  39.381   6.334
 4252POPC   D2A55948  36.042  39.173   6.711
 4252POPC   C3A55949  36.208  39.437   6.991
 4252POPC   C4A55950  35.912  39.476   7.298
 4252POPC   C1B55951  36.337  38.936   6.325
 4252POPC   C2B55952  36.443  38.878   6.694
 4252POPC   C3B55953  36.454  38.998   7.071
 4252POPC   C4B55954  36.157  39.029   7.285
 4253POPC   NC355955  17.634   7.321   5.485
 4253POPC   PO455956  17.473   7.926   5.191
 4253POPC   GL155957  17.478   7.783   5.691
 4253POPC   GL255958  17.725   7.868   5.916
 4253POPC   C1A55959  17.466   7.464   6.117
 4253POPC   D2A55960  17.228   7.277   6.515
 4253POPC   C3A55961  17.384   7.154   6.913
 4253POPC   C4A55962  17.470   7.357   7.287
 4253POPC   C1B55963  17.319   7.948   6.163
 4253POPC   C2B55964  17.158   7.776   6.535
 4253POPC   C3B55965  17.347   7.721   6.916
 4253POPC   C4B55966  17.270   7.843   7.314
 4254POPC   NC355967  17.839  26.081   5.142
 4254POPC   PO455968  17.297  25.774   5.393
 4254POPC   GL155969  17.454  26.040   5.769
 4254POPC   GL255970  17.777  26.051   5.727
 4254POPC   C1A55971  17.611  25.976   6.232
 4254POPC   D2A55972  17.598  26.177   6.661
 4254POPC   C3A55973  17.480  25.900   7.028
 4254POPC   C4A55974  17.490  25.978   7.479
 4254POPC   C1B55975  17.904  26.355   6.078
 4254POPC   C2B55976  17.958  26.522   6.462
 4254POPC   C3B55977  17.976  26.460   6.878
 4254POPC   C4B55978  17.824  26.260   7.222
 4255POPC   NC355979   2.048  41.152   5.336
 4255POPC   PO455980   2.008  41.802   5.385
 4255POPC   GL155981   2.017  41.656   5.886
 4255POPC   GL255982   1.976  41.295   5.811
 4255POPC   C1A55983   2.236  41.417   6.267
 4255POPC   D2A55984   2.217  41.399   6.751
 4255POPC   C3A55985   1.996  41.712   6.990
 4255POPC   C4A55986   2.181  41.817   7.366
 4255POPC   C1B55987   1.750  41.307   6.172
 4255POPC   C2B55988   1.874  41.085   6.533
 4255POPC   C3B55989   1.780  41.235   6.958
 4255POPC   C4B55990   1.704  41.386   7.402
 4256POPC   NC355991   5.423   6.476   5.493
 4256POPC   PO455992   4.827   6.369   5.436
 4256POPC   GL155993   4.976   6.597   5.833
 4256POPC   GL255994   5.303   6.799   5.883
 4256POPC   C1A55995   5.088   6.549   6.273
 4256POPC   D2A55996   5.225   6.319   6.627
 4256POPC   C3A55997   5.056   6.447   6.985
 4256POPC   C4A55998   5.205   6.343   7.383
 4256POPC   C1B55999   5.299   7.053   6.286
 4256POPC   C2B56000   5.176   6.926   6.713
 4256POPC   C3B56001   5.199   6.900   7.156
 4256POPC   C4B56002   5.400   7.006   7.536
 4257POPC   NC356003  37.676  11.943   5.000
 4257POPC   PO456004  38.033  12.303   5.421
 4257POPC   GL156005  37.770  12.054   5.764
 4257POPC   GL256006  37.503  11.753   5.753
 4257POPC   C1A56007  37.608  12.085   6.209
 4257POPC   D2A56008  37.815  12.056   6.624
 4257POPC   C3A56009  37.731  12.345   6.930
 4257POPC   C4A56010  37.757  12.113   7.252
 4257POPC   C1B56011  37.495  11.569   6.201
 4257POPC   C2B56012  37.402  11.778   6.604
 4257POPC   C3B56013  37.306  11.989   7.019
 4257POPC   C4B56014  37.330  11.917   7.493
 4258POPC   NC356015  20.745  43.738   5.455
 4258POPC   PO456016  20.263  44.126   5.420
 4258POPC   GL156017  20.431  44.040   5.773
 4258POPC   GL256018  20.324  43.660   5.741
 4258POPC   C1A56019  20.667  44.152   6.170
 4258POPC   D2A56020  20.628  44.153   6.626
 4258POPC   C3A56021  20.871  43.836   6.788
 4258POPC   C4A56022  20.770  43.850   7.211
 4258POPC   C1B56023  20.577  43.674   6.075
 4258POPC   C2B56024  20.488  43.695   6.469
 4258POPC   C3B56025  20.390  43.678   6.886
 4258POPC   C4B56026  20.398  43.426   7.214
 4259POPC   NC356027  27.776  29.640   5.116
 4259POPC   PO456028  27.907  29.062   5.485
 4259POPC   GL156029  27.829  29.151   5.968
 4259POPC   GL256030  27.927  29.515   5.989
 4259POPC   C1A56031  27.564  29.012   6.296
 4259POPC   D2A56032  27.362  28.857   6.670
 4259POPC   C3A56033  27.631  28.922   7.009
 4259POPC   C4A56034  27.690  29.212   7.302
 4259POPC   C1B56035  28.048  29.385   6.399
 4259POPC   C2B56036  27.927  29.350   6.858
 4259POPC   C3B56037  28.028  29.560   7.269
 4259POPC   C4B56038  27.834  29.510   7.691
 4260POPC   NC356039  36.909  42.095   5.479
 4260POPC   PO456040  36.396  42.551   5.543
 4260POPC   GL156041  36.542  42.247   5.834
 4260POPC   GL256042  36.870  42.387   5.910
 4260POPC   C1A56043  36.665  42.158   6.302
 4260POPC   D2A56044  36.985  42.340   6.583
 4260POPC   C3A56045  36.930  42.216   7.013
 4260POPC   C4A56046  36.642  42.498   7.246
 4260POPC   C1B56047  37.248  42.594   6.128
 4260POPC   C2B56048  37.395  42.699   6.550
 4260POPC   C3B56049  37.308  42.557   6.963
 4260POPC   C4B56050  37.203  42.834   7.255
 4261POPC   NC356051   7.241  44.946   5.507
 4261POPC   PO456052   7.814  44.569   5.658
 4261POPC   GL156053   7.376  44.596   5.883
 4261POPC   GL256054   7.233  44.930   6.018
 4261POPC   C1A56055   7.260  44.469   6.320
 4261POPC   D2A56056   7.016  44.481   6.719
 4261POPC   C3A56057   7.260  44.391   7.099
 4261POPC   C4A56058   7.399  44.462   7.549
 4261POPC   C1B56059   7.602  44.844   6.291
 4261POPC   C2B56060   7.531  44.679   6.714
 4261POPC   C3B56061   7.448  44.869   7.100
 4261POPC   C4B56062   7.727  44.928   7.452
 4262POPC   NC356063   6.298   0.743   5.472
 4262POPC   PO456064   6.888   0.292   5.419
 4262POPC   GL156065   6.679   0.232   5.809
 4262POPC   GL256066   6.383   0.360   5.815
 4262POPC   C1A56067   6.578   0.165   6.242
 4262POPC   D2A56068   6.396   0.246   6.616
 4262POPC   C3A56069   6.712   0.313   6.935
 4262POPC   C4A56070   6.573   0.313   7.376
 4262POPC   C1B56071   6.205   0.553   6.202
 4262POPC   C2B56072   6.201   0.727   6.629
 4262POPC   C3B56073   6.343   0.622   7.031
 4262POPC   C4B56074   6.324   0.799   7.430
 4263POPC   NC356075  24.070  15.668   5.526
 4263POPC   PO456076  23.496  15.907   5.485
 4263POPC   GL156077  23.805  16.088   5.737
 4263POPC   GL256078  23.601  16.398   5.747
 4263POPC   C1A56079  23.998  15.954   6.138
 4263POPC   D2A56080  23.873  15.657   6.462
 4263POPC   C3A56081  23.933  15.776   6.898
 4263POPC   C4A56082  23.941  16.020   7.272
 4263POPC   C1B56083  23.542  16.164   6.160
 4263POPC   C2B56084  23.461  15.967   6.559
 4263POPC   C3B56085  23.534  16.106   6.979
 4263POPC   C4B56086  23.563  16.412   7.341
 4264POPC   NC356087  40.113  38.097   5.431
 4264POPC   PO456088  40.171  37.393   5.469
 4264POPC   GL156089  39.917  37.571   5.758
 4264POPC   GL256090  40.082  37.868   5.914
 4264POPC   C1A56091  39.771  37.538   6.172
 4264POPC   D2A56092  40.027  37.750   6.511
 4264POPC   C3A56093  39.922  37.838   6.952
 4264POPC   C4A56094  39.774  37.466   7.172
 4264POPC   C1B56095  40.276  37.471   6.119
 4264POPC   C2B56096  40.441  37.376   6.538
 4264POPC   C3B56097  40.260  37.448   6.914
 4264POPC   C4B56098  40.324  37.691   7.261
 4265POPC   NC356099  14.109  10.367   5.397
 4265POPC   PO456100  14.514  10.964   5.118
 4265POPC   GL156101  14.501  10.777   5.636
 4265POPC   GL256102  14.384  10.451   5.824
 4265POPC   C1A56103  14.615  10.757   6.136
 4265POPC   D2A56104  14.388  10.734   6.522
 4265POPC   C3A56105  14.417  10.460   6.846
 4265POPC   C4A56106  14.217  10.559   7.237
 4265POPC   C1B56107  14.431  10.261   6.274
 4265POPC   C2B56108  14.558   9.989   6.652
 4265POPC   C3B56109  14.666  10.065   7.089
 4265POPC   C4B56110  14.596  10.213   7.487
 4266POPC   NC356111  40.674  33.324   5.000
 4266POPC   PO456112  40.440  33.808   5.358
 4266POPC   GL156113  40.621  33.852   5.763
 4266POPC   GL256114  40.306  34.048   5.787
 4266POPC   C1A56115  40.872  33.795   6.187
 4266POPC   D2A56116  41.055  33.704   6.632
 4266POPC   C3A56117  40.808  33.824   7.008
 4266POPC   C4A56118  40.643  33.729   7.396
 4266POPC   C1B56119  40.373  33.879   6.191
 4266POPC   C2B56120  40.489  33.715   6.585
 4266POPC   C3B56121  40.355  33.987   6.881
 4266POPC   C4B56122  40.443  34.187   7.260
 4267POPC   NC356123   7.725  27.543   5.407
 4267POPC   PO456124   8.305  27.805   5.327
 4267POPC   GL156125   8.451  27.797   5.743
 4267POPC   GL256126   8.091  27.691   5.787
 4267POPC   C1A56127   8.352  27.818   6.209
 4267POPC   D2A56128   8.481  27.645   6.600
 4267POPC   C3A56129   8.317  27.685   7.018
 4267POPC   C4A56130   7.992  27.483   7.280
 4267POPC   C1B56131   7.858  27.894   6.121
 4267POPC   C2B56132   7.974  27.886   6.557
 4267POPC   C3B56133   7.874  27.930   6.986
 4267POPC   C4B56134   8.089  27.980   7.363
 4268POPC   NC356135  24.717  35.044   5.421
 4268POPC   PO456136  24.367  35.497   5.435
 4268POPC   GL156137  24.581  35.379   5.790
 4268POPC   GL256138  24.854  35.544   5.643
 4268POPC   C1A56139  24.798  35.322   6.186
 4268POPC   D2A56140  24.751  35.225   6.636
 4268POPC   C3A56141  24.327  35.139   6.792
 4268POPC   C4A56142  24.055  35.041   7.151
 4268POPC   C1B56143  24.838  35.798   6.001
 4268POPC   C2B56144  24.850  35.797   6.447
 4268POPC   C3B56145  24.685  35.730   6.865
 4268POPC   C4B56146  24.639  35.392   7.135
 4269POPC   NC356147  39.968  40.500   5.610
 4269POPC   PO456148  40.278  41.016   5.336
 4269POPC   GL156149  40.055  40.991   5.718
 4269POPC   GL256150  39.699  40.935   5.713
 4269POPC   C1A56151  40.146  40.829   6.142
 4269POPC   D2A56152  40.010  40.712   6.560
 4269POPC   C3A56153  40.318  40.783   6.855
 4269POPC   C4A56154  40.223  40.787   7.268
 4269POPC   C1B56155  39.625  40.787   6.161
 4269POPC   C2B56156  39.540  40.911   6.609
 4269POPC   C3B56157  39.818  40.953   6.995
 4269POPC   C4B56158  39.777  41.149   7.428
 4270POPC   NC356159   9.147  39.491   5.275
 4270POPC   PO456160   8.537  39.532   5.557
 4270POPC   GL156161   8.892  39.358   5.775
 4270POPC   GL256162   9.042  39.034   5.635
 4270POPC   C1A56163   8.892  39.364   6.236
 4270POPC   D2A56164   8.859  39.540   6.679
 4270POPC   C3A56165   8.621  39.286   7.010
 4270POPC   C4A56166   8.644  38.829   7.174
 4270POPC   C1B56167   9.365  39.137   5.953
 4270POPC   C2B56168   9.352  39.198   6.402
 4270POPC   C3B56169   9.339  39.120   6.858
 4270POPC   C4B56170   9.143  39.098   7.243
 4271POPC   NC356171   2.222  43.508   5.453
 4271POPC   PO456172   2.015  42.787   5.213
 4271POPC   GL156173   1.868  43.178   5.611
 4271POPC   GL256174   2.135  43.259   5.879
 4271POPC   C1A56175   1.698  43.230   6.106
 4271POPC   D2A56176   1.779  43.208   6.564
 4271POPC   C3A56177   2.095  42.904   6.774
 4271POPC   C4A56178   1.952  42.667   7.148
 4271POPC   C1B56179   2.147  43.543   6.258
 4271POPC   C2B56180   2.189  43.482   6.714
 4271POPC   C3B56181   1.940  43.283   7.058
 4271POPC   C4B56182   1.662  43.434   7.341
 4272POPC   NC356183  32.627  27.011   5.546
 4272POPC   PO456184  32.170  26.438   5.413
 4272POPC   GL156185  32.249  26.729   5.755
 4272POPC   GL256186  32.539  26.573   5.836
 4272POPC   C1A56187  32.411  26.971   6.151
 4272POPC   D2A56188  32.216  26.901   6.556
 4272POPC   C3A56189  32.276  27.108   6.959
 4272POPC   C4A56190  32.038  27.286   7.296
 4272POPC   C1B56191  32.326  26.480   6.206
 4272POPC   C2B56192  32.239  26.392   6.612
 4272POPC   C3B56193  32.215  26.585   6.980
 4272POPC   C4B56194  32.202  26.743   7.376
 4273POPC   NC356195  14.235  39.763   5.500
 4273POPC   PO456196  14.688  40.064   5.369
 4273POPC   GL156197  14.478  40.153   5.778
 4273POPC   GL256198  14.126  40.238   5.717
 4273POPC   C1A56199  14.610  40.139   6.215
 4273POPC   D2A56200  14.414  40.199   6.613
 4273POPC   C3A56201  14.614  40.094   7.022
 4273POPC   C4A56202  14.391  40.236   7.390
 4273POPC   C1B56203  14.099  40.198   6.164
 4273POPC   C2B56204  13.953  39.998   6.544
 4273POPC   C3B56205  14.117  39.984   6.992
 4273POPC   C4B56206  14.336  39.736   7.344
 4274POPC   NC356207  37.327  40.536   5.368
 4274POPC   PO456208  37.544  39.932   5.296
 4274POPC   GL156209  37.680  39.984   5.748
 4274POPC   GL256210  38.009  40.137   5.827
 4274POPC   C1A56211  37.668  40.117   6.191
 4274POPC   D2A56212  37.800  40.380   6.529
 4274POPC   C3A56213  37.625  40.245   6.924
 4274POPC   C4A56214  37.514  39.871   7.152
 4274POPC   C1B56215  38.096  39.783   6.130
 4274POPC   C2B56216  37.925  39.557   6.486
 4274POPC   C3B56217  37.936  39.791   6.876
 4274POPC   C4B56218  38.249  39.901   7.158
 4275POPC   NC356219  29.305  33.880   5.338
 4275POPC   PO456220  28.733  33.522   5.451
 4275POPC   GL156221  29.031  33.779   5.768
 4275POPC   GL256222  29.440  33.755   5.822
 4275POPC   C1A56223  29.145  33.961   6.186
 4275POPC   D2A56224  29.418  33.864   6.547
 4275POPC   C3A56225  29.179  33.961   6.925
 4275POPC   C4A56226  29.067  33.936   7.374
 4275POPC   C1B56227  29.607  33.460   6.173
 4275POPC   C2B56228  29.604  33.346   6.632
 4275POPC   C3B56229  29.474  33.570   7.009
 4275POPC   C4B56230  29.585  33.980   7.215
 4276POPC   NC356231  18.499  32.390   5.246
 4276POPC   PO456232  17.955  31.962   5.426
 4276POPC   GL156233  18.237  32.190   5.681
 4276POPC   GL256234  18.063  32.511   5.759
 4276POPC   C1A56235  18.509  32.239   6.046
 4276POPC   D2A56236  18.600  32.018   6.432
 4276POPC   C3A56237  18.603  32.220   6.850
 4276POPC   C4A56238  18.454  32.055   7.237
 4276POPC   C1B56239  18.018  32.317   6.172
 4276POPC   C2B56240  18.171  32.292   6.578
 4276POPC   C3B56241  18.076  32.316   7.010
 4276POPC   C4B56242  18.286  32.548   7.350
 4277POPC   NC356243   4.176   7.796   5.381
 4277POPC   PO456244   4.449   7.170   5.444
 4277POPC   GL156245   4.242   7.413   5.730
 4277POPC   GL256246   4.509   7.391   5.951
 4277POPC   C1A56247   4.076   7.639   6.099
 4277POPC   D2A56248   4.341   7.489   6.434
 4277POPC   C3A56249   4.510   7.650   6.783
 4277POPC   C4A56250   4.488   7.566   7.211
 4277POPC   C1B56251   4.271   7.068   6.162
 4277POPC   C2B56252   4.269   6.941   6.559
 4277POPC   C3B56253   4.324   7.173   6.881
 4277POPC   C4B56254   4.365   7.088   7.259
 4278POPC   NC356255  43.866  34.269   5.300
 4278POPC   PO456256  44.115  34.913   4.974
 4278POPC   GL156257  44.155  34.738   5.500
 4278POPC   GL256258  43.880  34.577   5.698
 4278POPC   C1A56259  44.243  34.667   6.035
 4278POPC   D2A56260  44.293  34.520   6.509
 4278POPC   C3A56261  44.089  34.745   6.872
 4278POPC   C4A56262  43.993  34.743   7.315
 4278POPC   C1B56263  43.858  34.292   6.077
 4278POPC   C2B56264  43.740  34.289   6.520
 4278POPC   C3B56265  43.616  34.501   6.901
 4278POPC   C4B56266  43.592  34.447   7.359
 4279POPC   NC356267  23.917  38.471   5.295
 4279POPC   PO456268  23.308  38.714   5.434
 4279POPC   GL156269  23.529  38.425   5.729
 4279POPC   GL256270  23.339  38.122   5.841
 4279POPC   C1A56271  23.675  38.544   6.163
 4279POPC   D2A56272  23.456  38.446   6.549
 4279POPC   C3A56273  23.571  38.434   6.980
 4279POPC   C4A56274  23.905  38.666   7.107
 4279POPC   C1B56275  23.697  38.053   6.119
 4279POPC   C2B56276  23.923  38.184   6.488
 4279POPC   C3B56277  23.875  38.019   6.882
 4279POPC   C4B56278  23.800  38.054   7.301
 4280POPC   NC356279  25.834   2.164   5.389
 4280POPC   PO456280  26.492   1.918   5.551
 4280POPC   GL156281  26.121   1.897   5.796
 4280POPC   GL256282  25.877   2.125   5.922
 4280POPC   C1A56283  26.237   1.927   6.197
 4280POPC   D2A56284  26.390   2.170   6.463
 4280POPC   C3A56285  26.222   2.113   6.840
 4280POPC   C4A56286  26.028   1.964   7.210
 4280POPC   C1B56287  25.807   2.159   6.380
 4280POPC   C2B56288  25.715   2.153   6.820
 4280POPC   C3B56289  25.737   2.376   7.218
 4280POPC   C4B56290  25.539   2.341   7.652
 4281POPC   NC356291  11.374  19.672   5.247
 4281POPC   PO456292  10.949  19.570   5.712
 4281POPC   GL156293  11.323  19.742   5.819
 4281POPC   GL256294  11.292  20.041   6.024
 4281POPC   C1A56295  11.486  19.644   6.229
 4281POPC   D2A56296  11.339  19.908   6.589
 4281POPC   C3A56297  11.405  19.781   7.021
 4281POPC   C4A56298  11.350  19.821   7.460
 4281POPC   C1B56299  11.022  20.247   6.274
 4281POPC   C2B56300  11.124  20.389   6.651
 4281POPC   C3B56301  11.255  20.266   7.042
 4281POPC   C4B56302  11.046  20.249   7.413
 4282POPC   NC356303  40.582   3.942   5.604
 4282POPC   PO456304  40.841   4.442   5.301
 4282POPC   GL156305  40.762   4.430   5.735
 4282POPC   GL256306  41.049   4.184   5.742
 4282POPC   C1A56307  40.747   4.251   6.174
 4282POPC   D2A56308  40.877   4.024   6.548
 4282POPC   C3A56309  40.653   4.198   6.902
 4282POPC   C4A56310  40.639   4.378   7.296
 4282POPC   C1B56311  41.159   4.530   6.041
 4282POPC   C2B56312  41.142   4.483   6.509
 4282POPC   C3B56313  41.006   4.579   6.966
 4282POPC   C4B56314  41.152   4.586   7.425
 4283POPC   NC356315  18.469  18.677   5.507
 4283POPC   PO456316  18.019  19.079   5.325
 4283POPC   GL156317  18.187  19.015   5.756
 4283POPC   GL256318  18.080  18.674   5.840
 4283POPC   C1A56319  18.516  19.002   6.102
 4283POPC   D2A56320  18.442  19.132   6.535
 4283POPC   C3A56321  18.476  18.992   6.951
 4283POPC   C4A56322  18.138  19.125   7.245
 4283POPC   C1B56323  18.326  18.529   6.219
 4283POPC   C2B56324  18.266  18.577   6.674
 4283POPC   C3B56325  18.069  18.653   7.093
 4283POPC   C4B56326  17.976  18.718   7.560
 4284POPC   NC356327  26.479  13.246   4.897
 4284POPC   PO456328  26.044  13.105   5.368
 4284POPC   GL156329  26.216  13.052   5.789
 4284POPC   GL256330  26.308  12.704   5.868
 4284POPC   C1A56331  26.079  13.003   6.257
 4284POPC   D2A56332  26.013  12.779   6.676
 4284POPC   C3A56333  25.869  12.979   7.090
 4284POPC   C4A56334  25.872  12.995   7.558
 4284POPC   C1B56335  26.378  12.563   6.313
 4284POPC   C2B56336  26.449  12.505   6.769
 4284POPC   C3B56337  26.207  12.584   7.118
 4284POPC   C4B56338  26.329  12.806   7.466
 4285POPC   NC356339  33.816   6.137   5.282
 4285POPC   PO456340  33.305   6.347   5.486
 4285POPC   GL156341  33.644   6.297   5.808
 4285POPC   GL256342  33.991   6.155   5.800
 4285POPC   C1A56343  33.656   6.120   6.237
 4285POPC   D2A56344  33.743   5.874   6.635
 4285POPC   C3A56345  33.716   6.073   7.066
 4285POPC   C4A56346  33.981   6.259   7.432
 4285POPC   C1B56347  34.161   5.994   6.240
 4285POPC   C2B56348  34.242   5.937   6.724
 4285POPC   C3B56349  34.134   5.810   7.161
 4285POPC   C4B56350  34.234   5.789   7.609
 4286POPC   NC356351   7.569  29.843   5.397
 4286POPC   PO456352   7.078  29.439   5.523
 4286POPC   GL156353   7.423  29.586   5.819
 4286POPC   GL256354   7.471  29.941   5.882
 4286POPC   C1A56355   7.586  29.568   6.241
 4286POPC   D2A56356   7.390  29.737   6.603
 4286POPC   C3A56357   7.484  29.771   7.036
 4286POPC   C4A56358   7.178  29.886   7.343
 4286POPC   C1B56359   7.636  30.087   6.270
 4286POPC   C2B56360   7.774  30.059   6.702
 4286POPC   C3B56361   7.693  30.239   7.115
 4286POPC   C4B56362   7.620  30.103   7.516
 4287POPC   NC356363  16.029   9.714   5.361
 4287POPC   PO456364  15.658  10.268   5.557
 4287POPC   GL156365  15.860   9.929   5.837
 4287POPC   GL256366  16.185   9.689   5.840
 4287POPC   C1A56367  15.804   9.895   6.286
 4287POPC   D2A56368  15.477  10.060   6.570
 4287POPC   C3A56369  15.622  10.044   6.993
 4287POPC   C4A56370  15.838   9.676   7.232
 4287POPC   C1B56371  16.305  10.045   6.102
 4287POPC   C2B56372  16.390  10.028   6.539
 4287POPC   C3B56373  16.180   9.951   6.936
 4287POPC   C4B56374  16.332   9.794   7.328
 4288POPC   NC356375   7.036  17.135   5.538
 4288POPC   PO456376   7.554  17.465   5.277
 4288POPC   GL156377   7.393  17.453   5.711
 4288POPC   GL256378   7.673  17.352   5.814
 4288POPC   C1A56379   7.210  17.323   6.145
 4288POPC   D2A56380   7.107  17.315   6.603
 4288POPC   C3A56381   7.287  17.563   6.946
 4288POPC   C4A56382   7.201  17.439   7.376
 4288POPC   C1B56383   7.597  17.639   6.169
 4288POPC   C2B56384   7.607  17.403   6.551
 4288POPC   C3B56385   7.766  17.356   6.975
 4288POPC   C4B56386   7.691  17.587   7.339
 4289POPC   NC356387  40.700  37.424   5.485
 4289POPC   PO456388  40.572  38.099   5.520
 4289POPC   GL156389  40.602  37.785   5.829
 4289POPC   GL256390  40.794  37.972   6.050
 4289POPC   C1A56391  40.783  37.518   6.189
 4289POPC   D2A56392  40.840  37.730   6.607
 4289POPC   C3A56393  40.892  37.517   7.007
 4289POPC   C4A56394  40.916  37.557   7.468
 4289POPC   C1B56395  40.447  37.905   6.315
 4289POPC   C2B56396  40.409  37.957   6.782
 4289POPC   C3B56397  40.671  38.050   7.153
 4289POPC   C4B56398  40.635  37.993   7.611
 4290POPC   NC356399  21.044   9.723   5.460
 4290POPC   PO456400  21.715   9.728   5.302
 4290POPC   GL156401  21.617   9.607   5.740
 4290POPC   GL256402  21.369   9.358   5.689
 4290POPC   C1A56403  21.686   9.661   6.202
 4290POPC   D2A56404  21.629   9.474   6.624
 4290POPC   C3A56405  21.543   9.823   6.929
 4290POPC   C4A56406  21.572   9.905   7.362
 4290POPC   C1B56407  21.308   9.326   6.145
 4290POPC   C2B56408  21.111   9.497   6.521
 4290POPC   C3B56409  21.207   9.415   6.954
 4290POPC   C4B56410  21.416   9.203   7.286
 4291POPC   NC356411  11.639   8.676   5.411
 4291POPC   PO456412  11.058   9.024   5.236
 4291POPC   GL156413  11.069   8.855   5.719
 4291POPC   GL256414  11.436   8.898   5.820
 4291POPC   C1A56415  11.105   8.791   6.189
 4291POPC   D2A56416  10.958   8.844   6.613
 4291POPC   C3A56417  11.207   8.801   6.971
 4291POPC   C4A56418  11.199   9.117   7.319
 4291POPC   C1B56419  11.600   8.996   6.201
 4291POPC   C2B56420  11.421   9.053   6.578
 4291POPC   C3B56421  11.527   9.215   6.942
 4291POPC   C4B56422  11.746   9.202   7.303
 4292POPC   NC356423  12.037  25.507   5.275
 4292POPC   PO456424  12.027  26.189   5.356
 4292POPC   GL156425  11.946  26.032   5.780
 4292POPC   GL256426  11.776  25.712   5.792
 4292POPC   C1A56427  12.207  25.989   6.143
 4292POPC   D2A56428  12.443  26.145   6.489
 4292POPC   C3A56429  12.303  26.140   6.891
 4292POPC   C4A56430  12.105  26.131   7.258
 4292POPC   C1B56431  11.840  25.647   6.215
 4292POPC   C2B56432  11.638  25.792   6.574
 4292POPC   C3B56433  11.881  25.799   6.942
 4292POPC   C4B56434  11.956  25.618   7.343
 4293POPC   NC356435   9.121   3.633   5.450
 4293POPC   PO456436   8.533   3.400   5.035
 4293POPC   GL156437   8.647   3.428   5.550
 4293POPC   GL256438   8.699   3.751   5.717
 4293POPC   C1A56439   8.678   3.396   6.062
 4293POPC   D2A56440   8.783   3.542   6.485
 4293POPC   C3A56441   8.950   3.535   6.879
 4293POPC   C4A56442   8.818   3.440   7.276
 4293POPC   C1B56443   9.003   3.794   6.096
 4293POPC   C2B56444   9.165   3.926   6.530
 4293POPC   C3B56445   9.284   3.897   6.987
 4293POPC   C4B56446   8.957   3.923   7.274
 4294POPC   NC356447  17.530  12.325   5.546
 4294POPC   PO456448  17.397  11.721   5.385
 4294POPC   GL156449  17.424  11.866   5.886
 4294POPC   GL256450  17.721  12.081   5.967
 4294POPC   C1A56451  17.502  11.850   6.402
 4294POPC   D2A56452  17.813  11.948   6.761
 4294POPC   C3A56453  17.553  12.022   7.185
 4294POPC   C4A56454  17.437  11.682   7.466
 4294POPC   C1B56455  17.717  12.295   6.367
 4294POPC   C2B56456  17.460  12.305   6.750
 4294POPC   C3B56457  17.710  12.509   7.090
 4294POPC   C4B56458  17.762  12.455   7.540
 4295POPC   NC356459  39.035  34.009   5.151
 4295POPC   PO456460  39.467  33.517   5.286
 4295POPC   GL156461  39.263  33.695   5.666
 4295POPC   GL256462  38.978  33.950   5.721
 4295POPC   C1A56463  39.259  33.698   6.096
 4295POPC   D2A56464  38.965  33.762   6.410
 4295POPC   C3A56465  39.073  33.899   6.802
 4295POPC   C4A56466  39.051  33.673   7.172
 4295POPC   C1B56467  39.053  34.184   6.152
 4295POPC   C2B56468  39.088  34.395   6.558
 4295POPC   C3B56469  38.950  34.376   6.997
 4295POPC   C4B56470  39.147  34.154   7.294
 4296POPC   NC356471  23.963   9.050   5.345
 4296POPC   PO456472  23.443   9.021   5.361
 4296POPC   GL156473  23.590   8.898   5.784
 4296POPC   GL256474  23.957   8.909   5.848
 4296POPC   C1A56475  23.563   8.963   6.250
 4296POPC   D2A56476  23.553   9.181   6.678
 4296POPC   C3A56477  23.560   9.002   7.120
 4296POPC   C4A56478  23.784   9.212   7.496
 4296POPC   C1B56479  24.051   8.835   6.309
 4296POPC   C2B56480  23.916   8.810   6.761
 4296POPC   C3B56481  24.083   8.903   7.186
 4296POPC   C4B56482  24.192   8.927   7.644
 4297POPC   NC356483  34.776  33.397   5.570
 4297POPC   PO456484  34.698  34.032   5.388
 4297POPC   GL156485  34.470  33.971   5.763
 4297POPC   GL256486  34.307  33.655   5.652
 4297POPC   C1A56487  34.355  34.101   6.183
 4297POPC   D2A56488  34.638  34.063   6.540
 4297POPC   C3A56489  34.574  34.048   6.967
 4297POPC   C4A56490  34.728  33.728   7.209
 4297POPC   C1B56491  34.340  33.588   6.080
 4297POPC   C2B56492  34.236  33.513   6.481
 4297POPC   C3B56493  34.352  33.602   6.859
 4297POPC   C4B56494  34.257  33.518   7.242
 4298POPC   NC356495   1.592  18.436   5.515
 4298POPC   PO456496   2.164  17.987   5.417
 4298POPC   GL156497   2.026  18.212   5.759
 4298POPC   GL256498   1.771  18.014   5.818
 4298POPC   C1A56499   1.903  18.388   6.183
 4298POPC   D2A56500   2.152  18.443   6.578
 4298POPC   C3A56501   1.953  18.401   6.981
 4298POPC   C4A56502   2.058  18.416   7.408
 4298POPC   C1B56503   1.897  17.881   6.200
 4298POPC   C2B56504   1.780  18.015   6.595
 4298POPC   C3B56505   1.867  17.880   6.986
 4298POPC   C4B56506   1.749  18.040   7.333
 4299POPC   NC356507  23.366  11.509   5.644
 4299POPC   PO456508  24.002  11.599   5.538
 4299POPC   GL156509  23.814  11.288   5.829
 4299POPC   GL256510  23.549  11.039   5.701
 4299POPC   C1A56511  23.809  11.286   6.282
 4299POPC   D2A56512  23.576  11.375   6.654
 4299POPC   C3A56513  23.818  11.558   6.982
 4299POPC   C4A56514  23.626  11.700   7.355
 4299POPC   C1B56515  23.388  11.050   6.134
 4299POPC   C2B56516  23.563  10.871   6.524
 4299POPC   C3B56517  23.529  10.978   6.966
 4299POPC   C4B56518  23.679  11.192   7.322
 4300POPC   NC356519  28.872   6.286   5.509
 4300POPC   PO456520  28.725   5.647   5.370
 4300POPC   GL156521  28.560   5.498   5.766
 4300POPC   GL256522  28.211   5.385   5.734
 4300POPC   C1A56523  28.584   5.688   6.202
 4300POPC   D2A56524  28.678   5.852   6.633
 4300POPC   C3A56525  28.565   5.611   7.020
 4300POPC   C4A56526  28.743   5.470   7.444
 4300POPC   C1B56527  28.135   5.415   6.194
 4300POPC   C2B56528  28.186   5.633   6.620
 4300POPC   C3B56529  28.037   5.568   7.075
 4300POPC   C4B56530  27.882   5.819   7.433
 4301POPC   NC356531   7.890  13.809   5.479
 4301POPC   PO456532   8.559  13.770   5.317
 4301POPC   GL156533   8.386  13.791   5.704
 4301POPC   GL256534   8.235  13.466   5.749
 4301POPC   C1A56535   8.312  13.852   6.125
 4301POPC   D2A56536   8.356  13.603   6.470
 4301POPC   C3A56537   8.206  13.808   6.834
 4301POPC   C4A56538   8.383  13.798   7.227
 4301POPC   C1B56539   8.009  13.369   6.137
 4301POPC   C2B56540   8.060  13.203   6.565
 4301POPC   C3B56541   7.969  13.352   6.990
 4301POPC   C4B56542   7.791  13.206   7.383
 4302POPC   NC356543   3.022  39.989   5.472
 4302POPC   PO456544   2.363  40.098   5.414
 4302POPC   GL156545   2.605  39.935   5.783
 4302POPC   GL256546   2.942  39.989   5.969
 4302POPC   C1A56547   2.572  39.682   6.149
 4302POPC   D2A56548   2.746  39.758   6.527
 4302POPC   C3A56549   2.476  39.748   6.885
 4302POPC   C4A56550   2.648  40.044   7.146
 4302POPC   C1B56551   2.868  40.258   6.311
 4302POPC   C2B56552   2.838  40.352   6.732
 4302POPC   C3B56553   2.842  40.516   7.125
 4302POPC   C4B56554   3.044  40.276   7.454
 4303POPC   NC356555   6.407   5.755   5.305
 4303POPC   PO456556   7.022   5.802   5.360
 4303POPC   GL156557   6.724   5.876   5.721
 4303POPC   GL256558   6.441   5.614   5.793
 4303POPC   C1A56559   6.608   6.001   6.156
 4303POPC   D2A56560   6.745   5.819   6.548
 4303POPC   C3A56561   6.910   5.979   6.899
 4303POPC   C4A56562   6.865   5.902   7.328
 4303POPC   C1B56563   6.217   5.640   6.202
 4303POPC   C2B56564   6.241   5.884   6.636
 4303POPC   C3B56565   6.385   5.841   7.120
 4303POPC   C4B56566   6.398   5.708   7.606
 4304POPC   NC356567   1.358  16.517   5.523
 4304POPC   PO456568   1.118  17.100   5.410
 4304POPC   GL156569   1.192  16.881   5.824
 4304POPC   GL256570   1.530  16.979   5.951
 4304POPC   C1A56571   1.182  16.564   6.186
 4304POPC   D2A56572   0.959  16.485   6.589
 4304POPC   C3A56573   1.173  16.591   6.977
 4304POPC   C4A56574   1.375  16.667   7.388
 4304POPC   C1B56575   1.244  17.072   6.287
 4304POPC   C2B56576   1.193  17.011   6.702
 4304POPC   C3B56577   1.252  17.082   7.131
 4304POPC   C4B56578   1.042  17.015   7.531
 4305POPC   NC356579  10.577  20.231   5.470
 4305POPC   PO456580  10.448  20.868   5.349
 4305POPC   GL156581  10.572  20.812   5.765
 4305POPC   GL256582  10.321  21.006   5.870
 4305POPC   C1A56583  10.722  20.639   6.157
 4305POPC   D2A56584  10.610  20.451   6.579
 4305POPC   C3A56585  10.766  20.457   7.003
 4305POPC   C4A56586  10.807  20.723   7.318
 4305POPC   C1B56587  10.196  20.615   6.041
 4305POPC   C2B56588  10.131  20.442   6.427
 4305POPC   C3B56589  10.096  20.457   6.861
 4305POPC   C4B56590  10.295  20.613   7.222
 4306POPC   NC356591  37.856   6.325   5.629
 4306POPC   PO456592  37.695   5.812   5.227
 4306POPC   GL156593  37.674   5.825   5.670
 4306POPC   GL256594  38.008   5.792   5.775
 4306POPC   C1A56595  37.628   5.887   6.127
 4306POPC   D2A56596  37.780   6.111   6.492
 4306POPC   C3A56597  37.707   5.915   6.874
 4306POPC   C4A56598  37.764   6.031   7.294
 4306POPC   C1B56599  38.111   5.614   6.188
 4306POPC   C2B56600  37.970   5.542   6.628
 4306POPC   C3B56601  38.115   5.639   7.038
 4306POPC   C4B56602  37.945   5.574   7.456
 4307POPC   NC356603   1.547  26.727   5.394
 4307POPC   PO456604   0.839  26.747   5.391
 4307POPC   GL156605   1.163  26.764   5.765
 4307POPC   GL256606   1.481  26.934   5.862
 4307POPC   C1A56607   1.164  26.756   6.238
 4307POPC   D2A56608   1.017  26.900   6.684
 4307POPC   C3A56609   1.134  26.627   7.037
 4307POPC   C4A56610   1.289  26.682   7.446
 4307POPC   C1B56611   1.728  27.010   6.222
 4307POPC   C2B56612   1.513  26.989   6.598
 4307POPC   C3B56613   1.422  27.050   7.017
 4307POPC   C4B56614   1.680  26.988   7.369
 4308POPC   NC356615  25.545   1.275   5.387
 4308POPC   PO456616  24.971   1.495   5.300
 4308POPC   GL156617  25.102   1.580   5.754
 4308POPC   GL256618  25.435   1.469   5.827
 4308POPC   C1A56619  25.102   1.344   6.193
 4308POPC   D2A56620  25.123   1.404   6.645
 4308POPC   C3A56621  25.284   1.204   7.009
 4308POPC   C4A56622  25.064   0.894   7.243
 4308POPC   C1B56623  25.576   1.159   6.104
 4308POPC   C2B56624  25.656   1.278   6.520
 4308POPC   C3B56625  25.772   1.081   6.877
 4308POPC   C4B56626  25.732   1.040   7.296
 4309POPC   NC356627   1.464   0.887   5.403
 4309POPC   PO456628   0.916   1.256   5.435
 4309POPC   GL156629   1.227   1.184   5.743
 4309POPC   GL256630   1.030   0.920   5.824
 4309POPC   C1A56631   1.542   1.121   6.108
 4309POPC   D2A56632   1.546   1.305   6.543
 4309POPC   C3A56633   1.368   1.195   6.989
 4309POPC   C4A56634   1.510   1.312   7.433
 4309POPC   C1B56635   1.048   1.156   6.224
 4309POPC   C2B56636   1.100   0.935   6.606
 4309POPC   C3B56637   0.942   0.785   7.004
 4309POPC   C4B56638   1.043   0.990   7.389
 4310POPC   NC356639  31.846  26.786   5.342
 4310POPC   PO456640  31.318  26.370   5.198
 4310POPC   GL156641  31.431  26.551   5.614
 4310POPC   GL256642  31.777  26.519   5.776
 4310POPC   C1A56643  31.404  26.884   5.934
 4310POPC   D2A56644  31.163  26.957   6.339
 4310POPC   C3A56645  31.314  26.992   6.792
 4310POPC   C4A56646  31.585  27.264   7.065
 4310POPC   C1B56647  31.863  26.713   6.192
 4310POPC   C2B56648  31.754  26.640   6.643
 4310POPC   C3B56649  31.759  26.783   7.093
 4310POPC   C4B56650  31.702  26.630   7.524
 4311POPC   NC356651   4.565  29.091   5.409
 4311POPC   PO456652   3.954  29.207   5.339
 4311POPC   GL156653   4.183  29.114   5.731
 4311POPC   GL256654   4.305  29.422   5.827
 4311POPC   C1A56655   4.363  28.972   6.131
 4311POPC   D2A56656   4.238  29.167   6.535
 4311POPC   C3A56657   4.299  29.000   6.919
 4311POPC   C4A56658   4.215  29.066   7.361
 4311POPC   C1B56659   4.148  29.638   6.183
 4311POPC   C2B56660   4.334  29.671   6.587
 4311POPC   C3B56661   4.370  29.499   7.005
 4311POPC   C4B56662   4.490  29.496   7.446
 4312POPC   NC356663  41.472   0.125   5.656
 4312POPC   PO456664  41.425  44.413   5.415
 4312POPC   GL156665  41.634  44.620   5.779
 4312POPC   GL256666  41.407  44.784   6.032
 4312POPC   C1A56667  41.782  44.439   6.172
 4312POPC   D2A56668  41.621  44.349   6.558
 4312POPC   C3A56669  41.784  44.383   6.919
 4312POPC   C4A56670  41.836  44.499   7.296
 4312POPC   C1B56671  41.195  44.472   6.306
 4312POPC   C2B56672  41.179  44.513   6.765
 4312POPC   C3B56673  41.430  44.809   7.032
 4312POPC   C4B56674  41.336   0.196   7.270
 4313POPC   NC356675  10.656   8.860   5.397
 4313POPC   PO456676  10.851   9.430   5.719
 4313POPC   GL156677  10.582   9.095   5.862
 4313POPC   GL256678  10.379   8.773   5.807
 4313POPC   C1A56679  10.614   8.957   6.270
 4313POPC   D2A56680  10.540   9.158   6.663
 4313POPC   C3A56681  10.778   9.114   7.018
 4313POPC   C4A56682  10.614   9.063   7.414
 4313POPC   C1B56683  10.270   8.592   6.192
 4313POPC   C2B56684  10.299   8.692   6.636
 4313POPC   C3B56685  10.127   8.542   7.040
 4313POPC   C4B56686  10.201   8.721   7.462
 4314POPC   NC356687  25.785  15.272   5.523
 4314POPC   PO456688  26.281  14.730   5.410
 4314POPC   GL156689  26.139  15.008   5.759
 4314POPC   GL256690  26.216  15.320   5.805
 4314POPC   C1A56691  25.889  15.073   6.142
 4314POPC   D2A56692  25.998  15.240   6.514
 4314POPC   C3A56693  25.907  15.051   6.903
 4314POPC   C4A56694  25.915  15.207   7.312
 4314POPC   C1B56695  26.312  15.616   6.128
 4314POPC   C2B56696  26.468  15.491   6.510
 4314POPC   C3B56697  26.258  15.484   6.882
 4314POPC   C4B56698  26.430  15.364   7.196
 4315POPC   NC356699  35.019  27.805   5.378
 4315POPC   PO456700  35.311  27.193   5.389
 4315POPC   GL156701  35.267  27.534   5.744
 4315POPC   GL256702  34.968  27.747   5.887
 4315POPC   C1A56703  35.206  27.425   6.192
 4315POPC   D2A56704  35.404  27.307   6.564
 4315POPC   C3A56705  35.211  27.441   6.921
 4315POPC   C4A56706  35.370  27.285   7.301
 4315POPC   C1B56707  35.383  27.888   6.140
 4315POPC   C2B56708  35.447  27.901   6.608
 4315POPC   C3B56709  35.413  27.927   7.072
 4315POPC   C4B56710  35.145  27.735   7.342
 4316POPC   NC356711  25.081  44.034   5.268
 4316POPC   PO456712  25.180  43.460   5.593
 4316POPC   GL156713  25.339  43.829   5.810
 4316POPC   GL256714  25.061  44.047   5.798
 4316POPC   C1A56715  25.382  43.942   6.261
 4316POPC   D2A56716  25.302  43.787   6.691
 4316POPC   C3A56717  25.457  44.026   7.029
 4316POPC   C4A56718  25.670  43.928   7.396
 4316POPC   C1B56719  24.942  43.722   6.157
 4316POPC   C2B56720  24.811  43.610   6.575
 4316POPC   C3B56721  24.939  43.660   7.036
 4316POPC   C4B56722  25.147  43.912   7.426
 4317POPC   NC356723  32.338  17.363   5.187
 4317POPC   PO456724  31.947  17.763   5.517
 4317POPC   GL156725  32.036  17.526   5.883
 4317POPC   GL256726  31.910  17.210   5.863
 4317POPC   C1A56727  32.216  17.596   6.298
 4317POPC   D2A56728  32.497  17.524   6.625
 4317POPC   C3A56729  32.294  17.567   7.006
 4317POPC   C4A56730  32.517  17.421   7.346
 4317POPC   C1B56731  31.859  17.225   6.289
 4317POPC   C2B56732  32.030  17.211   6.669
 4317POPC   C3B56733  31.897  17.091   7.040
 4317POPC   C4B56734  32.013  17.340   7.393
 4318POPC   NC356735  15.045   5.458   5.593
 4318POPC   PO456736  15.414   4.989   5.278
 4318POPC   GL156737  15.180   4.946   5.747
 4318POPC   GL256738  14.959   5.171   5.992
 4318POPC   C1A56739  15.255   4.849   6.243
 4318POPC   D2A56740  15.511   4.953   6.645
 4318POPC   C3A56741  15.378   4.830   7.068
 4318POPC   C4A56742  15.011   4.941   7.342
 4318POPC   C1B56743  14.913   5.311   6.444
 4318POPC   C2B56744  15.012   5.157   6.861
 4318POPC   C3B56745  15.298   5.340   7.188
 4318POPC   C4B56746  15.271   5.290   7.642
 4319POPC   NC356747  22.164  38.890   5.408
 4319POPC   PO456748  22.352  39.543   5.600
 4319POPC   GL156749  22.139  39.230   5.808
 4319POPC   GL256750  22.457  39.002   5.809
 4319POPC   C1A56751  21.896  39.277   6.196
 4319POPC   D2A56752  21.776  39.121   6.601
 4319POPC   C3A56753  21.929  39.146   7.036
 4319POPC   C4A56754  22.115  38.788   7.264
 4319POPC   C1B56755  22.362  38.995   6.260
 4319POPC   C2B56756  22.308  38.913   6.735
 4319POPC   C3B56757  22.434  39.162   7.134
 4319POPC   C4B56758  22.489  39.019   7.562
 4320POPC   NC356759  36.439  14.291   5.301
 4320POPC   PO456760  37.015  14.022   5.421
 4320POPC   GL156761  36.790  14.234   5.740
 4320POPC   GL256762  36.644  14.562   5.752
 4320POPC   C1A56763  36.960  14.431   6.129
 4320POPC   D2A56764  37.105  14.668   6.475
 4320POPC   C3A56765  37.062  14.449   6.858
 4320POPC   C4A56766  36.961  14.336   7.240
 4320POPC   C1B56767  36.668  14.867   6.118
 4320POPC   C2B56768  36.756  15.082   6.513
 4320POPC   C3B56769  36.910  14.927   6.908
 4320POPC   C4B56770  36.740  14.818   7.314
 4321POPC   NC356771  39.354  22.236   5.185
 4321POPC   PO456772  39.097  21.667   5.542
 4321POPC   GL156773  39.407  22.047   5.703
 4321POPC   GL256774  39.206  22.358   5.816
 4321POPC   C1A56775  39.565  22.216   6.143
 4321POPC   D2A56776  39.403  22.470   6.489
 4321POPC   C3A56777  39.234  22.313   6.902
 4321POPC   C4A56778  38.954  22.528   7.175
 4321POPC   C1B56779  39.067  22.161   6.210
 4321POPC   C2B56780  39.295  21.946   6.560
 4321POPC   C3B56781  39.245  21.805   7.023
 4321POPC   C4B56782  39.261  21.623   7.460
 4322POPC   NC356783  26.524  15.943   5.581
 4322POPC   PO456784  26.993  16.031   5.118
 4322POPC   GL156785  27.026  15.983   5.651
 4322POPC   GL256786  26.855  16.215   5.896
 4322POPC   C1A56787  26.898  15.769   6.101
 4322POPC   D2A56788  26.897  15.879   6.532
 4322POPC   C3A56789  26.763  15.677   6.903
 4322POPC   C4A56790  26.979  15.814   7.258
 4322POPC   C1B56791  26.509  16.121   6.187
 4322POPC   C2B56792  26.401  15.998   6.545
 4322POPC   C3B56793  26.580  16.160   6.910
 4322POPC   C4B56794  26.723  16.337   7.266
 4323POPC   NC356795  22.944  29.072   5.444
 4323POPC   PO456796  22.495  29.619   5.451
 4323POPC   GL156797  22.659  29.323   5.769
 4323POPC   GL256798  23.047  29.345   5.864
 4323POPC   C1A56799  22.694  28.988   6.083
 4323POPC   D2A56800  22.713  29.044   6.526
 4323POPC   C3A56801  22.681  28.833   6.921
 4323POPC   C4A56802  22.701  29.107   7.297
 4323POPC   C1B56803  23.157  29.098   6.254
 4323POPC   C2B56804  23.192  28.854   6.655
 4323POPC   C3B56805  23.154  28.941   7.087
 4323POPC   C4B56806  23.263  29.244   7.379
 4324POPC   NC356807  30.720  15.332   5.180
 4324POPC   PO456808  31.210  14.950   5.399
 4324POPC   GL156809  31.071  15.126   5.734
 4324POPC   GL256810  30.732  15.223   5.688
 4324POPC   C1A56811  30.884  14.932   6.110
 4324POPC   D2A56812  30.714  15.122   6.497
 4324POPC   C3A56813  30.653  14.912   6.887
 4324POPC   C4A56814  30.850  15.009   7.279
 4324POPC   C1B56815  30.860  15.450   6.074
 4324POPC   C2B56816  30.968  15.572   6.509
 4324POPC   C3B56817  30.931  15.376   6.921
 4324POPC   C4B56818  30.793  15.513   7.346
 4325POPC   NC356819  39.161   1.291   5.285
 4325POPC   PO456820  39.806   1.305   5.528
 4325POPC   GL156821  39.400   1.222   5.749
 4325POPC   GL256822  39.079   1.044   5.726
 4325POPC   C1A56823  39.150   1.369   6.130
 4325POPC   D2A56824  39.085   1.172   6.540
 4325POPC   C3A56825  39.082   1.367   6.949
 4325POPC   C4A56826  39.453   1.535   7.139
 4325POPC   C1B56827  39.260   0.864   6.123
 4325POPC   C2B56828  39.346   0.736   6.546
 4325POPC   C3B56829  39.124   0.815   6.940
 4325POPC   C4B56830  39.209   1.041   7.337
 4326POPC   NC356831   5.743  41.762   5.341
 4326POPC   PO456832   5.783  41.138   5.184
 4326POPC   GL156833   5.901  41.329   5.623
 4326POPC   GL256834   5.891  41.686   5.842
 4326POPC   C1A56835   5.749  41.273   6.047
 4326POPC   D2A56836   5.870  41.508   6.413
 4326POPC   C3A56837   5.742  41.413   6.865
 4326POPC   C4A56838   5.824  41.420   7.338
 4326POPC   C1B56839   6.204  41.905   6.092
 4326POPC   C2B56840   6.316  41.773   6.486
 4326POPC   C3B56841   6.117  41.739   6.837
 4326POPC   C4B56842   6.199  41.884   7.194
 4327POPC   NC356843  11.973   7.887   5.454
 4327POPC   PO456844  12.141   8.511   5.501
 4327POPC   GL156845  12.303   8.342   5.880
 4327POPC   GL256846  12.365   7.980   5.828
 4327POPC   C1A56847  12.363   8.306   6.329
 4327POPC   D2A56848  12.028   8.282   6.613
 4327POPC   C3A56849  12.130   8.467   6.994
 4327POPC   C4A56850  11.919   8.308   7.350
 4327POPC   C1B56851  12.048   7.915   6.141
 4327POPC   C2B56852  12.089   7.771   6.560
 4327POPC   C3B56853  11.947   7.903   6.969
 4327POPC   C4B56854  11.991   7.816   7.394
 4328POPC   NC356855  29.945  11.213   5.316
 4328POPC   PO456856  29.436  11.125   5.520
 4328POPC   GL156857  29.794  11.254   5.799
 4328POPC   GL256858  29.958  11.582   5.721
 4328POPC   C1A56859  30.053  11.319   6.162
 4328POPC   D2A56860  29.931  11.489   6.536
 4328POPC   C3A56861  29.948  11.227   6.889
 4328POPC   C4A56862  30.253  11.149   7.203
 4328POPC   C1B56863  29.639  11.651   6.091
 4328POPC   C2B56864  29.464  11.667   6.526
 4328POPC   C3B56865  29.690  11.680   6.951
 4328POPC   C4B56866  29.874  11.476   7.329
 4329POPC   NC356867  18.242  44.839   5.581
 4329POPC   PO456868  18.646  44.385   5.477
 4329POPC   GL156869  18.476  44.529   5.907
 4329POPC   GL256870  18.113  44.519   5.987
 4329POPC   C1A56871  18.394  44.661   6.364
 4329POPC   D2A56872  18.437  44.858   6.752
 4329POPC   C3A56873  18.525  44.698   7.145
 4329POPC   C4A56874  18.717  44.922   7.465
 4329POPC   C1B56875  17.906  44.888   6.192
 4329POPC   C2B56876  17.985   0.016   6.612
 4329POPC   C3B56877  17.973  44.766   6.991
 4329POPC   C4B56878  18.049  44.747   7.425
 4330POPC   NC356879   2.066  15.230   5.418
 4330POPC   PO456880   1.577  14.744   5.446
 4330POPC   GL156881   1.814  15.006   5.791
 4330POPC   GL256882   1.728  15.395   5.783
 4330POPC   C1A56883   2.022  15.203   6.197
 4330POPC   D2A56884   1.830  15.298   6.616
 4330POPC   C3A56885   1.907  15.065   7.009
 4330POPC   C4A56886   1.740  15.139   7.419
 4330POPC   C1B56887   1.820  15.699   6.102
 4330POPC   C2B56888   2.071  15.731   6.469
 4330POPC   C3B56889   2.103  15.706   6.885
 4330POPC   C4B56890   2.193  15.448   7.202
 4331POPC   NC356891  21.733  31.694   5.325
 4331POPC   PO456892  21.278  31.215   5.580
 4331POPC   GL156893  21.516  31.548   5.811
 4331POPC   GL256894  21.250  31.710   6.028
 4331POPC   C1A56895  21.672  31.550   6.255
 4331POPC   D2A56896  21.588  31.299   6.621
 4331POPC   C3A56897  21.465  31.553   6.943
 4331POPC   C4A56898  21.313  31.903   7.188
 4331POPC   C1B56899  21.198  31.318   6.222
 4331POPC   C2B56900  20.959  31.204   6.552
 4331POPC   C3B56901  21.117  31.158   6.938
 4331POPC   C4B56902  21.116  31.443   7.299
 4332POPC   NC356903  37.960  26.435   5.497
 4332POPC   PO456904  37.458  26.157   5.159
 4332POPC   GL156905  37.536  26.035   5.657
 4332POPC   GL256906  37.446  26.219   5.961
 4332POPC   C1A56907  37.673  25.773   6.043
 4332POPC   D2A56908  37.588  25.985   6.452
 4332POPC   C3A56909  37.855  25.961   6.819
 4332POPC   C4A56910  37.855  25.828   7.221
 4332POPC   C1B56911  37.813  26.394   6.178
 4332POPC   C2B56912  37.993  26.392   6.586
 4332POPC   C3B56913  37.989  26.515   7.012
 4332POPC   C4B56914  37.619  26.375   7.184
 4333POPC   NC356915   9.693  41.643   5.363
 4333POPC   PO456916   9.937  41.991   5.818
 4333POPC   GL156917   9.589  41.684   5.914
 4333POPC   GL256918   9.622  41.324   5.785
 4333POPC   C1A56919   9.613  41.656   6.376
 4333POPC   D2A56920   9.995  41.736   6.642
 4333POPC   C3A56921   9.859  41.628   7.059
 4333POPC   C4A56922   9.984  41.824   7.430
 4333POPC   C1B56923   9.372  41.262   6.155
 4333POPC   C2B56924   9.415  41.075   6.563
 4333POPC   C3B56925   9.230  41.168   6.955
 4333POPC   C4B56926   9.425  41.349   7.325
 4334POPC   NC356927  36.857  22.503   5.342
 4334POPC   PO456928  36.578  21.876   5.340
 4334POPC   GL156929  36.611  22.130   5.692
 4334POPC   GL256930  36.958  22.084   5.721
 4334POPC   C1A56931  36.662  22.198   6.140
 4334POPC   D2A56932  36.842  22.068   6.516
 4334POPC   C3A56933  36.609  22.061   6.894
 4334POPC   C4A56934  36.763  21.998   7.294
 4334POPC   C1B56935  37.166  22.150   6.104
 4334POPC   C2B56936  37.281  22.300   6.510
 4334POPC   C3B56937  37.119  22.237   6.931
 4334POPC   C4B56938  37.255  21.944   7.238
 4335POPC   NC356939  31.484  32.458   5.487
 4335POPC   PO456940  31.473  31.817   5.461
 4335POPC   GL156941  31.253  31.977   5.834
 4335POPC   GL256942  31.054  32.277   5.724
 4335POPC   C1A56943  31.424  32.007   6.291
 4335POPC   D2A56944  31.536  31.944   6.744
 4335POPC   C3A56945  31.803  32.205   7.010
 4335POPC   C4A56946  31.677  32.361   7.408
 4335POPC   C1B56947  31.010  32.288   6.177
 4335POPC   C2B56948  31.112  32.267   6.617
 4335POPC   C3B56949  31.079  32.035   6.983
 4335POPC   C4B56950  31.111  32.081   7.414
 4336POPC   NC356951   7.218  12.875   5.313
 4336POPC   PO456952   6.636  13.246   5.444
 4336POPC   GL156953   6.760  12.970   5.808
 4336POPC   GL256954   6.923  12.673   5.826
 4336POPC   C1A56955   6.570  12.913   6.222
 4336POPC   D2A56956   6.587  13.086   6.627
 4336POPC   C3A56957   6.483  12.879   7.001
 4336POPC   C4A56958   6.196  13.000   7.332
 4336POPC   C1B56959   7.041  12.719   6.272
 4336POPC   C2B56960   6.969  12.688   6.735
 4336POPC   C3B56961   6.986  12.665   7.200
 4336POPC   C4B56962   7.052  12.792   7.645
 4337POPC   NC356963  31.154  26.820   5.200
 4337POPC   PO456964  30.633  26.582   5.467
 4337POPC   GL156965  30.617  26.607   5.888
 4337POPC   GL256966  30.958  26.516   5.981
 4337POPC   C1A56967  30.624  26.898   6.255
 4337POPC   D2A56968  30.783  26.857   6.661
 4337POPC   C3A56969  30.816  27.105   7.008
 4337POPC   C4A56970  30.567  26.920   7.283
 4337POPC   C1B56971  30.670  26.368   6.337
 4337POPC   C2B56972  30.616  26.385   6.778
 4337POPC   C3B56973  30.896  26.570   7.080
 4337POPC   C4B56974  30.939  26.502   7.524
 4338POPC   NC356975   8.723   8.991   5.431
 4338POPC   PO456976   9.395   9.079   5.361
 4338POPC   GL156977   9.163   9.056   5.737
 4338POPC   GL256978   9.070   8.748   5.900
 4338POPC   C1A56979   9.160   9.212   6.150
 4338POPC   D2A56980   9.305   9.016   6.526
 4338POPC   C3A56981   9.275   9.114   6.969
 4338POPC   C4A56982   9.242   8.742   7.223
 4338POPC   C1B56983   8.808   8.837   6.225
 4338POPC   C2B56984   8.596   8.781   6.597
 4338POPC   C3B56985   8.823   8.852   6.932
 4338POPC   C4B56986   8.753   9.017   7.297
 4339POPC   NC356987  36.519   1.695   5.436
 4339POPC   PO456988  37.215   1.931   5.317
 4339POPC   GL156989  37.084   1.975   5.790
 4339POPC   GL256990  36.722   1.951   5.835
 4339POPC   C1A56991  37.096   1.771   6.197
 4339POPC   D2A56992  37.133   1.711   6.658
 4339POPC   C3A56993  36.795   1.730   6.953
 4339POPC   C4A56994  36.719   1.783   7.376
 4339POPC   C1B56995  36.727   2.112   6.251
 4339POPC   C2B56996  36.859   2.166   6.671
 4339POPC   C3B56997  36.718   2.221   7.099
 4339POPC   C4B56998  36.764   2.522   7.407
 4340POPC   NC356999  29.137  18.026   5.413
 4340POPC   PO457000  28.896  18.617   5.530
 4340POPC   GL157001  29.118  18.369   5.817
 4340POPC   GL257002  29.466  18.394   5.720
 4340POPC   C1A57003  29.134  18.204   6.244
 4340POPC   D2A57004  29.361  18.050   6.575
 4340POPC   C3A57005  29.220  18.215   6.912
 4340POPC   C4A57006  29.025  18.256   7.257
 4340POPC   C1B57007  29.457  18.618   6.139
 4340POPC   C2B57008  29.418  18.576   6.597
 4340POPC   C3B57009  29.506  18.695   7.025
 4340POPC   C4B57010  29.288  18.664   7.424
 4341POPC   NC357011  39.585  43.693   5.565
 4341POPC   PO457012  39.751  44.299   5.420
 4341POPC   GL157013  39.854  44.079   5.810
 4341POPC   GL257014  40.113  43.803   5.869
 4341POPC   C1A57015  39.834  44.026   6.247
 4341POPC   D2A57016  39.801  43.894   6.644
 4341POPC   C3A57017  40.108  44.050   6.955
 4341POPC   C4A57018  40.186  43.929   7.380
 4341POPC   C1B57019  39.967  43.515   6.225
 4341POPC   C2B57020  39.853  43.384   6.648
 4341POPC   C3B57021  39.897  43.593   7.048
 4341POPC   C4B57022  39.762  43.672   7.475
 4342POPC   NC357023  13.167  14.555   5.274
 4342POPC   PO457024  13.780  14.798   5.413
 4342POPC   GL157025  13.710  14.715   5.826
 4342POPC   GL257026  13.511  14.450   5.777
 4342POPC   C1A57027  13.784  14.505   6.225
 4342POPC   D2A57028  13.797  14.265   6.590
 4342POPC   C3A57029  13.921  14.445   6.979
 4342POPC   C4A57030  13.820  14.550   7.451
 4342POPC   C1B57031  13.307  14.346   6.184
 4342POPC   C2B57032  13.342  14.525   6.606
 4342POPC   C3B57033  13.406  14.320   7.007
 4342POPC   C4B57034  13.309  13.883   7.170
 4343POPC   NC357035  34.313   6.904   5.409
 4343POPC   PO457036  35.042   6.956   5.535
 4343POPC   GL157037  34.688   6.756   5.781
 4343POPC   GL257038  34.463   6.462   5.811
 4343POPC   C1A57039  34.435   6.869   6.143
 4343POPC   D2A57040  34.637   6.866   6.556
 4343POPC   C3A57041  34.443   6.846   6.968
 4343POPC   C4A57042  34.517   6.642   7.354
 4343POPC   C1B57043  34.539   6.390   6.286
 4343POPC   C2B57044  34.478   6.392   6.740
 4343POPC   C3B57045  34.481   6.185   7.165
 4343POPC   C4B57046  34.465   6.236   7.646
 4344POPC   NC357047   6.794  33.521   5.416
 4344POPC   PO457048   6.790  34.212   5.650
 4344POPC   GL157049   6.566  33.815   5.816
 4344POPC   GL257050   6.752  33.524   5.926
 4344POPC   C1A57051   6.351  33.633   6.218
 4344POPC   D2A57052   6.457  33.426   6.619
 4344POPC   C3A57053   6.595  33.660   6.990
 4344POPC   C4A57054   6.460  34.021   7.247
 4344POPC   C1B57055   6.821  33.833   6.279
 4344POPC   C2B57056   6.966  33.858   6.697
 4344POPC   C3B57057   6.941  34.080   7.100
 4344POPC   C4B57058   7.001  34.204   7.568
 4345POPC   NC357059  37.954  34.253   5.447
 4345POPC   PO457060  38.611  33.959   5.355
 4345POPC   GL157061  38.511  33.737   5.787
 4345POPC   GL257062  38.775  33.475   5.821
 4345POPC   C1A57063  38.487  33.895   6.243
 4345POPC   D2A57064  38.634  34.137   6.640
 4345POPC   C3A57065  38.589  33.907   7.060
 4345POPC   C4A57066  38.215  33.622   7.184
 4345POPC   C1B57067  38.618  33.389   6.243
 4345POPC   C2B57068  38.575  33.550   6.658
 4345POPC   C3B57069  38.638  33.374   7.045
 4345POPC   C4B57070  38.628  33.536   7.476
 4346POPC   NC357071  21.065  36.706   5.491
 4346POPC   PO457072  20.445  36.460   5.184
 4346POPC   GL157073  20.533  36.762   5.699
 4346POPC   GL257074  20.748  37.025   5.768
 4346POPC   C1A57075  20.766  36.660   6.137
 4346POPC   D2A57076  20.506  36.696   6.472
 4346POPC   C3A57077  20.554  36.630   6.888
 4346POPC   C4A57078  20.683  36.594   7.296
 4346POPC   C1B57079  20.553  37.106   6.175
 4346POPC   C2B57080  20.634  37.167   6.646
 4346POPC   C3B57081  20.827  37.031   7.055
 4346POPC   C4B57082  20.742  37.031   7.515
 4347POPC   NC357083   0.666   4.477   5.290
 4347POPC   PO457084   0.063   4.244   5.561
 4347POPC   GL157085   0.269   4.289   5.905
 4347POPC   GL257086   0.604   4.220   5.758
 4347POPC   C1A57087   0.255   4.499   6.316
 4347POPC   D2A57088   0.503   4.622   6.701
 4347POPC   C3A57089   0.282   4.420   7.051
 4347POPC   C4A57090   0.224   4.504   7.527
 4347POPC   C1B57091   0.664   4.192   6.202
 4347POPC   C2B57092   0.501   4.126   6.599
 4347POPC   C3B57093   0.741   4.198   6.919
 4347POPC   C4B57094   0.732   4.384   7.289
 4348POPC   NC357095  21.938  36.323   5.477
 4348POPC   PO457096  22.490  35.918   5.434
 4348POPC   GL157097  22.249  35.838   5.833
 4348POPC   GL257098  21.893  35.945   5.819
 4348POPC   C1A57099  22.121  35.714   6.282
 4348POPC   D2A57100  21.996  35.819   6.723
 4348POPC   C3A57101  22.078  35.698   7.142
 4348POPC   C4A57102  22.188  36.063   7.397
 4348POPC   C1B57103  22.067  36.215   6.158
 4348POPC   C2B57104  21.922  36.306   6.578
 4348POPC   C3B57105  22.053  36.364   7.001
 4348POPC   C4B57106  21.827  36.514   7.382
 4349POPC   NC357107   0.057  19.577   5.496
 4349POPC   PO457108  44.478  19.929   5.226
 4349POPC   GL157109  44.596  19.821   5.677
 4349POPC   GL257110  44.578  19.471   5.780
 4349POPC   C1A57111  44.587  19.843   6.151
 4349POPC   D2A57112  44.812  19.711   6.534
 4349POPC   C3A57113  44.645  19.857   6.922
 4349POPC   C4A57114  44.646  19.684   7.335
 4349POPC   C1B57115  44.344  19.410   6.185
 4349POPC   C2B57116  44.340  19.543   6.624
 4349POPC   C3B57117  44.251  19.499   7.073
 4349POPC   C4B57118  44.243  19.498   7.571
 4350POPC   NC357119  17.042  43.405   5.301
 4350POPC   PO457120  16.446  43.106   5.359
 4350POPC   GL157121  16.740  43.205   5.701
 4350POPC   GL257122  16.576  43.488   5.782
 4350POPC   C1A57123  16.909  43.036   6.124
 4350POPC   D2A57124  16.810  42.941   6.570
 4350POPC   C3A57125  16.931  43.041   7.002
 4350POPC   C4A57126  16.664  42.880   7.380
 4350POPC   C1B57127  16.462  43.278   6.194
 4350POPC   C2B57128  16.500  43.348   6.648
 4350POPC   C3B57129  16.494  43.290   7.087
 4350POPC   C4B57130  16.808  43.363   7.409
 4351POPC   NC357131  20.771   3.330   5.092
 4351POPC   PO457132  20.548   2.722   5.463
 4351POPC   GL157133  20.471   2.932   5.839
 4351POPC   GL257134  20.794   2.865   5.939
 4351POPC   C1A57135  20.400   2.978   6.262
 4351POPC   D2A57136  20.474   2.740   6.641
 4351POPC   C3A57137  20.754   2.783   6.975
 4351POPC   C4A57138  20.595   3.082   7.281
 4351POPC   C1B57139  20.904   2.830   6.364
 4351POPC   C2B57140  21.163   2.610   6.628
 4351POPC   C3B57141  21.054   2.348   6.979
 4351POPC   C4B57142  20.797   2.404   7.336
 4352POPC   NC357143  36.540   0.292   5.184
 4352POPC   PO457144  37.011   0.761   5.281
 4352POPC   GL157145  36.978   0.432   5.658
 4352POPC   GL257146  37.298   0.244   5.652
 4352POPC   C1A57147  36.890   0.291   6.152
 4352POPC   D2A57148  36.655   0.371   6.610
 4352POPC   C3A57149  36.814   0.407   7.073
 4352POPC   C4A57150  37.235   0.406   7.294
 4352POPC   C1B57151  37.367   0.492   6.042
 4352POPC   C2B57152  37.259   0.469   6.504
 4352POPC   C3B57153  37.191   0.725   6.895
 4352POPC   C4B57154  37.220   0.911   7.320
 4353POPC   NC357155  42.598  24.260   5.499
 4353POPC   PO457156  43.121  24.673   5.406
 4353POPC   GL157157  43.116  24.697   5.827
 4353POPC   GL257158  42.775  24.573   5.941
 4353POPC   C1A57159  43.177  24.806   6.260
 4353POPC   D2A57160  42.944  24.663   6.624
 4353POPC   C3A57161  43.163  24.395   6.920
 4353POPC   C4A57162  43.118  24.381   7.352
 4353POPC   C1B57163  42.591  24.246   6.220
 4353POPC   C2B57164  42.680  24.161   6.662
 4353POPC   C3B57165  42.658  24.460   7.008
 4353POPC   C4B57166  42.800  24.784   7.239
 4354POPC   NC357167  33.075  17.295   5.457
 4354POPC   PO457168  32.596  17.731   5.351
 4354POPC   GL157169  32.815  17.710   5.756
 4354POPC   GL257170  33.177  17.691   5.804
 4354POPC   C1A57171  32.792  17.586   6.186
 4354POPC   D2A57172  33.084  17.525   6.519
 4354POPC   C3A57173  32.933  17.352   6.912
 4354POPC   C4A57174  33.092  17.569   7.249
 4354POPC   C1B57175  33.308  17.323   6.079
 4354POPC   C2B57176  33.588  17.226   6.413
 4354POPC   C3B57177  33.509  17.387   6.813
 4354POPC   C4B57178  33.505  17.264   7.211
 4355POPC   NC357179  44.573  43.487   5.499
 4355POPC   PO457180  44.905  44.070   5.474
 4355POPC   GL157181  44.648  44.095   5.839
 4355POPC   GL257182  44.325  43.973   5.796
 4355POPC   C1A57183  44.575  43.877   6.250
 4355POPC   D2A57184  44.541  43.634   6.642
 4355POPC   C3A57185  44.857  43.772   6.886
 4355POPC   C4A57186  44.870  43.959   7.274
 4355POPC   C1B57187  44.291  44.296   6.161
 4355POPC   C2B57188  44.482  44.310   6.580
 4355POPC   C3B57189  44.449  44.097   6.972
 4355POPC   C4B57190  44.379  44.146   7.407
 4356POPC   NC357191  38.605  44.213   5.266
 4356POPC   PO457192  38.138  43.765   5.344
 4356POPC   GL157193  38.222  43.767   5.841
 4356POPC   GL257194  38.596  43.790   5.909
 4356POPC   C1A57195  38.248  43.851   6.313
 4356POPC   D2A57196  38.491  43.692   6.642
 4356POPC   C3A57197  38.327  43.738   7.053
 4356POPC   C4A57198  38.253  43.999   7.432
 4356POPC   C1B57199  38.475  44.235   6.080
 4356POPC   C2B57200  38.396  44.329   6.535
 4356POPC   C3B57201  38.651  44.134   6.886
 4356POPC   C4B57202  38.754  43.963   7.289
 4357POPC   NC357203  31.752  41.030   5.460
 4357POPC   PO457204  31.368  40.550   5.091
 4357POPC   GL157205  31.487  40.608   5.606
 4357POPC   GL257206  31.841  40.655   5.783
 4357POPC   C1A57207  31.397  40.769   6.098
 4357POPC   D2A57208  31.548  40.717   6.583
 4357POPC   C3A57209  31.290  40.752   7.017
 4357POPC   C4A57210  31.283  40.705   7.499
 4357POPC   C1B57211  31.866  40.998   6.130
 4357POPC   C2B57212  31.989  40.997   6.568
 4357POPC   C3B57213  31.762  41.046   6.941
 4357POPC   C4B57214  31.733  40.867   7.302
 4358POPC   NC357215  18.340  12.527   5.434
 4358POPC   PO457216  18.557  11.916   5.407
 4358POPC   GL157217  18.265  11.862   5.763
 4358POPC   GL257218  18.209  12.206   5.854
 4358POPC   C1A57219  18.079  11.775   6.190
 4358POPC   D2A57220  18.313  11.708   6.570
 4358POPC   C3A57221  18.261  11.804   6.993
 4358POPC   C4A57222  18.034  12.089   7.227
 4358POPC   C1B57223  18.232  12.258   6.320
 4358POPC   C2B57224  18.491  12.174   6.700
 4358POPC   C3B57225  18.507  12.237   7.140
 4358POPC   C4B57226  18.225  12.545   7.333
 4359POPC   NC357227  17.757  43.422   5.263
 4359POPC   PO457228  17.277  43.019   5.199
 4359POPC   GL157229  17.386  43.254   5.641
 4359POPC   GL257230  17.738  43.234   5.744
 4359POPC   C1A57231  17.388  43.260   6.136
 4359POPC   D2A57232  17.388  43.075   6.587
 4359POPC   C3A57233  17.398  43.324   7.002
 4359POPC   C4A57234  17.420  43.511   7.441
 4359POPC   C1B57235  17.845  42.871   6.005
 4359POPC   C2B57236  17.891  42.778   6.449
 4359POPC   C3B57237  17.715  42.760   6.844
 4359POPC   C4B57238  17.606  42.894   7.244
 4360POPC   NC357239  43.071  38.698   5.267
 4360POPC   PO457240  43.139  38.120   5.491
 4360POPC   GL157241  42.949  38.462   5.734
 4360POPC   GL257242  43.091  38.805   5.762
 4360POPC   C1A57243  42.889  38.482   6.160
 4360POPC   D2A57244  42.800  38.612   6.558
 4360POPC   C3A57245  43.006  38.411   6.912
 4360POPC   C4A57246  42.842  38.383   7.322
 4360POPC   C1B57247  43.371  38.721   6.129
 4360POPC   C2B57248  43.334  38.690   6.578
 4360POPC   C3B57249  43.376  38.788   7.014
 4360POPC   C4B57250  43.433  38.424   7.279
 4361POPC   NC357251   4.566  16.850   5.358
 4361POPC   PO457252   4.039  16.467   5.472
 4361POPC   GL157253   4.292  16.640   5.768
 4361POPC   GL257254   4.652  16.496   5.713
 4361POPC   C1A57255   4.186  16.632   6.213
 4361POPC   D2A57256   4.059  16.855   6.583
 4361POPC   C3A57257   4.072  16.677   7.005
 4361POPC   C4A57258   4.125  17.062   7.248
 4361POPC   C1B57259   4.646  16.828   6.064
 4361POPC   C2B57260   4.565  16.885   6.483
 4361POPC   C3B57261   4.524  16.939   6.912
 4361POPC   C4B57262   4.520  16.721   7.292
 4362POPC   NC357263   7.779  36.321   5.473
 4362POPC   PO457264   8.418  36.254   5.262
 4362POPC   GL157265   8.219  36.143   5.690
 4362POPC   GL257266   8.104  36.421   5.850
 4362POPC   C1A57267   8.089  35.871   6.082
 4362POPC   D2A57268   8.019  35.660   6.511
 4362POPC   C3A57269   8.172  35.759   6.978
 4362POPC   C4A57270   8.507  35.871   7.320
 4362POPC   C1B57271   8.285  36.309   6.233
 4362POPC   C2B57272   8.262  36.114   6.615
 4362POPC   C3B57273   8.256  36.259   7.039
 4362POPC   C4B57274   8.221  36.557   7.334
 4363POPC   NC357275   0.115  36.390   5.555
 4363POPC   PO457276   0.734  36.341   5.336
 4363POPC   GL157277   0.525  36.186   5.760
 4363POPC   GL257278   0.361  35.869   5.920
 4363POPC   C1A57279   0.327  36.303   6.189
 4363POPC   D2A57280   0.504  36.295   6.618
 4363POPC   C3A57281   0.282  36.309   7.040
 4363POPC   C4A57282   0.422  36.274   7.499
 4363POPC   C1B57283   0.728  35.975   6.175
 4363POPC   C2B57284   0.831  35.901   6.597
 4363POPC   C3B57285   0.576  35.903   6.952
 4363POPC   C4B57286   0.756  35.936   7.329
 4364POPC   NC357287  36.870  28.526   5.340
 4364POPC   PO457288  36.739  27.832   5.392
 4364POPC   GL157289  36.788  28.176   5.723
 4364POPC   GL257290  36.573  28.485   5.770
 4364POPC   C1A57291  36.960  28.368   6.108
 4364POPC   D2A57292  36.831  28.349   6.557
 4364POPC   C3A57293  37.150  28.238   6.873
 4364POPC   C4A57294  37.092  28.189   7.325
 4364POPC   C1B57295  36.572  28.726   6.155
 4364POPC   C2B57296  36.686  28.849   6.587
 4364POPC   C3B57297  36.654  28.631   6.969
 4364POPC   C4B57298  36.764  28.588   7.406
 4365POPC   NC357299   1.442  40.978   4.999
 4365POPC   PO457300   0.973  40.551   5.292
 4365POPC   GL157301   1.023  40.734   5.797
 4365POPC   GL257302   1.199  41.050   5.813
 4365POPC   C1A57303   0.916  40.899   6.253
 4365POPC   D2A57304   1.157  40.799   6.666
 4365POPC   C3A57305   0.992  40.724   7.071
 4365POPC   C4A57306   1.225  40.638   7.438
 4365POPC   C1B57307   1.421  40.934   6.217
 4365POPC   C2B57308   1.391  41.224   6.598
 4365POPC   C3B57309   1.300  41.130   7.061
 4365POPC   C4B57310   1.262  41.130   7.528
 4366POPC   NC357311  32.643  20.070   5.478
 4366POPC   PO457312  32.339  19.464   5.547
 4366POPC   GL157313  32.467  19.724   5.838
 4366POPC   GL257314  32.637  19.424   5.969
 4366POPC   C1A57315  32.262  19.964   6.184
 4366POPC   D2A57316  32.023  19.808   6.541
 4366POPC   C3A57317  31.924  20.055   6.901
 4366POPC   C4A57318  32.177  20.388   7.072
 4366POPC   C1B57319  32.219  19.384   6.216
 4366POPC   C2B57320  32.088  19.322   6.679
 4366POPC   C3B57321  32.305  19.450   7.053
 4366POPC   C4B57322  32.452  19.559   7.456
 4367POPC   NC357323  34.137  20.901   5.294
 4367POPC   PO457324  33.463  20.973   5.458
 4367POPC   GL157325  33.626  20.644   5.721
 4367POPC   GL257326  33.910  20.418   5.625
 4367POPC   C1A57327  33.755  20.702   6.134
 4367POPC   D2A57328  33.605  20.699   6.547
 4367POPC   C3A57329  33.863  20.939   6.802
 4367POPC   C4A57330  34.034  20.844   7.168
 4367POPC   C1B57331  34.111  20.365   6.024
 4367POPC   C2B57332  34.107  20.490   6.469
 4367POPC   C3B57333  33.925  20.419   6.871
 4367POPC   C4B57334  34.030  20.081   7.168
 4368POPC   NC357335  30.506  24.779   5.393
 4368POPC   PO457336  31.149  24.862   5.390
 4368POPC   GL157337  30.893  24.665   5.719
 4368POPC   GL257338  31.082  24.780   5.938
 4368POPC   C1A57339  30.584  24.669   6.078
 4368POPC   D2A57340  30.680  24.746   6.531
 4368POPC   C3A57341  30.442  24.646   6.927
 4368POPC   C4A57342  30.588  24.602   7.387
 4368POPC   C1B57343  31.011  24.445   6.254
 4368POPC   C2B57344  30.881  24.288   6.675
 4368POPC   C3B57345  30.942  24.577   7.019
 4368POPC   C4B57346  31.286  24.714   7.272
 4369POPC   NC357347   6.389  38.627   5.220
 4369POPC   PO457348   6.929  38.191   5.297
 4369POPC   GL157349   6.705  38.094   5.701
 4369POPC   GL257350   7.090  38.124   5.773
 4369POPC   C1A57351   6.422  38.097   6.147
 4369POPC   D2A57352   6.382  38.104   6.653
 4369POPC   C3A57353   6.586  38.475   6.906
 4369POPC   C4A57354   6.654  38.871   7.200
 4369POPC   C1B57355   6.921  38.011   6.154
 4369POPC   C2B57356   6.881  38.222   6.516
 4369POPC   C3B57357   6.924  38.058   6.895
 4369POPC   C4B57358   6.852  38.286   7.284
 4370POPC   NC357359  19.692   5.058   5.432
 4370POPC   PO457360  20.267   5.313   5.408
 4370POPC   GL157361  20.046   5.265   5.814
 4370POPC   GL257362  19.901   4.952   5.924
 4370POPC   C1A57363  19.848   5.339   6.239
 4370POPC   D2A57364  19.672   5.224   6.641
 4370POPC   C3A57365  19.884   5.323   7.024
 4370POPC   C4A57366  20.059   5.357   7.462
 4370POPC   C1B57367  19.794   4.805   6.349
 4370POPC   C2B57368  19.391   4.810   6.608
 4370POPC   C3B57369  19.361   4.972   7.003
 4370POPC   C4B57370  19.380   4.796   7.416
 4371POPC   NC357371  27.412  16.082   5.325
 4371POPC   PO457372  27.636  16.749   5.286
 4371POPC   GL157373  27.429  16.830   5.688
 4371POPC   GL257374  27.268  16.481   5.689
 4371POPC   C1A57375  27.673  16.792   6.080
 4371POPC   D2A57376  27.930  16.725   6.463
 4371POPC   C3A57377  27.792  16.577   6.868
 4371POPC   C4A57378  27.683  16.655   7.281
 4371POPC   C1B57379  27.195  16.585   6.140
 4371POPC   C2B57380  27.398  16.741   6.542
 4371POPC   C3B57381  27.297  16.797   6.987
 4371POPC   C4B57382  27.201  16.555   7.377
 4372POPC   NC357383  28.805  21.942   5.421
 4372POPC   PO457384  28.200  21.952   5.493
 4372POPC   GL157385  28.491  22.009   5.873
 4372POPC   GL257386  28.811  22.216   5.852
 4372POPC   C1A57387  28.482  22.095   6.359
 4372POPC   D2A57388  28.498  21.983   6.835
 4372POPC   C3A57389  28.199  22.151   7.147
 4372POPC   C4A57390  28.211  22.401   7.527
 4372POPC   C1B57391  28.869  22.445   6.244
 4372POPC   C2B57392  28.726  22.452   6.689
 4372POPC   C3B57393  28.647  22.420   7.143
 4372POPC   C4B57394  28.735  22.514   7.560
 4373POPC   NC357395   2.922  10.690   5.473
 4373POPC   PO457396   2.278  10.513   5.607
 4373POPC   GL157397   2.676  10.353   5.781
 4373POPC   GL257398   2.698  10.697   5.949
 4373POPC   C1A57399   3.037  10.365   6.109
 4373POPC   D2A57400   3.039  10.678   6.430
 4373POPC   C3A57401   3.042  10.483   6.819
 4373POPC   C4A57402   2.915  10.433   7.228
 4373POPC   C1B57403   2.582  10.424   6.327
 4373POPC   C2B57404   2.536  10.398   6.777
 4373POPC   C3B57405   2.406  10.480   7.192
 4373POPC   C4B57406   2.514  10.746   7.540
 4374POPC   NC357407  41.121  41.552   5.517
 4374POPC   PO457408  40.655  41.973   5.377
 4374POPC   GL157409  40.714  41.718   5.808
 4374POPC   GL257410  40.851  41.365   5.908
 4374POPC   C1A57411  40.505  41.636   6.217
 4374POPC   D2A57412  40.240  41.716   6.569
 4374POPC   C3A57413  40.505  41.662   6.942
 4374POPC   C4A57414  40.727  41.515   7.307
 4374POPC   C1B57415  40.966  41.458   6.366
 4374POPC   C2B57416  41.042  41.511   6.819
 4374POPC   C3B57417  41.148  41.258   7.175
 4374POPC   C4B57418  40.981  41.134   7.574
 4375POPC   NC357419  23.188   2.555   5.577
 4375POPC   PO457420  22.496   2.351   5.578
 4375POPC   GL157421  22.757   2.650   5.823
 4375POPC   GL257422  23.027   2.479   6.049
 4375POPC   C1A57423  22.866   2.932   6.182
 4375POPC   D2A57424  22.832   3.094   6.610
 4375POPC   C3A57425  22.961   2.932   6.984
 4375POPC   C4A57426  22.707   2.908   7.361
 4375POPC   C1B57427  22.608   2.479   6.262
 4375POPC   C2B57428  22.566   2.334   6.645
 4375POPC   C3B57429  22.655   2.538   7.002
 4375POPC   C4B57430  22.593   2.391   7.401
 4376POPC   NC357431  11.298  41.045   5.392
 4376POPC   PO457432  11.425  40.376   5.333
 4376POPC   GL157433  11.447  40.662   5.692
 4376POPC   GL257434  11.093  40.688   5.815
 4376POPC   C1A57435  11.468  40.888   6.090
 4376POPC   D2A57436  11.517  41.005   6.516
 4376POPC   C3A57437  11.556  40.713   6.845
 4376POPC   C4A57438  11.482  40.772   7.277
 4376POPC   C1B57439  10.892  40.782   6.217
 4376POPC   C2B57440  11.080  40.767   6.609
 4376POPC   C3B57441  11.068  40.636   7.019
 4376POPC   C4B57442  11.048  40.562   7.449
 4377POPC   NC357443  39.151   5.326   5.255
 4377POPC   PO457444  39.335   4.710   5.434
 4377POPC   GL157445  39.388   5.071   5.658
 4377POPC   GL257446  39.051   5.105   5.730
 4377POPC   C1A57447  39.454   5.096   6.107
 4377POPC   D2A57448  39.364   4.885   6.503
 4377POPC   C3A57449  39.418   5.053   6.908
 4377POPC   C4A57450  39.511   5.222   7.336
 4377POPC   C1B57451  38.953   4.992   6.155
 4377POPC   C2B57452  38.924   5.148   6.574
 4377POPC   C3B57453  38.916   4.937   6.949
 4377POPC   C4B57454  39.065   4.941   7.339
 4378POPC   NC357455   1.875  25.853   5.366
 4378POPC   PO457456   2.039  25.142   5.564
 4378POPC   GL157457   2.032  25.540   5.766
 4378POPC   GL257458   1.696  25.591   5.792
 4378POPC   C1A57459   2.100  25.622   6.210
 4378POPC   D2A57460   2.211  25.351   6.563
 4378POPC   C3A57461   2.101  25.485   6.986
 4378POPC   C4A57462   2.010  25.218   7.358
 4378POPC   C1B57463   1.653  25.386   6.201
 4378POPC   C2B57464   1.719  25.514   6.621
 4378POPC   C3B57465   1.648  25.242   6.986
 4378POPC   C4B57466   1.491  24.993   7.305
 4379POPC   NC357467  38.263  31.216   5.393
 4379POPC   PO457468  38.265  31.944   5.392
 4379POPC   GL157469  38.467  31.599   5.764
 4379POPC   GL257470  38.252  31.296   5.886
 4379POPC   C1A57471  38.668  31.330   6.162
 4379POPC   D2A57472  38.480  31.132   6.534
 4379POPC   C3A57473  38.579  31.315   6.949
 4379POPC   C4A57474  38.393  31.481   7.337
 4379POPC   C1B57475  38.224  31.546   6.266
 4379POPC   C2B57476  38.405  31.755   6.645
 4379POPC   C3B57477  38.203  31.905   7.058
 4379POPC   C4B57478  38.139  31.876   7.522
 4380POPC   NC357479  16.176  11.619   5.403
 4380POPC   PO457480  15.727  12.127   5.502
 4380POPC   GL157481  16.049  12.045   5.756
 4380POPC   GL257482  16.149  12.377   5.792
 4380POPC   C1A57483  15.974  11.989   6.185
 4380POPC   D2A57484  16.047  11.684   6.468
 4380POPC   C3A57485  16.077  11.859   6.876
 4380POPC   C4A57486  16.100  11.699   7.273
 4380POPC   C1B57487  15.883  12.483   6.149
 4380POPC   C2B57488  15.979  12.565   6.567
 4380POPC   C3B57489  15.906  12.351   6.954
 4380POPC   C4B57490  15.808  12.284   7.395
 4381POPC   NC357491  19.482   7.662   5.609
 4381POPC   PO457492  18.999   7.283   5.295
 4381POPC   GL157493  18.958   7.443   5.688
 4381POPC   GL257494  18.930   7.807   5.686
 4381POPC   C1A57495  19.069   7.441   6.103
 4381POPC   D2A57496  19.269   7.268   6.480
 4381POPC   C3A57497  18.941   7.255   6.791
 4381POPC   C4A57498  18.788   6.965   7.093
 4381POPC   C1B57499  18.824   7.885   6.140
 4381POPC   C2B57500  18.966   7.690   6.538
 4381POPC   C3B57501  19.048   7.723   6.996
 4381POPC   C4B57502  19.378   7.755   7.314
 4382POPC   NC357503  15.802  10.859   4.982
 4382POPC   PO457504  15.977  11.160   5.547
 4382POPC   GL157505  15.810  11.222   5.919
 4382POPC   GL257506  16.027  11.537   5.940
 4382POPC   C1A57507  15.854  11.215   6.364
 4382POPC   D2A57508  16.224  11.218   6.612
 4382POPC   C3A57509  16.203  11.003   7.003
 4382POPC   C4A57510  15.979  11.159   7.353
 4382POPC   C1B57511  15.595  11.635   6.114
 4382POPC   C2B57512  15.487  11.566   6.541
 4382POPC   C3B57513  15.776  11.437   6.842
 4382POPC   C4B57514  15.640  11.489   7.207
 4383POPC   NC357515  44.563  24.084   5.258
 4383POPC   PO457516  44.631  24.720   5.051
 4383POPC   GL157517  44.607  24.437   5.594
 4383POPC   GL257518  44.858  24.259   5.749
 4383POPC   C1A57519  44.656  24.587   6.092
 4383POPC   D2A57520  44.761  24.468   6.519
 4383POPC   C3A57521  44.649  24.654   6.930
 4383POPC   C4A57522   0.018  24.805   7.175
 4383POPC   C1B57523  44.697  24.074   6.156
 4383POPC   C2B57524  44.843  23.968   6.566
 4383POPC   C3B57525  44.957  24.211   6.927
 4383POPC   C4B57526  44.780  24.333   7.318
 4384POPC   NC357527  34.013  19.274   5.724
 4384POPC   PO457528  33.325  19.323   5.481
 4384POPC   GL157529  33.474  19.029   5.809
 4384POPC   GL257530  33.680  18.736   5.934
 4384POPC   C1A57531  33.507  19.076   6.270
 4384POPC   D2A57532  33.709  18.969   6.679
 4384POPC   C3A57533  33.505  18.981   7.089
 4384POPC   C4A57534  33.280  19.281   7.323
 4384POPC   C1B57535  34.001  18.857   6.245
 4384POPC   C2B57536  34.172  18.740   6.628
 4384POPC   C3B57537  34.048  18.817   7.042
 4384POPC   C4B57538  33.966  19.151   7.346
 4385POPC   NC357539  39.230  31.133   5.572
 4385POPC   PO457540  39.202  30.449   5.425
 4385POPC   GL157541  39.219  30.674   5.816
 4385POPC   GL257542  39.558  30.782   5.845
 4385POPC   C1A57543  39.266  30.913   6.222
 4385POPC   D2A57544  39.244  30.736   6.604
 4385POPC   C3A57545  39.304  30.916   6.990
 4385POPC   C4A57546  39.303  30.740   7.397
 4385POPC   C1B57547  39.586  30.384   6.070
 4385POPC   C2B57548  39.536  30.284   6.503
 4385POPC   C3B57549  39.554  30.467   6.901
 4385POPC   C4B57550  39.583  30.338   7.280
 4386POPC   NC357551  25.162  29.620   5.572
 4386POPC   PO457552  25.377  29.011   5.368
 4386POPC   GL157553  25.397  29.117   5.795
 4386POPC   GL257554  25.587  29.417   5.819
 4386POPC   C1A57555  25.155  29.253   6.191
 4386POPC   D2A57556  25.088  29.532   6.549
 4386POPC   C3A57557  24.936  29.385   6.940
 4386POPC   C4A57558  25.149  29.108   7.225
 4386POPC   C1B57559  25.648  29.164   6.246
 4386POPC   C2B57560  25.445  29.142   6.659
 4386POPC   C3B57561  25.619  29.009   7.047
 4386POPC   C4B57562  25.455  28.726   7.365
 4387POPC   NC357563  37.541  39.494   5.439
 4387POPC   PO457564  37.921  38.877   5.418
 4387POPC   GL157565  37.767  39.137   5.787
 4387POPC   GL257566  37.707  39.485   5.923
 4387POPC   C1A57567  37.881  39.089   6.226
 4387POPC   D2A57568  37.645  39.026   6.618
 4387POPC   C3A57569  37.775  39.281   6.941
 4387POPC   C4A57570  38.012  39.032   7.209
 4387POPC   C1B57571  37.417  39.276   6.208
 4387POPC   C2B57572  37.198  39.314   6.573
 4387POPC   C3B57573  37.252  39.262   6.976
 4387POPC   C4B57574  37.456  39.384   7.347
 4388POPC   NC357575  21.023   4.409   5.015
 4388POPC   PO457576  21.622   4.471   5.383
 4388POPC   GL157577  21.371   4.284   5.668
 4388POPC   GL257578  21.046   4.133   5.509
 4388POPC   C1A57579  21.395   4.398   6.125
 4388POPC   D2A57580  21.633   4.440   6.530
 4388POPC   C3A57581  21.435   4.299   6.900
 4388POPC   C4A57582  21.606   4.343   7.304
 4388POPC   C1B57583  21.041   4.031   5.975
 4388POPC   C2B57584  21.034   4.105   6.443
 4388POPC   C3B57585  20.963   4.020   6.897
 4388POPC   C4B57586  21.231   4.011   7.278
 4389POPC   NC357587   3.876  41.780   5.003
 4389POPC   PO457588   4.498  41.798   5.251
 4389POPC   GL157589   4.256  41.521   5.644
 4389POPC   GL257590   4.578  41.487   5.782
 4389POPC   C1A57591   4.156  41.535   6.122
 4389POPC   D2A57592   4.412  41.790   6.385
 4389POPC   C3A57593   4.412  41.762   6.848
 4389POPC   C4A57594   4.024  41.598   7.091
 4389POPC   C1B57595   4.591  41.339   6.180
 4389POPC   C2B57596   4.323  41.309   6.563
 4389POPC   C3B57597   4.434  41.296   7.008
 4389POPC   C4B57598   4.455  41.320   7.453
 4390POPC   NC357599   9.749  18.074   5.375
 4390POPC   PO457600   9.322  18.531   5.415
 4390POPC   GL157601   9.522  18.461   5.815
 4390POPC   GL257602   9.816  18.286   5.837
 4390POPC   C1A57603   9.640  18.508   6.262
 4390POPC   D2A57604   9.641  18.645   6.683
 4390POPC   C3A57605   9.892  18.437   6.984
 4390POPC   C4A57606   9.915  18.586   7.405
 4390POPC   C1B57607   9.681  18.001   6.168
 4390POPC   C2B57608   9.670  18.129   6.602
 4390POPC   C3B57609   9.467  18.121   6.987
 4390POPC   C4B57610   9.483  17.794   7.270
 4391POPC   NC357611  36.099  31.761   5.622
 4391POPC   PO457612  35.821  31.217   5.399
 4391POPC   GL157613  36.182  31.253   5.706
 4391POPC   GL257614  36.532  31.409   5.650
 4391POPC   C1A57615  36.181  31.329   6.163
 4391POPC   D2A57616  36.001  31.426   6.569
 4391POPC   C3A57617  36.212  31.378   6.949
 4391POPC   C4A57618  36.013  31.438   7.357
 4391POPC   C1B57619  36.573  31.646   6.045
 4391POPC   C2B57620  36.437  31.696   6.456
 4391POPC   C3B57621  36.455  31.883   6.848
 4391POPC   C4B57622  36.383  31.752   7.257
 4392POPC   NC357623  33.192  18.927   5.272
 4392POPC   PO457624  32.631  19.247   5.148
 4392POPC   GL157625  32.755  19.007   5.604
 4392POPC   GL257626  32.927  18.710   5.670
 4392POPC   C1A57627  33.008  19.075   6.022
 4392POPC   D2A57628  33.003  19.356   6.378
 4392POPC   C3A57629  33.081  19.236   6.809
 4392POPC   C4A57630  32.804  19.307   7.149
 4392POPC   C1B57631  33.194  18.604   6.037
 4392POPC   C2B57632  33.140  18.794   6.462
 4392POPC   C3B57633  33.058  18.730   6.882
 4392POPC   C4B57634  33.004  18.848   7.292
 4393POPC   NC357635   3.819  32.822   5.273
 4393POPC   PO457636   4.413  33.211   5.366
 4393POPC   GL157637   4.217  33.164   5.761
 4393POPC   GL257638   4.558  33.220   5.911
 4393POPC   C1A57639   4.119  32.981   6.169
 4393POPC   D2A57640   4.181  33.187   6.538
 4393POPC   C3A57641   4.090  32.977   6.899
 4393POPC   C4A57642   4.139  33.124   7.276
 4393POPC   C1B57643   4.630  32.924   6.246
 4393POPC   C2B57644   4.421  32.713   6.583
 4393POPC   C3B57645   4.578  32.727   7.010
 4393POPC   C4B57646   4.535  32.857   7.446
 4394POPC   NC357647  10.014  21.057   5.459
 4394POPC   PO457648   9.533  21.609   5.444
 4394POPC   GL157649   9.520  21.410   5.835
 4394POPC   GL257650   9.868  21.310   5.898
 4394POPC   C1A57651   9.550  21.528   6.279
 4394POPC   D2A57652   9.545  21.636   6.741
 4394POPC   C3A57653   9.720  21.371   7.085
 4394POPC   C4A57654   9.991  21.478   7.414
 4394POPC   C1B57655   9.999  21.068   6.279
 4394POPC   C2B57656  10.112  21.189   6.704
 4394POPC   C3B57657  10.221  21.164   7.121
 4394POPC   C4B57658  10.195  21.027   7.517
 4395POPC   NC357659   3.003  16.738   5.377
 4395POPC   PO457660   2.426  16.388   5.384
 4395POPC   GL157661   2.615  16.667   5.714
 4395POPC   GL257662   2.919  16.543   5.856
 4395POPC   C1A57663   2.706  16.928   6.096
 4395POPC   D2A57664   2.717  16.734   6.497
 4395POPC   C3A57665   2.681  16.963   6.850
 4395POPC   C4A57666   2.465  17.023   7.209
 4395POPC   C1B57667   2.886  16.330   6.243
 4395POPC   C2B57668   2.793  16.174   6.637
 4395POPC   C3B57669   2.874  16.180   7.067
 4395POPC   C4B57670   2.616  16.523   7.176
 4396POPC   NC357671  24.903  14.987   5.474
 4396POPC   PO457672  24.388  15.345   5.455
 4396POPC   GL157673  24.624  15.252   5.828
 4396POPC   GL257674  24.963  15.399   5.824
 4396POPC   C1A57675  24.452  15.069   6.208
 4396POPC   D2A57676  24.430  14.799   6.557
 4396POPC   C3A57677  24.441  15.063   6.940
 4396POPC   C4A57678  24.316  15.134   7.370
 4396POPC   C1B57679  24.941  15.251   6.253
 4396POPC   C2B57680  24.822  15.320   6.688
 4396POPC   C3B57681  24.952  15.318   7.130
 4396POPC   C4B57682  24.804  15.184   7.581
 4397POPC   NC357683  15.351   9.261   5.387
 4397POPC   PO457684  15.036   8.695   5.492
 4397POPC   GL157685  15.309   8.874   5.804
 4397POPC   GL257686  15.453   8.530   5.795
 4397POPC   C1A57687  15.323   9.076   6.231
 4397POPC   D2A57688  15.430   9.021   6.681
 4397POPC   C3A57689  15.104   9.230   6.913
 4397POPC   C4A57690  14.990   9.183   7.320
 4397POPC   C1B57691  15.526   8.609   6.222
 4397POPC   C2B57692  15.600   8.464   6.611
 4397POPC   C3B57693  15.580   8.574   7.051
 4397POPC   C4B57694  15.178   8.723   7.218
 4398POPC   NC357695  36.183  19.801   5.398
 4398POPC   PO457696  36.132  20.470   5.497
 4398POPC   GL157697  36.202  20.156   5.830
 4398POPC   GL257698  35.950  19.913   5.855
 4398POPC   C1A57699  36.202  20.061   6.286
 4398POPC   D2A57700  36.093  19.847   6.659
 4398POPC   C3A57701  36.073  20.093   7.003
 4398POPC   C4A57702  35.960  19.988   7.389
 4398POPC   C1B57703  35.867  19.656   6.234
 4398POPC   C2B57704  35.811  19.426   6.662
 4398POPC   C3B57705  35.908  19.573   7.101
 4398POPC   C4B57706  35.976  19.524   7.587
 4399POPC   NC357707   3.518  29.370   5.310
 4399POPC   PO457708   3.304  28.945   5.705
 4399POPC   GL157709   3.681  29.145   5.785
 4399POPC   GL257710   3.759  29.500   5.774
 4399POPC   C1A57711   3.892  29.189   6.169
 4399POPC   D2A57712   3.809  29.451   6.550
 4399POPC   C3A57713   3.876  29.279   6.985
 4399POPC   C4A57714   3.685  29.091   7.349
 4399POPC   C1B57715   3.424  29.392   6.139
 4399POPC   C2B57716   3.328  29.191   6.531
 4399POPC   C3B57717   3.362  29.331   6.951
 4399POPC   C4B57718   3.553  29.630   7.251
 4400POPC   NC357719   3.096   8.954   5.445
 4400POPC   PO457720   2.478   9.030   5.183
 4400POPC   GL157721   2.602   8.984   5.651
 4400POPC   GL257722   2.870   9.198   5.842
 4400POPC   C1A57723   2.598   8.864   6.115
 4400POPC   D2A57724   2.474   8.960   6.563
 4400POPC   C3A57725   2.698   8.819   6.946
 4400POPC   C4A57726   2.995   8.645   7.259
 4400POPC   C1B57727   3.110   9.322   6.232
 4400POPC   C2B57728   3.205   9.192   6.674
 4400POPC   C3B57729   3.082   9.124   7.115
 4400POPC   C4B57730   3.088   9.232   7.600
 4401POPC   NC357731  18.617   1.973   5.464
 4401POPC   PO457732  17.974   1.740   5.249
 4401POPC   GL157733  18.145   1.733   5.776
 4401POPC   GL257734  18.469   1.913   5.939
 4401POPC   C1A57735  18.049   2.013   6.192
 4401POPC   D2A57736  18.191   2.175   6.608
 4401POPC   C3A57737  18.198   1.819   6.862
 4401POPC   C4A57738  17.925   1.639   7.167
 4401POPC   C1B57739  18.656   2.251   6.227
 4401POPC   C2B57740  18.649   2.436   6.655
 4401POPC   C3B57741  18.599   2.290   7.071
 4401POPC   C4B57742  18.328   2.053   7.294
 4402POPC   NC357743  28.502  18.797   5.356
 4402POPC   PO457744  28.032  19.104   5.735
 4402POPC   GL157745  28.432  19.230   5.912
 4402POPC   GL257746  28.612  18.966   5.806
 4402POPC   C1A57747  28.685  19.136   6.282
 4402POPC   D2A57748  28.754  19.051   6.720
 4402POPC   C3A57749  28.461  19.231   7.014
 4402POPC   C4A57750  28.270  19.386   7.374
 4402POPC   C1B57751  28.403  18.689   6.083
 4402POPC   C2B57752  28.423  18.706   6.511
 4402POPC   C3B57753  28.456  18.689   6.936
 4402POPC   C4B57754  28.298  18.828   7.305
 4403POPC   NC357755  26.141  17.769   5.570
 4403POPC   PO457756  26.483  17.236   5.435
 4403POPC   GL157757  26.190  17.267   5.816
 4403POPC   GL257758  25.841  17.432   5.821
 4403POPC   C1A57759  26.066  17.304   6.275
 4403POPC   D2A57760  26.177  17.523   6.667
 4403POPC   C3A57761  26.010  17.332   7.043
 4403POPC   C4A57762  26.128  17.195   7.470
 4403POPC   C1B57763  25.847  17.775   6.152
 4403POPC   C2B57764  25.711  17.818   6.574
 4403POPC   C3B57765  25.931  17.887   6.971
 4403POPC   C4B57766  25.882  17.712   7.365
 4404POPC   NC357767   0.147  44.878   5.384
 4404POPC   PO457768   0.495  44.458   5.067
 4404POPC   GL157769   0.495  44.542   5.552
 4404POPC   GL257770   0.585  44.911   5.664
 4404POPC   C1A57771   0.358  44.528   5.999
 4404POPC   D2A57772   0.256  44.672   6.432
 4404POPC   C3A57773   0.440  44.478   6.824
 4404POPC   C4A57774   0.294  44.417   7.264
 4404POPC   C1B57775   0.624  44.992   6.103
 4404POPC   C2B57776   0.679  44.962   6.547
 4404POPC   C3B57777   0.807  44.837   6.955
 4404POPC   C4B57778   0.598  44.827   7.325
 4405POPC   NC357779  20.321   7.140   5.452
 4405POPC   PO457780  20.914   7.552   5.259
 4405POPC   GL157781  20.962   7.479   5.727
 4405POPC   GL257782  20.604   7.396   5.826
 4405POPC   C1A57783  20.953   7.394   6.195
 4405POPC   D2A57784  20.679   7.489   6.564
 4405POPC   C3A57785  20.804   7.495   7.002
 4405POPC   C4A57786  20.751   7.808   7.359
 4405POPC   C1B57787  20.330   7.420   6.191
 4405POPC   C2B57788  20.249   7.223   6.620
 4405POPC   C3B57789  20.319   7.239   7.081
 4405POPC   C4B57790  20.114   7.205   7.493
 4406POPC   NC357791  10.166  28.333   5.400
 4406POPC   PO457792  10.643  28.722   5.147
 4406POPC   GL157793  10.604  28.505   5.635
 4406POPC   GL257794  10.930  28.275   5.683
 4406POPC   C1A57795  10.283  28.320   6.048
 4406POPC   D2A57796  10.133  28.177   6.535
 4406POPC   C3A57797  10.425  28.012   6.830
 4406POPC   C4A57798  10.511  28.194   7.222
 4406POPC   C1B57799  10.765  28.202   6.083
 4406POPC   C2B57800  10.594  28.354   6.474
 4406POPC   C3B57801  10.743  28.500   6.874
 4406POPC   C4B57802  10.564  28.713   7.243
 4407POPC   NC357803  16.261   5.982   5.517
 4407POPC   PO457804  15.590   5.758   5.528
 4407POPC   GL157805  15.850   5.918   5.849
 4407POPC   GL257806  15.823   6.285   5.882
 4407POPC   C1A57807  15.862   5.818   6.271
 4407POPC   D2A57808  15.762   5.514   6.563
 4407POPC   C3A57809  15.853   5.771   6.897
 4407POPC   C4A57810  15.826   5.722   7.298
 4407POPC   C1B57811  16.201   6.196   6.173
 4407POPC   C2B57812  16.212   6.055   6.610
 4407POPC   C3B57813  16.393   6.081   7.031
 4407POPC   C4B57814  16.273   5.956   7.469
 4408POPC   NC357815  13.085   5.084   5.474
 4408POPC   PO457816  12.436   5.058   5.405
 4408POPC   GL157817  12.661   5.278   5.729
 4408POPC   GL257818  12.869   4.997   5.923
 4408POPC   C1A57819  12.745   5.430   6.144
 4408POPC   D2A57820  12.990   5.296   6.501
 4408POPC   C3A57821  12.719   5.267   6.861
 4408POPC   C4A57822  12.898   5.130   7.207
 4408POPC   C1B57823  13.049   4.808   6.311
 4408POPC   C2B57824  13.053   4.816   6.778
 4408POPC   C3B57825  12.989   4.631   7.189
 4408POPC   C4B57826  12.928   4.436   7.633
 4409POPC   NC357827  33.520  11.915   5.374
 4409POPC   PO457828  33.985  12.384   5.136
 4409POPC   GL157829  33.874  12.278   5.611
 4409POPC   GL257830  33.876  11.917   5.742
 4409POPC   C1A57831  33.695  12.246   6.076
 4409POPC   D2A57832  33.534  12.007   6.465
 4409POPC   C3A57833  33.739  12.092   6.878
 4409POPC   C4A57834  33.889  12.420   7.151
 4409POPC   C1B57835  33.951  11.660   6.120
 4409POPC   C2B57836  34.032  11.806   6.511
 4409POPC   C3B57837  34.054  11.676   6.897
 4409POPC   C4B57838  34.010  11.847   7.258
 4410POPC   NC357839  34.625  34.355   5.066
 4410POPC   PO457840  34.133  34.784   5.049
 4410POPC   GL157841  34.398  34.596   5.487
 4410POPC   GL257842  34.193  34.462   5.775
 4410POPC   C1A57843  34.641  34.553   5.966
 4410POPC   D2A57844  34.456  34.532   6.433
 4410POPC   C3A57845  34.686  34.534   6.833
 4410POPC   C4A57846  34.753  34.694   7.251
 4410POPC   C1B57847  34.181  34.811   6.084
 4410POPC   C2B57848  34.171  34.965   6.522
 4410POPC   C3B57849  34.183  34.768   6.913
 4410POPC   C4B57850  34.262  34.411   7.144
 4411POPC   NC357851  26.279  30.913   5.203
 4411POPC   PO457852  25.901  30.466   5.517
 4411POPC   GL157853  26.133  30.592   5.888
 4411POPC   GL257854  25.813  30.577   6.063
 4411POPC   C1A57855  26.063  30.909   6.316
 4411POPC   D2A57856  25.673  30.792   6.537
 4411POPC   C3A57857  25.751  30.615   6.937
 4411POPC   C4A57858  26.112  30.716   7.212
 4411POPC   C1B57859  26.119  30.396   6.333
 4411POPC   C2B57860  26.210  30.547   6.700
 4411POPC   C3B57861  26.267  30.285   7.022
 4411POPC   C4B57862  26.328  30.303   7.479
 4412POPC   NC357863  39.777  33.174   5.216
 4412POPC   PO457864  40.240  32.846   5.555
 4412POPC   GL157865  39.993  33.068   5.826
 4412POPC   GL257866  39.673  33.249   5.714
 4412POPC   C1A57867  40.142  33.041   6.254
 4412POPC   D2A57868  40.186  32.770   6.613
 4412POPC   C3A57869  40.168  33.034   6.981
 4412POPC   C4A57870  40.389  33.404   7.113
 4412POPC   C1B57871  39.620  33.292   6.172
 4412POPC   C2B57872  39.503  33.525   6.541
 4412POPC   C3B57873  39.523  33.402   6.961
 4412POPC   C4B57874  39.563  32.948   7.027
 4413POPC   NC357875  41.051   3.082   5.073
 4413POPC   PO457876  40.944   3.698   5.415
 4413POPC   GL157877  40.800   3.474   5.761
 4413POPC   GL257878  40.783   3.141   5.660
 4413POPC   C1A57879  40.962   3.446   6.182
 4413POPC   D2A57880  41.214   3.591   6.539
 4413POPC   C3A57881  41.026   3.719   6.944
 4413POPC   C4A57882  40.652   3.801   7.231
 4413POPC   C1B57883  40.656   3.030   6.089
 4413POPC   C2B57884  40.552   2.978   6.532
 4413POPC   C3B57885  40.713   3.030   6.955
 4413POPC   C4B57886  40.880   3.322   7.241
 4414POPC   NC357887  32.747  39.688   5.365
 4414POPC   PO457888  32.165  39.956   5.201
 4414POPC   GL157889  32.135  39.919   5.633
 4414POPC   GL257890  31.881  39.655   5.720
 4414POPC   C1A57891  32.101  40.079   6.067
 4414POPC   D2A57892  32.255  39.957   6.502
 4414POPC   C3A57893  32.031  40.086   6.884
 4414POPC   C4A57894  32.152  40.053   7.306
 4414POPC   C1B57895  32.083  39.578   6.142
 4414POPC   C2B57896  32.039  39.479   6.578
 4414POPC   C3B57897  32.069  39.596   7.015
 4414POPC   C4B57898  31.993  39.583   7.440
 4415POPC   NC357899  21.718  11.089   5.623
 4415POPC   PO457900  22.316  11.518   5.417
 4415POPC   GL157901  22.080  11.428   5.781
 4415POPC   GL257902  22.209  11.113   5.838
 4415POPC   C1A57903  21.920  11.319   6.220
 4415POPC   D2A57904  22.065  11.397   6.619
 4415POPC   C3A57905  21.917  11.211   6.960
 4415POPC   C4A57906  22.156  11.012   7.238
 4415POPC   C1B57907  22.475  11.012   6.173
 4415POPC   C2B57908  22.377  10.990   6.620
 4415POPC   C3B57909  22.599  10.849   6.973
 4415POPC   C4B57910  22.664  11.009   7.367
 4416POPC   NC357911  16.249  13.403   5.430
 4416POPC   PO457912  15.584  13.458   5.624
 4416POPC   GL157913  15.954  13.627   5.818
 4416POPC   GL257914  16.064  13.961   5.717
 4416POPC   C1A57915  16.029  13.668   6.247
 4416POPC   D2A57916  15.753  13.710   6.567
 4416POPC   C3A57917  15.851  13.505   6.923
 4416POPC   C4A57918  15.729  13.583   7.332
 4416POPC   C1B57919  16.380  13.976   6.049
 4416POPC   C2B57920  16.527  13.791   6.447
 4416POPC   C3B57921  16.308  13.757   6.839
 4416POPC   C4B57922  16.228  13.631   7.284
 4417POPC   NC357923   1.155  36.287   5.140
 4417POPC   PO457924   1.517  35.770   5.510
 4417POPC   GL157925   1.228  35.941   5.852
 4417POPC   GL257926   1.045  36.258   5.757
 4417POPC   C1A57927   1.232  36.140   6.269
 4417POPC   D2A57928   1.252  36.207   6.701
 4417POPC   C3A57929   1.552  35.954   6.967
 4417POPC   C4A57930   1.254  35.689   7.194
 4417POPC   C1B57931   0.866  36.465   6.108
 4417POPC   C2B57932   0.914  36.584   6.555
 4417POPC   C3B57933   0.858  36.399   6.992
 4417POPC   C4B57934   1.204  36.203   7.210
 4418POPC   NC357935  21.413  42.582   5.095
 4418POPC   PO457936  21.061  42.203   5.576
 4418POPC   GL157937  21.306  42.581   5.700
 4418POPC   GL257938  21.083  42.630   5.910
 4418POPC   C1A57939  21.507  42.608   6.155
 4418POPC   D2A57940  21.510  42.395   6.584
 4418POPC   C3A57941  21.455  42.533   7.010
 4418POPC   C4A57942  21.565  42.322   7.391
 4418POPC   C1B57943  21.057  42.439   6.344
 4418POPC   C2B57944  20.961  42.408   6.804
 4418POPC   C3B57945  21.072  42.269   7.200
 4418POPC   C4B57946  21.151  42.587   7.521
 4419POPC   NC357947   2.675  26.322   5.421
 4419POPC   PO457948   2.953  25.686   5.396
 4419POPC   GL157949   2.743  25.917   5.732
 4419POPC   GL257950   2.478  25.746   5.883
 4419POPC   C1A57951   2.722  26.117   6.135
 4419POPC   D2A57952   2.882  26.033   6.546
 4419POPC   C3A57953   2.746  26.283   6.886
 4419POPC   C4A57954   2.968  26.211   7.253
 4419POPC   C1B57955   2.587  25.643   6.333
 4419POPC   C2B57956   2.513  25.730   6.761
 4419POPC   C3B57957   2.460  25.918   7.128
 4419POPC   C4B57958   2.653  25.885   7.509
 4420POPC   NC357959   8.833  41.914   5.532
 4420POPC   PO457960   9.251  41.385   5.417
 4420POPC   GL157961   9.034  41.477   5.771
 4420POPC   GL257962   8.671  41.445   5.695
 4420POPC   C1A57963   9.090  41.693   6.166
 4420POPC   D2A57964   9.132  41.505   6.569
 4420POPC   C3A57965   9.326  41.688   6.931
 4420POPC   C4A57966   9.129  41.759   7.340
 4420POPC   C1B57967   8.653  41.439   6.151
 4420POPC   C2B57968   8.627  41.605   6.579
 4420POPC   C3B57969   8.809  41.588   6.994
 4420POPC   C4B57970   8.644  41.630   7.431
 4421POPC   NC357971  14.243  15.981   5.314
 4421POPC   PO457972  14.915  16.139   5.388
 4421POPC   GL157973  14.541  16.154   5.705
 4421POPC   GL257974  14.327  15.836   5.818
 4421POPC   C1A57975  14.416  16.201   6.160
 4421POPC   D2A57976  14.495  15.987   6.573
 4421POPC   C3A57977  14.154  16.059   6.866
 4421POPC   C4A57978  14.161  16.336   7.223
 4421POPC   C1B57979  14.187  15.539   6.161
 4421POPC   C2B57980  14.199  15.564   6.626
 4421POPC   C3B57981  14.507  15.610   6.959
 4421POPC   C4B57982  14.641  16.017   7.136
 4422POPC   NC357983   4.476   8.518   5.391
 4422POPC   PO457984   3.894   8.177   5.459
 4422POPC   GL157985   4.262   8.091   5.794
 4422POPC   GL257986   4.464   8.394   5.874
 4422POPC   C1A57987   4.418   7.989   6.242
 4422POPC   D2A57988   4.115   8.013   6.597
 4422POPC   C3A57989   4.236   7.998   7.043
 4422POPC   C4A57990   4.620   8.057   7.274
 4422POPC   C1B57991   4.150   8.415   6.185
 4422POPC   C2B57992   4.360   8.499   6.577
 4422POPC   C3B57993   4.448   8.470   7.008
 4422POPC   C4B57994   4.268   8.395   7.419
 4423POPC   NC357995  22.334  30.073   5.571
 4423POPC   PO457996  22.888  30.187   5.302
 4423POPC   GL157997  22.858  29.889   5.713
 4423POPC   GL257998  22.541  29.801   5.951
 4423POPC   C1A57999  22.972  29.966   6.166
 4423POPC   D2A58000  22.675  29.917   6.528
 4423POPC   C3A58001  22.895  29.949   6.912
 4423POPC   C4A58002  23.153  30.247   7.173
 4423POPC   C1B58003  22.777  29.503   6.242
 4423POPC   C2B58004  22.995  29.481   6.603
 4423POPC   C3B58005  22.963  29.447   7.028
 4423POPC   C4B58006  22.992  29.691   7.436
 4424POPC   NC358007  27.862  32.244   5.535
 4424POPC   PO458008  27.178  32.129   5.358
 4424POPC   GL158009  27.431  31.979   5.744
 4424POPC   GL258010  27.182  31.881   5.983
 4424POPC   C1A58011  27.620  31.962   6.216
 4424POPC   D2A58012  27.470  32.044   6.662
 4424POPC   C3A58013  27.822  32.043   6.963
 4424POPC   C4A58014  27.911  32.091   7.400
 4424POPC   C1B58015  27.348  32.362   6.077
 4424POPC   C2B58016  27.407  32.540   6.494
 4424POPC   C3B58017  27.528  32.497   6.933
 4424POPC   C4B58018  27.397  32.223   7.242
 4425POPC   NC358019  13.837   3.367   5.365
 4425POPC   PO458020  13.799   3.976   5.342
 4425POPC   GL158021  13.736   4.021   5.787
 4425POPC   GL258022  13.564   3.699   5.798
 4425POPC   C1A58023  13.776   3.862   6.242
 4425POPC   D2A58024  13.753   3.507   6.556
 4425POPC   C3A58025  13.715   3.668   6.973
 4425POPC   C4A58026  13.575   4.073   7.113
 4425POPC   C1B58027  13.363   3.575   6.209
 4425POPC   C2B58028  13.318   3.779   6.637
 4425POPC   C3B58029  13.215   3.664   7.081
 4425POPC   C4B58030  13.201   3.448   7.497
 4426POPC   NC358031   4.393  18.694   5.809
 4426POPC   PO458032   4.572  18.191   5.409
 4426POPC   GL158033   4.410  18.096   5.833
 4426POPC   GL258034   4.090  18.259   5.923
 4426POPC   C1A58035   4.462  18.181   6.294
 4426POPC   D2A58036   4.260  18.245   6.700
 4426POPC   C3A58037   4.549  18.386   7.018
 4426POPC   C4A58038   4.518  18.115   7.343
 4426POPC   C1B58039   4.024  18.536   6.313
 4426POPC   C2B58040   4.050  18.710   6.768
 4426POPC   C3B58041   4.083  18.502   7.195
 4426POPC   C4B58042   4.136  18.304   7.620
 4427POPC   NC358043   6.243  32.991   5.320
 4427POPC   PO458044   6.896  32.961   5.470
 4427POPC   GL158045   6.525  33.049   5.734
 4427POPC   GL258046   6.340  32.720   5.735
 4427POPC   C1A58047   6.510  33.158   6.157
 4427POPC   D2A58048   6.865  33.173   6.425
 4427POPC   C3A58049   6.825  33.163   6.876
 4427POPC   C4A58050   6.441  33.164   7.079
 4427POPC   C1B58051   6.215  32.757   6.174
 4427POPC   C2B58052   6.388  32.903   6.588
 4427POPC   C3B58053   6.604  32.695   6.945
 4427POPC   C4B58054   6.643  32.754   7.377
 4428POPC   NC358055   4.604  43.864   5.328
 4428POPC   PO458056   4.153  44.268   5.346
 4428POPC   GL158057   4.364  44.122   5.782
 4428POPC   GL258058   4.003  44.066   5.817
 4428POPC   C1A58059   4.516  43.845   6.227
 4428POPC   D2A58060   4.708  43.767   6.685
 4428POPC   C3A58061   4.469  43.791   7.051
 4428POPC   C4A58062   4.112  43.543   7.257
 4428POPC   C1B58063   4.022  43.991   6.243
 4428POPC   C2B58064   4.210  43.972   6.636
 4428POPC   C3B58065   3.993  43.976   7.006
 4428POPC   C4B58066   3.926  44.097   7.394
 4429POPC   NC358067  19.488   7.153   5.101
 4429POPC   PO458068  19.936   7.592   5.463
 4429POPC   GL158069  19.859   7.234   5.774
 4429POPC   GL258070  19.558   7.355   6.004
 4429POPC   C1A58071  19.934   7.106   6.210
 4429POPC   D2A58072  19.766   7.395   6.506
 4429POPC   C3A58073  19.924   7.530   6.891
 4429POPC   C4A58074  19.886   7.632   7.311
 4429POPC   C1B58075  19.442   7.754   6.274
 4429POPC   C2B58076  19.473   7.768   6.714
 4429POPC   C3B58077  19.448   7.385   6.952
 4429POPC   C4B58078  19.174   7.257   7.245
 4430POPC   NC358079   5.871  42.752   5.282
 4430POPC   PO458080   5.945  42.158   5.217
 4430POPC   GL158081   5.887  42.178   5.674
 4430POPC   GL258082   5.533  42.045   5.769
 4430POPC   C1A58083   6.025  42.420   6.051
 4430POPC   D2A58084   6.119  42.243   6.476
 4430POPC   C3A58085   5.974  42.273   6.887
 4430POPC   C4A58086   5.991  42.361   7.280
 4430POPC   C1B58087   5.716  42.049   6.204
 4430POPC   C2B58088   5.705  41.929   6.640
 4430POPC   C3B58089   5.692  41.878   7.119
 4430POPC   C4B58090   5.564  42.169   7.453
 4431POPC   NC358091   2.214  24.684   5.463
 4431POPC   PO458092   1.525  24.645   5.337
 4431POPC   GL158093   1.894  24.706   5.841
 4431POPC   GL258094   2.063  24.433   5.964
 4431POPC   C1A58095   1.734  24.806   6.336
 4431POPC   D2A58096   1.825  24.404   6.544
 4431POPC   C3A58097   1.859  24.351   6.989
 4431POPC   C4A58098   1.911  24.718   7.250
 4431POPC   C1B58099   2.215  24.744   6.258
 4431POPC   C2B58100   2.070  24.861   6.698
 4431POPC   C3B58101   2.300  24.953   7.020
 4431POPC   C4B58102   2.423  24.925   7.417
 4432POPC   NC358103  32.072  44.705   5.384
 4432POPC   PO458104  31.641  44.316   5.760
 4432POPC   GL158105  32.002  44.543   5.938
 4432POPC   GL258106  32.349  44.527   5.857
 4432POPC   C1A58107  32.182  44.747   6.312
 4432POPC   D2A58108  32.023  44.942   6.712
 4432POPC   C3A58109  32.136  44.791   7.138
 4432POPC   C4A58110  32.091  44.908   7.597
 4432POPC   C1B58111  32.671  44.573   6.221
 4432POPC   C2B58112  32.714  44.383   6.634
 4432POPC   C3B58113  32.579  44.526   7.039
 4432POPC   C4B58114  32.538  44.693   7.449
 4433POPC   NC358115  24.251  17.287   5.365
 4433POPC   PO458116  24.859  17.632   5.426
 4433POPC   GL158117  24.560  17.470   5.792
 4433POPC   GL258118  24.486  17.104   5.776
 4433POPC   C1A58119  24.422  17.494   6.251
 4433POPC   D2A58120  24.624  17.712   6.651
 4433POPC   C3A58121  24.484  17.638   7.075
 4433POPC   C4A58122  24.661  17.674   7.512
 4433POPC   C1B58123  24.748  17.067   6.135
 4433POPC   C2B58124  24.759  17.237   6.547
 4433POPC   C3B58125  24.685  17.127   6.933
 4433POPC   C4B58126  24.566  17.195   7.321
 4434POPC   NC358127  44.690  30.968   5.551
 4434POPC   PO458128  44.254  30.492   5.459
 4434POPC   GL158129  44.536  30.412   5.782
 4434POPC   GL258130  44.881  30.541   5.755
 4434POPC   C1A58131  44.628  30.475   6.213
 4434POPC   D2A58132  44.425  30.747   6.483
 4434POPC   C3A58133  44.561  30.667   6.871
 4434POPC   C4A58134  44.530  30.934   7.177
 4434POPC   C1B58135  44.961  30.840   6.115
 4434POPC   C2B58136  44.949  30.755   6.535
 4434POPC   C3B58137   0.061  30.871   6.934
 4434POPC   C4B58138  44.976  30.597   7.213
 4435POPC   NC358139  43.775  18.700   5.429
 4435POPC   PO458140  44.244  19.205   5.508
 4435POPC   GL158141  43.904  19.108   5.766
 4435POPC   GL258142  44.079  18.804   5.836
 4435POPC   C1A58143  43.612  19.093   6.142
 4435POPC   D2A58144  43.700  19.004   6.596
 4435POPC   C3A58145  43.831  19.358   6.838
 4435POPC   C4A58146  43.830  19.349   7.312
 4435POPC   C1B58147  44.106  18.981   6.257
 4435POPC   C2B58148  44.266  19.051   6.686
 4435POPC   C3B58149  44.071  18.946   7.057
 4435POPC   C4B58150  43.602  18.934   7.125
 4436POPC   NC358151  30.800  28.058   5.404
 4436POPC   PO458152  31.208  28.633   5.382
 4436POPC   GL158153  30.928  28.417   5.777
 4436POPC   GL258154  30.693  28.151   5.884
 4436POPC   C1A58155  30.665  28.597   6.140
 4436POPC   D2A58156  30.410  28.822   6.462
 4436POPC   C3A58157  30.583  28.756   6.882
 4436POPC   C4A58158  30.680  28.818   7.310
 4436POPC   C1B58159  30.793  28.106   6.305
 4436POPC   C2B58160  30.541  28.034   6.664
 4436POPC   C3B58161  30.458  28.009   7.093
 4436POPC   C4B58162  30.649  28.329   7.261
 4437POPC   NC358163  22.965   9.001   5.382
 4437POPC   PO458164  22.308   9.016   5.677
 4437POPC   GL158165  22.702   9.023   5.877
 4437POPC   GL258166  22.903   8.716   5.845
 4437POPC   C1A58167  22.833   8.946   6.339
 4437POPC   D2A58168  22.832   8.534   6.590
 4437POPC   C3A58169  23.014   8.553   7.026
 4437POPC   C4A58170  22.680   8.630   7.326
 4437POPC   C1B58171  23.192   8.602   6.193
 4437POPC   C2B58172  23.303   8.733   6.625
 4437POPC   C3B58173  23.088   9.044   6.868
 4437POPC   C4B58174  23.021   9.001   7.287
 4438POPC   NC358175  35.333  12.415   5.333
 4438POPC   PO458176  35.022  11.859   5.164
 4438POPC   GL158177  35.120  11.818   5.664
 4438POPC   GL258178  35.400  12.014   5.696
 4438POPC   C1A58179  34.989  11.848   6.134
 4438POPC   D2A58180  35.134  12.033   6.547
 4438POPC   C3A58181  35.302  11.890   6.964
 4438POPC   C4A58182  35.125  12.065   7.364
 4438POPC   C1B58183  35.443  12.120   6.137
 4438POPC   C2B58184  35.616  12.251   6.571
 4438POPC   C3B58185  35.561  12.320   7.030
 4438POPC   C4B58186  35.651  12.007   7.358
 4439POPC   NC358187  15.080   3.900   5.304
 4439POPC   PO458188  15.340   3.352   5.456
 4439POPC   GL158189  15.184   3.652   5.768
 4439POPC   GL258190  14.935   3.499   5.975
 4439POPC   C1A58191  15.337   3.716   6.200
 4439POPC   D2A58192  15.513   3.816   6.606
 4439POPC   C3A58193  15.300   3.655   6.991
 4439POPC   C4A58194  15.072   3.271   7.097
 4439POPC   C1B58195  14.872   3.911   6.144
 4439POPC   C2B58196  15.055   4.012   6.540
 4439POPC   C3B58197  14.908   3.993   6.981
 4439POPC   C4B58198  14.766   3.685   7.297
 4440POPC   NC358199   0.729  16.868   5.331
 4440POPC   PO458200   0.093  16.768   5.325
 4440POPC   GL158201   0.436  16.854   5.748
 4440POPC   GL258202   0.737  17.116   5.767
 4440POPC   C1A58203   0.566  16.681   6.218
 4440POPC   D2A58204   0.244  16.591   6.591
 4440POPC   C3A58205   0.327  16.624   7.060
 4440POPC   C4A58206   0.736  16.526   7.236
 4440POPC   C1B58207   0.575  17.193   6.137
 4440POPC   C2B58208   0.727  17.148   6.500
 4440POPC   C3B58209   0.709  16.883   6.823
 4440POPC   C4B58210   0.659  17.050   7.191
 4441POPC   NC358211   8.017  37.748   4.690
 4441POPC   PO458212   7.992  37.827   5.373
 4441POPC   GL158213   8.274  37.774   5.723
 4441POPC   GL258214   8.336  37.406   5.738
 4441POPC   C1A58215   8.195  37.996   6.138
 4441POPC   D2A58216   8.282  38.185   6.525
 4441POPC   C3A58217   8.145  37.980   6.906
 4441POPC   C4A58218   8.015  38.154   7.300
 4441POPC   C1B58219   8.120  37.504   6.145
 4441POPC   C2B58220   8.274  37.639   6.542
 4441POPC   C3B58221   8.390  37.484   6.956
 4441POPC   C4B58222   8.188  37.367   7.350
 4442POPC   NC358223  11.541  16.540   5.630
 4442POPC   PO458224  12.191  16.608   5.346
 4442POPC   GL158225  12.214  16.742   5.804
 4442POPC   GL258226  11.886  16.674   5.976
 4442POPC   C1A58227  12.223  16.903   6.268
 4442POPC   D2A58228  12.026  16.942   6.677
 4442POPC   C3A58229  12.280  17.020   7.079
 4442POPC   C4A58230  12.396  16.791   7.469
 4442POPC   C1B58231  11.762  16.305   6.266
 4442POPC   C2B58232  11.845  16.286   6.716
 4442POPC   C3B58233  12.064  16.552   7.005
 4442POPC   C4B58234  11.880  16.784   7.308
 4443POPC   NC358235   0.491  19.005   5.326
 4443POPC   PO458236   0.377  19.647   5.131
 4443POPC   GL158237   0.524  19.393   5.657
 4443POPC   GL258238   0.608  19.050   5.803
 4443POPC   C1A58239   0.505  19.308   6.205
 4443POPC   D2A58240   0.700  19.278   6.641
 4443POPC   C3A58241   0.392  19.348   6.988
 4443POPC   C4A58242   0.056  19.169   7.259
 4443POPC   C1B58243   0.310  18.844   6.068
 4443POPC   C2B58244   0.367  18.859   6.499
 4443POPC   C3B58245   0.202  18.840   6.888
 4443POPC   C4B58246   0.201  18.688   7.293
 4444POPC   NC358247  10.285  40.566   5.378
 4444POPC   PO458248  10.874  40.872   5.401
 4444POPC   GL158249  10.669  40.987   5.804
 4444POPC   GL258250  10.532  40.683   5.824
 4444POPC   C1A58251  10.390  41.035   6.174
 4444POPC   D2A58252  10.297  40.869   6.590
 4444POPC   C3A58253  10.630  40.930   6.893
 4444POPC   C4A58254  10.637  40.763   7.291
 4444POPC   C1B58255  10.384  40.519   6.221
 4444POPC   C2B58256  10.174  40.350   6.611
 4444POPC   C3B58257  10.259  40.548   7.038
 4444POPC   C4B58258  10.248  40.561   7.534
 4445POPC   NC358259  24.607   4.937   5.661
 4445POPC   PO458260  25.254   5.021   5.435
 4445POPC   GL158261  25.089   4.994   5.847
 4445POPC   GL258262  24.902   5.294   5.916
 4445POPC   C1A58263  25.154   4.800   6.248
 4445POPC   D2A58264  25.371   4.688   6.639
 4445POPC   C3A58265  25.129   4.853   7.017
 4445POPC   C4A58266  24.689   4.933   7.219
 4445POPC   C1B58267  25.137   5.315   6.265
 4445POPC   C2B58268  25.280   5.179   6.633
 4445POPC   C3B58269  25.198   5.348   7.033
 4445POPC   C4B58270  25.350   5.680   7.201
 4446POPC   NC358271  29.281  17.404   5.651
 4446POPC   PO458272  29.853  17.438   5.276
 4446POPC   GL158273  29.839  17.610   5.720
 4446POPC   GL258274  29.566  17.871   5.724
 4446POPC   C1A58275  29.959  17.427   6.160
 4446POPC   D2A58276  29.764  17.311   6.579
 4446POPC   C3A58277  30.001  17.362   6.970
 4446POPC   C4A58278  29.997  17.408   7.430
 4446POPC   C1B58279  29.606  17.813   6.189
 4446POPC   C2B58280  29.805  17.812   6.635
 4446POPC   C3B58281  29.684  17.775   7.091
 4446POPC   C4B58282  29.787  17.867   7.543
 4447POPC   NC358283  32.902  11.972   5.485
 4447POPC   PO458284  33.440  11.615   5.708
 4447POPC   GL158285  33.157  11.940   5.946
 4447POPC   GL258286  32.960  12.278   5.908
 4447POPC   C1A58287  33.031  12.084   6.366
 4447POPC   D2A58288  32.927  11.937   6.743
 4447POPC   C3A58289  33.244  12.015   7.004
 4447POPC   C4A58290  33.376  12.444   7.092
 4447POPC   C1B58291  32.710  12.484   6.281
 4447POPC   C2B58292  32.565  12.307   6.692
 4447POPC   C3B58293  32.788  12.249   7.106
 4447POPC   C4B58294  32.853  11.836   7.292
 4448POPC   NC358295   3.995  36.687   5.444
 4448POPC   PO458296   4.568  36.857   5.559
 4448POPC   GL158297   4.299  36.819   5.858
 4448POPC   GL258298   4.110  37.098   5.859
 4448POPC   C1A58299   4.397  36.965   6.266
 4448POPC   D2A58300   4.677  36.976   6.591
 4448POPC   C3A58301   4.380  36.908   6.915
 4448POPC   C4A58302   4.622  36.902   7.251
 4448POPC   C1B58303   3.888  36.928   6.203
 4448POPC   C2B58304   3.944  36.727   6.591
 4448POPC   C3B58305   3.867  36.792   7.021
 4448POPC   C4B58306   4.116  36.859   7.374
 4449POPC   NC358307  30.473  31.155   5.476
 4449POPC   PO458308  30.495  30.558   5.159
 4449POPC   GL158309  30.407  30.536   5.641
 4449POPC   GL258310  30.631  30.785   5.815
 4449POPC   C1A58311  30.366  30.478   6.137
 4449POPC   D2A58312  30.382  30.630   6.617
 4449POPC   C3A58313  30.736  30.522   6.899
 4449POPC   C4A58314  30.695  30.411   7.335
 4449POPC   C1B58315  30.757  31.089   6.144
 4449POPC   C2B58316  30.666  31.226   6.547
 4449POPC   C3B58317  30.694  31.046   6.943
 4449POPC   C4B58318  30.831  30.900   7.343
 4450POPC   NC358319  17.871   8.134   5.367
 4450POPC   PO458320  18.550   8.306   5.242
 4450POPC   GL158321  18.332   8.323   5.691
 4450POPC   GL258322  18.198   8.023   5.792
 4450POPC   C1A58323  18.196   8.539   6.089
 4450POPC   D2A58324  18.116   8.577   6.525
 4450POPC   C3A58325  18.261   8.343   6.876
 4450POPC   C4A58326  18.076   8.246   7.273
 4450POPC   C1B58327  18.327   8.042   6.231
 4450POPC   C2B58328  18.584   8.023   6.621
 4450POPC   C3B58329  18.585   7.944   7.092
 4450POPC   C4B58330  18.921   7.990   7.431
 4451POPC   NC358331  23.239   3.545   5.459
 4451POPC   PO458332  23.896   3.307   5.393
 4451POPC   GL158333  23.654   3.463   5.766
 4451POPC   GL258334  23.817   3.765   5.798
 4451POPC   C1A58335  23.531   3.654   6.191
 4451POPC   D2A58336  23.705   3.570   6.605
 4451POPC   C3A58337  23.503   3.697   6.997
 4451POPC   C4A58338  23.430   3.443   7.416
 4451POPC   C1B58339  24.042   3.733   6.196
 4451POPC   C2B58340  24.074   3.926   6.585
 4451POPC   C3B58341  24.043   3.732   6.979
 4451POPC   C4B58342  23.879   3.669   7.356
 4452POPC   NC358343   3.722  38.692   5.418
 4452POPC   PO458344   3.481  38.041   5.522
 4452POPC   GL158345   3.439  38.410   5.779
 4452POPC   GL258346   3.107  38.546   5.786
 4452POPC   C1A58347   3.623  38.470   6.182
 4452POPC   D2A58348   3.492  38.589   6.606
 4452POPC   C3A58349   3.652  38.286   6.908
 4452POPC   C4A58350   3.801  38.469   7.310
 4452POPC   C1B58351   3.195  38.745   6.201
 4452POPC   C2B58352   2.967  38.918   6.558
 4452POPC   C3B58353   3.145  38.958   6.962
 4452POPC   C4B58354   3.314  38.565   7.151
 4453POPC   NC358355  11.650  11.115   5.266
 4453POPC   PO458356  10.981  10.957   5.364
 4453POPC   GL158357  11.302  11.122   5.657
 4453POPC   GL258358  11.345  11.487   5.688
 4453POPC   C1A58359  11.330  11.173   6.104
 4453POPC   D2A58360  11.498  11.130   6.517
 4453POPC   C3A58361  11.271  10.972   6.808
 4453POPC   C4A58362  11.329  11.117   7.187
 4453POPC   C1B58363  11.523  11.673   6.078
 4453POPC   C2B58364  11.663  11.618   6.509
 4453POPC   C3B58365  11.466  11.538   6.922
 4453POPC   C4B58366  11.325  11.590   7.376
 4454POPC   NC358367  36.804  39.723   5.375
 4454POPC   PO458368  36.856  40.418   5.308
 4454POPC   GL158369  36.960  40.131   5.677
 4454POPC   GL258370  37.199  39.822   5.666
 4454POPC   C1A58371  36.764  39.941   6.077
 4454POPC   D2A58372  36.470  39.894   6.459
 4454POPC   C3A58373  36.552  39.810   6.906
 4454POPC   C4A58374  36.745  40.041   7.263
 4454POPC   C1B58375  37.272  39.777   6.110
 4454POPC   C2B58376  36.997  39.787   6.520
 4454POPC   C3B58377  37.051  39.733   6.974
 4454POPC   C4B58378  37.106  39.740   7.424
 4455POPC   NC358379  44.935  25.955   5.492
 4455POPC   PO458380   0.617  26.121   5.427
 4455POPC   GL158381   0.382  26.056   5.759
 4455POPC   GL258382   0.328  25.712   5.707
 4455POPC   C1A58383   0.163  26.164   6.134
 4455POPC   D2A58384   0.099  25.936   6.523
 4455POPC   C3A58385   0.232  26.229   6.834
 4455POPC   C4A58386  44.951  26.459   7.109
 4455POPC   C1B58387   0.393  25.691   6.153
 4455POPC   C2B58388   0.584  25.762   6.570
 4455POPC   C3B58389   0.413  25.753   6.995
 4455POPC   C4B58390   0.149  25.994   7.263
 4456POPC   NC358391   2.338   0.409   5.513
 4456POPC   PO458392   1.673   0.435   5.462
 4456POPC   GL158393   1.818   0.533   5.903
 4456POPC   GL258394   2.190   0.646   5.954
 4456POPC   C1A58395   1.864   0.672   6.361
 4456POPC   D2A58396   2.017   0.463   6.747
 4456POPC   C3A58397   1.819   0.391   7.115
 4456POPC   C4A58398   1.537   0.083   7.217
 4456POPC   C1B58399   2.382   0.453   6.343
 4456POPC   C2B58400   2.544   0.394   6.770
 4456POPC   C3B58401   2.332   0.295   7.137
 4456POPC   C4B58402   2.255   0.542   7.501
 4457POPC   NC358403   3.310  19.407   5.542
 4457POPC   PO458404   3.625  20.044   5.510
 4457POPC   GL158405   3.470  19.826   5.798
 4457POPC   GL258406   3.108  19.855   5.755
 4457POPC   C1A58407   3.632  19.692   6.175
 4457POPC   D2A58408   3.504  19.702   6.570
 4457POPC   C3A58409   3.698  19.685   6.943
 4457POPC   C4A58410   3.699  19.483   7.305
 4457POPC   C1B58411   3.224  20.061   6.178
 4457POPC   C2B58412   3.191  20.277   6.587
 4457POPC   C3B58413   3.218  20.150   7.037
 4457POPC   C4B58414   3.468  19.954   7.399
 4458POPC   NC358415  38.246  11.420   5.376
 4458POPC   PO458416  38.471  10.811   5.361
 4458POPC   GL158417  38.566  11.087   5.725
 4458POPC   GL258418  38.538  11.469   5.813
 4458POPC   C1A58419  38.431  11.106   6.153
 4458POPC   D2A58420  38.476  11.366   6.527
 4458POPC   C3A58421  38.557  11.162   6.898
 4458POPC   C4A58422  38.420  11.055   7.297
 4458POPC   C1B58423  38.231  11.612   6.144
 4458POPC   C2B58424  38.274  11.841   6.570
 4458POPC   C3B58425  38.417  11.670   6.970
 4458POPC   C4B58426  38.577  11.530   7.371
 4459POPC   NC358427  11.244   9.282   5.551
 4459POPC   PO458428  11.297   9.974   5.433
 4459POPC   GL158429  11.286   9.740   5.820
 4459POPC   GL258430  11.564   9.476   5.902
 4459POPC   C1A58431  11.403   9.827   6.244
 4459POPC   D2A58432  11.497   9.598   6.591
 4459POPC   C3A58433  11.504   9.887   6.891
 4459POPC   C4A58434  11.198  10.011   7.220
 4459POPC   C1B58435  11.234   9.344   6.206
 4459POPC   C2B58436  11.006   9.367   6.567
 4459POPC   C3B58437  11.097   9.533   6.961
 4459POPC   C4B58438  11.421   9.581   7.275
 4460POPC   NC358439  36.240  21.348   5.274
 4460POPC   PO458440  35.691  21.854   5.352
 4460POPC   GL158441  35.879  21.637   5.722
 4460POPC   GL258442  36.257  21.588   5.759
 4460POPC   C1A58443  35.919  21.540   6.175
 4460POPC   D2A58444  36.114  21.399   6.563
 4460POPC   C3A58445  36.005  21.344   6.993
 4460POPC   C4A58446  36.272  21.447   7.294
 4460POPC   C1B58447  36.403  21.323   6.132
 4460POPC   C2B58448  36.541  21.113   6.537
 4460POPC   C3B58449  36.442  21.045   6.984
 4460POPC   C4B58450  36.127  20.918   7.290
 4461POPC   NC358451  17.841  29.272   5.433
 4461POPC   PO458452  17.236  29.364   5.419
 4461POPC   GL158453  17.445  29.138   5.768
 4461POPC   GL258454  17.234  28.815   5.763
 4461POPC   C1A58455  17.670  29.155   6.191
 4461POPC   D2A58456  17.836  29.136   6.645
 4461POPC   C3A58457  17.582  29.262   7.046
 4461POPC   C4A58458  17.374  29.501   7.426
 4461POPC   C1B58459  17.158  29.004   6.172
 4461POPC   C2B58460  17.335  28.956   6.561
 4461POPC   C3B58461  17.237  28.854   6.947
 4461POPC   C4B58462  17.137  29.085   7.303
 4462POPC   NC358463  19.774  34.472   5.231
 4462POPC   PO458464  19.992  35.114   5.267
 4462POPC   GL158465  20.027  34.897   5.665
 4462POPC   GL258466  20.013  34.525   5.682
 4462POPC   C1A58467  19.911  34.879   6.102
 4462POPC   D2A58468  19.761  34.611   6.422
 4462POPC   C3A58469  19.852  34.692   6.850
 4462POPC   C4A58470  19.729  34.478   7.236
 4462POPC   C1B58471  20.187  34.434   6.083
 4462POPC   C2B58472  20.359  34.656   6.424
 4462POPC   C3B58473  20.432  34.740   6.848
 4462POPC   C4B58474  20.202  34.699   7.223
 4463POPC   NC358475  36.867  32.052   5.252
 4463POPC   PO458476  36.814  32.701   5.161
 4463POPC   GL158477  36.746  32.450   5.589
 4463POPC   GL258478  37.055  32.336   5.718
 4463POPC   C1A58479  36.751  32.428   6.108
 4463POPC   D2A58480  36.800  32.575   6.559
 4463POPC   C3A58481  36.802  32.274   6.900
 4463POPC   C4A58482  36.644  32.167   7.291
 4463POPC   C1B58483  37.226  32.273   6.142
 4463POPC   C2B58484  37.196  32.256   6.571
 4463POPC   C3B58485  37.289  32.243   7.026
 4463POPC   C4B58486  37.106  32.198   7.462
 4464POPC   NC358487   8.757  14.172   5.443
 4464POPC   PO458488   9.285  14.430   5.125
 4464POPC   GL158489   9.315  14.545   5.648
 4464POPC   GL258490   8.965  14.432   5.828
 4464POPC   C1A58491   9.215  14.762   6.097
 4464POPC   D2A58492   8.928  14.499   6.391
 4464POPC   C3A58493   8.936  14.556   6.857
 4464POPC   C4A58494   9.048  14.341   7.255
 4464POPC   C1B58495   8.809  14.073   6.114
 4464POPC   C2B58496   8.627  14.047   6.519
 4464POPC   C3B58497   8.888  14.035   6.865
 4464POPC   C4B58498   8.899  13.850   7.248
 4465POPC   NC358499   1.652  22.885   5.302
 4465POPC   PO458500   2.150  23.280   5.265
 4465POPC   GL158501   2.044  22.904   5.642
 4465POPC   GL258502   1.675  22.820   5.800
 4465POPC   C1A58503   2.038  22.801   6.124
 4465POPC   D2A58504   1.859  22.985   6.473
 4465POPC   C3A58505   2.113  22.929   6.829
 4465POPC   C4A58506   1.996  23.138   7.207
 4465POPC   C1B58507   1.559  22.616   6.221
 4465POPC   C2B58508   1.725  22.519   6.648
 4465POPC   C3B58509   1.774  22.660   7.082
 4465POPC   C4B58510   2.151  22.666   7.295
 4466POPC   NC358511   0.513  33.256   5.453
 4466POPC   PO458512   0.084  32.752   5.341
 4466POPC   GL158513   0.124  32.959   5.758
 4466POPC   GL258514   0.469  32.955   5.846
 4466POPC   C1A58515   0.102  33.080   6.232
 4466POPC   D2A58516   0.062  33.102   6.696
 4466POPC   C3A58517   0.316  32.990   7.075
 4466POPC   C4A58518   0.441  33.282   7.436
 4466POPC   C1B58519   0.636  33.110   6.207
 4466POPC   C2B58520   0.590  33.089   6.647
 4466POPC   C3B58521   0.734  33.342   6.987
 4466POPC   C4B58522   0.931  33.190   7.300
 4467POPC   NC358523  41.632  41.169   5.358
 4467POPC   PO458524  41.507  41.844   5.431
 4467POPC   GL158525  41.588  41.515   5.764
 4467POPC   GL258526  41.310  41.612   5.992
 4467POPC   C1A58527  41.701  41.353   6.204
 4467POPC   D2A58528  41.791  41.582   6.588
 4467POPC   C3A58529  41.564  41.489   6.956
 4467POPC   C4A58530  41.664  41.070   7.129
 4467POPC   C1B58531  41.653  41.874   6.178
 4467POPC   C2B58532  41.762  42.114   6.551
 4467POPC   C3B58533  41.853  41.972   6.945
 4467POPC   C4B58534  41.649  41.922   7.309
 4468POPC   NC358535  41.273  21.444   5.231
 4468POPC   PO458536  41.860  21.106   5.283
 4468POPC   GL158537  41.566  21.138   5.614
 4468POPC   GL258538  41.527  21.455   5.712
 4468POPC   C1A58539  41.423  21.097   6.064
 4468POPC   D2A58540  41.246  21.278   6.449
 4468POPC   C3A58541  41.380  21.130   6.852
 4468POPC   C4A58542  41.500  21.255   7.260
 4468POPC   C1B58543  41.511  21.588   6.130
 4468POPC   C2B58544  41.576  21.692   6.565
 4468POPC   C3B58545  41.473  21.667   6.985
 4468POPC   C4B58546  41.500  21.850   7.367
 4469POPC   NC358547   1.532  15.902   5.432
 4469POPC   PO458548   0.960  16.298   5.490
 4469POPC   GL158549   1.104  16.026   5.847
 4469POPC   GL258550   0.908  15.697   5.942
 4469POPC   C1A58551   0.971  16.040   6.297
 4469POPC   D2A58552   0.827  15.816   6.666
 4469POPC   C3A58553   0.940  16.121   6.985
 4469POPC   C4A58554   1.289  16.186   7.268
 4469POPC   C1B58555   1.316  15.618   6.150
 4469POPC   C2B58556   1.525  15.711   6.570
 4469POPC   C3B58557   1.250  15.714   6.967
 4469POPC   C4B58558   1.202  15.722   7.430
 4470POPC   NC358559   6.011   2.975   5.173
 4470POPC   PO458560   5.953   2.449   5.579
 4470POPC   GL158561   5.929   2.850   5.734
 4470POPC   GL258562   6.184   2.739   5.995
 4470POPC   C1A58563   5.875   3.132   6.083
 4470POPC   D2A58564   6.178   3.108   6.373
 4470POPC   C3A58565   6.055   2.958   6.785
 4470POPC   C4A58566   5.953   2.845   7.216
 4470POPC   C1B58567   5.934   2.649   6.363
 4470POPC   C2B58568   5.677   2.451   6.697
 4470POPC   C3B58569   5.755   2.379   7.139
 4470POPC   C4B58570   6.127   2.400   7.431
 4471POPC   NC358571  15.278  12.031   5.554
 4471POPC   PO458572  14.787  12.077   5.167
 4471POPC   GL158573  14.768  12.160   5.673
 4471POPC   GL258574  14.895  11.929   5.921
 4471POPC   C1A58575  14.895  12.436   6.089
 4471POPC   D2A58576  15.016  12.449   6.564
 4471POPC   C3A58577  15.220  12.043   6.746
 4471POPC   C4A58578  15.570  11.968   7.048
 4471POPC   C1B58579  15.059  11.661   6.239
 4471POPC   C2B58580  14.949  11.570   6.666
 4471POPC   C3B58581  14.936  11.648   7.104
 4471POPC   C4B58582  15.238  11.765   7.381
 4472POPC   NC358583  34.720  31.097   5.502
 4472POPC   PO458584  34.301  31.548   5.196
 4472POPC   GL158585  34.318  31.648   5.643
 4472POPC   GL258586  34.206  31.331   5.747
 4472POPC   C1A58587  34.576  31.609   6.038
 4472POPC   D2A58588  34.869  31.667   6.414
 4472POPC   C3A58589  34.704  31.557   6.833
 4472POPC   C4A58590  34.609  31.395   7.224
 4472POPC   C1B58591  34.183  31.303   6.203
 4472POPC   C2B58592  34.121  31.192   6.668
 4472POPC   C3B58593  34.160  31.160   7.150
 4472POPC   C4B58594  34.369  31.120   7.588
 4473POPC   NC358595   0.833  27.179   5.610
 4473POPC   PO458596   0.384  27.574   5.226
 4473POPC   GL158597   0.405  27.671   5.752
 4473POPC   GL258598   0.741  27.841   5.810
 4473POPC   C1A58599   0.157  27.577   6.192
 4473POPC   D2A58600  44.977  27.466   6.637
 4473POPC   C3A58601   0.329  27.361   6.935
 4473POPC   C4A58602   0.426  27.624   7.283
 4473POPC   C1B58603   0.755  27.547   6.143
 4473POPC   C2B58604   0.717  27.406   6.558
 4473POPC   C3B58605   0.636  27.741   6.823
 4473POPC   C4B58606   0.828  27.934   7.177
 4474POPC   NC358607   8.444  39.085   5.612
 4474POPC   PO458608   8.038  39.481   5.227
 4474POPC   GL158609   8.034  39.434   5.714
 4474POPC   GL258610   7.865  39.670   5.937
 4474POPC   C1A58611   8.025  39.222   6.160
 4474POPC   D2A58612   8.270  39.011   6.507
 4474POPC   C3A58613   8.184  39.007   6.952
 4474POPC   C4A58614   8.281  39.122   7.388
 4474POPC   C1B58615   7.839  39.651   6.399
 4474POPC   C2B58616   7.853  39.337   6.721
 4474POPC   C3B58617   7.984  39.441   7.147
 4474POPC   C4B58618   7.989  39.441   7.663
 4475POPC   NC358619  38.960  27.875   5.355
 4475POPC   PO458620  39.187  28.518   5.395
 4475POPC   GL158621  38.983  28.343   5.744
 4475POPC   GL258622  39.299  28.210   5.794
 4475POPC   C1A58623  39.030  28.356   6.197
 4475POPC   D2A58624  39.341  28.504   6.499
 4475POPC   C3A58625  39.161  28.496   6.875
 4475POPC   C4A58626  39.281  28.398   7.280
 4475POPC   C1B58627  39.543  28.209   6.144
 4475POPC   C2B58628  39.641  28.050   6.530
 4475POPC   C3B58629  39.488  28.078   6.925
 4475POPC   C4B58630  39.685  28.040   7.283
 4476POPC   NC358631  22.334   8.623   5.450
 4476POPC   PO458632  22.266   7.986   5.444
 4476POPC   GL158633  22.076   8.253   5.746
 4476POPC   GL258634  21.856   8.572   5.673
 4476POPC   C1A58635  22.103   8.100   6.154
 4476POPC   D2A58636  22.316   8.209   6.549
 4476POPC   C3A58637  22.327   7.829   6.768
 4476POPC   C4A58638  22.144   7.957   7.081
 4476POPC   C1B58639  21.820   8.528   6.135
 4476POPC   C2B58640  21.806   8.261   6.528
 4476POPC   C3B58641  21.915   8.387   6.931
 4476POPC   C4B58642  22.265   8.602   7.053
 4477POPC   NC358643  37.217  32.462   5.259
 4477POPC   PO458644  37.022  33.158   5.430
 4477POPC   GL158645  36.967  32.878   5.784
 4477POPC   GL258646  37.267  32.786   5.902
 4477POPC   C1A58647  36.811  32.937   6.209
 4477POPC   D2A58648  36.992  33.128   6.613
 4477POPC   C3A58649  36.934  33.278   7.060
 4477POPC   C4A58650  36.727  33.091   7.417
 4477POPC   C1B58651  37.270  32.741   6.365
 4477POPC   C2B58652  37.264  32.719   6.822
 4477POPC   C3B58653  37.019  32.650   7.197
 4477POPC   C4B58654  36.983  32.695   7.639
 4478POPC   NC358655   4.952   4.344   5.503
 4478POPC   PO458656   5.583   4.061   5.529
 4478POPC   GL158657   5.335   4.275   5.852
 4478POPC   GL258658   5.084   4.557   5.946
 4478POPC   C1A58659   5.349   4.228   6.282
 4478POPC   D2A58660   5.245   4.073   6.672
 4478POPC   C3A58661   5.085   4.434   6.892
 4478POPC   C4A58662   4.935   4.406   7.291
 4478POPC   C1B58663   4.834   4.244   6.145
 4478POPC   C2B58664   4.701   4.212   6.571
 4478POPC   C3B58665   4.784   4.020   6.976
 4478POPC   C4B58666   4.614   4.021   7.434
 4479POPC   NC358667  34.298  26.240   5.390
 4479POPC   PO458668  34.888  25.879   5.517
 4479POPC   GL158669  34.699  26.191   5.818
 4479POPC   GL258670  34.331  26.136   5.912
 4479POPC   C1A58671  34.683  26.130   6.284
 4479POPC   D2A58672  34.642  25.972   6.706
 4479POPC   C3A58673  34.451  26.235   7.055
 4479POPC   C4A58674  34.528  26.253   7.523
 4479POPC   C1B58675  34.283  25.792   6.257
 4479POPC   C2B58676  34.306  25.573   6.683
 4479POPC   C3B58677  34.419  25.726   7.113
 4479POPC   C4B58678  34.182  25.860   7.502
 4480POPC   NC358679  23.112  15.380   5.520
 4480POPC   PO458680  22.754  14.764   5.406
 4480POPC   GL158681  23.034  14.946   5.794
 4480POPC   GL258682  23.000  15.283   6.011
 4480POPC   C1A58683  23.195  14.890   6.242
 4480POPC   D2A58684  22.962  15.012   6.642
 4480POPC   C3A58685  23.056  15.331   6.959
 4480POPC   C4A58686  23.091  15.327   7.405
 4480POPC   C1B58687  22.684  15.353   6.332
 4480POPC   C2B58688  22.604  15.501   6.750
 4480POPC   C3B58689  22.618  15.437   7.208
 4480POPC   C4B58690  22.688  15.451   7.689
 4481POPC   NC358691   2.449   3.672   5.562
 4481POPC   PO458692   3.058   3.739   5.428
 4481POPC   GL158693   2.871   3.466   5.822
 4481POPC   GL258694   2.555   3.221   5.811
 4481POPC   C1A58695   2.774   3.419   6.308
 4481POPC   D2A58696   2.493   3.705   6.570
 4481POPC   C3A58697   2.534   3.734   7.026
 4481POPC   C4A58698   2.812   3.536   7.327
 4481POPC   C1B58699   2.279   3.451   6.151
 4481POPC   C2B58700   2.316   3.241   6.573
 4481POPC   C3B58701   2.639   3.265   6.888
 4481POPC   C4B58702   2.434   3.203   7.267
 4482POPC   NC358703   4.055   4.891   5.421
 4482POPC   PO458704   4.508   5.486   5.410
 4482POPC   GL158705   4.496   5.265   5.828
 4482POPC   GL258706   4.308   4.935   5.864
 4482POPC   C1A58707   4.697   5.121   6.239
 4482POPC   D2A58708   4.841   5.148   6.704
 4482POPC   C3A58709   4.438   5.176   6.993
 4482POPC   C4A58710   4.129   4.849   7.133
 4482POPC   C1B58711   4.178   5.048   6.288
 4482POPC   C2B58712   3.997   5.227   6.654
 4482POPC   C3B58713   3.972   5.368   7.065
 4482POPC   C4B58714   4.156   5.311   7.452
 4483POPC   NC358715  22.526  32.567   5.136
 4483POPC   PO458716  22.064  32.070   5.357
 4483POPC   GL158717  21.958  32.226   5.804
 4483POPC   GL258718  22.138  32.550   5.739
 4483POPC   C1A58719  21.906  32.208   6.264
 4483POPC   D2A58720  22.153  32.039   6.570
 4483POPC   C3A58721  22.159  32.146   6.957
 4483POPC   C4A58722  22.257  31.934   7.309
 4483POPC   C1B58723  22.182  32.653   6.182
 4483POPC   C2B58724  22.083  32.579   6.608
 4483POPC   C3B58725  22.331  32.620   6.980
 4483POPC   C4B58726  22.213  32.469   7.367
 4484POPC   NC358727  30.556  37.465   5.425
 4484POPC   PO458728  31.016  37.914   5.248
 4484POPC   GL158729  30.847  37.815   5.717
 4484POPC   GL258730  30.729  37.476   5.906
 4484POPC   C1A58731  30.813  37.905   6.187
 4484POPC   D2A58732  30.644  37.891   6.618
 4484POPC   C3A58733  30.941  38.061   6.914
 4484POPC   C4A58734  30.990  38.066   7.357
 4484POPC   C1B58735  30.741  37.409   6.354
 4484POPC   C2B58736  30.714  37.398   6.793
 4484POPC   C3B58737  30.698  37.682   7.114
 4484POPC   C4B58738  30.924  37.568   7.458
 4485POPC   NC358739  28.720  28.233   5.376
 4485POPC   PO458740  28.059  28.473   5.395
 4485POPC   GL158741  28.343  28.350   5.707
 4485POPC   GL258742  28.591  28.614   5.768
 4485POPC   C1A58743  28.399  28.323   6.159
 4485POPC   D2A58744  28.301  28.439   6.603
 4485POPC   C3A58745  28.426  28.227   7.032
 4485POPC   C4A58746  28.789  27.985   7.219
 4485POPC   C1B58747  28.783  28.681   6.157
 4485POPC   C2B58748  28.671  28.889   6.545
 4485POPC   C3B58749  28.526  28.718   6.963
 4485POPC   C4B58750  28.388  28.619   7.413
 4486POPC   NC358751  28.687  42.722   5.491
 4486POPC   PO458752  28.544  43.430   5.416
 4486POPC   GL158753  28.411  43.129   5.753
 4486POPC   GL258754  28.433  43.381   5.957
 4486POPC   C1A58755  28.205  42.962   6.149
 4486POPC   D2A58756  28.379  42.827   6.542
 4486POPC   C3A58757  28.310  42.821   6.999
 4486POPC   C4A58758  28.650  42.706   7.311
 4486POPC   C1B58759  28.221  43.440   6.298
 4486POPC   C2B58760  28.445  43.366   6.663
 4486POPC   C3B58761  28.455  43.541   7.068
 4486POPC   C4B58762  28.350  43.270   7.401
 4487POPC   NC358763   3.533  16.287   5.377
 4487POPC   PO458764   3.909  15.832   5.098
 4487POPC   GL158765   3.745  15.870   5.596
 4487POPC   GL258766   3.766  16.187   5.827
 4487POPC   C1A58767   3.583  15.775   6.079
 4487POPC   D2A58768   3.695  15.904   6.543
 4487POPC   C3A58769   3.590  15.750   6.992
 4487POPC   C4A58770   3.393  16.028   7.343
 4487POPC   C1B58771   3.381  16.255   6.129
 4487POPC   C2B58772   3.275  16.372   6.581
 4487POPC   C3B58773   3.571  16.267   6.924
 4487POPC   C4B58774   3.689  16.448   7.352
 4488POPC   NC358775  29.826  32.725   5.485
 4488POPC   PO458776  30.288  33.148   5.319
 4488POPC   GL158777  30.183  33.003   5.720
 4488POPC   GL258778  30.260  32.658   5.744
 4488POPC   C1A58779  29.855  32.936   6.086
 4488POPC   D2A58780  29.680  32.825   6.471
 4488POPC   C3A58781  29.844  32.922   6.853
 4488POPC   C4A58782  29.689  33.125   7.205
 4488POPC   C1B58783  30.346  32.842   6.162
 4488POPC   C2B58784  30.205  32.696   6.552
 4488POPC   C3B58785  30.340  32.817   6.974
 4488POPC   C4B58786  30.209  33.106   7.270
 4489POPC   NC358787   8.112   5.516   5.384
 4489POPC   PO458788   8.314   6.125   5.250
 4489POPC   GL158789   8.285   5.854   5.716
 4489POPC   GL258790   8.616   5.875   5.865
 4489POPC   C1A58791   8.044   5.873   6.155
 4489POPC   D2A58792   7.761   6.025   6.522
 4489POPC   C3A58793   7.964   6.006   6.943
 4489POPC   C4A58794   8.255   5.793   7.231
 4489POPC   C1B58795   8.517   5.959   6.310
 4489POPC   C2B58796   8.415   5.819   6.717
 4489POPC   C3B58797   8.565   6.132   7.012
 4489POPC   C4B58798   8.433   6.249   7.422
 4490POPC   NC358799  11.042   3.884   5.482
 4490POPC   PO458800  11.541   3.516   5.472
 4490POPC   GL158801  11.357   3.718   5.855
 4490POPC   GL258802  11.552   3.920   6.072
 4490POPC   C1A58803  11.121   3.709   6.250
 4490POPC   D2A58804  10.966   3.531   6.628
 4490POPC   C3A58805  11.144   3.603   7.037
 4490POPC   C4A58806  11.304   3.435   7.453
 4490POPC   C1B58807  11.573   3.478   6.267
 4490POPC   C2B58808  11.475   3.367   6.697
 4490POPC   C3B58809  11.652   3.571   7.078
 4490POPC   C4B58810  11.770   3.659   7.523
 4491POPC   NC358811  43.671  39.463   4.932
 4491POPC   PO458812  44.173  39.511   5.587
 4491POPC   GL158813  43.989  39.174   5.846
 4491POPC   GL258814  44.285  39.147   5.982
 4491POPC   C1A58815  43.835  39.012   6.295
 4491POPC   D2A58816  43.518  39.166   6.650
 4491POPC   C3A58817  43.687  39.225   7.081
 4491POPC   C4A58818  44.109  39.150   7.206
 4491POPC   C1B58819  44.100  39.458   6.253
 4491POPC   C2B58820  43.989  39.385   6.663
 4491POPC   C3B58821  44.104  39.627   6.969
 4491POPC   C4B58822  43.916  39.633   7.329
 4492POPC   NC358823   6.260  10.657   5.352
 4492POPC   PO458824   5.660  10.283   5.415
 4492POPC   GL158825   5.718  10.189   5.823
 4492POPC   GL258826   5.950  10.476   5.837
 4492POPC   C1A58827   5.581  10.328   6.222
 4492POPC   D2A58828   5.591  10.712   6.474
 4492POPC   C3A58829   5.682  10.618   6.894
 4492POPC   C4A58830   5.747  10.282   7.204
 4492POPC   C1B58831   6.243  10.735   6.085
 4492POPC   C2B58832   6.263  11.026   6.453
 4492POPC   C3B58833   6.167  10.867   6.871
 4492POPC   C4B58834   5.898  10.917   7.254
 4493POPC   NC358835  41.834  22.421   5.490
 4493POPC   PO458836  41.599  21.806   5.212
 4493POPC   GL158837  41.562  21.978   5.655
 4493POPC   GL258838  41.911  21.980   5.772
 4493POPC   C1A58839  41.488  22.109   6.109
 4493POPC   D2A58840  41.369  22.361   6.477
 4493POPC   C3A58841  41.384  22.177   6.889
 4493POPC   C4A58842  41.218  22.305   7.303
 4493POPC   C1B58843  41.923  21.861   6.206
 4493POPC   C2B58844  42.012  21.981   6.611
 4493POPC   C3B58845  41.866  22.024   7.026
 4493POPC   C4B58846  41.724  22.365   7.281
 4494POPC   NC358847  35.132  38.985   5.366
 4494POPC   PO458848  35.686  39.393   5.208
 4494POPC   GL158849  35.487  39.212   5.656
 4494POPC   GL258850  35.135  39.302   5.789
 4494POPC   C1A58851  35.496  39.316   6.130
 4494POPC   D2A58852  35.532  39.140   6.525
 4494POPC   C3A58853  35.595  39.365   6.891
 4494POPC   C4A58854  35.609  39.081   7.223
 4494POPC   C1B58855  34.981  39.491   6.190
 4494POPC   C2B58856  35.029  39.326   6.608
 4494POPC   C3B58857  34.882  39.247   7.006
 4494POPC   C4B58858  35.197  39.447   7.200
 4495POPC   NC358859  19.812  44.210   5.366
 4495POPC   PO458860  19.632  43.562   5.441
 4495POPC   GL158861  19.798  43.598   5.838
 4495POPC   GL258862  19.891  43.926   5.792
 4495POPC   C1A58863  19.695  43.697   6.254
 4495POPC   D2A58864  19.518  43.784   6.650
 4495POPC   C3A58865  19.707  44.058   6.990
 4495POPC   C4A58866  19.671  43.996   7.455
 4495POPC   C1B58867  20.138  43.942   6.168
 4495POPC   C2B58868  20.055  43.956   6.595
 4495POPC   C3B58869  20.206  44.160   6.951
 4495POPC   C4B58870  20.266  43.967   7.323
 4496POPC   NC358871  29.852  28.062   5.463
 4496POPC   PO458872  30.476  28.397   5.477
 4496POPC   GL158873  30.154  28.256   5.861
 4496POPC   GL258874  29.732  28.216   5.929
 4496POPC   C1A58875  30.031  28.500   6.248
 4496POPC   D2A58876  29.673  28.595   6.514
 4496POPC   C3A58877  29.761  28.454   6.934
 4496POPC   C4A58878  30.188  28.519   7.125
 4496POPC   C1B58879  29.833  27.984   6.320
 4496POPC   C2B58880  29.998  28.013   6.755
 4496POPC   C3B58881  29.966  28.070   7.203
 4496POPC   C4B58882  29.831  27.971   7.660
 4497POPC   NC358883  24.881  36.573   5.523
 4497POPC   PO458884  24.359  36.978   5.265
 4497POPC   GL158885  24.477  36.970   5.720
 4497POPC   GL258886  24.175  36.962   5.901
 4497POPC   C1A58887  24.581  37.126   6.178
 4497POPC   D2A58888  24.776  37.102   6.619
 4497POPC   C3A58889  24.802  36.842   7.025
 4497POPC   C4A58890  24.477  36.865   7.364
 4497POPC   C1B58891  24.360  36.657   6.175
 4497POPC   C2B58892  24.244  36.547   6.584
 4497POPC   C3B58893  24.370  36.537   7.007
 4497POPC   C4B58894  24.147  36.433   7.378
 4498POPC   NC358895  27.059   0.675   5.407
 4498POPC   PO458896  26.628   0.360   5.117
 4498POPC   GL158897  26.586   0.417   5.612
 4498POPC   GL258898  26.430   0.721   5.766
 4498POPC   C1A58899  26.692   0.319   6.071
 4498POPC   D2A58900  26.969   0.152   6.427
 4498POPC   C3A58901  26.892   0.241   6.895
 4498POPC   C4A58902  26.924   0.521   7.275
 4498POPC   C1B58903  26.561   0.898   6.148
 4498POPC   C2B58904  26.461   0.787   6.565
 4498POPC   C3B58905  26.632   0.805   6.974
 4498POPC   C4B58906  26.427   0.668   7.354
 4499POPC   NC358907   7.663  35.418   5.588
 4499POPC   PO458908   7.214  34.956   5.445
 4499POPC   GL158909   7.231  35.285   5.854
 4499POPC   GL258910   7.317  35.672   5.942
 4499POPC   C1A58911   7.403  35.345   6.317
 4499POPC   D2A58912   7.222  35.507   6.725
 4499POPC   C3A58913   7.316  35.487   7.195
 4499POPC   C4A58914   7.322  35.588   7.656
 4499POPC   C1B58915   7.398  35.867   6.395
 4499POPC   C2B58916   7.643  35.803   6.822
 4499POPC   C3B58917   7.763  35.691   7.277
 4499POPC   C4B58918   7.810  35.651   7.751
 4500POPC   NC358919  19.089  21.729   5.470
 4500POPC   PO458920  18.683  21.272   5.378
 4500POPC   GL158921  18.916  21.283   5.779
 4500POPC   GL258922  19.209  21.494   5.932
 4500POPC   C1A58923  18.903  21.201   6.219
 4500POPC   D2A58924  19.147  21.405   6.557
 4500POPC   C3A58925  18.937  21.313   6.950
 4500POPC   C4A58926  18.883  21.218   7.395
 4500POPC   C1B58927  19.470  21.729   6.249
 4500POPC   C2B58928  19.470  21.851   6.664
 4500POPC   C3B58929  19.338  21.637   7.021
 4500POPC   C4B58930  19.004  21.723   7.276
 4501POPC   NC358931   2.954  34.605   5.450
 4501POPC   PO458932   2.332  34.474   5.365
 4501POPC   GL158933   2.511  34.627   5.726
 4501POPC   GL258934   2.675  34.936   5.721
 4501POPC   C1A58935   2.713  34.597   6.125
 4501POPC   D2A58936   2.755  34.370   6.494
 4501POPC   C3A58937   2.764  34.533   6.901
 4501POPC   C4A58938   2.534  34.328   7.207
 4501POPC   C1B58939   2.526  35.074   6.132
 4501POPC   C2B58940   2.615  34.873   6.542
 4501POPC   C3B58941   2.532  34.987   6.979
 4501POPC   C4B58942   2.580  34.835   7.411
 4502POPC   NC358943  30.261  35.155   5.375
 4502POPC   PO458944  30.719  35.651   5.590
 4502POPC   GL158945  30.621  35.448   5.951
 4502POPC   GL258946  30.493  35.097   5.846
 4502POPC   C1A58947  30.824  35.542   6.382
 4502POPC   D2A58948  30.878  35.527   6.870
 4502POPC   C3A58949  30.444  35.428   7.054
 4502POPC   C4A58950  30.164  35.070   7.102
 4502POPC   C1B58951  30.763  35.038   6.219
 4502POPC   C2B58952  30.639  35.129   6.644
 4502POPC   C3B58953  30.698  34.959   7.041
 4502POPC   C4B58954  30.960  34.972   7.399
 4503POPC   NC358955  28.670  43.890   5.334
 4503POPC   PO458956  29.258  43.600   5.314
 4503POPC   GL158957  29.147  43.633   5.803
 4503POPC   GL258958  28.796  43.696   5.799
 4503POPC   C1A58959  29.037  43.975   6.173
 4503POPC   D2A58960  28.909  44.166   6.613
 4503POPC   C3A58961  29.196  44.129   6.978
 4503POPC   C4A58962  29.373  43.806   7.225
 4503POPC   C1B58963  28.847  43.512   6.219
 4503POPC   C2B58964  29.160  43.516   6.538
 4503POPC   C3B58965  29.052  43.507   6.960
 4503POPC   C4B58966  28.856  43.820   7.225
 4504POPC   NC358967  44.542  20.385   5.209
 4504POPC   PO458968  44.817  20.922   5.414
 4504POPC   GL158969  44.806  20.694   5.758
 4504POPC   GL258970  44.817  20.322   5.673
 4504POPC   C1A58971  44.878  20.833   6.178
 4504POPC   D2A58972  44.841  21.057   6.539
 4504POPC   C3A58973  44.865  20.851   6.911
 4504POPC   C4A58974  44.724  20.703   7.283
 4504POPC   C1B58975  44.675  20.359   6.117
 4504POPC   C2B58976  44.833  20.464   6.546
 4504POPC   C3B58977  44.920  20.321   6.980
 4504POPC   C4B58978  44.634  20.206   7.307
 4505POPC   NC358979  23.972  35.707   5.346
 4505POPC   PO458980  23.781  35.086   5.400
 4505POPC   GL158981  23.785  35.448   5.749
 4505POPC   GL258982  23.579  35.767   5.678
 4505POPC   C1A58983  23.869  35.430   6.208
 4505POPC   D2A58984  23.851  35.202   6.604
 4505POPC   C3A58985  23.726  35.400   6.991
 4505POPC   C4A58986  23.813  35.388   7.459
 4505POPC   C1B58987  23.471  35.767   6.114
 4505POPC   C2B58988  23.507  35.617   6.534
 4505POPC   C3B58989  23.316  35.695   6.919
 4505POPC   C4B58990  23.429  35.676   7.328
 4506POPC   NC358991  43.605  30.082   5.500
 4506POPC   PO458992  44.116  29.628   5.290
 4506POPC   GL158993  44.131  29.766   5.763
 4506POPC   GL258994  44.034  30.117   5.822
 4506POPC   C1A58995  44.011  29.817   6.240
 4506POPC   D2A58996  43.809  29.934   6.649
 4506POPC   C3A58997  44.040  29.976   7.050
 4506POPC   C4A58998  44.036  29.752   7.455
 4506POPC   C1B58999  43.671  30.208   6.179
 4506POPC   C2B59000  43.559  30.383   6.641
 4506POPC   C3B59001  43.551  30.175   7.092
 4506POPC   C4B59002  43.519  29.737   7.311
 4507POPC   NC359003  27.698  25.836   5.545
 4507POPC   PO459004  27.261  26.297   5.351
 4507POPC   GL159005  27.499  26.276   5.773
 4507POPC   GL259006  27.497  25.992   5.977
 4507POPC   C1A59007  27.777  26.412   6.149
 4507POPC   D2A59008  27.791  26.498   6.624
 4507POPC   C3A59009  27.656  26.184   6.958
 4507POPC   C4A59010  27.786  26.196   7.430
 4507POPC   C1B59011  27.506  26.064   6.403
 4507POPC   C2B59012  27.389  25.803   6.697
 4507POPC   C3B59013  27.219  25.707   7.071
 4507POPC   C4B59014  27.582  25.741   7.365
 4508POPC   NC359015  39.554  29.144   5.365
 4508POPC   PO459016  38.789  29.148   5.413
 4508POPC   GL159017  39.166  29.191   5.710
 4508POPC   GL259018  39.387  28.856   5.740
 4508POPC   C1A59019  39.276  29.296   6.160
 4508POPC   D2A59020  39.464  29.079   6.535
 4508POPC   C3A59021  39.510  29.354   6.916
 4508POPC   C4A59022  39.363  29.352   7.358
 4508POPC   C1B59023  39.078  28.822   6.043
 4508POPC   C2B59024  38.988  28.857   6.467
 4508POPC   C3B59025  39.068  28.996   6.878
 4508POPC   C4B59026  39.385  28.889   7.167
 4509POPC   NC359027   5.916   4.605   5.534
 4509POPC   PO459028   6.132   5.351   5.421
 4509POPC   GL159029   5.953   5.366   5.851
 4509POPC   GL259030   6.009   5.019   5.859
 4509POPC   C1A59031   5.692   5.151   6.223
 4509POPC   D2A59032   5.725   4.760   6.507
 4509POPC   C3A59033   5.753   4.814   6.966
 4509POPC   C4A59034   5.753   5.244   7.159
 4509POPC   C1B59035   6.184   5.105   6.287
 4509POPC   C2B59036   6.141   5.068   6.737
 4509POPC   C3B59037   6.388   4.873   7.038
 4509POPC   C4B59038   6.115   4.860   7.337
 4510POPC   NC359039  19.107  44.475   5.438
 4510POPC   PO459040  18.676   0.022   5.642
 4510POPC   GL159041  18.956  44.709   5.866
 4510POPC   GL259042  18.945  44.296   5.886
 4510POPC   C1A59043  19.144  44.839   6.249
 4510POPC   D2A59044  18.938  44.830   6.665
 4510POPC   C3A59045  19.097  44.721   7.074
 4510POPC   C4A59046  19.389  44.411   7.249
 4510POPC   C1B59047  18.850  44.418   6.310
 4510POPC   C2B59048  18.658  44.389   6.708
 4510POPC   C3B59049  18.827  44.279   7.079
 4510POPC   C4B59050  18.906  44.424   7.482
 4511POPC   NC359051   1.345  11.445   5.343
 4511POPC   PO459052   0.810  11.628   5.517
 4511POPC   GL159053   1.140  11.444   5.807
 4511POPC   GL259054   1.502  11.508   5.872
 4511POPC   C1A59055   1.141  11.284   6.218
 4511POPC   D2A59056   1.345  11.302   6.613
 4511POPC   C3A59057   1.184  11.150   7.003
 4511POPC   C4A59058   1.295  11.244   7.427
 4511POPC   C1B59059   1.633  11.145   6.203
 4511POPC   C2B59060   1.735  10.950   6.643
 4511POPC   C3B59061   1.628  10.923   7.112
 4511POPC   C4B59062   1.523  10.823   7.580
 4512POPC   NC359063  24.788  31.053   5.404
 4512POPC   PO459064  24.390  30.536   5.186
 4512POPC   GL159065  24.638  30.600   5.585
 4512POPC   GL259066  24.374  30.796   5.649
 4512POPC   C1A59067  24.721  30.812   6.034
 4512POPC   D2A59068  24.719  30.697   6.488
 4512POPC   C3A59069  24.840  30.783   6.903
 4512POPC   C4A59070  24.788  30.667   7.310
 4512POPC   C1B59071  24.259  30.565   6.026
 4512POPC   C2B59072  24.208  30.662   6.471
 4512POPC   C3B59073  24.302  30.551   6.911
 4512POPC   C4B59074  24.275  30.789   7.285
 4513POPC   NC359075  39.637  28.334   5.307
 4513POPC   PO459076  40.274  28.048   5.332
 4513POPC   GL159077  40.063  28.280   5.687
 4513POPC   GL259078  39.751  28.474   5.765
 4513POPC   C1A59079  40.056  28.291   6.145
 4513POPC   D2A59080  40.157  28.082   6.527
 4513POPC   C3A59081  40.049  28.214   6.938
 4513POPC   C4A59082  40.245  28.324   7.330
 4513POPC   C1B59083  39.678  28.710   6.140
 4513POPC   C2B59084  39.859  28.580   6.523
 4513POPC   C3B59085  39.674  28.559   6.911
 4513POPC   C4B59086  39.764  28.543   7.332
 4514POPC   NC359087  12.544  40.050   5.483
 4514POPC   PO459088  13.174  40.087   5.566
 4514POPC   GL159089  12.875  40.159   5.921
 4514POPC   GL259090  12.541  40.332   5.916
 4514POPC   C1A59091  12.832  40.224   6.380
 4514POPC   D2A59092  12.691  40.206   6.829
 4514POPC   C3A59093  12.990  40.370   7.173
 4514POPC   C4A59094  13.099  40.187   7.597
 4514POPC   C1B59095  12.452  39.950   6.165
 4514POPC   C2B59096  12.611  39.747   6.537
 4514POPC   C3B59097  12.499  39.748   6.979
 4514POPC   C4B59098  12.727  39.954   7.312
 4515POPC   NC359099  11.336  20.184   5.552
 4515POPC   PO459100  11.269  20.827   5.519
 4515POPC   GL159101  11.225  20.595   5.881
 4515POPC   GL259102  11.563  20.490   5.902
 4515POPC   C1A59103  11.207  20.761   6.274
 4515POPC   D2A59104  10.995  20.878   6.618
 4515POPC   C3A59105  11.213  20.789   7.027
 4515POPC   C4A59106  11.401  20.603   7.428
 4515POPC   C1B59107  11.526  20.380   6.320
 4515POPC   C2B59108  11.598  20.563   6.709
 4515POPC   C3B59109  11.740  20.417   7.081
 4515POPC   C4B59110  11.951  20.640   7.408
 4516POPC   NC359111  24.987   5.409   5.426
 4516POPC   PO459112  25.311   6.010   5.497
 4516POPC   GL159113  25.209   5.707   5.819
 4516POPC   GL259114  25.412   5.399   5.812
 4516POPC   C1A59115  25.097   5.814   6.244
 4516POPC   D2A59116  25.236   5.691   6.641
 4516POPC   C3A59117  25.235   6.068   6.907
 4516POPC   C4A59118  25.089   6.146   7.339
 4516POPC   C1B59119  25.562   5.605   6.215
 4516POPC   C2B59120  25.667   5.934   6.558
 4516POPC   C3B59121  25.733   5.983   7.019
 4516POPC   C4B59122  25.580   6.062   7.456
 4517POPC   NC359123  33.540  22.227   5.300
 4517POPC   PO459124  34.192  22.060   5.382
 4517POPC   GL159125  33.892  22.311   5.683
 4517POPC   GL259126  33.533  22.273   5.807
 4517POPC   C1A59127  33.875  22.441   6.139
 4517POPC   D2A59128  34.078  22.112   6.384
 4517POPC   C3A59129  34.164  22.095   6.833
 4517POPC   C4A59130  33.887  22.168   7.185
 4517POPC   C1B59131  33.535  22.062   6.225
 4517POPC   C2B59132  33.635  22.157   6.675
 4517POPC   C3B59133  33.565  21.843   6.982
 4517POPC   C4B59134  33.579  21.797   7.457
 4518POPC   NC359135  42.980  36.658   5.386
 4518POPC   PO459136  43.402  37.138   5.331
 4518POPC   GL159137  43.353  36.913   5.713
 4518POPC   GL259138  43.429  36.560   5.701
 4518POPC   C1A59139  43.019  36.809   6.053
 4518POPC   D2A59140  42.955  36.722   6.517
 4518POPC   C3A59141  43.015  37.023   6.878
 4518POPC   C4A59142  43.049  37.193   7.291
 4518POPC   C1B59143  43.505  36.709   6.159
 4518POPC   C2B59144  43.483  36.528   6.576
 4518POPC   C3B59145  43.705  36.618   6.950
 4518POPC   C4B59146  43.467  36.906   7.147
 4519POPC   NC359147  21.010  35.999   5.498
 4519POPC   PO459148  21.480  36.437   5.408
 4519POPC   GL159149  21.428  36.208   5.771
 4519POPC   GL259150  21.139  36.369   5.888
 4519POPC   C1A59151  21.571  36.319   6.173
 4519POPC   D2A59152  21.374  36.403   6.578
 4519POPC   C3A59153  21.537  36.309   6.978
 4519POPC   C4A59154  21.700  36.023   7.266
 4519POPC   C1B59155  21.123  36.077   6.212
 4519POPC   C2B59156  21.036  35.873   6.599
 4519POPC   C3B59157  20.948  35.845   7.030
 4519POPC   C4B59158  21.207  35.783   7.394
 4520POPC   NC359159  33.773  34.949   5.344
 4520POPC   PO459160  33.961  35.662   5.492
 4520POPC   GL159161  33.810  35.434   5.814
 4520POPC   GL259162  33.511  35.578   5.791
 4520POPC   C1A59163  33.921  35.301   6.224
 4520POPC   D2A59164  33.716  35.210   6.610
 4520POPC   C3A59165  33.964  35.243   6.979
 4520POPC   C4A59166  33.824  35.275   7.409
 4520POPC   C1B59167  33.510  35.643   6.212
 4520POPC   C2B59168  33.329  35.564   6.605
 4520POPC   C3B59169  33.571  35.612   6.979
 4520POPC   C4B59170  33.707  35.752   7.376
 4521POPC   NC359171  30.580  32.771   5.334
 4521POPC   PO459172  31.021  33.196   5.524
 4521POPC   GL159173  30.702  33.049   5.782
 4521POPC   GL259174  30.754  32.687   5.816
 4521POPC   C1A59175  30.649  33.240   6.182
 4521POPC   D2A59176  30.595  33.045   6.582
 4521POPC   C3A59177  30.635  33.298   6.939
 4521POPC   C4A59178  30.722  33.190   7.342
 4521POPC   C1B59179  30.920  32.808   6.220
 4521POPC   C2B59180  31.092  32.808   6.640
 4521POPC   C3B59181  30.855  32.790   7.008
 4521POPC   C4B59182  30.810  32.483   7.351
 4522POPC   NC359183   4.621  14.619   5.358
 4522POPC   PO459184   4.517  13.961   5.405
 4522POPC   GL159185   4.597  14.240   5.770
 4522POPC   GL259186   4.286  14.429   5.767
 4522POPC   C1A59187   4.611  14.457   6.204
 4522POPC   D2A59188   4.384  14.727   6.522
 4522POPC   C3A59189   4.471  14.737   6.987
 4522POPC   C4A59190   4.697  14.642   7.382
 4522POPC   C1B59191   4.182  14.167   6.149
 4522POPC   C2B59192   4.107  14.244   6.595
 4522POPC   C3B59193   4.374  14.236   6.957
 4522POPC   C4B59194   4.266  14.400   7.351
 4523POPC   NC359195   0.684  40.917   5.426
 4523POPC   PO459196   0.058  41.162   5.362
 4523POPC   GL159197   0.318  40.919   5.789
 4523POPC   GL259198   0.549  40.597   5.830
 4523POPC   C1A59199   0.321  40.711   6.262
 4523POPC   D2A59200   0.240  40.573   6.720
 4523POPC   C3A59201   0.401  40.868   7.051
 4523POPC   C4A59202   0.727  41.066   7.345
 4523POPC   C1B59203   0.802  40.415   6.171
 4523POPC   C2B59204   0.749  40.525   6.613
 4523POPC   C3B59205   0.625  40.372   7.013
 4523POPC   C4B59206   0.233  40.393   7.258
 4524POPC   NC359207  12.170   5.426   5.336
 4524POPC   PO459208  11.485   5.207   5.166
 4524POPC   GL159209  11.697   5.243   5.673
 4524POPC   GL259210  12.091   5.227   5.783
 4524POPC   C1A59211  11.833   5.291   6.196
 4524POPC   D2A59212  12.219   5.356   6.500
 4524POPC   C3A59213  12.185   5.172   6.890
 4524POPC   C4A59214  12.352   5.247   7.281
 4524POPC   C1B59215  12.380   5.065   6.115
 4524POPC   C2B59216  12.574   4.923   6.527
 4524POPC   C3B59217  12.542   4.811   6.996
 4524POPC   C4B59218  12.576   4.815   7.464
 4525POPC   NC359219  16.332  30.086   5.369
 4525POPC   PO459220  17.000  30.215   5.289
 4525POPC   GL159221  16.847  30.004   5.708
 4525POPC   GL259222  16.548  30.124   5.886
 4525POPC   C1A59223  17.038  30.007   6.155
 4525POPC   D2A59224  17.272  29.935   6.569
 4525POPC   C3A59225  17.066  30.099   6.958
 4525POPC   C4A59226  17.053  29.941   7.408
 4525POPC   C1B59227  16.576  29.791   6.240
 4525POPC   C2B59228  16.743  29.813   6.665
 4525POPC   C3B59229  16.557  30.038   7.023
 4525POPC   C4B59230  16.553  30.005   7.458
 4526POPC   NC359231  31.569  22.672   5.408
 4526POPC   PO459232  31.136  23.285   5.503
 4526POPC   GL159233  31.486  23.064   5.772
 4526POPC   GL259234  31.379  22.716   5.862
 4526POPC   C1A59235  31.635  22.981   6.218
 4526POPC   D2A59236  31.288  23.021   6.520
 4526POPC   C3A59237  31.361  22.950   6.937
 4526POPC   C4A59238  31.700  23.002   7.226
 4526POPC   C1B59239  31.415  22.515   6.230
 4526POPC   C2B59240  31.556  22.563   6.626
 4526POPC   C3B59241  31.422  22.388   6.994
 4526POPC   C4B59242  31.369  22.619   7.339
 4527POPC   NC359243   7.661  15.482   5.467
 4527POPC   PO459244   7.133  15.063   5.620
 4527POPC   GL159245   7.415  15.251   5.876
 4527POPC   GL259246   7.605  14.951   5.844
 4527POPC   C1A59247   7.322  15.417   6.294
 4527POPC   D2A59248   7.147  15.512   6.691
 4527POPC   C3A59249   7.333  15.199   6.976
 4527POPC   C4A59250   7.486  15.222   7.386
 4527POPC   C1B59251   7.750  15.116   6.254
 4527POPC   C2B59252   7.735  15.265   6.648
 4527POPC   C3B59253   7.849  15.136   7.046
 4527POPC   C4B59254   7.717  14.785   7.280
 4528POPC   NC359255   4.818  42.151   5.284
 4528POPC   PO459256   5.043  42.789   5.352
 4528POPC   GL159257   4.902  42.573   5.768
 4528POPC   GL259258   4.855  42.197   5.796
 4528POPC   C1A59259   5.021  42.459   6.230
 4528POPC   D2A59260   5.293  42.183   6.482
 4528POPC   C3A59261   5.437  42.275   6.929
 4528POPC   C4A59262   5.154  42.433   7.265
 4528POPC   C1B59263   4.893  41.862   6.124
 4528POPC   C2B59264   4.854  41.941   6.559
 4528POPC   C3B59265   4.893  42.222   6.878
 4528POPC   C4B59266   4.736  42.147   7.293
 4529POPC   NC359267  33.048  33.325   5.186
 4529POPC   PO459268  33.289  32.723   5.141
 4529POPC   GL159269  33.021  32.953   5.578
 4529POPC   GL259270  32.672  32.832   5.654
 4529POPC   C1A59271  33.152  32.975   6.121
 4529POPC   D2A59272  33.285  32.951   6.634
 4529POPC   C3A59273  33.306  33.182   7.092
 4529POPC   C4A59274  33.168  33.089   7.551
 4529POPC   C1B59275  32.666  33.075   6.070
 4529POPC   C2B59276  32.778  32.945   6.509
 4529POPC   C3B59277  32.613  32.888   6.934
 4529POPC   C4B59278  32.742  32.909   7.369
 4530POPC   NC359279   7.623  20.699   5.446
 4530POPC   PO459280   7.070  21.082   5.415
 4530POPC   GL159281   7.224  20.736   5.753
 4530POPC   GL259282   7.142  20.371   5.779
 4530POPC   C1A59283   7.392  20.749   6.201
 4530POPC   D2A59284   7.533  20.840   6.650
 4530POPC   C3A59285   7.287  20.814   7.045
 4530POPC   C4A59286   7.380  20.964   7.451
 4530POPC   C1B59287   7.305  20.241   6.216
 4530POPC   C2B59288   7.371  20.345   6.685
 4530POPC   C3B59289   7.597  20.435   7.090
 4530POPC   C4B59290   7.609  20.511   7.527
 4531POPC   NC359291  35.610  37.403   5.323
 4531POPC   PO459292  35.192  37.809   5.417
 4531POPC   GL159293  35.290  37.636   5.817
 4531POPC   GL259294  35.607  37.429   5.843
 4531POPC   C1A59295  35.421  37.859   6.216
 4531POPC   D2A59296  35.693  38.090   6.522
 4531POPC   C3A59297  35.594  37.936   6.921
 4531POPC   C4A59298  35.318  37.899   7.237
 4531POPC   C1B59299  35.407  37.348   6.238
 4531POPC   C2B59300  35.256  37.547   6.629
 4531POPC   C3B59301  35.429  37.449   7.040
 4531POPC   C4B59302  35.283  37.476   7.503
 4532POPC   NC359303  40.692  36.337   4.910
 4532POPC   PO459304  40.843  36.866   5.307
 4532POPC   GL159305  40.840  36.887   5.741
 4532POPC   GL259306  40.959  36.577   5.759
 4532POPC   C1A59307  40.975  37.057   6.145
 4532POPC   D2A59308  40.991  37.246   6.566
 4532POPC   C3A59309  40.766  37.006   6.861
 4532POPC   C4A59310  40.828  36.803   7.272
 4532POPC   C1B59311  40.746  36.543   6.149
 4532POPC   C2B59312  40.742  36.539   6.599
 4532POPC   C3B59313  40.522  36.489   6.996
 4532POPC   C4B59314  40.523  36.420   7.455
 4533POPC   NC359315  37.839   2.882   5.594
 4533POPC   PO459316  37.258   2.488   5.593
 4533POPC   GL159317  37.524   2.623   5.929
 4533POPC   GL259318  37.830   2.456   5.854
 4533POPC   C1A59319  37.747   2.893   6.258
 4533POPC   D2A59320  37.713   3.211   6.600
 4533POPC   C3A59321  37.842   3.046   6.999
 4533POPC   C4A59322  37.625   2.913   7.399
 4533POPC   C1B59323  37.813   2.345   6.292
 4533POPC   C2B59324  37.792   2.601   6.683
 4533POPC   C3B59325  37.809   2.506   7.122
 4533POPC   C4B59326  38.028   2.162   7.353
 4534POPC   NC359327  24.054   0.015   5.224
 4534POPC   PO459328  23.443   0.171   5.394
 4534POPC   GL159329  23.568   0.402   5.785
 4534POPC   GL259330  23.903   0.265   5.825
 4534POPC   C1A59331  23.697   0.647   6.187
 4534POPC   D2A59332  24.008   0.700   6.523
 4534POPC   C3A59333  23.802   0.752   6.916
 4534POPC   C4A59334  23.513   0.545   7.123
 4534POPC   C1B59335  23.663   0.138   6.214
 4534POPC   C2B59336  23.650   0.313   6.627
 4534POPC   C3B59337  23.732   0.118   7.021
 4534POPC   C4B59338  23.909   0.307   7.433
 4535POPC   NC359339  36.147  22.001   5.443
 4535POPC   PO459340  36.353  22.714   5.392
 4535POPC   GL159341  36.168  22.419   5.732
 4535POPC   GL259342  35.797  22.293   5.685
 4535POPC   C1A59343  36.167  22.067   6.081
 4535POPC   D2A59344  36.337  21.901   6.468
 4535POPC   C3A59345  36.134  21.837   6.872
 4535POPC   C4A59346  36.232  21.950   7.295
 4535POPC   C1B59347  35.833  22.456   6.115
 4535POPC   C2B59348  36.015  22.344   6.502
 4535POPC   C3B59349  36.179  22.400   6.883
 4535POPC   C4B59350  35.953  22.468   7.263
 4536POPC   NC359351  14.749  28.543   5.305
 4536POPC   PO459352  14.289  28.094   5.408
 4536POPC   GL159353  14.534  28.113   5.789
 4536POPC   GL259354  14.694  28.427   5.819
 4536POPC   C1A59355  14.417  28.203   6.206
 4536POPC   D2A59356  14.205  28.086   6.553
 4536POPC   C3A59357  14.404  28.223   6.954
 4536POPC   C4A59358  14.583  27.906   7.221
 4536POPC   C1B59359  14.823  28.571   6.231
 4536POPC   C2B59360  14.903  28.619   6.663
 4536POPC   C3B59361  14.904  28.767   7.073
 4536POPC   C4B59362  14.595  28.644   7.363
 4537POPC   NC359363  14.391  42.902   5.413
 4537POPC   PO459364  14.445  42.250   5.360
 4537POPC   GL159365  14.336  42.505   5.799
 4537POPC   GL259366  14.558  42.785   5.901
 4537POPC   C1A59367  14.381  42.481   6.301
 4537POPC   D2A59368  14.400  42.528   6.774
 4537POPC   C3A59369  14.362  42.157   7.067
 4537POPC   C4A59370  14.614  41.956   7.402
 4537POPC   C1B59371  14.831  42.409   6.051
 4537POPC   C2B59372  14.993  42.339   6.495
 4537POPC   C3B59373  14.898  42.579   6.886
 4537POPC   C4B59374  14.663  42.490   7.288
 4538POPC   NC359375   2.703   5.534   5.387
 4538POPC   PO459376   2.673   6.125   5.397
 4538POPC   GL159377   2.657   5.862   5.787
 4538POPC   GL259378   2.968   5.655   5.799
 4538POPC   C1A59379   2.594   5.611   6.174
 4538POPC   D2A59380   2.535   5.471   6.614
 4538POPC   C3A59381   2.610   5.788   6.925
 4538POPC   C4A59382   2.611   5.916   7.354
 4538POPC   C1B59383   3.066   5.889   6.169
 4538POPC   C2B59384   2.933   5.997   6.598
 4538POPC   C3B59385   3.093   5.989   7.035
 4538POPC   C4B59386   3.358   6.014   7.415
 4539POPC   NC359387   3.674  40.472   5.307
 4539POPC   PO459388   3.426  39.869   5.282
 4539POPC   GL159389   3.444  39.939   5.778
 4539POPC   GL259390   3.594  40.216   5.756
 4539POPC   C1A59391   3.333  39.790   6.248
 4539POPC   D2A59392   3.197  39.981   6.646
 4539POPC   C3A59393   3.419  39.875   7.021
 4539POPC   C4A59394   3.820  39.667   7.166
 4539POPC   C1B59395   3.355  40.302   6.136
 4539POPC   C2B59396   3.333  40.490   6.553
 4539POPC   C3B59397   3.329  40.423   6.990
 4539POPC   C4B59398   3.621  40.260   7.291
 4540POPC   NC359399   7.380  38.174   5.332
 4540POPC   PO459400   7.842  38.654   5.470
 4540POPC   GL159401   7.503  38.524   5.732
 4540POPC   GL259402   7.644  38.223   5.755
 4540POPC   C1A59403   7.279  38.439   6.132
 4540POPC   D2A59404   7.422  38.420   6.550
 4540POPC   C3A59405   7.203  38.494   6.948
 4540POPC   C4A59406   7.144  38.748   7.343
 4540POPC   C1B59407   7.781  38.295   6.154
 4540POPC   C2B59408   7.790  38.065   6.525
 4540POPC   C3B59409   7.672  38.195   6.930
 4540POPC   C4B59410   7.607  38.459   7.277
 4541POPC   NC359411   3.850  35.048   5.429
 4541POPC   PO459412   3.466  35.589   5.185
 4541POPC   GL159413   3.577  35.458   5.625
 4541POPC   GL259414   3.334  35.690   5.756
 4541POPC   C1A59415   3.603  35.185   6.031
 4541POPC   D2A59416   3.707  35.043   6.469
 4541POPC   C3A59417   3.572  35.083   6.889
 4541POPC   C4A59418   3.857  35.353   7.094
 4541POPC   C1B59419   3.259  35.519   6.171
 4541POPC   C2B59420   3.308  35.378   6.571
 4541POPC   C3B59421   3.266  35.489   7.001
 4541POPC   C4B59422   3.094  35.540   7.428
 4542POPC   NC359423  19.268  26.489   5.477
 4542POPC   PO459424  19.034  25.897   5.460
 4542POPC   GL159425  19.177  26.027   5.817
 4542POPC   GL259426  18.900  26.272   5.823
 4542POPC   C1A59427  19.268  25.747   6.173
 4542POPC   D2A59428  19.025  25.650   6.537
 4542POPC   C3A59429  19.105  25.852   6.933
 4542POPC   C4A59430  18.932  25.640   7.257
 4542POPC   C1B59431  18.841  26.039   6.209
 4542POPC   C2B59432  18.968  26.200   6.578
 4542POPC   C3B59433  18.913  26.351   6.974
 4542POPC   C4B59434  18.784  26.126   7.321
 4543POPC   NC359435  11.574  16.449   5.043
 4543POPC   PO459436  11.110  16.638   5.490
 4543POPC   GL159437  11.160  16.667   5.957
 4543POPC   GL259438  11.421  16.905   6.017
 4543POPC   C1A59439  11.038  16.792   6.383
 4543POPC   D2A59440  10.823  16.602   6.730
 4543POPC   C3A59441  11.122  16.521   7.051
 4543POPC   C4A59442  11.125  16.674   7.510
 4543POPC   C1B59443  11.598  16.769   6.402
 4543POPC   C2B59444  11.577  16.721   6.840
 4543POPC   C3B59445  11.404  16.922   7.178
 4543POPC   C4B59446  11.532  17.022   7.591
 4544POPC   NC359447  26.959  39.983   5.294
 4544POPC   PO459448  26.389  39.829   5.611
 4544POPC   GL159449  26.485  40.036   5.963
 4544POPC   GL259450  26.790  40.161   5.804
 4544POPC   C1A59451  26.511  40.041   6.399
 4544POPC   D2A59452  26.880  40.044   6.642
 4544POPC   C3A59453  26.796  39.955   7.037
 4544POPC   C4A59454  26.824  39.668   7.321
 4544POPC   C1B59455  26.897  40.358   6.217
 4544POPC   C2B59456  27.168  40.465   6.601
 4544POPC   C3B59457  27.039  40.438   7.060
 4544POPC   C4B59458  26.802  40.251   7.466
 4545POPC   NC359459  33.589  43.565   5.552
 4545POPC   PO459460  34.023  44.051   5.378
 4545POPC   GL159461  33.891  44.035   5.775
 4545POPC   GL259462  34.028  43.712   5.840
 4545POPC   C1A59463  33.999  44.132   6.204
 4545POPC   D2A59464  33.994  43.981   6.621
 4545POPC   C3A59465  33.867  44.159   6.987
 4545POPC   C4A59466  33.505  44.079   7.190
 4545POPC   C1B59467  33.876  43.463   6.198
 4545POPC   C2B59468  33.670  43.578   6.588
 4545POPC   C3B59469  33.735  43.647   7.016
 4545POPC   C4B59470  33.588  43.329   7.275
 4546POPC   NC359471  32.078  15.676   5.505
 4546POPC   PO459472  32.233  16.353   5.531
 4546POPC   GL159473  32.376  16.000   5.789
 4546POPC   GL259474  32.027  15.953   5.919
 4546POPC   C1A59475  32.487  15.931   6.243
 4546POPC   D2A59476  32.297  16.226   6.569
 4546POPC   C3A59477  32.361  16.159   6.994
 4546POPC   C4A59478  32.500  16.259   7.400
 4546POPC   C1B59479  31.986  15.889   6.352
 4546POPC   C2B59480  32.063  15.680   6.730
 4546POPC   C3B59481  32.039  15.713   7.169
 4546POPC   C4B59482  31.667  15.635   7.436
 4547POPC   NC359483   5.120  17.992   5.477
 4547POPC   PO459484   5.484  18.597   5.469
 4547POPC   GL159485   5.239  18.374   5.768
 4547POPC   GL259486   5.453  18.090   5.896
 4547POPC   C1A59487   4.965  18.177   6.090
 4547POPC   D2A59488   5.041  18.111   6.519
 4547POPC   C3A59489   4.781  17.946   6.854
 4547POPC   C4A59490   4.949  17.866   7.273
 4547POPC   C1B59491   5.427  18.454   6.212
 4547POPC   C2B59492   5.301  18.540   6.632
 4547POPC   C3B59493   5.206  18.242   6.990
 4547POPC   C4B59494   4.988  18.367   7.388
 4548POPC   NC359495  40.640  40.694   5.340
 4548POPC   PO459496  41.186  41.104   5.428
 4548POPC   GL159497  40.920  40.860   5.724
 4548POPC   GL259498  40.566  40.924   5.811
 4548POPC   C1A59499  40.941  40.654   6.104
 4548POPC   D2A59500  40.963  40.809   6.531
 4548POPC   C3A59501  40.797  40.552   6.884
 4548POPC   C4A59502  40.552  40.411   7.234
 4548POPC   C1B59503  40.608  41.083   6.258
 4548POPC   C2B59504  40.658  41.179   6.727
 4548POPC   C3B59505  40.688  40.998   7.165
 4548POPC   C4B59506  40.600  40.799   7.605
 4549POPC   NC359507  10.905  14.959   5.293
 4549POPC   PO459508  11.084  15.536   5.695
 4549POPC   GL159509  11.177  15.143   5.869
 4549POPC   GL259510  11.247  14.830   5.680
 4549POPC   C1A59511  11.197  15.138   6.308
 4549POPC   D2A59512  11.173  15.490   6.592
 4549POPC   C3A59513  11.361  15.352   6.955
 4549POPC   C4A59514  11.146  15.190   7.315
 4549POPC   C1B59515  11.507  14.792   6.055
 4549POPC   C2B59516  11.578  14.863   6.508
 4549POPC   C3B59517  11.378  14.836   6.925
 4549POPC   C4B59518  11.581  14.945   7.311
 4550POPC   NC359519  16.427   8.172   5.401
 4550POPC   PO459520  17.016   7.873   5.519
 4550POPC   GL159521  16.721   7.974   5.831
 4550POPC   GL259522  16.750   8.324   5.864
 4550POPC   C1A59523  16.717   7.908   6.277
 4550POPC   D2A59524  16.549   8.015   6.669
 4550POPC   C3A59525  16.829   7.908   6.989
 4550POPC   C4A59526  16.815   8.061   7.411
 4550POPC   C1B59527  16.521   8.370   6.256
 4550POPC   C2B59528  16.584   8.532   6.653
 4550POPC   C3B59529  16.658   8.387   7.040
 4550POPC   C4B59530  16.536   8.481   7.449
 4551POPC   NC359531  13.855  15.264   5.432
 4551POPC   PO459532  13.280  15.620   5.588
 4551POPC   GL159533  13.465  15.240   5.813
 4551POPC   GL259534  13.854  15.194   5.919
 4551POPC   C1A59535  13.248  15.183   6.232
 4551POPC   D2A59536  13.320  15.044   6.680
 4551POPC   C3A59537  13.381  15.314   7.080
 4551POPC   C4A59538  13.337  15.296   7.553
 4551POPC   C1B59539  13.716  15.011   6.278
 4551POPC   C2B59540  13.776  14.803   6.647
 4551POPC   C3B59541  13.590  14.823   7.057
 4551POPC   C4B59542  13.753  15.051   7.385
 4552POPC   NC359543  35.631  26.795   5.452
 4552POPC   PO459544  35.006  26.687   5.682
 4552POPC   GL159545  35.228  27.013   5.872
 4552POPC   GL259546  35.586  27.146   5.810
 4552POPC   C1A59547  35.169  26.938   6.294
 4552POPC   D2A59548  35.416  26.758   6.567
 4552POPC   C3A59549  35.274  26.677   6.976
 4552POPC   C4A59550  35.218  26.827   7.420
 4552POPC   C1B59551  35.682  26.985   6.175
 4552POPC   C2B59552  35.863  27.060   6.551
 4552POPC   C3B59553  35.666  27.007   6.932
 4552POPC   C4B59554  35.703  26.739   7.266
 4553POPC   NC359555   8.312  21.424   5.467
 4553POPC   PO459556   8.817  21.106   5.187
 4553POPC   GL159557   8.585  21.056   5.700
 4553POPC   GL259558   8.278  21.122   5.869
 4553POPC   C1A59559   8.592  20.887   6.173
 4553POPC   D2A59560   8.296  21.069   6.507
 4553POPC   C3A59561   8.418  21.088   6.978
 4553POPC   C4A59562   8.224  21.203   7.383
 4553POPC   C1B59563   8.042  21.383   6.152
 4553POPC   C2B59564   8.027  21.564   6.548
 4553POPC   C3B59565   8.025  21.448   6.962
 4553POPC   C4B59566   7.736  21.240   7.197
 4554POPC   NC359567   2.240  23.684   5.460
 4554POPC   PO459568   1.616  23.711   5.683
 4554POPC   GL159569   1.982  23.612   5.906
 4554POPC   GL259570   2.124  23.941   5.874
 4554POPC   C1A59571   1.960  23.470   6.325
 4554POPC   D2A59572   2.065  23.430   6.756
 4554POPC   C3A59573   1.785  23.612   7.015
 4554POPC   C4A59574   1.678  23.758   7.385
 4554POPC   C1B59575   1.915  23.986   6.260
 4554POPC   C2B59576   2.030  23.943   6.682
 4554POPC   C3B59577   2.201  23.973   7.085
 4554POPC   C4B59578   2.348  24.058   7.494
 4555POPC   NC359579  32.082  39.404   5.276
 4555POPC   PO459580  32.144  38.838   5.622
 4555POPC   GL159581  32.181  39.197   5.821
 4555POPC   GL259582  32.389  39.475   5.718
 4555POPC   C1A59583  32.224  39.092   6.257
 4555POPC   D2A59584  32.384  38.958   6.628
 4555POPC   C3A59585  32.130  39.100   6.933
 4555POPC   C4A59586  32.272  39.155   7.343
 4555POPC   C1B59587  32.625  39.332   6.067
 4555POPC   C2B59588  32.555  39.415   6.501
 4555POPC   C3B59589  32.565  39.394   6.949
 4555POPC   C4B59590  32.546  39.774   7.160
 4556POPC   NC359591  16.265   4.327   5.548
 4556POPC   PO459592  16.908   4.389   5.397
 4556POPC   GL159593  16.756   4.414   5.743
 4556POPC   GL259594  16.524   4.691   5.835
 4556POPC   C1A59595  16.736   4.202   6.089
 4556POPC   D2A59596  16.519   4.363   6.395
 4556POPC   C3A59597  16.618   4.283   6.842
 4556POPC   C4A59598  16.651   4.433   7.285
 4556POPC   C1B59599  16.872   4.714   6.127
 4556POPC   C2B59600  16.786   4.855   6.512
 4556POPC   C3B59601  16.850   4.734   6.912
 4556POPC   C4B59602  17.112   4.666   7.280
 4557POPC   NC359603  10.458  37.522   5.507
 4557POPC   PO459604  10.436  38.121   5.162
 4557POPC   GL159605  10.482  37.992   5.686
 4557POPC   GL259606  10.147  37.945   5.834
 4557POPC   C1A59607  10.564  37.799   6.147
 4557POPC   D2A59608  10.727  37.659   6.604
 4557POPC   C3A59609  10.651  37.885   7.016
 4557POPC   C4A59610  10.896  38.190   7.223
 4557POPC   C1B59611  10.070  37.830   6.263
 4557POPC   C2B59612  10.234  37.843   6.675
 4557POPC   C3B59613  10.341  37.494   6.948
 4557POPC   C4B59614  10.483  37.481   7.368
 4558POPC   NC359615  28.447   3.537   5.440
 4558POPC   PO459616  27.775   3.459   5.374
 4558POPC   GL159617  28.002   3.399   5.791
 4558POPC   GL259618  28.376   3.372   5.910
 4558POPC   C1A59619  28.032   3.568   6.230
 4558POPC   D2A59620  28.335   3.372   6.486
 4558POPC   C3A59621  28.351   3.449   6.917
 4558POPC   C4A59622  28.240   3.484   7.360
 4558POPC   C1B59623  28.535   3.717   6.139
 4558POPC   C2B59624  28.606   3.841   6.578
 4558POPC   C3B59625  28.744   3.757   7.003
 4558POPC   C4B59626  28.722   3.368   7.284
 4559POPC   NC359627  40.102   3.324   5.531
 4559POPC   PO459628  39.583   3.030   5.889
 4559POPC   GL159629  39.934   3.361   6.022
 4559POPC   GL259630  40.313   3.395   5.989
 4559POPC   C1A59631  40.001   3.722   6.330
 4559POPC   D2A59632  39.854   3.688   6.752
 4559POPC   C3A59633  40.146   3.454   7.043
 4559POPC   C4A59634  40.390   3.209   7.332
 4559POPC   C1B59635  40.514   3.712   6.274
 4559POPC   C2B59636  40.407   3.793   6.715
 4559POPC   C3B59637  40.190   3.960   7.079
 4559POPC   C4B59638  39.817   3.812   7.240
 4560POPC   NC359639  21.768  27.061   5.472
 4560POPC   PO459640  21.195  26.694   5.563
 4560POPC   GL159641  21.477  26.744   5.905
 4560POPC   GL259642  21.621  27.063   5.966
 4560POPC   C1A59643  21.456  26.797   6.379
 4560POPC   D2A59644  21.451  26.512   6.740
 4560POPC   C3A59645  21.240  26.648   7.110
 4560POPC   C4A59646  21.025  27.012   7.198
 4560POPC   C1B59647  21.928  27.002   6.316
 4560POPC   C2B59648  21.962  27.051   6.740
 4560POPC   C3B59649  21.616  26.967   6.970
 4560POPC   C4B59650  21.763  26.598   7.148
 4561POPC   NC359651   7.080   8.845   5.403
 4561POPC   PO459652   6.442   9.116   5.365
 4561POPC   GL159653   6.528   8.909   5.747
 4561POPC   GL259654   6.857   9.018   5.867
 4561POPC   C1A59655   6.352   8.920   6.166
 4561POPC   D2A59656   6.380   9.168   6.557
 4561POPC   C3A59657   6.341   8.936   6.928
 4561POPC   C4A59658   6.515   9.085   7.282
 4561POPC   C1B59659   6.833   9.003   6.348
 4561POPC   C2B59660   6.842   9.047   6.817
 4561POPC   C3B59661   6.964   8.830   7.208
 4561POPC   C4B59662   7.180   8.627   7.545
 4562POPC   NC359663   4.610  11.941   5.749
 4562POPC   PO459664   5.078  12.028   5.275
 4562POPC   GL159665   5.126  11.883   5.683
 4562POPC   GL259666   5.059  12.176   5.837
 4562POPC   C1A59667   5.166  11.778   6.140
 4562POPC   D2A59668   5.346  11.913   6.537
 4562POPC   C3A59669   5.099  11.854   6.942
 4562POPC   C4A59670   5.143  12.120   7.324
 4562POPC   C1B59671   5.367  12.312   6.099
 4562POPC   C2B59672   5.313  12.443   6.489
 4562POPC   C3B59673   5.259  12.332   6.880
 4562POPC   C4B59674   5.489  12.486   7.226
 4563POPC   NC359675  18.378  30.080   5.481
 4563POPC   PO459676  18.236  29.445   5.268
 4563POPC   GL159677  18.256  29.620   5.725
 4563POPC   GL259678  17.921  29.562   5.871
 4563POPC   C1A59679  18.349  29.882   6.156
 4563POPC   D2A59680  18.227  30.136   6.559
 4563POPC   C3A59681  18.311  30.002   7.010
 4563POPC   C4A59682  18.650  30.066   7.317
 4563POPC   C1B59683  18.163  29.407   6.229
 4563POPC   C2B59684  18.285  29.593   6.630
 4563POPC   C3B59685  18.141  29.506   7.055
 4563POPC   C4B59686  17.846  29.618   7.324
 4564POPC   NC359687  42.585   5.087   5.472
 4564POPC   PO459688  42.018   4.726   5.618
 4564POPC   GL159689  42.245   4.987   5.875
 4564POPC   GL259690  42.540   4.821   5.897
 4564POPC   C1A59691  42.333   5.157   6.278
 4564POPC   D2A59692  42.377   5.454   6.616
 4564POPC   C3A59693  42.334   5.310   7.043
 4564POPC   C4A59694  42.344   5.331   7.505
 4564POPC   C1B59695  42.848   4.992   6.135
 4564POPC   C2B59696  42.794   5.073   6.537
 4564POPC   C3B59697  42.735   4.936   6.932
 4564POPC   C4B59698  42.674   4.997   7.326
 4565POPC   NC359699   9.229  20.440   5.409
 4565POPC   PO459700   8.586  20.206   5.354
 4565POPC   GL159701   8.868  20.305   5.750
 4565POPC   GL259702   9.232  20.493   5.904
 4565POPC   C1A59703   8.902  20.251   6.183
 4565POPC   D2A59704   8.759  20.409   6.582
 4565POPC   C3A59705   8.989  20.389   6.973
 4565POPC   C4A59706   8.883  20.804   7.121
 4565POPC   C1B59707   9.091  20.709   6.283
 4565POPC   C2B59708   9.219  20.765   6.701
 4565POPC   C3B59709   9.337  21.020   7.044
 4565POPC   C4B59710   9.203  21.090   7.451
 4566POPC   NC359711  38.745  37.140   5.479
 4566POPC   PO459712  38.404  36.573   5.454
 4566POPC   GL159713  38.528  36.779   5.854
 4566POPC   GL259714  38.685  37.087   5.995
 4566POPC   C1A59715  38.278  36.836   6.218
 4566POPC   D2A59716  37.929  36.689   6.480
 4566POPC   C3A59717  38.124  36.632   6.873
 4566POPC   C4A59718  38.373  36.795   7.211
 4566POPC   C1B59719  38.823  36.810   6.328
 4566POPC   C2B59720  38.605  36.748   6.703
 4566POPC   C3B59721  38.621  37.132   6.936
 4566POPC   C4B59722  38.786  37.092   7.327
 4567POPC   NC359723   0.782  12.053   5.654
 4567POPC   PO459724   1.475  11.895   5.423
 4567POPC   GL159725   1.487  12.051   5.817
 4567POPC   GL259726   1.200  11.947   5.904
 4567POPC   C1A59727   1.363  12.412   6.082
 4567POPC   D2A59728   1.484  12.571   6.473
 4567POPC   C3A59729   1.547  12.271   6.821
 4567POPC   C4A59730   1.419  12.071   7.234
 4567POPC   C1B59731   1.301  11.777   6.302
 4567POPC   C2B59732   1.414  11.784   6.757
 4567POPC   C3B59733   1.163  11.652   7.131
 4567POPC   C4B59734   1.115  11.745   7.586
 4568POPC   NC359735  28.848  36.595   5.081
 4568POPC   PO459736  29.287  37.024   5.332
 4568POPC   GL159737  29.314  37.014   5.741
 4568POPC   GL259738  29.413  36.696   5.742
 4568POPC   C1A59739  29.044  36.914   6.095
 4568POPC   D2A59740  28.896  37.104   6.458
 4568POPC   C3A59741  28.961  36.999   6.873
 4568POPC   C4A59742  28.733  36.921   7.264
 4568POPC   C1B59743  29.526  36.781   6.144
 4568POPC   C2B59744  29.400  36.982   6.519
 4568POPC   C3B59745  29.464  36.819   6.904
 4568POPC   C4B59746  29.178  36.668   7.189
 4569POPC   NC359747  38.040  12.756   5.454
 4569POPC   PO459748  37.499  13.152   5.329
 4569POPC   GL159749  37.659  12.931   5.731
 4569POPC   GL259750  37.634  12.563   5.742
 4569POPC   C1A59751  37.954  12.751   6.087
 4569POPC   D2A59752  37.886  12.518   6.455
 4569POPC   C3A59753  37.661  12.808   6.720
 4569POPC   C4A59754  37.661  12.811   7.176
 4569POPC   C1B59755  37.460  12.587   6.190
 4569POPC   C2B59756  37.346  12.381   6.572
 4569POPC   C3B59757  37.259  12.568   6.962
 4569POPC   C4B59758  37.324  12.426   7.359
 4570POPC   NC359759  33.717  34.670   4.791
 4570POPC   PO459760  33.797  34.443   5.439
 4570POPC   GL159761  33.639  34.630   5.804
 4570POPC   GL259762  33.517  34.276   5.894
 4570POPC   C1A59763  33.687  34.827   6.237
 4570POPC   D2A59764  33.491  34.728   6.637
 4570POPC   C3A59765  33.662  34.825   7.035
 4570POPC   C4A59766  33.514  34.894   7.468
 4570POPC   C1B59767  33.890  34.364   6.160
 4570POPC   C2B59768  33.949  34.490   6.553
 4570POPC   C3B59769  33.738  34.336   6.905
 4570POPC   C4B59770  33.775  34.385   7.330
 4571POPC   NC359771  32.401  29.595   5.231
 4571POPC   PO459772  31.986  29.923   5.483
 4571POPC   GL159773  32.356  29.871   5.738
 4571POPC   GL259774  32.548  29.543   5.756
 4571POPC   C1A59775  32.387  30.137   6.119
 4571POPC   D2A59776  32.260  30.350   6.502
 4571POPC   C3A59777  32.287  30.191   6.908
 4571POPC   C4A59778  32.027  30.016   7.212
 4571POPC   C1B59779  32.314  29.588   6.169
 4571POPC   C2B59780  32.357  29.804   6.562
 4571POPC   C3B59781  32.371  29.699   7.006
 4571POPC   C4B59782  32.420  29.775   7.444
 4572POPC   NC359783  22.381  21.132   5.496
 4572POPC   PO459784  22.571  21.620   5.503
 4572POPC   GL159785  22.307  21.448   5.903
 4572POPC   GL259786  21.978  21.266   5.871
 4572POPC   C1A59787  22.193  21.250   6.350
 4572POPC   D2A59788  22.016  21.339   6.796
 4572POPC   C3A59789  22.141  21.241   7.253
 4572POPC   C4A59790  22.184  21.470   7.681
 4572POPC   C1B59791  21.691  21.386   6.256
 4572POPC   C2B59792  21.539  21.198   6.668
 4572POPC   C3B59793  21.622  21.266   7.116
 4572POPC   C4B59794  21.711  21.380   7.536
 4573POPC   NC359795  20.302  25.854   5.370
 4573POPC   PO459796  20.982  26.035   5.412
 4573POPC   GL159797  20.691  26.101   5.726
 4573POPC   GL259798  20.637  25.748   5.783
 4573POPC   C1A59799  20.641  26.322   6.137
 4573POPC   D2A59800  20.524  26.428   6.574
 4573POPC   C3A59801  20.470  26.073   6.804
 4573POPC   C4A59802  20.611  26.083   7.204
 4573POPC   C1B59803  20.358  25.588   6.094
 4573POPC   C2B59804  20.181  25.702   6.511
 4573POPC   C3B59805  20.147  25.669   6.947
 4573POPC   C4B59806  20.011  25.586   7.379
 4574POPC   NC359807   8.766   2.697   5.443
 4574POPC   PO459808   9.095   3.193   5.579
 4574POPC   GL159809   8.879   2.976   5.901
 4574POPC   GL259810   8.520   2.959   5.815
 4574POPC   C1A59811   8.935   3.049   6.376
 4574POPC   D2A59812   9.074   3.050   6.831
 4574POPC   C3A59813   9.002   2.778   7.190
 4574POPC   C4A59814   9.196   2.571   7.571
 4574POPC   C1B59815   8.571   2.723   6.229
 4574POPC   C2B59816   8.686   2.713   6.697
 4574POPC   C3B59817   8.553   2.548   7.103
 4574POPC   C4B59818   8.689   2.519   7.555
 4575POPC   NC359819  17.685  31.260   5.413
 4575POPC   PO459820  17.247  31.769   5.292
 4575POPC   GL159821  17.364  31.579   5.687
 4575POPC   GL259822  17.730  31.637   5.771
 4575POPC   C1A59823  17.375  31.349   6.073
 4575POPC   D2A59824  17.538  31.427   6.481
 4575POPC   C3A59825  17.255  31.364   6.860
 4575POPC   C4A59826  17.429  31.315   7.259
 4575POPC   C1B59827  17.891  31.338   6.078
 4575POPC   C2B59828  17.997  31.196   6.499
 4575POPC   C3B59829  17.836  31.350   6.901
 4575POPC   C4B59830  18.039  31.145   7.234
 4576POPC   NC359831  22.652   2.737   5.331
 4576POPC   PO459832  22.026   2.654   5.036
 4576POPC   GL159833  22.164   2.789   5.514
 4576POPC   GL259834  21.917   2.596   5.764
 4576POPC   C1A59835  22.237   2.946   5.957
 4576POPC   D2A59836  22.393   2.938   6.382
 4576POPC   C3A59837  22.224   2.755   6.738
 4576POPC   C4A59838  22.235   2.771   7.183
 4576POPC   C1B59839  22.095   2.489   6.190
 4576POPC   C2B59840  22.016   2.294   6.599
 4576POPC   C3B59841  22.202   2.306   7.002
 4576POPC   C4B59842  22.089   2.318   7.411
 4577POPC   NC359843  30.340  20.402   5.447
 4577POPC   PO459844  29.718  20.806   5.422
 4577POPC   GL159845  30.081  20.731   5.733
 4577POPC   GL259846  29.929  20.432   5.750
 4577POPC   C1A59847  30.221  20.475   6.145
 4577POPC   D2A59848  30.022  20.543   6.541
 4577POPC   C3A59849  30.230  20.543   6.941
 4577POPC   C4A59850  30.182  20.417   7.355
 4577POPC   C1B59851  29.749  20.687   6.112
 4577POPC   C2B59852  29.716  20.955   6.499
 4577POPC   C3B59853  29.634  20.921   6.954
 4577POPC   C4B59854  29.512  20.618   7.265
 4578POPC   NC359855  29.112  38.472   5.466
 4578POPC   PO459856  28.663  38.857   5.655
 4578POPC   GL159857  28.988  38.675   5.936
 4578POPC   GL259858  29.122  38.295   5.925
 4578POPC   C1A59859  28.873  38.515   6.339
 4578POPC   D2A59860  28.626  38.570   6.690
 4578POPC   C3A59861  28.902  38.686   7.011
 4578POPC   C4A59862  29.021  38.647   7.451
 4578POPC   C1B59863  29.371  38.512   6.252
 4578POPC   C2B59864  29.280  38.594   6.686
 4578POPC   C3B59865  29.399  38.552   7.134
 4578POPC   C4B59866  29.331  38.245   7.507
 4579POPC   NC359867   6.700   3.186   5.464
 4579POPC   PO459868   6.476   3.806   5.589
 4579POPC   GL159869   6.687   3.651   5.929
 4579POPC   GL259870   6.915   3.372   5.917
 4579POPC   C1A59871   6.539   3.481   6.304
 4579POPC   D2A59872   6.420   3.377   6.709
 4579POPC   C3A59873   6.580   3.631   7.005
 4579POPC   C4A59874   6.412   4.009   7.199
 4579POPC   C1B59875   7.041   3.580   6.323
 4579POPC   C2B59876   7.094   3.508   6.754
 4579POPC   C3B59877   7.197   3.155   6.994
 4579POPC   C4B59878   6.940   3.380   7.276
 4580POPC   NC359879  19.227  20.819   5.078
 4580POPC   PO459880  19.054  20.358   5.539
 4580POPC   GL159881  19.194  20.684   5.862
 4580POPC   GL259882  19.368  20.993   5.767
 4580POPC   C1A59883  19.078  20.665   6.317
 4580POPC   D2A59884  18.919  20.284   6.555
 4580POPC   C3A59885  18.838  20.332   7.003
 4580POPC   C4A59886  18.903  20.760   7.142
 4580POPC   C1B59887  19.388  21.083   6.223
 4580POPC   C2B59888  19.356  20.940   6.676
 4580POPC   C3B59889  19.325  21.037   7.129
 4580POPC   C4B59890  19.234  20.896   7.558
 4581POPC   NC359891  22.482  23.274   5.053
 4581POPC   PO459892  22.108  22.965   5.331
 4581POPC   GL159893  21.924  22.976   5.815
 4581POPC   GL259894  21.812  23.274   5.974
 4581POPC   C1A59895  21.793  22.850   6.268
 4581POPC   D2A59896  21.894  22.982   6.711
 4581POPC   C3A59897  21.933  22.688   7.055
 4581POPC   C4A59898  22.125  22.610   7.457
 4581POPC   C1B59899  22.169  23.190   6.308
 4581POPC   C2B59900  22.392  22.942   6.658
 4581POPC   C3B59901  22.351  22.984   7.118
 4581POPC   C4B59902  22.342  23.398   7.341
 4582POPC   NC359903  18.942   0.295   5.393
 4582POPC   PO459904  19.388   0.743   5.348
 4582POPC   GL159905  19.237   0.565   5.736
 4582POPC   GL259906  18.913   0.671   5.830
 4582POPC   C1A59907  19.202   0.363   6.156
 4582POPC   D2A59908  19.376   0.266   6.566
 4582POPC   C3A59909  19.209   0.433   6.958
 4582POPC   C4A59910  19.156   0.181   7.311
 4582POPC   C1B59911  18.724   0.497   6.184
 4582POPC   C2B59912  18.866   0.324   6.576
 4582POPC   C3B59913  18.746   0.187   7.001
 4582POPC   C4B59914  18.610   0.426   7.363
 4583POPC   NC359915   7.866  29.134   5.353
 4583POPC   PO459916   8.535  29.297   5.136
 4583POPC   GL159917   8.317  29.258   5.603
 4583POPC   GL259918   8.235  28.914   5.736
 4583POPC   C1A59919   8.123  29.280   6.073
 4583POPC   D2A59920   8.249  29.143   6.508
 4583POPC   C3A59921   8.142  29.171   6.931
 4583POPC   C4A59922   8.286  29.338   7.303
 4583POPC   C1B59923   8.076  28.781   6.170
 4583POPC   C2B59924   7.937  28.764   6.608
 4583POPC   C3B59925   7.755  28.856   7.000
 4583POPC   C4B59926   8.049  28.866   7.353
 4584POPC   NC359927  43.132  40.892   5.349
 4584POPC   PO459928  42.651  40.324   5.385
 4584POPC   GL159929  42.938  40.561   5.679
 4584POPC   GL259930  43.285  40.599   5.784
 4584POPC   C1A59931  42.915  40.892   6.008
 4584POPC   D2A59932  43.000  40.693   6.404
 4584POPC   C3A59933  42.924  40.744   6.844
 4584POPC   C4A59934  43.117  40.557   7.213
 4584POPC   C1B59935  43.565  40.611   6.156
 4584POPC   C2B59936  43.454  40.600   6.610
 4584POPC   C3B59937  43.500  40.846   6.990
 4584POPC   C4B59938  43.613  40.552   7.320
 4585POPC   NC359939  31.922  44.101   5.460
 4585POPC   PO459940  32.381  43.600   5.458
 4585POPC   GL159941  32.138  43.671   5.813
 4585POPC   GL259942  32.106  44.033   5.917
 4585POPC   C1A59943  32.237  43.677   6.247
 4585POPC   D2A59944  32.101  43.885   6.577
 4585POPC   C3A59945  32.325  43.906   6.901
 4585POPC   C4A59946  32.243  43.757   7.261
 4585POPC   C1B59947  32.311  44.225   6.276
 4585POPC   C2B59948  32.201  44.402   6.683
 4585POPC   C3B59949  32.029  44.296   7.051
 4585POPC   C4B59950  32.303  44.236   7.360
 4586POPC   NC359951  27.943  31.418   5.415
 4586POPC   PO459952  27.258  31.353   5.475
 4586POPC   GL159953  27.469  31.453   5.862
 4586POPC   GL259954  27.803  31.310   5.901
 4586POPC   C1A59955  27.438  31.468   6.315
 4586POPC   D2A59956  27.544  31.223   6.709
 4586POPC   C3A59957  27.335  31.320   7.059
 4586POPC   C4A59958  27.448  31.727   7.126
 4586POPC   C1B59959  27.946  31.564   6.232
 4586POPC   C2B59960  27.808  31.655   6.624
 4586POPC   C3B59961  27.916  31.537   7.012
 4586POPC   C4B59962  27.832  31.579   7.461
 4587POPC   NC359963   0.801  27.306   4.976
 4587POPC   PO459964   1.290  27.192   5.462
 4587POPC   GL159965   1.197  27.383   5.881
 4587POPC   GL259966   1.261  27.732   5.861
 4587POPC   C1A59967   1.154  27.261   6.308
 4587POPC   D2A59968   1.279  27.453   6.688
 4587POPC   C3A59969   0.993  27.425   7.012
 4587POPC   C4A59970   0.718  27.206   7.260
 4587POPC   C1B59971   1.176  27.860   6.281
 4587POPC   C2B59972   1.092  27.928   6.714
 4587POPC   C3B59973   1.313  27.828   7.089
 4587POPC   C4B59974   1.247  27.961   7.559
 4588POPC   NC359975  43.169  19.466   5.285
 4588POPC   PO459976  43.093  20.236   5.287
 4588POPC   GL159977  42.976  20.114   5.722
 4588POPC   GL259978  42.874  19.798   5.760
 4588POPC   C1A59979  43.239  19.923   6.092
 4588POPC   D2A59980  43.510  19.992   6.427
 4588POPC   C3A59981  43.289  19.877   6.799
 4588POPC   C4A59982  43.197  19.957   7.211
 4588POPC   C1B59983  42.755  20.036   6.189
 4588POPC   C2B59984  42.637  19.892   6.631
 4588POPC   C3B59985  42.699  19.887   7.093
 4588POPC   C4B59986  42.593  20.157   7.464
 4589POPC   NC359987  12.393  42.551   5.431
 4589POPC   PO459988  11.885  42.110   5.202
 4589POPC   GL159989  11.931  42.180   5.722
 4589POPC   GL259990  12.190  42.378   5.847
 4589POPC   C1A59991  12.097  42.075   6.220
 4589POPC   D2A59992  12.318  42.136   6.656
 4589POPC   C3A59993  12.059  42.115   7.028
 4589POPC   C4A59994  11.809  42.181   7.371
 4589POPC   C1B59995  12.211  42.571   6.273
 4589POPC   C2B59996  12.022  42.541   6.711
 4589POPC   C3B59997  12.006  42.629   7.159
 4589POPC   C4B59998  12.088  43.009   7.399
 4590POPC   NC359999  26.923  33.332   5.539
 4590POPC   PO460000  26.759  33.942   5.387
 4590POPC   GL160001  26.928  33.790   5.775
 4590POPC   GL260002  26.591  33.619   5.810
 4590POPC   C1A60003  26.918  33.712   6.223
 4590POPC   D2A60004  26.599  33.934   6.499
 4590POPC   C3A60005  26.628  33.951   6.930
 4590POPC   C4A60006  26.822  33.748   7.262
 4590POPC   C1B60007  26.407  33.563   6.205
 4590POPC   C2B60008  26.287  33.455   6.626
 4590POPC   C3B60009  26.509  33.397   7.012
 4590POPC   C4B60010  26.452  33.409   7.434
 4591POPC   NC360011   7.690   1.391   5.087
 4591POPC   PO460012   8.173   1.195   5.521
 4591POPC   GL160013   7.987   1.064   5.871
 4591POPC   GL260014   7.738   0.864   5.686
 4591POPC   C1A60015   7.893   1.297   6.257
 4591POPC   D2A60016   7.986   1.140   6.646
 4591POPC   C3A60017   8.074   1.395   6.955
 4591POPC   C4A60018   8.404   1.390   7.253
 4591POPC   C1B60019   7.630   0.840   6.146
 4591POPC   C2B60020   7.704   0.662   6.579
 4591POPC   C3B60021   7.750   0.845   6.992
 4591POPC   C4B60022   7.911   1.098   7.321
 4592POPC   NC360023  30.556  43.623   5.158
 4592POPC   PO460024  30.933  43.045   5.392
 4592POPC   GL160025  30.945  43.051   5.840
 4592POPC   GL260026  30.599  43.151   5.885
 4592POPC   C1A60027  30.940  43.230   6.282
 4592POPC   D2A60028  30.714  43.380   6.630
 4592POPC   C3A60029  30.875  43.362   7.019
 4592POPC   C4A60030  31.172  43.063   7.122
 4592POPC   C1B60031  30.504  42.995   6.302
 4592POPC   C2B60032  30.410  42.964   6.715
 4592POPC   C3B60033  30.545  42.998   7.118
 4592POPC   C4B60034  30.295  43.071   7.455
 4593POPC   NC360035  19.817  38.669   5.490
 4593POPC   PO460036  19.831  39.414   5.439
 4593POPC   GL160037  19.738  39.338   5.842
 4593POPC   GL260038  19.846  39.014   5.870
 4593POPC   C1A60039  19.910  39.449   6.231
 4593POPC   D2A60040  19.900  39.326   6.635
 4593POPC   C3A60041  19.573  39.189   6.883
 4593POPC   C4A60042  19.689  39.329   7.296
 4593POPC   C1B60043  19.704  38.933   6.278
 4593POPC   C2B60044  19.930  38.809   6.622
 4593POPC   C3B60045  20.007  38.972   7.012
 4593POPC   C4B60046  19.901  38.886   7.424
 4594POPC   NC360047  18.019  44.006   5.536
 4594POPC   PO460048  17.391  43.718   5.332
 4594POPC   GL160049  17.591  43.736   5.719
 4594POPC   GL260050  17.589  44.077   5.783
 4594POPC   C1A60051  17.419  43.774   6.147
 4594POPC   D2A60052  17.456  43.605   6.553
 4594POPC   C3A60053  17.361  43.851   6.918
 4594POPC   C4A60054  17.749  43.796   7.139
 4594POPC   C1B60055  17.809  44.142   6.199
 4594POPC   C2B60056  17.650  44.201   6.656
 4594POPC   C3B60057  17.766  44.299   7.112
 4594POPC   C4B60058  17.820  44.335   7.611
 4595POPC   NC360059  31.493  28.985   5.248
 4595POPC   PO460060  31.231  29.467   5.598
 4595POPC   GL160061  31.474  29.236   5.871
 4595POPC   GL260062  31.712  28.965   5.735
 4595POPC   C1A60063  31.403  29.296   6.304
 4595POPC   D2A60064  31.502  29.276   6.712
 4595POPC   C3A60065  31.384  29.419   7.062
 4595POPC   C4A60066  31.199  29.693   7.287
 4595POPC   C1B60067  31.551  28.822   6.169
 4595POPC   C2B60068  31.336  28.829   6.532
 4595POPC   C3B60069  31.482  28.776   6.912
 4595POPC   C4B60070  31.450  28.958   7.282
 4596POPC   NC360071  25.591  16.438   5.197
 4596POPC   PO460072  25.268  16.904   5.357
 4596POPC   GL160073  25.437  16.545   5.665
 4596POPC   GL260074  25.161  16.361   5.825
 4596POPC   C1A60075  25.562  16.430   6.111
 4596POPC   D2A60076  25.254  16.472   6.466
 4596POPC   C3A60077  25.324  16.401   6.917
 4596POPC   C4A60078  25.406  16.751   7.212
 4596POPC   C1B60079  25.215  16.812   6.032
 4596POPC   C2B60080  25.204  17.045   6.411
 4596POPC   C3B60081  25.213  17.088   6.856
 4596POPC   C4B60082  25.070  17.135   7.288
 4597POPC   NC360083  19.330  32.570   5.331
 4597POPC   PO460084  18.826  32.078   5.459
 4597POPC   GL160085  19.089  32.069   5.819
 4597POPC   GL260086  19.135  32.429   5.796
 4597POPC   C1A60087  19.102  31.916   6.260
 4597POPC   D2A60088  19.328  31.893   6.663
 4597POPC   C3A60089  19.074  32.005   7.062
 4597POPC   C4A60090  18.863  32.377   7.288
 4597POPC   C1B60091  19.274  32.651   6.164
 4597POPC   C2B60092  19.436  32.574   6.552
 4597POPC   C3B60093  19.203  32.495   6.906
 4597POPC   C4B60094  19.362  32.643   7.288
 4598POPC   NC360095   0.503   1.414   5.282
 4598POPC   PO460096   0.299   0.872   5.409
 4598POPC   GL160097   0.345   1.218   5.722
 4598POPC   GL260098   0.667   1.301   5.879
 4598POPC   C1A60099   0.186   1.438   6.066
 4598POPC   D2A60100   0.270   1.566   6.473
 4598POPC   C3A60101   0.409   1.342   6.822
 4598POPC   C4A60102   0.189   1.380   7.212
 4598POPC   C1B60103   0.542   1.126   6.304
 4598POPC   C2B60104   0.520   0.843   6.693
 4598POPC   C3B60105   0.467   0.932   7.166
 4598POPC   C4B60106   0.592   0.893   7.627
 4599POPC   NC360107  37.245   5.765   5.370
 4599POPC   PO460108  36.667   6.056   5.301
 4599POPC   GL160109  36.883   5.900   5.723
 4599POPC   GL260110  37.214   5.710   5.868
 4599POPC   C1A60111  36.917   5.966   6.181
 4599POPC   D2A60112  36.738   5.877   6.601
 4599POPC   C3A60113  36.870   5.934   7.010
 4599POPC   C4A60114  36.965   6.008   7.459
 4599POPC   C1B60115  37.205   5.569   6.311
 4599POPC   C2B60116  37.253   5.715   6.743
 4599POPC   C3B60117  37.324   5.788   7.192
 4599POPC   C4B60118  37.405   5.816   7.644
 4600POPC   NC360119  37.855  22.441   5.365
 4600POPC   PO460120  37.230  22.230   5.313
 4600POPC   GL160121  37.454  22.330   5.694
 4600POPC   GL260122  37.790  22.159   5.783
 4600POPC   C1A60123  37.539  22.480   6.105
 4600POPC   D2A60124  37.793  22.402   6.452
 4600POPC   C3A60125  37.624  22.371   6.865
 4600POPC   C4A60126  37.665  22.248   7.253
 4600POPC   C1B60127  37.685  21.980   6.193
 4600POPC   C2B60128  37.637  21.917   6.636
 4600POPC   C3B60129  37.708  21.770   7.071
 4600POPC   C4B60130  37.999  21.872   7.418
 4601POPC   NC360131  44.012  27.356   5.474
 4601POPC   PO460132  44.115  28.017   5.531
 4601POPC   GL160133  44.066  27.790   5.860
 4601POPC   GL260134  43.760  27.627   5.848
 4601POPC   C1A60135  44.083  27.668   6.270
 4601POPC   D2A60136  43.817  27.734   6.628
 4601POPC   C3A60137  44.081  27.633   6.975
 4601POPC   C4A60138  44.122  27.507   7.424
 4601POPC   C1B60139  43.577  27.471   6.225
 4601POPC   C2B60140  43.329  27.549   6.584
 4601POPC   C3B60141  43.401  27.785   6.941
 4601POPC   C4B60142  43.677  27.694   7.260
 4602POPC   NC360143  27.249  37.005   5.107
 4602POPC   PO460144  26.816  37.323   5.428
 4602POPC   GL160145  26.925  37.057   5.765
 4602POPC   GL260146  26.902  36.704   5.690
 4602POPC   C1A60147  26.780  36.995   6.184
 4602POPC   D2A60148  26.726  37.245   6.554
 4602POPC   C3A60149  26.606  37.002   6.912
 4602POPC   C4A60150  26.882  36.873   7.230
 4602POPC   C1B60151  27.026  36.546   6.089
 4602POPC   C2B60152  26.901  36.628   6.541
 4602POPC   C3B60153  27.085  36.473   6.969
 4602POPC   C4B60154  27.139  36.466   7.452
 4603POPC   NC360155  20.524  42.106   5.503
 4603POPC   PO460156  20.957  42.525   5.186
 4603POPC   GL160157  20.672  42.536   5.639
 4603POPC   GL260158  20.337  42.637   5.628
 4603POPC   C1A60159  20.622  42.382   6.096
 4603POPC   D2A60160  20.657  42.125   6.504
 4603POPC   C3A60161  20.378  42.135   6.873
 4603POPC   C4A60162  20.319  42.285   7.291
 4603POPC   C1B60163  20.148  42.538   6.045
 4603POPC   C2B60164  20.219  42.439   6.485
 4603POPC   C3B60165  20.460  42.645   6.825
 4603POPC   C4B60166  20.706  42.625   7.228
 4604POPC   NC360167  12.557   8.280   5.416
 4604POPC   PO460168  13.169   7.859   5.355
 4604POPC   GL160169  13.006   8.147   5.661
 4604POPC   GL260170  13.064   8.469   5.577
 4604POPC   C1A60171  12.786   8.229   6.045
 4604POPC   D2A60172  12.959   8.151   6.481
 4604POPC   C3A60173  12.660   8.189   6.842
 4604POPC   C4A60174  12.880   8.143   7.229
 4604POPC   C1B60175  13.142   8.569   6.017
 4604POPC   C2B60176  12.840   8.618   6.377
 4604POPC   C3B60177  12.977   8.578   6.807
 4604POPC   C4B60178  13.089   8.638   7.218
 4605POPC   NC360179   1.597   4.269   5.587
 4605POPC   PO460180   1.099   4.728   5.336
 4605POPC   GL160181   1.282   4.638   5.757
 4605POPC   GL260182   1.130   4.287   5.831
 4605POPC   C1A60183   1.454   4.495   6.183
 4605POPC   D2A60184   1.578   4.223   6.523
 4605POPC   C3A60185   1.281   4.252   6.848
 4605POPC   C4A60186   1.328   4.429   7.267
 4605POPC   C1B60187   1.166   4.068   6.234
 4605POPC   C2B60188   0.900   3.811   6.488
 4605POPC   C3B60189   0.914   3.725   6.896
 4605POPC   C4B60190   1.082   3.971   7.238
 4606POPC   NC360191  10.994   8.004   5.622
 4606POPC   PO460192  11.647   8.218   5.395
 4606POPC   GL160193  11.538   8.154   5.813
 4606POPC   GL260194  11.265   8.399   5.862
 4606POPC   C1A60195  11.635   8.259   6.242
 4606POPC   D2A60196  11.393   8.513   6.541
 4606POPC   C3A60197  11.445   8.321   6.953
 4606POPC   C4A60198  11.506   7.966   7.238
 4606POPC   C1B60199  11.135   8.167   6.229
 4606POPC   C2B60200  10.942   7.891   6.508
 4606POPC   C3B60201  11.112   7.905   6.903
 4606POPC   C4B60202  11.039   8.173   7.277
 4607POPC   NC360203  36.577   4.434   5.180
 4607POPC   PO460204  36.446   3.897   5.335
 4607POPC   GL160205  36.371   4.096   5.780
 4607POPC   GL260206  36.351   4.481   5.804
 4607POPC   C1A60207  36.141   4.178   6.214
 4607POPC   D2A60208  35.989   4.000   6.651
 4607POPC   C3A60209  35.926   4.080   7.117
 4607POPC   C4A60210  35.658   3.818   7.401
 4607POPC   C1B60211  36.214   4.683   6.208
 4607POPC   C2B60212  36.177   4.749   6.658
 4607POPC   C3B60213  36.265   4.581   7.056
 4607POPC   C4B60214  36.085   4.477   7.451
 4608POPC   NC360215  32.497   9.541   5.611
 4608POPC   PO460216  33.144   9.634   5.279
 4608POPC   GL160217  33.020   9.571   5.708
 4608POPC   GL260218  32.889   9.890   5.798
 4608POPC   C1A60219  33.120   9.422   6.137
 4608POPC   D2A60220  33.090   9.656   6.532
 4608POPC   C3A60221  33.286   9.550   6.921
 4608POPC   C4A60222  33.138   9.664   7.341
 4608POPC   C1B60223  33.285   9.904   6.102
 4608POPC   C2B60224  33.422  10.020   6.563
 4608POPC   C3B60225  33.212  10.066   7.015
 4608POPC   C4B60226  33.242  10.147   7.515
 4609POPC   NC360227  27.189  42.532   5.481
 4609POPC   PO460228  27.708  42.091   5.570
 4609POPC   GL160229  27.734  42.267   5.906
 4609POPC   GL260230  27.353  42.265   5.912
 4609POPC   C1A60231  27.659  42.224   6.330
 4609POPC   D2A60232  27.651  41.959   6.655
 4609POPC   C3A60233  27.635  42.227   6.986
 4609POPC   C4A60234  27.596  42.165   7.413
 4609POPC   C1B60235  27.156  42.188   6.310
 4609POPC   C2B60236  27.264  42.431   6.670
 4609POPC   C3B60237  27.188  42.410   7.115
 4609POPC   C4B60238  27.089  42.533   7.523
 4610POPC   NC360239  14.000  34.950   5.540
 4610POPC   PO460240  13.680  35.255   5.145
 4610POPC   GL160241  13.567  35.308   5.648
 4610POPC   GL260242  13.641  35.023   5.894
 4610POPC   C1A60243  13.539  35.436   6.156
 4610POPC   D2A60244  13.769  35.250   6.565
 4610POPC   C3A60245  13.722  35.201   7.050
 4610POPC   C4A60246  13.781  35.394   7.477
 4610POPC   C1B60247  13.428  34.948   6.307
 4610POPC   C2B60248  13.302  35.049   6.749
 4610POPC   C3B60249  13.403  34.810   7.133
 4610POPC   C4B60250  13.642  34.870   7.512
 4611POPC   NC360251   1.208  33.211   5.264
 4611POPC   PO460252   0.714  32.732   5.414
 4611POPC   GL160253   1.014  32.973   5.732
 4611POPC   GL260254   1.260  33.281   5.773
 4611POPC   C1A60255   1.369  32.884   6.068
 4611POPC   D2A60256   1.497  32.985   6.519
 4611POPC   C3A60257   1.128  32.992   6.811
 4611POPC   C4A60258   1.055  32.707   7.140
 4611POPC   C1B60259   1.584  33.351   6.128
 4611POPC   C2B60260   1.588  33.497   6.575
 4611POPC   C3B60261   1.456  33.339   6.987
 4611POPC   C4B60262   1.402  33.170   7.420
 4612POPC   NC360263   4.861   0.295   5.495
 4612POPC   PO460264   5.098   0.897   5.390
 4612POPC   GL160265   5.035   0.665   5.814
 4612POPC   GL260266   5.145   0.306   5.920
 4612POPC   C1A60267   4.861   0.561   6.245
 4612POPC   D2A60268   4.916   0.306   6.632
 4612POPC   C3A60269   4.639   0.274   7.000
 4612POPC   C4A60270   4.849   0.596   7.254
 4612POPC   C1B60271   5.015  44.966   6.264
 4612POPC   C2B60272   4.972  44.824   6.741
 4612POPC   C3B60273   5.100   0.124   7.088
 4612POPC   C4B60274   4.888   0.139   7.472
 4613POPC   NC360275  20.773   3.230   5.592
 4613POPC   PO460276  20.272   3.643   5.303
 4613POPC   GL160277  20.378   3.485   5.765
 4613POPC   GL260278  20.703   3.642   5.899
 4613POPC   C1A60279  20.341   3.496   6.242
 4613POPC   D2A60280  20.550   3.741   6.569
 4613POPC   C3A60281  20.547   3.583   6.971
 4613POPC   C4A60282  20.844   3.681   7.294
 4613POPC   C1B60283  20.829   3.335   6.220
 4613POPC   C2B60284  20.694   3.228   6.611
 4613POPC   C3B60285  20.931   3.251   6.936
 4613POPC   C4B60286  21.095   3.170   7.275
 4614POPC   NC360287  20.148  31.242   5.292
 4614POPC   PO460288  19.785  31.798   5.494
 4614POPC   GL160289  19.906  31.648   5.840
 4614POPC   GL260290  20.114  31.416   5.774
 4614POPC   C1A60291  19.778  31.750   6.239
 4614POPC   D2A60292  19.770  31.537   6.613
 4614POPC   C3A60293  19.814  31.728   6.999
 4614POPC   C4A60294  19.792  31.495   7.378
 4614POPC   C1B60295  20.123  31.341   6.215
 4614POPC   C2B60296  20.042  31.106   6.568
 4614POPC   C3B60297  20.093  31.283   6.950
 4614POPC   C4B60298  20.383  31.339   7.255
 4615POPC   NC360299   7.280  17.846   5.355
 4615POPC   PO460300   7.611  18.355   5.671
 4615POPC   GL160301   7.481  18.166   6.025
 4615POPC   GL260302   7.265  17.936   5.851
 4615POPC   C1A60303   7.656  18.291   6.421
 4615POPC   D2A60304   7.475  18.382   6.811
 4615POPC   C3A60305   7.642  18.492   7.192
 4615POPC   C4A60306   7.536  18.320   7.589
 4615POPC   C1B60307   7.087  17.824   6.209
 4615POPC   C2B60308   7.275  17.932   6.578
 4615POPC   C3B60309   7.097  18.080   6.957
 4615POPC   C4B60310   7.333  17.939   7.306
 4616POPC   NC360311  19.292  30.303   5.321
 4616POPC   PO460312  18.887  29.768   5.467
 4616POPC   GL160313  19.061  29.747   5.861
 4616POPC   GL260314  19.351  29.970   5.841
 4616POPC   C1A60315  18.991  29.899   6.279
 4616POPC   D2A60316  18.714  29.941   6.644
 4616POPC   C3A60317  18.937  29.762   6.999
 4616POPC   C4A60318  19.068  29.777   7.429
 4616POPC   C1B60319  19.448  30.318   6.134
 4616POPC   C2B60320  19.307  30.537   6.505
 4616POPC   C3B60321  19.137  30.335   6.863
 4616POPC   C4B60322  19.271  30.355   7.281
 4617POPC   NC360323  42.286  37.379   5.378
 4617POPC   PO460324  42.515  36.683   5.414
 4617POPC   GL160325  42.312  36.990   5.712
 4617POPC   GL260326  42.559  37.291   5.791
 4617POPC   C1A60327  42.160  36.939   6.140
 4617POPC   D2A60328  42.043  37.039   6.565
 4617POPC   C3A60329  42.060  36.689   6.869
 4617POPC   C4A60330  42.156  36.735   7.284
 4617POPC   C1B60331  42.665  37.188   6.204
 4617POPC   C2B60332  42.550  37.035   6.603
 4617POPC   C3B60333  42.578  36.747   6.955
 4617POPC   C4B60334  42.699  36.821   7.380
 4618POPC   NC360335  30.738   0.403   5.414
 4618POPC   PO460336  30.188   0.101   5.393
 4618POPC   GL160337  30.388   0.171   5.813
 4618POPC   GL260338  30.748   0.283   5.904
 4618POPC   C1A60339  30.471   0.133   6.285
 4618POPC   D2A60340  30.417   0.340   6.687
 4618POPC   C3A60341  30.513   0.144   7.074
 4618POPC   C4A60342  30.852   0.279   7.340
 4618POPC   C1B60343  30.941   0.326   6.354
 4618POPC   C2B60344  31.003   0.250   6.829
 4618POPC   C3B60345  31.306   0.143   7.190
 4618POPC   C4B60346  31.296   0.364   7.645
 4619POPC   NC360347  26.210  43.157   5.287
 4619POPC   PO460348  25.720  42.687   5.424
 4619POPC   GL160349  26.064  42.890   5.705
 4619POPC   GL260350  25.998  43.227   5.772
 4619POPC   C1A60351  26.170  42.992   6.184
 4619POPC   D2A60352  25.898  43.014   6.569
 4619POPC   C3A60353  26.070  43.196   6.938
 4619POPC   C4A60354  26.238  43.028   7.310
 4619POPC   C1B60355  25.698  43.253   6.142
 4619POPC   C2B60356  25.697  43.504   6.525
 4619POPC   C3B60357  25.810  43.643   6.951
 4619POPC   C4B60358  25.862  43.432   7.346
 4620POPC   NC360359  19.710  14.763   5.499
 4620POPC   PO460360  19.829  15.388   5.296
 4620POPC   GL160361  19.920  15.207   5.714
 4620POPC   GL260362  19.619  15.184   5.775
 4620POPC   C1A60363  19.971  15.245   6.158
 4620POPC   D2A60364  20.009  15.447   6.549
 4620POPC   C3A60365  19.951  15.149   6.867
 4620POPC   C4A60366  19.793  15.020   7.255
 4620POPC   C1B60367  19.596  14.876   6.127
 4620POPC   C2B60368  19.783  14.770   6.517
 4620POPC   C3B60369  19.601  14.751   6.901
 4620POPC   C4B60370  19.299  14.905   7.219
 4621POPC   NC360371  10.505  19.597   5.735
 4621POPC   PO460372  10.953  19.991   5.349
 4621POPC   GL160373  10.828  20.040   5.842
 4621POPC   GL260374  10.823  19.787   6.134
 4621POPC   C1A60375  10.492  20.175   6.141
 4621POPC   D2A60376  10.347  19.971   6.518
 4621POPC   C3A60377  10.444  20.064   6.948
 4621POPC   C4A60378  10.133  20.107   7.245
 4621POPC   C1B60379  10.791  19.464   6.455
 4621POPC   C2B60380  11.002  19.524   6.825
 4621POPC   C3B60381  10.906  19.848   7.125
 4621POPC   C4B60382  10.617  19.653   7.379
 4622POPC   NC360383  18.361  39.300   5.397
 4622POPC   PO460384  18.270  38.639   5.396
 4622POPC   GL160385  18.196  38.917   5.727
 4622POPC   GL260386  18.501  39.029   5.868
 4622POPC   C1A60387  18.102  39.142   6.146
 4622POPC   D2A60388  18.335  39.245   6.539
 4622POPC   C3A60389  18.232  39.205   6.997
 4622POPC   C4A60390  18.361  39.108   7.428
 4622POPC   C1B60391  18.527  39.452   6.078
 4622POPC   C2B60392  18.706  39.578   6.499
 4622POPC   C3B60393  18.742  39.290   6.887
 4622POPC   C4B60394  18.801  39.379   7.322
 4623POPC   NC360395  40.614   0.239   5.499
 4623POPC   PO460396  41.243   0.393   5.341
 4623POPC   GL160397  40.931   0.586   5.721
 4623POPC   GL260398  40.713   0.336   5.979
 4623POPC   C1A60399  40.794   0.789   6.146
 4623POPC   D2A60400  40.799   0.597   6.561
 4623POPC   C3A60401  40.720   0.726   6.984
 4623POPC   C4A60402  40.895   0.452   7.295
 4623POPC   C1B60403  40.440   0.323   6.332
 4623POPC   C2B60404  40.431   0.314   6.798
 4623POPC   C3B60405  40.397   0.390   7.239
 4623POPC   C4B60406  40.576   0.182   7.622
 4624POPC   NC360407  33.880  44.489   5.348
 4624POPC   PO460408  33.225  44.618   5.397
 4624POPC   GL160409  33.521  44.675   5.758
 4624POPC   GL260410  33.757  44.889   5.626
 4624POPC   C1A60411  33.659  44.530   6.195
 4624POPC   D2A60412  33.889  44.501   6.573
 4624POPC   C3A60413  33.598  44.569   6.854
 4624POPC   C4A60414  33.589  44.557   7.246
 4624POPC   C1B60415  33.848  44.979   6.045
 4624POPC   C2B60416  33.895   0.049   6.470
 4624POPC   C3B60417  33.932  44.957   6.865
 4624POPC   C4B60418  34.064  44.625   7.099
 4625POPC   NC360419   2.259  12.695   5.500
 4625POPC   PO460420   2.765  12.730   5.043
 4625POPC   GL160421   2.778  12.670   5.623
 4625POPC   GL260422   2.545  12.564   5.883
 4625POPC   C1A60423   2.877  12.936   6.060
 4625POPC   D2A60424   2.775  13.060   6.522
 4625POPC   C3A60425   2.960  12.858   6.912
 4625POPC   C4A60426   3.129  13.063   7.293
 4625POPC   C1B60427   2.479  12.691   6.299
 4625POPC   C2B60428   2.518  12.518   6.716
 4625POPC   C3B60429   2.549  12.573   7.100
 4625POPC   C4B60430   2.605  12.952   7.268
 4626POPC   NC360431  37.290  33.907   5.321
 4626POPC   PO460432  37.857  33.799   5.411
 4626POPC   GL160433  37.930  33.825   5.833
 4626POPC   GL260434  37.561  33.916   5.832
 4626POPC   C1A60435  37.835  34.088   6.227
 4626POPC   D2A60436  37.533  33.972   6.571
 4626POPC   C3A60437  37.733  33.750   6.923
 4626POPC   C4A60438  37.785  34.116   7.156
 4626POPC   C1B60439  37.608  33.622   6.184
 4626POPC   C2B60440  37.333  33.499   6.513
 4626POPC   C3B60441  37.238  33.674   6.916
 4626POPC   C4B60442  37.381  33.570   7.314
 4627POPC   NC360443  31.789  20.277   5.002
 4627POPC   PO460444  31.706  20.741   5.445
 4627POPC   GL160445  31.686  20.459   5.811
 4627POPC   GL260446  31.939  20.190   5.818
 4627POPC   C1A60447  31.441  20.578   6.189
 4627POPC   D2A60448  31.460  20.884   6.524
 4627POPC   C3A60449  31.300  20.772   6.920
 4627POPC   C4A60450  31.506  20.939   7.270
 4627POPC   C1B60451  31.757  20.175   6.273
 4627POPC   C2B60452  31.569  20.365   6.661
 4627POPC   C3B60453  31.650  20.441   7.116
 4627POPC   C4B60454  31.435  20.319   7.470
 4628POPC   NC360455  41.346  35.831   5.473
 4628POPC   PO460456  41.662  36.326   5.320
 4628POPC   GL160457  41.636  36.146   5.768
 4628POPC   GL260458  41.433  36.395   5.811
 4628POPC   C1A60459  41.630  36.154   6.266
 4628POPC   D2A60460  41.851  36.209   6.693
 4628POPC   C3A60461  41.568  36.075   7.035
 4628POPC   C4A60462  41.176  35.899   7.130
 4628POPC   C1B60463  41.749  36.599   6.064
 4628POPC   C2B60464  41.691  36.666   6.506
 4628POPC   C3B60465  41.553  36.609   6.929
 4628POPC   C4B60466  41.725  36.480   7.294
 4629POPC   NC360467  42.256  13.911   5.394
 4629POPC   PO460468  41.898  13.329   5.281
 4629POPC   GL160469  42.101  13.498   5.697
 4629POPC   GL260470  42.431  13.709   5.817
 4629POPC   C1A60471  42.027  13.712   6.113
 4629POPC   D2A60472  42.298  13.733   6.459
 4629POPC   C3A60473  42.208  13.793   6.889
 4629POPC   C4A60474  42.498  13.637   7.219
 4629POPC   C1B60475  42.718  13.866   6.156
 4629POPC   C2B60476  42.675  14.045   6.584
 4629POPC   C3B60477  42.817  13.950   7.001
 4629POPC   C4B60478  42.664  14.058   7.423
 4630POPC   NC360479   3.191   0.931   5.506
 4630POPC   PO460480   3.659   0.451   5.545
 4630POPC   GL160481   3.592   0.722   5.883
 4630POPC   GL260482   3.273   0.600   5.967
 4630POPC   C1A60483   3.695   0.628   6.322
 4630POPC   D2A60484   3.707   0.523   6.762
 4630POPC   C3A60485   3.520   0.756   7.131
 4630POPC   C4A60486   3.543   0.727   7.607
 4630POPC   C1B60487   3.382   0.220   6.266
 4630POPC   C2B60488   3.323   0.134   6.695
 4630POPC   C3B60489   3.487   0.211   7.082
 4630POPC   C4B60490   3.278   0.344   7.383
 4631POPC   NC360491  41.940  35.611   5.063
 4631POPC   PO460492  41.384  35.385   5.359
 4631POPC   GL160493  41.640  35.244   5.695
 4631POPC   GL260494  41.776  35.595   5.677
 4631POPC   C1A60495  41.474  35.052   6.098
 4631POPC   D2A60496  41.212  34.967   6.495
 4631POPC   C3A60497  41.448  35.034   6.894
 4631POPC   C4A60498  41.600  35.154   7.328
 4631POPC   C1B60499  41.512  35.597   6.076
 4631POPC   C2B60500  41.445  35.428   6.513
 4631POPC   C3B60501  41.502  35.534   6.971
 4631POPC   C4B60502  41.837  35.656   7.246
 4632POPC   NC360503  25.783  18.700   5.520
 4632POPC   PO460504  25.899  19.299   5.389
 4632POPC   GL160505  26.071  19.099   5.788
 4632POPC   GL260506  26.177  18.767   5.841
 4632POPC   C1A60507  25.976  18.972   6.248
 4632POPC   D2A60508  26.059  18.691   6.603
 4632POPC   C3A60509  25.852  18.822   6.928
 4632POPC   C4A60510  25.951  19.169   7.122
 4632POPC   C1B60511  26.275  18.547   6.183
 4632POPC   C2B60512  26.572  18.565   6.521
 4632POPC   C3B60513  26.495  18.768   6.907
 4632POPC   C4B60514  26.232  18.736   7.264
 4633POPC   NC360515   3.860  35.864   5.378
 4633POPC   PO460516   4.438  36.231   5.284
 4633POPC   GL160517   4.347  36.161   5.696
 4633POPC   GL260518   4.612  36.374   5.795
 4633POPC   C1A60519   4.306  35.888   6.082
 4633POPC   D2A60520   4.105  35.959   6.493
 4633POPC   C3A60521   4.332  36.092   6.859
 4633POPC   C4A60522   4.216  36.412   7.167
 4633POPC   C1B60523   4.332  36.412   6.160
 4633POPC   C2B60524   4.420  36.525   6.569
 4633POPC   C3B60525   4.662  36.484   6.926
 4633POPC   C4B60526   4.650  36.187   7.268
 4634POPC   NC360527  13.482  26.357   5.388
 4634POPC   PO460528  13.451  27.063   5.385
 4634POPC   GL160529  13.658  26.771   5.667
 4634POPC   GL260530  13.339  26.650   5.772
 4634POPC   C1A60531  13.745  26.632   6.118
 4634POPC   D2A60532  13.949  26.677   6.510
 4634POPC   C3A60533  13.874  26.915   6.876
 4634POPC   C4A60534  13.767  26.697   7.242
 4634POPC   C1B60535  13.429  27.024   6.057
 4634POPC   C2B60536  13.574  27.041   6.473
 4634POPC   C3B60537  13.353  26.939   6.853
 4634POPC   C4B60538  13.305  27.003   7.272
 4635POPC   NC360539   7.095  26.393   5.081
 4635POPC   PO460540   7.380  26.067   5.278
 4635POPC   GL160541   7.362  26.057   5.734
 4635POPC   GL260542   7.132  25.845   5.869
 4635POPC   C1A60543   7.524  26.104   6.177
 4635POPC   D2A60544   7.768  26.261   6.522
 4635POPC   C3A60545   7.677  26.211   6.956
 4635POPC   C4A60546   7.428  26.355   7.306
 4635POPC   C1B60547   7.172  25.748   6.292
 4635POPC   C2B60548   7.249  25.993   6.624
 4635POPC   C3B60549   7.278  25.922   7.031
 4635POPC   C4B60550   7.089  25.975   7.414
 4636POPC   NC360551  33.408  23.862   5.630
 4636POPC   PO460552  34.030  23.662   5.459
 4636POPC   GL160553  33.830  23.593   5.855
 4636POPC   GL260554  33.856  23.251   5.932
 4636POPC   C1A60555  33.799  23.686   6.324
 4636POPC   D2A60556  33.854  24.040   6.623
 4636POPC   C3A60557  33.782  23.982   7.039
 4636POPC   C4A60558  33.641  23.716   7.335
 4636POPC   C1B60559  34.224  23.426   6.144
 4636POPC   C2B60560  34.301  23.584   6.583
 4636POPC   C3B60561  33.942  23.540   6.868
 4636POPC   C4B60562  33.691  23.241   7.120
 4637POPC   NC360563  32.352  10.505   5.384
 4637POPC   PO460564  31.657  10.379   5.334
 4637POPC   GL160565  31.939  10.529   5.709
 4637POPC   GL260566  32.020  10.256   5.820
 4637POPC   C1A60567  32.145  10.575   6.178
 4637POPC   D2A60568  32.272  10.795   6.585
 4637POPC   C3A60569  32.122  10.591   6.987
 4637POPC   C4A60570  32.047  10.707   7.443
 4637POPC   C1B60571  31.813  10.156   6.216
 4637POPC   C2B60572  31.722  10.331   6.651
 4637POPC   C3B60573  31.907  10.092   7.000
 4637POPC   C4B60574  32.307  10.105   7.184
 4638POPC   NC360575  26.752  17.573   5.270
 4638POPC   PO460576  27.243  17.224   5.320
 4638POPC   GL160577  27.049  17.489   5.691
 4638POPC   GL260578  26.706  17.439   5.839
 4638POPC   C1A60579  27.072  17.563   6.169
 4638POPC   D2A60580  26.750  17.495   6.504
 4638POPC   C3A60581  26.843  17.666   6.921
 4638POPC   C4A60582  27.199  17.860   7.150
 4638POPC   C1B60583  26.551  17.136   6.175
 4638POPC   C2B60584  26.471  17.045   6.650
 4638POPC   C3B60585  26.509  17.213   7.110
 4638POPC   C4B60586  26.624  17.139   7.590
 4639POPC   NC360587  44.690   5.441   5.506
 4639POPC   PO460588  44.969   6.005   5.545
 4639POPC   GL160589   0.013   5.906   5.946
 4639POPC   GL260590  44.993   5.580   5.889
 4639POPC   C1A60591  44.850   5.939   6.353
 4639POPC   D2A60592  44.717   6.172   6.713
 4639POPC   C3A60593  44.744   5.936   7.070
 4639POPC   C4A60594  44.472   5.594   7.188
 4639POPC   C1B60595  44.716   5.431   6.202
 4639POPC   C2B60596  44.854   5.498   6.610
 4639POPC   C3B60597  44.903   5.401   7.006
 4639POPC   C4B60598  44.930   5.573   7.411
 4640POPC   NC360599  30.269  33.612   5.354
 4640POPC   PO460600  29.750  33.991   5.315
 4640POPC   GL160601  29.899  34.030   5.720
 4640POPC   GL260602  30.000  33.694   5.801
 4640POPC   C1A60603  29.793  33.985   6.166
 4640POPC   D2A60604  29.956  33.702   6.461
 4640POPC   C3A60605  29.881  33.903   6.810
 4640POPC   C4A60606  30.079  34.059   7.173
 4640POPC   C1B60607  30.146  33.360   6.077
 4640POPC   C2B60608  30.095  33.189   6.469
 4640POPC   C3B60609  30.103  33.361   6.850
 4640POPC   C4B60610  29.942  33.569   7.182
 4641POPC   NC360611  14.600  15.047   5.322
 4641POPC   PO460612  14.239  15.525   5.431
 4641POPC   GL160613  14.351  15.214   5.764
 4641POPC   GL260614  14.210  14.899   5.653
 4641POPC   C1A60615  14.612  15.002   6.122
 4641POPC   D2A60616  14.704  14.861   6.590
 4641POPC   C3A60617  14.601  15.060   7.024
 4641POPC   C4A60618  14.901  15.043   7.390
 4641POPC   C1B60619  14.156  14.814   6.083
 4641POPC   C2B60620  14.203  15.082   6.455
 4641POPC   C3B60621  14.074  15.140   6.892
 4641POPC   C4B60622  14.191  15.322   7.281
 4642POPC   NC360623  33.661  42.730   5.488
 4642POPC   PO460624  34.014  43.343   5.481
 4642POPC   GL160625  33.964  43.056   5.785
 4642POPC   GL260626  33.601  43.107   5.822
 4642POPC   C1A60627  34.045  42.968   6.222
 4642POPC   D2A60628  33.773  43.033   6.578
 4642POPC   C3A60629  33.953  43.165   6.955
 4642POPC   C4A60630  34.193  42.998   7.289
 4642POPC   C1B60631  33.478  42.871   6.179
 4642POPC   C2B60632  33.306  42.777   6.585
 4642POPC   C3B60633  33.401  42.972   6.949
 4642POPC   C4B60634  33.667  42.843   7.252
 4643POPC   NC360635   0.879  32.338   5.604
 4643POPC   PO460636   1.556  32.143   5.486
 4643POPC   GL160637   1.338  32.172   5.807
 4643POPC   GL260638   1.092  31.881   5.813
 4643POPC   C1A60639   1.556  32.407   6.139
 4643POPC   D2A60640   1.660  32.456   6.552
 4643POPC   C3A60641   1.316  32.262   6.765
 4643POPC   C4A60642   1.285  32.256   7.194
 4643POPC   C1B60643   1.150  32.057   6.261
 4643POPC   C2B60644   0.900  31.971   6.646
 4643POPC   C3B60645   0.995  31.879   7.066
 4643POPC   C4B60646   1.160  31.861   7.506
 4644POPC   NC360647   1.337  35.342   5.424
 4644POPC   PO460648   0.692  35.286   5.420
 4644POPC   GL160649   0.974  35.472   5.800
 4644POPC   GL260650   1.364  35.435   5.902
 4644POPC   C1A60651   1.101  35.642   6.240
 4644POPC   D2A60652   1.307  35.694   6.610
 4644POPC   C3A60653   1.314  35.322   6.853
 4644POPC   C4A60654   1.121  35.188   7.275
 4644POPC   C1B60655   1.575  35.364   6.303
 4644POPC   C2B60656   1.799  35.544   6.670
 4644POPC   C3B60657   1.744  35.495   7.112
 4644POPC   C4B60658   1.609  35.093   7.222
 4645POPC   NC360659  24.038   5.726   5.430
 4645POPC   PO460660  23.531   6.182   5.166
 4645POPC   GL160661  23.471   5.995   5.627
 4645POPC   GL260662  23.778   6.015   5.766
 4645POPC   C1A60663  23.418   5.925   6.129
 4645POPC   D2A60664  23.647   5.820   6.554
 4645POPC   C3A60665  23.392   5.916   6.949
 4645POPC   C4A60666  23.470   5.848   7.408
 4645POPC   C1B60667  23.887   6.125   6.155
 4645POPC   C2B60668  24.003   6.214   6.553
 4645POPC   C3B60669  23.887   6.117   6.954
 4645POPC   C4B60670  23.945   6.029   7.359
 4646POPC   NC360671  12.300   8.933   5.477
 4646POPC   PO460672  11.693   9.188   5.469
 4646POPC   GL160673  11.967   9.163   5.804
 4646POPC   GL260674  11.959   8.818   5.857
 4646POPC   C1A60675  12.075   9.185   6.230
 4646POPC   D2A60676  11.891   9.271   6.600
 4646POPC   C3A60677  12.094   9.075   6.954
 4646POPC   C4A60678  12.309   9.053   7.337
 4646POPC   C1B60679  11.963   8.648   6.254
 4646POPC   C2B60680  11.819   8.753   6.670
 4646POPC   C3B60681  11.709   8.741   7.106
 4646POPC   C4B60682  11.920   8.774   7.519
 4647POPC   NC360683  30.178  26.403   5.453
 4647POPC   PO460684  29.670  25.905   5.457
 4647POPC   GL160685  29.917  26.025   5.817
 4647POPC   GL260686  29.912  26.371   5.881
 4647POPC   C1A60687  29.854  25.953   6.256
 4647POPC   D2A60688  29.671  25.671   6.544
 4647POPC   C3A60689  29.550  25.837   6.946
 4647POPC   C4A60690  29.815  26.036   7.266
 4647POPC   C1B60691  30.158  26.379   6.232
 4647POPC   C2B60692  30.114  26.185   6.641
 4647POPC   C3B60693  30.121  26.371   7.037
 4647POPC   C4B60694  30.469  26.424   7.282
 4648POPC   NC360695   8.114   8.757   5.488
 4648POPC   PO460696   8.437   9.353   5.461
 4648POPC   GL160697   8.337   9.088   5.814
 4648POPC   GL260698   8.504   8.772   5.842
 4648POPC   C1A60699   8.290   8.968   6.247
 4648POPC   D2A60700   8.077   8.996   6.631
 4648POPC   C3A60701   8.362   9.083   6.967
 4648POPC   C4A60702   8.261   9.130   7.413
 4648POPC   C1B60703   8.443   8.464   6.162
 4648POPC   C2B60704   8.178   8.511   6.503
 4648POPC   C3B60705   8.252   8.580   6.931
 4648POPC   C4B60706   8.147   8.582   7.362
 4649POPC   NC360707  34.113  15.304   5.427
 4649POPC   PO460708  33.671  14.828   5.215
 4649POPC   GL160709  33.817  14.914   5.686
 4649POPC   GL260710  33.672  15.238   5.758
 4649POPC   C1A60711  33.970  15.102   6.145
 4649POPC   D2A60712  34.028  15.327   6.567
 4649POPC   C3A60713  34.089  15.038   6.967
 4649POPC   C4A60714  34.089  15.211   7.414
 4649POPC   C1B60715  33.513  14.917   6.115
 4649POPC   C2B60716  33.643  15.000   6.553
 4649POPC   C3B60717  33.658  15.293   6.903
 4649POPC   C4B60718  33.635  15.056   7.248
 4650POPC   NC360719  22.191   6.403   5.505
 4650POPC   PO460720  21.703   6.923   5.473
 4650POPC   GL160721  22.042   6.831   5.754
 4650POPC   GL260722  22.405   6.925   5.712
 4650POPC   C1A60723  22.076   6.584   6.133
 4650POPC   D2A60724  22.217   6.492   6.544
 4650POPC   C3A60725  22.077   6.409   6.942
 4650POPC   C4A60726  22.252   6.514   7.305
 4650POPC   C1B60727  22.564   6.733   6.102
 4650POPC   C2B60728  22.697   6.660   6.529
 4650POPC   C3B60729  22.604   6.737   6.973
 4650POPC   C4B60730  22.746   6.573   7.406
 4651POPC   NC360731   1.416  20.773   5.379
 4651POPC   PO460732   0.831  20.510   5.352
 4651POPC   GL160733   1.086  20.593   5.729
 4651POPC   GL260734   1.065  20.945   5.778
 4651POPC   C1A60735   1.142  20.440   6.141
 4651POPC   D2A60736   0.986  20.248   6.508
 4651POPC   C3A60737   1.070  20.443   6.932
 4651POPC   C4A60738   1.439  20.527   7.177
 4651POPC   C1B60739   1.221  20.939   6.220
 4651POPC   C2B60740   1.287  20.802   6.640
 4651POPC   C3B60741   1.253  20.995   7.056
 4651POPC   C4B60742   1.399  20.931   7.503
 4652POPC   NC360743  37.335   8.059   5.462
 4652POPC   PO460744  37.729   8.596   5.410
 4652POPC   GL160745  37.764   8.376   5.781
 4652POPC   GL260746  37.803   8.017   5.741
 4652POPC   C1A60747  37.969   8.360   6.170
 4652POPC   D2A60748  37.764   8.298   6.543
 4652POPC   C3A60749  37.960   8.328   6.928
 4652POPC   C4A60750  37.746   8.351   7.308
 4652POPC   C1B60751  37.552   8.026   6.121
 4652POPC   C2B60752  37.554   7.836   6.512
 4652POPC   C3B60753  37.516   8.032   6.910
 4652POPC   C4B60754  37.485   7.926   7.318
 4653POPC   NC360755  42.772  19.128   5.131
 4653POPC   PO460756  43.443  19.031   5.351
 4653POPC   GL160757  43.052  18.980   5.596
 4653POPC   GL260758  42.948  19.286   5.753
 4653POPC   C1A60759  43.006  18.882   6.059
 4653POPC   D2A60760  43.184  18.983   6.469
 4653POPC   C3A60761  42.985  18.978   6.876
 4653POPC   C4A60762  43.108  18.902   7.285
 4653POPC   C1B60763  43.110  19.413   6.164
 4653POPC   C2B60764  43.404  19.448   6.522
 4653POPC   C3B60765  43.340  19.368   6.959
 4653POPC   C4B60766  42.955  19.432   7.139
 4654POPC   NC360767  22.776  25.822   5.472
 4654POPC   PO460768  22.846  26.496   5.571
 4654POPC   GL160769  22.910  26.169   5.886
 4654POPC   GL260770  23.050  25.821   5.926
 4654POPC   C1A60771  22.970  26.164   6.323
 4654POPC   D2A60772  22.940  25.947   6.710
 4654POPC   C3A60773  22.934  26.256   6.991
 4654POPC   C4A60774  22.543  26.326   7.126
 4654POPC   C1B60775  23.213  25.683   6.344
 4654POPC   C2B60776  23.412  25.730   6.773
 4654POPC   C3B60777  23.217  25.847   7.196
 4654POPC   C4B60778  22.945  25.636   7.568
 4655POPC   NC360779  32.205  19.091   5.264
 4655POPC   PO460780  31.718  19.057   5.752
 4655POPC   GL160781  32.042  18.924   5.976
 4655POPC   GL260782  32.291  18.845   5.734
 4655POPC   C1A60783  32.112  18.881   6.438
 4655POPC   D2A60784  32.068  18.820   6.910
 4655POPC   C3A60785  31.954  19.140   7.249
 4655POPC   C4A60786  32.082  19.301   7.691
 4655POPC   C1B60787  32.533  18.949   6.126
 4655POPC   C2B60788  32.649  18.949   6.579
 4655POPC   C3B60789  32.563  18.856   7.031
 4655POPC   C4B60790  32.464  19.061   7.437
 4656POPC   NC360791   5.970  32.030   5.363
 4656POPC   PO460792   5.950  32.625   5.368
 4656POPC   GL160793   5.935  32.384   5.809
 4656POPC   GL260794   5.694  32.143   5.847
 4656POPC   C1A60795   5.871  32.205   6.311
 4656POPC   D2A60796   6.069  32.066   6.754
 4656POPC   C3A60797   5.939  32.195   7.215
 4656POPC   C4A60798   6.099  32.183   7.697
 4656POPC   C1B60799   5.481  31.808   6.161
 4656POPC   C2B60800   5.630  31.823   6.577
 4656POPC   C3B60801   5.579  32.187   6.846
 4656POPC   C4B60802   5.393  32.226   7.242
 4657POPC   NC360803  13.049   7.409   5.403
 4657POPC   PO460804  12.488   7.803   5.353
 4657POPC   GL160805  12.784   7.692   5.728
 4657POPC   GL260806  12.894   7.348   5.898
 4657POPC   C1A60807  12.844   7.761   6.166
 4657POPC   D2A60808  12.640   7.765   6.556
 4657POPC   C3A60809  12.814   7.498   6.877
 4657POPC   C4A60810  12.832   7.617   7.260
 4657POPC   C1B60811  12.869   7.307   6.390
 4657POPC   C2B60812  13.161   7.158   6.721
 4657POPC   C3B60813  13.112   7.125   7.187
 4657POPC   C4B60814  12.928   7.276   7.599
 4658POPC   NC360815  18.032   6.470   5.142
 4658POPC   PO460816  18.355   7.017   5.298
 4658POPC   GL160817  18.378   6.854   5.711
 4658POPC   GL260818  18.060   6.923   5.885
 4658POPC   C1A60819  18.544   6.701   6.098
 4658POPC   D2A60820  18.501   6.923   6.523
 4658POPC   C3A60821  18.467   6.649   6.877
 4658POPC   C4A60822  18.390   6.698   7.305
 4658POPC   C1B60823  18.086   6.687   6.295
 4658POPC   C2B60824  18.171   6.359   6.601
 4658POPC   C3B60825  17.979   6.408   7.012
 4658POPC   C4B60826  17.903   6.808   7.221
 4659POPC   NC360827  36.284  12.232   5.437
 4659POPC   PO460828  35.684  12.097   5.191
 4659POPC   GL160829  35.908  11.991   5.690
 4659POPC   GL260830  36.292  11.944   5.835
 4659POPC   C1A60831  35.947  12.096   6.169
 4659POPC   D2A60832  36.063  11.940   6.540
 4659POPC   C3A60833  35.899  11.942   6.920
 4659POPC   C4A60834  36.037  12.302   7.175
 4659POPC   C1B60835  36.512  11.973   6.230
 4659POPC   C2B60836  36.517  11.749   6.606
 4659POPC   C3B60837  36.424  12.039   6.905
 4659POPC   C4B60838  36.466  12.076   7.316
 4660POPC   NC360839  39.795   5.414   5.332
 4660POPC   PO460840  40.135   4.776   5.415
 4660POPC   GL160841  39.921   5.060   5.728
 4660POPC   GL260842  40.062   5.396   5.811
 4660POPC   C1A60843  39.966   5.031   6.192
 4660POPC   D2A60844  39.865   4.782   6.588
 4660POPC   C3A60845  39.911   4.952   7.007
 4660POPC   C4A60846  40.317   5.057   7.100
 4660POPC   C1B60847  40.089   5.561   6.244
 4660POPC   C2B60848  40.208   5.513   6.685
 4660POPC   C3B60849  40.226   5.548   7.127
 4660POPC   C4B60850  39.950   5.456   7.461
 4661POPC   NC360851  21.471   8.869   5.448
 4661POPC   PO460852  20.905   9.265   5.436
 4661POPC   GL160853  21.023   9.006   5.813
 4661POPC   GL260854  21.341   8.849   5.915
 4661POPC   C1A60855  20.969   8.951   6.242
 4661POPC   D2A60856  21.158   9.002   6.634
 4661POPC   C3A60857  20.995   8.960   7.067
 4661POPC   C4A60858  21.202   8.774   7.442
 4661POPC   C1B60859  21.313   8.551   6.215
 4661POPC   C2B60860  21.437   8.572   6.627
 4661POPC   C3B60861  21.492   8.797   6.973
 4661POPC   C4B60862  21.791   8.762   7.255
 4662POPC   NC360863  17.262   8.249   5.449
 4662POPC   PO460864  17.817   8.645   5.452
 4662POPC   GL160865  17.813   8.381   5.810
 4662POPC   GL260866  17.495   8.332   5.878
 4662POPC   C1A60867  17.816   8.228   6.258
 4662POPC   D2A60868  17.526   8.333   6.592
 4662POPC   C3A60869  17.638   8.147   7.002
 4662POPC   C4A60870  17.559   8.349   7.392
 4662POPC   C1B60871  17.172   8.440   6.175
 4662POPC   C2B60872  17.001   8.250   6.553
 4662POPC   C3B60873  17.156   8.299   6.973
 4662POPC   C4B60874  17.065   8.495   7.348
 4663POPC   NC360875  33.279  29.262   4.885
 4663POPC   PO460876  32.702  29.241   5.333
 4663POPC   GL160877  32.850  29.109   5.795
 4663POPC   GL260878  32.750  28.822   6.012
 4663POPC   C1A60879  33.177  29.067   6.119
 4663POPC   D2A60880  32.970  28.886   6.491
 4663POPC   C3A60881  33.035  29.060   6.891
 4663POPC   C4A60882  33.199  29.175   7.274
 4663POPC   C1B60883  32.753  29.301   6.253
 4663POPC   C2B60884  32.695  29.433   6.719
 4663POPC   C3B60885  32.757  29.403   7.215
 4663POPC   C4B60886  32.834  29.561   7.671
 4664POPC   NC360887  14.530  17.705   5.327
 4664POPC   PO460888  14.626  17.044   5.580
 4664POPC   GL160889  14.347  17.177   5.908
 4664POPC   GL260890  14.327  17.497   5.812
 4664POPC   C1A60891  14.336  17.173   6.351
 4664POPC   D2A60892  14.676  17.183   6.621
 4664POPC   C3A60893  14.516  17.177   7.031
 4664POPC   C4A60894  14.184  17.392   7.257
 4664POPC   C1B60895  14.266  17.654   6.240
 4664POPC   C2B60896  14.338  17.576   6.715
 4664POPC   C3B60897  14.518  17.737   7.124
 4664POPC   C4B60898  14.601  18.027   7.469
 4665POPC   NC360899  23.606  27.816   5.498
 4665POPC   PO460900  23.706  27.134   5.477
 4665POPC   GL160901  23.658  27.395   5.878
 4665POPC   GL260902  23.516  27.758   5.988
 4665POPC   C1A60903  23.422  27.368   6.277
 4665POPC   D2A60904  23.460  27.672   6.607
 4665POPC   C3A60905  23.420  27.479   7.002
 4665POPC   C4A60906  23.653  27.459   7.368
 4665POPC   C1B60907  23.278  28.079   6.232
 4665POPC   C2B60908  23.381  28.308   6.629
 4665POPC   C3B60909  23.444  28.093   7.051
 4665POPC   C4B60910  23.405  27.873   7.458
 4666POPC   NC360911  16.143  28.192   5.314
 4666POPC   PO460912  15.786  28.794   5.350
 4666POPC   GL160913  15.650  28.507   5.669
 4666POPC   GL260914  15.624  28.123   5.743
 4666POPC   C1A60915  15.946  28.483   5.999
 4666POPC   D2A60916  16.157  28.379   6.393
 4666POPC   C3A60917  15.915  28.267   6.753
 4666POPC   C4A60918  16.071  28.388   7.145
 4666POPC   C1B60919  15.682  28.121   6.232
 4666POPC   C2B60920  15.584  27.900   6.625
 4666POPC   C3B60921  15.528  28.090   7.078
 4666POPC   C4B60922  15.716  28.278   7.496
 4667POPC   NC360923  26.939   1.655   5.525
 4667POPC   PO460924  26.713   1.006   5.421
 4667POPC   GL160925  26.734   1.240   5.797
 4667POPC   GL260926  26.478   1.461   5.790
 4667POPC   C1A60927  26.873   1.371   6.223
 4667POPC   D2A60928  26.709   1.245   6.645
 4667POPC   C3A60929  26.950   1.289   7.026
 4667POPC   C4A60930  27.181   0.957   7.253
 4667POPC   C1B60931  26.373   1.444   6.201
 4667POPC   C2B60932  26.480   1.684   6.576
 4667POPC   C3B60933  26.326   1.614   6.968
 4667POPC   C4B60934  26.545   1.491   7.314
 4668POPC   NC360935  20.398  36.925   5.256
 4668POPC   PO460936  19.636  36.912   5.233
 4668POPC   GL160937  19.709  36.895   5.649
 4668POPC   GL260938  20.035  36.773   5.585
 4668POPC   C1A60939  19.666  37.080   6.065
 4668POPC   D2A60940  19.557  37.154   6.489
 4668POPC   C3A60941  19.655  36.818   6.751
 4668POPC   C4A60942  19.747  36.937   7.144
 4668POPC   C1B60943  20.142  36.794   6.036
 4668POPC   C2B60944  20.074  37.006   6.418
 4668POPC   C3B60945  20.163  37.057   6.846
 4668POPC   C4B60946  20.302  36.939   7.251
 4669POPC   NC360947  31.363  12.006   5.353
 4669POPC   PO460948  31.979  11.991   5.556
 4669POPC   GL160949  31.599  12.050   5.825
 4669POPC   GL260950  31.365  11.767   5.825
 4669POPC   C1A60951  31.519  12.065   6.283
 4669POPC   D2A60952  31.354  12.282   6.652
 4669POPC   C3A60953  31.558  12.289   7.068
 4669POPC   C4A60954  31.831  12.407   7.448
 4669POPC   C1B60955  31.184  11.581   6.192
 4669POPC   C2B60956  31.207  11.760   6.597
 4669POPC   C3B60957  31.358  11.819   6.988
 4669POPC   C4B60958  31.411  11.939   7.394
 4670POPC   NC360959   2.151  34.897   5.447
 4670POPC   PO460960   1.810  34.238   5.382
 4670POPC   GL160961   1.953  34.519   5.704
 4670POPC   GL260962   1.688  34.634   5.901
 4670POPC   C1A60963   2.163  34.580   6.094
 4670POPC   D2A60964   1.936  34.621   6.472
 4670POPC   C3A60965   2.235  34.607   6.790
 4670POPC   C4A60966   2.163  34.647   7.208
 4670POPC   C1B60967   1.512  34.869   6.218
 4670POPC   C2B60968   1.622  34.971   6.649
 4670POPC   C3B60969   1.709  34.650   6.990
 4670POPC   C4B60970   1.742  34.669   7.468
 4671POPC   NC360971   0.376  14.126   5.228
 4671POPC   PO460972   0.780  14.718   5.355
 4671POPC   GL160973   0.640  14.568   5.805
 4671POPC   GL260974   0.334  14.360   5.740
 4671POPC   C1A60975   0.666  14.658   6.264
 4671POPC   D2A60976   0.772  14.520   6.719
 4671POPC   C3A60977   0.438  14.592   7.049
 4671POPC   C4A60978   0.136  14.861   7.255
 4671POPC   C1B60979   0.188  14.466   6.130
 4671POPC   C2B60980   0.078  14.307   6.521
 4671POPC   C3B60981   0.223  14.139   6.903
 4671POPC   C4B60982   0.212  13.944   7.309
 4672POPC   NC360983  39.733  43.773   5.067
 4672POPC   PO460984  39.123  43.741   5.421
 4672POPC   GL160985  39.178  43.875   5.824
 4672POPC   GL260986  39.348  44.157   5.704
 4672POPC   C1A60987  39.281  43.853   6.248
 4672POPC   D2A60988  38.987  43.877   6.573
 4672POPC   C3A60989  39.167  43.952   6.946
 4672POPC   C4A60990  39.304  43.682   7.267
 4672POPC   C1B60991  39.450  44.322   6.101
 4672POPC   C2B60992  39.421  44.251   6.555
 4672POPC   C3B60993  39.607  44.230   6.979
 4672POPC   C4B60994  39.369  44.227   7.323
 4673POPC   NC360995  23.184   0.468   5.156
 4673POPC   PO460996  22.710   0.113   5.488
 4673POPC   GL160997  23.054   0.246   5.782
 4673POPC   GL260998  22.790   0.218   6.009
 4673POPC   C1A60999  23.228   0.433   6.218
 4673POPC   D2A61000  23.273   0.655   6.644
 4673POPC   C3A61001  23.048   0.422   6.999
 4673POPC   C4A61002  23.280   0.090   7.265
 4673POPC   C1B61003  22.770   0.320   6.440
 4673POPC   C2B61004  22.766   0.697   6.636
 4673POPC   C3B61005  22.607   0.833   6.968
 4673POPC   C4B61006  22.680   0.650   7.315
 4674POPC   NC361007   4.575  35.778   5.384
 4674POPC   PO461008   5.177  36.137   5.230
 4674POPC   GL161009   5.296  36.261   5.666
 4674POPC   GL261010   5.389  35.934   5.769
 4674POPC   C1A61011   5.071  36.216   6.100
 4674POPC   D2A61012   4.712  36.123   6.412
 4674POPC   C3A61013   4.848  35.981   6.829
 4674POPC   C4A61014   5.108  35.993   7.209
 4674POPC   C1B61015   5.399  35.726   6.153
 4674POPC   C2B61016   5.213  35.720   6.541
 4674POPC   C3B61017   5.271  35.605   6.943
 4674POPC   C4B61018   5.523  35.677   7.310
 4675POPC   NC361019  30.886  25.703   5.358
 4675POPC   PO461020  30.423  25.248   5.472
 4675POPC   GL161021  30.825  25.190   5.691
 4675POPC   GL261022  30.892  25.522   5.823
 4675POPC   C1A61023  30.788  25.126   6.155
 4675POPC   D2A61024  30.465  25.218   6.476
 4675POPC   C3A61025  30.636  25.117   6.875
 4675POPC   C4A61026  30.895  25.073   7.225
 4675POPC   C1B61027  30.842  25.621   6.225
 4675POPC   C2B61028  30.929  25.411   6.590
 4675POPC   C3B61029  30.837  25.594   6.974
 4675POPC   C4B61030  30.515  25.494   7.200
 4676POPC   NC361031   5.067  11.563   5.273
 4676POPC   PO461032   5.587  11.188   5.461
 4676POPC   GL161033   5.401  11.394   5.818
 4676POPC   GL261034   5.036  11.386   5.799
 4676POPC   C1A61035   5.334  11.305   6.266
 4676POPC   D2A61036   5.208  11.395   6.711
 4676POPC   C3A61037   5.449  11.222   7.076
 4676POPC   C4A61038   5.555  11.177   7.555
 4676POPC   C1B61039   4.832  11.362   6.206
 4676POPC   C2B61040   4.747  11.181   6.618
 4676POPC   C3B61041   4.839  11.117   7.057
 4676POPC   C4B61042   5.047  11.106   7.454
 4677POPC   NC361043  35.604  42.744   5.463
 4677POPC   PO461044  36.096  43.139   5.720
 4677POPC   GL161045  36.360  43.077   6.027
 4677POPC   GL261046  36.364  42.722   6.013
 4677POPC   C1A61047  36.365  43.129   6.409
 4677POPC   D2A61048  36.111  43.304   6.675
 4677POPC   C3A61049  36.356  43.337   7.000
 4677POPC   C4A61050  36.141  43.370   7.349
 4677POPC   C1B61051  36.486  42.641   6.421
 4677POPC   C2B61052  36.344  42.821   6.823
 4677POPC   C3B61053  36.220  42.869   7.241
 4677POPC   C4B61054  36.379  42.677   7.635
 4678POPC   NC361055  41.395  32.961   5.463
 4678POPC   PO461056  41.697  33.610   5.500
 4678POPC   GL161057  41.638  33.253   5.812
 4678POPC   GL261058  41.942  33.067   5.752
 4678POPC   C1A61059  41.352  33.033   6.146
 4678POPC   D2A61060  41.161  33.180   6.542
 4678POPC   C3A61061  41.378  33.210   6.933
 4678POPC   C4A61062  41.402  32.936   7.249
 4678POPC   C1B61063  41.851  32.938   6.175
 4678POPC   C2B61064  41.652  32.965   6.578
 4678POPC   C3B61065  41.848  32.909   7.005
 4678POPC   C4B61066  41.859  32.721   7.455
 4679POPC   NC361067  26.229  39.489   5.343
 4679POPC   PO461068  25.633  39.185   5.269
 4679POPC   GL161069  25.762  39.193   5.694
 4679POPC   GL261070  25.639  38.865   5.741
 4679POPC   C1A61071  26.121  39.243   6.012
 4679POPC   D2A61072  26.324  39.175   6.437
 4679POPC   C3A61073  26.120  39.362   6.806
 4679POPC   C4A61074  26.092  39.253   7.236
 4679POPC   C1B61075  25.822  38.857   6.136
 4679POPC   C2B61076  25.803  39.065   6.503
 4679POPC   C3B61077  25.813  38.908   6.908
 4679POPC   C4B61078  25.731  38.922   7.335
 4680POPC   NC361079  23.865  41.260   5.360
 4680POPC   PO461080  23.499  41.809   5.368
 4680POPC   GL161081  23.619  41.731   5.801
 4680POPC   GL261082  23.834  41.430   5.850
 4680POPC   C1A61083  23.502  41.617   6.234
 4680POPC   D2A61084  23.566  41.512   6.682
 4680POPC   C3A61085  23.640  41.818   7.045
 4680POPC   C4A61086  24.041  41.914   7.223
 4680POPC   C1B61087  24.031  41.707   6.178
 4680POPC   C2B61088  24.053  41.767   6.662
 4680POPC   C3B61089  23.996  41.451   6.991
 4680POPC   C4B61090  24.024  41.438   7.425
 4681POPC   NC361091  28.066  24.458   5.619
 4681POPC   PO461092  28.532  24.903   5.625
 4681POPC   GL161093  28.488  24.546   5.913
 4681POPC   GL261094  28.756  24.298   5.970
 4681POPC   C1A61095  28.334  24.549   6.317
 4681POPC   D2A61096  28.505  24.703   6.707
 4681POPC   C3A61097  28.273  24.666   7.078
 4681POPC   C4A61098  28.418  24.621   7.540
 4681POPC   C1B61099  28.646  24.156   6.417
 4681POPC   C2B61100  28.357  24.216   6.774
 4681POPC   C3B61101  28.378  24.202   7.221
 4681POPC   C4B61102  28.627  24.140   7.582
 4682POPC   NC361103  24.512  30.103   5.260
 4682POPC   PO461104  24.530  29.525   5.505
 4682POPC   GL161105  24.370  29.821   5.808
 4682POPC   GL261106  24.500  30.151   5.782
 4682POPC   C1A61107  24.486  29.890   6.246
 4682POPC   D2A61108  24.609  29.698   6.625
 4682POPC   C3A61109  24.433  29.764   7.022
 4682POPC   C4A61110  24.756  29.720   7.305
 4682POPC   C1B61111  24.739  30.317   6.153
 4682POPC   C2B61112  24.800  30.200   6.632
 4682POPC   C3B61113  24.707  30.208   7.114
 4682POPC   C4B61114  24.777  30.278   7.617
 4683POPC   NC361115   6.201  27.316   5.592
 4683POPC   PO461116   6.071  27.930   5.457
 4683POPC   GL161117   5.851  27.748   5.840
 4683POPC   GL261118   5.669  27.441   5.780
 4683POPC   C1A61119   5.870  27.611   6.291
 4683POPC   D2A61120   5.737  27.784   6.709
 4683POPC   C3A61121   5.923  27.675   7.101
 4683POPC   C4A61122   5.801  27.993   7.394
 4683POPC   C1B61123   5.424  27.373   6.166
 4683POPC   C2B61124   5.540  27.328   6.606
 4683POPC   C3B61125   5.454  27.467   7.038
 4683POPC   C4B61126   5.634  27.399   7.442
 4684POPC   NC361127   6.306  17.573   5.589
 4684POPC   PO461128   6.934  17.603   5.541
 4684POPC   GL161129   6.739  17.470   5.868
 4684POPC   GL261130   6.582  17.157   5.801
 4684POPC   C1A61131   6.724  17.440   6.286
 4684POPC   D2A61132   6.772  17.703   6.632
 4684POPC   C3A61133   6.781  17.504   7.024
 4684POPC   C4A61134   6.807  17.839   7.296
 4684POPC   C1B61135   6.287  17.202   6.159
 4684POPC   C2B61136   6.283  17.455   6.557
 4684POPC   C3B61137   6.264  17.582   6.991
 4684POPC   C4B61138   6.174  17.337   7.365
 4685POPC   NC361139   2.445  36.593   5.458
 4685POPC   PO461140   2.918  37.031   5.433
 4685POPC   GL161141   2.864  36.743   5.784
 4685POPC   GL261142   2.553  36.898   5.861
 4685POPC   C1A61143   3.030  36.699   6.224
 4685POPC   D2A61144   2.963  37.066   6.500
 4685POPC   C3A61145   2.962  37.038   6.944
 4685POPC   C4A61146   2.674  37.182   7.265
 4685POPC   C1B61147   2.517  36.699   6.256
 4685POPC   C2B61148   2.699  36.627   6.664
 4685POPC   C3B61149   2.572  36.707   7.094
 4685POPC   C4B61150   2.633  36.785   7.550
 4686POPC   NC361151  27.161  32.565   5.479
 4686POPC   PO461152  26.617  32.952   5.370
 4686POPC   GL161153  26.621  33.035   5.816
 4686POPC   GL261154  26.961  32.902   5.812
 4686POPC   C1A61155  26.794  33.184   6.212
 4686POPC   D2A61156  26.790  33.400   6.592
 4686POPC   C3A61157  27.096  33.377   6.912
 4686POPC   C4A61158  26.944  33.258   7.299
 4686POPC   C1B61159  26.848  32.676   6.153
 4686POPC   C2B61160  26.894  32.684   6.560
 4686POPC   C3B61161  26.801  32.950   6.885
 4686POPC   C4B61162  26.773  32.796   7.269
 4687POPC   NC361163  22.280   9.469   5.581
 4687POPC   PO461164  21.881   8.965   5.278
 4687POPC   GL161165  21.798   9.085   5.779
 4687POPC   GL261166  22.015   9.277   5.997
 4687POPC   C1A61167  21.689   9.004   6.271
 4687POPC   D2A61168  21.915   8.810   6.637
 4687POPC   C3A61169  22.071   9.078   6.991
 4687POPC   C4A61170  22.073   9.162   7.484
 4687POPC   C1B61171  22.325   9.119   6.373
 4687POPC   C2B61172  22.565   9.081   6.799
 4687POPC   C3B61173  22.519   9.093   7.261
 4687POPC   C4B61174  22.566   8.977   7.703
 4688POPC   NC361175   4.993  20.146   5.307
 4688POPC   PO461176   5.114  19.496   5.411
 4688POPC   GL161177   4.914  19.731   5.740
 4688POPC   GL261178   5.031  20.085   5.815
 4688POPC   C1A61179   4.938  19.758   6.208
 4688POPC   D2A61180   4.938  19.490   6.562
 4688POPC   C3A61181   5.083  19.689   6.903
 4688POPC   C4A61182   4.921  19.876   7.208
 4688POPC   C1B61183   5.369  20.067   6.147
 4688POPC   C2B61184   5.322  19.992   6.585
 4688POPC   C3B61185   5.325  20.136   7.043
 4688POPC   C4B61186   5.190  20.136   7.532
 4689POPC   NC361187  12.695  31.072   5.247
 4689POPC   PO461188  12.923  31.689   5.406
 4689POPC   GL161189  12.962  31.571   5.887
 4689POPC   GL261190  12.698  31.330   5.854
 4689POPC   C1A61191  13.245  31.455   6.286
 4689POPC   D2A61192  13.278  31.404   6.760
 4689POPC   C3A61193  13.136  31.729   7.101
 4689POPC   C4A61194  13.227  32.027   7.448
 4689POPC   C1B61195  12.739  31.389   6.321
 4689POPC   C2B61196  12.770  31.452   6.795
 4689POPC   C3B61197  12.592  31.715   7.115
 4689POPC   C4B61198  12.740  31.837   7.525
 4690POPC   NC361199  19.996  22.906   5.583
 4690POPC   PO461200  19.278  23.039   5.468
 4690POPC   GL161201  19.425  23.130   5.835
 4690POPC   GL261202  19.519  22.805   5.889
 4690POPC   C1A61203  19.730  23.173   6.187
 4690POPC   D2A61204  19.910  23.351   6.584
 4690POPC   C3A61205  19.886  23.110   6.970
 4690POPC   C4A61206  20.236  22.898   7.137
 4690POPC   C1B61207  19.784  22.638   6.221
 4690POPC   C2B61208  20.041  22.677   6.587
 4690POPC   C3B61209  19.887  22.555   6.948
 4690POPC   C4B61210  19.785  22.713   7.302
 4691POPC   NC361211   6.662  20.826   5.357
 4691POPC   PO461212   6.783  20.176   5.458
 4691POPC   GL161213   6.593  20.438   5.738
 4691POPC   GL261214   6.732  20.757   5.864
 4691POPC   C1A61215   6.628  20.347   6.171
 4691POPC   D2A61216   6.493  20.414   6.591
 4691POPC   C3A61217   6.821  20.481   6.907
 4691POPC   C4A61218   6.676  20.313   7.303
 4691POPC   C1B61219   6.609  20.849   6.301
 4691POPC   C2B61220   6.502  20.926   6.737
 4691POPC   C3B61221   6.542  20.826   7.158
 4691POPC   C4B61222   6.856  20.825   7.472
 4692POPC   NC361223   1.517  36.236   5.569
 4692POPC   PO461224   2.197  36.094   5.526
 4692POPC   GL161225   1.889  35.995   5.829
 4692POPC   GL261226   1.772  36.302   6.006
 4692POPC   C1A61227   1.654  35.845   6.180
 4692POPC   D2A61228   1.723  36.114   6.507
 4692POPC   C3A61229   2.034  36.001   6.788
 4692POPC   C4A61230   2.067  36.010   7.211
 4692POPC   C1B61231   1.992  36.589   6.288
 4692POPC   C2B61232   2.189  36.512   6.669
 4692POPC   C3B61233   2.092  36.500   7.105
 4692POPC   C4B61234   1.753  36.367   7.421
 4693POPC   NC361235  30.520  41.267   5.413
 4693POPC   PO461236  30.876  41.722   5.388
 4693POPC   GL161237  30.736  41.575   5.768
 4693POPC   GL261238  30.872  41.204   5.776
 4693POPC   C1A61239  30.889  41.689   6.188
 4693POPC   D2A61240  31.130  41.592   6.554
 4693POPC   C3A61241  30.820  41.432   6.823
 4693POPC   C4A61242  30.769  41.548   7.223
 4693POPC   C1B61243  30.568  41.226   6.112
 4693POPC   C2B61244  30.420  41.468   6.464
 4693POPC   C3B61245  30.302  41.334   6.878
 4693POPC   C4B61246  30.408  41.205   7.295
 4694POPC   NC361247  25.684  44.790   5.522
 4694POPC   PO461248  25.090  44.460   5.442
 4694POPC   GL161249  25.311  44.528   5.794
 4694POPC   GL261250  25.145  44.767   5.991
 4694POPC   C1A61251  25.516  44.426   6.192
 4694POPC   D2A61252  25.372  44.375   6.628
 4694POPC   C3A61253  25.418  44.790   6.846
 4694POPC   C4A61254  25.317  44.902   7.276
 4694POPC   C1B61255  24.999  44.358   6.185
 4694POPC   C2B61256  24.939  44.104   6.523
 4694POPC   C3B61257  24.967  44.179   6.961
 4694POPC   C4B61258  24.943  44.401   7.342
 4695POPC   NC361259  17.747  28.078   5.315
 4695POPC   PO461260  17.234  28.328   5.544
 4695POPC   GL161261  17.409  28.103   5.874
 4695POPC   GL261262  17.770  28.151   5.840
 4695POPC   C1A61263  17.498  28.198   6.324
 4695POPC   D2A61264  17.267  28.411   6.671
 4695POPC   C3A61265  17.337  28.343   7.123
 4695POPC   C4A61266  17.296  28.471   7.586
 4695POPC   C1B61267  17.719  28.575   6.049
 4695POPC   C2B61268  17.734  28.639   6.501
 4695POPC   C3B61269  17.760  28.716   6.944
 4695POPC   C4B61270  17.559  28.818   7.328
 4696POPC   NC361271  41.590   4.837   5.478
 4696POPC   PO461272  41.759   5.444   5.327
 4696POPC   GL161273  41.790   5.213   5.764
 4696POPC   GL261274  41.439   5.097   5.889
 4696POPC   C1A61275  41.798   5.015   6.215
 4696POPC   D2A61276  41.777   4.780   6.618
 4696POPC   C3A61277  41.838   5.099   6.909
 4696POPC   C4A61278  41.902   5.115   7.318
 4696POPC   C1B61279  41.206   5.001   6.266
 4696POPC   C2B61280  41.292   4.927   6.707
 4696POPC   C3B61281  41.402   4.921   7.127
 4696POPC   C4B61282  41.155   5.112   7.436
 4697POPC   NC361283  42.797  29.477   5.389
 4697POPC   PO461284  43.155  28.977   5.352
 4697POPC   GL161285  43.017  29.135   5.736
 4697POPC   GL261286  42.683  29.043   5.690
 4697POPC   C1A61287  43.159  29.100   6.160
 4697POPC   D2A61288  43.167  28.916   6.552
 4697POPC   C3A61289  43.145  29.197   6.901
 4697POPC   C4A61290  43.408  29.197   7.262
 4697POPC   C1B61291  42.642  29.197   6.134
 4697POPC   C2B61292  42.790  29.342   6.524
 4697POPC   C3B61293  42.630  29.283   6.951
 4697POPC   C4B61294  42.762  29.101   7.315
 4698POPC   NC361295   4.754   9.192   5.430
 4698POPC   PO461296   4.130   8.917   5.366
 4698POPC   GL161297   4.368   8.916   5.713
 4698POPC   GL261298   4.365   9.250   5.764
 4698POPC   C1A61299   4.366   8.863   6.138
 4698POPC   D2A61300   4.184   9.005   6.507
 4698POPC   C3A61301   4.137   8.863   6.896
 4698POPC   C4A61302   4.325   8.901   7.273
 4698POPC   C1B61303   4.097   9.352   6.100
 4698POPC   C2B61304   4.170   9.507   6.505
 4698POPC   C3B61305   4.404   9.340   6.866
 4698POPC   C4B61306   4.268   9.432   7.271
 4699POPC   NC361307  39.665  32.422   5.523
 4699POPC   PO461308  40.180  31.977   5.422
 4699POPC   GL161309  40.116  32.293   5.763
 4699POPC   GL261310  40.397  32.202   5.912
 4699POPC   C1A61311  39.990  32.520   6.182
 4699POPC   D2A61312  39.719  32.557   6.593
 4699POPC   C3A61313  39.913  32.586   7.030
 4699POPC   C4A61314  39.705  32.595   7.412
 4699POPC   C1B61315  40.344  32.182   6.367
 4699POPC   C2B61316  40.175  32.258   6.752
 4699POPC   C3B61317  40.205  32.202   7.200
 4699POPC   C4B61318  39.826  32.088   7.420
 4700POPC   NC361319  29.443  31.874   5.481
 4700POPC   PO461320  29.106  31.225   5.512
 4700POPC   GL161321  29.171  31.559   5.783
 4700POPC   GL261322  29.542  31.529   5.843
 4700POPC   C1A61323  29.122  31.824   6.147
 4700POPC   D2A61324  29.364  31.935   6.521
 4700POPC   C3A61325  29.304  31.675   6.914
 4700POPC   C4A61326  28.926  31.546   7.171
 4700POPC   C1B61327  29.378  31.373   6.232
 4700POPC   C2B61328  29.101  31.312   6.582
 4700POPC   C3B61329  29.232  31.168   6.971
 4700POPC   C4B61330  29.654  31.151   7.142
 4701POPC   NC361331  13.338  28.754   4.940
 4701POPC   PO461332  12.944  29.100   5.391
 4701POPC   GL161333  12.873  29.283   5.811
 4701POPC   GL261334  12.660  29.574   5.898
 4701POPC   C1A61335  12.839  29.232   6.230
 4701POPC   D2A61336  12.697  29.129   6.603
 4701POPC   C3A61337  12.893  29.136   6.949
 4701POPC   C4A61338  12.783  28.951   7.318
 4701POPC   C1B61339  12.562  29.634   6.368
 4701POPC   C2B61340  12.583  29.553   6.848
 4701POPC   C3B61341  12.740  29.458   7.294
 4701POPC   C4B61342  12.529  29.446   7.708
 4702POPC   NC361343  33.825  11.376   5.498
 4702POPC   PO461344  34.244  10.883   5.411
 4702POPC   GL161345  34.140  10.868   5.818
 4702POPC   GL261346  33.806  10.920   5.780
 4702POPC   C1A61347  34.047  10.940   6.247
 4702POPC   D2A61348  33.922  11.297   6.537
 4702POPC   C3A61349  33.862  11.233   6.992
 4702POPC   C4A61350  33.987  11.267   7.382
 4702POPC   C1B61351  33.579  11.139   6.116
 4702POPC   C2B61352  33.449  11.468   6.399
 4702POPC   C3B61353  33.543  11.611   6.801
 4702POPC   C4B61354  33.557  11.581   7.234
 4703POPC   NC361355  44.931  32.340   5.483
 4703POPC   PO461356  44.306  32.138   5.477
 4703POPC   GL161357  44.539  32.297   5.840
 4703POPC   GL261358  44.925  32.217   5.961
 4703POPC   C1A61359  44.527  32.149   6.248
 4703POPC   D2A61360  44.725  32.221   6.613
 4703POPC   C3A61361  44.500  32.048   6.964
 4703POPC   C4A61362  44.545  32.066   7.406
 4703POPC   C1B61363  44.958  31.844   6.249
 4703POPC   C2B61364  44.842  31.726   6.682
 4703POPC   C3B61365  44.942  31.830   7.123
 4703POPC   C4B61366   0.217  31.615   7.444
 4704POPC   NC361367   1.582   5.818   5.359
 4704POPC   PO461368   0.912   5.933   5.220
 4704POPC   GL161369   1.065   5.964   5.675
 4704POPC   GL261370   1.380   6.100   5.762
 4704POPC   C1A61371   1.037   6.100   6.126
 4704POPC   D2A61372   1.031   5.898   6.540
 4704POPC   C3A61373   1.155   6.076   6.952
 4704POPC   C4A61374   1.291   5.780   7.297
 4704POPC   C1B61375   1.526   5.973   6.219
 4704POPC   C2B61376   1.691   6.068   6.668
 4704POPC   C3B61377   1.639   6.290   7.079
 4704POPC   C4B61378   1.321   6.272   7.423
 4705POPC   NC361379  20.047  43.341   5.446
 4705POPC   PO461380  19.487  42.977   5.395
 4705POPC   GL161381  19.727  43.094   5.771
 4705POPC   GL261382  20.104  43.036   5.857
 4705POPC   C1A61383  19.739  43.169   6.218
 4705POPC   D2A61384  19.474  43.275   6.556
 4705POPC   C3A61385  19.558  43.176   6.967
 4705POPC   C4A61386  19.473  43.501   7.283
 4705POPC   C1B61387  20.204  43.353   6.171
 4705POPC   C2B61388  20.018  43.448   6.568
 4705POPC   C3B61389  19.890  43.578   6.958
 4705POPC   C4B61390  19.958  43.578   7.374
 4706POPC   NC361391  19.398  28.779   5.429
 4706POPC   PO461392  19.067  28.187   5.326
 4706POPC   GL161393  19.162  28.348   5.683
 4706POPC   GL261394  19.313  28.087   5.850
 4706POPC   C1A61395  19.091  28.566   6.042
 4706POPC   D2A61396  19.279  28.678   6.413
 4706POPC   C3A61397  19.075  28.555   6.771
 4706POPC   C4A61398  19.014  28.634   7.211
 4706POPC   C1B61399  19.110  28.093   6.249
 4706POPC   C2B61400  18.955  28.053   6.637
 4706POPC   C3B61401  19.032  28.138   7.063
 4706POPC   C4B61402  19.128  28.170   7.503
 4707POPC   NC361403  17.255   6.060   5.447
 4707POPC   PO461404  17.890   6.082   5.360
 4707POPC   GL161405  17.670   5.996   5.804
 4707POPC   GL261406  17.423   5.714   5.833
 4707POPC   C1A61407  17.355   6.065   6.210
 4707POPC   D2A61408  17.158   5.968   6.649
 4707POPC   C3A61409  17.251   5.685   7.023
 4707POPC   C4A61410  17.353   5.873   7.456
 4707POPC   C1B61411  17.715   5.701   6.219
 4707POPC   C2B61412  17.585   5.579   6.637
 4707POPC   C3B61413  17.756   5.627   7.049
 4707POPC   C4B61414  17.758   5.584   7.520
 4708POPC   NC361415  16.752   9.220   5.365
 4708POPC   PO461416  16.561   8.618   5.476
 4708POPC   GL161417  16.557   8.824   5.837
 4708POPC   GL261418  16.429   9.170   5.778
 4708POPC   C1A61419  16.792   8.788   6.248
 4708POPC   D2A61420  17.063   8.743   6.597
 4708POPC   C3A61421  16.861   8.858   6.995
 4708POPC   C4A61422  16.801   8.919   7.452
 4708POPC   C1B61423  16.844   9.223   6.020
 4708POPC   C2B61424  16.892   9.250   6.487
 4708POPC   C3B61425  16.759   9.358   6.934
 4708POPC   C4B61426  16.318   9.322   7.105
 4709POPC   NC361427  27.605  29.394   5.600
 4709POPC   PO461428  27.712  30.031   5.336
 4709POPC   GL161429  27.545  30.138   5.779
 4709POPC   GL261430  27.491  29.811   5.860
 4709POPC   C1A61431  27.360  30.100   6.246
 4709POPC   D2A61432  27.295  29.899   6.656
 4709POPC   C3A61433  27.364  30.150   7.032
 4709POPC   C4A61434  27.639  30.329   7.341
 4709POPC   C1B61435  27.478  29.554   6.247
 4709POPC   C2B61436  27.441  29.373   6.665
 4709POPC   C3B61437  27.490  29.590   7.026
 4709POPC   C4B61438  27.580  29.796   7.366
 4710POPC   NC361439  32.538  13.929   5.275
 4710POPC   PO461440  31.955  13.565   5.395
 4710POPC   GL161441  32.185  13.418   5.762
 4710POPC   GL261442  32.536  13.583   5.716
 4710POPC   C1A61443  32.092  13.462   6.228
 4710POPC   D2A61444  32.001  13.785   6.539
 4710POPC   C3A61445  32.156  13.719   6.958
 4710POPC   C4A61446  32.104  13.451   7.271
 4710POPC   C1B61447  32.633  13.456   6.157
 4710POPC   C2B61448  32.467  13.512   6.593
 4710POPC   C3B61449  32.647  13.743   6.956
 4710POPC   C4B61450  32.585  13.598   7.376
 4711POPC   NC361451  40.621  11.440   5.337
 4711POPC   PO461452  40.410  12.141   5.429
 4711POPC   GL161453  40.574  11.949   5.837
 4711POPC   GL261454  40.836  11.708   5.754
 4711POPC   C1A61455  40.685  12.025   6.303
 4711POPC   D2A61456  40.792  12.373   6.594
 4711POPC   C3A61457  40.865  12.310   7.042
 4711POPC   C4A61458  40.670  12.379   7.460
 4711POPC   C1B61459  41.116  11.826   6.112
 4711POPC   C2B61460  41.183  12.006   6.550
 4711POPC   C3B61461  41.183  11.886   7.027
 4711POPC   C4B61462  41.172  11.619   7.425
 4712POPC   NC361463  34.455  42.125   5.442
 4712POPC   PO461464  34.607  42.686   5.139
 4712POPC   GL161465  34.649  42.539   5.643
 4712POPC   GL261466  34.410  42.692   5.902
 4712POPC   C1A61467  34.736  42.317   6.097
 4712POPC   D2A61468  34.751  42.410   6.595
 4712POPC   C3A61469  34.499  42.261   6.989
 4712POPC   C4A61470  34.510  42.032   7.415
 4712POPC   C1B61471  34.308  42.528   6.318
 4712POPC   C2B61472  34.185  42.719   6.713
 4712POPC   C3B61473  34.065  42.546   7.106
 4712POPC   C4B61474  34.359  42.520   7.432
 4713POPC   NC361475   3.197   9.916   5.399
 4713POPC   PO461476   3.939   9.898   5.403
 4713POPC   GL161477   3.743   9.648   5.726
 4713POPC   GL261478   3.569   9.958   5.783
 4713POPC   C1A61479   3.607   9.534   6.148
 4713POPC   D2A61480   3.377   9.666   6.508
 4713POPC   C3A61481   3.519   9.650   6.910
 4713POPC   C4A61482   3.477   9.402   7.275
 4713POPC   C1B61483   3.533  10.068   6.198
 4713POPC   C2B61484   3.388  10.169   6.619
 4713POPC   C3B61485   3.237  10.051   7.029
 4713POPC   C4B61486   3.538   9.935   7.346
 4714POPC   NC361487  33.683  18.550   5.470
 4714POPC   PO461488  34.077  18.061   5.365
 4714POPC   GL161489  33.873  18.135   5.729
 4714POPC   GL261490  33.519  18.080   5.657
 4714POPC   C1A61491  34.002  18.365   6.100
 4714POPC   D2A61492  33.909  18.129   6.455
 4714POPC   C3A61493  33.967  18.327   6.817
 4714POPC   C4A61494  33.813  18.231   7.214
 4714POPC   C1B61495  33.517  18.209   6.101
 4714POPC   C2B61496  33.603  18.540   6.414
 4714POPC   C3B61497  33.514  18.521   6.860
 4714POPC   C4B61498  33.361  18.485   7.277
 4715POPC   NC361499  26.859  25.485   5.389
 4715POPC   PO461500  26.746  24.820   5.494
 4715POPC   GL161501  27.025  25.112   5.769
 4715POPC   GL261502  26.911  25.453   5.895
 4715POPC   C1A61503  27.189  25.172   6.221
 4715POPC   D2A61504  27.115  25.387   6.638
 4715POPC   C3A61505  27.043  25.149   7.032
 4715POPC   C4A61506  26.619  24.993   7.194
 4715POPC   C1B61507  27.077  25.759   6.224
 4715POPC   C2B61508  26.876  25.852   6.641
 4715POPC   C3B61509  26.727  25.555   6.949
 4715POPC   C4B61510  26.763  25.446   7.376
 4716POPC   NC361511  30.538  19.572   5.444
 4716POPC   PO461512  31.124  19.846   5.559
 4716POPC   GL161513  30.821  19.715   5.888
 4716POPC   GL261514  30.471  19.822   5.882
 4716POPC   C1A61515  30.694  19.745   6.348
 4716POPC   D2A61516  30.553  19.785   6.770
 4716POPC   C3A61517  30.874  19.778   7.103
 4716POPC   C4A61518  30.980  19.521   7.454
 4716POPC   C1B61519  30.226  19.947   6.231
 4716POPC   C2B61520  30.105  20.051   6.642
 4716POPC   C3B61521  30.190  19.987   7.068
 4716POPC   C4B61522  30.413  19.634   7.273
 4717POPC   NC361523  31.298  20.264   5.492
 4717POPC   PO461524  30.710  20.675   5.414
 4717POPC   GL161525  30.628  20.582   5.830
 4717POPC   GL261526  30.792  20.240   5.764
 4717POPC   C1A61527  30.653  20.729   6.263
 4717POPC   D2A61528  30.971  20.607   6.550
 4717POPC   C3A61529  30.746  20.726   6.914
 4717POPC   C4A61530  30.509  20.842   7.284
 4717POPC   C1B61531  30.673  20.216   6.179
 4717POPC   C2B61532  30.531  20.318   6.574
 4717POPC   C3B61533  30.649  20.239   6.989
 4717POPC   C4B61534  30.582  20.123   7.378
 4718POPC   NC361535  16.077  32.586   5.430
 4718POPC   PO461536  15.628  32.176   5.124
 4718POPC   GL161537  15.660  32.250   5.625
 4718POPC   GL261538  15.871  32.478   5.866
 4718POPC   C1A61539  15.718  32.056   6.079
 4718POPC   D2A61540  15.968  31.951   6.476
 4718POPC   C3A61541  15.902  32.094   6.936
 4718POPC   C4A61542  15.673  32.016   7.342
 4718POPC   C1B61543  16.256  32.619   6.123
 4718POPC   C2B61544  16.351  32.560   6.553
 4718POPC   C3B61545  16.319  32.737   6.941
 4718POPC   C4B61546  16.305  32.642   7.355
 4719POPC   NC361547   4.601  19.453   5.407
 4719POPC   PO461548   4.085  19.016   5.696
 4719POPC   GL161549   4.429  19.181   5.933
 4719POPC   GL261550   4.462  19.518   5.905
 4719POPC   C1A61551   4.594  19.060   6.348
 4719POPC   D2A61552   4.676  19.073   6.783
 4719POPC   C3A61553   4.401  18.919   7.114
 4719POPC   C4A61554   3.939  19.011   7.199
 4719POPC   C1B61555   4.091  19.445   6.206
 4719POPC   C2B61556   3.927  19.344   6.630
 4719POPC   C3B61557   4.154  19.443   7.030
 4719POPC   C4B61558   4.169  19.446   7.500
 4720POPC   NC361559  29.938  24.140   5.408
 4720POPC   PO461560  29.835  23.559   5.378
 4720POPC   GL161561  29.748  23.514   5.792
 4720POPC   GL261562  29.732  23.876   5.835
 4720POPC   C1A61563  29.985  23.513   6.162
 4720POPC   D2A61564  29.845  23.424   6.567
 4720POPC   C3A61565  30.044  23.432   6.945
 4720POPC   C4A61566  29.912  23.327   7.345
 4720POPC   C1B61567  29.865  24.022   6.249
 4720POPC   C2B61568  30.184  23.858   6.524
 4720POPC   C3B61569  30.290  23.873   6.952
 4720POPC   C4B61570  29.937  23.853   7.246
 4721POPC   NC361571   8.906  44.950   5.338
 4721POPC   PO461572   9.083   0.469   5.500
 4721POPC   GL161573   9.108   0.018   5.804
 4721POPC   GL261574   8.916  44.653   5.762
 4721POPC   C1A61575   9.195  44.717   6.185
 4721POPC   D2A61576   8.936  44.516   6.510
 4721POPC   C3A61577   8.948  44.646   6.962
 4721POPC   C4A61578   9.153   0.017   7.182
 4721POPC   C1B61579   8.695  44.834   6.120
 4721POPC   C2B61580   8.527  44.860   6.561
 4721POPC   C3B61581   8.478  44.834   7.034
 4721POPC   C4B61582   8.691  44.956   7.419
 4722POPC   NC361583   4.725   1.016   5.109
 4722POPC   PO461584   4.149   1.376   5.198
 4722POPC   GL161585   4.272   1.370   5.658
 4722POPC   GL261586   4.255   0.999   5.741
 4722POPC   C1A61587   4.384   1.355   6.129
 4722POPC   D2A61588   4.520   1.133   6.490
 4722POPC   C3A61589   4.381   1.315   6.867
 4722POPC   C4A61590   4.480   1.638   7.181
 4722POPC   C1B61591   4.072   0.933   6.151
 4722POPC   C2B61592   4.085   0.841   6.600
 4722POPC   C3B61593   3.969   1.004   6.989
 4722POPC   C4B61594   3.947   1.000   7.450
 4723POPC   NC361595  31.995  35.592   5.183
 4723POPC   PO461596  32.453  35.206   5.430
 4723POPC   GL161597  32.135  35.392   5.778
 4723POPC   GL261598  31.792  35.233   5.873
 4723POPC   C1A61599  31.962  35.630   6.173
 4723POPC   D2A61600  31.952  35.739   6.621
 4723POPC   C3A61601  32.107  35.431   6.923
 4723POPC   C4A61602  32.447  35.332   7.212
 4723POPC   C1B61603  32.077  35.113   6.232
 4723POPC   C2B61604  31.991  34.957   6.674
 4723POPC   C3B61605  32.140  34.960   7.099
 4723POPC   C4B61606  32.055  35.102   7.523
 4724POPC   NC361607  42.241  19.274   5.604
 4724POPC   PO461608  42.597  18.797   5.400
 4724POPC   GL161609  42.570  18.937   5.803
 4724POPC   GL261610  42.277  18.810   5.900
 4724POPC   C1A61611  42.619  19.206   6.194
 4724POPC   D2A61612  42.762  19.369   6.619
 4724POPC   C3A61613  42.492  19.204   6.981
 4724POPC   C4A61614  42.238  18.990   7.354
 4724POPC   C1B61615  42.576  18.637   6.239
 4724POPC   C2B61616  42.568  18.718   6.702
 4724POPC   C3B61617  42.607  18.709   7.153
 4724POPC   C4B61618  42.421  18.427   7.494
 4725POPC   NC361619  31.247  42.675   5.391
 4725POPC   PO461620  31.755  42.194   5.323
 4725POPC   GL161621  31.535  42.316   5.679
 4725POPC   GL261622  31.603  41.971   5.805
 4725POPC   C1A61623  31.396  42.502   6.075
 4725POPC   D2A61624  31.447  42.376   6.510
 4725POPC   C3A61625  31.320  42.579   6.873
 4725POPC   C4A61626  31.510  42.625   7.242
 4725POPC   C1B61627  31.382  41.971   6.189
 4725POPC   C2B61628  31.573  41.886   6.592
 4725POPC   C3B61629  31.600  42.094   6.999
 4725POPC   C4B61630  31.237  42.205   7.227
 4726POPC   NC361631  39.220  11.628   5.467
 4726POPC   PO461632  39.329  10.957   5.367
 4726POPC   GL161633  39.369  11.208   5.745
 4726POPC   GL261634  39.031  11.293   5.797
 4726POPC   C1A61635  39.367  11.223   6.214
 4726POPC   D2A61636  39.305  10.955   6.586
 4726POPC   C3A61637  39.298  11.165   6.983
 4726POPC   C4A61638  38.934  11.177   7.224
 4726POPC   C1B61639  38.877  11.342   6.208
 4726POPC   C2B61640  38.969  11.396   6.660
 4726POPC   C3B61641  39.040  11.636   7.063
 4726POPC   C4B61642  39.058  11.599   7.513
 4727POPC   NC361643  41.005  38.204   5.683
 4727POPC   PO461644  41.381  38.620   5.249
 4727POPC   GL161645  41.570  38.461   5.681
 4727POPC   GL261646  41.857  38.661   5.806
 4727POPC   C1A61647  41.569  38.240   6.094
 4727POPC   D2A61648  41.659  38.078   6.532
 4727POPC   C3A61649  41.504  38.265   6.951
 4727POPC   C4A61650  41.647  38.108   7.362
 4727POPC   C1B61651  41.933  38.582   6.242
 4727POPC   C2B61652  41.797  38.632   6.690
 4727POPC   C3B61653  41.853  38.620   7.146
 4727POPC   C4B61654  41.943  38.509   7.565
 4728POPC   NC361655  35.137  43.651   5.320
 4728POPC   PO461656  35.741  43.928   5.528
 4728POPC   GL161657  35.411  43.873   5.824
 4728POPC   GL261658  35.290  43.562   5.788
 4728POPC   C1A61659  35.294  43.978   6.249
 4728POPC   D2A61660  35.143  44.012   6.679
 4728POPC   C3A61661  35.526  43.998   6.980
 4728POPC   C4A61662  35.720  43.775   7.329
 4728POPC   C1B61663  34.993  43.543   6.104
 4728POPC   C2B61664  35.074  43.512   6.529
 4728POPC   C3B61665  35.230  43.566   6.924
 4728POPC   C4B61666  35.270  43.391   7.296
 4729POPC   NC361667  14.514  43.524   5.739
 4729POPC   PO461668  14.042  43.232   5.417
 4729POPC   GL161669  14.171  43.119   5.818
 4729POPC   GL261670  14.136  43.360   6.043
 4729POPC   C1A61671  14.070  42.856   6.160
 4729POPC   D2A61672  13.971  42.745   6.593
 4729POPC   C3A61673  14.180  43.028   6.909
 4729POPC   C4A61674  14.591  42.957   7.102
 4729POPC   C1B61675  14.496  43.160   6.270
 4729POPC   C2B61676  14.611  43.301   6.669
 4729POPC   C3B61677  14.517  43.467   7.036
 4729POPC   C4B61678  14.103  43.562   7.235
 4730POPC   NC361679  14.974  14.491   5.254
 4730POPC   PO461680  15.574  14.397   5.440
 4730POPC   GL161681  15.285  14.329   5.779
 4730POPC   GL261682  14.914  14.222   5.700
 4730POPC   C1A61683  15.425  14.416   6.215
 4730POPC   D2A61684  15.563  14.191   6.588
 4730POPC   C3A61685  15.455  14.377   7.001
 4730POPC   C4A61686  15.211  14.504   7.379
 4730POPC   C1B61687  14.984  14.146   6.164
 4730POPC   C2B61688  15.061  14.356   6.583
 4730POPC   C3B61689  14.886  14.396   7.000
 4730POPC   C4B61690  14.675  14.585   7.367
 4731POPC   NC361691  18.111  38.216   5.413
 4731POPC   PO461692  17.753  37.650   5.376
 4731POPC   GL161693  17.630  37.685   5.826
 4731POPC   GL261694  17.927  37.537   5.903
 4731POPC   C1A61695  17.372  37.716   6.263
 4731POPC   D2A61696  17.152  37.670   6.708
 4731POPC   C3A61697  17.339  37.776   7.111
 4731POPC   C4A61698  17.763  37.829   7.312
 4731POPC   C1B61699  17.677  37.309   6.213
 4731POPC   C2B61700  17.521  37.316   6.651
 4731POPC   C3B61701  17.549  37.314   7.100
 4731POPC   C4B61702  17.453  36.991   7.414
 4732POPC   NC361703  26.339  38.442   5.435
 4732POPC   PO461704  25.683  38.389   5.431
 4732POPC   GL161705  25.962  38.469   5.783
 4732POPC   GL261706  26.144  38.799   5.738
 4732POPC   C1A61707  26.001  38.329   6.191
 4732POPC   D2A61708  25.893  38.128   6.570
 4732POPC   C3A61709  25.998  38.350   6.902
 4732POPC   C4A61710  25.895  38.211   7.310
 4732POPC   C1B61711  26.341  38.717   6.125
 4732POPC   C2B61712  26.161  38.696   6.531
 4732POPC   C3B61713  26.326  38.858   6.900
 4732POPC   C4B61714  26.154  38.687   7.239
 4733POPC   NC361715   1.872  44.196   5.227
 4733POPC   PO461716   1.757  43.666   5.504
 4733POPC   GL161717   2.027  43.857   5.830
 4733POPC   GL261718   1.859  44.185   5.793
 4733POPC   C1A61719   2.263  44.051   6.193
 4733POPC   D2A61720   2.122  44.062   6.635
 4733POPC   C3A61721   2.298  43.923   7.051
 4733POPC   C4A61722   2.118  44.026   7.447
 4733POPC   C1B61723   1.732  44.037   6.213
 4733POPC   C2B61724   1.725  43.728   6.522
 4733POPC   C3B61725   1.819  43.762   6.935
 4733POPC   C4B61726   1.672  43.935   7.252
 4734POPC   NC361727  18.627  30.971   5.393
 4734POPC   PO461728  18.200  30.472   5.283
 4734POPC   GL161729  18.108  30.579   5.708
 4734POPC   GL261730  18.233  30.923   5.786
 4734POPC   C1A61731  18.262  30.472   6.135
 4734POPC   D2A61732  18.263  30.699   6.532
 4734POPC   C3A61733  18.107  30.505   6.907
 4734POPC   C4A61734  18.301  30.474   7.310
 4734POPC   C1B61735  18.585  30.880   6.121
 4734POPC   C2B61736  18.589  31.083   6.540
 4734POPC   C3B61737  18.525  30.906   6.962
 4734POPC   C4B61738  18.522  31.066   7.379
 4735POPC   NC361739   9.181  16.472   5.381
 4735POPC   PO461740   8.991  17.153   5.311
 4735POPC   GL161741   9.073  16.906   5.745
 4735POPC   GL261742   9.303  16.581   5.845
 4735POPC   C1A61743   8.957  16.725   6.172
 4735POPC   D2A61744   8.763  16.588   6.565
 4735POPC   C3A61745   8.808  16.864   6.883
 4735POPC   C4A61746   9.058  16.871   7.243
 4735POPC   C1B61747   9.323  16.271   6.179
 4735POPC   C2B61748   9.090  16.161   6.563
 4735POPC   C3B61749   9.013  16.385   6.961
 4735POPC   C4B61750   9.095  16.386   7.400
 4736POPC   NC361751  40.783  38.381   5.210
 4736POPC   PO461752  41.136  38.734   5.697
 4736POPC   GL161753  40.690  38.597   5.709
 4736POPC   GL261754  40.612  38.887   5.831
 4736POPC   C1A61755  40.502  38.370   6.098
 4736POPC   D2A61756  40.774  38.233   6.488
 4736POPC   C3A61757  40.991  38.475   6.786
 4736POPC   C4A61758  41.017  38.430   7.225
 4736POPC   C1B61759  40.835  38.690   6.241
 4736POPC   C2B61760  40.536  38.692   6.577
 4736POPC   C3B61761  40.608  38.745   7.005
 4736POPC   C4B61762  40.531  38.546   7.364
 4737POPC   NC361763  10.256  10.812   5.526
 4737POPC   PO461764  10.583  10.243   5.554
 4737POPC   GL161765  10.678  10.608   5.807
 4737POPC   GL261766  10.966  10.802   5.869
 4737POPC   C1A61767  10.731  10.537   6.257
 4737POPC   D2A61768  10.598  10.229   6.586
 4737POPC   C3A61769  10.484  10.450   6.971
 4737POPC   C4A61770  10.455  10.340   7.400
 4737POPC   C1B61771  10.850  11.059   6.253
 4737POPC   C2B61772  10.755  11.041   6.694
 4737POPC   C3B61773  10.850  10.881   7.105
 4737POPC   C4B61774  10.924  10.440   7.230
 4738POPC   NC361775  15.891   5.364   5.530
 4738POPC   PO461776  16.205   4.766   5.429
 4738POPC   GL161777  15.997   4.906   5.808
 4738POPC   GL261778  16.193   5.170   5.907
 4738POPC   C1A61779  15.843   5.091   6.254
 4738POPC   D2A61780  16.031   5.088   6.690
 4738POPC   C3A61781  15.785   5.246   7.024
 4738POPC   C4A61782  15.736   5.247   7.475
 4738POPC   C1B61783  16.292   4.838   6.267
 4738POPC   C2B61784  16.336   4.690   6.715
 4738POPC   C3B61785  16.332   4.781   7.115
 4738POPC   C4B61786  16.213   5.134   7.289
 4739POPC   NC361787  34.883  24.639   5.439
 4739POPC   PO461788  34.143  24.650   5.311
 4739POPC   GL161789  34.413  24.629   5.680
 4739POPC   GL261790  34.440  24.329   5.925
 4739POPC   C1A61791  34.489  24.796   6.103
 4739POPC   D2A61792  34.598  24.565   6.482
 4739POPC   C3A61793  34.338  24.635   6.820
 4739POPC   C4A61794  34.422  24.716   7.235
 4739POPC   C1B61795  34.714  24.126   6.251
 4739POPC   C2B61796  34.826  24.002   6.682
 4739POPC   C3B61797  34.669  24.277   7.028
 4739POPC   C4B61798  34.539  24.212   7.451
 4740POPC   NC361799  21.885  43.219   5.551
 4740POPC   PO461800  22.421  42.874   5.560
 4740POPC   GL161801  22.182  42.905   5.877
 4740POPC   GL261802  21.861  42.737   5.799
 4740POPC   C1A61803  22.320  42.958   6.288
 4740POPC   D2A61804  22.452  42.811   6.662
 4740POPC   C3A61805  22.267  43.082   6.965
 4740POPC   C4A61806  22.012  43.434   7.048
 4740POPC   C1B61807  21.802  43.019   6.186
 4740POPC   C2B61808  21.810  43.151   6.610
 4740POPC   C3B61809  21.806  42.885   6.949
 4740POPC   C4B61810  21.877  42.713   7.336
 4741POPC   NC361811  30.876  17.015   5.443
 4741POPC   PO461812  30.705  16.407   5.364
 4741POPC   GL161813  30.777  16.620   5.752
 4741POPC   GL261814  30.491  16.869   5.755
 4741POPC   C1A61815  30.868  16.855   6.134
 4741POPC   D2A61816  30.649  16.896   6.533
 4741POPC   C3A61817  30.908  17.053   6.847
 4741POPC   C4A61818  31.150  16.762   7.095
 4741POPC   C1B61819  30.359  17.072   6.141
 4741POPC   C2B61820  30.144  16.970   6.546
 4741POPC   C3B61821  30.321  16.961   6.956
 4741POPC   C4B61822  30.634  16.737   7.147
 4742POPC   NC361823  40.508  21.449   5.434
 4742POPC   PO461824  41.113  21.703   5.577
 4742POPC   GL161825  40.872  21.524   5.898
 4742POPC   GL261826  40.575  21.715   5.894
 4742POPC   C1A61827  40.746  21.455   6.334
 4742POPC   D2A61828  40.804  21.260   6.730
 4742POPC   C3A61829  41.003  21.390   7.124
 4742POPC   C4A61830  40.801  21.372   7.539
 4742POPC   C1B61831  40.560  21.934   6.286
 4742POPC   C2B61832  40.568  21.770   6.737
 4742POPC   C3B61833  40.541  21.733   7.204
 4742POPC   C4B61834  40.571  21.817   7.672
 4743POPC   NC361835  42.276   0.652   5.377
 4743POPC   PO461836  41.884   0.066   5.437
 4743POPC   GL161837  42.228   0.260   5.747
 4743POPC   GL261838  42.387   0.588   5.874
 4743POPC   C1A61839  42.422   0.116   6.140
 4743POPC   D2A61840  42.224   0.098   6.549
 4743POPC   C3A61841  42.397   0.197   6.937
 4743POPC   C4A61842  42.544   0.244   7.355
 4743POPC   C1B61843  42.122   0.533   6.256
 4743POPC   C2B61844  42.046   0.548   6.727
 4743POPC   C3B61845  42.294   0.665   7.115
 4743POPC   C4B61846  42.443   0.735   7.559
 4744POPC   NC361847  39.000   0.306   5.354
 4744POPC   PO461848  39.370   0.879   5.317
 4744POPC   GL161849  39.296   0.569   5.708
 4744POPC   GL261850  38.942   0.501   5.845
 4744POPC   C1A61851  39.389   0.365   6.160
 4744POPC   D2A61852  39.572   0.146   6.550
 4744POPC   C3A61853  39.419   0.179   7.005
 4744POPC   C4A61854  39.364   0.522   7.290
 4744POPC   C1B61855  38.902   0.218   6.223
 4744POPC   C2B61856  39.047   0.333   6.642
 4744POPC   C3B61857  38.926   0.345   7.051
 4744POPC   C4B61858  38.952  44.923   7.083
 4745POPC   NC361859  27.420   4.936   5.262
 4745POPC   PO461860  28.007   5.067   5.265
 4745POPC   GL161861  27.779   5.068   5.685
 4745POPC   GL261862  28.029   4.945   5.921
 4745POPC   C1A61863  27.645   5.192   6.138
 4745POPC   D2A61864  27.834   5.244   6.573
 4745POPC   C3A61865  27.618   5.220   6.966
 4745POPC   C4A61866  27.372   5.403   7.313
 4745POPC   C1B61867  27.909   4.784   6.322
 4745POPC   C2B61868  27.942   4.773   6.775
 4745POPC   C3B61869  28.002   4.792   7.182
 4745POPC   C4B61870  27.886   5.163   7.390
 4746POPC   NC361871  36.219   2.568   5.567
 4746POPC   PO461872  35.947   3.038   5.220
 4746POPC   GL161873  35.846   2.861   5.724
 4746POPC   GL261874  36.038   2.597   6.017
 4746POPC   C1A61875  35.872   3.027   6.175
 4746POPC   D2A61876  36.098   2.837   6.496
 4746POPC   C3A61877  35.893   2.675   6.825
 4746POPC   C4A61878  35.795   2.834   7.161
 4746POPC   C1B61879  36.421   2.525   6.281
 4746POPC   C2B61880  36.417   2.423   6.728
 4746POPC   C3B61881  36.301   2.589   7.160
 4746POPC   C4B61882  36.303   2.515   7.634
 4747POPC   NC361883   0.152  28.740   5.348
 4747POPC   PO461884   0.467  29.354   5.245
 4747POPC   GL161885   0.267  29.240   5.609
 4747POPC   GL261886   0.541  29.067   5.722
 4747POPC   C1A61887   0.238  29.295   6.066
 4747POPC   D2A61888   0.252  29.010   6.432
 4747POPC   C3A61889   0.374  29.209   6.826
 4747POPC   C4A61890   0.194  29.024   7.169
 4747POPC   C1B61891   0.732  29.098   6.165
 4747POPC   C2B61892   0.734  28.857   6.599
 4747POPC   C3B61893   0.718  28.898   7.064
 4747POPC   C4B61894   0.780  29.247   7.279
 4748POPC   NC361895   4.844  36.517   5.338
 4748POPC   PO461896   5.079  37.124   5.104
 4748POPC   GL161897   5.038  37.047   5.628
 4748POPC   GL261898   5.027  36.705   5.773
 4748POPC   C1A61899   5.112  37.063   6.113
 4748POPC   D2A61900   5.257  37.039   6.561
 4748POPC   C3A61901   5.060  36.927   6.951
 4748POPC   C4A61902   5.264  37.000   7.366
 4748POPC   C1B61903   4.803  36.658   6.177
 4748POPC   C2B61904   5.015  36.545   6.538
 4748POPC   C3B61905   5.151  36.405   6.919
 4748POPC   C4B61906   5.005  36.559   7.309
 4749POPC   NC361907  15.969   2.704   5.501
 4749POPC   PO461908  16.376   3.243   5.629
 4749POPC   GL161909  16.212   2.951   5.931
 4749POPC   GL261910  16.293   2.604   5.894
 4749POPC   C1A61911  16.125   2.917   6.378
 4749POPC   D2A61912  16.310   2.747   6.767
 4749POPC   C3A61913  16.014   2.679   7.105
 4749POPC   C4A61914  16.051   2.463   7.515
 4749POPC   C1B61915  16.229   2.420   6.295
 4749POPC   C2B61916  15.908   2.478   6.604
 4749POPC   C3B61917  15.575   2.470   6.872
 4749POPC   C4B61918  15.575   2.516   7.297
 4750POPC   NC361919  15.404   2.956   5.239
 4750POPC   PO461920  15.498   2.364   5.452
 4750POPC   GL161921  15.586   2.630   5.845
 4750POPC   GL261922  15.566   2.968   5.738
 4750POPC   C1A61923  15.556   2.746   6.324
 4750POPC   D2A61924  15.194   2.779   6.650
 4750POPC   C3A61925  15.117   2.588   7.088
 4750POPC   C4A61926  15.179   2.213   7.383
 4750POPC   C1B61927  15.477   3.222   6.125
 4750POPC   C2B61928  15.455   3.239   6.611
 4750POPC   C3B61929  15.495   2.967   7.017
 4750POPC   C4B61930  15.277   2.952   7.445
 4751POPC   NC361931  32.171  20.780   5.452
 4751POPC   PO461932  32.315  21.397   5.175
 4751POPC   GL161933  32.296  21.252   5.620
 4751POPC   GL261934  32.590  21.275   5.854
 4751POPC   C1A61935  32.120  21.191   6.044
 4751POPC   D2A61936  32.179  20.958   6.433
 4751POPC   C3A61937  32.333  21.224   6.795
 4751POPC   C4A61938  32.363  21.236   7.237
 4751POPC   C1B61939  32.564  21.287   6.327
 4751POPC   C2B61940  32.733  21.587   6.667
 4751POPC   C3B61941  32.679  21.640   7.116
 4751POPC   C4B61942  32.608  21.844   7.536
 4752POPC   NC361943   4.865  33.394   5.452
 4752POPC   PO461944   5.367  32.914   5.420
 4752POPC   GL161945   5.421  33.176   5.783
 4752POPC   GL261946   5.092  33.240   5.887
 4752POPC   C1A61947   5.416  33.065   6.235
 4752POPC   D2A61948   5.094  32.973   6.526
 4752POPC   C3A61949   5.099  33.171   6.893
 4752POPC   C4A61950   4.996  32.921   7.260
 4752POPC   C1B61951   4.959  33.399   6.294
 4752POPC   C2B61952   4.662  33.296   6.642
 4752POPC   C3B61953   4.635  33.248   7.104
 4752POPC   C4B61954   4.822  33.319   7.533
 4753POPC   NC361955  27.294  43.930   5.217
 4753POPC   PO461956  26.693  44.047   5.372
 4753POPC   GL161957  26.597  44.034   5.789
 4753POPC   GL261958  26.927  43.980   5.902
 4753POPC   C1A61959  26.524  43.894   6.216
 4753POPC   D2A61960  26.807  44.167   6.490
 4753POPC   C3A61961  26.930  44.124   6.949
 4753POPC   C4A61962  26.647  44.076   7.302
 4753POPC   C1B61963  26.992  43.718   6.281
 4753POPC   C2B61964  26.755  43.658   6.674
 4753POPC   C3B61965  26.819  43.641   7.127
 4753POPC   C4B61966  27.100  43.473   7.398
 4754POPC   NC361967   8.965   6.953   5.483
 4754POPC   PO461968   9.265   6.314   5.497
 4754POPC   GL161969   9.021   6.488   5.871
 4754POPC   GL261970   9.153   6.818   5.971
 4754POPC   C1A61971   8.810   6.390   6.292
 4754POPC   D2A61972   8.664   6.583   6.717
 4754POPC   C3A61973   8.834   6.565   7.125
 4754POPC   C4A61974   8.998   6.815   7.438
 4754POPC   C1B61975   9.124   6.765   6.437
 4754POPC   C2B61976   9.122   6.374   6.703
 4754POPC   C3B61977   9.085   6.130   7.091
 4754POPC   C4B61978   9.185   6.337   7.490
 4755POPC   NC361979  35.085  32.707   4.919
 4755POPC   PO461980  34.952  32.986   5.500
 4755POPC   GL161981  34.620  32.945   5.827
 4755POPC   GL261982  34.331  32.695   5.782
 4755POPC   C1A61983  34.501  33.104   6.246
 4755POPC   D2A61984  34.444  33.087   6.701
 4755POPC   C3A61985  34.715  33.260   6.993
 4755POPC   C4A61986  34.711  32.989   7.283
 4755POPC   C1B61987  34.524  32.586   6.190
 4755POPC   C2B61988  34.649  32.456   6.591
 4755POPC   C3B61989  34.545  32.602   6.980
 4755POPC   C4B61990  34.226  32.858   7.197
 4756POPC   NC361991   3.869  10.374   5.523
 4756POPC   PO461992   3.258  10.369   5.471
 4756POPC   GL161993   3.459  10.467   5.856
 4756POPC   GL261994   3.567  10.794   5.850
 4756POPC   C1A61995   3.536  10.559   6.317
 4756POPC   D2A61996   3.805  10.480   6.682
 4756POPC   C3A61997   3.538  10.461   7.045
 4756POPC   C4A61998   3.244  10.792   7.195
 4756POPC   C1B61999   3.419  11.045   6.243
 4756POPC   C2B62000   3.409  10.921   6.700
 4756POPC   C3B62001   3.746  10.913   7.006
 4756POPC   C4B62002   3.684  10.794   7.462
 4757POPC   NC362003  13.390  25.849   5.199
 4757POPC   PO462004  13.822  26.168   5.634
 4757POPC   GL162005  13.564  25.863   5.852
 4757POPC   GL262006  13.237  25.682   5.733
 4757POPC   C1A62007  13.675  25.799   6.285
 4757POPC   D2A62008  13.693  26.121   6.570
 4757POPC   C3A62009  13.678  25.969   6.967
 4757POPC   C4A62010  13.592  26.223   7.305
 4757POPC   C1B62011  13.183  25.787   6.212
 4757POPC   C2B62012  13.270  25.796   6.686
 4757POPC   C3B62013  13.215  25.813   7.160
 4757POPC   C4B62014  13.153  25.842   7.634
 4758POPC   NC362015  41.027  42.303   5.343
 4758POPC   PO462016  41.176  42.708   5.812
 4758POPC   GL162017  40.771  42.550   5.766
 4758POPC   GL262018  40.802  42.228   5.799
 4758POPC   C1A62019  40.542  42.609   6.156
 4758POPC   D2A62020  40.723  42.790   6.542
 4758POPC   C3A62021  40.853  42.503   6.884
 4758POPC   C4A62022  40.534  42.331   7.176
 4758POPC   C1B62023  40.703  42.111   6.201
 4758POPC   C2B62024  40.793  41.910   6.576
 4758POPC   C3B62025  40.886  41.988   6.996
 4758POPC   C4B62026  41.167  41.773   7.253
 4759POPC   NC362027  35.042   9.069   5.640
 4759POPC   PO462028  34.516   9.260   5.232
 4759POPC   GL162029  34.562   9.254   5.713
 4759POPC   GL262030  34.544   8.878   5.691
 4759POPC   C1A62031  34.657   9.361   6.190
 4759POPC   D2A62032  34.830   9.144   6.605
 4759POPC   C3A62033  34.652   9.160   7.052
 4759POPC   C4A62034  34.796   9.193   7.515
 4759POPC   C1B62035  34.503   8.871   6.137
 4759POPC   C2B62036  34.497   8.666   6.540
 4759POPC   C3B62037  34.668   8.671   6.952
 4759POPC   C4B62038  34.521   8.772   7.389
 4760POPC   NC362039  38.797  12.934   5.400
 4760POPC   PO462040  38.223  13.206   5.359
 4760POPC   GL162041  38.281  13.129   5.777
 4760POPC   GL262042  38.454  12.834   5.758
 4760POPC   C1A62043  38.363  13.039   6.205
 4760POPC   D2A62044  38.162  12.915   6.551
 4760POPC   C3A62045  38.177  12.714   6.922
 4760POPC   C4A62046  38.350  12.996   7.215
 4760POPC   C1B62047  38.772  12.738   6.063
 4760POPC   C2B62048  38.721  12.783   6.494
 4760POPC   C3B62049  38.717  12.797   6.931
 4760POPC   C4B62050  38.537  12.514   7.252
 4761POPC   NC362051  34.601  16.541   4.656
 4761POPC   PO462052  34.827  16.587   5.394
 4761POPC   GL162053  34.701  16.830   5.797
 4761POPC   GL262054  34.810  17.190   5.815
 4761POPC   C1A62055  34.583  16.872   6.267
 4761POPC   D2A62056  34.835  16.627   6.576
 4761POPC   C3A62057  34.705  16.532   6.994
 4761POPC   C4A62058  34.393  16.487   7.313
 4761POPC   C1B62059  35.005  17.185   6.246
 4761POPC   C2B62060  34.864  17.123   6.697
 4761POPC   C3B62061  34.516  17.004   6.945
 4761POPC   C4B62062  34.365  17.052   7.346
 4762POPC   NC362063  36.004  33.977   5.369
 4762POPC   PO462064  36.287  33.339   5.415
 4762POPC   GL162065  36.250  33.701   5.740
 4762POPC   GL262066  36.512  33.971   5.750
 4762POPC   C1A62067  36.077  34.071   6.023
 4762POPC   D2A62068  36.032  34.295   6.430
 4762POPC   C3A62069  35.918  34.001   6.758
 4762POPC   C4A62070  35.868  34.039   7.208
 4762POPC   C1B62071  36.490  33.813   6.198
 4762POPC   C2B62072  36.461  34.050   6.613
 4762POPC   C3B62073  36.332  33.943   7.041
 4762POPC   C4B62074  36.053  33.573   7.177
 4763POPC   NC362075  21.872  22.605   5.476
 4763POPC   PO462076  21.172  22.570   5.434
 4763POPC   GL162077  21.415  22.798   5.789
 4763POPC   GL262078  21.314  23.158   5.828
 4763POPC   C1A62079  21.283  22.888   6.257
 4763POPC   D2A62080  21.426  23.148   6.609
 4763POPC   C3A62081  21.491  22.944   7.022
 4763POPC   C4A62082  21.177  22.750   7.222
 4763POPC   C1B62083  20.994  23.297   6.154
 4763POPC   C2B62084  20.912  23.309   6.632
 4763POPC   C3B62085  21.171  23.339   7.032
 4763POPC   C4B62086  21.375  23.654   7.314
 4764POPC   NC362087   6.025   3.908   5.533
 4764POPC   PO462088   5.744   3.303   5.369
 4764POPC   GL162089   5.737   3.535   5.793
 4764POPC   GL262090   5.525   3.796   5.957
 4764POPC   C1A62091   6.051   3.604   6.154
 4764POPC   D2A62092   6.151   3.878   6.529
 4764POPC   C3A62093   6.068   3.695   6.951
 4764POPC   C4A62094   6.208   3.289   7.163
 4764POPC   C1B62095   5.642   3.799   6.391
 4764POPC   C2B62096   5.832   3.421   6.595
 4764POPC   C3B62097   5.717   3.288   7.023
 4764POPC   C4B62098   5.525   3.576   7.317
 4765POPC   NC362099   8.390  28.262   5.400
 4765POPC   PO462100   7.845  28.674   5.506
 4765POPC   GL162101   7.888  28.418   5.870
 4765POPC   GL262102   8.158  28.202   5.847
 4765POPC   C1A62103   7.772  28.362   6.326
 4765POPC   D2A62104   7.656  28.354   6.775
 4765POPC   C3A62105   7.945  28.415   7.143
 4765POPC   C4A62106   7.930  28.392   7.612
 4765POPC   C1B62107   8.264  28.319   6.244
 4765POPC   C2B62108   8.177  28.321   6.683
 4765POPC   C3B62109   8.401  28.202   7.027
 4765POPC   C4B62110   8.621  27.983   7.341
 4766POPC   NC362111  28.894  30.718   5.367
 4766POPC   PO462112  29.569  30.557   5.462
 4766POPC   GL162113  29.211  30.506   5.698
 4766POPC   GL262114  29.183  30.824   5.789
 4766POPC   C1A62115  29.131  30.494   6.148
 4766POPC   D2A62116  29.405  30.453   6.475
 4766POPC   C3A62117  29.193  30.289   6.820
 4766POPC   C4A62118  29.279  30.351   7.241
 4766POPC   C1B62119  29.018  30.998   6.169
 4766POPC   C2B62120  29.007  30.785   6.587
 4766POPC   C3B62121  28.988  30.717   7.023
 4766POPC   C4B62122  29.160  30.957   7.429
 4767POPC   NC362123  29.649  41.348   5.278
 4767POPC   PO462124  30.219  41.616   5.421
 4767POPC   GL162125  29.816  41.560   5.707
 4767POPC   GL262126  29.662  41.215   5.771
 4767POPC   C1A62127  29.639  41.615   6.137
 4767POPC   D2A62128  29.883  41.517   6.496
 4767POPC   C3A62129  29.786  41.628   6.888
 4767POPC   C4A62130  29.756  41.766   7.284
 4767POPC   C1B62131  30.039  41.246   6.060
 4767POPC   C2B62132  30.097  41.059   6.468
 4767POPC   C3B62133  29.844  41.099   6.818
 4767POPC   C4B62134  29.915  41.274   7.237
 4768POPC   NC362135   9.305  12.102   5.336
 4768POPC   PO462136   8.584  12.242   5.354
 4768POPC   GL162137   8.779  12.057   5.725
 4768POPC   GL262138   9.106  12.117   5.798
 4768POPC   C1A62139   8.808  11.879   6.149
 4768POPC   D2A62140   8.955  11.638   6.492
 4768POPC   C3A62141   8.889  11.785   6.903
 4768POPC   C4A62142   9.112  11.874   7.277
 4768POPC   C1B62143   9.105  12.301   6.200
 4768POPC   C2B62144   8.917  12.235   6.589
 4768POPC   C3B62145   9.094  12.275   6.978
 4768POPC   C4B62146   9.103  12.549   7.358
 4769POPC   NC362147  20.939  42.902   5.476
 4769POPC   PO462148  21.549  43.016   5.260
 4769POPC   GL162149  21.445  43.085   5.772
 4769POPC   GL262150  21.122  43.214   5.849
 4769POPC   C1A62151  21.447  43.395   6.192
 4769POPC   D2A62152  21.191  43.355   6.615
 4769POPC   C3A62153  21.451  43.284   6.988
 4769POPC   C4A62154  21.697  43.184   7.344
 4769POPC   C1B62155  21.164  42.979   6.245
 4769POPC   C2B62156  20.945  42.882   6.615
 4769POPC   C3B62157  21.108  42.885   7.052
 4769POPC   C4B62158  21.199  43.107   7.434
 4770POPC   NC362159  31.092  39.265   5.312
 4770POPC   PO462160  31.727  39.134   5.161
 4770POPC   GL162161  31.693  39.162   5.628
 4770POPC   GL262162  31.365  39.300   5.770
 4770POPC   C1A62163  31.732  39.178   6.107
 4770POPC   D2A62164  31.801  39.015   6.534
 4770POPC   C3A62165  31.645  39.295   6.862
 4770POPC   C4A62166  31.345  39.397   7.146
 4770POPC   C1B62167  31.206  39.014   6.105
 4770POPC   C2B62168  31.271  38.930   6.569
 4770POPC   C3B62169  31.146  38.954   7.014
 4770POPC   C4B62170  31.206  39.037   7.483
 4771POPC   NC362171   2.494  17.604   5.394
 4771POPC   PO462172   2.998  17.188   5.210
 4771POPC   GL162173   3.078  17.377   5.644
 4771POPC   GL262174   2.840  17.635   5.783
 4771POPC   C1A62175   3.144  17.316   6.098
 4771POPC   D2A62176   2.851  17.347   6.428
 4771POPC   C3A62177   3.004  17.397   6.812
 4771POPC   C4A62178   2.889  17.312   7.202
 4771POPC   C1B62179   2.749  17.800   6.212
 4771POPC   C2B62180   2.803  17.852   6.671
 4771POPC   C3B62181   2.807  17.808   7.123
 4771POPC   C4B62182   3.054  17.691   7.500
 4772POPC   NC362183   1.646  37.224   5.524
 4772POPC   PO462184   1.310  36.628   5.437
 4772POPC   GL162185   1.075  36.793   5.770
 4772POPC   GL262186   1.348  36.975   5.841
 4772POPC   C1A62187   1.023  36.955   6.207
 4772POPC   D2A62188   1.283  37.036   6.565
 4772POPC   C3A62189   1.123  36.860   6.932
 4772POPC   C4A62190   0.831  36.838   7.290
 4772POPC   C1B62191   1.388  36.614   6.135
 4772POPC   C2B62192   1.545  36.596   6.543
 4772POPC   C3B62193   1.563  36.510   6.972
 4772POPC   C4B62194   1.332  36.668   7.343
 4773POPC   NC362195  36.477  37.355   5.474
 4773POPC   PO462196  36.175  37.984   5.463
 4773POPC   GL162197  36.189  37.656   5.797
 4773POPC   GL262198  36.538  37.694   5.853
 4773POPC   C1A62199  35.999  37.457   6.191
 4773POPC   D2A62200  35.767  37.569   6.571
 4773POPC   C3A62201  35.965  37.592   6.967
 4773POPC   C4A62202  36.187  37.330   7.210
 4773POPC   C1B62203  36.516  37.488   6.224
 4773POPC   C2B62204  36.346  37.458   6.633
 4773POPC   C3B62205  36.590  37.519   7.003
 4773POPC   C4B62206  36.368  37.849   7.203
 4774POPC   NC362207  37.453  29.810   5.345
 4774POPC   PO462208  38.108  29.820   5.584
 4774POPC   GL162209  37.707  29.848   5.888
 4774POPC   GL262210  37.349  29.992   5.809
 4774POPC   C1A62211  37.655  29.843   6.367
 4774POPC   D2A62212  37.797  30.132   6.731
 4774POPC   C3A62213  37.765  29.971   7.159
 4774POPC   C4A62214  37.681  30.144   7.581
 4774POPC   C1B62215  37.214  29.701   6.122
 4774POPC   C2B62216  37.148  29.785   6.559
 4774POPC   C3B62217  37.217  29.611   6.977
 4774POPC   C4B62218  37.559  29.499   7.279
 4775POPC   NC362219   5.344  27.782   5.375
 4775POPC   PO462220   4.713  27.549   5.471
 4775POPC   GL162221   4.924  27.747   5.843
 4775POPC   GL262222   5.283  27.792   5.878
 4775POPC   C1A62223   4.890  27.865   6.296
 4775POPC   D2A62224   4.749  27.816   6.763
 4775POPC   C3A62225   4.940  27.445   7.026
 4775POPC   C4A62226   4.970  27.400   7.506
 4775POPC   C1B62227   5.429  27.872   6.284
 4775POPC   C2B62228   5.237  27.740   6.654
 4775POPC   C3B62229   5.175  27.895   7.058
 4775POPC   C4B62230   5.306  27.791   7.444
 4776POPC   NC362231  34.828  12.979   5.530
 4776POPC   PO462232  34.277  12.662   5.536
 4776POPC   GL162233  34.479  12.835   5.899
 4776POPC   GL262234  34.528  13.205   5.879
 4776POPC   C1A62235  34.510  12.776   6.341
 4776POPC   D2A62236  34.379  12.597   6.729
 4776POPC   C3A62237  34.618  12.861   6.955
 4776POPC   C4A62238  34.808  12.815   7.306
 4776POPC   C1B62239  34.864  13.123   6.174
 4776POPC   C2B62240  34.962  12.949   6.567
 4776POPC   C3B62241  35.073  13.151   6.950
 4776POPC   C4B62242  34.980  13.285   7.349
 4777POPC   NC362243  13.082   5.871   5.482
 4777POPC   PO462244  12.424   5.799   5.490
 4777POPC   GL162245  12.695   5.835   5.834
 4777POPC   GL262246  12.954   6.102   5.896
 4777POPC   C1A62247  12.640   5.932   6.255
 4777POPC   D2A62248  12.654   5.673   6.578
 4777POPC   C3A62249  12.710   5.851   6.925
 4777POPC   C4A62250  12.717   5.591   7.255
 4777POPC   C1B62251  13.136   5.775   6.157
 4777POPC   C2B62252  13.141   5.804   6.585
 4777POPC   C3B62253  13.122   5.559   6.950
 4777POPC   C4B62254  13.170   5.882   7.263
 4778POPC   NC362255  28.506  32.153   5.270
 4778POPC   PO462256  28.082  31.873   5.700
 4778POPC   GL162257  28.474  31.987   5.787
 4778POPC   GL262258  28.381  32.335   5.820
 4778POPC   C1A62259  28.516  32.022   6.227
 4778POPC   D2A62260  28.208  31.981   6.563
 4778POPC   C3A62261  28.383  32.146   6.920
 4778POPC   C4A62262  28.715  32.051   7.196
 4778POPC   C1B62263  28.047  32.311   6.185
 4778POPC   C2B62264  27.929  32.432   6.618
 4778POPC   C3B62265  28.045  32.482   7.067
 4778POPC   C4B62266  28.511  32.525   7.262
 4779POPC   NC362267  33.197  20.582   5.418
 4779POPC   PO462268  32.677  20.978   5.402
 4779POPC   GL162269  32.896  20.740   5.765
 4779POPC   GL262270  32.891  20.390   5.820
 4779POPC   C1A62271  33.249  20.633   6.090
 4779POPC   D2A62272  33.097  20.662   6.520
 4779POPC   C3A62273  33.238  20.439   6.873
 4779POPC   C4A62274  33.157  20.622   7.272
 4779POPC   C1B62275  32.951  20.255   6.248
 4779POPC   C2B62276  32.708  20.292   6.645
 4779POPC   C3B62277  32.744  20.329   7.103
 4779POPC   C4B62278  33.085  20.130   7.324
 4780POPC   NC362279  27.918  28.016   5.505
 4780POPC   PO462280  27.484  27.404   5.428
 4780POPC   GL162281  27.733  27.517   5.768
 4780POPC   GL262282  27.484  27.700   5.929
 4780POPC   C1A62283  27.957  27.380   6.154
 4780POPC   D2A62284  28.143  27.477   6.574
 4780POPC   C3A62285  27.903  27.557   6.962
 4780POPC   C4A62286  27.544  27.431   7.235
 4780POPC   C1B62287  27.172  27.629   6.279
 4780POPC   C2B62288  27.118  27.745   6.722
 4780POPC   C3B62289  27.314  27.897   7.119
 4780POPC   C4B62290  27.356  27.787   7.575
 4781POPC   NC362291  11.068  40.072   5.417
 4781POPC   PO462292  11.665  39.867   5.647
 4781POPC   GL162293  11.307  39.900   5.866
 4781POPC   GL262294  11.297  40.213   5.857
 4781POPC   C1A62295  11.277  39.897   6.309
 4781POPC   D2A62296  11.581  39.884   6.657
 4781POPC   C3A62297  11.439  39.700   7.057
 4781POPC   C4A62298  11.351  39.768   7.502
 4781POPC   C1B62299  11.285  40.429   6.233
 4781POPC   C2B62300  11.228  40.285   6.660
 4781POPC   C3B62301  11.426  40.234   7.041
 4781POPC   C4B62302  11.440  40.274   7.486
 4782POPC   NC362303  30.867  13.574   5.306
 4782POPC   PO462304  30.274  13.667   5.537
 4782POPC   GL162305  30.673  13.715   5.753
 4782POPC   GL262306  30.884  13.398   5.788
 4782POPC   C1A62307  30.652  13.830   6.163
 4782POPC   D2A62308  30.558  13.596   6.537
 4782POPC   C3A62309  30.599  13.814   6.930
 4782POPC   C4A62310  30.568  13.630   7.359
 4782POPC   C1B62311  31.061  13.440   6.220
 4782POPC   C2B62312  31.023  13.446   6.669
 4782POPC   C3B62313  30.825  13.348   7.017
 4782POPC   C4B62314  31.057  13.512   7.347
 4783POPC   NC362315  16.313  34.879   5.488
 4783POPC   PO462316  16.152  34.175   5.410
 4783POPC   GL162317  16.143  34.451   5.788
 4783POPC   GL262318  15.930  34.737   5.812
 4783POPC   C1A62319  16.042  34.354   6.238
 4783POPC   D2A62320  15.885  34.221   6.658
 4783POPC   C3A62321  16.079  34.409   7.017
 4783POPC   C4A62322  15.928  34.645   7.370
 4783POPC   C1B62323  16.194  34.845   6.180
 4783POPC   C2B62324  16.240  34.776   6.664
 4783POPC   C3B62325  16.279  34.923   7.143
 4783POPC   C4B62326  16.331  34.869   7.630
 4784POPC   NC362327  26.377  31.704   5.365
 4784POPC   PO462328  25.868  31.201   5.291
 4784POPC   GL162329  25.976  31.407   5.688
 4784POPC   GL262330  25.646  31.556   5.778
 4784POPC   C1A62331  25.920  31.377   6.158
 4784POPC   D2A62332  26.090  31.424   6.565
 4784POPC   C3A62333  26.115  31.059   6.830
 4784POPC   C4A62334  26.336  31.172   7.222
 4784POPC   C1B62335  25.700  31.846   6.178
 4784POPC   C2B62336  25.903  32.037   6.560
 4784POPC   C3B62337  25.829  31.852   6.958
 4784POPC   C4B62338  25.908  31.429   7.115
 4785POPC   NC362339  15.682  12.579   5.452
 4785POPC   PO462340  16.296  12.916   5.442
 4785POPC   GL162341  16.065  13.118   5.794
 4785POPC   GL262342  15.899  12.851   5.818
 4785POPC   C1A62343  15.890  13.159   6.227
 4785POPC   D2A62344  15.606  12.935   6.519
 4785POPC   C3A62345  15.766  12.865   6.945
 4785POPC   C4A62346  16.006  13.128   7.232
 4785POPC   C1B62347  16.288  12.789   6.099
 4785POPC   C2B62348  16.423  12.835   6.510
 4785POPC   C3B62349  16.272  12.825   6.918
 4785POPC   C4B62350  16.149  12.641   7.282
 4786POPC   NC362351   5.731  14.031   5.350
 4786POPC   PO462352   5.898  14.714   5.418
 4786POPC   GL162353   5.967  14.506   5.804
 4786POPC   GL262354   5.840  14.165   5.826
 4786POPC   C1A62355   6.022  14.602   6.244
 4786POPC   D2A62356   5.892  14.652   6.668
 4786POPC   C3A62357   5.903  14.298   6.923
 4786POPC   C4A62358   5.978  14.404   7.325
 4786POPC   C1B62359   5.567  14.356   6.153
 4786POPC   C2B62360   5.448  14.386   6.610
 4786POPC   C3B62361   5.490  14.589   7.029
 4786POPC   C4B62362   5.481  14.365   7.416
 4787POPC   NC362363  26.714  41.191   5.399
 4787POPC   PO462364  26.885  40.550   5.421
 4787POPC   GL162365  26.662  40.678   5.760
 4787POPC   GL262366  26.838  40.975   5.844
 4787POPC   C1A62367  26.493  40.661   6.151
 4787POPC   D2A62368  26.380  40.525   6.530
 4787POPC   C3A62369  26.539  40.387   6.905
 4787POPC   C4A62370  26.574  40.653   7.245
 4787POPC   C1B62371  26.950  40.872   6.273
 4787POPC   C2B62372  26.789  40.800   6.689
 4787POPC   C3B62373  26.739  41.078   7.025
 4787POPC   C4B62374  27.073  40.944   7.264
 4788POPC   NC362375   5.169  15.664   5.202
 4788POPC   PO462376   4.939  14.994   5.377
 4788POPC   GL162377   5.098  15.172   5.730
 4788POPC   GL262378   5.150  14.861   5.888
 4788POPC   C1A62379   5.314  15.292   6.124
 4788POPC   D2A62380   5.137  15.269   6.520
 4788POPC   C3A62381   5.173  15.517   6.881
 4788POPC   C4A62382   5.060  15.430   7.290
 4788POPC   C1B62383   5.192  14.698   6.277
 4788POPC   C2B62384   5.117  14.785   6.701
 4788POPC   C3B62385   5.022  14.929   7.098
 4788POPC   C4B62386   5.189  14.779   7.457
 4789POPC   NC362387  11.950  18.969   4.830
 4789POPC   PO462388  12.212  19.066   5.444
 4789POPC   GL162389  11.910  19.101   5.774
 4789POPC   GL262390  11.766  19.448   5.832
 4789POPC   C1A62391  12.146  18.997   6.162
 4789POPC   D2A62392  12.314  18.643   6.387
 4789POPC   C3A62393  12.220  18.705   6.823
 4789POPC   C4A62394  12.394  18.949   7.191
 4789POPC   C1B62395  11.687  19.167   6.224
 4789POPC   C2B62396  11.913  19.155   6.652
 4789POPC   C3B62397  11.962  19.306   7.094
 4789POPC   C4B62398  11.746  19.494   7.468
 4790POPC   NC362399   6.620  36.972   5.357
 4790POPC   PO462400   6.020  36.675   5.225
 4790POPC   GL162401   6.289  36.706   5.656
 4790POPC   GL262402   6.388  37.054   5.798
 4790POPC   C1A62403   6.461  36.669   6.103
 4790POPC   D2A62404   6.290  36.690   6.517
 4790POPC   C3A62405   6.584  36.707   6.821
 4790POPC   C4A62406   6.674  36.802   7.235
 4790POPC   C1B62407   6.680  37.146   6.144
 4790POPC   C2B62408   6.920  36.987   6.506
 4790POPC   C3B62409   6.946  37.107   6.951
 4790POPC   C4B62410   6.596  37.301   7.200
 4791POPC   NC362411  32.214  31.789   5.397
 4791POPC   PO462412  32.427  32.397   5.269
 4791POPC   GL162413  32.388  32.325   5.720
 4791POPC   GL262414  32.703  32.325   5.904
 4791POPC   C1A62415  32.168  32.070   6.071
 4791POPC   D2A62416  31.989  32.027   6.505
 4791POPC   C3A62417  32.296  32.104   6.849
 4791POPC   C4A62418  32.245  32.269   7.292
 4791POPC   C1B62419  32.584  32.220   6.344
 4791POPC   C2B62420  32.670  32.430   6.729
 4791POPC   C3B62421  32.704  32.432   7.192
 4791POPC   C4B62422  32.575  32.490   7.648
 4792POPC   NC362423  24.541  13.327   5.434
 4792POPC   PO462424  24.261  13.901   5.250
 4792POPC   GL162425  24.354  13.770   5.717
 4792POPC   GL262426  24.665  13.682   5.834
 4792POPC   C1A62427  24.286  13.793   6.171
 4792POPC   D2A62428  24.510  13.600   6.523
 4792POPC   C3A62429  24.228  13.579   6.902
 4792POPC   C4A62430  24.202  13.811   7.302
 4792POPC   C1B62431  24.750  14.018   6.200
 4792POPC   C2B62432  24.937  13.936   6.619
 4792POPC   C3B62433  24.710  13.744   6.978
 4792POPC   C4B62434  24.700  13.865   7.398
 4793POPC   NC362435  10.652   7.210   5.485
 4793POPC   PO462436  10.200   7.711   5.468
 4793POPC   GL162437  10.252   7.410   5.801
 4793POPC   GL262438  10.579   7.375   5.961
 4793POPC   C1A62439  10.201   7.618   6.211
 4793POPC   D2A62440  10.460   7.686   6.586
 4793POPC   C3A62441  10.250   7.621   6.969
 4793POPC   C4A62442   9.936   7.630   7.245
 4793POPC   C1B62443  10.348   7.144   6.275
 4793POPC   C2B62444  10.481   7.189   6.717
 4793POPC   C3B62445  10.663   7.388   7.096
 4793POPC   C4B62446  10.340   7.321   7.404
 4794POPC   NC362447  19.790  16.730   5.384
 4794POPC   PO462448  20.486  16.747   5.335
 4794POPC   GL162449  20.203  16.771   5.740
 4794POPC   GL262450  19.886  16.602   5.853
 4794POPC   C1A62451  20.125  16.867   6.214
 4794POPC   D2A62452  19.949  16.625   6.594
 4794POPC   C3A62453  19.985  16.751   7.017
 4794POPC   C4A62454  19.958  16.531   7.400
 4794POPC   C1B62455  19.625  16.681   6.210
 4794POPC   C2B62456  19.483  16.915   6.548
 4794POPC   C3B62457  19.472  16.998   6.971
 4794POPC   C4B62458  19.702  16.959   7.427
 4795POPC   NC362459  11.467   7.143   5.435
 4795POPC   PO462460  10.960   7.538   5.650
 4795POPC   GL162461  11.204   7.241   5.865
 4795POPC   GL262462  11.534   7.393   5.869
 4795POPC   C1A62463  11.238   7.286   6.297
 4795POPC   D2A62464  10.998   7.384   6.693
 4795POPC   C3A62465  11.108   7.115   7.042
 4795POPC   C4A62466  11.549   7.003   7.097
 4795POPC   C1B62467  11.487   7.751   6.174
 4795POPC   C2B62468  11.556   7.790   6.633
 4795POPC   C3B62469  11.437   7.520   7.003
 4795POPC   C4B62470  11.088   7.585   7.288
 4796POPC   NC362471   1.954  35.727   5.360
 4796POPC   PO462472   1.686  35.031   5.396
 4796POPC   GL162473   1.763  35.138   5.791
 4796POPC   GL262474   1.871  35.481   5.837
 4796POPC   C1A62475   1.977  35.060   6.151
 4796POPC   D2A62476   2.165  35.081   6.522
 4796POPC   C3A62477   2.029  35.103   6.917
 4796POPC   C4A62478   2.150  35.139   7.322
 4796POPC   C1B62479   2.111  35.574   6.240
 4796POPC   C2B62480   2.330  35.535   6.661
 4796POPC   C3B62481   2.271  35.573   7.096
 4796POPC   C4B62482   2.042  35.601   7.515
 4797POPC   NC362483  41.048  29.271   5.271
 4797POPC   PO462484  40.815  28.772   5.588
 4797POPC   GL162485  40.793  29.193   5.786
 4797POPC   GL262486  41.128  29.308   5.790
 4797POPC   C1A62487  40.599  29.248   6.200
 4797POPC   D2A62488  40.748  29.125   6.622
 4797POPC   C3A62489  40.527  29.242   7.000
 4797POPC   C4A62490  40.375  28.982   7.311
 4797POPC   C1B62491  41.097  29.043   6.200
 4797POPC   C2B62492  41.259  29.077   6.643
 4797POPC   C3B62493  41.068  29.238   7.027
 4797POPC   C4B62494  40.870  29.145   7.422
 4798POPC   NC362495  19.282  37.209   5.190
 4798POPC   PO462496  18.581  37.174   5.467
 4798POPC   GL162497  18.900  37.219   5.869
 4798POPC   GL262498  19.257  37.287   5.772
 4798POPC   C1A62499  19.092  36.990   6.281
 4798POPC   D2A62500  19.141  36.675   6.659
 4798POPC   C3A62501  18.822  36.692   7.022
 4798POPC   C4A62502  18.671  36.581   7.450
 4798POPC   C1B62503  19.233  37.468   6.205
 4798POPC   C2B62504  19.110  37.388   6.650
 4798POPC   C3B62505  19.251  37.076   6.969
 4798POPC   C4B62506  19.302  36.678   7.174
 4799POPC   NC362507  42.270  40.432   5.136
 4799POPC   PO462508  41.910  40.892   5.125
 4799POPC   GL162509  42.176  40.676   5.576
 4799POPC   GL262510  42.493  40.803   5.707
 4799POPC   C1A62511  42.190  40.711   6.105
 4799POPC   D2A62512  42.508  40.866   6.444
 4799POPC   C3A62513  42.399  40.916   6.898
 4799POPC   C4A62514  42.107  40.808   7.262
 4799POPC   C1B62515  42.638  40.479   6.085
 4799POPC   C2B62516  42.633  40.362   6.538
 4799POPC   C3B62517  42.728  40.280   6.974
 4799POPC   C4B62518  42.589  40.593   7.273
 4800POPC   NC362519  32.665  18.176   5.222
 4800POPC   PO462520  33.238  18.479   5.333
 4800POPC   GL162521  33.003  18.198   5.673
 4800POPC   GL262522  32.660  18.295   5.830
 4800POPC   C1A62523  33.017  18.071   6.131
 4800POPC   D2A62524  33.168  18.288   6.533
 4800POPC   C3A62525  33.208  18.088   6.958
 4800POPC   C4A62526  33.093  18.044   7.418
 4800POPC   C1B62527  32.758  18.494   6.271
 4800POPC   C2B62528  32.679  18.430   6.715
 4800POPC   C3B62529  32.810  18.377   7.159
 4800POPC   C4B62530  32.602  18.590   7.511
 4801POPC   NC362531  40.579   9.572   5.296
 4801POPC   PO462532  41.079   9.808   5.322
 4801POPC   GL162533  40.775   9.801   5.721
 4801POPC   GL262534  40.510   9.541   5.817
 4801POPC   C1A62535  40.685   9.845   6.201
 4801POPC   D2A62536  40.815   9.818   6.656
 4801POPC   C3A62537  40.561   9.909   7.031
 4801POPC   C4A62538  40.773   9.970   7.419
 4801POPC   C1B62539  40.312   9.484   6.267
 4801POPC   C2B62540  40.427   9.484   6.753
 4801POPC   C3B62541  40.616   9.462   7.213
 4801POPC   C4B62542  40.438   9.651   7.631
 4802POPC   NC362543  24.407   3.257   5.449
 4802POPC   PO462544  24.420   3.893   5.348
 4802POPC   GL162545  24.357   3.693   5.777
 4802POPC   GL262546  24.154   3.372   5.850
 4802POPC   C1A62547  24.517   3.547   6.200
 4802POPC   D2A62548  24.562   3.773   6.603
 4802POPC   C3A62549  24.548   3.620   7.034
 4802POPC   C4A62550  24.561   3.857   7.411
 4802POPC   C1B62551  24.103   3.219   6.232
 4802POPC   C2B62552  24.195   3.386   6.630
 4802POPC   C3B62553  24.203   3.255   7.055
 4802POPC   C4B62554  24.270   3.360   7.473
 4803POPC   NC362555  42.746  21.959   5.284
 4803POPC   PO462556  42.282  22.330   5.486
 4803POPC   GL162557  42.462  22.051   5.760
 4803POPC   GL262558  42.361  21.767   5.617
 4803POPC   C1A62559  42.378  22.081   6.196
 4803POPC   D2A62560  42.351  22.394   6.520
 4803POPC   C3A62561  42.325  22.242   6.927
 4803POPC   C4A62562  42.402  22.416   7.310
 4803POPC   C1B62563  42.302  21.597   6.020
 4803POPC   C2B62564  42.349  21.608   6.486
 4803POPC   C3B62565  42.529  21.734   6.916
 4803POPC   C4B62566  42.406  21.909   7.320
 4804POPC   NC362567   6.982  11.182   5.558
 4804POPC   PO462568   7.659  10.995   5.472
 4804POPC   GL162569   7.724  11.203   5.873
 4804POPC   GL262570   7.397  11.314   5.856
 4804POPC   C1A62571   7.681  11.510   6.240
 4804POPC   D2A62572   7.438  11.769   6.569
 4804POPC   C3A62573   7.556  11.580   6.968
 4804POPC   C4A62574   7.618  11.168   7.161
 4804POPC   C1B62575   7.160  11.518   6.185
 4804POPC   C2B62576   6.952  11.540   6.603
 4804POPC   C3B62577   7.068  11.370   6.995
 4804POPC   C4B62578   7.127  11.199   7.398
 4805POPC   NC362579  13.551  16.459   5.225
 4805POPC   PO462580  13.684  17.057   5.339
 4805POPC   GL162581  13.507  16.920   5.728
 4805POPC   GL262582  13.455  16.561   5.758
 4805POPC   C1A62583  13.442  16.918   6.178
 4805POPC   D2A62584  13.593  16.975   6.587
 4805POPC   C3A62585  13.306  17.081   6.899
 4805POPC   C4A62586  13.385  16.899   7.305
 4805POPC   C1B62587  13.634  16.433   6.200
 4805POPC   C2B62588  13.761  16.466   6.663
 4805POPC   C3B62589  13.680  16.522   7.113
 4805POPC   C4B62590  13.361  16.337   7.453
 4806POPC   NC362591  31.335   9.137   5.333
 4806POPC   PO462592  30.855   8.709   5.485
 4806POPC   GL162593  30.720   9.091   5.720
 4806POPC   GL262594  30.941   9.386   5.788
 4806POPC   C1A62595  30.669   9.185   6.186
 4806POPC   D2A62596  30.838   9.097   6.620
 4806POPC   C3A62597  30.656   9.202   7.061
 4806POPC   C4A62598  30.556   8.952   7.476
 4806POPC   C1B62599  30.991   9.589   6.249
 4806POPC   C2B62600  30.901   9.605   6.724
 4806POPC   C3B62601  30.970   9.599   7.194
 4806POPC   C4B62602  30.851   9.355   7.548
 4807POPC   NC362603  15.705  10.765   5.583
 4807POPC   PO462604  16.275  10.571   5.190
 4807POPC   GL162605  16.257  10.717   5.641
 4807POPC   GL262606  16.098  10.439   5.795
 4807POPC   C1A62607  16.174  10.868   6.108
 4807POPC   D2A62608  16.032  10.760   6.549
 4807POPC   C3A62609  15.721  10.932   6.828
 4807POPC   C4A62610  15.670  10.785   7.244
 4807POPC   C1B62611  15.920  10.393   6.192
 4807POPC   C2B62612  15.946  10.273   6.611
 4807POPC   C3B62613  15.954  10.449   6.995
 4807POPC   C4B62614  15.972  10.198   7.338
 4808POPC   NC362615  33.099  34.244   5.451
 4808POPC   PO462616  32.929  34.879   5.564
 4808POPC   GL162617  33.113  34.631   5.810
 4808POPC   GL262618  32.834  34.415   5.866
 4808POPC   C1A62619  33.226  34.580   6.213
 4808POPC   D2A62620  33.005  34.454   6.563
 4808POPC   C3A62621  33.071  34.681   6.933
 4808POPC   C4A62622  33.295  34.493   7.229
 4808POPC   C1B62623  32.614  34.293   6.238
 4808POPC   C2B62624  32.530  34.319   6.684
 4808POPC   C3B62625  32.828  34.230   7.018
 4808POPC   C4B62626  32.849  34.359   7.424
 4809POPC   NC362627   2.228   5.965   5.489
 4809POPC   PO462628   1.823   5.415   5.277
 4809POPC   GL162629   1.829   5.638   5.753
 4809POPC   GL262630   1.868   6.016   5.835
 4809POPC   C1A62631   2.013   5.671   6.174
 4809POPC   D2A62632   2.249   5.866   6.496
 4809POPC   C3A62633   2.110   5.664   6.878
 4809POPC   C4A62634   1.815   5.829   7.167
 4809POPC   C1B62635   1.965   6.248   6.242
 4809POPC   C2B62636   2.139   6.319   6.696
 4809POPC   C3B62637   2.230   6.118   7.081
 4809POPC   C4B62638   2.181   6.192   7.531
 4810POPC   NC362639  15.801  29.946   5.458
 4810POPC   PO462640  16.384  29.678   5.632
 4810POPC   GL162641  16.093  29.845   5.888
 4810POPC   GL262642  16.044  30.202   5.857
 4810POPC   C1A62643  15.715  29.798   6.128
 4810POPC   D2A62644  15.634  30.051   6.472
 4810POPC   C3A62645  15.827  29.979   6.840
 4810POPC   C4A62646  15.988  30.193   7.169
 4810POPC   C1B62647  16.134  30.105   6.312
 4810POPC   C2B62648  16.093  29.664   6.468
 4810POPC   C3B62649  15.879  29.479   6.812
 4810POPC   C4B62650  16.034  29.671   7.216
 4811POPC   NC362651  10.703  25.531   5.117
 4811POPC   PO462652  10.399  25.996   5.514
 4811POPC   GL162653  10.517  26.091   5.906
 4811POPC   GL262654  10.367  25.776   6.004
 4811POPC   C1A62655  10.324  26.206   6.287
 4811POPC   D2A62656  10.451  26.216   6.695
 4811POPC   C3A62657  10.215  26.092   7.005
 4811POPC   C4A62658  10.353  26.078   7.427
 4811POPC   C1B62659  10.628  25.806   6.339
 4811POPC   C2B62660  10.564  25.693   6.732
 4811POPC   C3B62661  10.663  25.880   7.064
 4811POPC   C4B62662  10.969  25.931   7.303
 4812POPC   NC362663  34.516  22.397   5.433
 4812POPC   PO462664  34.948  21.824   5.290
 4812POPC   GL162665  34.827  22.063   5.678
 4812POPC   GL262666  34.480  22.022   5.826
 4812POPC   C1A62667  34.866  22.205   6.115
 4812POPC   D2A62668  34.583  22.138   6.478
 4812POPC   C3A62669  34.697  22.207   6.901
 4812POPC   C4A62670  34.875  22.108   7.297
 4812POPC   C1B62671  34.397  22.427   6.097
 4812POPC   C2B62672  34.358  22.620   6.538
 4812POPC   C3B62673  34.361  22.619   7.001
 4812POPC   C4B62674  34.382  22.293   7.316
 4813POPC   NC362675  19.123  43.521   5.140
 4813POPC   PO462676  18.937  43.016   5.614
 4813POPC   GL162677  18.968  43.220   5.986
 4813POPC   GL262678  19.289  43.117   6.042
 4813POPC   C1A62679  19.111  43.525   6.277
 4813POPC   D2A62680  18.865  43.461   6.607
 4813POPC   C3A62681  19.103  43.433   6.933
 4813POPC   C4A62682  19.111  43.119   7.220
 4813POPC   C1B62683  19.179  42.897   6.373
 4813POPC   C2B62684  18.970  42.923   6.745
 4813POPC   C3B62685  19.139  42.653   7.020
 4813POPC   C4B62686  19.519  42.714   7.235
 4814POPC   NC362687  19.064  27.183   5.495
 4814POPC   PO462688  18.807  26.571   5.406
 4814POPC   GL162689  18.740  26.772   5.791
 4814POPC   GL262690  19.106  26.833   5.867
 4814POPC   C1A62691  18.821  26.595   6.217
 4814POPC   D2A62692  19.084  26.714   6.544
 4814POPC   C3A62693  18.953  26.858   6.929
 4814POPC   C4A62694  19.209  26.716   7.276
 4814POPC   C1B62695  19.005  27.132   6.220
 4814POPC   C2B62696  19.225  27.217   6.642
 4814POPC   C3B62697  19.130  27.310   7.053
 4814POPC   C4B62698  18.929  27.138   7.409
 4815POPC   NC362699  29.975  13.329   5.504
 4815POPC   PO462700  29.916  12.657   5.287
 4815POPC   GL162701  29.823  12.861   5.708
 4815POPC   GL262702  30.174  12.895   5.750
 4815POPC   C1A62703  29.683  13.093   6.117
 4815POPC   D2A62704  29.747  12.897   6.541
 4815POPC   C3A62705  29.841  13.081   6.919
 4815POPC   C4A62706  29.878  12.963   7.320
 4815POPC   C1B62707  30.104  12.812   6.184
 4815POPC   C2B62708  30.276  12.825   6.606
 4815POPC   C3B62709  30.078  12.625   6.942
 4815POPC   C4B62710  30.090  12.458   7.342
 4816POPC   NC362711  20.193   1.871   5.582
 4816POPC   PO462712  19.677   2.299   5.449
 4816POPC   GL162713  19.700   2.068   5.795
 4816POPC   GL262714  19.976   2.215   5.900
 4816POPC   C1A62715  19.651   2.055   6.244
 4816POPC   D2A62716  19.843   2.094   6.631
 4816POPC   C3A62717  19.563   1.910   6.942
 4816POPC   C4A62718  19.577   1.842   7.358
 4816POPC   C1B62719  20.227   2.070   6.243
 4816POPC   C2B62720  20.352   1.895   6.628
 4816POPC   C3B62721  20.150   1.907   7.018
 4816POPC   C4B62722  19.901   2.230   7.162
 4817POPC   NC362723  26.364   0.714   5.261
 4817POPC   PO462724  25.951   0.137   5.329
 4817POPC   GL162725  26.084   0.325   5.748
 4817POPC   GL262726  25.895   0.635   5.839
 4817POPC   C1A62727  26.217   0.451   6.201
 4817POPC   D2A62728  26.475   0.244   6.564
 4817POPC   C3A62729  26.311   0.301   6.997
 4817POPC   C4A62730  25.980   0.627   7.094
 4817POPC   C1B62731  25.644   0.475   6.225
 4817POPC   C2B62732  25.517   0.319   6.665
 4817POPC   C3B62733  25.672   0.211   7.096
 4817POPC   C4B62734  25.772   0.238   7.544
 4818POPC   NC362735   2.518  25.584   5.269
 4818POPC   PO462736   2.852  25.005   5.241
 4818POPC   GL162737   2.676  25.247   5.638
 4818POPC   GL262738   2.895  25.439   5.846
 4818POPC   C1A62739   2.514  25.172   6.101
 4818POPC   D2A62740   2.565  24.972   6.542
 4818POPC   C3A62741   2.643  25.262   6.849
 4818POPC   C4A62742   2.533  25.412   7.236
 4818POPC   C1B62743   3.071  25.645   6.211
 4818POPC   C2B62744   3.028  25.531   6.658
 4818POPC   C3B62745   2.938  25.705   7.075
 4818POPC   C4B62746   3.166  25.784   7.461
 4819POPC   NC362747   7.472  18.669   5.363
 4819POPC   PO462748   7.121  19.236   5.511
 4819POPC   GL162749   7.376  18.983   5.804
 4819POPC   GL262750   7.290  18.647   5.921
 4819POPC   C1A62751   7.644  18.943   6.181
 4819POPC   D2A62752   7.709  18.780   6.603
 4819POPC   C3A62753   7.487  18.927   6.957
 4819POPC   C4A62754   7.517  19.165   7.355
 4819POPC   C1B62755   7.225  18.610   6.390
 4819POPC   C2B62756   7.027  18.617   6.812
 4819POPC   C3B62757   7.161  18.630   7.235
 4819POPC   C4B62758   7.361  18.780   7.635
 4820POPC   NC362759  38.113  13.657   5.500
 4820POPC   PO462760  38.711  13.838   5.367
 4820POPC   GL162761  38.604  13.525   5.716
 4820POPC   GL262762  38.868  13.247   5.797
 4820POPC   C1A62763  38.286  13.551   6.108
 4820POPC   D2A62764  38.278  13.815   6.475
 4820POPC   C3A62765  38.232  13.655   6.891
 4820POPC   C4A62766  38.200  13.484   7.279
 4820POPC   C1B62767  38.737  13.378   6.203
 4820POPC   C2B62768  38.518  13.317   6.603
 4820POPC   C3B62769  38.674  13.345   7.017
 4820POPC   C4B62770  38.749  13.726   7.214
 4821POPC   NC362771  28.481  29.626   5.576
 4821POPC   PO462772  28.661  30.325   5.442
 4821POPC   GL162773  28.406  30.097   5.758
 4821POPC   GL262774  28.047  29.986   5.760
 4821POPC   C1A62775  28.346  29.875   6.169
 4821POPC   D2A62776  28.239  30.066   6.555
 4821POPC   C3A62777  28.278  29.738   6.841
 4821POPC   C4A62778  28.448  29.827   7.221
 4821POPC   C1B62779  27.853  29.972   6.183
 4821POPC   C2B62780  27.793  29.774   6.600
 4821POPC   C3B62781  27.863  29.970   7.000
 4821POPC   C4B62782  28.107  30.155   7.355
 4822POPC   NC362783   3.161  11.420   5.126
 4822POPC   PO462784   3.780  11.211   5.201
 4822POPC   GL162785   3.747  11.287   5.694
 4822POPC   GL262786   3.995  11.055   5.885
 4822POPC   C1A62787   3.465  11.528   6.029
 4822POPC   D2A62788   3.444  11.689   6.483
 4822POPC   C3A62789   3.339  11.434   6.859
 4822POPC   C4A62790   3.457  11.229   7.266
 4822POPC   C1B62791   3.908  11.353   6.206
 4822POPC   C2B62792   3.750  11.289   6.592
 4822POPC   C3B62793   3.875  11.406   6.983
 4822POPC   C4B62794   3.950  11.241   7.382
 4823POPC   NC362795  42.693  16.208   5.334
 4823POPC   PO462796  42.307  15.779   5.341
 4823POPC   GL162797  42.555  15.754   5.690
 4823POPC   GL262798  42.670  16.070   5.842
 4823POPC   C1A62799  42.505  15.607   6.102
 4823POPC   D2A62800  42.370  15.608   6.552
 4823POPC   C3A62801  42.687  15.785   6.841
 4823POPC   C4A62802  42.411  15.982   7.141
 4823POPC   C1B62803  42.659  16.230   6.283
 4823POPC   C2B62804  42.541  16.270   6.733
 4823POPC   C3B62805  42.502  16.508   7.139
 4823POPC   C4B62806  42.197  16.464   7.487
 4824POPC   NC362807  33.568  41.332   5.539
 4824POPC   PO462808  34.108  41.801   5.518
 4824POPC   GL162809  34.002  41.519   5.843
 4824POPC   GL262810  34.294  41.291   5.893
 4824POPC   C1A62811  33.695  41.575   6.187
 4824POPC   D2A62812  33.645  41.863   6.562
 4824POPC   C3A62813  33.533  41.702   6.958
 4824POPC   C4A62814  33.496  41.842   7.381
 4824POPC   C1B62815  34.053  41.196   6.255
 4824POPC   C2B62816  33.877  41.364   6.626
 4824POPC   C3B62817  34.068  41.671   6.831
 4824POPC   C4B62818  34.167  41.684   7.235
 4825POPC   NC362819   8.761  37.540   5.326
 4825POPC   PO462820   9.347  37.270   5.295
 4825POPC   GL162821   9.157  37.529   5.724
 4825POPC   GL262822   8.788  37.670   5.834
 4825POPC   C1A62823   9.099  37.595   6.226
 4825POPC   D2A62824   9.141  37.772   6.671
 4825POPC   C3A62825   9.293  37.565   7.079
 4825POPC   C4A62826   9.216  37.609   7.555
 4825POPC   C1B62827   8.679  37.876   6.284
 4825POPC   C2B62828   8.654  37.914   6.760
 4825POPC   C3B62829   8.823  37.723   7.135
 4825POPC   C4B62830   8.824  37.923   7.565
 4826POPC   NC362831   3.167  42.398   5.042
 4826POPC   PO462832   3.585  42.086   5.540
 4826POPC   GL162833   3.492  42.360   5.853
 4826POPC   GL262834   3.152  42.486   5.921
 4826POPC   C1A62835   3.548  42.483   6.254
 4826POPC   D2A62836   3.470  42.259   6.628
 4826POPC   C3A62837   3.762  42.407   6.876
 4826POPC   C4A62838   3.861  42.513   7.267
 4826POPC   C1B62839   3.048  42.324   6.294
 4826POPC   C2B62840   3.096  42.596   6.654
 4826POPC   C3B62841   3.306  42.672   7.039
 4826POPC   C4B62842   3.398  42.313   7.256
 4827POPC   NC362843  23.295  36.701   5.468
 4827POPC   PO462844  22.863  37.134   5.352
 4827POPC   GL162845  22.923  36.964   5.744
 4827POPC   GL262846  23.212  37.180   5.758
 4827POPC   C1A62847  23.018  36.717   6.114
 4827POPC   D2A62848  23.071  36.860   6.523
 4827POPC   C3A62849  22.911  36.720   6.881
 4827POPC   C4A62850  22.864  37.021   7.190
 4827POPC   C1B62851  23.352  37.114   6.171
 4827POPC   C2B62852  23.559  36.995   6.559
 4827POPC   C3B62853  23.446  36.764   6.928
 4827POPC   C4B62854  23.384  36.935   7.327
 4828POPC   NC362855  39.381  21.360   5.328
 4828POPC   PO462856  40.048  21.373   5.447
 4828POPC   GL162857  40.119  21.482   5.869
 4828POPC   GL262858  40.055  21.804   5.921
 4828POPC   C1A62859  40.219  21.568   6.334
 4828POPC   D2A62860  40.052  21.793   6.706
 4828POPC   C3A62861  40.081  21.536   7.083
 4828POPC   C4A62862  40.277  21.395   7.479
 4828POPC   C1B62863  39.726  21.731   6.269
 4828POPC   C2B62864  39.601  21.551   6.703
 4828POPC   C3B62865  39.594  21.410   7.137
 4828POPC   C4B62866  39.760  21.489   7.559
 4829POPC   NC362867   4.804  44.630   5.392
 4829POPC   PO462868   5.323   0.096   5.446
 4829POPC   GL162869   5.177  44.814   5.780
 4829POPC   GL262870   4.905  44.614   5.879
 4829POPC   C1A62871   5.333  44.570   6.146
 4829POPC   D2A62872   5.156  44.404   6.503
 4829POPC   C3A62873   5.368  44.496   6.912
 4829POPC   C4A62874   5.149  44.665   7.262
 4829POPC   C1B62875   4.739  44.282   6.130
 4829POPC   C2B62876   4.635  44.286   6.571
 4829POPC   C3B62877   4.871  44.326   6.959
 4829POPC   C4B62878   4.779  44.237   7.399
 4830POPC   NC362879  20.250  36.193   5.508
 4830POPC   PO462880  19.569  36.014   5.368
 4830POPC   GL162881  19.720  35.823   5.755
 4830POPC   GL262882  20.048  35.928   5.885
 4830POPC   C1A62883  19.672  35.942   6.208
 4830POPC   D2A62884  19.636  36.235   6.517
 4830POPC   C3A62885  19.904  36.103   6.829
 4830POPC   C4A62886  19.981  36.022   7.238
 4830POPC   C1B62887  20.116  36.155   6.320
 4830POPC   C2B62888  20.056  36.515   6.564
 4830POPC   C3B62889  20.058  36.567   6.979
 4830POPC   C4B62890  20.217  36.442   7.349
 4831POPC   NC362891   3.950  40.902   5.478
 4831POPC   PO462892   3.268  40.548   5.496
 4831POPC   GL162893   3.565  40.713   5.811
 4831POPC   GL262894   3.921  40.592   5.879
 4831POPC   C1A62895   3.611  40.931   6.168
 4831POPC   D2A62896   3.400  41.071   6.518
 4831POPC   C3A62897   3.592  40.940   6.884
 4831POPC   C4A62898   3.591  40.776   7.264
 4831POPC   C1B62899   3.806  40.475   6.315
 4831POPC   C2B62900   3.819  40.505   6.784
 4831POPC   C3B62901   4.037  40.561   7.187
 4831POPC   C4B62902   3.939  40.552   7.606
 4832POPC   NC362903  43.985   3.620   5.133
 4832POPC   PO462904  44.161   3.234   5.669
 4832POPC   GL162905  43.900   3.592   5.818
 4832POPC   GL262906  43.544   3.668   5.835
 4832POPC   C1A62907  43.903   3.808   6.208
 4832POPC   D2A62908  43.821   3.694   6.638
 4832POPC   C3A62909  44.070   3.451   6.899
 4832POPC   C4A62910  44.149   3.711   7.266
 4832POPC   C1B62911  43.553   3.416   6.240
 4832POPC   C2B62912  43.535   3.285   6.692
 4832POPC   C3B62913  43.606   3.509   7.105
 4832POPC   C4B62914  43.439   3.418   7.508
 4833POPC   NC362915  29.508  24.750   5.447
 4833POPC   PO462916  30.123  24.534   5.284
 4833POPC   GL162917  29.950  24.650   5.679
 4833POPC   GL262918  29.780  24.386   5.848
 4833POPC   C1A62919  29.975  24.861   6.079
 4833POPC   D2A62920  30.118  24.814   6.510
 4833POPC   C3A62921  29.806  24.741   6.829
 4833POPC   C4A62922  29.922  24.761   7.244
 4833POPC   C1B62923  30.206  24.335   6.009
 4833POPC   C2B62924  30.363  24.344   6.431
 4833POPC   C3B62925  30.091  24.313   6.775
 4833POPC   C4B62926  30.159  24.314   7.218
 4834POPC   NC362927  18.668  17.847   5.440
 4834POPC   PO462928  18.147  18.348   5.428
 4834POPC   GL162929  18.301  18.209   5.809
 4834POPC   GL262930  18.635  18.262   5.796
 4834POPC   C1A62931  18.149  18.039   6.214
 4834POPC   D2A62932  17.962  18.143   6.618
 4834POPC   C3A62933  18.052  18.164   7.066
 4834POPC   C4A62934  18.185  18.262   7.499
 4834POPC   C1B62935  18.641  18.084   6.230
 4834POPC   C2B62936  18.478  18.084   6.677
 4834POPC   C3B62937  18.522  18.356   7.052
 4834POPC   C4B62938  18.673  18.268   7.460
 4835POPC   NC362939  29.256  32.464   5.289
 4835POPC   PO462940  29.002  31.903   5.309
 4835POPC   GL162941  28.967  32.172   5.710
 4835POPC   GL262942  29.294  32.291   5.773
 4835POPC   C1A62943  28.957  32.307   6.195
 4835POPC   D2A62944  28.861  32.103   6.610
 4835POPC   C3A62945  29.153  32.155   6.948
 4835POPC   C4A62946  29.066  32.447   7.236
 4835POPC   C1B62947  29.478  32.408   6.153
 4835POPC   C2B62948  29.319  32.463   6.564
 4835POPC   C3B62949  29.513  32.525   6.963
 4835POPC   C4B62950  29.521  32.257   7.344
 4836POPC   NC362951   7.395   7.154   5.391
 4836POPC   PO462952   7.895   7.638   5.460
 4836POPC   GL162953   7.709   7.365   5.761
 4836POPC   GL262954   7.374   7.511   5.790
 4836POPC   C1A62955   7.614   7.287   6.188
 4836POPC   D2A62956   7.533   7.560   6.506
 4836POPC   C3A62957   7.135   7.566   6.711
 4836POPC   C4A62958   7.055   7.339   7.092
 4836POPC   C1B62959   7.480   7.865   6.084
 4836POPC   C2B62960   7.362   8.058   6.489
 4836POPC   C3B62961   7.498   7.881   6.909
 4836POPC   C4B62962   7.576   7.435   7.003
 4837POPC   NC362963  28.959   1.850   5.580
 4837POPC   PO462964  29.068   2.469   5.364
 4837POPC   GL162965  28.934   2.296   5.821
 4837POPC   GL262966  29.171   2.021   6.003
 4837POPC   C1A62967  28.726   2.119   6.217
 4837POPC   D2A62968  28.773   1.868   6.609
 4837POPC   C3A62969  28.896   1.989   7.052
 4837POPC   C4A62970  28.695   2.221   7.358
 4837POPC   C1B62971  29.009   1.597   6.185
 4837POPC   C2B62972  29.033   1.418   6.593
 4837POPC   C3B62973  29.221   1.616   6.943
 4837POPC   C4B62974  29.340   1.756   7.348
 4838POPC   NC362975  16.263  27.345   5.291
 4838POPC   PO462976  15.859  27.826   5.207
 4838POPC   GL162977  16.089  27.714   5.627
 4838POPC   GL262978  16.097  27.347   5.773
 4838POPC   C1A62979  15.963  27.715   6.090
 4838POPC   D2A62980  16.130  27.849   6.492
 4838POPC   C3A62981  15.988  27.718   6.889
 4838POPC   C4A62982  15.971  27.892   7.289
 4838POPC   C1B62983  16.364  27.366   6.162
 4838POPC   C2B62984  16.266  27.346   6.623
 4838POPC   C3B62985  16.145  27.171   7.016
 4838POPC   C4B62986  16.142  27.259   7.461
 4839POPC   NC362987  37.053  34.520   5.269
 4839POPC   PO462988  36.786  35.050   5.552
 4839POPC   GL162989  36.786  34.737   5.853
 4839POPC   GL262990  36.830  34.403   5.758
 4839POPC   C1A62991  37.057  34.624   6.181
 4839POPC   D2A62992  37.152  34.796   6.550
 4839POPC   C3A62993  37.029  34.700   6.947
 4839POPC   C4A62994  37.010  34.870   7.357
 4839POPC   C1B62995  36.769  34.223   6.188
 4839POPC   C2B62996  37.069  34.215   6.579
 4839POPC   C3B62997  37.276  34.218   6.985
 4839POPC   C4B62998  37.035  34.361   7.325
 4840POPC   NC362999  26.623  41.828   5.302
 4840POPC   PO463000  27.163  41.292   5.314
 4840POPC   GL163001  27.035  41.484   5.702
 4840POPC   GL263002  27.209  41.792   5.749
 4840POPC   C1A63003  26.912  41.378   6.140
 4840POPC   D2A63004  26.792  41.309   6.548
 4840POPC   C3A63005  27.093  41.418   6.848
 4840POPC   C4A63006  26.975  41.598   7.225
 4840POPC   C1B63007  26.865  41.859   6.042
 4840POPC   C2B63008  26.733  41.811   6.449
 4840POPC   C3B63009  26.638  41.803   6.876
 4840POPC   C4B63010  26.776  42.095   7.180
 4841POPC   NC363011   4.628  10.184   5.405
 4841POPC   PO463012   4.200  10.693   5.556
 4841POPC   GL163013   4.235  10.596   5.978
 4841POPC   GL263014   3.930  10.402   6.046
 4841POPC   C1A63015   4.617  10.663   6.252
 4841POPC   D2A63016   4.744  10.662   6.679
 4841POPC   C3A63017   4.366  10.522   6.859
 4841POPC   C4A63018   4.134  10.650   7.209
 4841POPC   C1B63019   4.199  10.275   6.390
 4841POPC   C2B63020   4.619  10.181   6.470
 4841POPC   C3B63021   4.781  10.184   6.852
 4841POPC   C4B63022   4.579  10.233   7.223
 4842POPC   NC363023  26.614  29.322   5.486
 4842POPC   PO463024  27.266  29.072   5.503
 4842POPC   GL163025  26.940  29.141   5.869
 4842POPC   GL263026  26.553  29.030   5.914
 4842POPC   C1A63027  26.896  29.045   6.318
 4842POPC   D2A63028  26.587  29.039   6.650
 4842POPC   C3A63029  26.828  29.065   7.008
 4842POPC   C4A63030  27.209  29.173   7.144
 4842POPC   C1B63031  26.567  29.437   6.165
 4842POPC   C2B63032  26.512  29.602   6.601
 4842POPC   C3B63033  26.465  29.425   7.003
 4842POPC   C4B63034  26.734  29.428   7.358
 4843POPC   NC363035  10.817   9.839   5.522
 4843POPC   PO463036  10.240   9.604   5.262
 4843POPC   GL163037  10.367   9.607   5.758
 4843POPC   GL263038  10.535   9.882   5.944
 4843POPC   C1A63039  10.487   9.477   6.251
 4843POPC   D2A63040  10.617   9.666   6.684
 4843POPC   C3A63041  10.450   9.511   7.097
 4843POPC   C4A63042  10.391   9.626   7.549
 4843POPC   C1B63043  10.888   9.843   6.268
 4843POPC   C2B63044  11.025   9.977   6.706
 4843POPC   C3B63045  10.721   9.974   7.088
 4843POPC   C4B63046  10.788   9.984   7.553
 4844POPC   NC363047  29.643  12.400   5.565
 4844POPC   PO463048  30.252  12.251   5.561
 4844POPC   GL163049  30.048  12.385   5.887
 4844POPC   GL263050  29.840  12.071   5.884
 4844POPC   C1A63051  29.912  12.341   6.299
 4844POPC   D2A63052  29.830  12.020   6.561
 4844POPC   C3A63053  29.893  12.150   6.963
 4844POPC   C4A63054  30.081  11.937   7.289
 4844POPC   C1B63055  30.111  11.834   6.157
 4844POPC   C2B63056  30.322  11.794   6.542
 4844POPC   C3B63057  30.307  11.609   6.948
 4844POPC   C4B63058  30.497  11.612   7.363
 4845POPC   NC363059  33.419  26.590   5.699
 4845POPC   PO463060  33.673  26.975   5.165
 4845POPC   GL163061  33.878  26.834   5.580
 4845POPC   GL263062  33.813  27.091   5.813
 4845POPC   C1A63063  34.029  26.658   6.019
 4845POPC   D2A63064  33.847  26.557   6.450
 4845POPC   C3A63065  33.995  26.503   6.875
 4845POPC   C4A63066  33.665  26.667   7.117
 4845POPC   C1B63067  33.864  27.094   6.267
 4845POPC   C2B63068  34.153  26.956   6.582
 4845POPC   C3B63069  34.072  26.983   7.021
 4845POPC   C4B63070  33.758  27.171   7.230
 4846POPC   NC363071  32.558  26.141   5.460
 4846POPC   PO463072  33.238  26.081   5.275
 4846POPC   GL163073  33.145  26.142   5.748
 4846POPC   GL263074  32.969  25.851   5.898
 4846POPC   C1A63075  33.221  26.125   6.250
 4846POPC   D2A63076  32.893  25.913   6.549
 4846POPC   C3A63077  32.836  25.958   7.013
 4846POPC   C4A63078  33.094  26.226   7.238
 4846POPC   C1B63079  32.753  26.196   6.086
 4846POPC   C2B63080  32.743  26.388   6.474
 4846POPC   C3B63081  32.698  26.434   6.880
 4846POPC   C4B63082  32.594  26.401   7.266
 4847POPC   NC363083  28.794   0.870   5.473
 4847POPC   PO463084  28.604   0.173   5.401
 4847POPC   GL163085  28.514   0.511   5.721
 4847POPC   GL263086  28.382   0.231   5.868
 4847POPC   C1A63087  28.411   0.673   6.158
 4847POPC   D2A63088  28.300   0.439   6.563
 4847POPC   C3A63089  28.371   0.584   6.982
 4847POPC   C4A63090  28.290   0.366   7.365
 4847POPC   C1B63091  28.660   0.229   6.209
 4847POPC   C2B63092  28.613   0.046   6.603
 4847POPC   C3B63093  28.661   0.124   7.032
 4847POPC   C4B63094  28.787   0.392   7.318
 4848POPC   NC363095  34.416  21.654   5.275
 4848POPC   PO463096  34.554  21.015   5.474
 4848POPC   GL163097  34.541  21.403   5.708
 4848POPC   GL263098  34.882  21.559   5.751
 4848POPC   C1A63099  34.286  21.507   6.073
 4848POPC   D2A63100  34.314  21.663   6.502
 4848POPC   C3A63101  34.471  21.349   6.773
 4848POPC   C4A63102  34.354  21.302   7.162
 4848POPC   C1B63103  34.738  21.714   6.183
 4848POPC   C2B63104  34.817  21.720   6.659
 4848POPC   C3B63105  34.892  21.641   7.112
 4848POPC   C4B63106  34.915  21.700   7.628
 4849POPC   NC363107  19.549  33.250   5.423
 4849POPC   PO463108  18.956  32.872   5.323
 4849POPC   GL163109  19.002  32.956   5.743
 4849POPC   GL263110  19.384  32.905   5.754
 4849POPC   C1A63111  18.753  33.150   6.130
 4849POPC   D2A63112  18.769  33.400   6.545
 4849POPC   C3A63113  18.891  33.250   6.964
 4849POPC   C4A63114  18.926  33.186   7.422
 4849POPC   C1B63115  19.268  33.168   6.104
 4849POPC   C2B63116  19.112  33.018   6.512
 4849POPC   C3B63117  19.329  32.987   6.894
 4849POPC   C4B63118  19.422  33.151   7.283
 4850POPC   NC363119  37.459   0.678   5.268
 4850POPC   PO463120  37.766   0.108   5.369
 4850POPC   GL163121  37.791   0.416   5.714
 4850POPC   GL263122  37.944   0.732   5.725
 4850POPC   C1A63123  37.861   0.301   6.162
 4850POPC   D2A63124  37.722   0.161   6.566
 4850POPC   C3A63125  37.612   0.380   6.937
 4850POPC   C4A63126  37.880   0.431   7.274
 4850POPC   C1B63127  37.800   0.795   6.163
 4850POPC   C2B63128  37.671   0.762   6.601
 4850POPC   C3B63129  37.663   0.911   7.060
 4850POPC   C4B63130  37.670   0.881   7.539
 4851POPC   NC363131  37.006  36.366   5.159
 4851POPC   PO463132  36.475  35.994   5.433
 4851POPC   GL163133  36.668  35.982   5.819
 4851POPC   GL263134  36.973  36.144   5.720
 4851POPC   C1A63135  36.665  36.203   6.208
 4851POPC   D2A63136  36.955  36.196   6.560
 4851POPC   C3A63137  36.719  36.032   6.868
 4851POPC   C4A63138  36.822  36.150   7.227
 4851POPC   C1B63139  37.130  36.001   6.126
 4851POPC   C2B63140  37.332  35.807   6.507
 4851POPC   C3B63141  37.300  36.005   6.929
 4851POPC   C4B63142  37.214  35.853   7.316
 4852POPC   NC363143  14.347   6.973   5.153
 4852POPC   PO463144  13.979   7.310   5.562
 4852POPC   GL163145  14.307   7.345   5.872
 4852POPC   GL263146  14.558   7.125   5.972
 4852POPC   C1A63147  14.344   7.555   6.241
 4852POPC   D2A63148  14.107   7.266   6.468
 4852POPC   C3A63149  14.106   7.262   6.852
 4852POPC   C4A63150  14.355   7.557   7.061
 4852POPC   C1B63151  14.610   7.131   6.376
 4852POPC   C2B63152  14.642   7.433   6.652
 4852POPC   C3B63153  14.861   7.362   6.997
 4852POPC   C4B63154  14.788   7.527   7.326
 4853POPC   NC363155  39.845  29.869   5.331
 4853POPC   PO463156  40.428  29.559   5.486
 4853POPC   GL163157  40.078  29.744   5.776
 4853POPC   GL263158  40.040  30.097   5.790
 4853POPC   C1A63159  39.856  29.868   6.208
 4853POPC   D2A63160  39.692  29.814   6.645
 4853POPC   C3A63161  39.888  29.995   7.000
 4853POPC   C4A63162  40.265  29.876   7.214
 4853POPC   C1B63163  40.350  29.972   6.131
 4853POPC   C2B63164  40.231  29.958   6.594
 4853POPC   C3B63165  40.440  30.235   6.921
 4853POPC   C4B63166  40.488  30.430   7.354
 4854POPC   NC363167  10.149  43.267   5.369
 4854POPC   PO463168   9.505  43.042   5.374
 4854POPC   GL163169   9.519  42.874   5.808
 4854POPC   GL263170   9.890  42.909   5.884
 4854POPC   C1A63171   9.586  42.927   6.286
 4854POPC   D2A63172   9.908  42.756   6.593
 4854POPC   C3A63173   9.826  42.908   7.012
 4854POPC   C4A63174   9.467  43.157   7.199
 4854POPC   C1B63175   9.901  43.285   6.169
 4854POPC   C2B63176   9.684  43.311   6.603
 4854POPC   C3B63177   9.866  43.422   7.004
 4854POPC   C4B63178   9.970  43.271   7.422
 4855POPC   NC363179  38.612  23.837   5.181
 4855POPC   PO463180  37.973  23.881   5.364
 4855POPC   GL163181  38.278  23.801   5.707
 4855POPC   GL263182  38.628  23.765   5.749
 4855POPC   C1A63183  38.287  23.674   6.142
 4855POPC   D2A63184  38.108  23.604   6.545
 4855POPC   C3A63185  38.312  23.614   6.929
 4855POPC   C4A63186  38.131  23.791   7.287
 4855POPC   C1B63187  38.691  24.018   6.150
 4855POPC   C2B63188  38.539  23.987   6.587
 4855POPC   C3B63189  38.582  24.049   7.058
 4855POPC   C4B63190  38.836  24.140   7.422
 4856POPC   NC363191  12.194  14.705   5.447
 4856POPC   PO463192  12.201  14.049   5.204
 4856POPC   GL163193  12.107  14.252   5.651
 4856POPC   GL263194  12.314  14.156   5.944
 4856POPC   C1A63195  11.916  14.479   6.030
 4856POPC   D2A63196  11.901  14.421   6.507
 4856POPC   C3A63197  11.889  14.690   6.910
 4856POPC   C4A63198  11.996  14.649   7.360
 4856POPC   C1B63199  12.371  14.502   6.257
 4856POPC   C2B63200  12.340  14.627   6.684
 4856POPC   C3B63201  12.339  14.379   7.071
 4856POPC   C4B63202  12.599  14.465   7.436
 4857POPC   NC363203  14.932  42.083   5.283
 4857POPC   PO463204  15.434  42.536   5.255
 4857POPC   GL163205  15.227  42.502   5.684
 4857POPC   GL263206  15.054  42.801   5.798
 4857POPC   C1A63207  15.369  42.446   6.138
 4857POPC   D2A63208  15.615  42.307   6.537
 4857POPC   C3A63209  15.374  42.253   6.920
 4857POPC   C4A63210  14.986  42.133   7.089
 4857POPC   C1B63211  15.032  42.835   6.246
 4857POPC   C2B63212  15.326  42.723   6.572
 4857POPC   C3B63213  15.368  42.748   7.003
 4857POPC   C4B63214  15.148  42.626   7.347
 4858POPC   NC363215  16.928  30.703   5.427
 4858POPC   PO463216  16.257  30.545   5.314
 4858POPC   GL163217  16.480  30.653   5.702
 4858POPC   GL263218  16.381  30.991   5.831
 4858POPC   C1A63219  16.740  30.624   6.099
 4858POPC   D2A63220  16.863  30.779   6.528
 4858POPC   C3A63221  16.762  30.515   6.895
 4858POPC   C4A63222  16.895  30.428   7.328
 4858POPC   C1B63223  16.487  31.052   6.274
 4858POPC   C2B63224  16.541  31.140   6.708
 4858POPC   C3B63225  16.491  30.918   7.081
 4858POPC   C4B63226  16.446  30.879   7.554
 4859POPC   NC363227  34.736  15.370   5.666
 4859POPC   PO463228  34.286  14.878   5.469
 4859POPC   GL163229  34.368  15.069   5.845
 4859POPC   GL263230  34.397  14.810   6.070
 4859POPC   C1A63231  34.422  15.323   6.248
 4859POPC   D2A63232  34.499  15.228   6.711
 4859POPC   C3A63233  34.272  15.502   7.031
 4859POPC   C4A63234  34.491  15.552   7.412
 4859POPC   C1B63235  34.815  15.023   6.208
 4859POPC   C2B63236  34.974  15.271   6.561
 4859POPC   C3B63237  34.922  15.318   7.030
 4859POPC   C4B63238  34.560  15.082   7.214
 4860POPC   NC363239  26.805  26.260   5.399
 4860POPC   PO463240  26.465  25.708   5.459
 4860POPC   GL163241  26.714  25.919   5.786
 4860POPC   GL263242  27.067  25.924   5.704
 4860POPC   C1A63243  26.632  26.101   6.219
 4860POPC   D2A63244  26.565  26.439   6.535
 4860POPC   C3A63245  26.606  26.288   6.944
 4860POPC   C4A63246  26.802  25.993   7.197
 4860POPC   C1B63247  27.066  26.249   6.019
 4860POPC   C2B63248  27.051  26.297   6.454
 4860POPC   C3B63249  27.133  26.234   6.874
 4860POPC   C4B63250  27.274  26.161   7.283
 4861POPC   NC363251  44.431  14.741   5.368
 4861POPC   PO463252  44.963  14.252   5.408
 4861POPC   GL163253  44.782  14.534   5.731
 4861POPC   GL263254  44.416  14.472   5.796
 4861POPC   C1A63255  44.708  14.648   6.180
 4861POPC   D2A63256  44.757  14.783   6.609
 4861POPC   C3A63257  44.877  14.545   6.936
 4861POPC   C4A63258  44.952  14.372   7.316
 4861POPC   C1B63259  44.234  14.370   6.177
 4861POPC   C2B63260  44.084  14.466   6.579
 4861POPC   C3B63261  44.337  14.651   6.912
 4861POPC   C4B63262  44.247  14.640   7.345
 4862POPC   NC363263   7.808  44.124   5.565
 4862POPC   PO463264   7.295  43.745   5.432
 4862POPC   GL163265   7.379  43.871   5.840
 4862POPC   GL263266   7.685  43.715   5.811
 4862POPC   C1A63267   7.296  43.956   6.277
 4862POPC   D2A63268   7.071  43.979   6.687
 4862POPC   C3A63269   7.396  43.915   6.965
 4862POPC   C4A63270   7.542  44.027   7.373
 4862POPC   C1B63271   7.814  43.913   6.183
 4862POPC   C2B63272   7.765  43.791   6.590
 4862POPC   C3B63273   7.909  43.949   6.974
 4862POPC   C4B63274   7.789  43.636   7.216
 4863POPC   NC363275  18.443  10.754   5.360
 4863POPC   PO463276  17.967  10.307   5.532
 4863POPC   GL163277  18.248  10.408   5.895
 4863POPC   GL263278  18.570  10.549   5.818
 4863POPC   C1A63279  18.334  10.403   6.361
 4863POPC   D2A63280  18.563  10.472   6.746
 4863POPC   C3A63281  18.217  10.566   7.040
 4863POPC   C4A63282  17.897  10.286   7.253
 4863POPC   C1B63283  18.500  10.833   6.169
 4863POPC   C2B63284  18.311  10.910   6.559
 4863POPC   C3B63285  18.560  10.957   6.932
 4863POPC   C4B63286  18.573  10.813   7.347
 4864POPC   NC363287  32.366   8.788   5.499
 4864POPC   PO463288  32.179   9.400   5.289
 4864POPC   GL163289  32.168   9.190   5.750
 4864POPC   GL263290  31.984   8.842   5.805
 4864POPC   C1A63291  32.221   9.079   6.202
 4864POPC   D2A63292  32.391   8.735   6.528
 4864POPC   C3A63293  32.300   8.796   6.995
 4864POPC   C4A63294  32.328   9.174   7.261
 4864POPC   C1B63295  31.989   8.621   6.205
 4864POPC   C2B63296  31.870   8.487   6.613
 4864POPC   C3B63297  31.809   8.608   7.027
 4864POPC   C4B63298  31.932   8.732   7.425
 4865POPC   NC363299  10.926  19.294   5.354
 4865POPC   PO463300  10.614  18.742   5.629
 4865POPC   GL163301  10.885  18.940   5.902
 4865POPC   GL263302  10.695  19.212   6.020
 4865POPC   C1A63303  10.856  18.863   6.350
 4865POPC   D2A63304  10.603  18.936   6.706
 4865POPC   C3A63305  10.712  19.117   7.106
 4865POPC   C4A63306  10.817  18.960   7.508
 4865POPC   C1B63307  10.351  18.900   6.226
 4865POPC   C2B63308  10.158  18.701   6.615
 4865POPC   C3B63309  10.272  18.786   7.077
 4865POPC   C4B63310  10.343  18.778   7.541
 4866POPC   NC363311   5.188   9.889   5.387
 4866POPC   PO463312   4.954   9.405   5.079
 4866POPC   GL163313   5.061   9.480   5.677
 4866POPC   GL263314   4.982   9.846   5.842
 4866POPC   C1A63315   5.050   9.465   6.162
 4866POPC   D2A63316   5.285   9.476   6.541
 4866POPC   C3A63317   4.986   9.349   6.851
 4866POPC   C4A63318   5.059   9.465   7.275
 4866POPC   C1B63319   5.302   9.905   6.108
 4866POPC   C2B63320   5.094   9.930   6.496
 4866POPC   C3B63321   5.120   9.828   6.917
 4866POPC   C4B63322   5.378   9.907   7.235
 4867POPC   NC363323  20.284  15.285   5.386
 4867POPC   PO463324  20.944  15.247   5.654
 4867POPC   GL163325  20.580  15.339   5.864
 4867POPC   GL263326  20.416  15.019   5.933
 4867POPC   C1A63327  20.479  15.387   6.293
 4867POPC   D2A63328  20.509  15.619   6.649
 4867POPC   C3A63329  20.571  15.416   7.029
 4867POPC   C4A63330  20.281  15.147   7.283
 4867POPC   C1B63331  20.736  14.950   6.294
 4867POPC   C2B63332  20.814  15.107   6.688
 4867POPC   C3B63333  20.725  14.926   7.077
 4867POPC   C4B63334  20.999  14.843   7.379
 4868POPC   NC363335   2.226  16.815   5.409
 4868POPC   PO463336   1.764  16.339   5.351
 4868POPC   GL163337   1.839  16.656   5.685
 4868POPC   GL263338   2.119  16.497   5.820
 4868POPC   C1A63339   2.072  16.924   6.051
 4868POPC   D2A63340   2.192  16.686   6.434
 4868POPC   C3A63341   2.113  16.854   6.858
 4868POPC   C4A63342   2.100  16.685   7.285
 4868POPC   C1B63343   1.748  16.550   6.166
 4868POPC   C2B63344   1.554  16.658   6.562
 4868POPC   C3B63345   1.687  16.541   6.982
 4868POPC   C4B63346   1.764  16.325   7.357
 4869POPC   NC363347  22.393  44.012   5.442
 4869POPC   PO463348  21.823  43.662   5.414
 4869POPC   GL163349  22.014  43.853   5.785
 4869POPC   GL263350  22.272  43.602   5.735
 4869POPC   C1A63351  22.008  43.831   6.260
 4869POPC   D2A63352  21.858  43.758   6.686
 4869POPC   C3A63353  22.035  44.004   7.012
 4869POPC   C4A63354  21.976  44.025   7.469
 4869POPC   C1B63355  22.369  43.466   6.143
 4869POPC   C2B63356  22.246  43.421   6.575
 4869POPC   C3B63357  22.503  43.541   6.949
 4869POPC   C4B63358  22.346  43.742   7.305
 4870POPC   NC363359  32.728  21.465   5.403
 4870POPC   PO463360  33.298  21.892   5.529
 4870POPC   GL163361  33.037  21.597   5.783
 4870POPC   GL263362  33.080  21.219   5.737
 4870POPC   C1A63363  33.043  21.513   6.219
 4870POPC   D2A63364  33.271  21.684   6.556
 4870POPC   C3A63365  33.179  21.513   6.956
 4870POPC   C4A63366  33.095  21.700   7.396
 4870POPC   C1B63367  32.962  21.034   6.154
 4870POPC   C2B63368  32.978  21.151   6.589
 4870POPC   C3B63369  32.837  21.147   7.002
 4870POPC   C4B63370  33.128  21.186   7.338
 4871POPC   NC363371  35.746  40.088   5.142
 4871POPC   PO463372  35.390  39.702   5.561
 4871POPC   GL163373  35.291  40.054   5.797
 4871POPC   GL263374  34.952  40.049   5.800
 4871POPC   C1A63375  35.224  39.990   6.237
 4871POPC   D2A63376  35.395  39.683   6.516
 4871POPC   C3A63377  35.357  39.846   6.926
 4871POPC   C4A63378  35.564  39.830   7.322
 4871POPC   C1B63379  34.950  40.405   6.114
 4871POPC   C2B63380  35.084  40.551   6.545
 4871POPC   C3B63381  35.074  40.289   6.913
 4871POPC   C4B63382  35.190  40.178   7.328
 4872POPC   NC363383  11.151  26.896   5.277
 4872POPC   PO463384  11.450  26.422   5.496
 4872POPC   GL163385  11.456  26.791   5.738
 4872POPC   GL263386  11.102  26.817   5.773
 4872POPC   C1A63387  11.629  26.908   6.150
 4872POPC   D2A63388  11.683  26.704   6.551
 4872POPC   C3A63389  11.624  26.955   6.897
 4872POPC   C4A63390  11.506  26.776   7.262
 4872POPC   C1B63391  11.141  26.712   6.184
 4872POPC   C2B63392  11.246  26.948   6.532
 4872POPC   C3B63393  11.112  26.803   6.928
 4872POPC   C4B63394  10.845  26.801   7.273
 4873POPC   NC363395  35.104  29.417   5.422
 4873POPC   PO463396  34.436  29.117   5.225
 4873POPC   GL163397  34.523  29.190   5.675
 4873POPC   GL263398  34.840  29.318   5.850
 4873POPC   C1A63399  34.376  29.198   6.107
 4873POPC   D2A63400  34.614  29.046   6.456
 4873POPC   C3A63401  34.621  29.110   6.908
 4873POPC   C4A63402  34.379  29.002   7.270
 4873POPC   C1B63403  34.727  29.522   6.255
 4873POPC   C2B63404  34.387  29.507   6.570
 4873POPC   C3B63405  34.278  29.473   7.010
 4873POPC   C4B63406  34.608  29.438   7.340
 4874POPC   NC363407  12.367  16.118   5.440
 4874POPC   PO463408  11.881  15.727   5.325
 4874POPC   GL163409  12.096  15.707   5.709
 4874POPC   GL263410  12.142  16.024   5.895
 4874POPC   C1A63411  12.114  15.589   6.146
 4874POPC   D2A63412  12.080  15.908   6.442
 4874POPC   C3A63413  12.030  15.690   6.806
 4874POPC   C4A63414  12.062  15.615   7.211
 4874POPC   C1B63415  12.250  16.369   6.144
 4874POPC   C2B63416  12.339  16.436   6.551
 4874POPC   C3B63417  12.312  16.112   6.869
 4874POPC   C4B63418  12.056  16.105   7.221
 4875POPC   NC363419  36.647  27.492   5.086
 4875POPC   PO463420  37.157  27.434   5.542
 4875POPC   GL163421  36.865  27.583   5.850
 4875POPC   GL263422  37.028  27.852   6.041
 4875POPC   C1A63423  36.727  27.517   6.289
 4875POPC   D2A63424  36.870  27.718   6.679
 4875POPC   C3A63425  36.770  27.620   7.112
 4875POPC   C4A63426  37.067  27.704   7.491
 4875POPC   C1B63427  36.603  28.012   6.217
 4875POPC   C2B63428  36.433  27.992   6.655
 4875POPC   C3B63429  36.675  28.129   7.036
 4875POPC   C4B63430  36.642  27.984   7.499
 4876POPC   NC363431  35.509  30.953   5.611
 4876POPC   PO463432  35.655  30.354   5.323
 4876POPC   GL163433  35.614  30.447   5.779
 4876POPC   GL263434  35.266  30.562   5.806
 4876POPC   C1A63435  35.588  30.657   6.206
 4876POPC   D2A63436  35.385  30.567   6.578
 4876POPC   C3A63437  35.572  30.585   6.942
 4876POPC   C4A63438  35.415  30.853   7.228
 4876POPC   C1B63439  35.040  30.793   6.139
 4876POPC   C2B63440  34.942  30.819   6.574
 4876POPC   C3B63441  35.013  30.658   6.975
 4876POPC   C4B63442  35.030  30.540   7.409
 4877POPC   NC363443  39.797  38.612   5.396
 4877POPC   PO463444  40.347  38.497   5.273
 4877POPC   GL163445  40.165  38.543   5.753
 4877POPC   GL263446  39.847  38.342   5.847
 4877POPC   C1A63447  40.077  38.557   6.261
 4877POPC   D2A63448  39.931  38.278   6.616
 4877POPC   C3A63449  40.145  38.346   7.016
 4877POPC   C4A63450  40.200  38.153   7.407
 4877POPC   C1B63451  39.585  38.524   6.204
 4877POPC   C2B63452  39.596  38.677   6.607
 4877POPC   C3B63453  39.647  38.584   7.050
 4877POPC   C4B63454  39.689  38.190   7.278
 4878POPC   NC363455  29.146  30.170   5.303
 4878POPC   PO463456  28.931  29.559   5.565
 4878POPC   GL163457  29.215  29.895   5.752
 4878POPC   GL263458  28.942  30.094   5.801
 4878POPC   C1A63459  29.313  30.015   6.198
 4878POPC   D2A63460  29.132  29.820   6.588
 4878POPC   C3A63461  29.287  29.811   7.027
 4878POPC   C4A63462  29.291  29.687   7.472
 4878POPC   C1B63463  28.714  30.219   6.145
 4878POPC   C2B63464  28.735  30.328   6.544
 4878POPC   C3B63465  28.715  30.039   6.837
 4878POPC   C4B63466  28.882  30.061   7.211
 4879POPC   NC363467   7.151  40.880   5.367
 4879POPC   PO463468   7.731  41.173   5.384
 4879POPC   GL163469   7.584  40.992   5.798
 4879POPC   GL263470   7.611  40.623   5.883
 4879POPC   C1A63471   7.396  40.942   6.238
 4879POPC   D2A63472   7.354  40.739   6.688
 4879POPC   C3A63473   7.108  40.774   7.097
 4879POPC   C4A63474   7.169  41.053   7.466
 4879POPC   C1B63475   7.833  40.577   6.274
 4879POPC   C2B63476   7.766  40.419   6.694
 4879POPC   C3B63477   7.610  40.551   7.100
 4879POPC   C4B63478   7.393  40.562   7.481
 4880POPC   NC363479  12.317  10.295   5.320
 4880POPC   PO463480  11.905  10.717   5.152
 4880POPC   GL163481  12.019  10.472   5.682
 4880POPC   GL263482  12.353  10.502   5.795
 4880POPC   C1A63483  12.045  10.711   6.168
 4880POPC   D2A63484  11.808  10.721   6.571
 4880POPC   C3A63485  12.068  10.730   6.929
 4880POPC   C4A63486  12.070  10.502   7.338
 4880POPC   C1B63487  12.184  10.236   6.139
 4880POPC   C2B63488  12.236  10.352   6.574
 4880POPC   C3B63489  12.376  10.314   6.995
 4880POPC   C4B63490  12.188  10.007   7.233
 4881POPC   NC363491  25.363  39.596   5.266
 4881POPC   PO463492  24.987  39.037   5.204
 4881POPC   GL163493  25.221  39.159   5.601
 4881POPC   GL263494  25.227  39.486   5.764
 4881POPC   C1A63495  25.264  39.009   6.039
 4881POPC   D2A63496  25.184  38.809   6.445
 4881POPC   C3A63497  25.300  39.035   6.843
 4881POPC   C4A63498  25.084  39.191   7.254
 4881POPC   C1B63499  25.578  39.473   6.093
 4881POPC   C2B63500  25.602  39.527   6.566
 4881POPC   C3B63501  25.387  39.538   6.988
 4881POPC   C4B63502  25.581  39.394   7.366
 4882POPC   NC363503  10.070  20.122   5.108
 4882POPC   PO463504   9.890  20.717   5.169
 4882POPC   GL163505   9.812  20.632   5.650
 4882POPC   GL263506   9.587  20.881   5.773
 4882POPC   C1A63507   9.699  20.509   6.113
 4882POPC   D2A63508   9.682  20.636   6.537
 4882POPC   C3A63509   9.566  20.454   6.932
 4882POPC   C4A63510   9.794  20.458   7.358
 4882POPC   C1B63511   9.499  21.006   6.194
 4882POPC   C2B63512   9.609  21.125   6.624
 4882POPC   C3B63513   9.819  20.882   6.990
 4882POPC   C4B63514   9.705  20.966   7.419
 4883POPC   NC363515  36.571   1.062   5.232
 4883POPC   PO463516  36.926   1.545   5.575
 4883POPC   GL163517  37.091   1.339   5.874
 4883POPC   GL263518  37.009   1.039   5.709
 4883POPC   C1A63519  36.942   1.294   6.258
 4883POPC   D2A63520  36.780   1.328   6.643
 4883POPC   C3A63521  37.000   1.269   7.032
 4883POPC   C4A63522  37.003   1.349   7.484
 4883POPC   C1B63523  36.888   0.806   6.048
 4883POPC   C2B63524  36.874   0.826   6.482
 4883POPC   C3B63525  36.679   0.868   6.870
 4883POPC   C4B63526  36.721   0.910   7.304
 4884POPC   NC363527   2.166  11.847   5.167
 4884POPC   PO463528   1.793  11.337   5.451
 4884POPC   GL163529   2.009  11.197   5.867
 4884POPC   GL263530   2.004  11.484   5.985
 4884POPC   C1A63531   2.114  11.225   6.373
 4884POPC   D2A63532   2.325  11.438   6.706
 4884POPC   C3A63533   2.132  11.376   7.128
 4884POPC   C4A63534   1.854  11.217   7.481
 4884POPC   C1B63535   1.772  11.614   6.320
 4884POPC   C2B63536   1.813  11.450   6.721
 4884POPC   C3B63537   1.623  11.438   7.077
 4884POPC   C4B63538   1.604  11.650   7.454
 4885POPC   NC363539   7.316  21.501   5.425
 4885POPC   PO463540   7.912  21.194   5.527
 4885POPC   GL163541   7.648  21.088   5.884
 4885POPC   GL263542   7.304  21.219   5.865
 4885POPC   C1A63543   7.567  21.248   6.326
 4885POPC   D2A63544   7.260  21.374   6.656
 4885POPC   C3A63545   7.349  21.529   7.062
 4885POPC   C4A63546   7.693  21.764   7.249
 4885POPC   C1B63547   7.044  21.125   6.227
 4885POPC   C2B63548   7.002  20.937   6.644
 4885POPC   C3B63549   6.935  21.170   7.055
 4885POPC   C4B63550   6.841  21.607   7.175
 4886POPC   NC363551  25.384  13.958   5.389
 4886POPC   PO463552  24.992  13.470   5.428
 4886POPC   GL163553  25.222  13.675   5.759
 4886POPC   GL263554  25.065  13.979   5.813
 4886POPC   C1A63555  25.449  13.896   6.120
 4886POPC   D2A63556  25.438  13.722   6.521
 4886POPC   C3A63557  25.483  13.963   6.864
 4886POPC   C4A63558  25.138  13.960   7.122
 4886POPC   C1B63559  25.023  13.608   6.200
 4886POPC   C2B63560  25.014  13.416   6.609
 4886POPC   C3B63561  25.142  13.461   7.024
 4886POPC   C4B63562  24.832  13.328   7.327
 4887POPC   NC363563   3.557  39.508   5.543
 4887POPC   PO463564   3.288  38.890   5.431
 4887POPC   GL163565   3.463  38.967   5.828
 4887POPC   GL263566   3.793  39.089   5.764
 4887POPC   C1A63567   3.487  39.202   6.233
 4887POPC   D2A63568   3.652  39.484   6.564
 4887POPC   C3A63569   3.495  39.345   6.947
 4887POPC   C4A63570   3.341  39.479   7.324
 4887POPC   C1B63571   3.909  38.906   6.150
 4887POPC   C2B63572   3.859  38.964   6.589
 4887POPC   C3B63573   3.697  38.871   7.000
 4887POPC   C4B63574   3.709  39.137   7.366
 4888POPC   NC363575   0.885  17.506   5.469
 4888POPC   PO463576   1.389  18.036   5.398
 4888POPC   GL163577   1.336  17.743   5.795
 4888POPC   GL263578   1.250  17.397   5.794
 4888POPC   C1A63579   1.503  17.538   6.201
 4888POPC   D2A63580   1.596  17.323   6.616
 4888POPC   C3A63581   1.445  17.551   6.991
 4888POPC   C4A63582   1.251  17.865   7.256
 4888POPC   C1B63583   0.991  17.492   6.136
 4888POPC   C2B63584   1.119  17.507   6.543
 4888POPC   C3B63585   0.935  17.411   6.899
 4888POPC   C4B63586   0.959  17.462   7.276
 4889POPC   NC363587  39.494   4.680   5.004
 4889POPC   PO463588  39.357   4.151   5.363
 4889POPC   GL163589  39.332   4.359   5.802
 4889POPC   GL263590  39.001   4.582   5.811
 4889POPC   C1A63591  39.401   4.093   6.151
 4889POPC   D2A63592  39.178   3.986   6.538
 4889POPC   C3A63593  39.437   3.994   6.926
 4889POPC   C4A63594  39.458   4.136   7.368
 4889POPC   C1B63595  39.123   4.515   6.239
 4889POPC   C2B63596  39.019   4.512   6.665
 4889POPC   C3B63597  39.125   4.443   7.095
 4889POPC   C4B63598  39.138   4.474   7.547
 4890POPC   NC363599  37.539  41.256   5.508
 4890POPC   PO463600  37.831  40.631   5.382
 4890POPC   GL163601  37.638  40.793   5.718
 4890POPC   GL263602  37.900  41.005   5.802
 4890POPC   C1A63603  37.590  40.688   6.143
 4890POPC   D2A63604  37.551  40.854   6.552
 4890POPC   C3A63605  37.781  40.753   6.885
 4890POPC   C4A63606  37.617  40.638   7.258
 4890POPC   C1B63607  38.036  41.181   6.187
 4890POPC   C2B63608  37.916  41.207   6.606
 4890POPC   C3B63609  38.185  41.055   6.920
 4890POPC   C4B63610  38.076  41.143   7.315
 4891POPC   NC363611  13.252  15.893   5.215
 4891POPC   PO463612  12.598  15.703   5.471
 4891POPC   GL163613  12.816  15.865   5.839
 4891POPC   GL263614  12.654  16.175   5.872
 4891POPC   C1A63615  13.041  15.776   6.265
 4891POPC   D2A63616  13.185  15.531   6.607
 4891POPC   C3A63617  13.086  15.732   6.955
 4891POPC   C4A63618  13.036  16.131   7.095
 4891POPC   C1B63619  12.570  16.002   6.278
 4891POPC   C2B63620  12.784  16.134   6.639
 4891POPC   C3B63621  12.671  16.449   6.941
 4891POPC   C4B63622  12.517  16.311   7.341
 4892POPC   NC363623  41.184  34.967   5.319
 4892POPC   PO463624  40.541  35.281   5.416
 4892POPC   GL163625  40.908  35.238   5.693
 4892POPC   GL263626  40.927  35.589   5.718
 4892POPC   C1A63627  41.029  35.325   6.149
 4892POPC   D2A63628  40.752  35.357   6.523
 4892POPC   C3A63629  40.898  35.257   6.931
 4892POPC   C4A63630  40.647  35.024   7.235
 4892POPC   C1B63631  40.559  35.526   6.027
 4892POPC   C2B63632  40.307  35.620   6.401
 4892POPC   C3B63633  40.356  35.746   6.835
 4892POPC   C4B63634  40.518  35.552   7.221
 4893POPC   NC363635   4.411  32.018   5.338
 4893POPC   PO463636   3.906  32.351   5.308
 4893POPC   GL163637   4.242  32.339   5.686
 4893POPC   GL263638   4.319  32.646   5.847
 4893POPC   C1A63639   4.448  32.070   6.019
 4893POPC   D2A63640   4.428  31.981   6.466
 4893POPC   C3A63641   4.467  32.232   6.831
 4893POPC   C4A63642   4.427  32.105   7.278
 4893POPC   C1B63643   4.135  32.432   6.219
 4893POPC   C2B63644   3.968  32.210   6.582
 4893POPC   C3B63645   3.999  32.195   7.017
 4893POPC   C4B63646   4.160  32.554   7.246
 4894POPC   NC363647   7.990   6.249   5.598
 4894POPC   PO463648   7.529   6.713   5.357
 4894POPC   GL163649   7.579   6.522   5.766
 4894POPC   GL263650   7.701   6.845   5.866
 4894POPC   C1A63651   7.342   6.418   6.143
 4894POPC   D2A63652   7.262   6.250   6.561
 4894POPC   C3A63653   7.478   6.482   6.892
 4894POPC   C4A63654   7.302   6.527   7.315
 4894POPC   C1B63655   7.673   6.792   6.316
 4894POPC   C2B63656   7.683   6.998   6.718
 4894POPC   C3B63657   7.532   6.946   7.147
 4894POPC   C4B63658   7.634   6.802   7.584
 4895POPC   NC363659  39.753   8.463   5.438
 4895POPC   PO463660  40.199   8.129   5.246
 4895POPC   GL163661  40.013   8.113   5.699
 4895POPC   GL263662  39.823   7.859   5.796
 4895POPC   C1A63663  39.913   8.196   6.173
 4895POPC   D2A63664  40.037   8.080   6.623
 4895POPC   C3A63665  39.886   8.371   7.007
 4895POPC   C4A63666  39.797   8.520   7.447
 4895POPC   C1B63667  39.752   7.708   6.209
 4895POPC   C2B63668  39.594   7.723   6.625
 4895POPC   C3B63669  39.753   7.873   6.985
 4895POPC   C4B63670  39.946   8.015   7.388
 4896POPC   NC363671  43.716  33.373   5.156
 4896POPC   PO463672  43.689  32.909   5.636
 4896POPC   GL163673  43.769  32.988   6.014
 4896POPC   GL263674  43.662  33.367   6.041
 4896POPC   C1A63675  43.762  32.662   6.321
 4896POPC   D2A63676  43.782  32.464   6.685
 4896POPC   C3A63677  43.820  32.676   7.053
 4896POPC   C4A63678  43.773  33.022   7.297
 4896POPC   C1B63679  43.991  33.290   6.344
 4896POPC   C2B63680  44.095  32.942   6.585
 4896POPC   C3B63681  44.233  32.957   6.947
 4896POPC   C4B63682  44.217  33.294   7.218
 4897POPC   NC363683  15.637  44.478   5.604
 4897POPC   PO463684  16.135  44.907   5.307
 4897POPC   GL163685  16.061  44.757   5.730
 4897POPC   GL263686  15.792  44.895   5.890
 4897POPC   C1A63687  16.210  44.840   6.175
 4897POPC   D2A63688  16.186  44.623   6.559
 4897POPC   C3A63689  16.038  44.718   6.985
 4897POPC   C4A63690  15.733  44.434   7.180
 4897POPC   C1B63691  15.755  44.646   6.264
 4897POPC   C2B63692  15.708  44.895   6.646
 4897POPC   C3B63693  15.580  44.943   7.076
 4897POPC   C4B63694  15.541  44.789   7.502
 4898POPC   NC363695  38.340  38.132   5.289
 4898POPC   PO463696  38.466  37.512   5.342
 4898POPC   GL163697  38.427  37.790   5.709
 4898POPC   GL263698  38.424  37.510   5.892
 4898POPC   C1A63699  38.534  37.916   6.187
 4898POPC   D2A63700  38.436  37.815   6.661
 4898POPC   C3A63701  38.585  37.788   7.124
 4898POPC   C4A63702  38.442  37.828   7.576
 4898POPC   C1B63703  38.360  37.382   6.316
 4898POPC   C2B63704  38.197  37.113   6.636
 4898POPC   C3B63705  38.088  37.184   7.029
 4898POPC   C4B63706  38.350  37.355   7.345
 4899POPC   NC363707  42.139  35.213   5.482
 4899POPC   PO463708  42.769  35.404   5.481
 4899POPC   GL163709  42.518  35.305   5.873
 4899POPC   GL263710  42.183  35.420   5.920
 4899POPC   C1A63711  42.459  35.495   6.312
 4899POPC   D2A63712  42.158  35.567   6.625
 4899POPC   C3A63713  42.340  35.292   6.865
 4899POPC   C4A63714  42.621  35.237   7.201
 4899POPC   C1B63715  41.902  35.300   6.242
 4899POPC   C2B63716  41.882  35.018   6.587
 4899POPC   C3B63717  41.956  34.968   7.001
 4899POPC   C4B63718  42.118  35.201   7.314
 4900POPC   NC363719   5.230  29.747   5.613
 4900POPC   PO463720   5.472  29.107   5.507
 4900POPC   GL163721   5.148  29.273   5.804
 4900POPC   GL263722   4.781  29.194   5.852
 4900POPC   C1A63723   5.146  29.428   6.233
 4900POPC   D2A63724   5.301  29.557   6.635
 4900POPC   C3A63725   5.190  29.261   6.934
 4900POPC   C4A63726   5.073  28.791   7.029
 4900POPC   C1B63727   4.632  29.372   6.264
 4900POPC   C2B63728   4.727  29.182   6.671
 4900POPC   C3B63729   4.731  29.163   7.115
 4900POPC   C4B63730   4.977  29.388   7.395
 4901POPC   NC363731  35.128  41.392   5.334
 4901POPC   PO463732  35.620  41.707   5.655
 4901POPC   GL163733  35.300  41.520   5.800
 4901POPC   GL263734  35.102  41.815   5.837
 4901POPC   C1A63735  35.253  41.342   6.190
 4901POPC   D2A63736  35.281  41.461   6.627
 4901POPC   C3A63737  35.632  41.542   6.889
 4901POPC   C4A63738  35.541  41.646   7.294
 4901POPC   C1B63739  35.236  41.854   6.243
 4901POPC   C2B63740  35.043  41.944   6.639
 4901POPC   C3B63741  35.105  41.769   7.035
 4901POPC   C4B63742  35.019  41.967   7.398
 4902POPC   NC363743  41.078  28.482   4.894
 4902POPC   PO463744  41.652  28.320   5.280
 4902POPC   GL163745  41.565  28.217   5.696
 4902POPC   GL263746  41.762  28.528   5.762
 4902POPC   C1A63747  41.446  28.083   6.114
 4902POPC   D2A63748  41.278  28.269   6.501
 4902POPC   C3A63749  41.264  28.058   6.894
 4902POPC   C4A63750  41.504  28.024   7.287
 4902POPC   C1B63751  41.543  28.564   6.149
 4902POPC   C2B63752  41.580  28.683   6.553
 4902POPC   C3B63753  41.586  28.459   6.926
 4902POPC   C4B63754  41.475  28.570   7.320
 4903POPC   NC363755  19.319  31.838   5.397
 4903POPC   PO463756  18.906  31.323   5.532
 4903POPC   GL163757  19.039  31.531   5.893
 4903POPC   GL263758  19.394  31.629   5.889
 4903POPC   C1A63759  18.869  31.460   6.307
 4903POPC   D2A63760  18.830  31.630   6.721
 4903POPC   C3A63761  18.856  31.315   7.041
 4903POPC   C4A63762  18.897  31.419   7.471
 4903POPC   C1B63763  19.378  31.399   6.309
 4903POPC   C2B63764  19.303  31.397   6.787
 4903POPC   C3B63765  19.389  31.223   7.210
 4903POPC   C4B63766  19.333  31.213   7.684
 4904POPC   NC363767  44.740  37.057   5.544
 4904POPC   PO463768  44.713  36.389   5.349
 4904POPC   GL163769  44.669  36.584   5.778
 4904POPC   GL263770  44.382  36.819   5.833
 4904POPC   C1A63771  44.745  36.768   6.216
 4904POPC   D2A63772  44.656  36.599   6.634
 4904POPC   C3A63773  44.902  36.695   7.009
 4904POPC   C4A63774  44.685  36.560   7.381
 4904POPC   C1B63775  44.304  37.061   6.240
 4904POPC   C2B63776  44.455  37.065   6.675
 4904POPC   C3B63777  44.479  36.969   7.128
 4904POPC   C4B63778  44.443  36.963   7.597
 4905POPC   NC363779  35.348  13.513   5.454
 4905POPC   PO463780  35.228  12.890   5.330
 4905POPC   GL163781  35.242  12.904   5.815
 4905POPC   GL263782  34.977  12.688   5.936
 4905POPC   C1A63783  35.381  13.032   6.250
 4905POPC   D2A63784  35.636  13.262   6.563
 4905POPC   C3A63785  35.596  13.102   6.994
 4905POPC   C4A63786  35.431  13.027   7.427
 4905POPC   C1B63787  35.220  12.551   6.289
 4905POPC   C2B63788  35.401  12.712   6.682
 4905POPC   C3B63789  35.233  12.688   7.086
 4905POPC   C4B63790  35.247  12.555   7.529
 4906POPC   NC363791  21.591  44.171   5.463
 4906POPC   PO463792  21.130  44.688   5.401
 4906POPC   GL163793  21.348  44.508   5.781
 4906POPC   GL263794  21.716  44.556   5.801
 4906POPC   C1A63795  21.405  44.674   6.213
 4906POPC   D2A63796  21.219  44.870   6.569
 4906POPC   C3A63797  21.360  44.680   6.959
 4906POPC   C4A63798  21.255  44.668   7.387
 4906POPC   C1B63799  21.775  44.284   6.164
 4906POPC   C2B63800  21.665  44.235   6.614
 4906POPC   C3B63801  21.583  44.225   7.082
 4906POPC   C4B63802  21.574  44.320   7.546
 4907POPC   NC363803  22.075   2.310   5.372
 4907POPC   PO463804  22.151   1.695   5.287
 4907POPC   GL163805  21.994   1.919   5.699
 4907POPC   GL263806  22.280   2.025   5.895
 4907POPC   C1A63807  21.850   2.032   6.157
 4907POPC   D2A63808  21.791   1.801   6.560
 4907POPC   C3A63809  21.854   1.953   6.987
 4907POPC   C4A63810  21.874   1.854   7.443
 4907POPC   C1B63811  22.341   2.003   6.331
 4907POPC   C2B63812  22.300   1.866   6.751
 4907POPC   C3B63813  22.351   1.861   7.193
 4907POPC   C4B63814  22.388   1.958   7.622
 4908POPC   NC363815  10.759   6.481   5.442
 4908POPC   PO463816  10.214   6.922   5.425
 4908POPC   GL163817  10.486   6.813   5.778
 4908POPC   GL263818  10.810   6.914   5.881
 4908POPC   C1A63819  10.451   6.651   6.194
 4908POPC   D2A63820  10.237   6.581   6.592
 4908POPC   C3A63821  10.529   6.351   6.841
 4908POPC   C4A63822  10.790   6.439   7.204
 4908POPC   C1B63823  10.819   7.008   6.343
 4908POPC   C2B63824  10.802   6.792   6.744
 4908POPC   C3B63825  10.599   6.893   7.138
 4908POPC   C4B63826  10.707   6.938   7.561
 4909POPC   NC363827  11.292  17.460   5.404
 4909POPC   PO463828  11.715  16.969   5.590
 4909POPC   GL163829  11.553  17.369   5.839
 4909POPC   GL263830  11.589  17.753   5.759
 4909POPC   C1A63831  11.277  17.363   6.243
 4909POPC   D2A63832  11.260  17.639   6.641
 4909POPC   C3A63833  11.282  17.397   7.041
 4909POPC   C4A63834  11.095  17.233   7.464
 4909POPC   C1B63835  11.566  17.764   6.212
 4909POPC   C2B63836  11.843  17.689   6.580
 4909POPC   C3B63837  11.762  17.716   7.026
 4909POPC   C4B63838  11.471  17.951   7.231
 4910POPC   NC363839  28.499  23.588   5.383
 4910POPC   PO463840  28.454  24.214   5.518
 4910POPC   GL163841  28.509  23.894   5.794
 4910POPC   GL263842  28.172  23.808   5.802
 4910POPC   C1A63843  28.509  23.696   6.184
 4910POPC   D2A63844  28.353  23.728   6.605
 4910POPC   C3A63845  28.602  23.800   6.958
 4910POPC   C4A63846  28.764  23.493   7.210
 4910POPC   C1B63847  28.138  24.066   6.218
 4910POPC   C2B63848  27.925  23.996   6.635
 4910POPC   C3B63849  28.063  23.832   7.048
 4910POPC   C4B63850  28.335  23.730   7.422
 4911POPC   NC363851   3.060  21.119   5.414
 4911POPC   PO463852   2.754  20.471   5.268
 4911POPC   GL163853   2.736  20.770   5.642
 4911POPC   GL263854   3.054  20.738   5.810
 4911POPC   C1A63855   2.654  20.905   6.098
 4911POPC   D2A63856   2.985  20.866   6.424
 4911POPC   C3A63857   2.806  20.859   6.830
 4911POPC   C4A63858   2.733  20.848   7.269
 4911POPC   C1B63859   2.874  20.433   6.143
 4911POPC   C2B63860   2.687  20.214   6.535
 4911POPC   C3B63861   2.700  20.339   6.983
 4911POPC   C4B63862   2.918  20.391   7.380
 4912POPC   NC363863  18.887  34.927   5.320
 4912POPC   PO463864  19.312  34.381   5.276
 4912POPC   GL163865  19.303  34.713   5.622
 4912POPC   GL263866  18.962  34.721   5.763
 4912POPC   C1A63867  19.348  34.662   6.096
 4912POPC   D2A63868  19.261  34.416   6.469
 4912POPC   C3A63869  19.291  34.599   6.894
 4912POPC   C4A63870  19.199  34.392   7.305
 4912POPC   C1B63871  18.818  34.584   6.149
 4912POPC   C2B63872  18.852  34.709   6.562
 4912POPC   C3B63873  18.756  34.460   6.895
 4912POPC   C4B63874  18.691  34.591   7.298
 4913POPC   NC363875  41.410  14.303   5.439
 4913POPC   PO463876  42.022  14.256   5.636
 4913POPC   GL163877  41.677  14.371   5.906
 4913POPC   GL263878  41.562  14.699   5.792
 4913POPC   C1A63879  41.577  14.273   6.358
 4913POPC   D2A63880  41.733  13.986   6.665
 4913POPC   C3A63881  41.861  14.255   6.999
 4913POPC   C4A63882  41.764  14.322   7.410
 4913POPC   C1B63883  41.528  14.760   6.249
 4913POPC   C2B63884  41.385  14.615   6.710
 4913POPC   C3B63885  41.425  14.628   7.175
 4913POPC   C4B63886  41.419  14.831   7.612
 4914POPC   NC363887  40.029  34.010   5.262
 4914POPC   PO463888  40.231  33.312   5.144
 4914POPC   GL163889  40.040  33.555   5.543
 4914POPC   GL263890  39.773  33.778   5.634
 4914POPC   C1A63891  40.045  33.534   6.025
 4914POPC   D2A63892  39.960  33.747   6.457
 4914POPC   C3A63893  39.990  33.612   6.873
 4914POPC   C4A63894  40.098  33.813   7.263
 4914POPC   C1B63895  39.712  33.915   6.056
 4914POPC   C2B63896  39.484  34.024   6.454
 4914POPC   C3B63897  39.583  33.927   6.866
 4914POPC   C4B63898  39.620  33.999   7.273
 4915POPC   NC363899  23.919  37.472   5.343
 4915POPC   PO463900  23.382  37.921   5.341
 4915POPC   GL163901  23.529  37.665   5.681
 4915POPC   GL263902  23.835  37.895   5.642
 4915POPC   C1A63903  23.438  37.620   6.154
 4915POPC   D2A63904  23.436  37.893   6.566
 4915POPC   C3A63905  23.444  37.761   7.028
 4915POPC   C4A63906  23.441  37.781   7.528
 4915POPC   C1B63907  23.964  37.645   5.992
 4915POPC   C2B63908  23.890  37.664   6.453
 4915POPC   C3B63909  23.922  37.463   6.861
 4915POPC   C4B63910  23.700  37.344   7.218
 4916POPC   NC363911  43.616  43.267   5.305
 4916POPC   PO463912  43.066  42.812   5.412
 4916POPC   GL163913  43.088  42.985   5.805
 4916POPC   GL263914  43.267  43.263   5.818
 4916POPC   C1A63915  42.800  43.165   6.083
 4916POPC   D2A63916  42.783  43.320   6.491
 4916POPC   C3A63917  42.918  43.050   6.819
 4916POPC   C4A63918  42.865  42.937   7.227
 4916POPC   C1B63919  43.281  43.199   6.280
 4916POPC   C2B63920  43.266  43.397   6.690
 4916POPC   C3B63921  43.208  43.362   7.147
 4916POPC   C4B63922  43.414  43.325   7.556
 4917POPC   NC363923   3.718  15.397   5.024
 4917POPC   PO463924   3.437  15.065   5.534
 4917POPC   GL163925   3.609  14.892   5.926
 4917POPC   GL263926   3.987  14.859   5.807
 4917POPC   C1A63927   3.504  15.000   6.363
 4917POPC   D2A63928   3.358  15.366   6.636
 4917POPC   C3A63929   3.380  15.268   7.088
 4917POPC   C4A63930   3.228  15.415   7.478
 4917POPC   C1B63931   3.982  15.117   6.188
 4917POPC   C2B63932   3.884  15.302   6.601
 4917POPC   C3B63933   4.069  15.149   6.983
 4917POPC   C4B63934   3.819  15.192   7.346
 4918POPC   NC363935   4.867  31.248   5.516
 4918POPC   PO463936   4.468  30.721   5.351
 4918POPC   GL163937   4.819  30.722   5.661
 4918POPC   GL263938   4.793  30.462   5.902
 4918POPC   C1A63939   4.902  30.905   6.109
 4918POPC   D2A63940   5.051  31.024   6.537
 4918POPC   C3A63941   4.884  30.820   6.885
 4918POPC   C4A63942   4.905  30.796   7.321
 4918POPC   C1B63943   5.008  30.383   6.311
 4918POPC   C2B63944   4.860  30.307   6.741
 4918POPC   C3B63945   5.090  30.332   7.134
 4918POPC   C4B63946   4.978  30.336   7.576
 4919POPC   NC363947   3.515   7.860   5.475
 4919POPC   PO463948   3.226   8.509   5.495
 4919POPC   GL163949   3.288   8.164   5.836
 4919POPC   GL263950   3.632   8.011   5.944
 4919POPC   C1A63951   3.182   7.981   6.273
 4919POPC   D2A63952   3.109   7.894   6.740
 4919POPC   C3A63953   3.453   8.064   6.962
 4919POPC   C4A63954   3.431   8.442   7.121
 4919POPC   C1B63955   3.617   8.416   6.182
 4919POPC   C2B63956   3.843   8.595   6.544
 4919POPC   C3B63957   3.923   8.398   6.919
 4919POPC   C4B63958   3.863   8.624   7.270
 4920POPC   NC363959  31.401  37.256   5.557
 4920POPC   PO463960  31.759  36.644   5.483
 4920POPC   GL163961  31.592  36.842   5.836
 4920POPC   GL263962  31.225  36.847   5.842
 4920POPC   C1A63963  31.579  36.920   6.271
 4920POPC   D2A63964  31.663  37.006   6.669
 4920POPC   C3A63965  31.430  36.897   6.991
 4920POPC   C4A63966  31.472  36.751   7.400
 4920POPC   C1B63967  31.130  37.139   6.177
 4920POPC   C2B63968  31.169  37.179   6.622
 4920POPC   C3B63969  31.167  37.339   7.053
 4920POPC   C4B63970  31.320  37.236   7.494
 4921POPC   NC363971  29.430  43.970   5.564
 4921POPC   PO463972  29.051  44.573   5.413
 4921POPC   GL163973  28.907  44.847   5.755
 4921POPC   GL263974  29.253  44.923   5.760
 4921POPC   C1A63975  28.885  44.754   6.209
 4921POPC   D2A63976  29.214  44.583   6.502
 4921POPC   C3A63977  29.096  44.636   6.946
 4921POPC   C4A63978  29.292  44.496   7.362
 4921POPC   C1B63979  29.524  44.831   6.097
 4921POPC   C2B63980  29.605   0.040   6.451
 4921POPC   C3B63981  29.558  44.869   6.847
 4921POPC   C4B63982  29.565  44.927   7.289
 4922POPC   NC363983  10.184  14.973   5.321
 4922POPC   PO463984  10.812  15.410   5.227
 4922POPC   GL163985  10.688  15.202   5.683
 4922POPC   GL263986  10.334  15.193   5.746
 4922POPC   C1A63987  10.709  15.242   6.178
 4922POPC   D2A63988  10.645  15.153   6.636
 4922POPC   C3A63989  10.821  15.408   6.987
 4922POPC   C4A63990  10.748  15.467   7.465
 4922POPC   C1B63991  10.337  14.898   6.092
 4922POPC   C2B63992  10.371  14.718   6.515
 4922POPC   C3B63993  10.317  14.826   6.952
 4922POPC   C4B63994  10.439  15.144   7.236
 4923POPC   NC363995  30.902  34.387   5.353
 4923POPC   PO463996  30.426  34.724   5.385
 4923POPC   GL163997  30.667  34.618   5.742
 4923POPC   GL263998  31.029  34.731   5.758
 4923POPC   C1A63999  30.606  34.559   6.170
 4923POPC   D2A64000  30.427  34.676   6.544
 4923POPC   C3A64001  30.610  34.452   6.882
 4923POPC   C4A64002  30.692  34.499   7.298
 4923POPC   C1B64003  31.116  34.622   6.218
 4923POPC   C2B64004  30.967  34.722   6.628
 4923POPC   C3B64005  31.115  34.612   7.028
 4923POPC   C4B64006  31.067  34.170   7.147
 4924POPC   NC364007  19.841  11.626   5.474
 4924POPC   PO464008  20.050  12.276   5.319
 4924POPC   GL164009  20.050  12.084   5.744
 4924POPC   GL264010  20.201  11.771   5.867
 4924POPC   C1A64011  19.742  12.054   6.115
 4924POPC   D2A64012  19.535  12.334   6.433
 4924POPC   C3A64013  19.490  12.154   6.831
 4924POPC   C4A64014  19.730  11.980   7.154
 4924POPC   C1B64015  20.232  12.055   6.233
 4924POPC   C2B64016  20.008  12.051   6.648
 4924POPC   C3B64017  20.209  12.178   7.021
 4924POPC   C4B64018  20.253  11.951   7.346
 4925POPC   NC364019   5.755  44.935   5.342
 4925POPC   PO464020   6.217  44.552   5.461
 4925POPC   GL164021   5.965  44.581   5.865
 4925POPC   GL264022   5.678  44.738   5.811
 4925POPC   C1A64023   5.815  44.656   6.314
 4925POPC   D2A64024   6.001  44.862   6.666
 4925POPC   C3A64025   5.952  44.637   7.054
 4925POPC   C4A64026   5.644  44.628   7.395
 4925POPC   C1B64027   5.532   0.039   6.133
 4925POPC   C2B64028   5.455  44.961   6.584
 4925POPC   C3B64029   5.576  44.977   7.020
 4925POPC   C4B64030   5.792   0.160   7.383
 4926POPC   NC364031   7.142  40.005   5.506
 4926POPC   PO464032   6.520  39.773   5.329
 4926POPC   GL164033   6.555  39.990   5.741
 4926POPC   GL264034   6.645  39.819   6.061
 4926POPC   C1A64035   6.297  40.167   6.095
 4926POPC   D2A64036   6.493  40.066   6.501
 4926POPC   C3A64037   6.445  40.094   6.933
 4926POPC   C4A64038   6.672  39.756   7.110
 4926POPC   C1B64039   6.821  40.241   6.146
 4926POPC   C2B64040   7.124  40.336   6.474
 4926POPC   C3B64041   7.174  40.290   6.938
 4926POPC   C4B64042   6.946  40.168   7.322
 4927POPC   NC364043  44.991   3.032   5.380
 4927POPC   PO464044  44.643   2.503   5.428
 4927POPC   GL164045  44.716   2.629   5.858
 4927POPC   GL264046  44.627   2.963   5.914
 4927POPC   C1A64047  44.680   2.632   6.321
 4927POPC   D2A64048  44.923   2.465   6.670
 4927POPC   C3A64049  44.820   2.572   7.091
 4927POPC   C4A64050   0.031   2.328   7.396
 4927POPC   C1B64051  44.386   3.073   6.285
 4927POPC   C2B64052  44.182   2.950   6.674
 4927POPC   C3B64053  44.318   2.830   7.096
 4927POPC   C4B64054  44.479   2.966   7.504
 4928POPC   NC364055  31.561  23.452   5.443
 4928POPC   PO464056  31.672  24.082   5.515
 4928POPC   GL164057  31.723  23.924   5.932
 4928POPC   GL264058  31.513  23.669   5.888
 4928POPC   C1A64059  31.666  23.723   6.374
 4928POPC   D2A64060  31.652  23.354   6.633
 4928POPC   C3A64061  31.811  23.490   7.032
 4928POPC   C4A64062  31.680  23.910   7.167
 4928POPC   C1B64063  31.340  23.393   6.157
 4928POPC   C2B64064  31.152  23.564   6.500
 4928POPC   C3B64065  31.312  23.647   6.881
 4928POPC   C4B64066  31.334  23.382   7.220
 4929POPC   NC364067  37.400  11.012   5.036
 4929POPC   PO464068  37.843  11.543   5.172
 4929POPC   GL164069  37.733  11.307   5.570
 4929POPC   GL264070  37.429  11.079   5.568
 4929POPC   C1A64071  37.915  11.213   5.984
 4929POPC   D2A64072  37.982  11.245   6.433
 4929POPC   C3A64073  37.682  11.321   6.753
 4929POPC   C4A64074  37.633  11.608   7.124
 4929POPC   C1B64075  37.420  11.067   6.039
 4929POPC   C2B64076  37.261  11.063   6.492
 4929POPC   C3B64077  37.356  10.941   6.940
 4929POPC   C4B64078  37.670  11.077   7.224
 4930POPC   NC364079  32.587  16.488   5.790
 4930POPC   PO464080  32.970  16.853   5.357
 4930POPC   GL164081  33.040  16.744   5.776
 4930POPC   GL264082  33.281  16.450   5.777
 4930POPC   C1A64083  32.917  16.934   6.187
 4930POPC   D2A64084  33.149  17.025   6.571
 4930POPC   C3A64085  33.098  16.810   6.956
 4930POPC   C4A64086  32.720  16.720   7.234
 4930POPC   C1B64087  33.087  16.396   6.196
 4930POPC   C2B64088  32.821  16.524   6.560
 4930POPC   C3B64089  32.894  16.339   6.966
 4930POPC   C4B64090  33.362  16.338   7.056
 4931POPC   NC364091   1.179  30.090   5.492
 4931POPC   PO464092   1.168  29.438   5.453
 4931POPC   GL164093   1.197  29.684   5.843
 4931POPC   GL264094   0.971  29.978   5.937
 4931POPC   C1A64095   1.353  29.796   6.249
 4931POPC   D2A64096   1.140  29.946   6.628
 4931POPC   C3A64097   1.320  29.805   7.018
 4931POPC   C4A64098   1.196  29.969   7.455
 4931POPC   C1B64099   1.200  30.284   6.198
 4931POPC   C2B64100   1.287  30.472   6.602
 4931POPC   C3B64101   1.324  30.309   7.039
 4931POPC   C4B64102   1.674  30.172   7.315
 4932POPC   NC364103  28.823  24.549   5.505
 4932POPC   PO464104  29.454  24.205   5.490
 4932POPC   GL164105  29.248  24.475   5.825
 4932POPC   GL264106  29.454  24.756   5.946
 4932POPC   C1A64107  29.120  24.452   6.283
 4932POPC   D2A64108  29.134  24.156   6.653
 4932POPC   C3A64109  28.829  24.275   6.945
 4932POPC   C4A64110  28.759  24.633   7.173
 4932POPC   C1B64111  29.577  24.670   6.349
 4932POPC   C2B64112  29.313  24.815   6.681
 4932POPC   C3B64113  29.290  24.533   7.006
 4932POPC   C4B64114  29.648  24.250   7.034
 4933POPC   NC364115  30.937  14.563   5.434
 4933POPC   PO464116  30.525  14.063   5.237
 4933POPC   GL164117  30.638  14.217   5.685
 4933POPC   GL264118  30.902  14.240   5.824
 4933POPC   C1A64119  30.511  14.389   6.117
 4933POPC   D2A64120  30.554  14.198   6.534
 4933POPC   C3A64121  30.823  14.325   6.876
 4933POPC   C4A64122  30.614  14.512   7.229
 4933POPC   C1B64123  30.997  14.381   6.241
 4933POPC   C2B64124  31.002  14.697   6.561
 4933POPC   C3B64125  31.153  14.772   6.962
 4933POPC   C4B64126  31.097  14.541   7.359
 4934POPC   NC364127  24.211  36.556   5.095
 4934POPC   PO464128  23.678  36.968   5.391
 4934POPC   GL164129  23.719  37.158   5.769
 4934POPC   GL264130  23.619  36.823   5.883
 4934POPC   C1A64131  23.852  37.209   6.202
 4934POPC   D2A64132  24.156  37.086   6.500
 4934POPC   C3A64133  23.971  36.911   6.863
 4934POPC   C4A64134  23.957  36.891   7.284
 4934POPC   C1B64135  23.850  36.698   6.237
 4934POPC   C2B64136  23.735  36.501   6.598
 4934POPC   C3B64137  23.873  36.407   6.959
 4934POPC   C4B64138  23.650  36.502   7.325
 4935POPC   NC364139  41.456  23.104   5.386
 4935POPC   PO464140  41.397  22.529   5.610
 4935POPC   GL164141  41.470  22.889   5.879
 4935POPC   GL264142  41.765  23.082   5.801
 4935POPC   C1A64143  41.473  22.852   6.326
 4935POPC   D2A64144  41.617  22.959   6.721
 4935POPC   C3A64145  41.447  22.679   6.967
 4935POPC   C4A64146  41.256  22.828   7.294
 4935POPC   C1B64147  41.948  22.966   6.191
 4935POPC   C2B64148  42.090  23.078   6.581
 4935POPC   C3B64149  41.987  23.235   6.979
 4935POPC   C4B64150  41.728  23.013   7.269
 4936POPC   NC364151  18.167  35.059   5.414
 4936POPC   PO464152  18.591  34.546   5.355
 4936POPC   GL164153  18.249  34.597   5.661
 4936POPC   GL264154  18.459  34.839   5.812
 4936POPC   C1A64155  18.143  34.579   6.118
 4936POPC   D2A64156  18.379  34.507   6.500
 4936POPC   C3A64157  18.231  34.529   6.929
 4936POPC   C4A64158  18.270  34.289   7.276
 4936POPC   C1B64159  18.476  34.956   6.243
 4936POPC   C2B64160  18.330  35.023   6.677
 4936POPC   C3B64161  18.381  34.985   7.123
 4936POPC   C4B64162  18.222  34.744   7.498
 4937POPC   NC364163  10.724  23.540   5.570
 4937POPC   PO464164  11.388  23.676   5.461
 4937POPC   GL164165  11.222  23.893   5.841
 4937POPC   GL264166  11.559  23.987   5.964
 4937POPC   C1A64167  11.167  23.851   6.295
 4937POPC   D2A64168  10.935  23.771   6.660
 4937POPC   C3A64169  11.162  23.671   7.018
 4937POPC   C4A64170  11.132  23.958   7.351
 4937POPC   C1B64171  11.695  23.872   6.357
 4937POPC   C2B64172  11.523  24.009   6.726
 4937POPC   C3B64173  11.605  23.889   7.138
 4937POPC   C4B64174  11.785  23.500   7.312
 4938POPC   NC364175  42.665  38.117   5.469
 4938POPC   PO464176  42.044  37.822   5.354
 4938POPC   GL164177  42.040  37.618   5.760
 4938POPC   GL264178  42.366  37.772   5.779
 4938POPC   C1A64179  42.206  37.465   6.177
 4938POPC   D2A64180  42.456  37.572   6.567
 4938POPC   C3A64181  42.529  37.369   6.995
 4938POPC   C4A64182  42.219  37.250   7.315
 4938POPC   C1B64183  42.561  37.877   6.151
 4938POPC   C2B64184  42.677  38.084   6.548
 4938POPC   C3B64185  42.531  37.935   6.932
 4938POPC   C4B64186  42.674  37.873   7.323
 4939POPC   NC364187  34.944  37.427   5.347
 4939POPC   PO464188  34.460  37.865   5.300
 4939POPC   GL164189  34.731  37.727   5.704
 4939POPC   GL264190  34.491  37.498   5.864
 4939POPC   C1A64191  34.913  37.616   6.168
 4939POPC   D2A64192  34.723  37.689   6.579
 4939POPC   C3A64193  34.903  37.733   6.994
 4939POPC   C4A64194  34.691  37.773   7.419
 4939POPC   C1B64195  34.502  37.296   6.285
 4939POPC   C2B64196  34.352  37.312   6.727
 4939POPC   C3B64197  34.504  37.418   7.137
 4939POPC   C4B64198  34.376  37.368   7.607
 4940POPC   NC364199  42.018  30.649   5.629
 4940POPC   PO464200  42.623  30.592   5.355
 4940POPC   GL164201  42.485  30.938   5.683
 4940POPC   GL264202  42.405  30.711   5.914
 4940POPC   C1A64203  42.526  31.120   6.172
 4940POPC   D2A64204  42.786  31.119   6.590
 4940POPC   C3A64205  42.583  30.986   7.009
 4940POPC   C4A64206  42.260  31.049   7.380
 4940POPC   C1B64207  42.175  30.764   6.285
 4940POPC   C2B64208  42.367  30.632   6.662
 4940POPC   C3B64209  42.241  30.601   7.062
 4940POPC   C4B64210  42.377  30.572   7.471
 4941POPC   NC364211  35.285  30.068   5.204
 4941POPC   PO464212  35.563  29.656   5.614
 4941POPC   GL164213  35.217  29.695   5.889
 4941POPC   GL264214  35.209  30.055   5.823
 4941POPC   C1A64215  35.153  29.793   6.336
 4941POPC   D2A64216  35.441  30.015   6.601
 4941POPC   C3A64217  35.529  29.773   6.961
 4941POPC   C4A64218  35.606  29.905   7.357
 4941POPC   C1B64219  35.145  30.290   6.222
 4941POPC   C2B64220  34.996  30.249   6.656
 4941POPC   C3B64221  35.220  30.189   7.060
 4941POPC   C4B64222  35.146  30.072   7.529
 4942POPC   NC364223   8.543   4.438   5.407
 4942POPC   PO464224   9.158   4.103   5.374
 4942POPC   GL164225   9.171   4.360   5.726
 4942POPC   GL264226   8.868   4.529   5.785
 4942POPC   C1A64227   9.111   4.290   6.165
 4942POPC   D2A64228   8.889   4.447   6.498
 4942POPC   C3A64229   8.935   4.243   6.872
 4942POPC   C4A64230   9.158   4.388   7.231
 4942POPC   C1B64231   8.573   4.638   6.119
 4942POPC   C2B64232   8.432   4.739   6.539
 4942POPC   C3B64233   8.693   4.700   6.890
 4942POPC   C4B64234   8.811   4.771   7.291
 4943POPC   NC364235  43.857  26.272   5.463
 4943POPC   PO464236  44.201  25.703   5.169
 4943POPC   GL164237  44.012  25.834   5.648
 4943POPC   GL264238  43.631  25.875   5.718
 4943POPC   C1A64239  44.121  25.970   6.129
 4943POPC   D2A64240  43.925  25.897   6.532
 4943POPC   C3A64241  44.003  26.117   6.914
 4943POPC   C4A64242  44.204  26.085   7.311
 4943POPC   C1B64243  43.644  26.121   6.126
 4943POPC   C2B64244  43.613  26.318   6.552
 4943POPC   C3B64245  43.540  26.343   7.010
 4943POPC   C4B64246  43.596  25.935   7.203
 4944POPC   NC364247  20.070   0.009   5.581
 4944POPC   PO464248  19.479  44.748   5.332
 4944POPC   GL164249  19.688  44.685   5.758
 4944POPC   GL264250  19.946  44.437   5.800
 4944POPC   C1A64251  19.698  44.802   6.231
 4944POPC   D2A64252  19.450  44.755   6.637
 4944POPC   C3A64253  19.532   0.003   6.988
 4944POPC   C4A64254  19.649  44.869   7.394
 4944POPC   C1B64255  19.737  44.279   6.146
 4944POPC   C2B64256  19.797  44.385   6.563
 4944POPC   C3B64257  19.823  44.578   6.946
 4944POPC   C4B64258  19.923  44.429   7.306
 4945POPC   NC364259   6.447   7.252   5.583
 4945POPC   PO464260   6.975   7.529   5.191
 4945POPC   GL164261   6.858   7.582   5.644
 4945POPC   GL264262   6.929   7.247   5.777
 4945POPC   C1A64263   6.817   7.618   6.126
 4945POPC   D2A64264   6.595   7.460   6.507
 4945POPC   C3A64265   6.663   7.643   6.913
 4945POPC   C4A64266   6.667   7.561   7.344
 4945POPC   C1B64267   6.730   7.044   6.150
 4945POPC   C2B64268   6.710   6.933   6.578
 4945POPC   C3B64269   6.572   7.133   6.941
 4945POPC   C4B64270   6.423   7.023   7.316
 4946POPC   NC364271  15.092   8.300   5.284
 4946POPC   PO464272  15.411   7.770   5.441
 4946POPC   GL164273  15.189   8.069   5.753
 4946POPC   GL264274  14.876   8.295   5.762
 4946POPC   C1A64275  15.174   8.209   6.179
 4946POPC   D2A64276  15.316   8.000   6.529
 4946POPC   C3A64277  15.164   8.222   6.875
 4946POPC   C4A64278  15.276   8.188   7.288
 4946POPC   C1B64279  14.678   8.058   6.099
 4946POPC   C2B64280  14.810   7.902   6.506
 4946POPC   C3B64281  14.761   7.878   6.955
 4946POPC   C4B64282  14.799   8.035   7.388
 4947POPC   NC364283  34.086  34.085   5.467
 4947POPC   PO464284  33.888  33.447   5.443
 4947POPC   GL164285  33.711  33.760   5.746
 4947POPC   GL264286  33.948  33.918   5.927
 4947POPC   C1A64287  33.468  33.780   6.167
 4947POPC   D2A64288  33.440  33.847   6.658
 4947POPC   C3A64289  33.644  33.586   7.028
 4947POPC   C4A64290  33.823  33.652   7.482
 4947POPC   C1B64291  33.917  33.897   6.372
 4947POPC   C2B64292  34.125  34.036   6.713
 4947POPC   C3B64293  34.026  33.962   7.133
 4947POPC   C4B64294  34.135  34.087   7.558
 4948POPC   NC364295  44.128  41.057   5.426
 4948POPC   PO464296  43.562  40.735   5.393
 4948POPC   GL164297  43.758  40.878   5.736
 4948POPC   GL264298  43.974  40.629   5.773
 4948POPC   C1A64299  43.889  41.070   6.123
 4948POPC   D2A64300  43.834  40.911   6.521
 4948POPC   C3A64301  43.978  41.095   6.901
 4948POPC   C4A64302  43.952  40.919   7.282
 4948POPC   C1B64303  44.048  40.370   6.121
 4948POPC   C2B64304  44.107  40.453   6.530
 4948POPC   C3B64305  43.924  40.540   6.908
 4948POPC   C4B64306  44.124  40.449   7.313
 4949POPC   NC364307  30.323  27.213   5.446
 4949POPC   PO464308  29.713  27.619   5.392
 4949POPC   GL164309  29.752  27.692   5.840
 4949POPC   GL264310  30.124  27.707   5.957
 4949POPC   C1A64311  29.757  27.434   6.215
 4949POPC   D2A64312  29.980  27.514   6.579
 4949POPC   C3A64313  29.822  27.354   6.938
 4949POPC   C4A64314  29.868  27.604   7.290
 4949POPC   C1B64315  30.310  27.334   6.238
 4949POPC   C2B64316  30.368  27.193   6.707
 4949POPC   C3B64317  30.294  27.333   7.172
 4949POPC   C4B64318  30.389  27.248   7.641
 4950POPC   NC364319  35.951  32.438   5.340
 4950POPC   PO464320  36.495  31.951   5.485
 4950POPC   GL164321  36.390  32.145   5.885
 4950POPC   GL264322  36.106  32.328   5.817
 4950POPC   C1A64323  36.330  32.210   6.364
 4950POPC   D2A64324  36.346  32.452   6.786
 4950POPC   C3A64325  36.145  32.208   7.105
 4950POPC   C4A64326  35.880  31.820   7.032
 4950POPC   C1B64327  35.917  32.511   6.194
 4950POPC   C2B64328  35.872  32.390   6.631
 4950POPC   C3B64329  35.672  32.375   7.023
 4950POPC   C4B64330  35.769  32.337   7.464
 4951POPC   NC364331  16.925  18.345   5.241
 4951POPC   PO464332  16.580  17.924   5.526
 4951POPC   GL164333  16.891  18.085   5.847
 4951POPC   GL264334  16.952  18.432   5.774
 4951POPC   C1A64335  16.935  18.149   6.313
 4951POPC   D2A64336  16.758  17.917   6.639
 4951POPC   C3A64337  16.733  18.038   7.041
 4951POPC   C4A64338  16.308  18.054   7.217
 4951POPC   C1B64339  16.643  18.521   6.153
 4951POPC   C2B64340  16.602  18.423   6.643
 4951POPC   C3B64341  16.589  18.515   7.116
 4951POPC   C4B64342  16.934  18.621   7.406
 4952POPC   NC364343  30.737  18.585   5.527
 4952POPC   PO464344  30.814  19.214   5.356
 4952POPC   GL164345  30.667  19.199   5.771
 4952POPC   GL264346  30.376  18.969   5.692
 4952POPC   C1A64347  30.795  19.268   6.198
 4952POPC   D2A64348  30.641  19.307   6.619
 4952POPC   C3A64349  30.741  19.280   7.059
 4952POPC   C4A64350  30.998  19.007   7.310
 4952POPC   C1B64351  30.473  18.854   6.116
 4952POPC   C2B64352  30.640  18.703   6.487
 4952POPC   C3B64353  30.555  18.840   6.867
 4952POPC   C4B64354  30.487  18.843   7.277
 4953POPC   NC364355  19.360  23.482   5.407
 4953POPC   PO464356  19.944  23.708   5.353
 4953POPC   GL164357  19.737  23.632   5.754
 4953POPC   GL264358  19.645  23.962   5.825
 4953POPC   C1A64359  19.863  23.717   6.218
 4953POPC   D2A64360  19.988  23.877   6.642
 4953POPC   C3A64361  19.971  23.628   7.015
 4953POPC   C4A64362  20.251  23.400   7.278
 4953POPC   C1B64363  19.421  24.051   6.187
 4953POPC   C2B64364  19.324  23.862   6.573
 4953POPC   C3B64365  19.287  23.954   6.989
 4953POPC   C4B64366  19.611  23.881   7.254
 4954POPC   NC364367  42.908  39.918   5.370
 4954POPC   PO464368  43.538  39.866   5.328
 4954POPC   GL164369  43.241  40.070   5.735
 4954POPC   GL264370  42.833  40.073   5.832
 4954POPC   C1A64371  43.171  40.270   6.160
 4954POPC   D2A64372  43.106  40.207   6.605
 4954POPC   C3A64373  43.233  40.061   7.001
 4954POPC   C4A64374  43.432  39.704   7.188
 4954POPC   C1B64375  42.854  39.854   6.228
 4954POPC   C2B64376  42.718  39.858   6.658
 4954POPC   C3B64377  42.815  39.730   7.065
 4954POPC   C4B64378  42.985  39.841   7.450
 4955POPC   NC364379  20.888  14.796   5.706
 4955POPC   PO464380  20.187  14.780   5.533
 4955POPC   GL164381  20.491  14.508   5.865
 4955POPC   GL264382  20.500  14.121   5.885
 4955POPC   C1A64383  20.695  14.420   6.288
 4955POPC   D2A64384  20.654  14.564   6.735
 4955POPC   C3A64385  20.757  14.390   7.176
 4955POPC   C4A64386  20.839  14.463   7.667
 4955POPC   C1B64387  20.323  14.062   6.299
 4955POPC   C2B64388  20.508  14.071   6.696
 4955POPC   C3B64389  20.310  14.166   7.091
 4955POPC   C4B64390  20.497  14.128   7.513
 4956POPC   NC364391  44.632  34.891   5.240
 4956POPC   PO464392  44.421  34.248   5.349
 4956POPC   GL164393  44.604  34.432   5.719
 4956POPC   GL264394  44.625  34.787   5.727
 4956POPC   C1A64395  44.853  34.388   6.097
 4956POPC   D2A64396  44.758  34.241   6.504
 4956POPC   C3A64397  44.719  34.394   6.873
 4956POPC   C4A64398  44.449  34.539   7.177
 4956POPC   C1B64399  44.776  34.894   6.100
 4956POPC   C2B64400  44.763  34.766   6.489
 4956POPC   C3B64401  44.634  34.882   6.877
 4956POPC   C4B64402  44.880  34.859   7.282
 4957POPC   NC364403   5.918  37.208   5.299
 4957POPC   PO464404   5.483  36.826   5.529
 4957POPC   GL164405   5.554  36.884   5.897
 4957POPC   GL264406   5.882  36.990   5.848
 4957POPC   C1A64407   5.604  36.804   6.294
 4957POPC   D2A64408   5.823  37.011   6.632
 4957POPC   C3A64409   5.688  36.927   7.044
 4957POPC   C4A64410   5.506  36.577   7.217
 4957POPC   C1B64411   6.133  37.072   6.223
 4957POPC   C2B64412   6.418  37.168   6.594
 4957POPC   C3B64413   6.187  37.124   6.973
 4957POPC   C4B64414   6.171  36.864   7.330
 4958POPC   NC364415  23.219  14.639   5.402
 4958POPC   PO464416  22.786  14.109   5.589
 4958POPC   GL164417  23.007  14.408   5.824
 4958POPC   GL264418  22.706  14.558   5.886
 4958POPC   C1A64419  23.007  14.405   6.285
 4958POPC   D2A64420  22.993  14.098   6.614
 4958POPC   C3A64421  22.628  14.119   6.899
 4958POPC   C4A64422  22.661  14.495   7.158
 4958POPC   C1B64423  22.652  14.798   6.261
 4958POPC   C2B64424  22.682  14.570   6.645
 4958POPC   C3B64425  23.077  14.538   6.880
 4958POPC   C4B64426  23.065  14.872   7.173
 4959POPC   NC364427  35.657  14.246   5.142
 4959POPC   PO464428  36.175  14.543   5.574
 4959POPC   GL164429  36.257  14.170   5.814
 4959POPC   GL264430  36.027  14.350   6.055
 4959POPC   C1A64431  36.237  13.945   6.245
 4959POPC   D2A64432  36.295  14.158   6.678
 4959POPC   C3A64433  35.940  14.290   7.009
 4959POPC   C4A64434  35.790  14.212   7.456
 4959POPC   C1B64435  36.449  14.412   6.217
 4959POPC   C2B64436  36.608  14.597   6.563
 4959POPC   C3B64437  36.572  14.503   6.948
 4959POPC   C4B64438  36.405  14.271   7.211
 4960POPC   NC364439  21.007  17.176   5.612
 4960POPC   PO464440  20.527  17.603   5.201
 4960POPC   GL164441  20.434  17.603   5.692
 4960POPC   GL264442  20.775  17.588   5.844
 4960POPC   C1A64443  20.353  17.482   6.170
 4960POPC   D2A64444  20.132  17.454   6.562
 4960POPC   C3A64445  20.293  17.602   6.973
 4960POPC   C4A64446  20.376  17.319   7.330
 4960POPC   C1B64447  20.848  17.338   6.255
 4960POPC   C2B64448  20.623  17.268   6.609
 4960POPC   C3B64449  20.771  17.372   6.998
 4960POPC   C4B64450  21.069  17.390   7.346
 4961POPC   NC364451   0.285  14.788   5.423
 4961POPC   PO464452   0.445  15.444   5.416
 4961POPC   GL164453   0.266  15.232   5.765
 4961POPC   GL264454   0.548  15.056   5.797
 4961POPC   C1A64455   0.167  14.990   6.162
 4961POPC   D2A64456   0.282  14.813   6.590
 4961POPC   C3A64457   0.378  15.146   6.908
 4961POPC   C4A64458   0.359  15.346   7.317
 4961POPC   C1B64459   0.586  15.339   6.144
 4961POPC   C2B64460   0.732  15.255   6.558
 4961POPC   C3B64461   0.893  15.310   6.965
 4961POPC   C4B64462   0.775  14.992   7.217
 4962POPC   NC364463  28.817  27.240   5.436
 4962POPC   PO464464  29.281  26.722   5.305
 4962POPC   GL164465  28.981  26.768   5.648
 4962POPC   GL264466  28.787  26.988   5.905
 4962POPC   C1A64467  29.023  26.548   6.012
 4962POPC   D2A64468  29.063  26.435   6.400
 4962POPC   C3A64469  29.246  26.639   6.693
 4962POPC   C4A64470  29.128  26.669   7.117
 4962POPC   C1B64471  28.971  26.985   6.345
 4962POPC   C2B64472  29.048  27.091   6.797
 4962POPC   C3B64473  28.753  27.002   7.162
 4962POPC   C4B64474  28.863  26.994   7.600
 4963POPC   NC364475  35.381  36.458   5.552
 4963POPC   PO464476  35.514  35.972   5.159
 4963POPC   GL164477  35.476  35.932   5.665
 4963POPC   GL264478  35.305  36.142   5.924
 4963POPC   C1A64479  35.555  35.752   6.110
 4963POPC   D2A64480  35.302  35.854   6.472
 4963POPC   C3A64481  35.459  36.117   6.830
 4963POPC   C4A64482  35.644  36.060   7.246
 4963POPC   C1B64483  35.529  36.292   6.298
 4963POPC   C2B64484  35.750  36.533   6.622
 4963POPC   C3B64485  35.750  36.581   7.061
 4963POPC   C4B64486  35.395  36.508   7.314
 4964POPC   NC364487  19.496  42.550   5.181
 4964POPC   PO464488  20.147  42.242   5.239
 4964POPC   GL164489  19.950  42.265   5.648
 4964POPC   GL264490  19.769  42.585   5.725
 4964POPC   C1A64491  19.878  42.097   6.088
 4964POPC   D2A64492  19.762  42.188   6.506
 4964POPC   C3A64493  19.898  41.962   6.882
 4964POPC   C4A64494  19.811  42.097   7.311
 4964POPC   C1B64495  19.677  42.642   6.221
 4964POPC   C2B64496  19.699  42.724   6.691
 4964POPC   C3B64497  19.961  42.545   7.021
 4964POPC   C4B64498  19.941  42.603   7.492
 4965POPC   NC364499  21.652  11.159   5.145
 4965POPC   PO464500  21.079  11.048   5.450
 4965POPC   GL164501  21.228  11.267   5.818
 4965POPC   GL264502  21.550  11.462   5.884
 4965POPC   C1A64503  21.352  11.218   6.263
 4965POPC   D2A64504  21.485  11.128   6.660
 4965POPC   C3A64505  21.182  11.387   6.885
 4965POPC   C4A64506  21.103  11.567   7.291
 4965POPC   C1B64507  21.573  11.720   6.252
 4965POPC   C2B64508  21.591  11.643   6.692
 4965POPC   C3B64509  21.597  11.573   7.140
 4965POPC   C4B64510  21.796  11.306   7.480
 4966POPC   NC364511  19.680  12.598   5.306
 4966POPC   PO464512  19.740  13.286   5.355
 4966POPC   GL164513  19.816  12.970   5.705
 4966POPC   GL264514  20.128  12.770   5.714
 4966POPC   C1A64515  19.773  12.677   6.086
 4966POPC   D2A64516  20.025  12.504   6.424
 4966POPC   C3A64517  19.901  12.556   6.884
 4966POPC   C4A64518  20.167  12.651   7.272
 4966POPC   C1B64519  20.143  13.011   6.146
 4966POPC   C2B64520  19.926  12.984   6.571
 4966POPC   C3B64521  20.146  13.053   6.965
 4966POPC   C4B64522  20.357  13.245   7.348
 4967POPC   NC364523  33.161  31.474   5.470
 4967POPC   PO464524  32.459  31.440   5.558
 4967POPC   GL164525  32.823  31.403   5.840
 4967POPC   GL264526  33.041  31.717   5.895
 4967POPC   C1A64527  33.081  31.253   6.173
 4967POPC   D2A64528  32.985  31.053   6.549
 4967POPC   C3A64529  32.916  31.362   6.864
 4967POPC   C4A64530  33.138  31.211   7.188
 4967POPC   C1B64531  33.352  31.694   6.227
 4967POPC   C2B64532  33.347  31.521   6.635
 4967POPC   C3B64533  33.270  31.709   7.030
 4967POPC   C4B64534  32.903  31.640   7.325
 4968POPC   NC364535  38.081  29.866   5.132
 4968POPC   PO464536  38.717  29.919   5.287
 4968POPC   GL164537  38.622  29.854   5.699
 4968POPC   GL264538  38.805  29.559   5.734
 4968POPC   C1A64539  38.511  30.093   6.085
 4968POPC   D2A64540  38.189  30.056   6.417
 4968POPC   C3A64541  38.301  30.180   6.871
 4968POPC   C4A64542  38.335  29.842   7.177
 4968POPC   C1B64543  38.873  29.725   6.147
 4968POPC   C2B64544  38.684  29.886   6.535
 4968POPC   C3B64545  38.808  29.959   6.956
 4968POPC   C4B64546  38.816  29.756   7.373
 4969POPC   NC364547  40.577  30.081   5.480
 4969POPC   PO464548  41.096  29.727   5.256
 4969POPC   GL164549  40.930  29.753   5.681
 4969POPC   GL264550  41.007  30.068   5.852
 4969POPC   C1A64551  40.926  29.654   6.144
 4969POPC   D2A64552  40.722  29.922   6.477
 4969POPC   C3A64553  40.629  29.743   6.868
 4969POPC   C4A64554  40.833  29.662   7.235
 4969POPC   C1B64555  40.750  30.328   6.119
 4969POPC   C2B64556  40.696  30.457   6.532
 4969POPC   C3B64557  40.918  30.414   6.886
 4969POPC   C4B64558  40.878  30.161   7.225
 4970POPC   NC364559  24.614   1.399   5.044
 4970POPC   PO464560  24.139   1.093   5.392
 4970POPC   GL164561  24.420   1.039   5.758
 4970POPC   GL264562  24.678   1.297   5.741
 4970POPC   C1A64563  24.575   0.950   6.190
 4970POPC   D2A64564  24.522   0.734   6.619
 4970POPC   C3A64565  24.272   1.004   6.891
 4970POPC   C4A64566  24.302   1.462   7.027
 4970POPC   C1B64567  24.608   1.492   6.159
 4970POPC   C2B64568  24.549   1.300   6.570
 4970POPC   C3B64569  24.753   1.198   6.951
 4970POPC   C4B64570  24.920   1.579   7.103
 4971POPC   NC364571  35.567   8.223   5.548
 4971POPC   PO464572  35.055   8.636   5.797
 4971POPC   GL164573  35.215   8.257   5.947
 4971POPC   GL264574  34.952   8.284   6.184
 4971POPC   C1A64575  35.538   8.163   6.244
 4971POPC   D2A64576  35.750   8.080   6.633
 4971POPC   C3A64577  35.551   8.142   7.027
 4971POPC   C4A64578  35.481   8.523   7.323
 4971POPC   C1B64579  34.995   8.505   6.562
 4971POPC   C2B64580  35.113   8.390   6.962
 4971POPC   C3B64581  35.060   8.249   7.372
 4971POPC   C4B64582  34.888   8.525   7.681
 4972POPC   NC364583   1.617  33.593   5.506
 4972POPC   PO464584   0.924  33.534   5.419
 4972POPC   GL164585   1.178  33.787   5.727
 4972POPC   GL264586   1.169  34.140   5.690
 4972POPC   C1A64587   1.450  33.877   6.105
 4972POPC   D2A64588   1.612  34.020   6.502
 4972POPC   C3A64589   1.446  33.862   6.911
 4972POPC   C4A64590   1.390  33.701   7.338
 4972POPC   C1B64591   0.932  34.070   6.095
 4972POPC   C2B64592   1.090  34.028   6.525
 4972POPC   C3B64593   0.903  33.915   6.924
 4972POPC   C4B64594   0.980  34.060   7.343
 4973POPC   NC364595  18.977  12.108   5.327
 4973POPC   PO464596  19.383  11.504   5.477
 4973POPC   GL164597  19.141  11.721   5.817
 4973POPC   GL264598  18.799  11.850   5.847
 4973POPC   C1A64599  19.254  11.850   6.233
 4973POPC   D2A64600  19.569  11.746   6.531
 4973POPC   C3A64601  19.362  11.644   6.928
 4973POPC   C4A64602  19.149  11.919   7.188
 4973POPC   C1B64603  18.742  11.751   6.293
 4973POPC   C2B64604  18.937  11.884   6.697
 4973POPC   C3B64605  18.973  12.311   6.900
 4973POPC   C4B64606  18.837  12.592   7.236
 4974POPC   NC364607  30.395  11.825   5.529
 4974POPC   PO464608  30.925  12.147   5.301
 4974POPC   GL164609  31.012  12.148   5.744
 4974POPC   GL264610  30.681  12.113   5.832
 4974POPC   C1A64611  31.011  12.101   6.215
 4974POPC   D2A64612  30.769  12.033   6.576
 4974POPC   C3A64613  30.948  12.195   6.933
 4974POPC   C4A64614  31.082  12.375   7.293
 4974POPC   C1B64615  30.449  12.195   6.203
 4974POPC   C2B64616  30.306  12.304   6.602
 4974POPC   C3B64617  30.412  12.118   6.949
 4974POPC   C4B64618  30.599  12.174   7.302
 4975POPC   NC364619  31.867  19.443   5.549
 4975POPC   PO464620  31.526  19.937   5.207
 4975POPC   GL164621  31.608  19.846   5.683
 4975POPC   GL264622  31.415  20.023   5.928
 4975POPC   C1A64623  31.692  19.677   6.155
 4975POPC   D2A64624  31.519  19.827   6.598
 4975POPC   C3A64625  31.724  19.580   6.950
 4975POPC   C4A64626  31.877  19.622   7.367
 4975POPC   C1B64627  31.174  20.146   6.267
 4975POPC   C2B64628  31.005  20.079   6.651
 4975POPC   C3B64629  31.226  20.135   7.029
 4975POPC   C4B64630  31.405  19.813   7.298
 4976POPC   NC364631   5.509  34.848   5.449
 4976POPC   PO464632   4.869  34.677   5.479
 4976POPC   GL164633   5.014  34.477   5.851
 4976POPC   GL264634   5.278  34.669   5.896
 4976POPC   C1A64635   4.960  34.317   6.284
 4976POPC   D2A64636   4.716  34.291   6.683
 4976POPC   C3A64637   4.846  34.674   6.925
 4976POPC   C4A64638   5.123  34.724   7.292
 4976POPC   C1B64639   5.439  34.317   6.140
 4976POPC   C2B64640   5.410  34.300   6.567
 4976POPC   C3B64641   5.207  34.328   6.971
 4976POPC   C4B64642   5.398  34.265   7.354
 4977POPC   NC364643   7.324  14.028   5.182
 4977POPC   PO464644   7.604  13.473   5.335
 4977POPC   GL164645   7.474  13.456   5.733
 4977POPC   GL264646   7.104  13.354   5.704
 4977POPC   C1A64647   7.622  13.717   6.091
 4977POPC   D2A64648   7.873  13.800   6.439
 4977POPC   C3A64649   7.679  13.771   6.835
 4977POPC   C4A64650   7.520  13.612   7.221
 4977POPC   C1B64651   7.117  13.720   6.004
 4977POPC   C2B64652   7.236  13.730   6.435
 4977POPC   C3B64653   7.192  13.590   6.837
 4977POPC   C4B64654   6.917  13.567   7.164
 4978POPC   NC364655  28.131  42.201   5.431
 4978POPC   PO464656  28.271  42.884   5.339
 4978POPC   GL164657  28.219  42.621   5.744
 4978POPC   GL264658  28.527  42.606   5.953
 4978POPC   C1A64659  28.123  42.459   6.179
 4978POPC   D2A64660  28.379  42.308   6.507
 4978POPC   C3A64661  28.084  42.369   6.802
 4978POPC   C4A64662  28.054  42.406   7.235
 4978POPC   C1B64663  28.793  42.577   6.343
 4978POPC   C2B64664  28.787  42.592   6.791
 4978POPC   C3B64665  28.536  42.315   7.030
 4978POPC   C4B64666  28.475  41.927   7.193
 4979POPC   NC364667  44.317   3.747   5.566
 4979POPC   PO464668  44.757   3.381   5.184
 4979POPC   GL164669  44.662   3.377   5.625
 4979POPC   GL264670  44.968   3.357   5.780
 4979POPC   C1A64671  44.595   3.533   6.099
 4979POPC   D2A64672  44.797   3.627   6.512
 4979POPC   C3A64673  44.550   3.684   6.893
 4979POPC   C4A64674  44.482   3.347   7.186
 4979POPC   C1B64675  44.953   3.203   6.208
 4979POPC   C2B64676  44.979   2.981   6.593
 4979POPC   C3B64677  44.898   3.099   7.032
 4979POPC   C4B64678  44.996   3.522   7.133
 4980POPC   NC364679  20.083  10.608   5.373
 4980POPC   PO464680  20.631  10.194   5.187
 4980POPC   GL164681  20.498  10.464   5.686
 4980POPC   GL264682  20.826  10.542   5.896
 4980POPC   C1A64683  20.460  10.687   6.168
 4980POPC   D2A64684  20.708  10.777   6.556
 4980POPC   C3A64685  20.530  10.709   6.975
 4980POPC   C4A64686  20.819  10.600   7.299
 4980POPC   C1B64687  20.839  10.303   6.314
 4980POPC   C2B64688  20.769  10.288   6.794
 4980POPC   C3B64689  20.690  10.134   7.227
 4980POPC   C4B64690  21.067  10.152   7.478
 4981POPC   NC364691  11.104  25.056   5.433
 4981POPC   PO464692  11.604  25.440   5.398
 4981POPC   GL164693  11.414  25.342   5.780
 4981POPC   GL264694  11.068  25.354   5.918
 4981POPC   C1A64695  11.478  25.290   6.208
 4981POPC   D2A64696  11.707  25.183   6.572
 4981POPC   C3A64697  11.543  25.396   6.897
 4981POPC   C4A64698  11.609  25.248   7.244
 4981POPC   C1B64699  11.127  25.660   6.324
 4981POPC   C2B64700  11.123  25.698   6.818
 4981POPC   C3B64701  11.140  25.477   7.246
 4981POPC   C4B64702  11.055  25.591   7.718
 4982POPC   NC364703  34.754  13.912   5.355
 4982POPC   PO464704  35.421  13.980   5.471
 4982POPC   GL164705  35.383  13.884   5.876
 4982POPC   GL264706  35.048  13.952   6.007
 4982POPC   C1A64707  35.250  13.498   6.099
 4982POPC   D2A64708  35.131  13.426   6.510
 4982POPC   C3A64709  35.344  13.590   6.845
 4982POPC   C4A64710  35.426  13.510   7.258
 4982POPC   C1B64711  35.330  13.904   6.392
 4982POPC   C2B64712  35.649  13.981   6.692
 4982POPC   C3B64713  35.518  13.991   7.114
 4982POPC   C4B64714  35.258  13.935   7.495
 4983POPC   NC364715  11.648   9.662   5.399
 4983POPC   PO464716  12.298   9.833   5.405
 4983POPC   GL164717  12.176   9.698   5.830
 4983POPC   GL264718  12.469   9.871   5.952
 4983POPC   C1A64719  11.921   9.688   6.236
 4983POPC   D2A64720  11.988   9.807   6.680
 4983POPC   C3A64721  11.996   9.569   7.039
 4983POPC   C4A64722  11.876   9.676   7.465
 4983POPC   C1B64723  12.400   9.834   6.382
 4983POPC   C2B64724  12.495   9.861   6.816
 4983POPC   C3B64725  12.688   9.921   7.229
 4983POPC   C4B64726  12.526  10.041   7.659
 4984POPC   NC364727  19.351  29.629   5.451
 4984POPC   PO464728  18.987  29.010   5.427
 4984POPC   GL164729  18.984  29.210   5.801
 4984POPC   GL264730  19.300  29.270   5.827
 4984POPC   C1A64731  18.897  29.023   6.217
 4984POPC   D2A64732  18.721  28.906   6.624
 4984POPC   C3A64733  19.023  29.063   6.909
 4984POPC   C4A64734  18.994  29.286   7.295
 4984POPC   C1B64735  19.245  29.434   6.231
 4984POPC   C2B64736  19.426  29.345   6.636
 4984POPC   C3B64737  19.395  29.468   7.067
 4984POPC   C4B64738  19.410  29.406   7.564
 4985POPC   NC364739  18.222   4.277   5.158
 4985POPC   PO464740  18.340   3.590   5.194
 4985POPC   GL164741  18.398   3.559   5.730
 4985POPC   GL264742  18.129   3.722   5.933
 4985POPC   C1A64743  18.544   3.724   6.188
 4985POPC   D2A64744  18.234   3.805   6.529
 4985POPC   C3A64745  18.308   3.698   6.953
 4985POPC   C4A64746  18.223   3.499   7.348
 4985POPC   C1B64747  17.834   3.890   6.182
 4985POPC   C2B64748  17.712   3.792   6.588
 4985POPC   C3B64749  17.790   3.686   7.019
 4985POPC   C4B64750  17.992   3.953   7.324
 4986POPC   NC364751  42.291  41.118   5.315
 4986POPC   PO464752  42.203  41.841   5.238
 4986POPC   GL164753  42.230  41.577   5.656
 4986POPC   GL264754  42.526  41.354   5.713
 4986POPC   C1A64755  42.177  41.615   6.151
 4986POPC   D2A64756  42.234  41.847   6.583
 4986POPC   C3A64757  42.165  41.576   6.963
 4986POPC   C4A64758  42.321  41.284   7.268
 4986POPC   C1B64759  42.625  41.297   6.164
 4986POPC   C2B64760  42.506  41.383   6.599
 4986POPC   C3B64761  42.651  41.700   6.890
 4986POPC   C4B64762  42.671  41.792   7.318
 4987POPC   NC364763   0.667  38.583   5.289
 4987POPC   PO464764  44.968  38.731   5.277
 4987POPC   GL164765   0.296  38.675   5.634
 4987POPC   GL264766   0.381  38.331   5.774
 4987POPC   C1A64767   0.585  38.706   6.020
 4987POPC   D2A64768   0.741  38.626   6.460
 4987POPC   C3A64769   0.426  38.584   6.795
 4987POPC   C4A64770   0.466  38.627   7.245
 4987POPC   C1B64771   0.696  38.204   6.123
 4987POPC   C2B64772   0.784  38.112   6.580
 4987POPC   C3B64773   0.621  38.167   7.018
 4987POPC   C4B64774   0.609  38.196   7.483
 4988POPC   NC364775  15.147  13.310   5.597
 4988POPC   PO464776  15.188  12.605   5.480
 4988POPC   GL164777  15.147  12.866   5.868
 4988POPC   GL264778  15.449  13.075   5.949
 4988POPC   C1A64779  15.114  12.924   6.321
 4988POPC   D2A64780  14.872  12.940   6.692
 4988POPC   C3A64781  14.988  12.674   7.032
 4988POPC   C4A64782  15.414  12.505   7.128
 4988POPC   C1B64783  15.386  13.369   6.302
 4988POPC   C2B64784  15.377  13.343   6.763
 4988POPC   C3B64785  15.457  13.190   7.173
 4988POPC   C4B64786  15.447  13.272   7.628
 4989POPC   NC364787  24.053  34.714   5.442
 4989POPC   PO464788  23.426  34.481   5.512
 4989POPC   GL164789  23.707  34.603   5.843
 4989POPC   GL264790  23.953  34.315   5.794
 4989POPC   C1A64791  23.694  34.785   6.286
 4989POPC   D2A64792  23.473  34.875   6.697
 4989POPC   C3A64793  23.556  34.645   7.069
 4989POPC   C4A64794  23.579  34.199   7.112
 4989POPC   C1B64795  24.082  34.467   6.205
 4989POPC   C2B64796  24.169  34.674   6.599
 4989POPC   C3B64797  24.218  34.576   7.035
 4989POPC   C4B64798  23.978  34.551   7.415
 4990POPC   NC364799  14.160   5.150   5.244
 4990POPC   PO464800  14.842   5.127   5.322
 4990POPC   GL164801  14.545   5.250   5.678
 4990POPC   GL264802  14.201   5.117   5.758
 4990POPC   C1A64803  14.460   5.271   6.145
 4990POPC   D2A64804  14.304   5.085   6.496
 4990POPC   C3A64805  14.483   5.244   6.828
 4990POPC   C4A64806  14.523   5.075   7.216
 4990POPC   C1B64807  14.055   4.855   6.121
 4990POPC   C2B64808  14.009   4.686   6.554
 4990POPC   C3B64809  14.069   4.870   6.988
 4990POPC   C4B64810  14.157   4.834   7.465
 4991POPC   NC364811  43.596  44.849   5.317
 4991POPC   PO464812  44.013  44.283   5.548
 4991POPC   GL164813  43.935  44.584   5.887
 4991POPC   GL264814  43.817  44.913   5.779
 4991POPC   C1A64815  43.905  44.666   6.343
 4991POPC   D2A64816  44.204  44.761   6.687
 4991POPC   C3A64817  44.117  44.526   7.057
 4991POPC   C4A64818  43.674  44.481   7.133
 4991POPC   C1B64819  43.582   0.040   6.139
 4991POPC   C2B64820  43.642   0.101   6.563
 4991POPC   C3B64821  43.776  44.947   6.957
 4991POPC   C4B64822  43.905  44.867   7.380
 4992POPC   NC364823  32.944  11.097   5.360
 4992POPC   PO464824  33.455  11.470   5.200
 4992POPC   GL164825  33.352  11.132   5.647
 4992POPC   GL264826  33.130  10.821   5.768
 4992POPC   C1A64827  33.065  11.242   6.057
 4992POPC   D2A64828  32.935  11.544   6.406
 4992POPC   C3A64829  33.038  11.465   6.865
 4992POPC   C4A64830  32.935  11.113   7.121
 4992POPC   C1B64831  33.137  10.777   6.228
 4992POPC   C2B64832  33.134  11.063   6.548
 4992POPC   C3B64833  33.402  11.092   6.866
 4992POPC   C4B64834  33.451  11.091   7.314
 4993POPC   NC364835  21.096  41.789   5.376
 4993POPC   PO464836  20.411  41.695   5.348
 4993POPC   GL164837  20.617  41.578   5.744
 4993POPC   GL264838  20.785  41.861   5.841
 4993POPC   C1A64839  20.556  41.426   6.185
 4993POPC   D2A64840  20.640  41.103   6.524
 4993POPC   C3A64841  20.685  41.258   6.934
 4993POPC   C4A64842  20.597  41.461   7.306
 4993POPC   C1B64843  20.915  41.784   6.222
 4993POPC   C2B64844  20.803  41.625   6.605
 4993POPC   C3B64845  20.782  41.844   6.986
 4993POPC   C4B64846  20.968  41.797   7.379
 4994POPC   NC364847  27.841  33.234   5.669
 4994POPC   PO464848  27.606  32.639   5.533
 4994POPC   GL164849  27.473  32.866   5.868
 4994POPC   GL264850  27.779  32.802   6.019
 4994POPC   C1A64851  27.331  33.006   6.287
 4994POPC   D2A64852  27.506  33.000   6.734
 4994POPC   C3A64853  27.258  32.895   7.107
 4994POPC   C4A64854  27.205  32.646   7.506
 4994POPC   C1B64855  27.892  33.102   6.335
 4994POPC   C2B64856  28.016  33.129   6.760
 4994POPC   C3B64857  27.767  33.274   7.117
 4994POPC   C4B64858  27.786  33.634   7.395
 4995POPC   NC364859  34.772  34.964   5.318
 4995POPC   PO464860  34.684  35.582   5.294
 4995POPC   GL164861  34.668  35.524   5.752
 4995POPC   GL264862  34.332  35.378   5.743
 4995POPC   C1A64863  34.498  35.554   6.191
 4995POPC   D2A64864  34.335  35.461   6.614
 4995POPC   C3A64865  34.615  35.514   6.985
 4995POPC   C4A64866  34.949  35.232   7.192
 4995POPC   C1B64867  34.617  35.079   5.969
 4995POPC   C2B64868  34.682  34.984   6.389
 4995POPC   C3B64869  34.620  35.035   6.826
 4995POPC   C4B64870  34.424  35.096   7.236
 4996POPC   NC364871  21.225  20.206   5.473
 4996POPC   PO464872  21.783  19.852   5.328
 4996POPC   GL164873  21.521  19.831   5.696
 4996POPC   GL264874  21.131  19.746   5.697
 4996POPC   C1A64875  21.692  19.910   6.104
 4996POPC   D2A64876  21.558  19.956   6.538
 4996POPC   C3A64877  21.639  19.776   6.934
 4996POPC   C4A64878  21.335  19.626   7.189
 4996POPC   C1B64879  21.179  19.952   6.096
 4996POPC   C2B64880  21.084  20.091   6.497
 4996POPC   C3B64881  21.144  20.018   6.915
 4996POPC   C4B64882  20.841  19.917   7.211
 4997POPC   NC364883   5.268  43.136   5.156
 4997POPC   PO464884   4.791  43.459   5.445
 4997POPC   GL164885   4.994  43.159   5.697
 4997POPC   GL264886   5.324  43.184   5.658
 4997POPC   C1A64887   5.157  42.927   6.056
 4997POPC   D2A64888   5.074  42.957   6.478
 4997POPC   C3A64889   5.233  42.705   6.805
 4997POPC   C4A64890   5.179  42.937   7.233
 4997POPC   C1B64891   5.514  43.284   6.071
 4997POPC   C2B64892   5.584  43.024   6.437
 4997POPC   C3B64893   5.457  43.142   6.849
 4997POPC   C4B64894   5.647  43.184   7.227
 4998POPC   NC364895   5.321  21.566   5.266
 4998POPC   PO464896   4.770  21.390   5.027
 4998POPC   GL164897   4.928  21.355   5.492
 4998POPC   GL264898   5.059  21.050   5.649
 4998POPC   C1A64899   5.049  21.468   5.964
 4998POPC   D2A64900   5.082  21.348   6.443
 4998POPC   C3A64901   5.050  21.485   6.886
 4998POPC   C4A64902   5.251  21.516   7.296
 4998POPC   C1B64903   4.935  20.979   6.094
 4998POPC   C2B64904   4.956  20.845   6.500
 4998POPC   C3B64905   4.965  20.973   6.877
 4998POPC   C4B64906   4.866  21.159   7.250
 4999POPC   NC364907  35.149  34.165   5.449
 4999POPC   PO464908  35.620  33.704   5.366
 4999POPC   GL164909  35.731  33.761   5.787
 4999POPC   GL264910  35.481  34.013   5.841
 4999POPC   C1A64911  35.707  33.831   6.262
 4999POPC   D2A64912  35.451  34.048   6.554
 4999POPC   C3A64913  35.450  33.829   6.971
 4999POPC   C4A64914  35.192  33.493   7.176
 4999POPC   C1B64915  35.149  34.233   6.105
 4999POPC   C2B64916  35.054  34.374   6.512
 4999POPC   C3B64917  35.079  34.199   6.917
 4999POPC   C4B64918  35.095  34.303   7.326
 5000POPC   NC364919  28.278  16.239   5.385
 5000POPC   PO464920  28.521  15.606   5.525
 5000POPC   GL164921  28.456  15.934   5.783
 5000POPC   GL264922  28.095  15.956   5.826
 5000POPC   C1A64923  28.458  15.913   6.232
 5000POPC   D2A64924  28.342  15.861   6.671
 5000POPC   C3A64925  28.670  15.879   6.980
 5000POPC   C4A64926  28.674  15.981   7.428
 5000POPC   C1B64927  27.851  15.715   6.169
 5000POPC   C2B64928  27.784  15.572   6.620
 5000POPC   C3B64929  27.936  15.726   7.007
 5000POPC   C4B64930  28.228  16.041   7.163
 5001POPC   NC364931  23.553  31.153   5.461
 5001POPC   PO464932  23.477  31.845   5.342
 5001POPC   GL164933  23.658  31.584   5.730
 5001POPC   GL264934  23.355  31.429   5.846
 5001POPC   C1A64935  23.916  31.471   6.159
 5001POPC   D2A64936  24.045  31.400   6.639
 5001POPC   C3A64937  23.698  31.443   6.972
 5001POPC   C4A64938  23.415  31.730   7.214
 5001POPC   C1B64939  23.283  31.146   6.174
 5001POPC   C2B64940  23.406  31.224   6.596
 5001POPC   C3B64941  23.335  31.038   6.987
 5001POPC   C4B64942  23.373  31.249   7.349
 5002POPC   NC364943  13.781  29.278   5.667
 5002POPC   PO464944  13.552  28.721   5.361
 5002POPC   GL164945  13.404  28.880   5.761
 5002POPC   GL264946  13.354  29.222   5.933
 5002POPC   C1A64947  13.603  28.830   6.185
 5002POPC   D2A64948  13.555  28.718   6.645
 5002POPC   C3A64949  13.798  28.942   7.022
 5002POPC   C4A64950  13.955  29.414   7.066
 5002POPC   C1B64951  13.342  29.192   6.404
 5002POPC   C2B64952  13.384  29.199   6.854
 5002POPC   C3B64953  13.479  29.394   7.247
 5002POPC   C4B64954  13.443  29.418   7.741
 5003POPC   NC364955  36.514   8.517   5.418
 5003POPC   PO464956  36.673   7.813   5.387
 5003POPC   GL164957  36.600   8.070   5.731
 5003POPC   GL264958  36.889   8.237   5.696
 5003POPC   C1A64959  36.524   8.216   6.141
 5003POPC   D2A64960  36.678   8.412   6.502
 5003POPC   C3A64961  36.602   8.208   6.889
 5003POPC   C4A64962  36.695   8.247   7.297
 5003POPC   C1B64963  37.044   8.252   6.109
 5003POPC   C2B64964  37.169   8.190   6.534
 5003POPC   C3B64965  37.085   8.395   6.913
 5003POPC   C4B64966  37.201   8.347   7.311
 5004POPC   NC364967  42.884  26.042   5.433
 5004POPC   PO464968  43.440  26.507   5.505
 5004POPC   GL164969  43.228  26.192   5.821
 5004POPC   GL264970  43.109  25.826   5.842
 5004POPC   C1A64971  43.157  26.125   6.277
 5004POPC   D2A64972  43.103  26.304   6.694
 5004POPC   C3A64973  43.087  26.080   7.113
 5004POPC   C4A64974  42.837  26.125   7.506
 5004POPC   C1B64975  43.377  25.673   6.167
 5004POPC   C2B64976  43.413  25.806   6.602
 5004POPC   C3B64977  43.238  25.613   6.975
 5004POPC   C4B64978  43.279  25.608   7.447
 5005POPC   NC364979  35.043   9.966   5.457
 5005POPC   PO464980  35.479   9.341   5.444
 5005POPC   GL164981  35.354   9.653   5.740
 5005POPC   GL264982  35.109   9.468   5.958
 5005POPC   C1A64983  35.247   9.935   6.100
 5005POPC   D2A64984  35.085   9.695   6.454
 5005POPC   C3A64985  35.198   9.828   6.876
 5005POPC   C4A64986  35.308   9.900   7.306
 5005POPC   C1B64987  35.508   9.513   6.208
 5005POPC   C2B64988  35.766   9.589   6.571
 5005POPC   C3B64989  35.683   9.707   6.985
 5005POPC   C4B64990  35.732   9.593   7.383
 5006POPC   NC364991  35.488   3.086   5.361
 5006POPC   PO464992  34.996   2.749   5.325
 5006POPC   GL164993  35.338   2.715   5.685
 5006POPC   GL264994  35.384   3.034   5.886
 5006POPC   C1A64995  35.526   2.611   6.128
 5006POPC   D2A64996  35.268   2.565   6.530
 5006POPC   C3A64997  35.295   2.778   6.935
 5006POPC   C4A64998  35.396   2.600   7.337
 5006POPC   C1B64999  35.405   3.047   6.369
 5006POPC   C2B65000  35.653   3.131   6.756
 5006POPC   C3B65001  35.436   3.224   7.161
 5006POPC   C4B65002  35.321   3.446   7.561
 5007POPC   NC365003  31.829  16.521   5.366
 5007POPC   PO465004  31.336  16.971   5.509
 5007POPC   GL165005  31.385  16.586   5.744
 5007POPC   GL265006  31.712  16.726   5.824
 5007POPC   C1A65007  31.267  16.416   6.160
 5007POPC   D2A65008  31.265  16.597   6.581
 5007POPC   C3A65009  31.591  16.571   6.898
 5007POPC   C4A65010  31.624  16.740   7.283
 5007POPC   C1B65011  31.774  16.369   6.087
 5007POPC   C2B65012  31.660  16.249   6.500
 5007POPC   C3B65013  31.851  16.127   6.870
 5007POPC   C4B65014  31.633  16.116   7.243
 5008POPC   NC365015  43.896  30.962   5.484
 5008POPC   PO465016  43.556  30.438   5.209
 5008POPC   GL165017  43.776  30.540   5.728
 5008POPC   GL265018  44.097  30.708   5.893
 5008POPC   C1A65019  43.703  30.729   6.217
 5008POPC   D2A65020  43.818  30.847   6.682
 5008POPC   C3A65021  43.606  30.701   7.095
 5008POPC   C4A65022  43.717  30.598   7.560
 5008POPC   C1B65023  44.124  30.402   6.253
 5008POPC   C2B65024  44.083  30.398   6.722
 5008POPC   C3B65025  44.102  30.643   7.115
 5008POPC   C4B65026  44.210  30.753   7.541
 5009POPC   NC365027  44.822  17.322   5.571
 5009POPC   PO465028   0.464  17.268   5.323
 5009POPC   GL165029   0.309  17.381   5.727
 5009POPC   GL265030   0.537  17.636   5.878
 5009POPC   C1A65031   0.138  17.438   6.142
 5009POPC   D2A65032   0.235  17.621   6.512
 5009POPC   C3A65033   0.431  17.419   6.853
 5009POPC   C4A65034   0.297  17.394   7.241
 5009POPC   C1B65035   0.695  17.892   6.248
 5009POPC   C2B65036   0.718  17.789   6.634
 5009POPC   C3B65037   0.777  17.924   7.011
 5009POPC   C4B65038   0.587  17.774   7.350
 5010POPC   NC365039   9.342  17.321   5.545
 5010POPC   PO465040   8.656  17.230   5.828
 5010POPC   GL165041   8.994  17.537   5.863
 5010POPC   GL265042   9.256  17.335   6.027
 5010POPC   C1A65043   9.033  17.721   6.252
 5010POPC   D2A65044   8.933  17.518   6.602
 5010POPC   C3A65045   9.142  17.695   6.920
 5010POPC   C4A65046   8.977  17.732   7.343
 5010POPC   C1B65047   9.231  17.124   6.404
 5010POPC   C2B65048   9.256  17.160   6.844
 5010POPC   C3B65049   9.280  17.321   7.262
 5010POPC   C4B65050   9.379  17.067   7.623
 5011POPC   NC365051  19.406  10.941   5.553
 5011POPC   PO465052  19.770  11.335   5.127
 5011POPC   GL165053  19.838  11.184   5.665
 5011POPC   GL265054  20.159  11.256   5.835
 5011POPC   C1A65055  19.794  11.443   6.124
 5011POPC   D2A65056  19.794  11.284   6.568
 5011POPC   C3A65057  19.857  11.533   6.916
 5011POPC   C4A65058  19.989  11.513   7.325
 5011POPC   C1B65059  20.104  11.052   6.239
 5011POPC   C2B65060  20.289  11.082   6.645
 5011POPC   C3B65061  20.220  11.134   7.075
 5011POPC   C4B65062  20.006  10.939   7.396
 5012POPC   NC365063   1.501   0.030   5.637
 5012POPC   PO465064   0.982  44.643   5.483
 5012POPC   GL165065   1.096  44.626   5.873
 5012POPC   GL265066   1.449  44.600   5.955
 5012POPC   C1A65067   0.993  44.661   6.273
 5012POPC   D2A65068   0.955  44.449   6.637
 5012POPC   C3A65069   1.258  44.568   6.902
 5012POPC   C4A65070   1.200  44.708   7.298
 5012POPC   C1B65071   1.429  44.415   6.404
 5012POPC   C2B65072   1.717  44.372   6.764
 5012POPC   C3B65073   1.672  44.474   7.209
 5012POPC   C4B65074   1.628  44.750   7.581
 5013POPC   NC365075  42.653  41.819   5.405
 5013POPC   PO465076  42.762  41.155   5.277
 5013POPC   GL165077  43.051  41.345   5.621
 5013POPC   GL265078  43.323  41.142   5.783
 5013POPC   C1A65079  43.077  41.556   6.046
 5013POPC   D2A65080  42.932  41.692   6.464
 5013POPC   C3A65081  43.175  41.614   6.863
 5013POPC   C4A65082  43.166  41.693   7.316
 5013POPC   C1B65083  43.326  41.060   6.254
 5013POPC   C2B65084  42.992  41.187   6.563
 5013POPC   C3B65085  42.831  41.232   6.999
 5013POPC   C4B65086  43.154  41.191   7.292
 5014POPC   NC365087  23.966  30.514   5.390
 5014POPC   PO465088  24.033  31.210   5.467
 5014POPC   GL165089  23.886  30.868   5.763
 5014POPC   GL265090  23.715  31.058   5.945
 5014POPC   C1A65091  23.725  30.569   6.129
 5014POPC   D2A65092  23.385  30.515   6.488
 5014POPC   C3A65093  23.520  30.554   6.945
 5014POPC   C4A65094  23.862  30.489   7.240
 5014POPC   C1B65095  23.831  31.003   6.386
 5014POPC   C2B65096  23.909  30.924   6.841
 5014POPC   C3B65097  23.805  31.000   7.271
 5014POPC   C4B65098  23.673  31.013   7.700
 5015POPC   NC365099  35.968  22.968   5.264
 5015POPC   PO465100  35.346  23.195   5.246
 5015POPC   GL165101  35.337  23.216   5.714
 5015POPC   GL265102  35.629  23.154   5.759
 5015POPC   C1A65103  35.286  23.251   6.173
 5015POPC   D2A65104  35.174  23.019   6.534
 5015POPC   C3A65105  35.176  23.246   6.930
 5015POPC   C4A65106  35.140  23.014   7.286
 5015POPC   C1B65107  35.470  22.804   6.037
 5015POPC   C2B65108  35.590  22.723   6.494
 5015POPC   C3B65109  35.502  22.847   6.939
 5015POPC   C4B65110  35.633  22.860   7.398
 5016POPC   NC365111  19.271  42.722   5.712
 5016POPC   PO465112  19.318  42.137   5.326
 5016POPC   GL165113  19.117  42.208   5.711
 5016POPC   GL265114  19.452  42.188   5.828
 5016POPC   C1A65115  18.875  42.006   6.058
 5016POPC   D2A65116  19.002  41.894   6.487
 5016POPC   C3A65117  18.969  42.159   6.848
 5016POPC   C4A65118  18.785  42.346   7.227
 5016POPC   C1B65119  19.298  42.261   6.214
 5016POPC   C2B65120  19.307  42.432   6.578
 5016POPC   C3B65121  19.499  42.293   6.935
 5016POPC   C4B65122  19.278  42.195   7.259
 5017POPC   NC365123  29.132  41.121   5.526
 5017POPC   PO465124  28.832  40.523   5.478
 5017POPC   GL165125  29.006  40.695   5.853
 5017POPC   GL265126  29.326  40.825   5.891
 5017POPC   C1A65127  28.988  40.852   6.274
 5017POPC   D2A65128  29.013  40.646   6.642
 5017POPC   C3A65129  29.054  40.924   6.923
 5017POPC   C4A65130  29.140  40.906   7.331
 5017POPC   C1B65131  29.359  41.193   6.187
 5017POPC   C2B65132  29.399  41.331   6.649
 5017POPC   C3B65133  29.444  41.214   7.102
 5017POPC   C4B65134  29.542  41.075   7.583
 5018POPC   NC365135  41.235  31.134   5.574
 5018POPC   PO465136  41.617  31.674   5.390
 5018POPC   GL165137  41.758  31.627   5.829
 5018POPC   GL265138  41.563  31.340   5.908
 5018POPC   C1A65139  41.566  31.686   6.270
 5018POPC   D2A65140  41.282  31.634   6.642
 5018POPC   C3A65141  41.496  31.735   7.038
 5018POPC   C4A65142  41.563  31.660   7.482
 5018POPC   C1B65143  41.346  31.213   6.298
 5018POPC   C2B65144  41.445  31.142   6.748
 5018POPC   C3B65145  41.449  31.225   7.203
 5018POPC   C4B65146  41.755  31.128   7.531
 5019POPC   NC365147  34.403  36.662   5.503
 5019POPC   PO465148  34.947  36.979   5.245
 5019POPC   GL165149  34.683  37.069   5.642
 5019POPC   GL265150  34.941  37.244   5.830
 5019POPC   C1A65151  34.599  36.820   6.077
 5019POPC   D2A65152  34.586  36.535   6.465
 5019POPC   C3A65153  34.626  36.768   6.834
 5019POPC   C4A65154  34.386  36.939   7.176
 5019POPC   C1B65155  34.971  37.101   6.258
 5019POPC   C2B65156  34.872  37.204   6.687
 5019POPC   C3B65157  34.974  37.234   7.120
 5019POPC   C4B65158  34.847  37.243   7.548
 5020POPC   NC365159   4.940   5.343   5.524
 5020POPC   PO465160   5.270   4.747   5.502
 5020POPC   GL165161   5.212   5.057   5.864
 5020POPC   GL265162   5.403   5.385   5.861
 5020POPC   C1A65163   5.209   5.037   6.325
 5020POPC   D2A65164   5.457   5.156   6.699
 5020POPC   C3A65165   5.240   4.949   7.052
 5020POPC   C4A65166   4.790   4.837   7.095
 5020POPC   C1B65167   5.060   5.504   6.160
 5020POPC   C2B65168   4.982   5.642   6.581
 5020POPC   C3B65169   5.169   5.461   6.971
 5020POPC   C4B65170   5.301   5.310   7.434
 5021POPC   NC365171  16.386  33.848   5.163
 5021POPC   PO465172  15.800  33.654   5.425
 5021POPC   GL165173  16.143  33.762   5.704
 5021POPC   GL265174  15.962  33.988   5.876
 5021POPC   C1A65175  16.253  33.654   6.141
 5021POPC   D2A65176  16.031  33.501   6.531
 5021POPC   C3A65177  16.080  33.759   6.904
 5021POPC   C4A65178  15.898  33.581   7.254
 5021POPC   C1B65179  15.782  33.839   6.259
 5021POPC   C2B65180  15.610  33.793   6.693
 5021POPC   C3B65181  15.660  34.023   7.128
 5021POPC   C4B65182  15.577  34.299   7.514
 5022POPC   NC365183   7.118  14.643   5.441
 5022POPC   PO465184   7.681  14.241   5.411
 5022POPC   GL165185   7.523  14.436   5.810
 5022POPC   GL265186   7.197  14.588   5.942
 5022POPC   C1A65187   7.653  14.605   6.220
 5022POPC   D2A65188   7.725  14.746   6.652
 5022POPC   C3A65189   7.393  14.638   6.929
 5022POPC   C4A65190   7.507  14.334   7.248
 5022POPC   C1B65191   7.292  14.224   6.247
 5022POPC   C2B65192   7.377  14.159   6.708
 5022POPC   C3B65193   7.146  14.031   7.093
 5022POPC   C4B65194   7.056  14.293   7.489
 5023POPC   NC365195   3.076   2.565   5.266
 5023POPC   PO465196   2.452   2.835   5.378
 5023POPC   GL165197   2.707   2.657   5.712
 5023POPC   GL265198   2.988   2.869   5.815
 5023POPC   C1A65199   2.593   2.683   6.158
 5023POPC   D2A65200   2.704   2.883   6.560
 5023POPC   C3A65201   2.482   2.774   6.970
 5023POPC   C4A65202   2.621   2.698   7.384
 5023POPC   C1B65203   3.241   2.941   6.227
 5023POPC   C2B65204   3.215   3.115   6.669
 5023POPC   C3B65205   3.005   2.903   7.030
 5023POPC   C4B65206   3.145   2.601   7.341
 5024POPC   NC365207  15.639  43.874   5.262
 5024POPC   PO465208  16.047  44.273   5.531
 5024POPC   GL165209  15.853  43.961   5.747
 5024POPC   GL265210  16.144  43.772   5.790
 5024POPC   C1A65211  15.858  43.970   6.191
 5024POPC   D2A65212  15.905  44.203   6.581
 5024POPC   C3A65213  15.940  43.979   6.966
 5024POPC   C4A65214  15.734  43.937   7.366
 5024POPC   C1B65215  16.371  43.803   6.160
 5024POPC   C2B65216  16.214  43.771   6.561
 5024POPC   C3B65217  16.434  43.794   6.933
 5024POPC   C4B65218  16.433  43.747   7.348
 5025POPC   NC365219   3.869  12.088   5.357
 5025POPC   PO465220   3.205  11.873   5.310
 5025POPC   GL165221   3.497  11.940   5.696
 5025POPC   GL265222   3.486  12.287   5.808
 5025POPC   C1A65223   3.723  11.980   6.151
 5025POPC   D2A65224   3.758  12.164   6.578
 5025POPC   C3A65225   3.734  11.901   6.906
 5025POPC   C4A65226   3.562  11.709   7.248
 5025POPC   C1B65227   3.219  12.004   6.115
 5025POPC   C2B65228   3.250  12.162   6.501
 5025POPC   C3B65229   3.401  12.490   6.778
 5025POPC   C4B65230   3.408  12.257   7.147
 5026POPC   NC365231   4.791  34.235   5.447
 5026POPC   PO465232   4.149  34.677   5.572
 5026POPC   GL165233   4.495  34.518   5.815
 5026POPC   GL265234   4.544  34.147   5.889
 5026POPC   C1A65235   4.523  34.563   6.253
 5026POPC   D2A65236   4.231  34.541   6.599
 5026POPC   C3A65237   4.349  34.673   7.013
 5026POPC   C4A65238   4.627  34.756   7.389
 5026POPC   C1B65239   4.228  34.118   6.233
 5026POPC   C2B65240   3.989  34.095   6.645
 5026POPC   C3B65241   4.122  34.223   7.079
 5026POPC   C4B65242   4.177  34.531   7.459
 5027POPC   NC365243  29.191   5.697   5.400
 5027POPC   PO465244  29.331   6.343   5.489
 5027POPC   GL165245  29.202   6.064   5.875
 5027POPC   GL265246  28.910   5.871   5.845
 5027POPC   C1A65247  29.131   5.890   6.333
 5027POPC   D2A65248  29.203   5.980   6.780
 5027POPC   C3A65249  29.051   5.734   7.114
 5027POPC   C4A65250  29.273   5.563   7.457
 5027POPC   C1B65251  28.754   6.185   6.196
 5027POPC   C2B65252  28.850   6.334   6.639
 5027POPC   C3B65253  28.872   6.221   7.112
 5027POPC   C4B65254  29.004   6.437   7.515
 5028POPC   NC365255  27.859   2.045   5.528
 5028POPC   PO465256  28.525   1.968   5.541
 5028POPC   GL165257  28.248   1.892   5.811
 5028POPC   GL265258  28.055   1.598   5.683
 5028POPC   C1A65259  28.209   2.145   6.163
 5028POPC   D2A65260  28.386   2.370   6.524
 5028POPC   C3A65261  28.405   2.123   6.900
 5028POPC   C4A65262  28.168   2.155   7.285
 5028POPC   C1B65263  27.976   1.634   6.136
 5028POPC   C2B65264  28.155   1.807   6.524
 5028POPC   C3B65265  28.166   1.646   6.890
 5028POPC   C4B65266  27.954   1.698   7.235
 5029POPC   NC365267  40.918  44.395   5.471
 5029POPC   PO465268  41.017   0.047   5.699
 5029POPC   GL165269  40.888  44.666   5.930
 5029POPC   GL265270  40.580  44.507   5.886
 5029POPC   C1A65271  40.719  44.691   6.350
 5029POPC   D2A65272  40.864   0.096   6.509
 5029POPC   C3A65273  40.972   0.070   6.928
 5029POPC   C4A65274  40.881  44.670   7.158
 5029POPC   C1B65275  40.271  44.255   6.077
 5029POPC   C2B65276  40.295  44.136   6.480
 5029POPC   C3B65277  40.516  44.359   6.790
 5029POPC   C4B65278  40.489  44.328   7.230
 5030POPC   NC365279  23.961   2.934   5.133
 5030POPC   PO465280  23.611   2.375   5.394
 5030POPC   GL165281  23.706   2.572   5.787
 5030POPC   GL265282  23.855   2.928   5.755
 5030POPC   C1A65283  23.516   2.579   6.216
 5030POPC   D2A65284  23.284   2.834   6.523
 5030POPC   C3A65285  23.469   2.776   6.938
 5030POPC   C4A65286  23.681   2.456   7.163
 5030POPC   C1B65287  23.623   3.084   6.142
 5030POPC   C2B65288  23.755   3.067   6.593
 5030POPC   C3B65289  23.703   3.222   7.030
 5030POPC   C4B65290  23.794   3.012   7.435
 5031POPC   NC365291  20.191  14.299   5.526
 5031POPC   PO465292  19.510  14.346   5.515
 5031POPC   GL165293  19.858  14.472   5.861
 5031POPC   GL265294  19.959  14.180   5.975
 5031POPC   C1A65295  20.145  14.579   6.224
 5031POPC   D2A65296  20.148  14.437   6.665
 5031POPC   C3A65297  20.143  14.684   7.056
 5031POPC   C4A65298  19.975  14.631   7.511
 5031POPC   C1B65299  19.600  14.291   6.247
 5031POPC   C2B65300  19.626  14.285   6.685
 5031POPC   C3B65301  19.796  14.307   7.081
 5031POPC   C4B65302  19.516  14.440   7.389
 5032POPC   NC365303  35.817  29.260   5.590
 5032POPC   PO465304  35.246  28.938   5.444
 5032POPC   GL165305  35.375  29.059   5.823
 5032POPC   GL265306  35.700  28.817   5.829
 5032POPC   C1A65307  35.211  29.266   6.213
 5032POPC   D2A65308  35.014  29.311   6.631
 5032POPC   C3A65309  35.256  29.339   7.009
 5032POPC   C4A65310  35.731  29.238   7.072
 5032POPC   C1B65311  35.530  28.851   6.252
 5032POPC   C2B65312  35.460  29.014   6.635
 5032POPC   C3B65313  35.391  28.838   7.003
 5032POPC   C4B65314  35.090  28.725   7.284
 5033POPC   NC365315  41.924  21.563   5.421
 5033POPC   PO465316  42.601  21.464   5.296
 5033POPC   GL165317  42.446  21.239   5.692
 5033POPC   GL265318  42.127  21.042   5.711
 5033POPC   C1A65319  42.476  21.143   6.171
 5033POPC   D2A65320  42.270  21.084   6.586
 5033POPC   C3A65321  42.447  21.224   6.972
 5033POPC   C4A65322  42.598  21.419   7.371
 5033POPC   C1B65323  41.914  21.260   6.039
 5033POPC   C2B65324  41.773  21.217   6.458
 5033POPC   C3B65325  41.873  21.308   6.882
 5033POPC   C4B65326  42.075  21.564   7.185
 5034POPC   NC365327   0.839  37.721   5.554
 5034POPC   PO465328   1.527  37.669   5.581
 5034POPC   GL165329   1.222  37.730   5.868
 5034POPC   GL265330   1.037  37.379   5.868
 5034POPC   C1A65331   0.983  37.740   6.239
 5034POPC   D2A65332   1.057  37.506   6.599
 5034POPC   C3A65333   0.976  37.776   6.941
 5034POPC   C4A65334   1.053  38.044   7.260
 5034POPC   C1B65335   1.371  37.382   6.192
 5034POPC   C2B65336   1.565  37.478   6.589
 5034POPC   C3B65337   1.367  37.457   7.008
 5034POPC   C4B65338   1.253  37.174   7.344
 5035POPC   NC365339   0.043   3.881   5.257
 5035POPC   PO465340   0.399   3.308   5.457
 5035POPC   GL165341   0.460   3.405   5.881
 5035POPC   GL265342   0.328   3.759   5.804
 5035POPC   C1A65343   0.441   3.233   6.313
 5035POPC   D2A65344   0.642   3.351   6.668
 5035POPC   C3A65345   0.445   3.258   7.040
 5035POPC   C4A65346   0.254   3.148   7.415
 5035POPC   C1B65347   0.391   3.747   6.262
 5035POPC   C2B65348   0.265   3.689   6.699
 5035POPC   C3B65349   0.449   3.789   7.091
 5035POPC   C4B65350   0.743   3.559   7.356
 5036POPC   NC365351  22.109  41.672   5.409
 5036POPC   PO465352  22.503  41.124   5.586
 5036POPC   GL165353  22.516  41.500   5.821
 5036POPC   GL265354  22.361  41.854   5.847
 5036POPC   C1A65355  22.527  41.568   6.258
 5036POPC   D2A65356  22.322  41.827   6.534
 5036POPC   C3A65357  22.222  41.509   6.774
 5036POPC   C4A65358  22.409  41.500   7.145
 5036POPC   C1B65359  21.977  41.835   6.148
 5036POPC   C2B65360  21.837  41.992   6.591
 5036POPC   C3B65361  21.924  41.826   7.030
 5036POPC   C4B65362  21.931  41.366   7.172
 5037POPC   NC365363  15.760   4.634   5.304
 5037POPC   PO465364  15.998   3.974   5.400
 5037POPC   GL165365  15.878   4.065   5.819
 5037POPC   GL265366  15.802   4.400   5.760
 5037POPC   C1A65367  15.890   4.128   6.270
 5037POPC   D2A65368  16.115   4.195   6.646
 5037POPC   C3A65369  15.964   4.035   7.012
 5037POPC   C4A65370  16.148   4.324   7.283
 5037POPC   C1B65371  15.709   4.615   6.114
 5037POPC   C2B65372  15.877   4.622   6.495
 5037POPC   C3B65373  15.836   4.560   6.914
 5037POPC   C4B65374  15.843   4.777   7.284
 5038POPC   NC365375  18.522  41.235   5.185
 5038POPC   PO465376  18.063  40.726   5.410
 5038POPC   GL165377  18.143  40.660   5.841
 5038POPC   GL265378  18.491  40.726   5.964
 5038POPC   C1A65379  18.063  40.921   6.189
 5038POPC   D2A65380  17.889  40.835   6.548
 5038POPC   C3A65381  18.047  40.548   6.813
 5038POPC   C4A65382  18.148  40.628   7.236
 5038POPC   C1B65383  18.521  40.731   6.423
 5038POPC   C2B65384  18.507  40.729   6.862
 5038POPC   C3B65385  18.495  40.989   7.183
 5038POPC   C4B65386  18.704  40.784   7.476
 5039POPC   NC365387  24.803  15.566   5.339
 5039POPC   PO465388  24.309  16.065   5.488
 5039POPC   GL165389  24.613  16.098   5.768
 5039POPC   GL265390  24.602  15.761   5.796
 5039POPC   C1A65391  24.470  16.144   6.188
 5039POPC   D2A65392  24.206  16.217   6.565
 5039POPC   C3A65393  24.371  16.100   6.976
 5039POPC   C4A65394  24.705  16.213   7.250
 5039POPC   C1B65395  24.576  15.627   6.234
 5039POPC   C2B65396  24.373  15.627   6.651
 5039POPC   C3B65397  24.403  15.585   7.100
 5039POPC   C4B65398  24.732  15.702   7.351
 5040POPC   NC365399   4.178   1.839   5.263
 5040POPC   PO465400   4.795   2.178   5.207
 5040POPC   GL165401   4.572   1.949   5.576
 5040POPC   GL265402   4.585   2.183   5.822
 5040POPC   C1A65403   4.234   1.844   5.937
 5040POPC   D2A65404   4.142   1.795   6.379
 5040POPC   C3A65405   4.299   1.977   6.766
 5040POPC   C4A65406   4.053   1.985   7.119
 5040POPC   C1B65407   4.562   2.138   6.290
 5040POPC   C2B65408   4.611   2.428   6.638
 5040POPC   C3B65409   4.649   2.394   7.079
 5040POPC   C4B65410   4.472   2.115   7.341
 5041POPC   NC365411  27.709  18.488   5.612
 5041POPC   PO465412  28.289  18.268   5.250
 5041POPC   GL165413  28.451  18.376   5.646
 5041POPC   GL265414  28.163  18.291   5.821
 5041POPC   C1A65415  28.649  18.234   6.027
 5041POPC   D2A65416  28.563  18.216   6.462
 5041POPC   C3A65417  28.657  18.223   6.910
 5041POPC   C4A65418  28.474  18.311   7.318
 5041POPC   C1B65419  28.090  18.290   6.270
 5041POPC   C2B65420  28.134  18.242   6.724
 5041POPC   C3B65421  28.017  18.430   7.073
 5041POPC   C4B65422  27.977  18.354   7.503
 5042POPC   NC365423  31.231  24.396   5.444
 5042POPC   PO465424  31.807  24.727   5.298
 5042POPC   GL165425  31.548  24.688   5.726
 5042POPC   GL265426  31.416  24.352   5.901
 5042POPC   C1A65427  31.482  24.753   6.220
 5042POPC   D2A65428  31.343  24.609   6.649
 5042POPC   C3A65429  31.667  24.445   6.935
 5042POPC   C4A65430  31.679  24.391   7.364
 5042POPC   C1B65431  31.309  24.040   6.221
 5042POPC   C2B65432  31.419  24.092   6.643
 5042POPC   C3B65433  31.245  24.169   7.037
 5042POPC   C4B65434  31.177  23.870   7.312
 5043POPC   NC365435  13.155   6.704   5.244
 5043POPC   PO465436  12.665   7.078   5.251
 5043POPC   GL165437  12.780   6.917   5.644
 5043POPC   GL265438  12.868   6.553   5.647
 5043POPC   C1A65439  12.656   6.942   6.091
 5043POPC   D2A65440  12.803   6.814   6.504
 5043POPC   C3A65441  12.686   6.967   6.905
 5043POPC   C4A65442  12.504   6.665   7.195
 5043POPC   C1B65443  12.986   6.550   6.093
 5043POPC   C2B65444  12.957   6.287   6.465
 5043POPC   C3B65445  13.052   6.235   6.887
 5043POPC   C4B65446  12.782   6.236   7.233
 5044POPC   NC365447  25.139  41.685   5.012
 5044POPC   PO465448  25.206  41.335   5.575
 5044POPC   GL165449  25.338  41.537   5.898
 5044POPC   GL265450  25.636  41.716   5.833
 5044POPC   C1A65451  25.509  41.467   6.305
 5044POPC   D2A65452  25.340  41.345   6.730
 5044POPC   C3A65453  25.529  41.582   7.072
 5044POPC   C4A65454  25.386  41.542   7.489
 5044POPC   C1B65455  25.412  41.945   6.171
 5044POPC   C2B65456  25.271  41.840   6.583
 5044POPC   C3B65457  25.144  41.905   6.999
 5044POPC   C4B65458  25.335  42.055   7.392
 5045POPC   NC365459  24.830  44.883   5.533
 5045POPC   PO465460  24.259  44.612   5.226
 5045POPC   GL165461  24.380  44.616   5.691
 5045POPC   GL265462  24.707  44.464   5.785
 5045POPC   C1A65463  24.321  44.396   6.103
 5045POPC   D2A65464  24.540  44.415   6.499
 5045POPC   C3A65465  24.461  44.714   6.786
 5045POPC   C4A65466  24.477  44.563   7.200
 5045POPC   C1B65467  24.673  44.769   6.159
 5045POPC   C2B65468  24.960  44.736   6.535
 5045POPC   C3B65469  24.925  44.768   6.976
 5045POPC   C4B65470  24.785  44.934   7.365
 5046POPC   NC365471   5.218  43.654   5.515
 5046POPC   PO465472   4.909  44.200   5.281
 5046POPC   GL165473   4.923  44.118   5.684
 5046POPC   GL265474   4.820  43.794   5.829
 5046POPC   C1A65475   5.197  44.099   6.015
 5046POPC   D2A65476   5.046  43.918   6.353
 5046POPC   C3A65477   5.202  43.962   6.764
 5046POPC   C4A65478   5.119  43.901   7.201
 5046POPC   C1B65479   4.968  43.451   6.136
 5046POPC   C2B65480   5.119  43.455   6.572
 5046POPC   C3B65481   5.020  43.398   7.001
 5046POPC   C4B65482   5.232  43.433   7.399
 5047POPC   NC365483  32.525  38.714   5.396
 5047POPC   PO465484  31.959  38.246   5.272
 5047POPC   GL165485  32.008  38.123   5.737
 5047POPC   GL265486  31.980  38.457   5.914
 5047POPC   C1A65487  32.279  38.110   6.143
 5047POPC   D2A65488  32.414  38.076   6.586
 5047POPC   C3A65489  32.217  38.104   6.982
 5047POPC   C4A65490  32.406  38.372   7.261
 5047POPC   C1B65491  32.099  38.575   6.353
 5047POPC   C2B65492  32.123  38.569   6.816
 5047POPC   C3B65493  32.049  38.714   7.229
 5047POPC   C4B65494  32.041  38.777   7.648
 5048POPC   NC365495  42.123  14.722   5.579
 5048POPC   PO465496  42.461  14.303   5.232
 5048POPC   GL165497  42.504  14.370   5.741
 5048POPC   GL265498  42.432  14.679   5.977
 5048POPC   C1A65499  42.345  14.198   6.184
 5048POPC   D2A65500  42.195  14.239   6.607
 5048POPC   C3A65501  42.447  14.276   6.989
 5048POPC   C4A65502  42.703  14.560   7.249
 5048POPC   C1B65503  42.018  14.589   6.230
 5048POPC   C2B65504  41.890  14.637   6.665
 5048POPC   C3B65505  42.173  14.683   7.017
 5048POPC   C4B65506  42.247  14.503   7.468
 5049POPC   NC365507   8.360  42.366   5.330
 5049POPC   PO465508   7.677  42.112   5.418
 5049POPC   GL165509   8.000  42.127   5.741
 5049POPC   GL265510   8.353  42.175   5.878
 5049POPC   C1A65511   7.915  42.137   6.178
 5049POPC   D2A65512   7.999  42.424   6.512
 5049POPC   C3A65513   7.929  42.293   6.951
 5049POPC   C4A65514   8.164  42.335   7.330
 5049POPC   C1B65515   8.427  42.232   6.328
 5049POPC   C2B65516   8.425  42.289   6.776
 5049POPC   C3B65517   8.630  42.429   7.129
 5049POPC   C4B65518   8.664  42.133   7.468
 5050POPC   NC365519  23.217  16.252   5.372
 5050POPC   PO465520  22.605  16.004   5.259
 5050POPC   GL165521  22.846  15.881   5.673
 5050POPC   GL265522  23.136  16.096   5.841
 5050POPC   C1A65523  22.892  15.792   6.146
 5050POPC   D2A65524  22.920  16.018   6.520
 5050POPC   C3A65525  23.073  15.839   6.881
 5050POPC   C4A65526  22.936  15.821   7.288
 5050POPC   C1B65527  23.108  16.392   6.216
 5050POPC   C2B65528  23.200  16.426   6.665
 5050POPC   C3B65529  23.102  16.324   7.107
 5050POPC   C4B65530  23.160  16.187   7.559
 5051POPC   NC365531  39.562  22.876   5.409
 5051POPC   PO465532  38.957  22.503   5.295
 5051POPC   GL165533  39.099  22.820   5.632
 5051POPC   GL265534  38.949  23.135   5.787
 5051POPC   C1A65535  39.208  22.795   6.088
 5051POPC   D2A65536  39.043  22.996   6.469
 5051POPC   C3A65537  39.221  22.810   6.835
 5051POPC   C4A65538  39.414  22.819   7.251
 5051POPC   C1B65539  39.268  23.312   6.129
 5051POPC   C2B65540  39.236  23.473   6.548
 5051POPC   C3B65541  39.221  23.289   6.979
 5051POPC   C4B65542  39.090  23.214   7.417
 5052POPC   NC365543  25.480  30.332   5.357
 5052POPC   PO465544  24.966  29.920   5.289
 5052POPC   GL165545  25.053  30.089   5.749
 5052POPC   GL265546  25.405  29.967   5.873
 5052POPC   C1A65547  25.028  29.907   6.201
 5052POPC   D2A65548  25.283  30.026   6.566
 5052POPC   C3A65549  25.159  29.868   6.961
 5052POPC   C4A65550  25.148  30.072   7.344
 5052POPC   C1B65551  25.501  29.664   6.249
 5052POPC   C2B65552  25.580  29.640   6.711
 5052POPC   C3B65553  25.657  29.624   7.157
 5052POPC   C4B65554  25.572  29.897   7.553
 5053POPC   NC365555  10.195  10.037   5.405
 5053POPC   PO465556   9.566   9.769   5.388
 5053POPC   GL165557   9.827   9.663   5.714
 5053POPC   GL265558   9.591   9.395   5.784
 5053POPC   C1A65559   9.985   9.567   6.129
 5053POPC   D2A65560  10.124   9.655   6.574
 5053POPC   C3A65561   9.925   9.550   6.993
 5053POPC   C4A65562   9.842   9.945   7.227
 5053POPC   C1B65563   9.470   9.615   6.177
 5053POPC   C2B65564   9.238   9.562   6.603
 5053POPC   C3B65565   9.394   9.690   7.033
 5053POPC   C4B65566   9.422   9.824   7.503
 5054POPC   NC365567  43.372  26.726   5.093
 5054POPC   PO465568  43.992  26.675   5.267
 5054POPC   GL165569  43.921  26.752   5.721
 5054POPC   GL265570  43.677  27.014   5.843
 5054POPC   C1A65571  43.806  26.630   6.159
 5054POPC   D2A65572  43.717  26.821   6.554
 5054POPC   C3A65573  44.055  26.807   6.835
 5054POPC   C4A65574  44.001  26.559   7.211
 5054POPC   C1B65575  43.990  27.138   6.135
 5054POPC   C2B65576  43.956  27.260   6.550
 5054POPC   C3B65577  43.670  27.295   6.865
 5054POPC   C4B65578  43.876  27.142   7.173
 5055POPC   NC365579   4.749   1.107   5.634
 5055POPC   PO465580   5.114   1.442   5.098
 5055POPC   GL165581   5.231   1.372   5.577
 5055POPC   GL265582   5.390   1.066   5.772
 5055POPC   C1A65583   5.158   1.445   6.050
 5055POPC   D2A65584   5.049   1.314   6.504
 5055POPC   C3A65585   4.890   1.474   6.923
 5055POPC   C4A65586   4.944   1.447   7.409
 5055POPC   C1B65587   5.257   0.929   6.216
 5055POPC   C2B65588   5.060   0.821   6.655
 5055POPC   C3B65589   5.057   1.024   7.064
 5055POPC   C4B65590   4.633   1.080   7.257
 5056POPC   NC365591   0.247  37.682   5.176
 5056POPC   PO465592   0.672  37.320   5.398
 5056POPC   GL165593   0.395  37.520   5.735
 5056POPC   GL265594   0.222  37.854   5.682
 5056POPC   C1A65595   0.461  37.745   6.141
 5056POPC   D2A65596   0.579  37.637   6.562
 5056POPC   C3A65597   0.476  37.681   6.958
 5056POPC   C4A65598   0.663  37.699   7.361
 5056POPC   C1B65599   0.056  38.041   6.113
 5056POPC   C2B65600   0.238  38.125   6.565
 5056POPC   C3B65601   0.099  38.014   7.014
 5056POPC   C4B65602   0.078  37.593   7.266
 5057POPC   NC365603  36.098   6.924   5.382
 5057POPC   PO465604  36.036   6.319   5.498
 5057POPC   GL165605  36.196   6.596   5.811
 5057POPC   GL265606  36.076   6.930   5.883
 5057POPC   C1A65607  36.150   6.594   6.260
 5057POPC   D2A65608  35.921   6.559   6.623
 5057POPC   C3A65609  36.196   6.572   6.956
 5057POPC   C4A65610  36.194   6.437   7.335
 5057POPC   C1B65611  35.743   6.935   6.202
 5057POPC   C2B65612  35.652   7.015   6.679
 5057POPC   C3B65613  35.771   6.814   7.077
 5057POPC   C4B65614  36.104   6.931   7.355
 5058POPC   NC365615  30.115  40.467   5.349
 5058POPC   PO465616  29.511  40.903   5.362
 5058POPC   GL165617  29.765  40.683   5.688
 5058POPC   GL265618  30.059  40.859   5.718
 5058POPC   C1A65619  29.755  40.830   6.155
 5058POPC   D2A65620  29.465  40.836   6.520
 5058POPC   C3A65621  29.529  40.708   6.932
 5058POPC   C4A65622  29.790  40.777   7.245
 5058POPC   C1B65623  30.279  40.758   6.100
 5058POPC   C2B65624  30.311  40.593   6.509
 5058POPC   C3B65625  30.246  40.809   6.904
 5058POPC   C4B65626  30.297  40.703   7.306
 5059POPC   NC365627  21.638  38.051   5.544
 5059POPC   PO465628  22.152  37.592   5.221
 5059POPC   GL165629  22.280  37.647   5.705
 5059POPC   GL265630  22.080  37.946   5.874
 5059POPC   C1A65631  22.372  37.621   6.144
 5059POPC   D2A65632  22.203  37.877   6.506
 5059POPC   C3A65633  22.354  37.804   6.948
 5059POPC   C4A65634  22.487  37.465   7.207
 5059POPC   C1B65635  21.851  37.663   6.197
 5059POPC   C2B65636  21.758  37.576   6.596
 5059POPC   C3B65637  21.860  37.905   6.866
 5059POPC   C4B65638  21.915  37.642   7.146
 5060POPC   NC365639   4.506  39.049   5.340
 5060POPC   PO465640   4.048  39.469   5.522
 5060POPC   GL165641   4.314  39.223   5.788
 5060POPC   GL265642   4.582  39.440   5.770
 5060POPC   C1A65643   4.352  39.229   6.228
 5060POPC   D2A65644   4.168  39.408   6.589
 5060POPC   C3A65645   4.073  39.220   7.002
 5060POPC   C4A65646   4.130  38.860   7.341
 5060POPC   C1B65647   4.811  39.466   6.149
 5060POPC   C2B65648   4.741  39.262   6.559
 5060POPC   C3B65649   4.775  39.382   6.973
 5060POPC   C4B65650   4.503  39.200   7.263
 5061POPC   NC365651  20.947  16.665   5.411
 5061POPC   PO465652  20.569  17.126   5.719
 5061POPC   GL165653  20.765  16.894   5.966
 5061POPC   GL265654  20.684  16.595   5.858
 5061POPC   C1A65655  20.619  16.786   6.346
 5061POPC   D2A65656  20.459  16.611   6.680
 5061POPC   C3A65657  20.469  16.927   6.968
 5061POPC   C4A65658  20.415  16.776   7.334
 5061POPC   C1B65659  20.849  16.352   6.193
 5061POPC   C2B65660  20.979  16.376   6.646
 5061POPC   C3B65661  20.780  16.470   7.062
 5061POPC   C4B65662  20.834  16.541   7.527
 5062POPC   NC365663   5.294   3.413   5.376
 5062POPC   PO465664   4.997   3.959   5.264
 5062POPC   GL165665   5.042   3.842   5.743
 5062POPC   GL265666   5.127   3.463   5.850
 5062POPC   C1A65667   5.072   3.787   6.229
 5062POPC   D2A65668   4.853   3.432   6.458
 5062POPC   C3A65669   4.727   3.495   6.915
 5062POPC   C4A65670   4.937   3.646   7.287
 5062POPC   C1B65671   5.385   3.365   6.236
 5062POPC   C2B65672   5.325   3.462   6.693
 5062POPC   C3B65673   5.196   3.264   7.093
 5062POPC   C4B65674   5.215   3.309   7.611
 5063POPC   NC365675   5.737  32.999   5.165
 5063POPC   PO465676   6.227  33.420   5.490
 5063POPC   GL165677   5.959  33.244   5.777
 5063POPC   GL265678   5.856  32.907   5.777
 5063POPC   C1A65679   5.979  33.229   6.215
 5063POPC   D2A65680   5.976  33.225   6.648
 5063POPC   C3A65681   5.620  33.016   6.798
 5063POPC   C4A65682   5.465  33.107   7.223
 5063POPC   C1B65683   5.723  32.680   6.165
 5063POPC   C2B65684   5.900  32.635   6.607
 5063POPC   C3B65685   6.096  32.799   6.994
 5063POPC   C4B65686   6.151  32.613   7.401
 5064POPC   NC365687  10.691  29.167   5.233
 5064POPC   PO465688  10.167  29.469   5.294
 5064POPC   GL165689  10.419  29.216   5.677
 5064POPC   GL265690  10.326  28.904   5.854
 5064POPC   C1A65691  10.777  29.079   6.032
 5064POPC   D2A65692  11.055  28.963   6.431
 5064POPC   C3A65693  10.816  29.016   6.828
 5064POPC   C4A65694  10.556  29.241   7.140
 5064POPC   C1B65695  10.313  29.225   6.211
 5064POPC   C2B65696  10.315  29.323   6.677
 5064POPC   C3B65697  10.064  29.434   7.057
 5064POPC   C4B65698   9.952  29.296   7.466
 5065POPC   NC365699  21.820  34.703   5.032
 5065POPC   PO465700  22.232  34.636   5.617
 5065POPC   GL165701  22.130  34.478   5.970
 5065POPC   GL265702  21.979  34.762   6.147
 5065POPC   C1A65703  22.328  34.392   6.353
 5065POPC   D2A65704  22.581  34.522   6.682
 5065POPC   C3A65705  22.306  34.530   7.023
 5065POPC   C4A65706  22.285  34.876   7.297
 5065POPC   C1B65707  21.814  34.399   6.358
 5065POPC   C2B65708  21.757  34.349   6.810
 5065POPC   C3B65709  21.797  34.543   7.225
 5065POPC   C4B65710  21.730  34.324   7.640
 5066POPC   NC365711  20.460   3.967   5.582
 5066POPC   PO465712  20.720   4.535   5.366
 5066POPC   GL165713  20.669   4.382   5.803
 5066POPC   GL265714  20.316   4.415   5.837
 5066POPC   C1A65715  20.577   4.107   6.204
 5066POPC   D2A65716  20.537   4.251   6.650
 5066POPC   C3A65717  20.460   4.073   7.071
 5066POPC   C4A65718  20.773   4.232   7.310
 5066POPC   C1B65719  20.448   4.599   6.241
 5066POPC   C2B65720  20.315   4.709   6.665
 5066POPC   C3B65721  20.463   4.594   7.083
 5066POPC   C4B65722  20.280   4.455   7.454
 5067POPC   NC365723  26.231  44.021   5.390
 5067POPC   PO465724  25.873  43.476   5.338
 5067POPC   GL165725  25.881  43.735   5.730
 5067POPC   GL265726  26.224  43.693   5.797
 5067POPC   C1A65727  25.924  43.995   6.140
 5067POPC   D2A65728  25.768  44.018   6.587
 5067POPC   C3A65729  25.968  44.136   6.976
 5067POPC   C4A65730  26.157  44.015   7.376
 5067POPC   C1B65731  26.126  43.525   6.187
 5067POPC   C2B65732  26.206  43.640   6.589
 5067POPC   C3B65733  26.337  43.759   6.972
 5067POPC   C4B65734  26.343  43.549   7.354
 5068POPC   NC365735  33.222   7.586   5.458
 5068POPC   PO465736  32.816   7.117   5.459
 5068POPC   GL165737  33.000   7.284   5.827
 5068POPC   GL265738  33.298   7.122   5.924
 5068POPC   C1A65739  32.876   7.464   6.234
 5068POPC   D2A65740  32.610   7.660   6.555
 5068POPC   C3A65741  32.819   7.616   6.948
 5068POPC   C4A65742  32.954   7.437   7.328
 5068POPC   C1B65743  33.394   7.309   6.330
 5068POPC   C2B65744  33.363   7.391   6.797
 5068POPC   C3B65745  33.346   7.111   7.159
 5068POPC   C4B65746  33.435   7.052   7.594
 5069POPC   NC365747  39.250   3.730   5.199
 5069POPC   PO465748  39.658   3.198   5.355
 5069POPC   GL165749  39.524   3.531   5.749
 5069POPC   GL265750  39.158   3.517   5.910
 5069POPC   C1A65751  39.509   3.592   6.257
 5069POPC   D2A65752  39.290   3.481   6.664
 5069POPC   C3A65753  39.499   3.402   7.068
 5069POPC   C4A65754  39.434   3.585   7.468
 5069POPC   C1B65755  38.893   3.352   6.258
 5069POPC   C2B65756  38.769   3.501   6.673
 5069POPC   C3B65757  38.951   3.540   7.110
 5069POPC   C4B65758  38.942   3.381   7.543
 5070POPC   NC365759  14.550  13.588   5.188
 5070POPC   PO465760  14.044  13.901   5.519
 5070POPC   GL165761  14.139  13.746   5.942
 5070POPC   GL265762  14.503  13.653   5.811
 5070POPC   C1A65763  14.272  13.435   6.244
 5070POPC   D2A65764  14.383  13.560   6.669
 5070POPC   C3A65765  14.154  13.482   7.054
 5070POPC   C4A65766  14.343  13.324   7.474
 5070POPC   C1B65767  14.569  13.851   6.220
 5070POPC   C2B65768  14.759  13.941   6.607
 5070POPC   C3B65769  14.860  13.875   7.030
 5070POPC   C4B65770  14.625  13.747   7.387
 5071POPC   NC365771  11.770  18.748   5.385
 5071POPC   PO465772  11.313  19.228   5.109
 5071POPC   GL165773  11.369  19.029   5.556
 5071POPC   GL265774  11.307  19.234   5.811
 5071POPC   C1A65775  11.382  18.779   6.000
 5071POPC   D2A65776  11.325  18.741   6.477
 5071POPC   C3A65777  11.119  18.961   6.808
 5071POPC   C4A65778  11.226  18.869   7.232
 5071POPC   C1B65779  11.191  19.227   6.252
 5071POPC   C2B65780  11.432  19.333   6.635
 5071POPC   C3B65781  11.449  19.285   7.070
 5071POPC   C4B65782  11.082  19.404   7.316
 5072POPC   NC365783  30.733  23.549   5.548
 5072POPC   PO465784  30.777  24.219   5.484
 5072POPC   GL165785  30.927  24.094   5.887
 5072POPC   GL265786  30.996  23.714   5.959
 5072POPC   C1A65787  30.716  23.974   6.288
 5072POPC   D2A65788  30.649  23.632   6.589
 5072POPC   C3A65789  30.814  23.803   6.951
 5072POPC   C4A65790  30.674  24.139   7.182
 5072POPC   C1B65791  30.831  23.304   6.155
 5072POPC   C2B65792  30.784  23.123   6.550
 5072POPC   C3B65793  30.921  23.296   6.925
 5072POPC   C4B65794  30.836  23.471   7.357
 5073POPC   NC365795  40.003  15.181   5.394
 5073POPC   PO465796  39.886  14.655   5.489
 5073POPC   GL165797  39.962  14.964   5.868
 5073POPC   GL265798  39.859  15.343   5.893
 5073POPC   C1A65799  40.015  15.099   6.320
 5073POPC   D2A65800  39.795  15.059   6.722
 5073POPC   C3A65801  39.918  14.899   7.137
 5073POPC   C4A65802  39.753  14.982   7.568
 5073POPC   C1B65803  39.700  15.571   6.303
 5073POPC   C2B65804  39.717  15.564   6.781
 5073POPC   C3B65805  39.783  15.417   7.220
 5073POPC   C4B65806  39.875  15.516   7.671
 5074POPC   NC365807   2.368  22.340   5.444
 5074POPC   PO465808   2.970  22.005   5.235
 5074POPC   GL165809   2.854  22.129   5.714
 5074POPC   GL265810   2.496  22.033   5.823
 5074POPC   C1A65811   2.739  22.225   6.197
 5074POPC   D2A65812   2.453  22.329   6.531
 5074POPC   C3A65813   2.626  22.221   6.933
 5074POPC   C4A65814   2.796  21.940   7.269
 5074POPC   C1B65815   2.317  21.891   6.218
 5074POPC   C2B65816   2.457  21.822   6.643
 5074POPC   C3B65817   2.319  21.838   7.095
 5074POPC   C4B65818   2.407  21.813   7.560
 5075POPC   NC365819  25.030  40.892   5.612
 5075POPC   PO465820  25.535  41.013   5.174
 5075POPC   GL165821  25.544  40.808   5.627
 5075POPC   GL265822  25.498  41.042   5.921
 5075POPC   C1A65823  25.566  40.542   6.032
 5075POPC   D2A65824  25.611  40.456   6.487
 5075POPC   C3A65825  25.554  40.591   6.937
 5075POPC   C4A65826  25.355  40.445   7.311
 5075POPC   C1B65827  25.529  40.964   6.367
 5075POPC   C2B65828  25.227  40.849   6.662
 5075POPC   C3B65829  25.133  40.915   7.109
 5075POPC   C4B65830  25.326  41.034   7.509
 5076POPC   NC365831  39.052  23.559   5.505
 5076POPC   PO465832  39.225  24.179   5.302
 5076POPC   GL165833  39.328  23.937   5.733
 5076POPC   GL265834  39.093  23.760   5.963
 5076POPC   C1A65835  39.529  23.856   6.192
 5076POPC   D2A65836  39.636  23.963   6.610
 5076POPC   C3A65837  39.448  23.751   6.941
 5076POPC   C4A65838  39.473  23.566   7.364
 5076POPC   C1B65839  38.768  23.463   6.147
 5076POPC   C2B65840  38.650  23.403   6.565
 5076POPC   C3B65841  38.857  23.670   6.835
 5076POPC   C4B65842  39.014  23.706   7.204
 5077POPC   NC365843  22.116  19.716   5.033
 5077POPC   PO465844  22.619  19.937   5.414
 5077POPC   GL165845  22.383  19.711   5.757
 5077POPC   GL265846  22.030  19.691   5.740
 5077POPC   C1A65847  22.326  19.867   6.157
 5077POPC   D2A65848  22.060  20.002   6.444
 5077POPC   C3A65849  22.136  19.897   6.856
 5077POPC   C4A65850  22.043  20.133   7.221
 5077POPC   C1B65851  21.975  19.493   6.119
 5077POPC   C2B65852  21.848  19.517   6.545
 5077POPC   C3B65853  21.994  19.406   6.971
 5077POPC   C4B65854  22.148  19.637   7.328
 5078POPC   NC365855   5.564  10.740   5.551
 5078POPC   PO465856   5.075  10.348   5.282
 5078POPC   GL165857   5.218  10.342   5.744
 5078POPC   GL265858   5.297  10.680   5.969
 5078POPC   C1A65859   5.019  10.323   6.174
 5078POPC   D2A65860   5.214  10.401   6.579
 5078POPC   C3A65861   5.236  10.346   6.998
 5078POPC   C4A65862   4.924  10.598   7.179
 5078POPC   C1B65863   5.102  10.860   6.363
 5078POPC   C2B65864   5.214  10.855   6.823
 5078POPC   C3B65865   5.383  10.766   7.282
 5078POPC   C4B65866   5.264  10.769   7.763
 5079POPC   NC365867  37.368  37.979   5.399
 5079POPC   PO465868  36.793  37.673   5.358
 5079POPC   GL165869  37.044  37.718   5.723
 5079POPC   GL265870  36.942  38.020   5.908
 5079POPC   C1A65871  37.037  37.606   6.175
 5079POPC   D2A65872  36.878  37.559   6.582
 5079POPC   C3A65873  37.102  37.643   6.964
 5079POPC   C4A65874  36.946  37.660   7.363
 5079POPC   C1B65875  36.708  37.994   6.337
 5079POPC   C2B65876  36.712  37.987   6.830
 5079POPC   C3B65877  36.767  38.138   7.298
 5079POPC   C4B65878  36.555  38.327   7.720
 5080POPC   NC365879  44.889  22.643   5.329
 5080POPC   PO465880  44.446  23.167   5.447
 5080POPC   GL165881  44.728  22.975   5.714
 5080POPC   GL265882  44.468  22.773   5.822
 5080POPC   C1A65883  44.724  23.032   6.180
 5080POPC   D2A65884  44.437  23.020   6.566
 5080POPC   C3A65885  44.652  23.021   6.978
 5080POPC   C4A65886  44.957  23.268   7.220
 5080POPC   C1B65887  44.466  22.578   6.212
 5080POPC   C2B65888  44.302  22.503   6.601
 5080POPC   C3B65889  44.375  22.514   7.009
 5080POPC   C4B65890  44.412  22.718   7.390
 5081POPC   NC365891  43.661  28.099   5.593
 5081POPC   PO465892  43.952  28.733   5.555
 5081POPC   GL165893  43.994  28.386   5.870
 5081POPC   GL265894  43.705  28.512   5.988
 5081POPC   C1A65895  43.762  28.063   6.214
 5081POPC   D2A65896  43.575  28.196   6.621
 5081POPC   C3A65897  43.826  28.120   6.973
 5081POPC   C4A65898  44.118  28.033   7.295
 5081POPC   C1B65899  43.941  28.500   6.373
 5081POPC   C2B65900  43.926  28.603   6.785
 5081POPC   C3B65901  44.039  28.547   7.199
 5081POPC   C4B65902  44.077  28.572   7.608
 5082POPC   NC365903  21.927  18.039   5.484
 5082POPC   PO465904  21.894  18.692   5.456
 5082POPC   GL165905  21.897  18.422   5.830
 5082POPC   GL265906  22.207  18.481   5.933
 5082POPC   C1A65907  21.937  18.272   6.292
 5082POPC   D2A65908  22.118  18.531   6.624
 5082POPC   C3A65909  22.032  18.533   7.041
 5082POPC   C4A65910  21.981  18.327   7.453
 5082POPC   C1B65911  22.458  18.364   6.299
 5082POPC   C2B65912  22.627  18.246   6.680
 5082POPC   C3B65913  22.421  18.203   7.078
 5082POPC   C4B65914  22.547  18.104   7.465
 5083POPC   NC365915  32.284  28.642   4.995
 5083POPC   PO465916  32.112  28.160   5.451
 5083POPC   GL165917  32.357  28.388   5.718
 5083POPC   GL265918  32.149  28.674   5.677
 5083POPC   C1A65919  32.395  28.294   6.164
 5083POPC   D2A65920  32.164  28.095   6.525
 5083POPC   C3A65921  32.388  28.073   6.931
 5083POPC   C4A65922  32.299  28.304   7.314
 5083POPC   C1B65923  32.050  28.687   6.122
 5083POPC   C2B65924  32.237  28.617   6.532
 5083POPC   C3B65925  32.086  28.601   6.943
 5083POPC   C4B65926  31.932  28.714   7.340
 5084POPC   NC365927   2.314   1.409   5.479
 5084POPC   PO465928   1.619   1.417   5.451
 5084POPC   GL165929   1.876   1.468   5.871
 5084POPC   GL265930   2.255   1.467   5.966
 5084POPC   C1A65931   1.942   1.594   6.333
 5084POPC   D2A65932   2.049   1.332   6.694
 5084POPC   C3A65933   1.802   0.964   6.811
 5084POPC   C4A65934   1.703   0.877   7.254
 5084POPC   C1B65935   2.146   1.105   6.245
 5084POPC   C2B65936   2.281   0.871   6.639
 5084POPC   C3B65937   2.197   0.867   7.093
 5084POPC   C4B65938   2.030   1.271   7.213
 5085POPC   NC365939  26.404   5.027   5.427
 5085POPC   PO465940  27.053   5.203   5.280
 5085POPC   GL165941  27.151   5.001   5.694
 5085POPC   GL265942  26.806   4.925   5.771
 5085POPC   C1A65943  27.120   5.089   6.143
 5085POPC   D2A65944  26.808   5.216   6.452
 5085POPC   C3A65945  26.837   5.028   6.847
 5085POPC   C4A65946  27.090   4.983   7.210
 5085POPC   C1B65947  26.671   4.790   6.191
 5085POPC   C2B65948  26.645   4.613   6.611
 5085POPC   C3B65949  26.414   4.743   6.955
 5085POPC   C4B65950  26.543   5.035   7.265
 5086POPC   NC365951  17.615  40.823   5.263
 5086POPC   PO465952  17.992  41.362   5.409
 5086POPC   GL165953  17.799  41.076   5.741
 5086POPC   GL265954  17.636  40.749   5.771
 5086POPC   C1A65955  17.550  41.067   6.154
 5086POPC   D2A65956  17.395  40.889   6.534
 5086POPC   C3A65957  17.544  41.006   6.911
 5086POPC   C4A65958  17.270  41.062   7.217
 5086POPC   C1B65959  17.705  40.533   6.193
 5086POPC   C2B65960  17.578  40.433   6.661
 5086POPC   C3B65961  17.636  40.540   7.139
 5086POPC   C4B65962  17.818  40.493   7.598
 5087POPC   NC365963  25.066   1.953   5.359
 5087POPC   PO465964  25.730   1.700   5.436
 5087POPC   GL165965  25.453   1.962   5.723
 5087POPC   GL265966  25.150   2.148   5.802
 5087POPC   C1A65967  25.314   1.827   6.165
 5087POPC   D2A65968  25.465   1.765   6.560
 5087POPC   C3A65969  25.294   1.884   6.948
 5087POPC   C4A65970  25.526   1.940   7.316
 5087POPC   C1B65971  25.389   2.319   6.120
 5087POPC   C2B65972  25.247   2.239   6.535
 5087POPC   C3B65973  24.969   2.310   6.898
 5087POPC   C4B65974  25.138   2.254   7.312
 5088POPC   NC365975   2.338  38.333   5.315
 5088POPC   PO465976   1.701  38.470   5.439
 5088POPC   GL165977   1.795  38.543   5.821
 5088POPC   GL265978   2.126  38.403   5.789
 5088POPC   C1A65979   1.756  38.469   6.242
 5088POPC   D2A65980   1.705  38.284   6.626
 5088POPC   C3A65981   1.831  38.553   6.948
 5088POPC   C4A65982   2.002  38.350   7.317
 5088POPC   C1B65983   2.268  38.440   6.191
 5088POPC   C2B65984   2.337  38.745   6.536
 5088POPC   C3B65985   2.344  38.582   6.949
 5088POPC   C4B65986   2.153  38.827   7.261
 5089POPC   NC365987  44.550  12.978   5.411
 5089POPC   PO465988   0.181  12.695   5.338
 5089POPC   GL165989   0.043  12.852   5.780
 5089POPC   GL265990  44.699  12.817   5.878
 5089POPC   C1A65991   0.005  13.078   6.236
 5089POPC   D2A65992  44.978  13.302   6.671
 5089POPC   C3A65993  44.890  13.039   7.041
 5089POPC   C4A65994  44.469  13.033   7.234
 5089POPC   C1B65995  44.729  12.652   6.297
 5089POPC   C2B65996  44.770  12.655   6.740
 5089POPC   C3B65997  44.478  12.547   7.062
 5089POPC   C4B65998  44.265  12.592   7.456
 5090POPC   NC365999   7.413   4.802   5.347
 5090POPC   PO466000   7.117   4.180   5.267
 5090POPC   GL166001   7.301   4.351   5.648
 5090POPC   GL266002   7.666   4.432   5.599
 5090POPC   C1A66003   7.199   4.465   6.083
 5090POPC   D2A66004   7.358   4.369   6.510
 5090POPC   C3A66005   7.145   4.418   6.944
 5090POPC   C4A66006   7.208   4.274   7.417
 5090POPC   C1B66007   7.715   4.387   6.052
 5090POPC   C2B66008   7.849   4.572   6.441
 5090POPC   C3B66009   7.605   4.714   6.802
 5090POPC   C4B66010   7.590   4.479   7.187
 5091POPC   NC366011  38.136  10.426   5.375
 5091POPC   PO466012  37.507  10.597   5.205
 5091POPC   GL166013  37.563  10.591   5.698
 5091POPC   GL266014  37.833  10.380   5.829
 5091POPC   C1A66015  37.563  10.599   6.196
 5091POPC   D2A66016  37.726  10.805   6.590
 5091POPC   C3A66017  37.701  10.540   6.965
 5091POPC   C4A66018  37.366  10.327   7.189
 5091POPC   C1B66019  38.077  10.243   6.198
 5091POPC   C2B66020  38.101  10.414   6.616
 5091POPC   C3B66021  38.119  10.215   7.000
 5091POPC   C4B66022  37.870  10.220   7.372
 5092POPC   NC366023  14.682  27.812   5.403
 5092POPC   PO466024  14.271  27.261   5.502
 5092POPC   GL166025  14.393  27.595   5.765
 5092POPC   GL266026  14.750  27.616   5.880
 5092POPC   C1A66027  14.280  27.710   6.168
 5092POPC   D2A66028  14.535  27.690   6.515
 5092POPC   C3A66029  14.280  27.694   6.863
 5092POPC   C4A66030  14.182  27.528   7.239
 5092POPC   C1B66031  14.574  27.274   6.152
 5092POPC   C2B66032  14.717  27.220   6.583
 5092POPC   C3B66033  14.735  27.458   6.966
 5092POPC   C4B66034  14.696  27.364   7.421
 5093POPC   NC366035  44.103  17.058   5.450
 5093POPC   PO466036  43.554  17.428   5.527
 5093POPC   GL166037  43.833  17.470   5.918
 5093POPC   GL266038  43.944  17.151   6.017
 5093POPC   C1A66039  43.694  17.464   6.376
 5093POPC   D2A66040  43.746  17.107   6.712
 5093POPC   C3A66041  43.917  17.241   7.123
 5093POPC   C4A66042  43.923  17.663   7.337
 5093POPC   C1B66043  44.206  17.365   6.333
 5093POPC   C2B66044  44.362  17.679   6.641
 5093POPC   C3B66045  44.370  17.536   7.065
 5093POPC   C4B66046  44.317  17.370   7.468
 5094POPC   NC366047  40.558   1.544   5.437
 5094POPC   PO466048  40.720   0.938   5.355
 5094POPC   GL166049  40.752   1.152   5.754
 5094POPC   GL266050  41.068   1.179   5.841
 5094POPC   C1A66051  40.551   1.217   6.163
 5094POPC   D2A66052  40.514   1.004   6.584
 5094POPC   C3A66053  40.471   1.195   7.000
 5094POPC   C4A66054  40.695   1.084   7.366
 5094POPC   C1B66055  41.212   1.064   6.260
 5094POPC   C2B66056  41.064   1.034   6.696
 5094POPC   C3B66057  41.145   1.028   7.140
 5094POPC   C4B66058  41.147   0.808   7.557
 5095POPC   NC366059  21.169  39.472   5.362
 5095POPC   PO466060  21.725  39.126   5.416
 5095POPC   GL166061  21.602  39.098   5.822
 5095POPC   GL266062  21.528  39.461   5.825
 5095POPC   C1A66063  21.503  38.864   6.218
 5095POPC   D2A66064  21.435  38.756   6.686
 5095POPC   C3A66065  21.412  39.083   6.971
 5095POPC   C4A66066  21.185  39.149   7.342
 5095POPC   C1B66067  21.248  39.299   6.192
 5095POPC   C2B66068  21.054  39.376   6.630
 5095POPC   C3B66069  21.240  39.560   7.029
 5095POPC   C4B66070  21.602  39.411   7.340
 5096POPC   NC366071  27.838  44.356   5.449
 5096POPC   PO466072  27.597  43.621   5.391
 5096POPC   GL166073  27.736  43.869   5.739
 5096POPC   GL266074  27.427  43.984   5.824
 5096POPC   C1A66075  27.890  43.877   6.209
 5096POPC   D2A66076  27.690  43.922   6.633
 5096POPC   C3A66077  27.946  43.952   6.992
 5096POPC   C4A66078  28.018  43.680   7.324
 5096POPC   C1B66079  27.458  43.625   6.100
 5096POPC   C2B66080  27.394  43.474   6.528
 5096POPC   C3B66081  27.270  43.695   6.883
 5096POPC   C4B66082  27.512  43.768   7.233
 5097POPC   NC366083  19.690   4.080   5.636
 5097POPC   PO466084  19.959   4.654   5.526
 5097POPC   GL166085  19.576   4.574   5.796
 5097POPC   GL266086  19.832   4.420   6.006
 5097POPC   C1A66087  19.387   4.453   6.230
 5097POPC   D2A66088  19.649   4.376   6.622
 5097POPC   C3A66089  19.482   4.436   7.043
 5097POPC   C4A66090  19.582   4.042   7.204
 5097POPC   C1B66091  20.087   4.254   6.345
 5097POPC   C2B66092  20.071   4.054   6.739
 5097POPC   C3B66093  19.992   4.364   7.039
 5097POPC   C4B66094  19.854   4.798   6.888
 5098POPC   NC366095  31.010  18.072   5.113
 5098POPC   PO466096  30.423  18.312   5.307
 5098POPC   GL166097  30.417  18.224   5.747
 5098POPC   GL266098  30.769  18.173   5.851
 5098POPC   C1A66099  30.399  18.335   6.199
 5098POPC   D2A66100  30.504  18.197   6.629
 5098POPC   C3A66101  30.394  18.378   7.034
 5098POPC   C4A66102  30.445  18.377   7.496
 5098POPC   C1B66103  30.936  18.319   6.268
 5098POPC   C2B66104  30.994  18.297   6.741
 5098POPC   C3B66105  30.809  18.017   7.062
 5098POPC   C4B66106  30.832  18.047   7.516
 5099POPC   NC366107  20.306  29.897   5.324
 5099POPC   PO466108  19.689  30.070   5.430
 5099POPC   GL166109  19.961  29.827   5.709
 5099POPC   GL266110  19.861  30.051   5.936
 5099POPC   C1A66111  20.147  29.710   6.147
 5099POPC   D2A66112  20.021  29.564   6.570
 5099POPC   C3A66113  20.126  29.863   6.888
 5099POPC   C4A66114  20.027  29.966   7.315
 5099POPC   C1B66115  19.642  29.839   6.261
 5099POPC   C2B66116  19.642  30.136   6.597
 5099POPC   C3B66117  19.682  30.221   7.012
 5099POPC   C4B66118  19.527  29.903   7.292
 5100POPC   NC366119  19.712  24.870   5.442
 5100POPC   PO466120  19.942  25.538   5.305
 5100POPC   GL166121  20.033  25.517   5.710
 5100POPC   GL266122  19.968  25.186   5.780
 5100POPC   C1A66123  19.849  25.498   6.145
 5100POPC   D2A66124  19.970  25.247   6.495
 5100POPC   C3A66125  19.811  25.303   6.893
 5100POPC   C4A66126  20.020  25.090   7.173
 5100POPC   C1B66127  19.717  24.994   6.133
 5100POPC   C2B66128  19.709  24.828   6.592
 5100POPC   C3B66129  19.540  24.885   7.022
 5100POPC   C4B66130  19.719  24.752   7.442
 5101POPC   NC366131  22.366  18.721   5.505
 5101POPC   PO466132  22.239  19.411   5.359
 5101POPC   GL166133  22.108  19.152   5.759
 5101POPC   GL266134  21.815  18.981   5.850
 5101POPC   C1A66135  22.226  18.920   6.183
 5101POPC   D2A66136  22.515  18.836   6.556
 5101POPC   C3A66137  22.312  18.954   6.955
 5101POPC   C4A66138  22.232  19.137   7.354
 5101POPC   C1B66139  21.731  19.087   6.255
 5101POPC   C2B66140  21.909  19.010   6.636
 5101POPC   C3B66141  21.717  18.972   7.033
 5101POPC   C4B66142  21.845  18.830   7.422
 5102POPC   NC366143  20.495  42.529   5.139
 5102POPC   PO466144  20.532  43.163   5.446
 5102POPC   GL166145  20.608  43.225   5.857
 5102POPC   GL266146  20.689  42.933   5.942
 5102POPC   C1A66147  20.759  43.277   6.307
 5102POPC   D2A66148  20.485  43.218   6.647
 5102POPC   C3A66149  20.659  43.091   6.974
 5102POPC   C4A66150  20.937  43.382   7.084
 5102POPC   C1B66151  20.462  42.860   6.277
 5102POPC   C2B66152  20.100  42.938   6.488
 5102POPC   C3B66153  20.070  43.064   6.921
 5102POPC   C4B66154  20.282  42.901   7.263
 5103POPC   NC366155  17.982  27.515   5.223
 5103POPC   PO466156  18.587  27.323   5.463
 5103POPC   GL166157  18.372  27.640   5.741
 5103POPC   GL266158  18.026  27.728   5.689
 5103POPC   C1A66159  18.247  27.827   6.162
 5103POPC   D2A66160  18.466  27.918   6.564
 5103POPC   C3A66161  18.295  27.811   6.988
 5103POPC   C4A66162  18.502  27.611   7.357
 5103POPC   C1B66163  17.946  27.433   6.006
 5103POPC   C2B66164  17.956  27.364   6.459
 5103POPC   C3B66165  17.880  27.503   6.881
 5103POPC   C4B66166  17.998  27.444   7.302
 5104POPC   NC366167  11.882  38.279   5.341
 5104POPC   PO466168  11.851  37.778   5.692
 5104POPC   GL166169  11.909  38.199   5.869
 5104POPC   GL266170  12.248  38.310   5.896
 5104POPC   C1A66171  11.790  38.490   6.220
 5104POPC   D2A66172  11.601  38.447   6.650
 5104POPC   C3A66173  11.837  38.508   7.078
 5104POPC   C4A66174  12.059  38.557   7.509
 5104POPC   C1B66175  12.276  38.406   6.370
 5104POPC   C2B66176  12.164  38.235   6.789
 5104POPC   C3B66177  12.231  38.151   7.246
 5104POPC   C4B66178  12.351  38.194   7.714
 5105POPC   NC366179  41.609  34.481   5.285
 5105POPC   PO466180  41.073  34.254   5.642
 5105POPC   GL166181  41.339  34.621   5.741
 5105POPC   GL266182  41.716  34.634   5.788
 5105POPC   C1A66183  41.414  34.557   6.185
 5105POPC   D2A66184  41.551  34.591   6.598
 5105POPC   C3A66185  41.280  34.554   6.942
 5105POPC   C4A66186  41.236  34.784   7.300
 5105POPC   C1B66187  41.914  34.663   6.217
 5105POPC   C2B66188  42.040  34.509   6.666
 5105POPC   C3B66189  41.796  34.500   7.047
 5105POPC   C4B66190  41.583  34.412   7.403
 5106POPC   NC366191  37.192  27.902   5.544
 5106POPC   PO466192  37.860  27.723   5.559
 5106POPC   GL166193  37.634  27.767   5.901
 5106POPC   GL266194  37.419  27.518   5.964
 5106POPC   C1A66195  37.891  27.729   6.260
 5106POPC   D2A66196  38.083  27.454   6.554
 5106POPC   C3A66197  37.946  27.659   6.914
 5106POPC   C4A66198  37.711  27.595   7.258
 5106POPC   C1B66199  37.541  27.302   6.332
 5106POPC   C2B66200  37.275  27.296   6.662
 5106POPC   C3B66201  37.265  27.518   7.022
 5106POPC   C4B66202  37.293  27.276   7.370
 5107POPC   NC366203   0.544  24.130   5.391
 5107POPC   PO466204  44.929  23.852   5.446
 5107POPC   GL166205   0.344  23.705   5.640
 5107POPC   GL266206   0.521  23.959   5.872
 5107POPC   C1A66207   0.383  23.481   6.022
 5107POPC   D2A66208   0.205  23.584   6.436
 5107POPC   C3A66209   0.364  23.420   6.837
 5107POPC   C4A66210   0.605  23.548   7.215
 5107POPC   C1B66211   0.691  23.784   6.292
 5107POPC   C2B66212   0.784  23.729   6.731
 5107POPC   C3B66213   0.785  24.003   7.098
 5107POPC   C4B66214   0.817  23.926   7.546
 5108POPC   NC366215  28.133  43.547   5.603
 5108POPC   PO466216  28.337  44.209   5.411
 5108POPC   GL166217  28.356  43.980   5.759
 5108POPC   GL266218  28.112  44.172   5.876
 5108POPC   C1A66219  28.456  43.874   6.173
 5108POPC   D2A66220  28.275  43.849   6.587
 5108POPC   C3A66221  28.475  44.082   6.892
 5108POPC   C4A66222  28.388  44.052   7.281
 5108POPC   C1B66223  28.046  44.394   6.231
 5108POPC   C2B66224  28.086  44.311   6.627
 5108POPC   C3B66225  28.078  44.455   7.018
 5108POPC   C4B66226  27.927  44.290   7.406
 5109POPC   NC366227  18.055  23.875   5.425
 5109POPC   PO466228  18.718  23.868   5.555
 5109POPC   GL166229  18.562  23.715   5.883
 5109POPC   GL266230  18.229  23.715   5.863
 5109POPC   C1A66231  18.475  23.581   6.291
 5109POPC   D2A66232  18.508  23.348   6.669
 5109POPC   C3A66233  18.463  23.599   7.002
 5109POPC   C4A66234  18.347  23.867   7.362
 5109POPC   C1B66235  18.022  23.818   6.243
 5109POPC   C2B66236  18.104  23.708   6.668
 5109POPC   C3B66237  17.964  23.648   7.110
 5109POPC   C4B66238  17.679  23.805   7.429
 5110POPC   NC366239  32.790  36.164   5.515
 5110POPC   PO466240  33.395  36.288   5.183
 5110POPC   GL166241  33.278  36.325   5.656
 5110POPC   GL266242  33.313  36.039   5.915
 5110POPC   C1A66243  33.071  36.459   6.052
 5110POPC   D2A66244  32.890  36.538   6.452
 5110POPC   C3A66245  33.112  36.528   6.848
 5110POPC   C4A66246  32.918  36.278   7.188
 5110POPC   C1B66247  33.150  36.032   6.360
 5110POPC   C2B66248  33.278  36.037   6.810
 5110POPC   C3B66249  33.098  35.795   7.141
 5110POPC   C4B66250  32.762  35.659   7.428
 5111POPC   NC366251  13.861  43.698   5.494
 5111POPC   PO466252  14.583  43.964   5.603
 5111POPC   GL166253  14.507  43.945   6.018
 5111POPC   GL266254  14.158  43.861   5.919
 5111POPC   C1A66255  14.545  43.768   6.434
 5111POPC   D2A66256  14.716  43.923   6.821
 5111POPC   C3A66257  14.525  43.926   7.231
 5111POPC   C4A66258  14.412  43.757   7.641
 5111POPC   C1B66259  14.121  44.074   6.319
 5111POPC   C2B66260  14.344  44.246   6.678
 5111POPC   C3B66261  14.269  44.346   7.107
 5111POPC   C4B66262  14.041  44.058   7.412
 5112POPC   NC366263  24.801  43.355   5.362
 5112POPC   PO466264  24.181  43.293   5.313
 5112POPC   GL166265  24.425  43.226   5.709
 5112POPC   GL266266  24.432  42.897   5.859
 5112POPC   C1A66267  24.632  43.303   6.129
 5112POPC   D2A66268  24.680  43.091   6.525
 5112POPC   C3A66269  24.609  43.270   6.894
 5112POPC   C4A66270  24.590  43.308   7.292
 5112POPC   C1B66271  24.194  43.044   6.237
 5112POPC   C2B66272  24.189  43.032   6.699
 5112POPC   C3B66273  24.099  43.075   7.118
 5112POPC   C4B66274  24.043  42.693   7.333
 5113POPC   NC366275  36.804  12.148   4.933
 5113POPC   PO466276  36.580  11.716   5.418
 5113POPC   GL166277  36.794  11.774   5.820
 5113POPC   GL266278  36.794  12.156   5.830
 5113POPC   C1A66279  37.048  11.887   6.203
 5113POPC   D2A66280  36.950  12.014   6.638
 5113POPC   C3A66281  36.823  11.745   7.029
 5113POPC   C4A66282  36.825  11.775   7.514
 5113POPC   C1B66283  36.919  12.409   6.220
 5113POPC   C2B66284  36.834  12.500   6.663
 5113POPC   C3B66285  36.872  12.260   7.077
 5113POPC   C4B66286  36.864  12.290   7.546
 5114POPC   NC366287  44.141  31.783   5.740
 5114POPC   PO466288  43.736  31.401   5.382
 5114POPC   GL166289  43.700  31.544   5.811
 5114POPC   GL266290  43.908  31.296   5.925
 5114POPC   C1A66291  43.778  31.654   6.278
 5114POPC   D2A66292  43.832  31.456   6.694
 5114POPC   C3A66293  43.596  31.711   6.994
 5114POPC   C4A66294  43.696  31.782   7.399
 5114POPC   C1B66295  44.069  31.147   6.330
 5114POPC   C2B66296  44.230  31.128   6.775
 5114POPC   C3B66297  44.084  31.203   7.178
 5114POPC   C4B66298  43.776  31.087   7.447
 5115POPC   NC366299  17.613   4.877   5.425
 5115POPC   PO466300  17.048   5.186   5.324
 5115POPC   GL166301  17.152   4.935   5.697
 5115POPC   GL266302  17.413   5.191   5.758
 5115POPC   C1A66303  17.385   4.783   6.095
 5115POPC   D2A66304  17.283   4.764   6.545
 5115POPC   C3A66305  17.512   4.661   6.906
 5115POPC   C4A66306  17.629   4.788   7.318
 5115POPC   C1B66307  17.696   5.200   6.101
 5115POPC   C2B66308  17.713   5.054   6.503
 5115POPC   C3B66309  17.705   5.136   6.914
 5115POPC   C4B66310  17.954   5.196   7.269
 5116POPC   NC366311  29.187  26.274   5.427
 5116POPC   PO466312  28.900  25.672   5.183
 5116POPC   GL166313  28.972  25.822   5.674
 5116POPC   GL266314  29.315  25.853   5.816
 5116POPC   C1A66315  28.971  26.010   6.130
 5116POPC   D2A66316  29.282  25.995   6.485
 5116POPC   C3A66317  29.098  26.154   6.839
 5116POPC   C4A66318  29.040  25.889   7.158
 5116POPC   C1B66319  29.450  26.236   6.064
 5116POPC   C2B66320  29.654  26.401   6.447
 5116POPC   C3B66321  29.617  26.353   6.897
 5116POPC   C4B66322  29.357  26.256   7.266
 5117POPC   NC366323  15.852  42.382   5.090
 5117POPC   PO466324  16.375  42.250   5.433
 5117POPC   GL166325  16.274  42.499   5.816
 5117POPC   GL266326  16.474  42.796   5.888
 5117POPC   C1A66327  16.023  42.425   6.210
 5117POPC   D2A66328  16.139  42.402   6.669
 5117POPC   C3A66329  15.902  42.248   7.051
 5117POPC   C4A66330  16.023  42.158   7.498
 5117POPC   C1B66331  16.415  42.727   6.350
 5117POPC   C2B66332  16.342  42.858   6.801
 5117POPC   C3B66333  16.281  42.571   7.192
 5117POPC   C4B66334  16.367  42.522   7.668
 5118POPC   NC366335  38.595  36.155   5.564
 5118POPC   PO466336  37.940  36.173   5.685
 5118POPC   GL166337  38.247  36.345   5.927
 5118POPC   GL266338  38.336  36.000   6.035
 5118POPC   C1A66339  38.538  36.387   6.284
 5118POPC   D2A66340  38.536  36.108   6.631
 5118POPC   C3A66341  38.472  36.280   7.027
 5118POPC   C4A66342  38.676  36.138   7.377
 5118POPC   C1B66343  38.626  35.697   6.262
 5118POPC   C2B66344  38.768  35.660   6.669
 5118POPC   C3B66345  38.557  35.747   7.045
 5118POPC   C4B66346  38.550  35.445   7.340
 5119POPC   NC366347  42.960  21.220   5.515
 5119POPC   PO466348  43.488  21.600   5.528
 5119POPC   GL166349  43.339  21.615   5.937
 5119POPC   GL266350  43.294  21.270   5.904
 5119POPC   C1A66351  43.169  21.479   6.350
 5119POPC   D2A66352  42.795  21.374   6.576
 5119POPC   C3A66353  42.950  21.377   6.984
 5119POPC   C4A66354  43.144  21.763   7.057
 5119POPC   C1B66355  43.481  21.065   6.249
 5119POPC   C2B66356  43.276  20.977   6.646
 5119POPC   C3B66357  43.379  20.944   7.053
 5119POPC   C4B66358  43.471  21.354   7.162
 5120POPC   NC366359  22.727  19.492   5.460
 5120POPC   PO466360  22.914  18.821   5.441
 5120POPC   GL166361  22.935  19.057   5.792
 5120POPC   GL266362  22.602  19.111   5.799
 5120POPC   C1A66363  22.877  19.010   6.241
 5120POPC   D2A66364  23.074  18.841   6.631
 5120POPC   C3A66365  23.006  19.056   7.006
 5120POPC   C4A66366  22.756  19.009   7.364
 5120POPC   C1B66367  22.473  19.362   6.144
 5120POPC   C2B66368  22.344  19.352   6.591
 5120POPC   C3B66369  22.529  19.413   7.036
 5120POPC   C4B66370  22.598  19.474   7.504
 5121POPC   NC366371  16.633  26.773   5.431
 5121POPC   PO466372  17.324  26.720   5.382
 5121POPC   GL166373  17.043  26.792   5.731
 5121POPC   GL266374  17.095  26.457   5.802
 5121POPC   C1A66375  16.776  26.781   6.119
 5121POPC   D2A66376  16.614  26.570   6.491
 5121POPC   C3A66377  16.540  26.901   6.773
 5121POPC   C4A66378  16.585  26.956   7.195
 5121POPC   C1B66379  17.207  26.300   6.215
 5121POPC   C2B66380  17.086  26.349   6.666
 5121POPC   C3B66381  16.813  26.501   7.011
 5121POPC   C4B66382  16.528  26.467   7.388
 5122POPC   NC366383  43.628  41.932   5.409
 5122POPC   PO466384  44.149  41.525   5.569
 5122POPC   GL166385  43.882  41.780   5.825
 5122POPC   GL266386  43.522  41.659   5.821
 5122POPC   C1A66387  43.982  41.788   6.233
 5122POPC   D2A66388  44.083  41.462   6.535
 5122POPC   C3A66389  44.028  41.620   6.953
 5122POPC   C4A66390  44.072  41.408   7.328
 5122POPC   C1B66391  43.576  41.489   6.245
 5122POPC   C2B66392  43.558  41.316   6.670
 5122POPC   C3B66393  43.593  41.387   7.121
 5122POPC   C4B66394  43.627  41.527   7.556
 5123POPC   NC366395  44.907  38.327   5.537
 5123POPC   PO466396  44.784  37.749   5.228
 5123POPC   GL166397  44.701  37.847   5.688
 5123POPC   GL266398  44.822  37.526   5.801
 5123POPC   C1A66399  44.532  37.904   6.129
 5123POPC   D2A66400  44.729  38.014   6.561
 5123POPC   C3A66401  44.587  37.915   7.009
 5123POPC   C4A66402  44.738  37.915   7.471
 5123POPC   C1B66403  44.701  37.432   6.237
 5123POPC   C2B66404  44.451  37.580   6.589
 5123POPC   C3B66405  44.341  37.457   6.990
 5123POPC   C4B66406  44.580  37.431   7.333
 5124POPC   NC366407   5.228  29.754   5.062
 5124POPC   PO466408   5.043  30.173   5.588
 5124POPC   GL166409   4.990  29.996   5.971
 5124POPC   GL266410   4.831  29.700   5.940
 5124POPC   C1A66411   5.295  29.918   6.269
 5124POPC   D2A66412   5.309  30.081   6.692
 5124POPC   C3A66413   5.387  29.854   7.051
 5124POPC   C4A66414   5.344  30.000   7.460
 5124POPC   C1B66415   4.827  29.818   6.424
 5124POPC   C2B66416   4.831  29.664   6.822
 5124POPC   C3B66417   4.900  29.841   7.184
 5124POPC   C4B66418   4.878  29.825   7.610
 5125POPC   NC366419   7.291   2.265   5.364
 5125POPC   PO466420   7.349   1.595   5.425
 5125POPC   GL166421   7.451   1.897   5.722
 5125POPC   GL266422   7.175   2.107   5.858
 5125POPC   C1A66423   7.500   1.841   6.170
 5125POPC   D2A66424   7.442   1.633   6.573
 5125POPC   C3A66425   7.730   1.799   6.884
 5125POPC   C4A66426   7.616   2.060   7.218
 5125POPC   C1B66427   7.198   2.228   6.325
 5125POPC   C2B66428   7.254   2.085   6.775
 5125POPC   C3B66429   7.140   2.245   7.207
 5125POPC   C4B66430   7.001   2.355   7.630
 5126POPC   NC366431  28.559  44.679   5.413
 5126POPC   PO466432  27.896  44.898   5.456
 5126POPC   GL166433  28.174  44.688   5.783
 5126POPC   GL266434  28.512  44.479   5.863
 5126POPC   C1A66435  28.340  44.832   6.180
 5126POPC   D2A66436  28.156  44.816   6.540
 5126POPC   C3A66437  28.202  44.985   6.920
 5126POPC   C4A66438  28.136  44.852   7.329
 5126POPC   C1B66439  28.546  44.363   6.300
 5126POPC   C2B66440  28.557  44.556   6.692
 5126POPC   C3B66441  28.564  44.628   7.106
 5126POPC   C4B66442  28.803  44.340   7.256
 5127POPC   NC366443  31.610  35.069   5.173
 5127POPC   PO466444  31.719  35.647   5.553
 5127POPC   GL166445  31.349  35.511   5.758
 5127POPC   GL266446  31.306  35.163   5.618
 5127POPC   C1A66447  31.356  35.533   6.212
 5127POPC   D2A66448  31.653  35.323   6.488
 5127POPC   C3A66449  31.595  35.476   6.912
 5127POPC   C4A66450  31.739  35.466   7.332
 5127POPC   C1B66451  31.300  35.064   6.078
 5127POPC   C2B66452  31.167  35.175   6.539
 5127POPC   C3B66453  31.239  35.121   7.006
 5127POPC   C4B66454  31.460  35.071   7.462
 5128POPC   NC366455   3.927   6.950   5.535
 5128POPC   PO466456   3.259   6.706   5.392
 5128POPC   GL166457   3.352   6.570   5.845
 5128POPC   GL266458   3.626   6.776   5.952
 5128POPC   C1A66459   3.481   6.473   6.313
 5128POPC   D2A66460   3.731   6.674   6.666
 5128POPC   C3A66461   3.468   6.695   7.025
 5128POPC   C4A66462   3.136   6.480   7.239
 5128POPC   C1B66463   3.377   7.036   6.241
 5128POPC   C2B66464   3.405   7.119   6.687
 5128POPC   C3B66465   3.778   7.114   6.951
 5128POPC   C4B66466   3.934   6.841   7.227
 5129POPC   NC366467  17.613  11.312   5.340
 5129POPC   PO466468  16.972  11.207   5.630
 5129POPC   GL166469  17.337  11.358   5.774
 5129POPC   GL266470  17.539  11.047   5.776
 5129POPC   C1A66471  17.566  11.430   6.142
 5129POPC   D2A66472  17.345  11.363   6.556
 5129POPC   C3A66473  17.460  11.602   6.908
 5129POPC   C4A66474  17.819  11.577   7.138
 5129POPC   C1B66475  17.364  10.976   6.200
 5129POPC   C2B66476  17.642  10.943   6.551
 5129POPC   C3B66477  17.656  11.126   6.941
 5129POPC   C4B66478  17.367  11.193   7.284
 5130POPC   NC366479  28.758  31.534   5.443
 5130POPC   PO466480  28.201  31.772   5.208
 5130POPC   GL166481  28.345  31.456   5.696
 5130POPC   GL266482  28.562  31.127   5.731
 5130POPC   C1A66483  28.466  31.497   6.156
 5130POPC   D2A66484  28.288  31.456   6.598
 5130POPC   C3A66485  28.461  31.634   6.940
 5130POPC   C4A66486  28.289  31.768   7.302
 5130POPC   C1B66487  28.236  31.046   6.066
 5130POPC   C2B66488  27.970  31.096   6.423
 5130POPC   C3B66489  28.066  31.051   6.867
 5130POPC   C4B66490  28.241  31.253   7.276
 5131POPC   NC366491  20.980   2.532   5.429
 5131POPC   PO466492  20.623   1.975   5.456
 5131POPC   GL166493  20.570   2.096   5.855
 5131POPC   GL266494  20.437   2.404   5.830
 5131POPC   C1A66495  20.730   1.922   6.222
 5131POPC   D2A66496  20.790   1.620   6.524
 5131POPC   C3A66497  20.813   1.892   6.886
 5131POPC   C4A66498  20.602   1.886   7.250
 5131POPC   C1B66499  20.589   2.466   6.209
 5131POPC   C2B66500  20.709   2.298   6.590
 5131POPC   C3B66501  20.467   2.302   6.968
 5131POPC   C4B66502  20.315   2.243   7.427
 5132POPC   NC366503   9.303  28.408   5.101
 5132POPC   PO466504   9.729  28.159   5.575
 5132POPC   GL166505   9.731  28.335   5.917
 5132POPC   GL266506   9.399  28.325   6.066
 5132POPC   C1A66507   9.841  28.450   6.265
 5132POPC   D2A66508   9.816  28.586   6.694
 5132POPC   C3A66509  10.089  28.420   7.018
 5132POPC   C4A66510   9.816  28.328   7.346
 5132POPC   C1B66511   9.408  28.697   6.365
 5132POPC   C2B66512   9.374  28.878   6.788
 5132POPC   C3B66513   9.501  28.741   7.215
 5132POPC   C4B66514   9.345  28.569   7.620
 5133POPC   NC366515   9.075   5.250   5.431
 5133POPC   PO466516   8.548   4.887   5.489
 5133POPC   GL166517   8.841   5.031   5.836
 5133POPC   GL266518   9.227   4.925   5.789
 5133POPC   C1A66519   8.733   5.133   6.269
 5133POPC   D2A66520   8.801   5.390   6.644
 5133POPC   C3A66521   8.830   5.186   6.994
 5133POPC   C4A66522   9.081   5.269   7.312
 5133POPC   C1B66523   9.108   4.791   6.195
 5133POPC   C2B66524   9.068   4.931   6.608
 5133POPC   C3B66525   9.219   4.848   7.010
 5133POPC   C4B66526   9.281   4.827   7.488
 5134POPC   NC366527  12.295  41.055   5.478
 5134POPC   PO466528  12.288  40.417   5.371
 5134POPC   GL166529  12.158  40.628   5.747
 5134POPC   GL266530  11.903  40.877   5.813
 5134POPC   C1A66531  12.202  40.679   6.209
 5134POPC   D2A66532  12.062  40.773   6.669
 5134POPC   C3A66533  12.299  40.500   7.005
 5134POPC   C4A66534  12.305  40.444   7.482
 5134POPC   C1B66535  11.920  41.117   6.204
 5134POPC   C2B66536  11.916  41.277   6.645
 5134POPC   C3B66537  11.755  41.165   7.024
 5134POPC   C4B66538  11.991  40.829   7.224
 5135POPC   NC366539   3.045  28.711   5.427
 5135POPC   PO466540   2.442  28.488   5.349
 5135POPC   GL166541   2.512  28.239   5.741
 5135POPC   GL266542   2.846  28.368   5.847
 5135POPC   C1A66543   2.347  28.100   6.152
 5135POPC   D2A66544   2.612  28.013   6.517
 5135POPC   C3A66545   2.702  28.299   6.858
 5135POPC   C4A66546   2.379  28.594   6.992
 5135POPC   C1B66547   2.976  28.382   6.324
 5135POPC   C2B66548   3.192  28.426   6.746
 5135POPC   C3B66549   3.140  28.212   7.147
 5135POPC   C4B66550   3.106  28.427   7.575
 5136POPC   NC366551  26.846  21.987   5.391
 5136POPC   PO466552  26.479  21.650   5.628
 5136POPC   GL166553  26.882  21.813   5.867
 5136POPC   GL266554  26.985  22.177   5.867
 5136POPC   C1A66555  26.993  21.894   6.302
 5136POPC   D2A66556  26.770  21.931   6.686
 5136POPC   C3A66557  27.062  21.905   6.979
 5136POPC   C4A66558  27.041  22.004   7.364
 5136POPC   C1B66559  26.984  22.404   6.300
 5136POPC   C2B66560  27.015  22.378   6.768
 5136POPC   C3B66561  26.737  22.324   7.131
 5136POPC   C4B66562  26.717  22.524   7.537
 5137POPC   NC366563  21.454  16.320   5.353
 5137POPC   PO466564  21.328  16.943   5.325
 5137POPC   GL166565  21.478  16.620   5.739
 5137POPC   GL266566  21.194  16.605   5.898
 5137POPC   C1A66567  21.649  16.630   6.222
 5137POPC   D2A66568  21.508  16.810   6.655
 5137POPC   C3A66569  21.310  16.587   6.996
 5137POPC   C4A66570  21.565  16.581   7.346
 5137POPC   C1B66571  21.127  16.767   6.324
 5137POPC   C2B66572  20.943  16.877   6.739
 5137POPC   C3B66573  20.958  16.926   7.180
 5137POPC   C4B66574  21.208  16.882   7.554
 5138POPC   NC366575   3.995   5.659   5.443
 5138POPC   PO466576   4.262   6.213   5.220
 5138POPC   GL166577   4.373   6.185   5.697
 5138POPC   GL266578   4.340   5.820   5.783
 5138POPC   C1A66579   4.277   6.144   6.168
 5138POPC   D2A66580   4.291   5.919   6.575
 5138POPC   C3A66581   4.143   5.881   6.995
 5138POPC   C4A66582   4.137   6.096   7.378
 5138POPC   C1B66583   4.542   5.654   6.171
 5138POPC   C2B66584   4.486   5.468   6.573
 5138POPC   C3B66585   4.631   5.678   6.965
 5138POPC   C4B66586   4.511   5.718   7.406
 5139POPC   NC366587   3.191  25.289   5.400
 5139POPC   PO466588   3.813  25.243   5.375
 5139POPC   GL166589   3.541  25.316   5.803
 5139POPC   GL266590   3.258  25.092   5.891
 5139POPC   C1A66591   3.484  25.358   6.302
 5139POPC   D2A66592   3.463  25.253   6.771
 5139POPC   C3A66593   3.440  25.544   7.117
 5139POPC   C4A66594   3.570  25.995   7.242
 5139POPC   C1B66595   3.006  25.125   6.291
 5139POPC   C2B66596   3.042  24.981   6.727
 5139POPC   C3B66597   3.045  25.197   7.146
 5139POPC   C4B66598   3.316  25.205   7.506
 5140POPC   NC366599  20.286  11.911   4.906
 5140POPC   PO466600  20.545  11.892   5.499
 5140POPC   GL166601  20.685  12.024   5.853
 5140POPC   GL266602  21.002  12.101   5.730
 5140POPC   C1A66603  20.757  12.170   6.245
 5140POPC   D2A66604  20.552  12.112   6.633
 5140POPC   C3A66605  20.743  12.321   6.980
 5140POPC   C4A66606  20.573  12.375   7.405
 5140POPC   C1B66607  21.072  11.721   6.024
 5140POPC   C2B66608  21.101  11.714   6.480
 5140POPC   C3B66609  20.838  11.761   6.868
 5140POPC   C4B66610  20.761  11.928   7.278
 5141POPC   NC366611   2.780  39.024   5.379
 5141POPC   PO466612   3.105  39.578   5.677
 5141POPC   GL166613   2.736  39.328   5.793
 5141POPC   GL266614   2.930  39.031   5.870
 5141POPC   C1A66615   2.513  39.142   6.173
 5141POPC   D2A66616   2.581  39.275   6.622
 5141POPC   C3A66617   2.616  39.002   6.987
 5141POPC   C4A66618   2.542  38.984   7.519
 5141POPC   C1B66619   2.982  39.319   6.241
 5141POPC   C2B66620   3.135  39.438   6.603
 5141POPC   C3B66621   2.966  39.556   6.974
 5141POPC   C4B66622   2.877  39.284   7.317
 5142POPC   NC366623  23.322  30.241   5.450
 5142POPC   PO466624  23.986  30.040   5.449
 5142POPC   GL166625  23.833  29.868   5.858
 5142POPC   GL266626  23.554  29.628   5.813
 5142POPC   C1A66627  23.722  30.025   6.261
 5142POPC   D2A66628  23.849  30.303   6.601
 5142POPC   C3A66629  23.775  30.074   6.962
 5142POPC   C4A66630  24.025  29.936   7.301
 5142POPC   C1B66631  23.359  29.605   6.227
 5142POPC   C2B66632  23.323  29.887   6.597
 5142POPC   C3B66633  23.356  29.789   7.031
 5142POPC   C4B66634  23.593  29.611   7.308
 5143POPC   NC366635  11.486  15.553   5.477
 5143POPC   PO466636  11.288  16.145   5.218
 5143POPC   GL166637  11.308  16.065   5.673
 5143POPC   GL266638  11.652  16.016   5.728
 5143POPC   C1A66639  11.268  16.176   6.139
 5143POPC   D2A66640  11.296  16.345   6.579
 5143POPC   C3A66641  11.128  16.035   6.891
 5143POPC   C4A66642  11.167  15.726   7.216
 5143POPC   C1B66643  11.648  15.809   6.138
 5143POPC   C2B66644  11.547  15.881   6.585
 5143POPC   C3B66645  11.616  15.925   7.030
 5143POPC   C4B66646  11.592  16.355   7.217
 5144POPC   NC366647  22.148  30.862   4.957
 5144POPC   PO466648  22.252  30.534   5.451
 5144POPC   GL166649  22.338  30.604   5.841
 5144POPC   GL266650  22.199  30.919   5.822
 5144POPC   C1A66651  22.207  30.662   6.259
 5144POPC   D2A66652  22.468  30.786   6.560
 5144POPC   C3A66653  22.276  30.714   6.964
 5144POPC   C4A66654  22.425  30.587   7.349
 5144POPC   C1B66655  21.918  31.081   6.180
 5144POPC   C2B66656  22.002  31.003   6.620
 5144POPC   C3B66657  21.939  31.181   7.025
 5144POPC   C4B66658  21.932  31.205   7.509
 5145POPC   NC366659  36.245  29.789   5.231
 5145POPC   PO466660  36.954  29.849   5.382
 5145POPC   GL166661  36.824  29.933   5.790
 5145POPC   GL266662  36.718  29.654   6.009
 5145POPC   C1A66663  36.948  30.135   6.169
 5145POPC   D2A66664  36.844  30.289   6.561
 5145POPC   C3A66665  37.004  30.089   6.944
 5145POPC   C4A66666  37.252  30.015   7.304
 5145POPC   C1B66667  36.650  29.764   6.452
 5145POPC   C2B66668  36.700  29.680   6.908
 5145POPC   C3B66669  36.598  29.579   7.341
 5145POPC   C4B66670  36.446  29.595   7.784
 5146POPC   NC366671  29.396  39.412   5.383
 5146POPC   PO466672  28.848  39.067   5.182
 5146POPC   GL166673  28.996  39.231   5.672
 5146POPC   GL266674  29.288  39.378   5.882
 5146POPC   C1A66675  28.844  39.267   6.134
 5146POPC   D2A66676  28.895  38.997   6.524
 5146POPC   C3A66677  28.960  39.196   6.930
 5146POPC   C4A66678  29.173  39.449   7.218
 5146POPC   C1B66679  29.323  39.068   6.221
 5146POPC   C2B66680  29.397  39.094   6.669
 5146POPC   C3B66681  29.623  39.377   6.949
 5146POPC   C4B66682  29.625  39.730   7.230
 5147POPC   NC366683  11.419   6.290   5.319
 5147POPC   PO466684  11.036   6.897   5.395
 5147POPC   GL166685  11.181   6.594   5.718
 5147POPC   GL266686  11.447   6.757   5.777
 5147POPC   C1A66687  11.162   6.685   6.196
 5147POPC   D2A66688  11.313   6.864   6.605
 5147POPC   C3A66689  11.236   6.608   6.972
 5147POPC   C4A66690  11.188   6.724   7.393
 5147POPC   C1B66691  11.615   6.924   6.170
 5147POPC   C2B66692  11.751   6.620   6.450
 5147POPC   C3B66693  11.813   6.595   6.902
 5147POPC   C4B66694  11.624   6.457   7.288
 5148POPC   NC366695   6.106  39.383   5.243
 5148POPC   PO466696   5.705  38.799   5.166
 5148POPC   GL166697   5.794  39.148   5.595
 5148POPC   GL266698   6.145  39.122   5.679
 5148POPC   C1A66699   5.746  39.406   6.063
 5148POPC   D2A66700   5.666  39.656   6.494
 5148POPC   C3A66701   5.742  39.511   6.934
 5148POPC   C4A66702   5.694  39.619   7.368
 5148POPC   C1B66703   6.109  39.058   6.118
 5148POPC   C2B66704   5.999  39.247   6.509
 5148POPC   C3B66705   5.885  39.026   6.860
 5148POPC   C4B66706   6.129  38.965   7.206
 5149POPC   NC366707  43.577  35.897   5.489
 5149POPC   PO466708  43.924  36.435   5.384
 5149POPC   GL166709  43.850  36.256   5.774
 5149POPC   GL266710  44.150  36.154   5.943
 5149POPC   C1A66711  43.664  36.224   6.170
 5149POPC   D2A66712  43.864  36.200   6.585
 5149POPC   C3A66713  43.600  36.123   6.930
 5149POPC   C4A66714  43.830  36.235   7.301
 5149POPC   C1B66715  43.968  35.827   6.245
 5149POPC   C2B66716  44.000  35.698   6.708
 5149POPC   C3B66717  43.839  35.742   7.170
 5149POPC   C4B66718  43.875  35.889   7.659
 5150POPC   NC366719  44.439  26.790   5.246
 5150POPC   PO466720  44.943  26.366   5.269
 5150POPC   GL166721  44.721  26.481   5.670
 5150POPC   GL266722  44.457  26.764   5.747
 5150POPC   C1A66723  44.754  26.592   6.129
 5150POPC   D2A66724  44.430  26.824   6.414
 5150POPC   C3A66725  44.603  26.962   6.824
 5150POPC   C4A66726  44.744  26.923   7.260
 5150POPC   C1B66727  44.274  26.450   6.033
 5150POPC   C2B66728  44.170  26.381   6.491
 5150POPC   C3B66729  44.422  26.458   6.891
 5150POPC   C4B66730  44.485  26.510   7.350
 5151POPC   NC366731   4.727  38.256   5.409
 5151POPC   PO466732   5.171  38.704   5.407
 5151POPC   GL166733   5.016  38.536   5.788
 5151POPC   GL266734   5.311  38.348   5.777
 5151POPC   C1A66735   4.726  38.376   6.124
 5151POPC   D2A66736   4.535  38.361   6.551
 5151POPC   C3A66737   4.851  38.348   6.849
 5151POPC   C4A66738   4.936  38.359   7.276
 5151POPC   C1B66739   5.425  38.281   6.218
 5151POPC   C2B66740   5.307  37.948   6.514
 5151POPC   C3B66741   5.322  37.878   6.932
 5151POPC   C4B66742   5.423  38.185   7.258
 5152POPC   NC366743  34.088  27.213   5.294
 5152POPC   PO466744  33.788  27.880   5.423
 5152POPC   GL166745  33.921  27.566   5.646
 5152POPC   GL266746  33.569  27.558   5.774
 5152POPC   C1A66747  34.026  27.553   6.080
 5152POPC   D2A66748  33.937  27.845   6.430
 5152POPC   C3A66749  34.108  27.669   6.818
 5152POPC   C4A66750  34.029  27.600   7.251
 5152POPC   C1B66751  33.522  27.576   6.219
 5152POPC   C2B66752  33.607  27.460   6.656
 5152POPC   C3B66753  33.414  27.561   7.070
 5152POPC   C4B66754  33.405  27.414   7.519
 5153POPC   NC366755  22.333   3.602   5.548
 5153POPC   PO466756  22.909   3.132   5.449
 5153POPC   GL166757  23.024   3.302   5.855
 5153POPC   GL266758  22.796   3.573   5.791
 5153POPC   C1A66759  23.155   3.340   6.295
 5153POPC   D2A66760  22.987   3.581   6.635
 5153POPC   C3A66761  23.078   3.428   7.012
 5153POPC   C4A66762  22.868   3.397   7.359
 5153POPC   C1B66763  22.890   3.787   6.177
 5153POPC   C2B66764  23.030   4.084   6.522
 5153POPC   C3B66765  23.035   3.983   6.954
 5153POPC   C4B66766  23.129   3.837   7.370
 5154POPC   NC366767  14.535  32.913   4.963
 5154POPC   PO466768  14.794  33.318   5.426
 5154POPC   GL166769  14.509  33.109   5.674
 5154POPC   GL266770  14.693  32.843   5.833
 5154POPC   C1A66771  14.413  33.150   6.125
 5154POPC   D2A66772  14.726  32.997   6.458
 5154POPC   C3A66773  14.571  32.958   6.914
 5154POPC   C4A66774  14.515  32.963   7.376
 5154POPC   C1B66775  14.432  32.660   6.174
 5154POPC   C2B66776  14.250  32.854   6.536
 5154POPC   C3B66777  14.076  32.759   6.938
 5154POPC   C4B66778  14.029  32.675   7.379
 5155POPC   NC366779  15.882  15.821   5.382
 5155POPC   PO466780  16.191  16.449   5.272
 5155POPC   GL166781  16.244  16.125   5.600
 5155POPC   GL266782  15.890  16.155   5.755
 5155POPC   C1A66783  16.259  15.928   6.027
 5155POPC   D2A66784  16.059  15.987   6.440
 5155POPC   C3A66785  16.114  15.950   6.859
 5155POPC   C4A66786  15.713  15.974   7.003
 5155POPC   C1B66787  15.742  15.808   6.063
 5155POPC   C2B66788  15.682  15.654   6.507
 5155POPC   C3B66789  15.469  15.542   6.889
 5155POPC   C4B66790  15.801  15.525   7.217
 5156POPC   NC366791   7.213   6.356   5.409
 5156POPC   PO466792   6.617   6.698   5.540
 5156POPC   GL166793   6.931   6.571   5.838
 5156POPC   GL266794   7.158   6.795   5.699
 5156POPC   C1A66795   6.833   6.487   6.285
 5156POPC   D2A66796   6.447   6.413   6.558
 5156POPC   C3A66797   6.526   6.600   6.964
 5156POPC   C4A66798   6.827   6.403   7.191
 5156POPC   C1B66799   7.228   6.935   6.100
 5156POPC   C2B66800   7.210   6.780   6.519
 5156POPC   C3B66801   7.077   6.808   6.921
 5156POPC   C4B66802   6.912   6.896   7.275
 5157POPC   NC366803  11.528  35.370   5.551
 5157POPC   PO466804  11.045  35.670   5.358
 5157POPC   GL166805  11.189  35.682   5.809
 5157POPC   GL266806  11.532  35.679   5.956
 5157POPC   C1A66807  11.124  35.446   6.213
 5157POPC   D2A66808  11.231  35.170   6.570
 5157POPC   C3A66809  11.196  35.318   7.004
 5157POPC   C4A66810  11.333  35.179   7.420
 5157POPC   C1B66811  11.692  35.795   6.387
 5157POPC   C2B66812  11.690  35.780   6.850
 5157POPC   C3B66813  11.613  35.561   7.216
 5157POPC   C4B66814  11.829  35.328   7.541
 5158POPC   NC366815  24.291  10.676   5.535
 5158POPC   PO466816  24.552  10.095   5.751
 5158POPC   GL166817  24.340  10.430   6.002
 5158POPC   GL266818  24.452  10.791   6.023
 5158POPC   C1A66819  24.410  10.502   6.456
 5158POPC   D2A66820  24.402  10.760   6.821
 5158POPC   C3A66821  24.561  10.580   7.175
 5158POPC   C4A66822  24.499  10.189   7.389
 5158POPC   C1B66823  24.171  10.938   6.367
 5158POPC   C2B66824  24.001  11.089   6.757
 5158POPC   C3B66825  24.030  10.870   7.161
 5158POPC   C4B66826  24.170  10.590   7.503
 5159POPC   NC366827  21.243   6.146   5.273
 5159POPC   PO466828  21.832   6.128   5.384
 5159POPC   GL166829  21.554   5.969   5.762
 5159POPC   GL266830  21.215   6.104   5.837
 5159POPC   C1A66831  21.469   5.779   6.208
 5159POPC   D2A66832  21.565   5.634   6.618
 5159POPC   C3A66833  21.264   5.586   6.931
 5159POPC   C4A66834  21.285   5.731   7.310
 5159POPC   C1B66835  21.244   6.220   6.302
 5159POPC   C2B66836  21.249   6.082   6.734
 5159POPC   C3B66837  21.198   6.204   7.175
 5159POPC   C4B66838  21.050   6.071   7.613
 5160POPC   NC366839  17.445  27.135   5.180
 5160POPC   PO466840  17.535  27.722   5.533
 5160POPC   GL166841  17.246  27.568   5.821
 5160POPC   GL266842  17.323  27.232   5.771
 5160POPC   C1A66843  17.279  27.728   6.209
 5160POPC   D2A66844  17.589  27.737   6.518
 5160POPC   C3A66845  17.406  27.817   6.923
 5160POPC   C4A66846  17.643  27.838   7.301
 5160POPC   C1B66847  17.496  27.277   6.212
 5160POPC   C2B66848  17.314  27.327   6.655
 5160POPC   C3B66849  17.448  27.313   7.111
 5160POPC   C4B66850  17.344  27.482   7.537
 5161POPC   NC366851  25.498  12.076   5.484
 5161POPC   PO466852  24.786  11.997   5.515
 5161POPC   GL166853  25.064  12.136   5.800
 5161POPC   GL266854  25.249  11.877   5.911
 5161POPC   C1A66855  24.987  12.195   6.234
 5161POPC   D2A66856  25.046  12.425   6.600
 5161POPC   C3A66857  24.933  12.258   6.978
 5161POPC   C4A66858  25.064  12.340   7.380
 5161POPC   C1B66859  25.253  11.772   6.361
 5161POPC   C2B66860  25.331  12.032   6.735
 5161POPC   C3B66861  25.336  11.968   7.163
 5161POPC   C4B66862  25.535  11.694   7.485
 5162POPC   NC366863  38.094  25.082   5.465
 5162POPC   PO466864  38.690  25.168   5.323
 5162POPC   GL166865  38.513  25.251   5.737
 5162POPC   GL266866  38.250  25.527   5.713
 5162POPC   C1A66867  38.518  25.139   6.197
 5162POPC   D2A66868  38.631  25.360   6.590
 5162POPC   C3A66869  38.523  25.183   6.986
 5162POPC   C4A66870  38.533  24.975   7.375
 5162POPC   C1B66871  38.118  25.478   6.150
 5162POPC   C2B66872  38.097  25.251   6.557
 5162POPC   C3B66873  38.079  25.427   6.971
 5162POPC   C4B66874  37.890  25.342   7.338
 5163POPC   NC366875  41.849  38.537   5.263
 5163POPC   PO466876  42.610  38.646   5.382
 5163POPC   GL166877  42.391  38.422   5.763
 5163POPC   GL266878  42.094  38.219   5.686
 5163POPC   C1A66879  42.397  38.356   6.205
 5163POPC   D2A66880  42.292  38.540   6.595
 5163POPC   C3A66881  42.487  38.440   6.941
 5163POPC   C4A66882  42.363  38.563   7.312
 5163POPC   C1B66883  42.038  38.015   6.096
 5163POPC   C2B66884  42.166  38.008   6.523
 5163POPC   C3B66885  42.027  38.178   6.902
 5163POPC   C4B66886  42.172  38.093   7.289
 5164POPC   NC366887  15.683  34.102   5.451
 5164POPC   PO466888  15.104  33.824   5.317
 5164POPC   GL166889  15.372  33.722   5.714
 5164POPC   GL266890  15.444  34.027   5.906
 5164POPC   C1A66891  15.336  33.598   6.167
 5164POPC   D2A66892  15.111  33.837   6.505
 5164POPC   C3A66893  15.167  33.755   6.955
 5164POPC   C4A66894  15.463  33.422   7.028
 5164POPC   C1B66895  15.456  34.212   6.338
 5164POPC   C2B66896  15.354  34.235   6.778
 5164POPC   C3B66897  15.190  34.317   7.187
 5164POPC   C4B66898  15.050  34.334   7.630
 5165POPC   NC366899   0.496  20.115   5.074
 5165POPC   PO466900   0.366  19.867   5.682
 5165POPC   GL166901   0.352  19.725   6.004
 5165POPC   GL266902   0.022  19.593   6.024
 5165POPC   C1A66903   0.597  19.889   6.307
 5165POPC   D2A66904   0.608  19.779   6.684
 5165POPC   C3A66905   0.861  19.981   6.926
 5165POPC   C4A66906   0.666  19.792   7.207
 5165POPC   C1B66907   0.047  20.034   6.228
 5165POPC   C2B66908   0.189  20.084   6.604
 5165POPC   C3B66909   0.168  19.817   6.941
 5165POPC   C4B66910   0.073  19.930   7.314
 5166POPC   NC366911  25.248  17.365   5.374
 5166POPC   PO466912  25.693  17.807   5.462
 5166POPC   GL166913  25.358  17.650   5.797
 5166POPC   GL266914  25.078  17.358   5.841
 5166POPC   C1A66915  25.468  17.431   6.194
 5166POPC   D2A66916  25.649  17.309   6.594
 5166POPC   C3A66917  25.522  17.523   6.961
 5166POPC   C4A66918  25.558  17.321   7.317
 5166POPC   C1B66919  24.970  17.569   6.203
 5166POPC   C2B66920  25.158  17.556   6.598
 5166POPC   C3B66921  24.984  17.536   6.999
 5166POPC   C4B66922  25.144  17.635   7.396
 5167POPC   NC366923  36.599  38.922   5.542
 5167POPC   PO466924  37.071  39.344   5.397
 5167POPC   GL166925  37.180  39.301   5.775
 5167POPC   GL266926  37.296  38.948   5.710
 5167POPC   C1A66927  36.912  39.424   6.146
 5167POPC   D2A66928  36.571  39.392   6.458
 5167POPC   C3A66929  36.741  39.340   6.840
 5167POPC   C4A66930  36.685  39.430   7.273
 5167POPC   C1B66931  37.051  38.919   6.083
 5167POPC   C2B66932  36.854  38.973   6.447
 5167POPC   C3B66933  36.905  38.862   6.884
 5167POPC   C4B66934  37.022  38.960   7.297
 5168POPC   NC366935  35.003  40.407   5.443
 5168POPC   PO466936  34.769  41.067   5.366
 5168POPC   GL166937  34.649  40.916   5.788
 5168POPC   GL266938  34.477  40.632   5.823
 5168POPC   C1A66939  34.493  40.937   6.234
 5168POPC   D2A66940  34.426  40.768   6.646
 5168POPC   C3A66941  34.772  40.734   6.933
 5168POPC   C4A66942  34.665  41.000   7.284
 5168POPC   C1B66943  34.440  40.423   6.233
 5168POPC   C2B66944  34.650  40.292   6.608
 5168POPC   C3B66945  34.526  40.263   7.023
 5168POPC   C4B66946  34.335  40.638   7.162
 5169POPC   NC366947  30.626  36.655   5.365
 5169POPC   PO466948  30.920  37.186   5.528
 5169POPC   GL166949  30.711  36.952   5.814
 5169POPC   GL266950  30.377  36.871   5.769
 5169POPC   C1A66951  30.790  36.774   6.208
 5169POPC   D2A66952  30.699  36.934   6.580
 5169POPC   C3A66953  30.934  36.782   6.887
 5169POPC   C4A66954  31.008  36.917   7.265
 5169POPC   C1B66955  30.366  37.065   6.184
 5169POPC   C2B66956  30.193  37.012   6.590
 5169POPC   C3B66957  30.382  36.985   6.992
 5169POPC   C4B66958  30.594  37.221   7.267
 5170POPC   NC366959  10.565  13.015   5.598
 5170POPC   PO466960  10.582  13.629   5.225
 5170POPC   GL166961  10.526  13.836   5.683
 5170POPC   GL266962  10.399  13.578   5.901
 5170POPC   C1A66963  10.630  13.910   6.178
 5170POPC   D2A66964  10.486  13.686   6.588
 5170POPC   C3A66965  10.753  13.818   6.970
 5170POPC   C4A66966  10.909  13.745   7.423
 5170POPC   C1B66967  10.097  13.452   6.241
 5170POPC   C2B66968  10.114  13.255   6.622
 5170POPC   C3B66969  10.251  13.395   7.001
 5170POPC   C4B66970  10.433  13.614   7.289
 5171POPC   NC366971   9.312  40.154   5.138
 5171POPC   PO466972   9.891  40.319   5.406
 5171POPC   GL166973   9.563  40.184   5.701
 5171POPC   GL266974   9.634  39.903   5.849
 5171POPC   C1A66975   9.415  40.251   6.144
 5171POPC   D2A66976   9.580  40.266   6.574
 5171POPC   C3A66977   9.793  39.970   6.807
 5171POPC   C4A66978   9.724  39.979   7.248
 5171POPC   C1B66979   9.876  39.993   6.244
 5171POPC   C2B66980  10.133  39.707   6.515
 5171POPC   C3B66981  10.155  39.542   6.930
 5171POPC   C4B66982  10.064  39.633   7.327
 5172POPC   NC366983  38.393  12.021   5.425
 5172POPC   PO466984  38.873  12.474   5.430
 5172POPC   GL166985  38.551  12.341   5.793
 5172POPC   GL266986  38.481  11.994   5.918
 5172POPC   C1A66987  38.387  12.412   6.248
 5172POPC   D2A66988  38.502  12.356   6.713
 5172POPC   C3A66989  38.222  12.175   7.008
 5172POPC   C4A66990  38.236  11.926   7.384
 5172POPC   C1B66991  38.688  11.809   6.283
 5172POPC   C2B66992  38.814  11.902   6.694
 5172POPC   C3B66993  38.742  12.058   7.113
 5172POPC   C4B66994  38.717  11.984   7.554
 5173POPC   NC366995   3.933  19.284   5.361
 5173POPC   PO466996   4.357  19.694   5.063
 5173POPC   GL166997   4.401  19.906   5.517
 5173POPC   GL266998   4.082  19.813   5.650
 5173POPC   C1A66999   4.554  20.004   5.985
 5173POPC   D2A67000   4.458  20.073   6.446
 5173POPC   C3A67001   4.570  19.789   6.807
 5173POPC   C4A67002   4.442  19.795   7.253
 5173POPC   C1B67003   4.067  19.947   6.075
 5173POPC   C2B67004   4.008  19.852   6.522
 5173POPC   C3B67005   4.110  19.991   6.917
 5173POPC   C4B67006   3.961  19.926   7.303
 5174POPC   NC367007  17.891  17.290   5.359
 5174POPC   PO467008  17.417  17.725   5.349
 5174POPC   GL167009  17.611  17.681   5.723
 5174POPC   GL267010  17.338  17.813   5.877
 5174POPC   C1A67011  17.540  17.403   6.115
 5174POPC   D2A67012  17.349  17.302   6.528
 5174POPC   C3A67013  17.448  17.297   6.972
 5174POPC   C4A67014  17.191  17.048   7.242
 5174POPC   C1B67015  17.661  17.898   6.169
 5174POPC   C2B67016  17.689  17.725   6.560
 5174POPC   C3B67017  17.615  17.951   6.945
 5174POPC   C4B67018  17.525  17.734   7.273
 5175POPC   NC367019  32.848  41.858   5.303
 5175POPC   PO467020  33.103  41.266   5.552
 5175POPC   GL167021  32.952  41.606   5.813
 5175POPC   GL267022  33.283  41.733   5.891
 5175POPC   C1A67023  32.677  41.659   6.203
 5175POPC   D2A67024  32.516  41.689   6.626
 5175POPC   C3A67025  32.782  41.453   6.908
 5175POPC   C4A67026  33.069  41.604   7.226
 5175POPC   C1B67027  33.202  41.693   6.325
 5175POPC   C2B67028  33.086  41.827   6.741
 5175POPC   C3B67029  33.156  42.119   7.108
 5175POPC   C4B67030  33.158  42.185   7.575
 5176POPC   NC367031  22.417  37.261   5.401
 5176POPC   PO467032  21.984  36.768   5.581
 5176POPC   GL167033  22.073  37.166   5.863
 5176POPC   GL267034  22.414  37.176   5.902
 5176POPC   C1A67035  22.077  37.196   6.315
 5176POPC   D2A67036  22.002  36.819   6.583
 5176POPC   C3A67037  21.903  36.886   7.014
 5176POPC   C4A67038  22.063  37.195   7.340
 5176POPC   C1B67039  22.505  36.815   6.117
 5176POPC   C2B67040  22.521  36.659   6.532
 5176POPC   C3B67041  22.416  36.850   6.936
 5176POPC   C4B67042  22.314  36.687   7.318
 5177POPC   NC367043   1.254  23.514   5.494
 5177POPC   PO467044   1.179  22.838   5.415
 5177POPC   GL167045   1.167  22.966   5.795
 5177POPC   GL267046   0.890  22.786   5.858
 5177POPC   C1A67047   1.377  23.104   6.152
 5177POPC   D2A67048   1.240  23.164   6.565
 5177POPC   C3A67049   1.565  23.134   6.875
 5177POPC   C4A67050   1.515  23.259   7.289
 5177POPC   C1B67051   1.029  22.730   6.276
 5177POPC   C2B67052   1.232  22.657   6.663
 5177POPC   C3B67053   1.270  22.749   7.101
 5177POPC   C4B67054   1.170  22.748   7.527
 5178POPC   NC367055  35.187  19.748   5.327
 5178POPC   PO467056  35.788  19.554   5.399
 5178POPC   GL167057  35.479  19.744   5.760
 5178POPC   GL267058  35.146  19.942   5.795
 5178POPC   C1A67059  35.359  19.690   6.210
 5178POPC   D2A67060  35.534  19.839   6.605
 5178POPC   C3A67061  35.402  19.639   6.989
 5178POPC   C4A67062  35.511  19.677   7.434
 5178POPC   C1B67063  34.876  19.826   6.157
 5178POPC   C2B67064  35.005  19.886   6.581
 5178POPC   C3B67065  35.040  20.004   7.022
 5178POPC   C4B67066  35.118  19.985   7.475
 5179POPC   NC367067   0.051  13.828   5.576
 5179POPC   PO467068  44.479  13.442   5.431
 5179POPC   GL167069  44.582  13.690   5.780
 5179POPC   GL267070  44.593  14.020   5.680
 5179POPC   C1A67071  44.801  13.625   6.194
 5179POPC   D2A67072  44.742  13.847   6.575
 5179POPC   C3A67073  44.904  13.742   6.943
 5179POPC   C4A67074  44.732  13.475   7.213
 5179POPC   C1B67075  44.713  14.144   6.128
 5179POPC   C2B67076  44.568  14.311   6.565
 5179POPC   C3B67077  44.529  14.170   7.013
 5179POPC   C4B67078  44.682  13.941   7.377
 5180POPC   NC367079  43.652  29.085   5.427
 5180POPC   PO467080  43.633  29.673   5.682
 5180POPC   GL167081  43.851  29.302   5.879
 5180POPC   GL267082  43.604  29.009   5.914
 5180POPC   C1A67083  44.081  29.298   6.289
 5180POPC   D2A67084  44.205  29.578   6.671
 5180POPC   C3A67085  43.963  29.450   7.043
 5180POPC   C4A67086  43.915  29.035   7.190
 5180POPC   C1B67087  43.674  28.937   6.336
 5180POPC   C2B67088  43.619  29.011   6.774
 5180POPC   C3B67089  43.524  28.724   7.117
 5180POPC   C4B67090  43.614  28.801   7.548
 5181POPC   NC367091  18.089  16.338   5.556
 5181POPC   PO467092  18.618  16.740   5.329
 5181POPC   GL167093  18.529  16.599   5.800
 5181POPC   GL267094  18.332  16.330   5.998
 5181POPC   C1A67095  18.594  16.715   6.253
 5181POPC   D2A67096  18.581  16.532   6.689
 5181POPC   C3A67097  18.439  16.799   7.028
 5181POPC   C4A67098  18.022  16.976   7.017
 5181POPC   C1B67099  17.964  16.553   6.205
 5181POPC   C2B67100  17.813  16.581   6.649
 5181POPC   C3B67101  18.036  16.441   7.024
 5181POPC   C4B67102  18.483  16.278   7.142
 5182POPC   NC367103  40.755  43.415   5.354
 5182POPC   PO467104  40.501  42.761   5.282
 5182POPC   GL167105  40.647  43.038   5.694
 5182POPC   GL267106  41.010  43.197   5.738
 5182POPC   C1A67107  40.724  43.147   6.154
 5182POPC   D2A67108  40.771  43.386   6.537
 5182POPC   C3A67109  40.666  43.158   6.912
 5182POPC   C4A67110  40.710  42.852   7.238
 5182POPC   C1B67111  41.147  43.449   6.116
 5182POPC   C2B67112  41.273  43.507   6.562
 5182POPC   C3B67113  41.053  43.515   6.969
 5182POPC   C4B67114  41.108  43.189   7.268
 5183POPC   NC367115  43.972  38.303   5.403
 5183POPC   PO467116  44.003  38.981   5.353
 5183POPC   GL167117  44.155  38.712   5.694
 5183POPC   GL267118  43.876  38.528   5.861
 5183POPC   C1A67119  44.249  38.676   6.153
 5183POPC   D2A67120  43.996  38.530   6.488
 5183POPC   C3A67121  43.889  38.815   6.817
 5183POPC   C4A67122  43.849  38.725   7.251
 5183POPC   C1B67123  44.081  38.165   6.098
 5183POPC   C2B67124  44.209  38.049   6.530
 5183POPC   C3B67125  44.214  38.282   6.933
 5183POPC   C4B67126  44.097  38.281   7.363
 5184POPC   NC367127  17.026   9.848   5.338
 5184POPC   PO467128  17.669   9.977   5.119
 5184POPC   GL167129  17.552   9.738   5.556
 5184POPC   GL267130  17.236   9.745   5.765
 5184POPC   C1A67131  17.658   9.602   6.016
 5184POPC   D2A67132  17.932   9.610   6.411
 5184POPC   C3A67133  17.786   9.348   6.747
 5184POPC   C4A67134  17.623   9.220   7.154
 5184POPC   C1B67135  17.129   9.627   6.148
 5184POPC   C2B67136  17.361   9.578   6.503
 5184POPC   C3B67137  17.229   9.626   6.928
 5184POPC   C4B67138  17.432   9.696   7.298
 5185POPC   NC367139  27.632  39.381   5.068
 5185POPC   PO467140  27.277  38.842   5.349
 5185POPC   GL167141  27.315  38.994   5.773
 5185POPC   GL267142  27.672  39.027   5.717
 5185POPC   C1A67143  27.461  39.135   6.193
 5185POPC   D2A67144  27.389  39.493   6.469
 5185POPC   C3A67145  27.558  39.427   6.870
 5185POPC   C4A67146  27.616  39.171   7.239
 5185POPC   C1B67147  27.860  38.795   6.060
 5185POPC   C2B67148  27.875  38.915   6.478
 5185POPC   C3B67149  27.880  38.897   6.912
 5185POPC   C4B67150  28.098  39.051   7.280
 5186POPC   NC367151  35.413  44.260   5.466
 5186POPC   PO467152  35.195  44.856   5.336
 5186POPC   GL167153  35.296  44.677   5.734
 5186POPC   GL267154  35.661  44.651   5.739
 5186POPC   C1A67155  35.160  44.466   6.120
 5186POPC   D2A67156  34.876  44.452   6.477
 5186POPC   C3A67157  35.033  44.571   6.875
 5186POPC   C4A67158  35.116  44.250   7.127
 5186POPC   C1B67159  35.674  44.503   6.191
 5186POPC   C2B67160  35.440  44.414   6.598
 5186POPC   C3B67161  35.531  44.539   7.052
 5186POPC   C4B67162  35.509  44.964   7.244
 5187POPC   NC367163  33.920  12.827   5.287
 5187POPC   PO467164  33.370  13.154   5.444
 5187POPC   GL167165  33.686  13.005   5.712
 5187POPC   GL267166  34.041  13.084   5.748
 5187POPC   C1A67167  33.707  12.862   6.115
 5187POPC   D2A67168  33.678  13.076   6.501
 5187POPC   C3A67169  33.684  12.804   6.834
 5187POPC   C4A67170  33.634  12.861   7.245
 5187POPC   C1B67171  34.149  13.140   6.215
 5187POPC   C2B67172  34.197  13.091   6.681
 5187POPC   C3B67173  34.127  12.894   7.106
 5187POPC   C4B67174  34.028  12.747   7.553
 5188POPC   NC367175  19.379   1.814   5.430
 5188POPC   PO467176  18.920   2.338   5.443
 5188POPC   GL167177  19.205   2.210   5.738
 5188POPC   GL267178  19.060   1.889   5.827
 5188POPC   C1A67179  19.170   2.260   6.187
 5188POPC   D2A67180  19.241   2.040   6.549
 5188POPC   C3A67181  19.071   2.184   6.897
 5188POPC   C4A67182  19.093   2.002   7.276
 5188POPC   C1B67183  18.890   1.796   6.231
 5188POPC   C2B67184  18.693   1.918   6.626
 5188POPC   C3B67185  18.682   1.802   7.039
 5188POPC   C4B67186  18.699   1.807   7.526
 5189POPC   NC367187  26.418   0.000   5.310
 5189POPC   PO467188  26.089  44.452   5.475
 5189POPC   GL167189  26.184  44.803   5.732
 5189POPC   GL267190  26.517  44.708   5.746
 5189POPC   C1A67191  26.324  44.929   6.166
 5189POPC   D2A67192  26.351  44.734   6.607
 5189POPC   C3A67193  26.011  44.809   6.932
 5189POPC   C4A67194  25.713  44.545   7.189
 5189POPC   C1B67195  26.386  44.397   6.091
 5189POPC   C2B67196  26.260  44.211   6.502
 5189POPC   C3B67197  26.450  44.286   6.876
 5189POPC   C4B67198  26.281  44.472   7.217
 5190POPC   NC367199  15.208  15.720   5.368
 5190POPC   PO467200  15.066  14.975   5.313
 5190POPC   GL167201  15.116  15.101   5.776
 5190POPC   GL267202  15.186  15.452   5.809
 5190POPC   C1A67203  15.104  15.047   6.263
 5190POPC   D2A67204  15.368  14.807   6.586
 5190POPC   C3A67205  15.240  14.875   7.016
 5190POPC   C4A67206  15.381  15.224   7.298
 5190POPC   C1B67207  14.786  15.484   6.048
 5190POPC   C2B67208  14.684  15.373   6.487
 5190POPC   C3B67209  14.999  15.275   6.808
 5190POPC   C4B67210  14.983  15.510   7.189
 5191POPC   NC367211  39.896  21.812   5.429
 5191POPC   PO467212  39.717  22.438   5.399
 5191POPC   GL167213  39.912  22.261   5.792
 5191POPC   GL267214  40.205  22.368   5.912
 5191POPC   C1A67215  40.057  22.129   6.307
 5191POPC   D2A67216  40.354  22.231   6.667
 5191POPC   C3A67217  40.161  22.153   7.063
 5191POPC   C4A67218  39.724  21.937   7.136
 5191POPC   C1B67219  39.948  22.614   6.202
 5191POPC   C2B67220  39.885  22.551   6.628
 5191POPC   C3B67221  39.720  22.456   7.036
 5191POPC   C4B67222  39.871  22.322   7.459
 5192POPC   NC367223   9.637   8.592   5.375
 5192POPC   PO467224   9.361   8.126   5.792
 5192POPC   GL167225   9.519   8.506   5.860
 5192POPC   GL267226   9.887   8.511   5.827
 5192POPC   C1A67227   9.401   8.574   6.272
 5192POPC   D2A67228   9.457   8.261   6.600
 5192POPC   C3A67229   9.590   8.372   7.019
 5192POPC   C4A67230   9.593   8.012   7.266
 5192POPC   C1B67231   9.860   8.288   6.181
 5192POPC   C2B67232   9.956   8.300   6.587
 5192POPC   C3B67233   9.960   8.031   6.893
 5192POPC   C4B67234  10.171   8.064   7.265
 5193POPC   NC367235  20.364  23.829   5.470
 5193POPC   PO467236  20.913  23.495   5.478
 5193POPC   GL167237  20.624  23.563   5.869
 5193POPC   GL267238  20.522  23.934   5.944
 5193POPC   C1A67239  20.452  23.585   6.324
 5193POPC   D2A67240  20.417  23.525   6.787
 5193POPC   C3A67241  20.757  23.631   7.091
 5193POPC   C4A67242  20.930  23.413   7.488
 5193POPC   C1B67243  20.327  24.131   6.319
 5193POPC   C2B67244  20.401  24.191   6.784
 5193POPC   C3B67245  20.357  23.930   7.172
 5193POPC   C4B67246  20.528  23.722   7.558
 5194POPC   NC367247  12.894  30.528   5.123
 5194POPC   PO467248  12.512  30.812   5.572
 5194POPC   GL167249  12.907  30.875   5.749
 5194POPC   GL267250  13.009  30.551   5.627
 5194POPC   C1A67251  13.096  30.979   6.157
 5194POPC   D2A67252  12.930  31.004   6.588
 5194POPC   C3A67253  13.055  30.995   7.009
 5194POPC   C4A67254  12.769  30.858   7.338
 5194POPC   C1B67255  13.034  30.482   6.065
 5194POPC   C2B67256  13.124  30.529   6.518
 5194POPC   C3B67257  12.904  30.506   6.940
 5194POPC   C4B67258  12.846  30.369   7.400
 5195POPC   NC367259  21.606  17.484   5.339
 5195POPC   PO467260  21.413  17.093   5.828
 5195POPC   GL167261  21.328  17.560   5.830
 5195POPC   GL267262  21.654  17.753   5.844
 5195POPC   C1A67263  21.109  17.768   6.194
 5195POPC   D2A67264  21.082  17.684   6.658
 5195POPC   C3A67265  21.249  17.282   6.812
 5195POPC   C4A67266  21.474  17.068   7.132
 5195POPC   C1B67267  21.816  17.753   6.293
 5195POPC   C2B67268  21.751  17.556   6.733
 5195POPC   C3B67269  21.481  17.632   7.117
 5195POPC   C4B67270  21.491  17.567   7.582
 5196POPC   NC367271   1.639  42.757   5.485
 5196POPC   PO467272   1.204  43.171   5.148
 5196POPC   GL167273   1.125  43.272   5.624
 5196POPC   GL267274   1.361  43.084   5.767
 5196POPC   C1A67275   0.965  43.254   6.102
 5196POPC   D2A67276   0.733  43.410   6.508
 5196POPC   C3A67277   0.928  43.333   6.913
 5196POPC   C4A67278   1.166  43.143   7.248
 5196POPC   C1B67279   1.290  42.854   6.159
 5196POPC   C2B67280   1.297  42.991   6.604
 5196POPC   C3B67281   1.542  42.925   6.985
 5196POPC   C4B67282   1.620  42.941   7.450
 5197POPC   NC367283  43.779  17.836   5.559
 5197POPC   PO467284  44.217  18.405   5.445
 5197POPC   GL167285  43.893  18.275   5.776
 5197POPC   GL267286  43.674  18.504   5.930
 5197POPC   C1A67287  43.803  18.037   6.205
 5197POPC   D2A67288  43.980  18.073   6.672
 5197POPC   C3A67289  43.699  18.053   7.080
 5197POPC   C4A67290  43.710  18.096   7.549
 5197POPC   C1B67291  44.074  18.470   6.203
 5197POPC   C2B67292  44.056  18.594   6.596
 5197POPC   C3B67293  43.766  18.523   6.883
 5197POPC   C4B67294  43.898  18.518   7.286
 5198POPC   NC367295  30.940  40.366   5.306
 5198POPC   PO467296  30.456  40.815   5.404
 5198POPC   GL167297  30.665  40.685   5.786
 5198POPC   GL267298  31.011  40.600   5.790
 5198POPC   C1A67299  30.800  40.775   6.234
 5198POPC   D2A67300  30.613  41.003   6.581
 5198POPC   C3A67301  30.752  40.917   6.986
 5198POPC   C4A67302  30.930  41.060   7.347
 5198POPC   C1B67303  31.105  40.339   6.181
 5198POPC   C2B67304  31.152  40.370   6.660
 5198POPC   C3B67305  31.037  40.288   7.110
 5198POPC   C4B67306  30.805  40.572   7.379
 5199POPC   NC367307  34.605  19.032   5.385
 5199POPC   PO467308  34.039  18.836   5.570
 5199POPC   GL167309  34.401  18.837   5.856
 5199POPC   GL267310  34.585  19.187   5.883
 5199POPC   C1A67311  34.535  18.874   6.290
 5199POPC   D2A67312  34.418  19.188   6.590
 5199POPC   C3A67313  34.497  19.078   7.006
 5199POPC   C4A67314  34.438  19.389   7.270
 5199POPC   C1B67315  34.835  19.300   6.286
 5199POPC   C2B67316  34.906  19.033   6.671
 5199POPC   C3B67317  35.018  19.054   7.117
 5199POPC   C4B67318  35.296  19.189   7.476
 5200POPC   NC367319  10.137  13.618   5.398
 5200POPC   PO467320   9.496  13.453   5.171
 5200POPC   GL167321   9.631  13.491   5.634
 5200POPC   GL267322   9.880  13.700   5.819
 5200POPC   C1A67323   9.584  13.403   6.122
 5200POPC   D2A67324   9.562  13.247   6.582
 5200POPC   C3A67325   9.755  13.496   6.914
 5200POPC   C4A67326   9.667  13.412   7.339
 5200POPC   C1B67327  10.080  13.952   6.149
 5200POPC   C2B67328   9.995  13.836   6.581
 5200POPC   C3B67329  10.194  13.935   6.950
 5200POPC   C4B67330   9.985  13.858   7.308
 5201POPC   NC367331  35.845   5.086   5.379
 5201POPC   PO467332  36.395   4.810   5.375
 5201POPC   GL167333  36.202   5.000   5.759
 5201POPC   GL267334  36.346   5.330   5.782
 5201POPC   C1A67335  36.047   5.191   6.171
 5201POPC   D2A67336  35.965   5.440   6.555
 5201POPC   C3A67337  36.024   5.220   6.972
 5201POPC   C4A67338  35.780   5.277   7.345
 5201POPC   C1B67339  36.533   5.061   6.149
 5201POPC   C2B67340  36.415   5.178   6.570
 5201POPC   C3B67341  36.516   5.078   7.017
 5201POPC   C4B67342  36.559   5.264   7.413
 5202POPC   NC367343  42.404  23.410   5.303
 5202POPC   PO467344  42.170  24.065   5.470
 5202POPC   GL167345  42.390  23.854   5.760
 5202POPC   GL267346  42.226  23.544   5.763
 5202POPC   C1A67347  42.504  23.721   6.185
 5202POPC   D2A67348  42.396  23.474   6.566
 5202POPC   C3A67349  42.482  23.712   6.943
 5202POPC   C4A67350  42.806  24.002   7.140
 5202POPC   C1B67351  42.056  23.477   6.169
 5202POPC   C2B67352  41.855  23.574   6.558
 5202POPC   C3B67353  41.936  23.757   6.966
 5202POPC   C4B67354  42.130  23.591   7.338
 5203POPC   NC367355   3.124   4.396   5.419
 5203POPC   PO467356   2.412   4.503   5.412
 5203POPC   GL167357   2.565   4.368   5.791
 5203POPC   GL267358   2.741   4.057   5.748
 5203POPC   C1A67359   2.731   4.435   6.207
 5203POPC   D2A67360   2.907   4.482   6.643
 5203POPC   C3A67361   2.715   4.615   7.034
 5203POPC   C4A67362   2.864   4.576   7.448
 5203POPC   C1B67363   2.873   3.909   6.170
 5203POPC   C2B67364   2.930   3.968   6.618
 5203POPC   C3B67365   2.878   4.117   7.046
 5203POPC   C4B67366   2.719   4.048   7.470
 5204POPC   NC367367   6.182  35.544   5.490
 5204POPC   PO467368   5.642  35.271   5.308
 5204POPC   GL167369   5.725  35.518   5.746
 5204POPC   GL267370   6.004  35.361   5.927
 5204POPC   C1A67371   5.909  35.809   6.121
 5204POPC   D2A67372   5.968  35.976   6.562
 5204POPC   C3A67373   5.802  35.656   6.868
 5204POPC   C4A67374   5.968  35.409   7.230
 5204POPC   C1B67375   5.715  35.317   6.259
 5204POPC   C2B67376   5.769  35.152   6.664
 5204POPC   C3B67377   5.561  35.200   7.036
 5204POPC   C4B67378   5.416  35.128   7.443
 5205POPC   NC367379  43.508  24.436   5.449
 5205POPC   PO467380  44.107  24.146   5.365
 5205POPC   GL167381  43.977  24.431   5.702
 5205POPC   GL267382  44.216  24.694   5.818
 5205POPC   C1A67383  43.758  24.660   6.068
 5205POPC   D2A67384  43.692  24.893   6.463
 5205POPC   C3A67385  43.635  24.621   6.818
 5205POPC   C4A67386  43.632  24.367   7.204
 5205POPC   C1B67387  44.212  24.368   6.136
 5205POPC   C2B67388  44.247  24.514   6.534
 5205POPC   C3B67389  44.096  24.411   6.913
 5205POPC   C4B67390  44.269  24.406   7.293
 5206POPC   NC367391  38.331  35.179   5.478
 5206POPC   PO467392  38.727  35.706   5.531
 5206POPC   GL167393  38.415  35.536   5.818
 5206POPC   GL267394  38.031  35.630   5.810
 5206POPC   C1A67395  38.480  35.188   6.134
 5206POPC   D2A67396  38.608  35.204   6.557
 5206POPC   C3A67397  38.428  35.149   6.942
 5206POPC   C4A67398  38.240  35.021   7.340
 5206POPC   C1B67399  38.145  35.544   6.247
 5206POPC   C2B67400  38.257  35.609   6.666
 5206POPC   C3B67401  38.088  35.507   7.092
 5206POPC   C4B67402  38.097  35.471   7.557
 5207POPC   NC367403  11.515  24.147   5.496
 5207POPC   PO467404  11.052  24.616   5.529
 5207POPC   GL167405  11.312  24.493   5.843
 5207POPC   GL267406  11.336  24.856   5.893
 5207POPC   C1A67407  11.314  24.339   6.274
 5207POPC   D2A67408  11.084  24.271   6.671
 5207POPC   C3A67409  11.322  24.344   7.057
 5207POPC   C4A67410  11.563  24.288   7.460
 5207POPC   C1B67411  11.593  24.797   6.246
 5207POPC   C2B67412  11.605  24.592   6.637
 5207POPC   C3B67413  11.586  24.802   6.998
 5207POPC   C4B67414  11.187  24.996   7.089
 5208POPC   NC367415  42.075  28.466   5.209
 5208POPC   PO467416  42.612  28.074   5.412
 5208POPC   GL167417  42.758  28.271   5.782
 5208POPC   GL267418  42.447  28.409   5.869
 5208POPC   C1A67419  42.811  28.236   6.220
 5208POPC   D2A67420  42.491  28.353   6.499
 5208POPC   C3A67421  42.637  28.292   6.899
 5208POPC   C4A67422  42.460  28.244   7.271
 5208POPC   C1B67423  42.045  28.331   6.129
 5208POPC   C2B67424  41.828  28.224   6.502
 5208POPC   C3B67425  42.051  28.258   6.876
 5208POPC   C4B67426  41.993  28.421   7.265
 5209POPC   NC367427  24.469  11.654   5.426
 5209POPC   PO467428  24.600  11.016   5.563
 5209POPC   GL167429  24.332  11.293   5.864
 5209POPC   GL267430  24.365  11.673   5.913
 5209POPC   C1A67431  24.313  11.417   6.326
 5209POPC   D2A67432  24.544  11.228   6.644
 5209POPC   C3A67433  24.397  11.236   7.057
 5209POPC   C4A67434  24.444  11.013   7.435
 5209POPC   C1B67435  24.742  11.739   6.186
 5209POPC   C2B67436  24.829  11.887   6.629
 5209POPC   C3B67437  24.865  11.751   7.073
 5209POPC   C4B67438  24.647  11.529   7.426
 5210POPC   NC367439  28.456  33.304   5.147
 5210POPC   PO467440  28.595  32.672   5.384
 5210POPC   GL167441  28.308  32.850   5.698
 5210POPC   GL267442  28.346  33.191   5.806
 5210POPC   C1A67443  28.279  32.765   6.130
 5210POPC   D2A67444  28.452  32.492   6.466
 5210POPC   C3A67445  28.394  32.762   6.818
 5210POPC   C4A67446  28.190  32.937   7.200
 5210POPC   C1B67447  28.387  33.279   6.277
 5210POPC   C2B67448  28.515  33.278   6.745
 5210POPC   C3B67449  28.271  33.429   7.163
 5210POPC   C4B67450  28.465  33.382   7.629
 5211POPC   NC367451  17.844  33.108   5.477
 5211POPC   PO467452  17.287  33.322   5.240
 5211POPC   GL167453  17.430  33.107   5.736
 5211POPC   GL267454  17.624  32.805   5.821
 5211POPC   C1A67455  17.569  33.238   6.155
 5211POPC   D2A67456  17.795  33.229   6.529
 5211POPC   C3A67457  17.590  33.104   6.874
 5211POPC   C4A67458  17.620  33.173   7.291
 5211POPC   C1B67459  17.879  32.830   6.201
 5211POPC   C2B67460  17.869  32.717   6.650
 5211POPC   C3B67461  17.858  32.750   7.113
 5211POPC   C4B67462  17.524  32.656   7.385
 5212POPC   NC367463  39.683   2.740   5.536
 5212POPC   PO467464  40.373   2.879   5.460
 5212POPC   GL167465  40.101   2.874   5.817
 5212POPC   GL267466  39.913   2.550   5.948
 5212POPC   C1A67467  40.152   2.916   6.236
 5212POPC   D2A67468  40.106   3.259   6.527
 5212POPC   C3A67469  39.885   3.070   6.857
 5212POPC   C4A67470  40.068   2.832   7.202
 5212POPC   C1B67471  39.880   2.388   6.389
 5212POPC   C2B67472  39.805   2.534   6.826
 5212POPC   C3B67473  39.682   2.389   7.229
 5212POPC   C4B67474  39.875   2.197   7.601
 5213POPC   NC367475  36.951   7.409   5.368
 5213POPC   PO467476  36.297   7.302   5.557
 5213POPC   GL167477  36.666   7.463   5.774
 5213POPC   GL267478  36.980   7.713   5.787
 5213POPC   C1A67479  36.885   7.317   6.129
 5213POPC   D2A67480  36.736   7.304   6.555
 5213POPC   C3A67481  36.998   7.210   6.917
 5213POPC   C4A67482  36.991   7.462   7.262
 5213POPC   C1B67483  37.116   7.756   6.227
 5213POPC   C2B67484  37.130   7.653   6.694
 5213POPC   C3B67485  37.032   7.915   7.054
 5213POPC   C4B67486  36.997   7.905   7.519
 5214POPC   NC367487   7.885  14.659   5.506
 5214POPC   PO467488   8.554  14.765   5.417
 5214POPC   GL167489   8.436  14.487   5.744
 5214POPC   GL267490   8.169  14.252   5.655
 5214POPC   C1A67491   8.410  14.373   6.179
 5214POPC   D2A67492   8.456  14.527   6.616
 5214POPC   C3A67493   8.426  14.259   6.959
 5214POPC   C4A67494   8.190  14.328   7.321
 5214POPC   C1B67495   7.933  14.198   6.059
 5214POPC   C2B67496   7.997  14.307   6.499
 5214POPC   C3B67497   7.885  14.256   6.913
 5214POPC   C4B67498   7.877  13.950   7.267
 5215POPC   NC367499  25.745  15.901   5.364
 5215POPC   PO467500  25.229  16.174   5.319
 5215POPC   GL167501  25.092  15.886   5.640
 5215POPC   GL267502  25.378  15.681   5.651
 5215POPC   C1A67503  24.978  15.961   6.110
 5215POPC   D2A67504  24.838  16.133   6.535
 5215POPC   C3A67505  24.868  15.846   6.882
 5215POPC   C4A67506  25.175  15.914   7.221
 5215POPC   C1B67507  25.486  15.953   5.976
 5215POPC   C2B67508  25.441  15.977   6.417
 5215POPC   C3B67509  25.546  15.943   6.853
 5215POPC   C4B67510  25.703  15.965   7.262
 5216POPC   NC367511  28.495  41.724   5.426
 5216POPC   PO467512  29.236  41.555   5.406
 5216POPC   GL167513  29.083  41.502   5.857
 5216POPC   GL267514  28.746  41.330   5.824
 5216POPC   C1A67515  29.113  41.629   6.302
 5216POPC   D2A67516  29.352  41.852   6.613
 5216POPC   C3A67517  29.307  41.700   7.045
 5216POPC   C4A67518  29.358  41.532   7.490
 5216POPC   C1B67519  28.717  41.284   6.270
 5216POPC   C2B67520  28.876  41.343   6.684
 5216POPC   C3B67521  28.928  41.374   7.130
 5216POPC   C4B67522  28.912  41.736   7.399
 5217POPC   NC367523  32.469  14.922   5.563
 5217POPC   PO467524  32.352  14.212   5.599
 5217POPC   GL167525  32.254  14.504   5.887
 5217POPC   GL267526  31.882  14.552   5.804
 5217POPC   C1A67527  32.334  14.347   6.324
 5217POPC   D2A67528  32.394  14.094   6.678
 5217POPC   C3A67529  32.199  14.318   6.982
 5217POPC   C4A67530  32.253  14.567   7.314
 5217POPC   C1B67531  31.892  14.586   6.262
 5217POPC   C2B67532  31.844  14.277   6.626
 5217POPC   C3B67533  31.781  14.038   7.018
 5217POPC   C4B67534  31.816  14.331   7.354
 5218POPC   NC367535  31.120   3.653   5.341
 5218POPC   PO467536  30.592   3.474   5.347
 5218POPC   GL167537  30.600   3.584   5.786
 5218POPC   GL267538  30.955   3.557   5.828
 5218POPC   C1A67539  30.622   3.711   6.249
 5218POPC   D2A67540  30.384   3.614   6.660
 5218POPC   C3A67541  30.269   3.565   7.127
 5218POPC   C4A67542  30.440   3.205   7.387
 5218POPC   C1B67543  31.121   3.535   6.250
 5218POPC   C2B67544  30.876   3.506   6.654
 5218POPC   C3B67545  30.761   3.541   7.149
 5218POPC   C4B67546  30.996   3.878   7.437
 5219POPC   NC367547   1.713  14.296   5.364
 5219POPC   PO467548   2.303  14.058   5.405
 5219POPC   GL167549   2.044  14.149   5.763
 5219POPC   GL267550   1.854  14.467   5.821
 5219POPC   C1A67551   2.080  14.100   6.198
 5219POPC   D2A67552   2.292  13.970   6.585
 5219POPC   C3A67553   2.114  14.112   6.999
 5219POPC   C4A67554   2.149  14.222   7.451
 5219POPC   C1B67555   1.844  14.700   6.208
 5219POPC   C2B67556   2.072  14.800   6.599
 5219POPC   C3B67557   2.182  14.628   7.019
 5219POPC   C4B67558   1.944  14.681   7.407
 5220POPC   NC367559  20.155  25.136   5.305
 5220POPC   PO467560  20.608  25.489   5.345
 5220POPC   GL167561  20.504  25.191   5.684
 5220POPC   GL267562  20.830  25.256   5.803
 5220POPC   C1A67563  20.350  25.044   6.102
 5220POPC   D2A67564  20.471  25.276   6.475
 5220POPC   C3A67565  20.425  25.245   6.903
 5220POPC   C4A67566  20.595  25.571   7.174
 5220POPC   C1B67567  20.892  25.131   6.235
 5220POPC   C2B67568  20.820  24.968   6.669
 5220POPC   C3B67569  20.878  25.097   7.112
 5220POPC   C4B67570  21.080  25.023   7.521
 5221POPC   NC367571  21.047  25.574   5.424
 5221POPC   PO467572  21.029  24.850   5.506
 5221POPC   GL167573  21.267  24.993   5.882
 5221POPC   GL267574  21.404  25.304   5.744
 5221POPC   C1A67575  21.409  25.170   6.294
 5221POPC   D2A67576  21.238  25.261   6.723
 5221POPC   C3A67577  21.402  25.057   7.104
 5221POPC   C4A67578  21.576  25.034   7.532
 5221POPC   C1B67579  21.750  25.475   6.027
 5221POPC   C2B67580  21.804  25.612   6.469
 5221POPC   C3B67581  21.711  25.423   6.875
 5221POPC   C4B67582  21.577  25.495   7.304
 5222POPC   NC367583  28.245  26.424   5.351
 5222POPC   PO467584  28.364  27.108   5.209
 5222POPC   GL167585  28.288  26.883   5.625
 5222POPC   GL267586  28.483  26.596   5.785
 5222POPC   C1A67587  28.215  26.928   6.080
 5222POPC   D2A67588  28.149  26.962   6.553
 5222POPC   C3A67589  28.301  26.798   6.959
 5222POPC   C4A67590  28.230  26.929   7.411
 5222POPC   C1B67591  28.582  26.618   6.258
 5222POPC   C2B67592  28.726  26.694   6.694
 5222POPC   C3B67593  28.666  26.446   7.054
 5222POPC   C4B67594  28.317  26.442   7.353
 5223POPC   NC367595   4.579   3.929   5.079
 5223POPC   PO467596   4.316   4.509   5.322
 5223POPC   GL167597   4.499   4.440   5.765
 5223POPC   GL267598   4.335   4.192   5.942
 5223POPC   C1A67599   4.449   4.592   6.230
 5223POPC   D2A67600   4.443   4.765   6.663
 5223POPC   C3A67601   4.489   4.448   6.996
 5223POPC   C4A67602   4.201   4.319   7.277
 5223POPC   C1B67603   4.116   4.148   6.321
 5223POPC   C2B67604   4.080   4.241   6.763
 5223POPC   C3B67605   3.842   4.037   7.094
 5223POPC   C4B67606   4.044   3.846   7.476
 5224POPC   NC367607   8.430  43.361   5.388
 5224POPC   PO467608   7.903  43.029   5.089
 5224POPC   GL167609   8.035  43.092   5.552
 5224POPC   GL267610   7.847  43.241   5.799
 5224POPC   C1A67611   8.268  42.983   5.971
 5224POPC   D2A67612   8.395  42.760   6.403
 5224POPC   C3A67613   8.228  42.757   6.857
 5224POPC   C4A67614   8.450  42.888   7.217
 5224POPC   C1B67615   7.812  43.007   6.200
 5224POPC   C2B67616   7.909  43.090   6.630
 5224POPC   C3B67617   7.678  43.157   7.042
 5224POPC   C4B67618   7.691  43.237   7.520
 5225POPC   NC367619  21.770  37.164   5.469
 5225POPC   PO467620  21.087  37.185   5.435
 5225POPC   GL167621  21.378  37.039   5.769
 5225POPC   GL267622  21.525  36.728   5.825
 5225POPC   C1A67623  21.573  37.188   6.162
 5225POPC   D2A67624  21.523  37.072   6.601
 5225POPC   C3A67625  21.535  37.274   7.026
 5225POPC   C4A67626  21.605  36.998   7.403
 5225POPC   C1B67627  21.266  36.753   6.206
 5225POPC   C2B67628  21.057  36.818   6.622
 5225POPC   C3B67629  21.299  36.807   7.003
 5225POPC   C4B67630  21.201  36.698   7.416
 5226POPC   NC367631  36.617  25.599   5.493
 5226POPC   PO467632  35.960  25.350   5.396
 5226POPC   GL167633  35.996  25.138   5.761
 5226POPC   GL267634  36.117  24.810   5.756
 5226POPC   C1A67635  36.169  25.273   6.162
 5226POPC   D2A67636  36.016  25.439   6.545
 5226POPC   C3A67637  36.279  25.433   6.893
 5226POPC   C4A67638  36.264  25.262   7.263
 5226POPC   C1B67639  35.895  24.845   6.177
 5226POPC   C2B67640  36.033  24.919   6.621
 5226POPC   C3B67641  35.831  25.143   6.971
 5226POPC   C4B67642  35.701  24.992   7.380
 5227POPC   NC367643  27.980  19.431   5.419
 5227POPC   PO467644  28.429  19.964   5.411
 5227POPC   GL167645  28.495  19.752   5.817
 5227POPC   GL267646  28.139  19.651   5.869
 5227POPC   C1A67647  28.482  19.658   6.294
 5227POPC   D2A67648  28.279  19.767   6.685
 5227POPC   C3A67649  28.508  19.745   7.084
 5227POPC   C4A67650  28.486  19.874   7.532
 5227POPC   C1B67651  28.037  19.430   6.258
 5227POPC   C2B67652  28.203  19.248   6.586
 5227POPC   C3B67653  27.984  19.437   6.943
 5227POPC   C4B67654  27.736  19.286   7.262
 5228POPC   NC367655  38.000  43.456   5.020
 5228POPC   PO467656  38.472  43.023   5.322
 5228POPC   GL167657  38.417  43.262   5.750
 5228POPC   GL267658  38.114  43.104   5.929
 5228POPC   C1A67659  38.444  43.366   6.218
 5228POPC   D2A67660  38.382  43.146   6.615
 5228POPC   C3A67661  38.682  42.950   6.863
 5228POPC   C4A67662  38.587  43.188   7.198
 5228POPC   C1B67663  38.205  42.830   6.257
 5228POPC   C2B67664  38.321  42.616   6.625
 5228POPC   C3B67665  38.244  42.734   7.034
 5228POPC   C4B67666  38.548  42.716   7.335
 5229POPC   NC367667  23.266   6.522   5.025
 5229POPC   PO467668  22.630   6.562   5.373
 5229POPC   GL167669  22.912   6.638   5.739
 5229POPC   GL267670  23.127   6.369   5.728
 5229POPC   C1A67671  23.080   6.840   6.131
 5229POPC   D2A67672  23.028   7.057   6.549
 5229POPC   C3A67673  23.097   6.770   6.868
 5229POPC   C4A67674  23.231   6.740   7.273
 5229POPC   C1B67675  22.954   6.343   6.196
 5229POPC   C2B67676  23.034   6.285   6.666
 5229POPC   C3B67677  23.038   6.267   7.116
 5229POPC   C4B67678  23.089   6.170   7.570
 5230POPC   NC367679   6.900  39.487   5.216
 5230POPC   PO467680   6.477  39.082   5.251
 5230POPC   GL167681   6.602  39.360   5.636
 5230POPC   GL267682   6.898  39.589   5.700
 5230POPC   C1A67683   6.534  39.337   6.092
 5230POPC   D2A67684   6.608  39.531   6.515
 5230POPC   C3A67685   6.422  39.310   6.904
 5230POPC   C4A67686   6.462  39.335   7.357
 5230POPC   C1B67687   7.044  39.387   6.049
 5230POPC   C2B67688   7.018  39.191   6.452
 5230POPC   C3B67689   6.942  39.350   6.868
 5230POPC   C4B67690   6.973  39.374   7.285
 5231POPC   NC367691   6.723   9.466   5.224
 5231POPC   PO467692   6.415  10.023   5.453
 5231POPC   GL167693   6.774   9.896   5.706
 5231POPC   GL267694   6.843   9.519   5.717
 5231POPC   C1A67695   6.684   9.793   6.127
 5231POPC   D2A67696   6.319   9.722   6.394
 5231POPC   C3A67697   6.437   9.680   6.814
 5231POPC   C4A67698   6.561   9.597   7.229
 5231POPC   C1B67699   7.046   9.442   6.132
 5231POPC   C2B67700   6.882   9.516   6.566
 5231POPC   C3B67701   7.072   9.500   6.989
 5231POPC   C4B67702   6.971   9.315   7.388
 5232POPC   NC367703  44.304  15.566   5.167
 5232POPC   PO467704  44.838  15.053   5.362
 5232POPC   GL167705  44.766  15.113   5.799
 5232POPC   GL267706  44.492  14.982   5.807
 5232POPC   C1A67707  44.673  15.141   6.271
 5232POPC   D2A67708  44.978  15.246   6.590
 5232POPC   C3A67709  44.888  15.339   7.026
 5232POPC   C4A67710  44.895  15.251   7.484
 5232POPC   C1B67711  44.242  14.872   6.106
 5232POPC   C2B67712  44.223  14.957   6.501
 5232POPC   C3B67713  44.474  15.176   6.769
 5232POPC   C4B67714  44.431  15.122   7.210
 5233POPC   NC367715   7.812  39.088   5.309
 5233POPC   PO467716   7.327  39.588   5.398
 5233POPC   GL167717   7.505  39.334   5.758
 5233POPC   GL267718   7.701  39.033   5.799
 5233POPC   C1A67719   7.513  39.312   6.225
 5233POPC   D2A67720   7.373  39.506   6.626
 5233POPC   C3A67721   7.451  39.332   7.045
 5233POPC   C4A67722   7.575  39.557   7.404
 5233POPC   C1B67723   7.657  38.810   6.174
 5233POPC   C2B67724   7.515  38.936   6.589
 5233POPC   C3B67725   7.688  38.861   6.979
 5233POPC   C4B67726   7.773  39.043   7.372
 5234POPC   NC367727   4.167  29.617   5.361
 5234POPC   PO467728   3.517  29.842   5.316
 5234POPC   GL167729   3.526  29.963   5.737
 5234POPC   GL267730   3.244  30.136   5.698
 5234POPC   C1A67731   3.564  29.864   6.176
 5234POPC   D2A67732   3.379  29.731   6.580
 5234POPC   C3A67733   3.476  30.008   6.897
 5234POPC   C4A67734   3.803  30.191   7.182
 5234POPC   C1B67735   3.192  30.213   6.149
 5234POPC   C2B67736   3.195  30.430   6.563
 5234POPC   C3B67737   3.092  30.354   6.990
 5234POPC   C4B67738   3.318  30.224   7.333
 5235POPC   NC367739   2.878  11.703   5.602
 5235POPC   PO467740   2.823  11.138   5.314
 5235POPC   GL167741   2.550  11.233   5.739
 5235POPC   GL267742   2.489  11.588   5.907
 5235POPC   C1A67743   2.617  11.188   6.208
 5235POPC   D2A67744   2.984  11.227   6.502
 5235POPC   C3A67745   2.893  10.978   6.854
 5235POPC   C4A67746   2.563  11.060   7.146
 5235POPC   C1B67747   2.797  11.698   6.251
 5235POPC   C2B67748   2.951  11.764   6.667
 5235POPC   C3B67749   2.697  11.618   7.005
 5235POPC   C4B67750   2.971  11.351   7.196
 5236POPC   NC367751   3.378  27.847   5.466
 5236POPC   PO467752   3.855  28.242   5.582
 5236POPC   GL167753   3.750  27.862   5.854
 5236POPC   GL267754   3.406  27.750   5.978
 5236POPC   C1A67755   3.781  27.698   6.299
 5236POPC   D2A67756   3.538  27.594   6.661
 5236POPC   C3A67757   3.553  27.877   7.007
 5236POPC   C4A67758   3.583  27.826   7.419
 5236POPC   C1B67759   3.206  27.402   6.310
 5236POPC   C2B67760   3.281  27.167   6.758
 5236POPC   C3B67761   3.553  27.349   7.138
 5236POPC   C4B67762   3.878  27.429   7.501
 5237POPC   NC367763  11.783  41.761   5.491
 5237POPC   PO467764  11.129  41.486   5.399
 5237POPC   GL167765  11.109  41.288   5.796
 5237POPC   GL267766  11.480  41.345   5.819
 5237POPC   C1A67767  11.147  41.257   6.242
 5237POPC   D2A67768  10.956  41.248   6.628
 5237POPC   C3A67769  11.178  41.262   7.027
 5237POPC   C4A67770  11.099  41.639   7.299
 5237POPC   C1B67771  11.595  41.522   6.220
 5237POPC   C2B67772  11.442  41.505   6.641
 5237POPC   C3B67773  11.549  41.654   7.036
 5237POPC   C4B67774  11.737  41.664   7.428
 5238POPC   NC367775   7.326   5.560   5.651
 5238POPC   PO467776   7.737   5.129   5.261
 5238POPC   GL167777   7.686   4.937   5.763
 5238POPC   GL267778   7.381   5.091   5.834
 5238POPC   C1A67779   7.476   4.879   6.264
 5238POPC   D2A67780   7.440   5.195   6.659
 5238POPC   C3A67781   7.438   5.096   7.104
 5238POPC   C4A67782   7.808   4.917   7.289
 5238POPC   C1B67783   7.197   5.331   6.223
 5238POPC   C2B67784   6.957   5.329   6.607
 5238POPC   C3B67785   7.054   5.458   7.007
 5238POPC   C4B67786   7.256   5.546   7.386
 5239POPC   NC367787  39.621   9.859   5.277
 5239POPC   PO467788  40.153   9.566   5.436
 5239POPC   GL167789  39.797   9.554   5.722
 5239POPC   GL267790  39.578   9.265   5.683
 5239POPC   C1A67791  39.770   9.725   6.176
 5239POPC   D2A67792  40.026   9.799   6.556
 5239POPC   C3A67793  39.877   9.927   6.944
 5239POPC   C4A67794  40.117   9.928   7.328
 5239POPC   C1B67795  39.757   9.212   6.121
 5239POPC   C2B67796  39.689   9.361   6.564
 5239POPC   C3B67797  39.948   9.420   6.922
 5239POPC   C4B67798  40.137   9.386   7.316
 5240POPC   NC367799   2.925  24.618   4.988
 5240POPC   PO467800   2.421  24.234   5.393
 5240POPC   GL167801   2.548  24.417   5.800
 5240POPC   GL267802   2.573  24.131   6.022
 5240POPC   C1A67803   2.709  24.612   6.208
 5240POPC   D2A67804   2.783  24.477   6.663
 5240POPC   C3A67805   2.812  24.696   7.084
 5240POPC   C4A67806   3.256  24.748   7.270
 5240POPC   C1B67807   2.338  24.263   6.377
 5240POPC   C2B67808   2.305  24.416   6.781
 5240POPC   C3B67809   2.343  24.470   7.200
 5240POPC   C4B67810   2.659  24.469   7.528
 5241POPC   NC367811   9.024  13.439   5.313
 5241POPC   PO467812   9.175  14.041   5.572
 5241POPC   GL167813   8.903  13.737   5.725
 5241POPC   GL267814   9.146  13.496   5.809
 5241POPC   C1A67815   8.736  13.543   6.110
 5241POPC   D2A67816   8.907  13.627   6.517
 5241POPC   C3A67817   8.672  13.565   6.866
 5241POPC   C4A67818   8.727  13.357   7.235
 5241POPC   C1B67819   9.235  13.767   6.159
 5241POPC   C2B67820   9.429  13.723   6.556
 5241POPC   C3B67821   9.289  13.678   6.987
 5241POPC   C4B67822   9.395  13.966   7.357
 5242POPC   NC367823  29.338  34.772   5.386
 5242POPC   PO467824  29.017  34.221   5.475
 5242POPC   GL167825  29.206  34.507   5.817
 5242POPC   GL267826  29.218  34.895   5.857
 5242POPC   C1A67827  29.350  34.444   6.229
 5242POPC   D2A67828  29.110  34.326   6.581
 5242POPC   C3A67829  29.205  34.452   7.008
 5242POPC   C4A67830  29.338  34.347   7.443
 5242POPC   C1B67831  29.015  34.822   6.236
 5242POPC   C2B67832  28.777  34.716   6.583
 5242POPC   C3B67833  28.725  34.664   7.009
 5242POPC   C4B67834  28.918  34.608   7.401
 5243POPC   NC367835  37.080  37.174   5.479
 5243POPC   PO467836  36.665  36.697   5.205
 5243POPC   GL167837  37.025  36.663   5.628
 5243POPC   GL267838  37.094  36.944   5.908
 5243POPC   C1A67839  37.080  36.506   6.111
 5243POPC   D2A67840  36.780  36.656   6.438
 5243POPC   C3A67841  36.857  36.592   6.908
 5243POPC   C4A67842  36.746  36.621   7.367
 5243POPC   C1B67843  37.039  37.111   6.330
 5243POPC   C2B67844  37.151  37.170   6.765
 5243POPC   C3B67845  37.030  37.171   7.190
 5243POPC   C4B67846  37.286  37.337   7.529
 5244POPC   NC367847   3.944  31.288   5.616
 5244POPC   PO467848   4.581  31.581   5.377
 5244POPC   GL167849   4.345  31.633   5.762
 5244POPC   GL267850   4.056  31.860   5.702
 5244POPC   C1A67851   4.513  31.549   6.202
 5244POPC   D2A67852   4.712  31.582   6.641
 5244POPC   C3A67853   4.373  31.656   6.959
 5244POPC   C4A67854   4.377  31.590   7.412
 5244POPC   C1B67855   3.986  31.885   6.158
 5244POPC   C2B67856   3.987  31.690   6.584
 5244POPC   C3B67857   3.840  31.700   7.018
 5244POPC   C4B67858   3.957  31.877   7.412
 5245POPC   NC367859  13.315  16.044   5.749
 5245POPC   PO467860  13.703  16.030   5.220
 5245POPC   GL167861  13.848  16.007   5.663
 5245POPC   GL267862  13.793  15.672   5.750
 5245POPC   C1A67863  13.894  15.985   6.151
 5245POPC   D2A67864  13.538  15.934   6.486
 5245POPC   C3A67865  13.519  16.056   6.915
 5245POPC   C4A67866  13.751  16.049   7.275
 5245POPC   C1B67867  13.623  15.543   6.185
 5245POPC   C2B67868  13.697  15.408   6.615
 5245POPC   C3B67869  13.824  15.603   7.005
 5245POPC   C4B67870  13.767  15.564   7.449
 5246POPC   NC367871   9.846   7.421   5.415
 5246POPC   PO467872   9.633   8.108   5.342
 5246POPC   GL167873   9.818   7.891   5.802
 5246POPC   GL267874   9.767   7.515   5.904
 5246POPC   C1A67875   9.733   7.813   6.304
 5246POPC   D2A67876   9.841   7.541   6.675
 5246POPC   C3A67877   9.530   7.452   7.004
 5246POPC   C4A67878   9.473   7.561   7.439
 5246POPC   C1B67879   9.849   7.246   6.252
 5246POPC   C2B67880   9.982   7.030   6.643
 5246POPC   C3B67881   9.954   7.134   7.088
 5246POPC   C4B67882   9.589   7.086   7.382
 5247POPC   NC367883  33.240  39.097   5.328
 5247POPC   PO467884  32.544  39.264   5.291
 5247POPC   GL167885  32.814  39.072   5.644
 5247POPC   GL267886  33.087  39.261   5.849
 5247POPC   C1A67887  32.873  38.862   6.065
 5247POPC   D2A67888  33.008  39.110   6.438
 5247POPC   C3A67889  32.870  38.963   6.845
 5247POPC   C4A67890  32.820  39.065   7.277
 5247POPC   C1B67891  33.374  39.434   6.195
 5247POPC   C2B67892  33.500  39.538   6.635
 5247POPC   C3B67893  33.383  39.630   7.060
 5247POPC   C4B67894  33.010  39.572   7.248
 5248POPC   NC367895   8.692  10.291   5.023
 5248POPC   PO467896   9.207  10.696   5.283
 5248POPC   GL167897   9.148  10.642   5.749
 5248POPC   GL267898   8.972  10.331   5.781
 5248POPC   C1A67899   9.078  10.739   6.210
 5248POPC   D2A67900   9.022  10.608   6.666
 5248POPC   C3A67901   8.929  10.825   7.093
 5248POPC   C4A67902   8.943  10.734   7.562
 5248POPC   C1B67903   8.719  10.181   6.128
 5248POPC   C2B67904   8.610  10.305   6.549
 5248POPC   C3B67905   8.728  10.329   6.983
 5248POPC   C4B67906   8.691  10.320   7.431
 5249POPC   NC367907  32.566  16.486   5.230
 5249POPC   PO467908  32.052  16.982   5.243
 5249POPC   GL167909  32.219  16.861   5.647
 5249POPC   GL267910  32.554  17.006   5.623
 5249POPC   C1A67911  32.121  16.807   6.116
 5249POPC   D2A67912  31.878  16.723   6.481
 5249POPC   C3A67913  32.111  16.646   6.866
 5249POPC   C4A67914  32.029  16.443   7.257
 5249POPC   C1B67915  32.453  17.195   6.039
 5249POPC   C2B67916  32.479  17.021   6.479
 5249POPC   C3B67917  32.460  17.070   6.943
 5249POPC   C4B67918  32.259  16.904   7.324
 5250POPC   NC367919  27.722  33.853   5.298
 5250POPC   PO467920  27.386  33.343   5.637
 5250POPC   GL167921  27.601  33.698   5.788
 5250POPC   GL267922  27.395  34.011   5.667
 5250POPC   C1A67923  27.744  33.644   6.222
 5250POPC   D2A67924  27.663  33.486   6.647
 5250POPC   C3A67925  27.692  33.835   6.938
 5250POPC   C4A67926  27.790  34.157   7.254
 5250POPC   C1B67927  27.339  34.002   6.110
 5250POPC   C2B67928  27.343  33.859   6.522
 5250POPC   C3B67929  27.167  33.890   6.915
 5250POPC   C4B67930  27.281  34.087   7.284
 5251POPC   NC367931  31.724  28.439   5.440
 5251POPC   PO467932  31.474  27.859   5.442
 5251POPC   GL167933  31.437  28.149   5.811
 5251POPC   GL267934  31.415  28.507   5.830
 5251POPC   C1A67935  31.697  28.271   6.176
 5251POPC   D2A67936  31.711  28.464   6.564
 5251POPC   C3A67937  31.481  28.282   6.922
 5251POPC   C4A67938  31.770  28.237   7.252
 5251POPC   C1B67939  31.193  28.425   6.248
 5251POPC   C2B67940  31.015  28.466   6.702
 5251POPC   C3B67941  31.102  28.541   7.158
 5251POPC   C4B67942  31.075  28.307   7.538
 5252POPC   NC367943  22.714  10.063   5.226
 5252POPC   PO467944  22.663   9.411   5.312
 5252POPC   GL167945  22.762   9.566   5.705
 5252POPC   GL267946  22.624   9.895   5.722
 5252POPC   C1A67947  22.796   9.450   6.125
 5252POPC   D2A67948  22.699   9.521   6.524
 5252POPC   C3A67949  23.001   9.562   6.837
 5252POPC   C4A67950  22.838   9.481   7.213
 5252POPC   C1B67951  22.552   9.912   6.156
 5252POPC   C2B67952  22.432   9.969   6.593
 5252POPC   C3B67953  22.595   9.856   6.968
 5252POPC   C4B67954  22.901   9.998   7.271
 5253POPC   NC367955   3.276  31.127   5.268
 5253POPC   PO467956   3.605  31.638   5.590
 5253POPC   GL167957   3.485  31.296   5.867
 5253POPC   GL267958   3.387  31.598   6.074
 5253POPC   C1A67959   3.645  31.212   6.269
 5253POPC   D2A67960   3.516  31.448   6.635
 5253POPC   C3A67961   3.642  31.224   6.999
 5253POPC   C4A67962   4.028  31.248   7.235
 5253POPC   C1B67963   3.058  31.808   6.296
 5253POPC   C2B67964   3.089  31.771   6.741
 5253POPC   C3B67965   3.314  31.616   7.081
 5253POPC   C4B67966   3.260  31.236   7.332
 5254POPC   NC367967  38.644   7.756   5.075
 5254POPC   PO467968  38.299   7.267   5.260
 5254POPC   GL167969  38.479   7.489   5.645
 5254POPC   GL267970  38.281   7.793   5.751
 5254POPC   C1A67971  38.485   7.523   6.127
 5254POPC   D2A67972  38.627   7.332   6.529
 5254POPC   C3A67973  38.499   7.465   6.940
 5254POPC   C4A67974  38.693   7.263   7.310
 5254POPC   C1B67975  38.049   7.826   6.192
 5254POPC   C2B67976  38.029   7.845   6.666
 5254POPC   C3B67977  37.968   7.787   7.119
 5254POPC   C4B67978  38.336   7.688   7.391
 5255POPC   NC367979  19.854  37.359   5.472
 5255POPC   PO467980  20.053  38.013   5.435
 5255POPC   GL167981  19.844  37.830   5.766
 5255POPC   GL267982  20.114  37.647   5.810
 5255POPC   C1A67983  19.715  37.584   6.137
 5255POPC   D2A67984  19.539  37.666   6.562
 5255POPC   C3A67985  19.608  37.448   6.931
 5255POPC   C4A67986  19.730  37.764   7.219
 5255POPC   C1B67987  20.204  37.465   6.184
 5255POPC   C2B67988  20.016  37.487   6.555
 5255POPC   C3B67989  20.105  37.562   6.938
 5255POPC   C4B67990  20.000  37.340   7.285
 5256POPC   NC367991  14.129   8.506   5.283
 5256POPC   PO467992  13.517   8.687   5.125
 5256POPC   GL167993  13.443   8.913   5.605
 5256POPC   GL267994  13.770   8.914   5.737
 5256POPC   C1A67995  13.452   8.946   6.106
 5256POPC   D2A67996  13.260   8.879   6.507
 5256POPC   C3A67997  13.470   8.783   6.890
 5256POPC   C4A67998  13.737   9.056   7.100
 5256POPC   C1B67999  13.951   9.073   6.129
 5256POPC   C2B68000  13.844   9.028   6.571
 5256POPC   C3B68001  14.005   8.700   6.847
 5256POPC   C4B68002  13.796   8.387   7.075
 5257POPC   NC368003  21.991   9.391   5.156
 5257POPC   PO468004  22.271   9.965   5.364
 5257POPC   GL168005  22.152  10.118   5.783
 5257POPC   GL268006  22.086   9.796   5.904
 5257POPC   C1A68007  22.070  10.138   6.259
 5257POPC   D2A68008  21.918   9.906   6.608
 5257POPC   C3A68009  22.091   9.970   7.016
 5257POPC   C4A68010  22.392  10.118   7.366
 5257POPC   C1B68011  22.196   9.606   6.314
 5257POPC   C2B68012  22.254   9.505   6.745
 5257POPC   C3B68013  22.270   9.518   7.160
 5257POPC   C4B68014  21.828   9.492   7.172
 5258POPC   NC368015  41.288   1.929   5.592
 5258POPC   PO468016  40.618   2.010   5.439
 5258POPC   GL168017  40.835   2.049   5.797
 5258POPC   GL268018  40.910   1.683   5.825
 5258POPC   C1A68019  40.783   2.116   6.217
 5258POPC   D2A68020  40.932   2.137   6.621
 5258POPC   C3A68021  40.641   2.164   6.957
 5258POPC   C4A68022  40.709   2.159   7.382
 5258POPC   C1B68023  40.936   1.519   6.242
 5258POPC   C2B68024  40.762   1.460   6.642
 5258POPC   C3B68025  40.886   1.483   7.073
 5258POPC   C4B68026  40.686   1.605   7.448
 5259POPC   NC368027  39.055  13.539   5.404
 5259POPC   PO468028  39.415  14.097   5.240
 5259POPC   GL168029  39.361  13.864   5.656
 5259POPC   GL268030  39.444  13.501   5.714
 5259POPC   C1A68031  39.141  13.696   6.063
 5259POPC   D2A68032  39.023  13.648   6.515
 5259POPC   C3A68033  39.203  13.562   6.907
 5259POPC   C4A68034  39.280  13.827   7.234
 5259POPC   C1B68035  39.551  13.402   6.125
 5259POPC   C2B68036  39.488  13.322   6.524
 5259POPC   C3B68037  39.599  13.181   6.886
 5259POPC   C4B68038  39.550  13.366   7.239
 5260POPC   NC368039  37.789  31.948   5.420
 5260POPC   PO468040  37.775  31.196   5.450
 5260POPC   GL168041  37.776  31.483   5.828
 5260POPC   GL268042  38.000  31.775   5.843
 5260POPC   C1A68043  37.707  31.368   6.279
 5260POPC   D2A68044  37.336  31.199   6.525
 5260POPC   C3A68045  37.293  31.362   6.935
 5260POPC   C4A68046  37.620  31.454   7.252
 5260POPC   C1B68047  37.953  31.981   6.210
 5260POPC   C2B68048  37.893  31.779   6.599
 5260POPC   C3B68049  37.632  31.852   6.932
 5260POPC   C4B68050  37.656  31.989   7.336
 5261POPC   NC368051  13.197  41.481   5.420
 5261POPC   PO468052  12.544  41.378   5.263
 5261POPC   GL168053  12.721  41.594   5.656
 5261POPC   GL268054  13.000  41.840   5.716
 5261POPC   C1A68055  12.912  41.436   6.057
 5261POPC   D2A68056  12.966  41.541   6.512
 5261POPC   C3A68057  12.894  41.301   6.878
 5261POPC   C4A68058  12.532  41.364   7.122
 5261POPC   C1B68059  13.102  41.899   6.172
 5261POPC   C2B68060  13.307  41.885   6.623
 5261POPC   C3B68061  13.047  41.764   7.026
 5261POPC   C4B68062  13.077  41.825   7.490
 5262POPC   NC368063   2.727  28.112   5.299
 5262POPC   PO468064   2.597  27.532   5.091
 5262POPC   GL168065   2.680  27.678   5.579
 5262POPC   GL268066   2.949  27.879   5.750
 5262POPC   C1A68067   2.578  27.649   6.054
 5262POPC   D2A68068   2.537  27.494   6.503
 5262POPC   C3A68069   2.655  27.702   6.911
 5262POPC   C4A68070   2.604  27.392   7.218
 5262POPC   C1B68071   3.011  27.881   6.238
 5262POPC   C2B68072   3.096  27.878   6.713
 5262POPC   C3B68073   3.107  27.676   7.158
 5262POPC   C4B68074   3.105  27.900   7.552
 5263POPC   NC368075  16.714   3.128   5.358
 5263POPC   PO468076  17.128   2.622   5.478
 5263POPC   GL168077  16.784   2.800   5.748
 5263POPC   GL268078  16.916   3.153   5.821
 5263POPC   C1A68079  16.676   2.747   6.193
 5263POPC   D2A68080  16.976   2.684   6.545
 5263POPC   C3A68081  16.782   2.613   6.948
 5263POPC   C4A68082  16.494   2.651   7.281
 5263POPC   C1B68083  16.957   3.187   6.272
 5263POPC   C2B68084  16.650   3.086   6.582
 5263POPC   C3B68085  16.600   3.105   7.024
 5263POPC   C4B68086  16.997   3.037   7.132
 5264POPC   NC368087  20.590   6.380   5.456
 5264POPC   PO468088  20.792   7.041   5.512
 5264POPC   GL168089  20.600   6.785   5.827
 5264POPC   GL268090  20.325   6.950   5.946
 5264POPC   C1A68091  20.458   6.485   6.182
 5264POPC   D2A68092  20.329   6.168   6.559
 5264POPC   C3A68093  20.452   6.208   7.042
 5264POPC   C4A68094  20.783   6.455   7.330
 5264POPC   C1B68095  20.635   7.003   6.301
 5264POPC   C2B68096  20.958   7.073   6.658
 5264POPC   C3B68097  20.810   6.961   7.074
 5264POPC   C4B68098  20.432   6.728   7.034
 5265POPC   NC368099  41.461  17.365   5.433
 5265POPC   PO468100  41.974  17.237   5.633
 5265POPC   GL168101  41.625  17.344   5.930
 5265POPC   GL268102  41.488  17.674   5.886
 5265POPC   C1A68103  41.414  17.425   6.347
 5265POPC   D2A68104  41.413  17.596   6.779
 5265POPC   C3A68105  41.511  17.262   7.115
 5265POPC   C4A68106  41.463  17.052   7.534
 5265POPC   C1B68107  41.821  17.733   6.239
 5265POPC   C2B68108  41.871  17.817   6.703
 5265POPC   C3B68109  41.745  17.784   7.147
 5265POPC   C4B68110  41.855  17.978   7.553
 5266POPC   NC368111   2.432  42.780   5.431
 5266POPC   PO468112   2.699  43.427   5.427
 5266POPC   GL168113   2.629  43.157   5.774
 5266POPC   GL268114   2.824  42.868   5.789
 5266POPC   C1A68115   2.550  43.204   6.232
 5266POPC   D2A68116   2.739  43.309   6.646
 5266POPC   C3A68117   2.533  43.313   7.055
 5266POPC   C4A68118   2.691  43.334   7.480
 5266POPC   C1B68119   2.886  42.810   6.214
 5266POPC   C2B68120   2.640  42.796   6.574
 5266POPC   C3B68121   2.776  42.856   6.986
 5266POPC   C4B68122   2.449  42.656   7.149
 5267POPC   NC368123  42.869  15.384   5.505
 5267POPC   PO468124  43.267  14.874   5.331
 5267POPC   GL168125  43.140  15.049   5.750
 5267POPC   GL268126  43.377  15.300   5.848
 5267POPC   C1A68127  42.922  15.271   6.144
 5267POPC   D2A68128  42.776  15.328   6.566
 5267POPC   C3A68129  43.024  15.346   6.917
 5267POPC   C4A68130  42.938  15.073   7.230
 5267POPC   C1B68131  43.341  15.000   6.196
 5267POPC   C2B68132  43.107  14.928   6.555
 5267POPC   C3B68133  43.305  14.874   6.929
 5267POPC   C4B68134  43.272  14.714   7.331
 5268POPC   NC368135  40.359  13.418   5.486
 5268POPC   PO468136  40.984  13.567   5.446
 5268POPC   GL168137  40.798  13.504   5.844
 5268POPC   GL268138  40.523  13.689   5.911
 5268POPC   C1A68139  40.924  13.456   6.261
 5268POPC   D2A68140  40.766  13.691   6.628
 5268POPC   C3A68141  41.003  13.713   6.999
 5268POPC   C4A68142  41.191  13.668   7.414
 5268POPC   C1B68143  40.403  13.374   6.195
 5268POPC   C2B68144  40.576  13.223   6.575
 5268POPC   C3B68145  40.597  13.346   7.002
 5268POPC   C4B68146  40.369  13.093   7.293
 5269POPC   NC368147  29.943   5.646   5.427
 5269POPC   PO468148  30.140   6.251   5.381
 5269POPC   GL168149  30.056   6.032   5.743
 5269POPC   GL268150  29.701   6.024   5.726
 5269POPC   C1A68151  30.006   6.059   6.203
 5269POPC   D2A68152  29.691   6.034   6.561
 5269POPC   C3A68153  29.802   6.156   6.994
 5269POPC   C4A68154  30.140   6.028   7.269
 5269POPC   C1B68155  29.572   5.765   6.111
 5269POPC   C2B68156  29.472   5.580   6.572
 5269POPC   C3B68157  29.566   5.699   7.039
 5269POPC   C4B68158  29.712   5.838   7.479
 5270POPC   NC368159  32.584   9.507   5.089
 5270POPC   PO468160  32.284   9.937   5.542
 5270POPC   GL168161  32.179   9.783   5.921
 5270POPC   GL268162  32.421  10.010   6.066
 5270POPC   C1A68163  32.202   9.592   6.274
 5270POPC   D2A68164  32.201   9.858   6.619
 5270POPC   C3A68165  32.200   9.600   6.962
 5270POPC   C4A68166  32.039   9.677   7.355
 5270POPC   C1B68167  32.688   9.695   6.223
 5270POPC   C2B68168  32.588   9.492   6.600
 5270POPC   C3B68169  32.771   9.558   6.971
 5270POPC   C4B68170  32.568   9.642   7.310
 5271POPC   NC368171   2.731  21.701   5.480
 5271POPC   PO468172   2.512  21.122   5.338
 5271POPC   GL168173   2.643  21.289   5.756
 5271POPC   GL268174   2.966  21.241   5.889
 5271POPC   C1A68175   2.688  21.553   6.156
 5271POPC   D2A68176   2.712  21.340   6.559
 5271POPC   C3A68177   2.736  21.534   6.966
 5271POPC   C4A68178   2.585  21.373   7.345
 5271POPC   C1B68179   3.152  21.331   6.276
 5271POPC   C2B68180   3.183  21.504   6.712
 5271POPC   C3B68181   3.123  21.194   7.061
 5271POPC   C4B68182   3.033  21.179   7.498
 5272POPC   NC368183  35.514   7.239   5.381
 5272POPC   PO468184  35.179   7.862   5.501
 5272POPC   GL168185  35.417   7.621   5.775
 5272POPC   GL268186  35.381   7.259   5.869
 5272POPC   C1A68187  35.467   7.646   6.199
 5272POPC   D2A68188  35.382   7.459   6.582
 5272POPC   C3A68189  35.684   7.608   6.831
 5272POPC   C4A68190  35.433   7.658   7.176
 5272POPC   C1B68191  35.251   7.086   6.263
 5272POPC   C2B68192  35.123   6.985   6.684
 5272POPC   C3B68193  35.283   7.097   7.082
 5272POPC   C4B68194  35.293   7.247   7.501
 5273POPC   NC368195  19.836   0.027   5.032
 5273POPC   PO468196  20.089   0.510   5.524
 5273POPC   GL168197  19.751   0.470   5.750
 5273POPC   GL268198  19.743   0.796   5.907
 5273POPC   C1A68199  19.702   0.353   6.174
 5273POPC   D2A68200  19.671   0.689   6.480
 5273POPC   C3A68201  19.716   0.520   6.888
 5273POPC   C4A68202  19.628   0.390   7.310
 5273POPC   C1B68203  20.122   0.620   6.153
 5273POPC   C2B68204  20.121   0.363   6.539
 5273POPC   C3B68205  20.217   0.444   6.984
 5273POPC   C4B68206  20.134   0.348   7.452
 5274POPC   NC368207  40.466  32.475   5.411
 5274POPC   PO468208  40.938  32.126   5.272
 5274POPC   GL168209  40.984  32.382   5.659
 5274POPC   GL268210  40.894  32.164   5.904
 5274POPC   C1A68211  41.059  32.587   6.110
 5274POPC   D2A68212  41.220  32.649   6.546
 5274POPC   C3A68213  41.012  32.809   6.900
 5274POPC   C4A68214  40.942  32.516   7.212
 5274POPC   C1B68215  40.854  32.147   6.382
 5274POPC   C2B68216  40.647  32.087   6.806
 5274POPC   C3B68217  40.700  32.035   7.259
 5274POPC   C4B68218  40.493  32.107   7.645
 5275POPC   NC368219  23.471  17.146   5.287
 5275POPC   PO468220  23.882  17.698   5.385
 5275POPC   GL168221  23.722  17.403   5.677
 5275POPC   GL268222  24.026  17.337   5.852
 5275POPC   C1A68223  23.554  17.332   6.115
 5275POPC   D2A68224  23.822  17.234   6.476
 5275POPC   C3A68225  23.754  17.391   6.906
 5275POPC   C4A68226  23.546  17.536   7.269
 5275POPC   C1B68227  23.925  17.667   6.147
 5275POPC   C2B68228  24.028  17.730   6.571
 5275POPC   C3B68229  23.969  17.868   6.981
 5275POPC   C4B68230  24.197  17.929   7.377
 5276POPC   NC368231   1.824  26.252   5.000
 5276POPC   PO468232   2.331  25.975   5.432
 5276POPC   GL168233   2.163  26.186   5.745
 5276POPC   GL268234   1.838  26.080   5.831
 5276POPC   C1A68235   2.190  26.142   6.179
 5276POPC   D2A68236   2.382  26.156   6.535
 5276POPC   C3A68237   2.171  26.274   6.896
 5276POPC   C4A68238   2.025  26.165   7.303
 5276POPC   C1B68239   1.715  25.955   6.200
 5276POPC   C2B68240   1.791  26.119   6.573
 5276POPC   C3B68241   1.766  25.929   6.940
 5276POPC   C4B68242   1.678  25.683   7.269
 5277POPC   NC368243  20.886  31.683   5.024
 5277POPC   PO468244  20.563  32.284   5.325
 5277POPC   GL168245  20.764  32.209   5.706
 5277POPC   GL268246  20.445  32.274   5.846
 5277POPC   C1A68247  20.874  32.092   6.138
 5277POPC   D2A68248  20.845  32.292   6.561
 5277POPC   C3A68249  20.793  32.070   6.954
 5277POPC   C4A68250  20.525  32.193   7.284
 5277POPC   C1B68251  20.630  32.559   6.157
 5277POPC   C2B68252  20.588  32.754   6.569
 5277POPC   C3B68253  20.678  32.592   6.985
 5277POPC   C4B68254  20.960  32.697   7.296
 5278POPC   NC368255   9.993  16.562   5.548
 5278POPC   PO468256   9.463  16.848   5.397
 5278POPC   GL168257   9.605  16.987   5.815
 5278POPC   GL268258   9.916  17.010   5.892
 5278POPC   C1A68259   9.580  16.781   6.232
 5278POPC   D2A68260   9.303  16.628   6.566
 5278POPC   C3A68261   9.495  16.572   6.953
 5278POPC   C4A68262   9.577  16.915   7.181
 5278POPC   C1B68263  10.102  16.766   6.202
 5278POPC   C2B68264   9.930  16.708   6.623
 5278POPC   C3B68265  10.041  16.938   6.979
 5278POPC   C4B68266  10.341  16.866   7.341
 5279POPC   NC368267  27.091  35.265   5.346
 5279POPC   PO468268  27.733  35.118   5.444
 5279POPC   GL168269  27.468  35.283   5.771
 5279POPC   GL268270  27.320  34.974   5.756
 5279POPC   C1A68271  27.607  35.332   6.213
 5279POPC   D2A68272  27.680  35.522   6.622
 5279POPC   C3A68273  27.822  35.241   6.922
 5279POPC   C4A68274  27.697  35.136   7.308
 5279POPC   C1B68275  27.241  34.971   6.192
 5279POPC   C2B68276  27.213  34.756   6.589
 5279POPC   C3B68277  27.342  34.969   6.961
 5279POPC   C4B68278  27.230  34.997   7.410
 5280POPC   NC368279  22.844   7.039   5.439
 5280POPC   PO468280  23.202   7.637   5.393
 5280POPC   GL168281  22.960   7.553   5.797
 5280POPC   GL268282  22.812   7.225   5.900
 5280POPC   C1A68283  22.888   7.643   6.228
 5280POPC   D2A68284  23.186   7.698   6.570
 5280POPC   C3A68285  23.055   7.634   6.981
 5280POPC   C4A68286  23.212   7.235   7.100
 5280POPC   C1B68287  22.629   7.221   6.277
 5280POPC   C2B68288  22.667   7.432   6.681
 5280POPC   C3B68289  22.701   7.251   7.096
 5280POPC   C4B68290  22.422   6.991   7.367
 5281POPC   NC368291  40.513  36.548   5.415
 5281POPC   PO468292  39.793  36.693   5.346
 5281POPC   GL168293  40.008  36.797   5.746
 5281POPC   GL268294  40.329  36.987   5.747
 5281POPC   C1A68295  39.954  37.059   6.138
 5281POPC   D2A68296  39.932  37.246   6.565
 5281POPC   C3A68297  39.860  36.958   6.894
 5281POPC   C4A68298  40.005  36.615   7.219
 5281POPC   C1B68299  40.463  36.979   6.199
 5281POPC   C2B68300  40.314  36.864   6.636
 5281POPC   C3B68301  40.326  36.969   7.088
 5281POPC   C4B68302  40.554  37.246   7.286
 5282POPC   NC368303  13.736   9.354   5.435
 5282POPC   PO468304  14.119   9.898   5.403
 5282POPC   GL168305  13.802   9.721   5.798
 5282POPC   GL268306  13.543   9.406   5.899
 5282POPC   C1A68307  13.501   9.841   6.166
 5282POPC   D2A68308  13.378   9.817   6.617
 5282POPC   C3A68309  13.703   9.959   6.936
 5282POPC   C4A68310  13.821   9.894   7.387
 5282POPC   C1B68311  13.303   9.381   6.325
 5282POPC   C2B68312  13.419   9.316   6.773
 5282POPC   C3B68313  13.546   9.526   7.169
 5282POPC   C4B68314  13.451   9.629   7.611
 5283POPC   NC368315  37.437  32.922   5.418
 5283POPC   PO468316  38.020  33.119   5.374
 5283POPC   GL168317  37.740  33.207   5.731
 5283POPC   GL268318  37.789  32.856   5.808
 5283POPC   C1A68319  37.558  33.125   6.170
 5283POPC   D2A68320  37.732  33.178   6.600
 5283POPC   C3A68321  37.424  33.202   6.930
 5283POPC   C4A68322  37.333  33.031   7.343
 5283POPC   C1B68323  38.009  32.889   6.206
 5283POPC   C2B68324  37.959  32.708   6.629
 5283POPC   C3B68325  37.757  32.836   7.028
 5283POPC   C4B68326  37.843  32.869   7.467
 5284POPC   NC368327  44.333  36.148   5.453
 5284POPC   PO468328   0.039  35.910   5.505
 5284POPC   GL168329  44.744  36.049   5.793
 5284POPC   GL268330  44.496  35.781   5.782
 5284POPC   C1A68331  44.784  36.258   6.200
 5284POPC   D2A68332  44.999  36.226   6.598
 5284POPC   C3A68333  44.758  36.214   6.979
 5284POPC   C4A68334  44.949  36.133   7.398
 5284POPC   C1B68335  44.467  35.864   6.224
 5284POPC   C2B68336  44.376  36.150   6.576
 5284POPC   C3B68337  44.272  36.021   7.001
 5284POPC   C4B68338  44.603  35.796   7.216
 5285POPC   NC368339  32.252  22.494   5.393
 5285POPC   PO468340  31.871  23.116   5.351
 5285POPC   GL168341  31.989  22.896   5.802
 5285POPC   GL268342  32.248  22.615   5.888
 5285POPC   C1A68343  32.171  22.926   6.273
 5285POPC   D2A68344  31.925  22.928   6.675
 5285POPC   C3A68345  32.176  23.004   7.045
 5285POPC   C4A68346  32.552  22.778   7.134
 5285POPC   C1B68347  31.933  22.485   6.238
 5285POPC   C2B68348  32.006  22.341   6.654
 5285POPC   C3B68349  31.918  22.553   7.048
 5285POPC   C4B68350  32.145  22.638   7.437
 5286POPC   NC368351  19.680  35.467   5.227
 5286POPC   PO468352  20.308  35.727   5.423
 5286POPC   GL168353  20.068  35.427   5.730
 5286POPC   GL268354  19.705  35.301   5.704
 5286POPC   C1A68355  19.915  35.431   6.163
 5286POPC   D2A68356  20.038  35.699   6.491
 5286POPC   C3A68357  20.142  35.649   6.900
 5286POPC   C4A68358  19.801  35.481   7.132
 5286POPC   C1B68359  19.470  35.150   6.058
 5286POPC   C2B68360  19.329  35.011   6.500
 5286POPC   C3B68361  19.484  35.097   6.929
 5286POPC   C4B68362  19.742  34.989   7.284
 5287POPC   NC368363  27.002  31.734   5.528
 5287POPC   PO468364  26.530  31.237   5.423
 5287POPC   GL168365  26.615  31.467   5.774
 5287POPC   GL268366  26.943  31.363   5.885
 5287POPC   C1A68367  26.444  31.327   6.154
 5287POPC   D2A68368  26.525  31.134   6.525
 5287POPC   C3A68369  26.634  31.415   6.822
 5287POPC   C4A68370  26.831  31.252   7.153
 5287POPC   C1B68371  26.913  31.516   6.321
 5287POPC   C2B68372  27.131  31.631   6.705
 5287POPC   C3B68373  26.946  31.798   7.080
 5287POPC   C4B68374  26.583  31.670   7.299
 5288POPC   NC368375  39.734   4.465   5.515
 5288POPC   PO468376  40.152   3.828   5.686
 5288POPC   GL168377  40.267   4.260   5.874
 5288POPC   GL268378  40.061   4.589   5.897
 5288POPC   C1A68379  40.240   4.358   6.312
 5288POPC   D2A68380  40.017   4.214   6.661
 5288POPC   C3A68381  40.142   4.465   7.006
 5288POPC   C4A68382  39.920   4.347   7.356
 5288POPC   C1B68383  39.655   4.589   6.154
 5288POPC   C2B68384  39.527   4.390   6.548
 5288POPC   C3B68385  39.623   4.486   6.949
 5288POPC   C4B68386  39.525   4.712   7.292
 5289POPC   NC368387  14.011  14.372   5.553
 5289POPC   PO468388  14.599  14.617   5.455
 5289POPC   GL168389  14.480  14.489   5.831
 5289POPC   GL268390  14.405  14.166   5.823
 5289POPC   C1A68391  14.571  14.478   6.259
 5289POPC   D2A68392  14.242  14.584   6.539
 5289POPC   C3A68393  14.400  14.586   6.927
 5289POPC   C4A68394  14.208  14.807   7.255
 5289POPC   C1B68395  14.171  14.179   6.204
 5289POPC   C2B68396  14.289  14.097   6.622
 5289POPC   C3B68397  14.326  13.986   7.018
 5289POPC   C4B68398  14.250  14.266   7.319
 5290POPC   NC368399  34.216  37.475   5.331
 5290POPC   PO468400  33.742  37.894   5.531
 5290POPC   GL168401  33.772  37.686   5.865
 5290POPC   GL268402  33.988  37.435   5.808
 5290POPC   C1A68403  33.548  37.713   6.200
 5290POPC   D2A68404  33.417  37.997   6.501
 5290POPC   C3A68405  33.417  37.747   6.827
 5290POPC   C4A68406  33.610  37.744   7.187
 5290POPC   C1B68407  34.034  37.503   6.260
 5290POPC   C2B68408  33.885  37.711   6.621
 5290POPC   C3B68409  34.080  37.702   7.016
 5290POPC   C4B68410  34.025  37.329   7.257
 5291POPC   NC368411  15.246  33.370   5.370
 5291POPC   PO468412  14.898  32.739   5.201
 5291POPC   GL168413  15.148  32.942   5.612
 5291POPC   GL268414  15.059  33.271   5.839
 5291POPC   C1A68415  15.285  32.919   6.083
 5291POPC   D2A68416  15.217  33.187   6.477
 5291POPC   C3A68417  15.334  32.955   6.852
 5291POPC   C4A68418  15.283  33.006   7.299
 5291POPC   C1B68419  14.834  33.450   6.196
 5291POPC   C2B68420  14.780  33.464   6.651
 5291POPC   C3B68421  14.958  33.275   6.992
 5291POPC   C4B68422  15.013  33.463   7.374
 5292POPC   NC368423  29.301   1.113   5.065
 5292POPC   PO468424  28.883   1.429   5.389
 5292POPC   GL168425  29.011   1.214   5.803
 5292POPC   GL268426  28.770   0.995   5.968
 5292POPC   C1A68427  29.218   1.091   6.216
 5292POPC   D2A68428  29.186   0.938   6.670
 5292POPC   C3A68429  29.105   1.162   7.119
 5292POPC   C4A68430  29.263   1.251   7.553
 5292POPC   C1B68431  28.742   1.036   6.406
 5292POPC   C2B68432  28.696   0.998   6.853
 5292POPC   C3B68433  28.683   0.898   7.282
 5292POPC   C4B68434  28.753   1.131   7.673
 5293POPC   NC368435  32.617  28.799   5.474
 5293POPC   PO468436  31.952  28.894   5.223
 5293POPC   GL168437  32.215  29.163   5.552
 5293POPC   GL268438  32.031  29.406   5.770
 5293POPC   C1A68439  32.353  29.100   5.992
 5293POPC   D2A68440  32.327  29.127   6.454
 5293POPC   C3A68441  32.505  28.961   6.840
 5293POPC   C4A68442  32.304  29.222   7.145
 5293POPC   C1B68443  31.896  29.192   6.173
 5293POPC   C2B68444  31.858  28.957   6.568
 5293POPC   C3B68445  31.862  29.073   7.003
 5293POPC   C4B68446  31.901  29.202   7.479
 5294POPC   NC368447  37.143  26.418   5.378
 5294POPC   PO468448  37.060  25.715   5.523
 5294POPC   GL168449  36.988  25.958   5.855
 5294POPC   GL268450  37.173  25.791   6.092
 5294POPC   C1A68451  36.658  25.942   6.184
 5294POPC   D2A68452  36.433  25.764   6.535
 5294POPC   C3A68453  36.651  25.798   6.969
 5294POPC   C4A68454  36.577  26.176   7.211
 5294POPC   C1B68455  37.092  26.179   6.339
 5294POPC   C2B68456  36.829  26.217   6.710
 5294POPC   C3B68457  37.109  26.281   7.051
 5294POPC   C4B68458  37.382  25.947   7.060
 5295POPC   NC368459   1.785  38.045   5.635
 5295POPC   PO468460   2.487  37.932   5.480
 5295POPC   GL168461   2.206  37.874   5.840
 5295POPC   GL268462   2.012  37.577   5.727
 5295POPC   C1A68463   2.014  38.002   6.257
 5295POPC   D2A68464   2.228  38.167   6.633
 5295POPC   C3A68465   2.091  37.960   6.990
 5295POPC   C4A68466   1.855  37.853   7.345
 5295POPC   C1B68467   1.911  37.501   6.166
 5295POPC   C2B68468   2.104  37.483   6.595
 5295POPC   C3B68469   1.877  37.472   6.992
 5295POPC   C4B68470   1.739  37.347   7.393
 5296POPC   NC368471   7.819  41.623   5.408
 5296POPC   PO468472   8.395  41.900   5.457
 5296POPC   GL168473   8.209  41.660   5.811
 5296POPC   GL268474   7.994  41.349   5.805
 5296POPC   C1A68475   8.266  41.759   6.228
 5296POPC   D2A68476   8.114  41.908   6.606
 5296POPC   C3A68477   8.337  41.803   6.987
 5296POPC   C4A68478   8.171  41.836   7.394
 5296POPC   C1B68479   8.156  41.262   6.208
 5296POPC   C2B68480   8.159  41.383   6.628
 5296POPC   C3B68481   8.038  41.239   7.023
 5296POPC   C4B68482   8.247  41.325   7.374
 5297POPC   NC368483  35.695  27.454   5.390
 5297POPC   PO468484  36.235  27.646   5.220
 5297POPC   GL168485  36.213  27.740   5.693
 5297POPC   GL268486  35.998  27.468   5.811
 5297POPC   C1A68487  36.236  27.652   6.203
 5297POPC   D2A68488  36.315  27.360   6.569
 5297POPC   C3A68489  36.229  27.535   6.949
 5297POPC   C4A68490  36.275  27.884   7.160
 5297POPC   C1B68491  35.736  27.499   6.167
 5297POPC   C2B68492  35.845  27.575   6.575
 5297POPC   C3B68493  35.716  27.512   6.977
 5297POPC   C4B68494  35.911  27.270   7.287
 5298POPC   NC368495  29.275  28.866   5.325
 5298POPC   PO468496  29.402  28.210   5.432
 5298POPC   GL168497  29.108  28.399   5.749
 5298POPC   GL268498  28.813  28.163   5.866
 5298POPC   C1A68499  29.308  28.612   6.120
 5298POPC   D2A68500  29.175  28.766   6.516
 5298POPC   C3A68501  29.279  28.621   6.929
 5298POPC   C4A68502  28.957  28.525   7.218
 5298POPC   C1B68503  29.024  28.206   6.242
 5298POPC   C2B68504  29.325  28.215   6.556
 5298POPC   C3B68505  29.239  28.099   6.968
 5298POPC   C4B68506  29.473  28.077   7.319
 5299POPC   NC368507   4.127  30.879   5.089
 5299POPC   PO468508   4.116  30.173   5.138
 5299POPC   GL168509   4.134  30.446   5.628
 5299POPC   GL268510   4.227  30.850   5.759
 5299POPC   C1A68511   4.339  30.505   6.083
 5299POPC   D2A68512   4.576  30.650   6.448
 5299POPC   C3A68513   4.238  30.629   6.756
 5299POPC   C4A68514   4.234  30.457   7.160
 5299POPC   C1B68515   4.367  31.039   6.187
 5299POPC   C2B68516   4.471  31.107   6.674
 5299POPC   C3B68517   4.418  30.931   7.123
 5299POPC   C4B68518   4.508  31.094   7.531
 5300POPC   NC368519  30.636  10.876   5.336
 5300POPC   PO468520  30.908  10.434   5.482
 5300POPC   GL168521  30.769  10.620   5.814
 5300POPC   GL268522  30.702  10.291   5.947
 5300POPC   C1A68523  30.680  10.695   6.248
 5300POPC   D2A68524  30.770  10.874   6.611
 5300POPC   C3A68525  30.523  10.759   6.942
 5300POPC   C4A68526  30.800  10.594   7.196
 5300POPC   C1B68527  30.875  10.171   6.359
 5300POPC   C2B68528  30.771  10.283   6.789
 5300POPC   C3B68529  30.443  10.258   7.128
 5300POPC   C4B68530  30.490  10.201   7.583
 5301POPC   NC368531  38.915  43.309   5.392
 5301POPC   PO468532  39.593  43.294   5.330
 5301POPC   GL168533  39.365  43.318   5.800
 5301POPC   GL268534  39.093  43.095   5.836
 5301POPC   C1A68535  39.448  43.371   6.300
 5301POPC   D2A68536  39.359  43.494   6.767
 5301POPC   C3A68537  39.134  43.160   7.021
 5301POPC   C4A68538  39.164  42.700   7.093
 5301POPC   C1B68539  38.958  43.434   6.131
 5301POPC   C2B68540  38.881  43.367   6.586
 5301POPC   C3B68541  38.843  43.567   6.998
 5301POPC   C4B68542  38.882  43.493   7.480
 5302POPC   NC368543   4.975  13.836   5.358
 5302POPC   PO468544   4.966  13.087   5.281
 5302POPC   GL168545   4.869  13.418   5.618
 5302POPC   GL268546   5.184  13.530   5.718
 5302POPC   C1A68547   4.842  13.713   6.035
 5302POPC   D2A68548   4.614  13.934   6.402
 5302POPC   C3A68549   4.826  13.879   6.828
 5302POPC   C4A68550   4.810  13.589   7.182
 5302POPC   C1B68551   5.348  13.366   6.109
 5302POPC   C2B68552   5.547  13.219   6.459
 5302POPC   C3B68553   5.592  13.353   6.837
 5302POPC   C4B68554   5.349  13.478   7.174
 5303POPC   NC368555  32.153  12.403   5.441
 5303POPC   PO468556  32.507  11.738   5.370
 5303POPC   GL168557  32.473  12.039   5.767
 5303POPC   GL268558  32.473  12.415   5.833
 5303POPC   C1A68559  32.542  11.992   6.235
 5303POPC   D2A68560  32.493  11.707   6.623
 5303POPC   C3A68561  32.373  11.918   7.017
 5303POPC   C4A68562  31.947  11.968   7.221
 5303POPC   C1B68563  32.179  12.563   6.163
 5303POPC   C2B68564  31.895  12.466   6.525
 5303POPC   C3B68565  32.023  12.459   6.952
 5303POPC   C4B68566  32.316  12.366   7.248
 5304POPC   NC368567  28.677  12.568   5.380
 5304POPC   PO468568  29.283  12.272   5.317
 5304POPC   GL168569  29.248  12.182   5.774
 5304POPC   GL268570  28.935  12.351   5.785
 5304POPC   C1A68571  29.420  12.115   6.213
 5304POPC   D2A68572  29.196  12.100   6.610
 5304POPC   C3A68573  29.387  12.099   7.029
 5304POPC   C4A68574  29.474  11.830   7.410
 5304POPC   C1B68575  29.011  12.489   6.223
 5304POPC   C2B68576  28.893  12.504   6.678
 5304POPC   C3B68577  29.068  12.519   7.109
 5304POPC   C4B68578  29.299  12.333   7.492
 5305POPC   NC368579   0.685   5.476   5.417
 5305POPC   PO468580   0.254   4.956   5.271
 5305POPC   GL168581   0.388   4.917   5.721
 5305POPC   GL268582   0.411   5.271   5.844
 5305POPC   C1A68583   0.492   4.933   6.204
 5305POPC   D2A68584   0.832   4.991   6.516
 5305POPC   C3A68585   0.720   5.085   6.943
 5305POPC   C4A68586   0.495   4.840   7.240
 5305POPC   C1B68587   0.251   5.383   6.292
 5305POPC   C2B68588   0.351   5.391   6.758
 5305POPC   C3B68589   0.374   5.341   7.226
 5305POPC   C4B68590   0.350   5.503   7.659
 5306POPC   NC368591  14.590   8.696   5.564
 5306POPC   PO468592  14.110   9.064   5.407
 5306POPC   GL168593  14.455   9.220   5.707
 5306POPC   GL268594  14.834   9.147   5.713
 5306POPC   C1A68595  14.457   9.199   6.156
 5306POPC   D2A68596  14.373   8.963   6.523
 5306POPC   C3A68597  14.234   9.165   6.901
 5306POPC   C4A68598  14.190   8.946   7.274
 5306POPC   C1B68599  14.868   8.892   6.112
 5306POPC   C2B68600  14.900   8.942   6.546
 5306POPC   C3B68601  14.688   8.930   6.955
 5306POPC   C4B68602  14.672   8.758   7.361
 5307POPC   NC368603   8.168   6.556   5.180
 5307POPC   PO468604   8.418   6.332   5.747
 5307POPC   GL168605   8.269   6.661   5.890
 5307POPC   GL268606   8.606   6.873   5.858
 5307POPC   C1A68607   8.099   6.540   6.295
 5307POPC   D2A68608   8.246   6.302   6.633
 5307POPC   C3A68609   8.211   6.505   7.043
 5307POPC   C4A68610   8.024   6.853   7.247
 5307POPC   C1B68611   8.516   6.826   6.298
 5307POPC   C2B68612   8.255   6.871   6.679
 5307POPC   C3B68613   8.492   6.970   7.060
 5307POPC   C4B68614   8.491   6.761   7.453
 5308POPC   NC368615   6.140  40.061   5.437
 5308POPC   PO468616   5.620  39.591   5.297
 5308POPC   GL168617   5.849  39.697   5.672
 5308POPC   GL268618   6.186  39.631   5.782
 5308POPC   C1A68619   5.783  39.938   6.070
 5308POPC   D2A68620   5.956  40.114   6.481
 5308POPC   C3A68621   5.794  40.021   6.908
 5308POPC   C4A68622   5.899  40.100   7.327
 5308POPC   C1B68623   6.176  39.673   6.254
 5308POPC   C2B68624   6.165  39.709   6.713
 5308POPC   C3B68625   6.168  39.702   7.170
 5308POPC   C4B68626   6.151  39.765   7.630
 5309POPC   NC368627  24.110   4.939   5.326
 5309POPC   PO468628  24.544   5.379   5.547
 5309POPC   GL168629  24.398   5.253   5.989
 5309POPC   GL268630  24.134   5.019   5.856
 5309POPC   C1A68631  24.686   5.072   6.332
 5309POPC   D2A68632  24.786   5.150   6.766
 5309POPC   C3A68633  24.527   5.382   7.068
 5309POPC   C4A68634  24.540   5.329   7.540
 5309POPC   C1B68635  24.264   4.798   6.248
 5309POPC   C2B68636  24.384   4.808   6.689
 5309POPC   C3B68637  24.253   4.651   7.065
 5309POPC   C4B68638  24.207   4.896   7.449
 5310POPC   NC368639  18.046  24.658   5.533
 5310POPC   PO468640  18.466  24.300   5.150
 5310POPC   GL168641  18.537  24.474   5.578
 5310POPC   GL268642  18.341  24.215   5.682
 5310POPC   C1A68643  18.509  24.654   6.038
 5310POPC   D2A68644  18.203  24.617   6.395
 5310POPC   C3A68645  18.272  24.705   6.833
 5310POPC   C4A68646  17.992  24.702   7.168
 5310POPC   C1B68647  18.391  24.156   6.105
 5310POPC   C2B68648  18.522  24.053   6.501
 5310POPC   C3B68649  18.342  24.120   6.898
 5310POPC   C4B68650  18.460  24.387   7.199
 5311POPC   NC368651   6.376  42.125   5.415
 5311POPC   PO468652   6.307  42.823   5.467
 5311POPC   GL168653   6.587  42.643   5.825
 5311POPC   GL268654   6.655  42.250   5.863
 5311POPC   C1A68655   6.486  42.534   6.266
 5311POPC   D2A68656   6.630  42.180   6.510
 5311POPC   C3A68657   6.465  42.121   6.840
 5311POPC   C4A68658   6.460  42.367   7.159
 5311POPC   C1B68659   6.971  42.371   6.215
 5311POPC   C2B68660   7.094  42.441   6.629
 5311POPC   C3B68661   6.927  42.260   6.998
 5311POPC   C4B68662   6.713  41.940   7.248
 5312POPC   NC368663   2.683  14.143   5.172
 5312POPC   PO468664   3.227  14.436   5.359
 5312POPC   GL168665   2.971  14.178   5.657
 5312POPC   GL268666   2.614  14.177   5.793
 5312POPC   C1A68667   3.045  14.080   6.100
 5312POPC   D2A68668   2.958  13.936   6.523
 5312POPC   C3A68669   3.072  14.172   6.887
 5312POPC   C4A68670   3.046  14.210   7.326
 5312POPC   C1B68671   2.556  14.312   6.245
 5312POPC   C2B68672   2.613  14.341   6.705
 5312POPC   C3B68673   2.582  14.332   7.148
 5312POPC   C4B68674   2.488  14.663   7.457
 5313POPC   NC368675  14.542  11.769   5.395
 5313POPC   PO468676  14.175  12.385   5.392
 5313POPC   GL168677  14.101  12.089   5.771
 5313POPC   GL268678  14.316  11.838   5.846
 5313POPC   C1A68679  14.007  12.107   6.216
 5313POPC   D2A68680  14.227  11.988   6.590
 5313POPC   C3A68681  14.224  12.184   6.988
 5313POPC   C4A68682  14.502  12.235   7.315
 5313POPC   C1B68683  14.490  12.134   6.122
 5313POPC   C2B68684  14.740  12.044   6.463
 5313POPC   C3B68685  14.722  12.071   6.884
 5313POPC   C4B68686  15.021  12.184   7.204
 5314POPC   NC368687  13.485  40.425   5.526
 5314POPC   PO468688  13.362  41.069   5.532
 5314POPC   GL168689  13.627  40.889   5.856
 5314POPC   GL268690  13.776  40.572   5.942
 5314POPC   C1A68691  13.517  40.948   6.275
 5314POPC   D2A68692  13.353  40.751   6.642
 5314POPC   C3A68693  13.591  40.732   7.011
 5314POPC   C4A68694  13.675  40.900   7.432
 5314POPC   C1B68695  13.791  40.529   6.404
 5314POPC   C2B68696  13.978  40.451   6.795
 5314POPC   C3B68697  13.959  40.457   7.218
 5314POPC   C4B68698  13.525  40.387   7.389
 5315POPC   NC368699  35.422  15.218   5.166
 5315POPC   PO468700  34.946  15.010   5.491
 5315POPC   GL168701  35.250  15.189   5.766
 5315POPC   GL268702  35.391  15.502   5.724
 5315POPC   C1A68703  35.316  15.072   6.177
 5315POPC   D2A68704  35.216  14.795   6.477
 5315POPC   C3A68705  35.336  14.979   6.830
 5315POPC   C4A68706  35.228  14.955   7.221
 5315POPC   C1B68707  35.241  15.573   6.155
 5315POPC   C2B68708  35.437  15.428   6.563
 5315POPC   C3B68709  35.503  15.414   7.023
 5315POPC   C4B68710  35.328  15.419   7.403
 5316POPC   NC368711  39.241  34.982   5.043
 5316POPC   PO468712  39.208  34.395   5.309
 5316POPC   GL168713  39.170  34.452   5.758
 5316POPC   GL268714  39.409  34.190   5.761
 5316POPC   C1A68715  39.215  34.752   6.119
 5316POPC   D2A68716  39.491  35.029   6.358
 5316POPC   C3A68717  39.450  34.969   6.813
 5316POPC   C4A68718  39.220  34.816   7.167
 5316POPC   C1B68719  39.552  34.392   6.121
 5316POPC   C2B68720  39.581  34.546   6.520
 5316POPC   C3B68721  39.483  34.431   6.950
 5316POPC   C4B68722  39.540  34.488   7.409
 5317POPC   NC368723  13.812  27.328   5.496
 5317POPC   PO468724  13.466  27.911   5.518
 5317POPC   GL168725  13.555  27.634   5.823
 5317POPC   GL268726  13.902  27.754   5.809
 5317POPC   C1A68727  13.726  27.473   6.222
 5317POPC   D2A68728  13.806  27.629   6.653
 5317POPC   C3A68729  13.613  27.388   6.983
 5317POPC   C4A68730  13.786  27.204   7.336
 5317POPC   C1B68731  13.713  27.993   6.158
 5317POPC   C2B68732  13.607  28.090   6.575
 5317POPC   C3B68733  13.381  27.870   6.893
 5317POPC   C4B68734  13.506  27.796   7.306
 5318POPC   NC368735  15.567  13.914   5.526
 5318POPC   PO468736  14.933  13.676   5.414
 5318POPC   GL168737  15.163  13.787   5.796
 5318POPC   GL268738  14.995  13.598   6.008
 5318POPC   C1A68739  15.427  13.873   6.169
 5318POPC   D2A68740  15.232  13.801   6.553
 5318POPC   C3A68741  15.411  13.831   6.956
 5318POPC   C4A68742  15.221  13.629   7.309
 5318POPC   C1B68743  14.803  13.379   6.329
 5318POPC   C2B68744  14.873  13.446   6.745
 5318POPC   C3B68745  14.948  13.252   7.120
 5318POPC   C4B68746  14.866  13.320   7.562
 5319POPC   NC368747  29.923  15.205   5.432
 5319POPC   PO468748  30.450  14.701   5.527
 5319POPC   GL168749  30.241  15.029   5.813
 5319POPC   GL268750  30.260  15.417   5.775
 5319POPC   C1A68751  29.879  15.193   6.069
 5319POPC   D2A68752  29.704  15.246   6.458
 5319POPC   C3A68753  29.823  14.954   6.780
 5319POPC   C4A68754  29.854  15.124   7.199
 5319POPC   C1B68755  30.346  15.335   6.223
 5319POPC   C2B68756  30.244  15.248   6.679
 5319POPC   C3B68757  30.371  15.291   7.112
 5319POPC   C4B68758  30.373  15.020   7.450
 5320POPC   NC368759  36.650  38.077   5.514
 5320POPC   PO468760  36.371  38.653   5.217
 5320POPC   GL168761  36.325  38.489   5.683
 5320POPC   GL268762  36.418  38.198   5.922
 5320POPC   C1A68763  36.111  38.536   6.110
 5320POPC   D2A68764  36.212  38.444   6.539
 5320POPC   C3A68765  36.024  38.685   6.911
 5320POPC   C4A68766  35.835  38.642   7.325
 5320POPC   C1B68767  36.199  37.951   6.220
 5320POPC   C2B68768  36.193  37.934   6.649
 5320POPC   C3B68769  36.054  38.180   6.953
 5320POPC   C4B68770  36.244  38.334   7.323
 5321POPC   NC368771  19.503  36.451   5.240
 5321POPC   PO468772  18.830  36.206   5.426
 5321POPC   GL168773  18.936  36.048   5.916
 5321POPC   GL268774  19.252  35.818   5.985
 5321POPC   C1A68775  19.071  36.097   6.373
 5321POPC   D2A68776  19.227  36.166   6.788
 5321POPC   C3A68777  19.046  36.234   7.167
 5321POPC   C4A68778  19.114  36.368   7.588
 5321POPC   C1B68779  19.398  35.553   6.353
 5321POPC   C2B68780  19.578  35.717   6.723
 5321POPC   C3B68781  19.497  35.903   7.123
 5321POPC   C4B68782  19.248  35.876   7.462
 5322POPC   NC368783  27.244  13.614   5.508
 5322POPC   PO468784  26.614  13.850   5.402
 5322POPC   GL168785  26.681  13.832   5.805
 5322POPC   GL268786  26.411  14.043   5.901
 5322POPC   C1A68787  26.772  13.630   6.197
 5322POPC   D2A68788  26.849  13.321   6.519
 5322POPC   C3A68789  26.867  13.410   6.966
 5322POPC   C4A68790  26.963  13.567   7.394
 5322POPC   C1B68791  26.335  13.939   6.343
 5322POPC   C2B68792  26.476  13.780   6.755
 5322POPC   C3B68793  26.791  13.917   7.052
 5322POPC   C4B68794  26.822  14.033   7.474
 5323POPC   NC368795  24.019  18.124   5.532
 5323POPC   PO468796  24.606  18.360   5.579
 5323POPC   GL168797  24.525  17.996   5.794
 5323POPC   GL268798  24.191  18.068   6.002
 5323POPC   C1A68799  24.635  17.953   6.199
 5323POPC   D2A68800  24.353  18.120   6.511
 5323POPC   C3A68801  24.409  18.142   6.938
 5323POPC   C4A68802  24.734  18.102   7.234
 5323POPC   C1B68803  24.069  18.455   6.263
 5323POPC   C2B68804  24.323  18.618   6.641
 5323POPC   C3B68805  24.413  18.655   7.099
 5323POPC   C4B68806  24.251  18.587   7.555
 5324POPC   NC368807  32.829  14.202   5.620
 5324POPC   PO468808  32.925  13.637   5.315
 5324POPC   GL168809  33.034  13.437   5.726
 5324POPC   GL268810  33.096  13.783   5.821
 5324POPC   C1A68811  33.167  13.411   6.176
 5324POPC   D2A68812  32.971  13.588   6.567
 5324POPC   C3A68813  33.020  13.427   7.012
 5324POPC   C4A68814  33.071  13.653   7.460
 5324POPC   C1B68815  32.962  13.991   6.216
 5324POPC   C2B68816  33.157  14.145   6.579
 5324POPC   C3B68817  33.091  14.015   7.012
 5324POPC   C4B68818  33.016  14.161   7.429
 5325POPC   NC368819   5.396  17.159   5.625
 5325POPC   PO468820   5.012  16.682   5.383
 5325POPC   GL168821   5.015  16.866   5.738
 5325POPC   GL268822   5.339  16.666   5.785
 5325POPC   C1A68823   5.131  16.980   6.183
 5325POPC   D2A68824   5.041  17.081   6.597
 5325POPC   C3A68825   5.269  17.047   6.967
 5325POPC   C4A68826   5.018  16.923   7.316
 5325POPC   C1B68827   5.059  16.474   6.067
 5325POPC   C2B68828   4.958  16.560   6.471
 5325POPC   C3B68829   4.958  16.636   6.897
 5325POPC   C4B68830   4.931  16.414   7.298
 5326POPC   NC368831  24.647  29.164   5.242
 5326POPC   PO468832  24.058  29.045   5.517
 5326POPC   GL168833  24.355  29.159   5.823
 5326POPC   GL268834  24.606  29.390   5.996
 5326POPC   C1A68835  24.307  29.061   6.243
 5326POPC   D2A68836  24.618  29.194   6.520
 5326POPC   C3A68837  24.401  29.270   6.885
 5326POPC   C4A68838  24.541  29.232   7.272
 5326POPC   C1B68839  24.772  28.946   6.067
 5326POPC   C2B68840  24.953  28.808   6.484
 5326POPC   C3B68841  24.792  28.883   6.938
 5326POPC   C4B68842  24.800  28.823   7.439
 5327POPC   NC368843  19.823   3.463   5.381
 5327POPC   PO468844  20.069   3.884   5.805
 5327POPC   GL168845  19.831   3.539   5.935
 5327POPC   GL268846  19.946   3.216   5.841
 5327POPC   C1A68847  19.801   3.476   6.390
 5327POPC   D2A68848  19.695   3.694   6.785
 5327POPC   C3A68849  19.989   3.707   7.123
 5327POPC   C4A68850  20.077   3.989   7.441
 5327POPC   C1B68851  19.724   3.005   6.193
 5327POPC   C2B68852  19.621   3.025   6.641
 5327POPC   C3B68853  19.655   3.229   7.041
 5327POPC   C4B68854  20.089   3.206   7.193
 5328POPC   NC368855  14.933  16.515   5.105
 5328POPC   PO468856  15.509  16.124   5.314
 5328POPC   GL168857  15.402  16.025   5.716
 5328POPC   GL268858  15.210  16.288   5.782
 5328POPC   C1A68859  15.223  15.860   6.099
 5328POPC   D2A68860  15.174  15.557   6.408
 5328POPC   C3A68861  14.962  15.775   6.730
 5328POPC   C4A68862  15.155  15.957   7.058
 5328POPC   C1B68863  15.517  16.277   6.149
 5328POPC   C2B68864  15.412  16.105   6.568
 5328POPC   C3B68865  15.406  16.365   6.943
 5328POPC   C4B68866  15.458  16.219   7.367
 5329POPC   NC368867  35.957  29.020   5.086
 5329POPC   PO468868  36.277  29.409   5.507
 5329POPC   GL168869  36.350  29.251   5.865
 5329POPC   GL268870  36.248  28.911   5.781
 5329POPC   C1A68871  36.282  29.422   6.266
 5329POPC   D2A68872  36.465  29.304   6.666
 5329POPC   C3A68873  36.224  29.418   7.027
 5329POPC   C4A68874  36.174  29.289   7.444
 5329POPC   C1B68875  36.044  28.960   6.187
 5329POPC   C2B68876  35.992  29.096   6.599
 5329POPC   C3B68877  36.190  28.899   6.919
 5329POPC   C4B68878  35.996  28.730   7.261
 5330POPC   NC368879   7.873  40.687   5.458
 5330POPC   PO468880   8.555  40.742   5.462
 5330POPC   GL168881   8.300  40.590   5.793
 5330POPC   GL268882   8.098  40.845   5.912
 5330POPC   C1A68883   8.341  40.497   6.223
 5330POPC   D2A68884   8.257  40.835   6.500
 5330POPC   C3A68885   8.265  40.756   6.903
 5330POPC   C4A68886   8.068  40.703   7.270
 5330POPC   C1B68887   8.547  40.949   6.084
 5330POPC   C2B68888   8.743  41.051   6.508
 5330POPC   C3B68889   8.563  41.161   6.924
 5330POPC   C4B68890   8.521  40.917   7.316
 5331POPC   NC368891  34.830  14.586   5.325
 5331POPC   PO468892  34.341  14.130   5.408
 5331POPC   GL168893  34.445  14.421   5.681
 5331POPC   GL268894  34.751  14.262   5.731
 5331POPC   C1A68895  34.367  14.293   6.099
 5331POPC   D2A68896  34.210  14.366   6.491
 5331POPC   C3A68897  34.524  14.237   6.806
 5331POPC   C4A68898  34.434  14.448   7.173
 5331POPC   C1B68899  34.825  14.529   6.077
 5331POPC   C2B68900  34.656  14.644   6.491
 5331POPC   C3B68901  34.835  14.824   6.843
 5331POPC   C4B68902  34.907  14.588   7.188
 5332POPC   NC368903  34.846  25.427   5.590
 5332POPC   PO468904  35.197  24.921   5.671
 5332POPC   GL168905  35.500  25.177   5.868
 5332POPC   GL268906  35.594  25.497   5.761
 5332POPC   C1A68907  35.599  25.288   6.277
 5332POPC   D2A68908  35.513  24.974   6.588
 5332POPC   C3A68909  35.299  25.038   6.984
 5332POPC   C4A68910  35.356  25.378   7.235
 5332POPC   C1B68911  35.302  25.738   6.055
 5332POPC   C2B68912  35.136  25.899   6.464
 5332POPC   C3B68913  35.309  25.795   6.887
 5332POPC   C4B68914  35.481  25.859   7.300
 5333POPC   NC368915   4.676  15.408   5.309
 5333POPC   PO468916   4.226  14.906   5.260
 5333POPC   GL168917   4.469  15.051   5.625
 5333POPC   GL268918   4.640  14.821   5.839
 5333POPC   C1A68919   4.498  15.334   5.998
 5333POPC   D2A68920   4.366  15.323   6.440
 5333POPC   C3A68921   4.248  15.669   6.741
 5333POPC   C4A68922   4.203  15.610   7.197
 5333POPC   C1B68923   4.769  14.987   6.270
 5333POPC   C2B68924   4.709  15.102   6.725
 5333POPC   C3B68925   4.595  15.244   7.138
 5333POPC   C4B68926   4.761  15.116   7.558
 5334POPC   NC368927  19.992  30.410   5.596
 5334POPC   PO468928  19.764  31.036   5.459
 5334POPC   GL168929  19.941  30.936   5.828
 5334POPC   GL268930  19.702  31.179   5.966
 5334POPC   C1A68931  20.099  30.733   6.200
 5334POPC   D2A68932  19.920  30.597   6.588
 5334POPC   C3A68933  20.150  30.733   6.938
 5334POPC   C4A68934  20.025  30.502   7.268
 5334POPC   C1B68935  19.614  30.909   6.279
 5334POPC   C2B68936  19.558  30.960   6.696
 5334POPC   C3B68937  19.635  30.768   7.048
 5334POPC   C4B68938  19.906  30.998   7.331
 5335POPC   NC368939   5.803  33.649   5.451
 5335POPC   PO468940   5.896  34.308   5.211
 5335POPC   GL168941   5.916  34.100   5.662
 5335POPC   GL268942   5.585  33.965   5.788
 5335POPC   C1A68943   5.947  33.924   6.125
 5335POPC   D2A68944   5.810  33.799   6.568
 5335POPC   C3A68945   6.009  33.814   7.026
 5335POPC   C4A68946   5.662  33.821   7.352
 5335POPC   C1B68947   5.569  33.560   6.105
 5335POPC   C2B68948   5.430  33.442   6.560
 5335POPC   C3B68949   5.636  33.486   6.956
 5335POPC   C4B68950   5.959  33.274   7.171
 5336POPC   NC368951  16.035  26.377   5.395
 5336POPC   PO468952  15.892  27.081   5.368
 5336POPC   GL168953  16.017  26.816   5.698
 5336POPC   GL268954  15.698  26.621   5.735
 5336POPC   C1A68955  16.155  26.879   6.149
 5336POPC   D2A68956  15.973  26.887   6.582
 5336POPC   C3A68957  16.147  26.613   6.909
 5336POPC   C4A68958  16.125  26.752   7.328
 5336POPC   C1B68959  15.734  26.576   6.199
 5336POPC   C2B68960  15.585  26.506   6.644
 5336POPC   C3B68961  15.730  26.392   7.094
 5336POPC   C4B68962  15.685  26.624   7.509
 5337POPC   NC368963  31.449  18.690   5.668
 5337POPC   PO468964  31.666  19.149   5.234
 5337POPC   GL168965  31.249  19.153   5.669
 5337POPC   GL268966  31.299  19.462   5.830
 5337POPC   C1A68967  31.277  19.125   6.195
 5337POPC   D2A68968  31.549  19.307   6.544
 5337POPC   C3A68969  31.581  19.018   6.911
 5337POPC   C4A68970  31.308  18.640   6.995
 5337POPC   C1B68971  31.188  19.632   6.241
 5337POPC   C2B68972  31.081  19.560   6.672
 5337POPC   C3B68973  31.254  19.387   7.047
 5337POPC   C4B68974  31.476  19.299   7.456
 5338POPC   NC368975  21.158  28.285   5.264
 5338POPC   PO468976  21.743  28.233   5.584
 5338POPC   GL168977  21.325  28.254   5.757
 5338POPC   GL268978  21.200  27.946   5.653
 5338POPC   C1A68979  21.269  28.434   6.164
 5338POPC   D2A68980  21.601  28.340   6.475
 5338POPC   C3A68981  21.665  28.607   6.815
 5338POPC   C4A68982  21.438  28.546   7.188
 5338POPC   C1B68983  21.130  27.908   6.104
 5338POPC   C2B68984  21.057  28.129   6.510
 5338POPC   C3B68985  21.305  28.163   6.875
 5338POPC   C4B68986  21.292  28.044   7.305
 5339POPC   NC368987  32.039  42.591   5.337
 5339POPC   PO468988  32.505  42.137   5.460
 5339POPC   GL168989  32.359  42.347   5.791
 5339POPC   GL268990  32.052  42.230   5.751
 5339POPC   C1A68991  32.426  42.263   6.238
 5339POPC   D2A68992  32.304  42.482   6.619
 5339POPC   C3A68993  32.341  42.365   7.052
 5339POPC   C4A68994  32.311  42.075   7.396
 5339POPC   C1B68995  31.880  42.328   6.161
 5339POPC   C2B68996  31.857  42.671   6.472
 5339POPC   C3B68997  31.891  42.597   6.909
 5339POPC   C4B68998  32.006  42.753   7.311
 5340POPC   NC368999  15.698  16.558   5.224
 5340POPC   PO469000  15.977  17.133   5.430
 5340POPC   GL169001  16.084  16.931   5.842
 5340POPC   GL269002  16.163  16.595   5.797
 5340POPC   C1A69003  16.233  16.843   6.267
 5340POPC   D2A69004  16.261  16.681   6.674
 5340POPC   C3A69005  16.114  16.938   7.016
 5340POPC   C4A69006  15.790  17.155   7.252
 5340POPC   C1B69007  16.035  16.396   6.167
 5340POPC   C2B69008  15.807  16.426   6.564
 5340POPC   C3B69009  15.898  16.466   6.980
 5340POPC   C4B69010  16.190  16.312   7.220
 5341POPC   NC369011  14.682  26.989   5.456
 5341POPC   PO469012  14.559  26.331   5.346
 5341POPC   GL169013  14.622  26.541   5.723
 5341POPC   GL269014  14.316  26.776   5.797
 5341POPC   C1A69015  14.734  26.717   6.108
 5341POPC   D2A69016  14.419  26.839   6.413
 5341POPC   C3A69017  14.382  26.680   6.837
 5341POPC   C4A69018  14.694  26.792   7.139
 5341POPC   C1B69019  14.058  27.055   6.110
 5341POPC   C2B69020  14.160  27.286   6.499
 5341POPC   C3B69021  14.315  27.175   6.904
 5341POPC   C4B69022  14.221  26.944   7.279
 5342POPC   NC369023  38.926  10.699   5.322
 5342POPC   PO469024  38.491  10.126   5.312
 5342POPC   GL169025  38.410  10.385   5.782
 5342POPC   GL269026  38.220  10.710   5.801
 5342POPC   C1A69027  38.510  10.542   6.216
 5342POPC   D2A69028  38.616  10.446   6.638
 5342POPC   C3A69029  38.444  10.596   7.018
 5342POPC   C4A69030  38.386  10.342   7.436
 5342POPC   C1B69031  38.057  10.762   6.202
 5342POPC   C2B69032  38.284  10.870   6.579
 5342POPC   C3B69033  38.074  10.956   6.937
 5342POPC   C4B69034  38.041  10.701   7.304
 5343POPC   NC369035  40.139  41.452   5.355
 5343POPC   PO469036  39.829  42.021   5.258
 5343POPC   GL169037  39.964  41.792   5.700
 5343POPC   GL269038  39.806  41.451   5.776
 5343POPC   C1A69039  39.870  41.767   6.171
 5343POPC   D2A69040  39.735  42.014   6.523
 5343POPC   C3A69041  39.688  41.843   6.918
 5343POPC   C4A69042  39.891  41.590   7.192
 5343POPC   C1B69043  40.136  41.336   6.066
 5343POPC   C2B69044  40.166  41.205   6.493
 5343POPC   C3B69045  40.189  41.278   6.910
 5343POPC   C4B69046  40.276  41.280   7.315
 5344POPC   NC369047  33.497  28.215   5.570
 5344POPC   PO469048  34.015  28.527   5.340
 5344POPC   GL169049  34.022  28.319   5.785
 5344POPC   GL269050  33.842  28.007   5.911
 5344POPC   C1A69051  33.981  28.355   6.259
 5344POPC   D2A69052  33.825  28.625   6.583
 5344POPC   C3A69053  33.805  28.458   6.997
 5344POPC   C4A69054  34.198  28.514   7.198
 5344POPC   C1B69055  33.503  28.092   6.212
 5344POPC   C2B69056  33.554  28.195   6.617
 5344POPC   C3B69057  33.314  28.188   6.992
 5344POPC   C4B69058  33.612  28.017   7.242
 5345POPC   NC369059  23.320  18.747   5.205
 5345POPC   PO469060  23.679  19.242   4.954
 5345POPC   GL169061  23.637  19.094   5.479
 5345POPC   GL269062  23.404  18.841   5.709
 5345POPC   C1A69063  23.828  18.982   5.949
 5345POPC   D2A69064  23.930  19.031   6.430
 5345POPC   C3A69065  23.886  18.795   6.827
 5345POPC   C4A69066  23.977  18.892   7.269
 5345POPC   C1B69067  23.384  18.908   6.197
 5345POPC   C2B69068  23.463  19.206   6.575
 5345POPC   C3B69069  23.642  19.213   7.000
 5345POPC   C4B69070  23.481  18.880   7.156
 5346POPC   NC369071  23.309   2.041   5.276
 5346POPC   PO469072  23.878   1.653   5.341
 5346POPC   GL169073  23.770   1.984   5.707
 5346POPC   GL269074  23.420   2.126   5.784
 5346POPC   C1A69075  23.848   2.188   6.117
 5346POPC   D2A69076  23.698   2.106   6.547
 5346POPC   C3A69077  24.004   2.084   6.838
 5346POPC   C4A69078  23.895   2.004   7.241
 5346POPC   C1B69079  23.334   2.071   6.195
 5346POPC   C2B69080  23.184   2.160   6.609
 5346POPC   C3B69081  23.314   2.107   7.027
 5346POPC   C4B69082  23.153   2.482   7.235
 5347POPC   NC369083  30.976  26.259   5.508
 5347POPC   PO469084  30.386  25.948   5.442
 5347POPC   GL169085  30.435  26.123   5.837
 5347POPC   GL269086  30.773  26.034   5.913
 5347POPC   C1A69087  30.380  25.914   6.242
 5347POPC   D2A69088  30.614  25.893   6.613
 5347POPC   C3A69089  30.409  25.952   7.002
 5347POPC   C4A69090  30.285  25.895   7.433
 5347POPC   C1B69091  31.079  26.071   6.242
 5347POPC   C2B69092  31.118  25.867   6.596
 5347POPC   C3B69093  31.015  26.083   6.926
 5347POPC   C4B69094  30.816  26.057   7.285
 5348POPC   NC369095  16.400   7.172   5.414
 5348POPC   PO469096  15.731   7.247   5.313
 5348POPC   GL169097  15.691   7.384   5.744
 5348POPC   GL269098  16.063   7.395   5.740
 5348POPC   C1A69099  15.745   7.535   6.200
 5348POPC   D2A69100  15.645   7.536   6.677
 5348POPC   C3A69101  15.948   7.678   6.978
 5348POPC   C4A69102  16.130   7.454   7.358
 5348POPC   C1B69103  16.084   7.135   6.083
 5348POPC   C2B69104  15.985   7.173   6.525
 5348POPC   C3B69105  15.945   7.169   6.965
 5348POPC   C4B69106  16.138   6.946   7.309
 5349POPC   NC369107   6.221   6.485   5.440
 5349POPC   PO469108   5.672   6.864   5.480
 5349POPC   GL169109   5.834   6.697   5.846
 5349POPC   GL269110   5.833   6.364   5.771
 5349POPC   C1A69111   6.047   6.591   6.253
 5349POPC   D2A69112   6.192   6.876   6.605
 5349POPC   C3A69113   6.051   6.776   7.012
 5349POPC   C4A69114   6.191   6.586   7.403
 5349POPC   C1B69115   5.567   6.381   6.141
 5349POPC   C2B69116   5.571   6.660   6.477
 5349POPC   C3B69117   5.566   6.604   6.913
 5349POPC   C4B69118   5.578   6.193   7.071
 5350POPC   NC369119  26.927  39.143   5.453
 5350POPC   PO469120  26.683  39.626   5.169
 5350POPC   GL169121  26.841  39.610   5.638
 5350POPC   GL269122  26.580  39.370   5.778
 5350POPC   C1A69123  27.051  39.436   6.038
 5350POPC   D2A69124  26.953  39.185   6.423
 5350POPC   C3A69125  27.056  39.320   6.848
 5350POPC   C4A69126  27.041  39.090   7.216
 5350POPC   C1B69127  26.578  39.561   6.206
 5350POPC   C2B69128  26.623  39.558   6.668
 5350POPC   C3B69129  26.576  39.313   7.058
 5350POPC   C4B69130  26.474  39.368   7.555
 5351POPC   NC369131  44.009  23.692   5.261
 5351POPC   PO469132  43.395  23.920   5.444
 5351POPC   GL169133  43.618  23.603   5.703
 5351POPC   GL269134  43.932  23.790   5.742
 5351POPC   C1A69135  43.801  23.491   6.125
 5351POPC   D2A69136  43.891  23.715   6.500
 5351POPC   C3A69137  44.176  23.605   6.847
 5351POPC   C4A69138  44.066  23.474   7.256
 5351POPC   C1B69139  43.775  24.081   6.039
 5351POPC   C2B69140  43.805  24.256   6.452
 5351POPC   C3B69141  43.723  24.052   6.831
 5351POPC   C4B69142  43.974  23.967   7.183
 5352POPC   NC369143  17.654  10.428   5.221
 5352POPC   PO469144  17.092  10.790   5.185
 5352POPC   GL169145  17.310  10.607   5.571
 5352POPC   GL269146  17.366  10.228   5.617
 5352POPC   C1A69147  17.547  10.564   5.984
 5352POPC   D2A69148  17.585  10.442   6.453
 5352POPC   C3A69149  17.427  10.616   6.889
 5352POPC   C4A69150  17.656  10.741   7.289
 5352POPC   C1B69151  17.332  10.108   6.096
 5352POPC   C2B69152  17.262  10.069   6.568
 5352POPC   C3B69153  17.454  10.108   6.996
 5352POPC   C4B69154  17.402  10.236   7.450
 5353POPC   NC369155  37.044  11.680   5.363
 5353POPC   PO469156  36.998  11.017   5.266
 5353POPC   GL169157  36.937  11.257   5.660
 5353POPC   GL269158  36.606  11.270   5.777
 5353POPC   C1A69159  37.013  11.369   6.106
 5353POPC   D2A69160  36.959  11.507   6.534
 5353POPC   C3A69161  37.199  11.420   6.883
 5353POPC   C4A69162  37.154  11.451   7.287
 5353POPC   C1B69163  36.509  11.460   6.164
 5353POPC   C2B69164  36.541  11.225   6.543
 5353POPC   C3B69165  36.750  11.191   6.930
 5353POPC   C4B69166  36.643  11.330   7.325
 5354POPC   NC369167  43.765   0.898   5.504
 5354POPC   PO469168  43.915   1.556   5.316
 5354POPC   GL169169  43.775   1.440   5.723
 5354POPC   GL269170  44.085   1.261   5.799
 5354POPC   C1A69171  43.590   1.322   6.145
 5354POPC   D2A69172  43.716   1.079   6.518
 5354POPC   C3A69173  43.761   1.300   6.909
 5354POPC   C4A69174  43.671   1.115   7.299
 5354POPC   C1B69175  44.016   0.926   6.120
 5354POPC   C2B69176  44.134   0.753   6.526
 5354POPC   C3B69177  44.037   0.880   6.963
 5354POPC   C4B69178  44.318   1.165   7.171
 5355POPC   NC369179  11.287   5.552   5.452
 5355POPC   PO469180  10.977   6.115   5.234
 5355POPC   GL169181  11.283   5.995   5.689
 5355POPC   GL269182  11.633   6.162   5.749
 5355POPC   C1A69183  11.233   5.803   6.135
 5355POPC   D2A69184  11.445   5.796   6.545
 5355POPC   C3A69185  11.185   5.636   6.897
 5355POPC   C4A69186  11.153   5.677   7.363
 5355POPC   C1B69187  11.438   6.288   6.109
 5355POPC   C2B69188  11.351   6.320   6.554
 5355POPC   C3B69189  11.376   6.112   6.967
 5355POPC   C4B69190  11.187   6.183   7.353
 5356POPC   NC369191  22.368  14.847   5.656
 5356POPC   PO469192  22.661  15.381   5.650
 5356POPC   GL169193  22.283  15.410   5.911
 5356POPC   GL269194  21.931  15.418   5.749
 5356POPC   C1A69195  22.228  15.116   6.249
 5356POPC   D2A69196  22.209  14.838   6.599
 5356POPC   C3A69197  22.276  15.095   6.965
 5356POPC   C4A69198  22.508  14.955   7.312
 5356POPC   C1B69199  21.768  15.311   6.172
 5356POPC   C2B69200  21.852  15.224   6.599
 5356POPC   C3B69201  21.803  15.318   7.015
 5356POPC   C4B69202  21.881  15.140   7.387
 5357POPC   NC369203  22.731  17.124   5.431
 5357POPC   PO469204  23.292  16.718   5.393
 5357POPC   GL169205  23.041  16.606   5.743
 5357POPC   GL269206  22.756  16.406   5.618
 5357POPC   C1A69207  22.873  16.834   6.113
 5357POPC   D2A69208  22.927  16.928   6.556
 5357POPC   C3A69209  23.167  16.851   6.941
 5357POPC   C4A69210  23.091  16.768   7.387
 5357POPC   C1B69211  22.623  16.359   6.061
 5357POPC   C2B69212  22.668  16.500   6.502
 5357POPC   C3B69213  22.710  16.620   6.935
 5357POPC   C4B69214  22.629  16.320   7.267
 5358POPC   NC369215  25.360  27.024   5.327
 5358POPC   PO469216  24.921  26.468   5.445
 5358POPC   GL169217  25.246  26.662   5.775
 5358POPC   GL269218  25.294  27.037   5.820
 5358POPC   C1A69219  25.340  26.759   6.249
 5358POPC   D2A69220  25.145  26.928   6.648
 5358POPC   C3A69221  25.237  26.756   7.047
 5358POPC   C4A69222  25.190  26.784   7.489
 5358POPC   C1B69223  25.511  27.242   6.156
 5358POPC   C2B69224  25.537  27.244   6.602
 5358POPC   C3B69225  25.523  27.185   7.052
 5358POPC   C4B69226  25.364  27.257   7.452
 5359POPC   NC369227  17.616  41.643   5.296
 5359POPC   PO469228  16.995  41.468   5.360
 5359POPC   GL169229  17.296  41.354   5.728
 5359POPC   GL269230  17.592  41.560   5.784
 5359POPC   C1A69231  17.275  41.507   6.188
 5359POPC   D2A69232  17.385  41.405   6.626
 5359POPC   C3A69233  17.142  41.556   6.966
 5359POPC   C4A69234  17.082  41.499   7.383
 5359POPC   C1B69235  17.893  41.451   6.072
 5359POPC   C2B69236  17.876  41.339   6.476
 5359POPC   C3B69237  17.869  41.523   6.865
 5359POPC   C4B69238  17.585  41.461   7.228
 5360POPC   NC369239  13.328   8.268   5.204
 5360POPC   PO469240  13.961   8.077   5.454
 5360POPC   GL169241  13.529   8.116   5.664
 5360POPC   GL269242  13.561   8.435   5.715
 5360POPC   C1A69243  13.322   8.068   6.087
 5360POPC   D2A69244  13.640   7.885   6.367
 5360POPC   C3A69245  13.681   7.884   6.808
 5360POPC   C4A69246  13.737   7.911   7.240
 5360POPC   C1B69247  13.660   8.460   6.167
 5360POPC   C2B69248  13.437   8.357   6.566
 5360POPC   C3B69249  13.325   8.210   6.992
 5360POPC   C4B69250  13.428   8.325   7.441
 5361POPC   NC369251   7.424  28.490   5.517
 5361POPC   PO469252   7.425  29.086   5.181
 5361POPC   GL169253   7.471  29.086   5.678
 5361POPC   GL269254   7.174  29.152   5.931
 5361POPC   C1A69255   7.638  29.061   6.117
 5361POPC   D2A69256   7.458  28.948   6.536
 5361POPC   C3A69257   7.516  29.274   6.824
 5361POPC   C4A69258   7.739  29.341   7.210
 5361POPC   C1B69259   7.149  29.334   6.385
 5361POPC   C2B69260   7.039  29.451   6.831
 5361POPC   C3B69261   7.208  29.388   7.221
 5361POPC   C4B69262   7.351  29.157   7.526
 5362POPC   NC369263  29.940  38.693   4.951
 5362POPC   PO469264  29.882  39.281   5.316
 5362POPC   GL169265  29.761  39.199   5.740
 5362POPC   GL269266  29.550  38.908   5.754
 5362POPC   C1A69267  29.916  39.333   6.144
 5362POPC   D2A69268  29.985  39.549   6.535
 5362POPC   C3A69269  30.139  39.318   6.893
 5362POPC   C4A69270  30.039  39.443   7.309
 5362POPC   C1B69271  29.781  38.834   6.157
 5362POPC   C2B69272  29.888  39.011   6.556
 5362POPC   C3B69273  29.778  38.887   6.979
 5362POPC   C4B69274  29.917  38.919   7.388
 5363POPC   NC369275  18.340  41.058   5.602
 5363POPC   PO469276  18.516  41.681   5.357
 5363POPC   GL169277  18.278  41.699   5.760
 5363POPC   GL269278  18.497  41.459   5.864
 5363POPC   C1A69279  18.302  41.683   6.267
 5363POPC   D2A69280  18.614  41.576   6.582
 5363POPC   C3A69281  18.465  41.485   6.974
 5363POPC   C4A69282  18.427  41.676   7.374
 5363POPC   C1B69283  18.495  41.205   6.233
 5363POPC   C2B69284  18.302  41.136   6.628
 5363POPC   C3B69285  18.051  41.058   6.961
 5363POPC   C4B69286  18.082  41.319   7.266
 5364POPC   NC369287  44.415  39.144   5.495
 5364POPC   PO469288  44.946  39.639   5.419
 5364POPC   GL169289  44.684  39.510   5.760
 5364POPC   GL269290  44.799  39.180   5.848
 5364POPC   C1A69291  44.612  39.498   6.204
 5364POPC   D2A69292  44.473  39.551   6.603
 5364POPC   C3A69293  44.536  39.306   6.948
 5364POPC   C4A69294  44.438  39.488   7.348
 5364POPC   C1B69295  44.649  38.989   6.269
 5364POPC   C2B69296  44.330  38.981   6.591
 5364POPC   C3B69297  44.403  38.786   7.015
 5364POPC   C4B69298  44.612  39.016   7.367
 5365POPC   NC369299   3.494  26.858   5.551
 5365POPC   PO469300   3.152  27.458   5.396
 5365POPC   GL169301   3.357  27.278   5.811
 5365POPC   GL269302   3.117  27.022   5.889
 5365POPC   C1A69303   3.628  27.134   6.225
 5365POPC   D2A69304   3.631  26.800   6.606
 5365POPC   C3A69305   3.649  26.848   7.075
 5365POPC   C4A69306   3.635  26.980   7.535
 5365POPC   C1B69307   3.215  26.837   6.290
 5365POPC   C2B69308   3.150  26.509   6.610
 5365POPC   C3B69309   3.352  26.424   6.995
 5365POPC   C4B69310   3.407  26.489   7.437
 5366POPC   NC369311  19.021   5.332   5.443
 5366POPC   PO469312  19.321   4.777   5.380
 5366POPC   GL169313  19.253   5.022   5.782
 5366POPC   GL269314  18.988   5.310   5.947
 5366POPC   C1A69315  19.388   5.101   6.191
 5366POPC   D2A69316  19.145   5.299   6.523
 5366POPC   C3A69317  18.867   5.034   6.772
 5366POPC   C4A69318  18.895   4.932   7.206
 5366POPC   C1B69319  18.681   5.461   6.306
 5366POPC   C2B69320  18.607   5.522   6.779
 5366POPC   C3B69321  18.778   5.473   7.225
 5366POPC   C4B69322  18.767   5.578   7.691
 5367POPC   NC369323  13.805  11.195   5.684
 5367POPC   PO469324  13.672  10.604   5.483
 5367POPC   GL169325  13.515  10.760   5.883
 5367POPC   GL269326  13.310  10.451   5.903
 5367POPC   C1A69327  13.532  10.631   6.319
 5367POPC   D2A69328  13.664  10.266   6.525
 5367POPC   C3A69329  13.895  10.454   6.839
 5367POPC   C4A69330  13.854  10.855   7.056
 5367POPC   C1B69331  13.190  10.238   6.290
 5367POPC   C2B69332  13.191  10.275   6.734
 5367POPC   C3B69333  13.398  10.523   7.042
 5367POPC   C4B69334  13.720  10.389   7.312
 5368POPC   NC369335   5.198  28.748   5.586
 5368POPC   PO469336   5.111  28.161   5.296
 5368POPC   GL169337   4.950  28.260   5.747
 5368POPC   GL269338   5.277  28.308   5.877
 5368POPC   C1A69339   4.690  28.431   6.156
 5368POPC   D2A69340   4.721  28.620   6.609
 5368POPC   C3A69341   4.877  28.316   6.927
 5368POPC   C4A69342   4.954  28.230   7.360
 5368POPC   C1B69343   5.162  28.308   6.327
 5368POPC   C2B69344   5.366  28.239   6.734
 5368POPC   C3B69345   5.421  28.342   7.193
 5368POPC   C4B69346   5.390  28.245   7.644
 5369POPC   NC369347  15.346  32.527   5.287
 5369POPC   PO469348  15.292  31.893   5.562
 5369POPC   GL169349  15.144  32.164   5.865
 5369POPC   GL269350  15.029  32.461   5.707
 5369POPC   C1A69351  15.272  32.180   6.307
 5369POPC   D2A69352  15.477  31.949   6.627
 5369POPC   C3A69353  15.316  32.090   6.999
 5369POPC   C4A69354  14.986  32.159   7.282
 5369POPC   C1B69355  14.931  32.548   6.173
 5369POPC   C2B69356  14.788  32.504   6.622
 5369POPC   C3B69357  14.977  32.620   7.032
 5369POPC   C4B69358  15.355  32.515   7.289
 5370POPC   NC369359  27.788  38.638   5.398
 5370POPC   PO469360  27.411  38.082   5.334
 5370POPC   GL169361  27.654  38.250   5.687
 5370POPC   GL269362  27.460  38.511   5.808
 5370POPC   C1A69363  27.823  38.271   6.117
 5370POPC   D2A69364  27.638  38.236   6.535
 5370POPC   C3A69365  27.742  38.388   6.932
 5370POPC   C4A69366  27.598  38.175   7.270
 5370POPC   C1B69367  27.417  38.617   6.262
 5370POPC   C2B69368  27.320  38.824   6.682
 5370POPC   C3B69369  27.372  38.699   7.136
 5370POPC   C4B69370  27.747  38.686   7.396
 5371POPC   NC369371  33.918  33.102   5.149
 5371POPC   PO469372  33.510  32.871   5.593
 5371POPC   GL169373  33.802  32.994   5.888
 5371POPC   GL269374  34.116  33.182   5.832
 5371POPC   C1A69375  33.686  32.943   6.310
 5371POPC   D2A69376  33.678  32.601   6.617
 5371POPC   C3A69377  33.674  32.835   6.983
 5371POPC   C4A69378  33.567  32.790   7.412
 5371POPC   C1B69379  33.858  33.432   6.134
 5371POPC   C2B69380  33.724  33.413   6.545
 5371POPC   C3B69381  33.979  33.232   6.872
 5371POPC   C4B69382  33.867  33.191   7.293
 5372POPC   NC369383  17.015  28.632   5.260
 5372POPC   PO469384  16.590  28.028   5.415
 5372POPC   GL169385  16.808  28.180   5.785
 5372POPC   GL269386  16.777  28.536   5.701
 5372POPC   C1A69387  16.991  28.176   6.204
 5372POPC   D2A69388  16.774  28.276   6.587
 5372POPC   C3A69389  16.894  28.105   6.985
 5372POPC   C4A69390  16.513  28.141   7.205
 5372POPC   C1B69391  16.789  28.656   6.124
 5372POPC   C2B69392  16.588  28.786   6.513
 5372POPC   C3B69393  16.541  28.622   6.926
 5372POPC   C4B69394  16.891  28.575   7.202
 5373POPC   NC369395  36.682   9.317   5.334
 5373POPC   PO469396  36.963   8.687   5.456
 5373POPC   GL169397  36.768   8.952   5.733
 5373POPC   GL269398  37.043   9.187   5.749
 5373POPC   C1A69399  36.655   8.798   6.143
 5373POPC   D2A69400  36.657   8.984   6.544
 5373POPC   C3A69401  36.715   8.746   6.888
 5373POPC   C4A69402  36.748   8.792   7.307
 5373POPC   C1B69403  37.120   9.002   6.164
 5373POPC   C2B69404  37.131   9.195   6.569
 5373POPC   C3B69405  37.115   9.081   6.989
 5373POPC   C4B69406  37.095   9.330   7.339
 5374POPC   NC369407  30.993  35.830   5.275
 5374POPC   PO469408  31.625  35.873   5.100
 5374POPC   GL169409  31.339  36.010   5.563
 5374POPC   GL269410  31.378  36.361   5.695
 5374POPC   C1A69411  31.246  35.988   6.013
 5374POPC   D2A69412  31.517  35.976   6.411
 5374POPC   C3A69413  31.323  35.909   6.808
 5374POPC   C4A69414  31.471  35.893   7.228
 5374POPC   C1B69415  31.503  36.428   6.144
 5374POPC   C2B69416  31.484  36.514   6.613
 5374POPC   C3B69417  31.368  36.380   7.052
 5374POPC   C4B69418  31.410  36.275   7.544
 5375POPC   NC369419  31.186  44.345   5.679
 5375POPC   PO469420  31.690  44.472   5.236
 5375POPC   GL169421  31.658  44.809   5.658
 5375POPC   GL269422  31.376  44.780   5.846
 5375POPC   C1A69423  31.706  44.871   6.199
 5375POPC   D2A69424  31.712  44.560   6.588
 5375POPC   C3A69425  31.641  44.660   7.047
 5375POPC   C4A69426  31.819  44.491   7.472
 5375POPC   C1B69427  31.308  44.557   6.274
 5375POPC   C2B69428  31.084  44.335   6.578
 5375POPC   C3B69429  31.213  44.299   7.013
 5375POPC   C4B69430  31.288  44.538   7.400
 5376POPC   NC369431  15.022   4.647   5.300
 5376POPC   PO469432  15.500   4.097   5.193
 5376POPC   GL169433  15.384   4.121   5.657
 5376POPC   GL269434  15.051   4.207   5.769
 5376POPC   C1A69435  15.409   4.204   6.121
 5376POPC   D2A69436  15.407   4.421   6.522
 5376POPC   C3A69437  15.422   4.202   6.921
 5376POPC   C4A69438  15.535   4.364   7.308
 5376POPC   C1B69439  14.945   4.418   6.212
 5376POPC   C2B69440  14.933   4.460   6.709
 5376POPC   C3B69441  15.038   4.456   7.156
 5376POPC   C4B69442  15.002   4.506   7.605
 5377POPC   NC369443  34.141  25.124   5.142
 5377POPC   PO469444  33.541  25.379   5.485
 5377POPC   GL169445  33.809  25.397   5.865
 5377POPC   GL269446  33.648  25.102   6.011
 5377POPC   C1A69447  33.894  25.452   6.335
 5377POPC   D2A69448  33.639  25.211   6.632
 5377POPC   C3A69449  33.560  25.359   7.049
 5377POPC   C4A69450  33.651  25.173   7.441
 5377POPC   C1B69451  34.009  24.966   6.242
 5377POPC   C2B69452  34.131  25.062   6.632
 5377POPC   C3B69453  33.989  25.032   7.033
 5377POPC   C4B69454  34.029  25.438   7.242
 5378POPC   NC369455  43.111   0.714   5.378
 5378POPC   PO469456  42.621   0.303   5.385
 5378POPC   GL169457  42.907   0.380   5.752
 5378POPC   GL269458  43.233   0.592   5.846
 5378POPC   C1A69459  42.808   0.454   6.173
 5378POPC   D2A69460  42.563   0.510   6.542
 5378POPC   C3A69461  42.814   0.516   6.910
 5378POPC   C4A69462  43.012   0.421   7.303
 5378POPC   C1B69463  43.229   0.727   6.275
 5378POPC   C2B69464  43.180   0.361   6.541
 5378POPC   C3B69465  43.337   0.302   6.932
 5378POPC   C4B69466  43.422   0.689   7.172
 5379POPC   NC369467  22.115  33.808   5.368
 5379POPC   PO469468  21.757  34.377   5.382
 5379POPC   GL169469  21.834  34.063   5.740
 5379POPC   GL269470  21.904  33.659   5.791
 5379POPC   C1A69471  22.081  33.996   6.120
 5379POPC   D2A69472  22.087  33.792   6.495
 5379POPC   C3A69473  22.169  34.030   6.857
 5379POPC   C4A69474  21.975  34.081   7.228
 5379POPC   C1B69475  22.256  33.501   6.075
 5379POPC   C2B69476  22.485  33.472   6.474
 5379POPC   C3B69477  22.269  33.465   6.844
 5379POPC   C4B69478  22.266  33.652   7.214
 5380POPC   NC369479  44.396  39.832   5.346
 5380POPC   PO469480  44.263  40.555   5.354
 5380POPC   GL169481  44.660  40.348   5.544
 5380POPC   GL269482  44.734  40.025   5.687
 5380POPC   C1A69483  44.673  40.371   6.047
 5380POPC   D2A69484  44.582  40.192   6.469
 5380POPC   C3A69485  44.802  40.305   6.865
 5380POPC   C4A69486  44.629  40.336   7.269
 5380POPC   C1B69487  44.915  39.896   6.110
 5380POPC   C2B69488  44.912  39.809   6.583
 5380POPC   C3B69489  44.666  39.816   7.014
 5380POPC   C4B69490  44.717  39.876   7.517
 5381POPC   NC369491   2.334  19.204   5.455
 5381POPC   PO469492   1.661  18.897   5.466
 5381POPC   GL169493   1.660  19.144   5.842
 5381POPC   GL269494   1.929  19.334   5.745
 5381POPC   C1A69495   1.856  19.105   6.259
 5381POPC   D2A69496   2.166  19.019   6.595
 5381POPC   C3A69497   1.925  19.055   6.973
 5381POPC   C4A69498   1.991  18.906   7.374
 5381POPC   C1B69499   2.161  19.491   6.111
 5381POPC   C2B69500   2.036  19.511   6.550
 5381POPC   C3B69501   2.241  19.464   6.964
 5381POPC   C4B69502   2.019  19.413   7.362
 5382POPC   NC369503  32.747  43.294   5.498
 5382POPC   PO469504  33.211  42.778   5.564
 5382POPC   GL169505  33.015  42.998   5.875
 5382POPC   GL269506  32.667  42.902   5.923
 5382POPC   C1A69507  32.979  43.063   6.322
 5382POPC   D2A69508  32.986  43.302   6.713
 5382POPC   C3A69509  32.922  43.061   7.080
 5382POPC   C4A69510  33.176  43.097   7.433
 5382POPC   C1B69511  32.578  43.316   6.143
 5382POPC   C2B69512  32.489  43.433   6.611
 5382POPC   C3B69513  32.605  43.468   7.060
 5382POPC   C4B69514  32.670  43.265   7.487
 5383POPC   NC369515  40.388   7.714   5.248
 5383POPC   PO469516  39.823   7.262   5.319
 5383POPC   GL169517  39.823   7.335   5.775
 5383POPC   GL269518  40.165   7.469   5.716
 5383POPC   C1A69519  39.649   7.207   6.225
 5383POPC   D2A69520  39.473   7.210   6.665
 5383POPC   C3A69521  39.738   7.340   6.989
 5383POPC   C4A69522  39.923   7.221   7.397
 5383POPC   C1B69523  40.148   7.382   6.186
 5383POPC   C2B69524  40.061   7.506   6.636
 5383POPC   C3B69525  40.164   7.609   7.102
 5383POPC   C4B69526  40.414   7.834   7.452
 5384POPC   NC369527  21.696  32.396   5.415
 5384POPC   PO469528  21.288  31.849   5.263
 5384POPC   GL169529  21.393  32.059   5.663
 5384POPC   GL269530  21.252  32.396   5.711
 5384POPC   C1A69531  21.420  32.159   6.131
 5384POPC   D2A69532  21.353  31.944   6.542
 5384POPC   C3A69533  21.658  32.093   6.842
 5384POPC   C4A69534  21.777  32.229   7.259
 5384POPC   C1B69535  21.150  32.586   6.140
 5384POPC   C2B69536  21.318  32.477   6.568
 5384POPC   C3B69537  21.226  32.374   7.000
 5384POPC   C4B69538  21.394  32.496   7.423
 5385POPC   NC369539  30.121  30.290   5.119
 5385POPC   PO469540  29.682  29.887   5.467
 5385POPC   GL169541  29.730  29.943   5.897
 5385POPC   GL269542  30.075  29.868   5.880
 5385POPC   C1A69543  29.853  30.100   6.302
 5385POPC   D2A69544  29.609  30.028   6.659
 5385POPC   C3A69545  29.723  30.150   7.066
 5385POPC   C4A69546  29.744  29.783   7.274
 5385POPC   C1B69547  30.143  29.633   6.215
 5385POPC   C2B69548  30.037  29.707   6.643
 5385POPC   C3B69549  30.169  29.866   7.010
 5385POPC   C4B69550  30.263  30.284   7.038
 5386POPC   NC369551  20.883  30.099   5.362
 5386POPC   PO469552  20.484  29.454   5.315
 5386POPC   GL169553  20.685  29.679   5.644
 5386POPC   GL269554  20.482  29.940   5.815
 5386POPC   C1A69555  20.732  29.571   6.089
 5386POPC   D2A69556  20.529  29.613   6.486
 5386POPC   C3A69557  20.645  29.556   6.917
 5386POPC   C4A69558  20.343  29.544   7.234
 5386POPC   C1B69559  20.602  30.070   6.263
 5386POPC   C2B69560  20.663  30.049   6.745
 5386POPC   C3B69561  20.510  30.057   7.199
 5386POPC   C4B69562  20.697  30.172   7.630
 5387POPC   NC369563  30.993  31.719   5.426
 5387POPC   PO469564  30.612  32.304   5.332
 5387POPC   GL169565  30.503  32.200   5.738
 5387POPC   GL269566  30.699  31.967   5.913
 5387POPC   C1A69567  30.525  32.389   6.163
 5387POPC   D2A69568  30.675  32.526   6.566
 5387POPC   C3A69569  30.557  32.336   6.944
 5387POPC   C4A69570  30.324  32.318   7.358
 5387POPC   C1B69571  30.271  31.965   6.130
 5387POPC   C2B69572  30.278  32.145   6.545
 5387POPC   C3B69573  30.231  31.946   6.940
 5387POPC   C4B69574  30.392  31.805   7.355
 5388POPC   NC369575  33.577  25.749   5.182
 5388POPC   PO469576  33.755  26.355   5.465
 5388POPC   GL169577  33.667  26.148   5.834
 5388POPC   GL269578  33.562  25.841   5.710
 5388POPC   C1A69579  33.891  26.110   6.216
 5388POPC   D2A69580  34.114  26.061   6.640
 5388POPC   C3A69581  33.968  25.986   7.052
 5388POPC   C4A69582  34.005  26.313   7.370
 5388POPC   C1B69583  33.518  25.729   6.134
 5388POPC   C2B69584  33.618  25.867   6.561
 5388POPC   C3B69585  33.536  26.184   6.869
 5388POPC   C4B69586  33.459  25.878   7.175
 5389POPC   NC369587  40.779  25.785   5.454
 5389POPC   PO469588  40.730  26.510   5.404
 5389POPC   GL169589  40.929  26.253   5.663
 5389POPC   GL269590  40.599  26.188   5.802
 5389POPC   C1A69591  41.058  26.095   6.047
 5389POPC   D2A69592  41.124  26.126   6.502
 5389POPC   C3A69593  40.798  26.170   6.789
 5389POPC   C4A69594  40.758  26.076   7.245
 5389POPC   C1B69595  40.581  26.075   6.224
 5389POPC   C2B69596  40.505  25.737   6.482
 5389POPC   C3B69597  40.574  25.711   6.920
 5389POPC   C4B69598  40.505  25.437   7.290
 5390POPC   NC369599  14.167  31.627   5.527
 5390POPC   PO469600  14.613  31.167   5.434
 5390POPC   GL169601  14.583  31.401   5.828
 5390POPC   GL269602  14.689  31.717   5.894
 5390POPC   C1A69603  14.612  31.417   6.313
 5390POPC   D2A69604  14.218  31.376   6.506
 5390POPC   C3A69605  14.182  31.253   6.908
 5390POPC   C4A69606  14.403  31.296   7.330
 5390POPC   C1B69607  14.321  31.772   6.147
 5390POPC   C2B69608  14.415  31.856   6.555
 5390POPC   C3B69609  14.549  31.603   6.886
 5390POPC   C4B69610  14.191  31.725   7.140
 5391POPC   NC369611  35.297  16.640   5.320
 5391POPC   PO469612  35.414  15.889   5.394
 5391POPC   GL169613  35.257  15.995   5.770
 5391POPC   GL269614  35.300  16.333   5.753
 5391POPC   C1A69615  35.072  16.076   6.147
 5391POPC   D2A69616  35.234  15.970   6.505
 5391POPC   C3A69617  35.048  16.140   6.825
 5391POPC   C4A69618  35.180  15.818   7.085
 5391POPC   C1B69619  35.544  16.269   6.169
 5391POPC   C2B69620  35.639  16.304   6.626
 5391POPC   C3B69621  35.471  16.259   7.052
 5391POPC   C4B69622  35.223  16.605   7.207
 5392POPC   NC369623  39.184  35.618   5.447
 5392POPC   PO469624  39.011  34.873   5.427
 5392POPC   GL169625  39.208  35.152   5.744
 5392POPC   GL269626  38.918  35.347   5.828
 5392POPC   C1A69627  39.399  35.474   6.075
 5392POPC   D2A69628  39.580  35.527   6.509
 5392POPC   C3A69629  39.368  35.604   6.923
 5392POPC   C4A69630  39.443  35.302   7.216
 5392POPC   C1B69631  38.992  35.207   6.219
 5392POPC   C2B69632  39.115  35.292   6.609
 5392POPC   C3B69633  38.937  35.289   7.012
 5392POPC   C4B69634  39.006  35.208   7.441
 5393POPC   NC369635  35.221  32.514   5.422
 5393POPC   PO469636  35.743  31.994   5.423
 5393POPC   GL169637  35.672  32.048   5.850
 5393POPC   GL269638  35.594  32.407   5.784
 5393POPC   C1A69639  35.783  32.013   6.302
 5393POPC   D2A69640  35.444  32.105   6.627
 5393POPC   C3A69641  35.377  31.966   7.033
 5393POPC   C4A69642  35.271  32.158   7.406
 5393POPC   C1B69643  35.425  32.404   6.202
 5393POPC   C2B69644  35.385  32.600   6.617
 5393POPC   C3B69645  35.159  32.455   6.967
 5393POPC   C4B69646  34.988  32.579   7.340
 5394POPC   NC369647   9.053  38.495   5.259
 5394POPC   PO469648   9.074  37.877   5.340
 5394POPC   GL169649   9.096  38.088   5.774
 5394POPC   GL269650   9.045  38.465   5.775
 5394POPC   C1A69651   9.190  38.130   6.243
 5394POPC   D2A69652   9.030  38.265   6.658
 5394POPC   C3A69653   9.034  38.185   7.122
 5394POPC   C4A69654   8.859  38.425   7.492
 5394POPC   C1B69655   9.032  38.764   6.120
 5394POPC   C2B69656   9.237  38.717   6.531
 5394POPC   C3B69657   9.090  38.673   6.963
 5394POPC   C4B69658   9.296  38.588   7.351
 5395POPC   NC369659  38.562  41.876   5.398
 5395POPC   PO469660  38.042  41.387   5.419
 5395POPC   GL169661  38.299  41.552   5.758
 5395POPC   GL269662  38.664  41.454   5.712
 5395POPC   C1A69663  38.221  41.693   6.196
 5395POPC   D2A69664  38.340  41.485   6.571
 5395POPC   C3A69665  38.196  41.553   6.985
 5395POPC   C4A69666  38.535  41.401   7.245
 5395POPC   C1B69667  38.763  41.759   6.041
 5395POPC   C2B69668  38.783  41.754   6.485
 5395POPC   C3B69669  38.606  41.837   6.876
 5395POPC   C4B69670  38.748  41.874   7.271
 5396POPC   NC369671   1.220  40.075   5.368
 5396POPC   PO469672   1.590  39.464   5.450
 5396POPC   GL169673   1.434  39.781   5.790
 5396POPC   GL269674   1.102  39.963   5.838
 5396POPC   C1A69675   1.336  39.839   6.256
 5396POPC   D2A69676   1.098  39.824   6.632
 5396POPC   C3A69677   1.386  39.813   6.979
 5396POPC   C4A69678   1.466  39.580   7.373
 5396POPC   C1B69679   1.300  40.311   6.027
 5396POPC   C2B69680   1.236  40.340   6.461
 5396POPC   C3B69681   1.138  40.274   6.889
 5396POPC   C4B69682   1.075  40.179   7.320
 5397POPC   NC369683  12.777  17.849   5.479
 5397POPC   PO469684  12.637  17.196   5.377
 5397POPC   GL169685  12.632  17.422   5.759
 5397POPC   GL269686  12.999  17.532   5.838
 5397POPC   C1A69687  12.625  17.277   6.168
 5397POPC   D2A69688  12.880  17.236   6.545
 5397POPC   C3A69689  12.936  17.483   6.926
 5397POPC   C4A69690  13.190  17.386   7.292
 5397POPC   C1B69691  12.945  17.672   6.280
 5397POPC   C2B69692  12.606  17.770   6.610
 5397POPC   C3B69693  12.679  17.925   7.044
 5397POPC   C4B69694  13.121  17.892   7.232
 5398POPC   NC369695  30.142   3.446   5.373
 5398POPC   PO469696  29.610   3.306   5.438
 5398POPC   GL169697  29.742   3.310   5.860
 5398POPC   GL269698  30.120   3.296   5.866
 5398POPC   C1A69699  29.516   3.426   6.270
 5398POPC   D2A69700  29.464   3.318   6.722
 5398POPC   C3A69701  29.666   3.617   7.034
 5398POPC   C4A69702  29.881   3.856   7.357
 5398POPC   C1B69703  30.046   3.443   6.306
 5398POPC   C2B69704  29.978   3.318   6.765
 5398POPC   C3B69705  29.929   3.208   7.240
 5398POPC   C4B69706  30.065   3.465   7.622
 5399POPC   NC369707  16.150   3.505   5.325
 5399POPC   PO469708  16.781   3.458   5.053
 5399POPC   GL169709  16.744   3.617   5.542
 5399POPC   GL269710  16.530   3.914   5.715
 5399POPC   C1A69711  16.831   3.643   6.018
 5399POPC   D2A69712  16.898   3.825   6.440
 5399POPC   C3A69713  16.863   3.509   6.792
 5399POPC   C4A69714  16.853   3.533   7.227
 5399POPC   C1B69715  16.366   3.891   6.217
 5399POPC   C2B69716  16.458   3.810   6.709
 5399POPC   C3B69717  16.486   3.926   7.177
 5399POPC   C4B69718  16.565   4.049   7.634
 5400POPC   NC369719  33.251   9.114   5.112
 5400POPC   PO469720  32.641   9.153   5.404
 5400POPC   GL169721  32.798   9.114   5.808
 5400POPC   GL269722  33.174   9.067   5.754
 5400POPC   C1A69723  32.720   9.140   6.255
 5400POPC   D2A69724  32.982   9.178   6.630
 5400POPC   C3A69725  32.782   9.043   7.009
 5400POPC   C4A69726  32.810   8.606   6.986
 5400POPC   C1B69727  33.168   8.902   6.188
 5400POPC   C2B69728  33.346   8.800   6.594
 5400POPC   C3B69729  33.294   9.002   6.992
 5400POPC   C4B69730  33.142   8.850   7.392
 5401POPC   NC369731   4.752  41.404   5.303
 5401POPC   PO469732   5.052  40.750   5.179
 5401POPC   GL169733   5.015  40.715   5.646
 5401POPC   GL269734   4.853  41.000   5.821
 5401POPC   C1A69735   5.028  40.566   6.082
 5401POPC   D2A69736   5.089  40.804   6.464
 5401POPC   C3A69737   5.094  40.623   6.865
 5401POPC   C4A69738   5.199  40.762   7.303
 5401POPC   C1B69739   4.638  40.854   6.228
 5401POPC   C2B69740   4.646  40.935   6.686
 5401POPC   C3B69741   4.891  41.062   7.024
 5401POPC   C4B69742   4.967  41.187   7.444
 5402POPC   NC369743  22.715  33.364   5.290
 5402POPC   PO469744  22.931  32.736   5.282
 5402POPC   GL169745  23.041  32.978   5.617
 5402POPC   GL269746  23.122  32.689   5.826
 5402POPC   C1A69747  23.050  33.144   6.040
 5402POPC   D2A69748  22.920  33.212   6.452
 5402POPC   C3A69749  23.118  33.295   6.839
 5402POPC   C4A69750  23.029  33.075   7.191
 5402POPC   C1B69751  22.951  32.694   6.265
 5402POPC   C2B69752  23.056  32.797   6.695
 5402POPC   C3B69753  22.905  32.617   7.029
 5402POPC   C4B69754  23.006  32.569   7.475
 5403POPC   NC369755   2.484  18.360   5.407
 5403POPC   PO469756   3.137  18.105   5.502
 5403POPC   GL169757   2.902  18.392   5.729
 5403POPC   GL269758   2.663  18.126   5.815
 5403POPC   C1A69759   2.781  18.529   6.147
 5403POPC   D2A69760   2.672  18.338   6.550
 5403POPC   C3A69761   2.641  18.513   6.967
 5403POPC   C4A69762   2.683  18.256   7.347
 5403POPC   C1B69763   2.376  18.170   6.144
 5403POPC   C2B69764   2.318  17.960   6.512
 5403POPC   C3B69765   2.368  18.050   6.944
 5403POPC   C4B69766   2.249  17.967   7.367
 5404POPC   NC369767  28.414   1.593   5.299
 5404POPC   PO469768  28.298   0.915   5.456
 5404POPC   GL169769  28.371   1.208   5.756
 5404POPC   GL269770  28.576   1.494   5.788
 5404POPC   C1A69771  28.296   1.193   6.198
 5404POPC   D2A69772  28.272   0.941   6.582
 5404POPC   C3A69773  28.106   1.054   6.962
 5404POPC   C4A69774  28.343   1.270   7.199
 5404POPC   C1B69775  28.504   1.650   6.192
 5404POPC   C2B69776  28.509   1.431   6.596
 5404POPC   C3B69777  28.706   1.513   6.976
 5404POPC   C4B69778  28.479   1.764   7.259
 5405POPC   NC369779  40.990  23.911   5.431
 5405POPC   PO469780  40.276  23.910   5.464
 5405POPC   GL169781  40.591  23.867   5.832
 5405POPC   GL269782  40.830  23.575   5.774
 5405POPC   C1A69783  40.713  23.690   6.279
 5405POPC   D2A69784  40.994  23.692   6.657
 5405POPC   C3A69785  40.786  23.743   7.077
 5405POPC   C4A69786  40.453  23.981   7.283
 5405POPC   C1B69787  40.605  23.261   5.988
 5405POPC   C2B69788  40.649  23.130   6.413
 5405POPC   C3B69789  40.650  23.340   6.784
 5405POPC   C4B69790  40.661  23.229   7.202
 5406POPC   NC369791  31.250  13.000   5.353
 5406POPC   PO469792  31.779  12.668   5.327
 5406POPC   GL169793  31.655  12.832   5.691
 5406POPC   GL269794  31.641  13.196   5.685
 5406POPC   C1A69795  31.621  12.640   6.106
 5406POPC   D2A69796  31.371  12.758   6.462
 5406POPC   C3A69797  31.584  12.761   6.865
 5406POPC   C4A69798  31.461  12.719   7.321
 5406POPC   C1B69799  31.480  13.142   6.097
 5406POPC   C2B69800  31.455  13.258   6.532
 5406POPC   C3B69801  31.352  13.206   6.992
 5406POPC   C4B69802  31.722  13.135   7.200
 5407POPC   NC369803  31.435  38.117   5.343
 5407POPC   PO469804  31.786  37.555   5.520
 5407POPC   GL169805  31.555  37.743   5.878
 5407POPC   GL269806  31.246  37.564   5.934
 5407POPC   C1A69807  31.322  37.913   6.285
 5407POPC   D2A69808  31.138  37.695   6.644
 5407POPC   C3A69809  31.340  37.807   7.088
 5407POPC   C4A69810  31.388  37.722   7.567
 5407POPC   C1B69811  31.540  37.443   6.300
 5407POPC   C2B69812  31.588  37.488   6.748
 5407POPC   C3B69813  31.704  37.303   7.162
 5407POPC   C4B69814  31.813  37.415   7.616
 5408POPC   NC369815  30.113  38.897   5.510
 5408POPC   PO469816  30.669  39.354   5.501
 5408POPC   GL169817  30.676  39.205   5.909
 5408POPC   GL269818  30.328  39.068   5.934
 5408POPC   C1A69819  30.848  39.326   6.326
 5408POPC   D2A69820  31.022  39.399   6.752
 5408POPC   C3A69821  30.825  39.365   7.189
 5408POPC   C4A69822  30.891  39.411   7.649
 5408POPC   C1B69823  30.388  39.099   6.365
 5408POPC   C2B69824  30.728  38.926   6.624
 5408POPC   C3B69825  30.641  38.915   7.042
 5408POPC   C4B69826  30.381  39.082   7.285
 5409POPC   NC369827   6.153  40.942   5.377
 5409POPC   PO469828   6.775  41.037   5.131
 5409POPC   GL169829   6.650  40.924   5.550
 5409POPC   GL269830   6.667  41.204   5.736
 5409POPC   C1A69831   6.550  40.743   5.986
 5409POPC   D2A69832   6.401  40.578   6.399
 5409POPC   C3A69833   6.707  40.515   6.732
 5409POPC   C4A69834   6.647  40.545   7.153
 5409POPC   C1B69835   6.892  41.122   6.139
 5409POPC   C2B69836   6.704  40.987   6.510
 5409POPC   C3B69837   6.751  41.108   6.930
 5409POPC   C4B69838   6.652  41.022   7.357
 5410POPC   NC369839   1.752  21.710   5.476
 5410POPC   PO469840   1.818  22.456   5.437
 5410POPC   GL169841   1.980  22.356   5.817
 5410POPC   GL269842   1.944  21.996   5.874
 5410POPC   C1A69843   2.012  22.314   6.254
 5410POPC   D2A69844   1.969  22.040   6.580
 5410POPC   C3A69845   2.097  22.267   6.920
 5410POPC   C4A69846   1.948  22.175   7.290
 5410POPC   C1B69847   1.828  21.685   6.196
 5410POPC   C2B69848   1.578  21.679   6.566
 5410POPC   C3B69849   1.732  21.781   6.978
 5410POPC   C4B69850   1.513  21.845   7.371
 5411POPC   NC369851  10.889  38.170   5.269
 5411POPC   PO469852  11.528  38.060   5.171
 5411POPC   GL169853  11.456  38.146   5.617
 5411POPC   GL269854  11.524  38.515   5.704
 5411POPC   C1A69855  11.410  38.190   6.076
 5411POPC   D2A69856  11.107  38.430   6.342
 5411POPC   C3A69857  11.104  38.427   6.801
 5411POPC   C4A69858  11.410  38.235   7.089
 5411POPC   C1B69859  11.362  38.794   6.072
 5411POPC   C2B69860  11.281  38.895   6.517
 5411POPC   C3B69861  11.478  38.875   6.913
 5411POPC   C4B69862  11.232  38.715   7.206
 5412POPC   NC369863   1.293  28.501   5.194
 5412POPC   PO469864   1.003  27.819   5.359
 5412POPC   GL169865   1.165  28.151   5.578
 5412POPC   GL269866   0.885  28.316   5.635
 5412POPC   C1A69867   1.348  28.269   5.996
 5412POPC   D2A69868   1.511  28.457   6.394
 5412POPC   C3A69869   1.386  28.333   6.806
 5412POPC   C4A69870   1.508  28.276   7.209
 5412POPC   C1B69871   0.848  28.257   6.084
 5412POPC   C2B69872   0.966  28.390   6.500
 5412POPC   C3B69873   0.843  28.386   6.928
 5412POPC   C4B69874   1.025  28.394   7.361
 5413POPC   NC369875   1.685  20.120   5.413
 5413POPC   PO469876   2.203  19.650   5.388
 5413POPC   GL169877   1.981  19.842   5.740
 5413POPC   GL269878   1.624  19.744   5.787
 5413POPC   C1A69879   2.028  19.984   6.170
 5413POPC   D2A69880   1.928  20.012   6.584
 5413POPC   C3A69881   2.211  19.973   6.900
 5413POPC   C4A69882   2.032  19.913   7.269
 5413POPC   C1B69883   1.618  19.566   6.185
 5413POPC   C2B69884   1.550  19.697   6.607
 5413POPC   C3B69885   1.728  19.586   6.970
 5413POPC   C4B69886   1.547  19.314   7.232
 5414POPC   NC369887  19.174  17.368   5.204
 5414POPC   PO469888  18.688  17.257   5.658
 5414POPC   GL169889  19.040  17.520   5.810
 5414POPC   GL269890  19.417  17.487   5.757
 5414POPC   C1A69891  19.213  17.414   6.216
 5414POPC   D2A69892  19.126  17.355   6.607
 5414POPC   C3A69893  18.817  17.625   6.783
 5414POPC   C4A69894  18.797  17.516   7.204
 5414POPC   C1B69895  19.558  17.747   6.158
 5414POPC   C2B69896  19.332  17.824   6.608
 5414POPC   C3B69897  19.273  17.676   7.035
 5414POPC   C4B69898  19.447  17.749   7.443
 5415POPC   NC369899   0.403  21.878   4.942
 5415POPC   PO469900   0.389  21.365   5.381
 5415POPC   GL169901   0.508  21.501   5.757
 5415POPC   GL269902   0.624  21.178   5.831
 5415POPC   C1A69903   0.421  21.533   6.166
 5415POPC   D2A69904   0.345  21.107   6.325
 5415POPC   C3A69905   0.328  21.047   6.767
 5415POPC   C4A69906   0.323  21.295   7.120
 5415POPC   C1B69907   0.835  21.251   6.198
 5415POPC   C2B69908   0.686  21.403   6.579
 5415POPC   C3B69909   0.811  21.291   6.936
 5415POPC   C4B69910   0.821  21.179   7.309
 5416POPC   NC369911   4.723   7.555   5.504
 5416POPC   PO469912   5.431   7.732   5.516
 5416POPC   GL169913   5.181   7.428   5.809
 5416POPC   GL269914   4.928   7.138   5.741
 5416POPC   C1A69915   4.948   7.513   6.195
 5416POPC   D2A69916   5.008   7.663   6.615
 5416POPC   C3A69917   5.342   7.453   6.830
 5416POPC   C4A69918   5.300   7.413   7.262
 5416POPC   C1B69919   4.808   7.012   6.163
 5416POPC   C2B69920   4.743   7.187   6.563
 5416POPC   C3B69921   4.863   7.296   6.972
 5416POPC   C4B69922   4.848   7.184   7.390
 5417POPC   NC369923  28.918  37.248   5.523
 5417POPC   PO469924  28.465  36.750   5.294
 5417POPC   GL169925  28.628  36.867   5.684
 5417POPC   GL269926  28.908  36.640   5.637
 5417POPC   C1A69927  28.547  37.140   6.081
 5417POPC   D2A69928  28.276  37.250   6.472
 5417POPC   C3A69929  28.460  37.158   6.868
 5417POPC   C4A69930  28.381  37.297   7.307
 5417POPC   C1B69931  28.715  36.526   6.058
 5417POPC   C2B69932  28.871  36.552   6.497
 5417POPC   C3B69933  28.662  36.557   6.912
 5417POPC   C4B69934  28.276  36.757   7.114
 5418POPC   NC369935  35.043   8.314   5.467
 5418POPC   PO469936  34.523   8.549   5.034
 5418POPC   GL169937  34.525   8.368   5.547
 5418POPC   GL269938  34.739   8.050   5.759
 5418POPC   C1A69939  34.456   8.362   6.028
 5418POPC   D2A69940  34.406   8.186   6.454
 5418POPC   C3A69941  34.645   8.169   6.823
 5418POPC   C4A69942  34.567   8.285   7.260
 5418POPC   C1B69943  34.966   7.793   6.130
 5418POPC   C2B69944  35.150   7.935   6.547
 5418POPC   C3B69945  35.029   7.870   6.982
 5418POPC   C4B69946  34.664   7.796   7.215
 5419POPC   NC369947   5.917  18.568   5.662
 5419POPC   PO469948   5.671  19.043   5.203
 5419POPC   GL169949   5.670  19.054   5.671
 5419POPC   GL269950   5.384  19.240   5.773
 5419POPC   C1A69951   5.833  19.252   6.107
 5419POPC   D2A69952   5.992  19.381   6.557
 5419POPC   C3A69953   6.003  19.227   7.022
 5419POPC   C4A69954   6.201  19.273   7.467
 5419POPC   C1B69955   5.432  18.948   6.113
 5419POPC   C2B69956   5.667  18.904   6.503
 5419POPC   C3B69957   5.568  18.902   6.940
 5419POPC   C4B69958   5.426  18.613   7.259
 5420POPC   NC369959   9.205   9.492   5.436
 5420POPC   PO469960   8.866  10.037   5.363
 5420POPC   GL169961   8.828   9.760   5.735
 5420POPC   GL269962   8.497   9.725   5.928
 5420POPC   C1A69963   8.975   9.732   6.162
 5420POPC   D2A69964   8.734   9.745   6.523
 5420POPC   C3A69965   8.861   9.838   6.918
 5420POPC   C4A69966   9.026   9.991   7.244
 5420POPC   C1B69967   8.632   9.349   6.141
 5420POPC   C2B69968   8.805   9.239   6.524
 5420POPC   C3B69969   8.826   9.349   6.897
 5420POPC   C4B69970   9.015   9.468   7.286
 5421POPC   NC369971  10.661  16.672   5.383
 5421POPC   PO469972  10.067  17.007   5.416
 5421POPC   GL169973  10.389  16.883   5.758
 5421POPC   GL269974  10.430  16.532   5.834
 5421POPC   C1A69975  10.627  17.035   6.136
 5421POPC   D2A69976  10.426  16.929   6.553
 5421POPC   C3A69977  10.544  17.048   6.916
 5421POPC   C4A69978  10.863  16.948   7.139
 5421POPC   C1B69979  10.586  16.546   6.233
 5421POPC   C2B69980  10.331  16.400   6.559
 5421POPC   C3B69981  10.366  16.541   6.963
 5421POPC   C4B69982  10.673  16.477   7.291
 5422POPC   NC369983  37.607  34.970   5.355
 5422POPC   PO469984  37.478  34.330   5.358
 5422POPC   GL169985  37.524  34.590   5.697
 5422POPC   GL269986  37.265  34.845   5.713
 5422POPC   C1A69987  37.616  34.589   6.128
 5422POPC   D2A69988  37.882  34.579   6.473
 5422POPC   C3A69989  37.687  34.557   6.843
 5422POPC   C4A69990  37.961  34.601   7.193
 5422POPC   C1B69991  37.366  35.026   6.125
 5422POPC   C2B69992  37.602  35.010   6.518
 5422POPC   C3B69993  37.419  35.018   6.938
 5422POPC   C4B69994  37.480  34.723   7.275
 5423POPC   NC369995   2.216  10.096   5.400
 5423POPC   PO469996   1.899   9.433   5.407
 5423POPC   GL169997   1.969   9.458   5.856
 5423POPC   GL269998   2.090   9.793   5.783
 5423POPC   C1A69999   2.031   9.703   6.276
 5423POPC   D2A70000   1.778   9.992   6.544
 5423POPC   C3A70001   1.761   9.918   6.969
 5423POPC   C4A70002   2.004   9.589   7.178
 5423POPC   C1B70003   2.428   9.971   6.040
 5423POPC   C2B70004   2.426   9.964   6.493
 5423POPC   C3B70005   2.241   9.994   6.878
 5423POPC   C4B70006   2.238  10.008   7.331
 5424POPC   NC370007  12.971  28.082   5.397
 5424POPC   PO470008  12.755  27.462   5.145
 5424POPC   GL170009  13.046  27.588   5.595
 5424POPC   GL270010  13.087  27.919   5.860
 5424POPC   C1A70011  13.154  27.459   6.086
 5424POPC   D2A70012  13.310  27.480   6.554
 5424POPC   C3A70013  13.072  27.395   6.964
 5424POPC   C4A70014  12.753  27.532   7.298
 5424POPC   C1B70015  13.153  27.924   6.325
 5424POPC   C2B70016  12.879  27.826   6.677
 5424POPC   C3B70017  12.693  28.007   7.033
 5424POPC   C4B70018  13.036  28.118   7.223
 5425POPC   NC370019  26.200  12.672   5.352
 5425POPC   PO470020  25.948  12.110   5.397
 5425POPC   GL170021  25.933  12.211   5.825
 5425POPC   GL270022  25.765  11.911   5.892
 5425POPC   C1A70023  26.100  12.127   6.257
 5425POPC   D2A70024  26.013  12.259   6.681
 5425POPC   C3A70025  26.265  12.091   7.031
 5425POPC   C4A70026  26.416  11.792   7.319
 5425POPC   C1B70027  25.593  12.116   6.238
 5425POPC   C2B70028  25.754  11.829   6.550
 5425POPC   C3B70029  25.801  11.876   6.982
 5425POPC   C4B70030  25.761  12.292   7.124
 5426POPC   NC370031  10.931  42.652   5.465
 5426POPC   PO470032  10.300  42.845   5.427
 5426POPC   GL170033  10.404  42.969   5.827
 5426POPC   GL270034  10.761  42.953   5.875
 5426POPC   C1A70035  10.254  42.921   6.247
 5426POPC   D2A70036  10.181  43.216   6.609
 5426POPC   C3A70037  10.309  43.138   7.047
 5426POPC   C4A70038  10.260  42.826   7.344
 5426POPC   C1B70039  10.714  43.136   6.311
 5426POPC   C2B70040  10.680  43.311   6.732
 5426POPC   C3B70041  10.852  43.224   7.143
 5426POPC   C4B70042  11.032  43.341   7.582
 5427POPC   NC370043   1.068  15.044   5.210
 5427POPC   PO470044   1.157  15.637   5.476
 5427POPC   GL170045   1.012  15.255   5.707
 5427POPC   GL270046   1.311  15.112   5.753
 5427POPC   C1A70047   1.024  15.080   6.172
 5427POPC   D2A70048   1.229  15.307   6.562
 5427POPC   C3A70049   1.430  15.239   6.968
 5427POPC   C4A70050   1.242  15.223   7.376
 5427POPC   C1B70051   1.525  15.122   6.185
 5427POPC   C2B70052   1.522  14.882   6.581
 5427POPC   C3B70053   1.186  14.811   6.893
 5427POPC   C4B70054   1.376  14.751   7.269
 5428POPC   NC370055  44.430  44.476   5.492
 5428POPC   PO470056  44.040  44.938   5.288
 5428POPC   GL170057  44.330  44.925   5.749
 5428POPC   GL270058  44.694  44.725   5.830
 5428POPC   C1A70059  44.411  44.816   6.224
 5428POPC   D2A70060  44.745  44.737   6.570
 5428POPC   C3A70061  44.600  44.705   7.000
 5428POPC   C4A70062  44.702  44.915   7.369
 5428POPC   C1B70063  44.834  44.433   6.163
 5428POPC   C2B70064   0.009  44.208   6.522
 5428POPC   C3B70065  44.920  44.326   6.934
 5428POPC   C4B70066  44.806  44.436   7.402
 5429POPC   NC370067  12.321  24.420   5.463
 5429POPC   PO470068  11.663  24.557   5.344
 5429POPC   GL170069  11.810  24.634   5.826
 5429POPC   GL270070  12.154  24.753   5.847
 5429POPC   C1A70071  11.811  24.351   6.235
 5429POPC   D2A70072  11.978  24.243   6.629
 5429POPC   C3A70073  11.847  24.346   7.025
 5429POPC   C4A70074  12.058  24.481   7.376
 5429POPC   C1B70075  12.128  24.711   6.334
 5429POPC   C2B70076  12.084  24.756   6.783
 5429POPC   C3B70077  12.446  24.783   7.054
 5429POPC   C4B70078  12.518  24.748   7.506
 5430POPC   NC370079   2.993  19.144   5.050
 5430POPC   PO470080   2.596  18.811   5.394
 5430POPC   GL170081   2.705  18.917   5.799
 5430POPC   GL270082   3.066  18.899   5.718
 5430POPC   C1A70083   2.598  19.176   6.213
 5430POPC   D2A70084   2.746  19.288   6.647
 5430POPC   C3A70085   2.554  19.033   6.969
 5430POPC   C4A70086   2.450  19.175   7.361
 5430POPC   C1B70087   3.072  18.975   6.162
 5430POPC   C2B70088   2.938  18.815   6.548
 5430POPC   C3B70089   3.060  18.904   6.932
 5430POPC   C4B70090   2.923  18.802   7.325
 5431POPC   NC370091  27.885  30.427   5.531
 5431POPC   PO470092  27.241  30.546   5.556
 5431POPC   GL170093  27.457  30.883   5.806
 5431POPC   GL270094  27.829  30.801   5.873
 5431POPC   C1A70095  27.498  30.966   6.248
 5431POPC   D2A70096  27.651  30.743   6.621
 5431POPC   C3A70097  27.612  30.796   7.050
 5431POPC   C4A70098  27.744  31.122   7.268
 5431POPC   C1B70099  27.706  30.477   6.175
 5431POPC   C2B70100  27.758  30.269   6.591
 5431POPC   C3B70101  27.996  30.455   6.944
 5431POPC   C4B70102  28.102  30.734   7.276
 5432POPC   NC370103   0.248  29.734   5.408
 5432POPC   PO470104   0.599  30.244   5.615
 5432POPC   GL170105   0.480  29.860   5.837
 5432POPC   GL270106   0.686  29.551   5.815
 5432POPC   C1A70107   0.381  29.801   6.256
 5432POPC   D2A70108   0.559  29.938   6.656
 5432POPC   C3A70109   0.338  29.751   7.003
 5432POPC   C4A70110   0.425  29.896   7.399
 5432POPC   C1B70111   0.858  29.598   6.273
 5432POPC   C2B70112   0.841  29.500   6.740
 5432POPC   C3B70113   0.835  29.729   7.140
 5432POPC   C4B70114   0.831  29.640   7.603
 5433POPC   NC370115  25.908  18.100   5.166
 5433POPC   PO470116  26.255  18.631   5.378
 5433POPC   GL170117  26.226  18.279   5.659
 5433POPC   GL270118  25.903  18.213   5.757
 5433POPC   C1A70119  26.337  18.070   6.088
 5433POPC   D2A70120  26.166  18.062   6.519
 5433POPC   C3A70121  26.262  18.307   6.899
 5433POPC   C4A70122  26.246  18.179   7.335
 5433POPC   C1B70123  25.810  18.294   6.223
 5433POPC   C2B70124  25.735  18.310   6.711
 5433POPC   C3B70125  25.801  18.377   7.172
 5433POPC   C4B70126  25.775  18.162   7.566
 5434POPC   NC370127  34.125   8.652   5.260
 5434POPC   PO470128  33.577   8.972   5.420
 5434POPC   GL170129  33.728   9.075   5.801
 5434POPC   GL270130  34.065   9.115   5.706
 5434POPC   C1A70131  33.668   8.947   6.194
 5434POPC   D2A70132  33.862   8.915   6.561
 5434POPC   C3A70133  33.746   8.728   6.957
 5434POPC   C4A70134  33.656   8.974   7.334
 5434POPC   C1B70135  34.111   9.228   6.154
 5434POPC   C2B70136  34.315   9.130   6.545
 5434POPC   C3B70137  34.218   8.935   6.925
 5434POPC   C4B70138  34.142   9.099   7.297
 5435POPC   NC370139  18.630  43.956   5.318
 5435POPC   PO470140  18.097  43.552   5.530
 5435POPC   GL170141  18.202  43.758   5.918
 5435POPC   GL270142  18.477  43.989   5.816
 5435POPC   C1A70143  18.120  43.738   6.329
 5435POPC   D2A70144  18.421  43.772   6.605
 5435POPC   C3A70145  18.244  43.582   6.973
 5435POPC   C4A70146  18.206  43.740   7.366
 5435POPC   C1B70147  18.370  44.160   6.224
 5435POPC   C2B70148  18.169  44.231   6.593
 5435POPC   C3B70149  18.310  44.105   6.981
 5435POPC   C4B70150  18.240  44.292   7.312
 5436POPC   NC370151  37.563  28.817   5.383
 5436POPC   PO470152  37.818  29.493   5.198
 5436POPC   GL170153  37.820  29.381   5.672
 5436POPC   GL270154  37.637  29.075   5.824
 5436POPC   C1A70155  37.899  29.387   6.149
 5436POPC   D2A70156  37.823  29.019   6.491
 5436POPC   C3A70157  37.947  29.063   6.928
 5436POPC   C4A70158  38.035  29.444   7.105
 5436POPC   C1B70159  37.428  29.245   6.208
 5436POPC   C2B70160  37.506  29.403   6.605
 5436POPC   C3B70161  37.415  29.132   6.934
 5436POPC   C4B70162  37.574  28.942   7.289
 5437POPC   NC370163  18.894  34.091   5.366
 5437POPC   PO470164  19.131  33.430   5.491
 5437POPC   GL170165  18.976  33.706   5.728
 5437POPC   GL270166  19.260  33.950   5.743
 5437POPC   C1A70167  18.929  33.676   6.148
 5437POPC   D2A70168  18.898  33.955   6.490
 5437POPC   C3A70169  18.842  33.779   6.894
 5437POPC   C4A70170  18.789  34.063   7.219
 5437POPC   C1B70171  19.457  33.657   6.058
 5437POPC   C2B70172  19.345  33.497   6.482
 5437POPC   C3B70173  19.488  33.501   6.902
 5437POPC   C4B70174  19.209  33.596   7.207
 5438POPC   NC370175  36.269  26.466   5.306
 5438POPC   PO470176  36.040  27.120   5.458
 5438POPC   GL170177  36.063  26.910   5.808
 5438POPC   GL270178  35.993  26.545   5.769
 5438POPC   C1A70179  36.243  27.030   6.187
 5438POPC   D2A70180  36.336  26.801   6.579
 5438POPC   C3A70181  36.195  26.995   6.941
 5438POPC   C4A70182  36.491  27.172   7.189
 5438POPC   C1B70183  35.986  26.585   6.233
 5438POPC   C2B70184  35.873  26.548   6.665
 5438POPC   C3B70185  36.106  26.495   7.040
 5438POPC   C4B70186  36.373  26.675   7.312
 5439POPC   NC370187  36.199  43.951   5.421
 5439POPC   PO470188  36.650  43.481   5.490
 5439POPC   GL170189  36.391  43.635   5.824
 5439POPC   GL270190  36.356  44.024   5.893
 5439POPC   C1A70191  36.267  43.610   6.245
 5439POPC   D2A70192  36.294  43.860   6.590
 5439POPC   C3A70193  36.086  43.774   6.967
 5439POPC   C4A70194  36.272  43.845   7.372
 5439POPC   C1B70195  35.996  44.074   6.182
 5439POPC   C2B70196  35.863  44.141   6.617
 5439POPC   C3B70197  35.994  44.278   7.051
 5439POPC   C4B70198  35.942  44.199   7.495
 5440POPC   NC370199  16.456  24.964   4.977
 5440POPC   PO470200  16.875  24.476   5.195
 5440POPC   GL170201  16.843  24.633   5.678
 5440POPC   GL270202  17.096  24.879   5.798
 5440POPC   C1A70203  16.742  24.498   6.142
 5440POPC   D2A70204  16.897  24.399   6.579
 5440POPC   C3A70205  16.627  24.396   6.993
 5440POPC   C4A70206  16.564  24.253   7.461
 5440POPC   C1B70207  17.217  24.710   6.193
 5440POPC   C2B70208  17.354  24.651   6.611
 5440POPC   C3B70209  17.093  24.606   6.975
 5440POPC   C4B70210  17.053  24.352   7.313
 5441POPC   NC370211  12.540  26.349   5.370
 5441POPC   PO470212  12.911  25.768   5.249
 5441POPC   GL170213  12.809  25.983   5.655
 5441POPC   GL270214  13.096  26.167   5.819
 5441POPC   C1A70215  12.725  25.946   6.106
 5441POPC   D2A70216  12.953  26.165   6.473
 5441POPC   C3A70217  12.813  26.023   6.891
 5441POPC   C4A70218  12.623  26.152   7.277
 5441POPC   C1B70219  13.366  26.280   6.151
 5441POPC   C2B70220  13.364  26.524   6.529
 5441POPC   C3B70221  13.265  26.295   6.917
 5441POPC   C4B70222  13.104  26.268   7.367
 5442POPC   NC370223   4.439   6.605   5.375
 5442POPC   PO470224   3.850   6.498   5.608
 5442POPC   GL170225   4.157   6.642   5.873
 5442POPC   GL270226   4.494   6.811   5.816
 5442POPC   C1A70227   4.037   6.590   6.270
 5442POPC   D2A70228   4.267   6.427   6.599
 5442POPC   C3A70229   4.108   6.428   6.983
 5442POPC   C4A70230   4.355   6.558   7.340
 5442POPC   C1B70231   4.562   6.573   6.197
 5442POPC   C2B70232   4.725   6.664   6.612
 5442POPC   C3B70233   4.697   6.801   7.021
 5442POPC   C4B70234   4.839   6.677   7.449
 5443POPC   NC370235   1.328  12.342   5.399
 5443POPC   PO470236   1.557  12.917   5.155
 5443POPC   GL170237   1.313  12.878   5.619
 5443POPC   GL270238   0.949  12.964   5.782
 5443POPC   C1A70239   1.362  12.935   6.101
 5443POPC   D2A70240   1.257  13.035   6.559
 5443POPC   C3A70241   1.442  12.798   6.935
 5443POPC   C4A70242   1.206  12.555   7.249
 5443POPC   C1B70243   0.896  12.783   6.243
 5443POPC   C2B70244   0.790  12.887   6.706
 5443POPC   C3B70245   0.786  12.862   7.188
 5443POPC   C4B70246   0.955  12.993   7.606
 5444POPC   NC370247  40.637   2.496   5.364
 5444POPC   PO470248  41.295   2.731   5.299
 5444POPC   GL170249  41.177   2.463   5.654
 5444POPC   GL270250  40.899   2.653   5.784
 5444POPC   C1A70251  41.181   2.412   6.126
 5444POPC   D2A70252  40.903   2.610   6.449
 5444POPC   C3A70253  40.976   2.574   6.917
 5444POPC   C4A70254  41.056   2.814   7.296
 5444POPC   C1B70255  40.532   2.534   6.051
 5444POPC   C2B70256  40.414   2.415   6.473
 5444POPC   C3B70257  40.409   2.618   6.868
 5444POPC   C4B70258  40.568   2.670   7.302
 5445POPC   NC370259   5.695   5.540   5.425
 5445POPC   PO470260   6.085   6.088   5.163
 5445POPC   GL170261   6.034   5.908   5.654
 5445POPC   GL270262   5.691   5.860   5.816
 5445POPC   C1A70263   6.014   6.086   6.145
 5445POPC   D2A70264   5.817   6.206   6.571
 5445POPC   C3A70265   6.080   6.264   6.953
 5445POPC   C4A70266   6.006   6.124   7.373
 5445POPC   C1B70267   5.695   5.660   6.219
 5445POPC   C2B70268   5.890   5.501   6.599
 5445POPC   C3B70269   5.886   5.727   6.994
 5445POPC   C4B70270   5.510   5.719   7.224
 5446POPC   NC370271   1.532   7.126   5.679
 5446POPC   PO470272   1.868   7.452   5.209
 5446POPC   GL170273   2.023   7.603   5.728
 5446POPC   GL270274   1.885   7.344   5.971
 5446POPC   C1A70275   2.219   7.577   6.226
 5446POPC   D2A70276   1.983   7.227   6.520
 5446POPC   C3A70277   2.017   7.226   6.986
 5446POPC   C4A70278   2.116   7.564   7.269
 5446POPC   C1B70279   1.732   7.632   6.341
 5446POPC   C2B70280   1.718   7.606   6.806
 5446POPC   C3B70281   1.616   7.669   7.242
 5446POPC   C4B70282   1.710   7.463   7.649
 5447POPC   NC370283   8.327  19.167   5.141
 5447POPC   PO470284   7.902  18.701   5.188
 5447POPC   GL170285   8.173  18.872   5.590
 5447POPC   GL270286   8.369  19.215   5.646
 5447POPC   C1A70287   8.340  18.864   6.050
 5447POPC   D2A70288   8.202  18.787   6.484
 5447POPC   C3A70289   8.301  18.864   6.917
 5447POPC   C4A70290   7.946  18.902   7.196
 5447POPC   C1B70291   8.031  19.266   5.927
 5447POPC   C2B70292   8.048  19.246   6.363
 5447POPC   C3B70293   7.927  19.207   6.786
 5447POPC   C4B70294   7.936  19.417   7.193
 5448POPC   NC370295   6.633   4.177   5.347
 5448POPC   PO470296   6.348   4.693   5.655
 5448POPC   GL170297   6.696   4.530   5.946
 5448POPC   GL270298   6.817   4.189   5.826
 5448POPC   C1A70299   6.825   4.486   6.437
 5448POPC   D2A70300   6.616   4.291   6.789
 5448POPC   C3A70301   6.685   4.464   7.185
 5448POPC   C4A70302   6.415   4.481   7.537
 5448POPC   C1B70303   6.827   4.029   6.239
 5448POPC   C2B70304   7.011   4.001   6.657
 5448POPC   C3B70305   6.948   3.957   7.124
 5448POPC   C4B70306   6.754   4.076   7.566
 5449POPC   NC370307  21.285   7.075   5.641
 5449POPC   PO470308  21.335   6.621   5.155
 5449POPC   GL170309  21.337   6.556   5.614
 5449POPC   GL270310  21.663   6.470   5.731
 5449POPC   C1A70311  21.046   6.585   6.007
 5449POPC   D2A70312  20.889   6.570   6.461
 5449POPC   C3A70313  21.192   6.605   6.796
 5449POPC   C4A70314  21.262   6.744   7.220
 5449POPC   C1B70315  21.571   6.670   6.123
 5449POPC   C2B70316  21.795   6.822   6.504
 5449POPC   C3B70317  21.674   6.724   6.917
 5449POPC   C4B70318  21.660   6.417   7.243
 5450POPC   NC370319  26.234   4.296   5.328
 5450POPC   PO470320  25.589   4.086   5.555
 5450POPC   GL170321  25.941   4.361   5.754
 5450POPC   GL270322  26.287   4.187   5.852
 5450POPC   C1A70323  25.997   4.373   6.216
 5450POPC   D2A70324  25.877   4.064   6.533
 5450POPC   C3A70325  25.751   4.244   6.929
 5450POPC   C4A70326  26.014   4.529   7.172
 5450POPC   C1B70327  26.316   3.917   6.216
 5450POPC   C2B70328  26.244   3.738   6.642
 5450POPC   C3B70329  26.230   4.054   7.005
 5450POPC   C4B70330  26.409   4.166   7.412
 5451POPC   NC370331  25.538   0.395   5.046
 5451POPC   PO470332  25.283   0.037   5.561
 5451POPC   GL170333  25.238   0.292   5.917
 5451POPC   GL270334  25.361   0.634   5.821
 5451POPC   C1A70335  25.123   0.218   6.342
 5451POPC   D2A70336  24.998   0.483   6.686
 5451POPC   C3A70337  25.115   0.328   7.083
 5451POPC   C4A70338  24.932   0.423   7.463
 5451POPC   C1B70339  25.166   0.746   6.224
 5451POPC   C2B70340  25.320   0.885   6.615
 5451POPC   C3B70341  25.464   0.699   6.999
 5451POPC   C4B70342  25.436   0.582   7.416
 5452POPC   NC370343  38.372  44.764   5.112
 5452POPC   PO470344  38.527   0.370   5.407
 5452POPC   GL170345  38.424   0.569   5.759
 5452POPC   GL270346  38.596   0.866   5.701
 5452POPC   C1A70347  38.450   0.484   6.201
 5452POPC   D2A70348  38.227   0.301   6.571
 5452POPC   C3A70349  38.409   0.224   6.982
 5452POPC   C4A70350  38.472   0.485   7.318
 5452POPC   C1B70351  38.759   0.981   6.118
 5452POPC   C2B70352  38.804   0.748   6.476
 5452POPC   C3B70353  38.619   0.711   6.862
 5452POPC   C4B70354  38.704   0.929   7.243
 5453POPC   NC370355  20.913  10.539   5.408
 5453POPC   PO470356  21.607  10.711   5.364
 5453POPC   GL170357  21.318  10.695   5.741
 5453POPC   GL270358  21.300  10.328   5.853
 5453POPC   C1A70359  21.192  10.713   6.195
 5453POPC   D2A70360  21.192  10.545   6.616
 5453POPC   C3A70361  21.140  10.837   6.941
 5453POPC   C4A70362  21.447  11.094   7.175
 5453POPC   C1B70363  21.549  10.281   6.263
 5453POPC   C2B70364  21.642  10.316   6.732
 5453POPC   C3B70365  21.380  10.356   7.115
 5453POPC   C4B70366  21.286  10.706   7.435
 5454POPC   NC370367   0.415  32.474   5.175
 5454POPC   PO470368   0.678  31.953   5.440
 5454POPC   GL170369   0.366  32.153   5.660
 5454POPC   GL270370   0.364  32.478   5.720
 5454POPC   C1A70371   0.393  32.107   6.128
 5454POPC   D2A70372   0.243  32.142   6.547
 5454POPC   C3A70373   0.523  32.262   6.871
 5454POPC   C4A70374   0.458  31.952   7.144
 5454POPC   C1B70375   0.260  32.597   6.162
 5454POPC   C2B70376   0.071  32.605   6.596
 5454POPC   C3B70377   0.038  32.353   7.004
 5454POPC   C4B70378   0.311  32.408   7.378
 5455POPC   NC370379  26.770   3.249   5.523
 5455POPC   PO470380  26.468   3.884   5.475
 5455POPC   GL170381  26.719   3.830   5.895
 5455POPC   GL270382  26.867   3.477   5.952
 5455POPC   C1A70383  26.869   3.789   6.336
 5455POPC   D2A70384  26.939   3.750   6.779
 5455POPC   C3A70385  26.596   3.697   7.038
 5455POPC   C4A70386  26.540   3.327   7.271
 5455POPC   C1B70387  26.927   3.284   6.367
 5455POPC   C2B70388  27.117   3.272   6.764
 5455POPC   C3B70389  27.025   3.397   7.176
 5455POPC   C4B70390  26.913   3.137   7.543
 5456POPC   NC370391  18.537  36.596   5.455
 5456POPC   PO470392  18.089  36.083   5.359
 5456POPC   GL170393  18.159  35.936   5.794
 5456POPC   GL270394  18.479  35.819   5.848
 5456POPC   C1A70395  18.045  35.999   6.250
 5456POPC   D2A70396  18.198  35.984   6.676
 5456POPC   C3A70397  18.059  36.116   7.091
 5456POPC   C4A70398  18.202  36.063   7.546
 5456POPC   C1B70399  18.560  35.991   6.288
 5456POPC   C2B70400  18.703  36.101   6.747
 5456POPC   C3B70401  18.564  36.128   7.181
 5456POPC   C4B70402  18.742  36.020   7.591
 5457POPC   NC370403  21.502  24.768   5.478
 5457POPC   PO470404  21.739  24.148   5.458
 5457POPC   GL170405  21.594  24.414   5.822
 5457POPC   GL270406  21.232  24.479   5.848
 5457POPC   C1A70407  21.597  24.695   6.202
 5457POPC   D2A70408  21.397  24.765   6.631
 5457POPC   C3A70409  21.592  24.606   7.001
 5457POPC   C4A70410  21.535  24.535   7.440
 5457POPC   C1B70411  21.358  24.250   6.256
 5457POPC   C2B70412  21.397  24.226   6.717
 5457POPC   C3B70413  21.312  24.168   7.171
 5457POPC   C4B70414  21.427  24.069   7.639
 5458POPC   NC370415  10.284  24.233   5.501
 5458POPC   PO470416   9.779  24.608   5.220
 5458POPC   GL170417   9.842  24.458   5.692
 5458POPC   GL270418   9.939  24.116   5.856
 5458POPC   C1A70419   9.753  24.457   6.177
 5458POPC   D2A70420   9.637  24.294   6.617
 5458POPC   C3A70421   9.599  24.578   6.986
 5458POPC   C4A70422   9.809  24.777   7.366
 5458POPC   C1B70423  10.013  24.025   6.328
 5458POPC   C2B70424  10.095  24.108   6.777
 5458POPC   C3B70425   9.820  24.135   7.151
 5458POPC   C4B70426   9.694  23.832   7.503
 5459POPC   NC370427  34.657  10.862   5.238
 5459POPC   PO470428  34.631  10.209   5.404
 5459POPC   GL170429  34.671  10.328   5.822
 5459POPC   GL270430  34.588  10.637   5.709
 5459POPC   C1A70431  34.394  10.280   6.205
 5459POPC   D2A70432  34.169  10.081   6.584
 5459POPC   C3A70433  34.371   9.964   6.969
 5459POPC   C4A70434  34.810  10.096   7.095
 5459POPC   C1B70435  34.566  10.815   6.106
 5459POPC   C2B70436  34.705  10.603   6.469
 5459POPC   C3B70437  34.529  10.437   6.813
 5459POPC   C4B70438  34.546  10.575   7.218
 5460POPC   NC370439   9.772  29.252   5.361
 5460POPC   PO470440   9.669  28.603   5.293
 5460POPC   GL170441   9.841  28.834   5.744
 5460POPC   GL270442   9.807  29.195   5.858
 5460POPC   C1A70443   9.911  28.924   6.246
 5460POPC   D2A70444   9.842  29.106   6.662
 5460POPC   C3A70445  10.113  28.935   6.988
 5460POPC   C4A70446  10.004  28.801   7.379
 5460POPC   C1B70447   9.489  29.206   6.246
 5460POPC   C2B70448   9.399  29.372   6.695
 5460POPC   C3B70449   9.542  29.254   7.139
 5460POPC   C4B70450   9.466  29.436   7.575
 5461POPC   NC370451  20.653   5.330   5.140
 5461POPC   PO470452  20.811   5.996   5.302
 5461POPC   GL170453  20.646   5.905   5.724
 5461POPC   GL270454  20.307   5.726   5.728
 5461POPC   C1A70455  20.790   5.886   6.158
 5461POPC   D2A70456  21.009   5.692   6.489
 5461POPC   C3A70457  20.819   5.866   6.858
 5461POPC   C4A70458  20.781   5.832   7.244
 5461POPC   C1B70459  20.351   5.573   6.155
 5461POPC   C2B70460  20.509   5.591   6.579
 5461POPC   C3B70461  20.342   5.599   7.016
 5461POPC   C4B70462  20.219   5.840   7.394
 5462POPC   NC370463  30.246  36.113   5.172
 5462POPC   PO470464  29.742  35.865   5.579
 5462POPC   GL170465  29.924  36.117   5.872
 5462POPC   GL270466  29.829  35.833   6.079
 5462POPC   C1A70467  30.139  36.153   6.279
 5462POPC   D2A70468  29.956  36.185   6.676
 5462POPC   C3A70469  30.111  36.138   7.077
 5462POPC   C4A70470  29.979  36.145   7.494
 5462POPC   C1B70471  29.637  36.255   6.274
 5462POPC   C2B70472  29.461  36.347   6.695
 5462POPC   C3B70473  29.628  36.393   7.149
 5462POPC   C4B70474  29.670  36.552   7.598
 5463POPC   NC370475   6.530  11.937   5.335
 5463POPC   PO470476   6.924  12.495   5.347
 5463POPC   GL170477   6.918  12.162   5.708
 5463POPC   GL270478   6.852  11.773   5.711
 5463POPC   C1A70479   6.739  12.284   6.121
 5463POPC   D2A70480   6.592  12.475   6.497
 5463POPC   C3A70481   6.605  12.383   6.956
 5463POPC   C4A70482   6.341  12.193   7.284
 5463POPC   C1B70483   6.725  11.769   6.163
 5463POPC   C2B70484   6.763  12.005   6.565
 5463POPC   C3B70485   6.667  11.869   6.991
 5463POPC   C4B70486   6.686  11.542   7.287
 5464POPC   NC370487  39.128  25.283   5.411
 5464POPC   PO470488  39.711  25.492   5.447
 5464POPC   GL170489  39.674  25.331   5.879
 5464POPC   GL270490  39.408  25.138   5.846
 5464POPC   C1A70491  39.482  25.326   6.308
 5464POPC   D2A70492  39.171  25.497   6.562
 5464POPC   C3A70493  39.354  25.576   6.973
 5464POPC   C4A70494  39.286  25.390   7.386
 5464POPC   C1B70495  39.022  25.087   6.079
 5464POPC   C2B70496  38.971  24.977   6.520
 5464POPC   C3B70497  39.028  25.163   6.912
 5464POPC   C4B70498  39.015  24.973   7.257
 5465POPC   NC370499  37.362  24.933   5.465
 5465POPC   PO470500  37.875  25.472   5.352
 5465POPC   GL170501  37.714  25.339   5.735
 5465POPC   GL270502  37.357  25.375   5.762
 5465POPC   C1A70503  37.727  25.140   6.146
 5465POPC   D2A70504  37.544  25.093   6.553
 5465POPC   C3A70505  37.751  25.021   6.929
 5465POPC   C4A70506  37.453  25.110   7.253
 5465POPC   C1B70507  37.210  25.294   6.198
 5465POPC   C2B70508  37.287  25.550   6.584
 5465POPC   C3B70509  37.562  25.499   6.950
 5465POPC   C4B70510  37.455  25.591   7.437
 5466POPC   NC370511  43.683  21.163   5.451
 5466POPC   PO470512  44.189  21.584   5.245
 5466POPC   GL170513  44.144  21.450   5.684
 5466POPC   GL270514  43.819  21.440   5.864
 5466POPC   C1A70515  44.199  21.598   6.133
 5466POPC   D2A70516  43.909  21.479   6.451
 5466POPC   C3A70517  44.067  21.592   6.846
 5466POPC   C4A70518  43.992  21.449   7.252
 5466POPC   C1B70519  43.990  21.114   6.082
 5466POPC   C2B70520  43.929  20.949   6.480
 5466POPC   C3B70521  43.829  21.129   6.853
 5466POPC   C4B70522  43.850  20.966   7.257
 5467POPC   NC370523  38.760  34.442   5.465
 5467POPC   PO470524  38.116  34.763   5.472
 5467POPC   GL170525  38.395  34.725   5.848
 5467POPC   GL270526  38.761  34.832   5.872
 5467POPC   C1A70527  38.340  34.508   6.260
 5467POPC   D2A70528  38.369  34.677   6.704
 5467POPC   C3A70529  38.430  34.414   7.086
 5467POPC   C4A70530  38.330  34.547   7.526
 5467POPC   C1B70531  38.762  34.763   6.340
 5467POPC   C2B70532  38.879  34.832   6.775
 5467POPC   C3B70533  38.715  34.818   7.209
 5467POPC   C4B70534  38.679  34.888   7.639
 5468POPC   NC370535  44.733  38.507   4.941
 5468POPC   PO470536  44.437  38.261   5.462
 5468POPC   GL170537  44.503  38.359   5.841
 5468POPC   GL270538  44.660  38.699   5.787
 5468POPC   C1A70539  44.682  38.399   6.216
 5468POPC   D2A70540  44.514  38.505   6.576
 5468POPC   C3A70541  44.760  38.406   6.904
 5468POPC   C4A70542  44.598  38.371   7.295
 5468POPC   C1B70543   0.041  38.741   6.071
 5468POPC   C2B70544  44.994  38.700   6.522
 5468POPC   C3B70545  44.911  38.915   6.901
 5468POPC   C4B70546  44.984  38.717   7.252
 5469POPC   NC370547   1.464  24.159   5.760
 5469POPC   PO470548   0.928  23.851   5.450
 5469POPC   GL170549   0.960  23.695   5.866
 5469POPC   GL270550   1.039  24.012   6.000
 5469POPC   C1A70551   1.193  23.586   6.244
 5469POPC   D2A70552   1.490  23.629   6.591
 5469POPC   C3A70553   1.239  23.553   6.970
 5469POPC   C4A70554   1.178  23.614   7.418
 5469POPC   C1B70555   1.311  24.093   6.374
 5469POPC   C2B70556   1.406  24.186   6.789
 5469POPC   C3B70557   1.293  24.034   7.164
 5469POPC   C4B70558   1.337  24.073   7.599
 5470POPC   NC370559  20.603   0.750   5.389
 5470POPC   PO470560  20.613   0.055   5.306
 5470POPC   GL170561  20.525   0.284   5.694
 5470POPC   GL270562  20.528   0.612   5.849
 5470POPC   C1A70563  20.413   0.173   6.121
 5470POPC   D2A70564  20.687   0.041   6.423
 5470POPC   C3A70565  20.579   0.107   6.839
 5470POPC   C4A70566  20.598   0.245   7.258
 5470POPC   C1B70567  20.763   0.549   6.206
 5470POPC   C2B70568  20.576   0.583   6.607
 5470POPC   C3B70569  20.799   0.611   6.995
 5470POPC   C4B70570  20.948   0.793   7.384
 5471POPC   NC370571  27.026  30.958   5.511
 5471POPC   PO470572  26.573  30.492   5.285
 5471POPC   GL170573  26.618  30.697   5.703
 5471POPC   GL270574  26.929  30.657   5.926
 5471POPC   C1A70575  26.512  30.783   6.150
 5471POPC   D2A70576  26.701  30.648   6.535
 5471POPC   C3A70577  26.592  30.795   6.945
 5471POPC   C4A70578  26.731  30.427   7.168
 5471POPC   C1B70579  26.973  31.000   6.239
 5471POPC   C2B70580  27.031  31.081   6.685
 5471POPC   C3B70581  27.102  30.844   7.083
 5471POPC   C4B70582  27.069  30.980   7.537
 5472POPC   NC370583  33.387  13.621   5.400
 5472POPC   PO470584  34.019  13.379   5.222
 5472POPC   GL170585  33.821  13.528   5.650
 5472POPC   GL270586  33.624  13.822   5.797
 5472POPC   C1A70587  33.713  13.403   6.083
 5472POPC   D2A70588  33.915  13.526   6.480
 5472POPC   C3A70589  33.852  13.402   6.917
 5472POPC   C4A70590  33.939  13.719   7.238
 5472POPC   C1B70591  33.454  13.841   6.236
 5472POPC   C2B70592  33.450  13.704   6.680
 5472POPC   C3B70593  33.453  13.659   7.118
 5472POPC   C4B70594  33.361  13.258   7.332
 5473POPC   NC370595  33.583  35.927   5.422
 5473POPC   PO470596  34.087  36.333   5.576
 5473POPC   GL170597  33.763  36.280   5.863
 5473POPC   GL270598  33.827  35.968   5.867
 5473POPC   C1A70599  33.650  36.153   6.304
 5473POPC   D2A70600  33.886  36.274   6.658
 5473POPC   C3A70601  33.786  36.165   7.086
 5473POPC   C4A70602  33.404  36.170   7.351
 5473POPC   C1B70603  34.033  35.802   6.181
 5473POPC   C2B70604  33.876  35.725   6.576
 5473POPC   C3B70605  34.071  35.759   6.950
 5473POPC   C4B70606  34.209  35.568   7.306
 5474POPC   NC370607  21.438  18.589   5.375
 5474POPC   PO470608  21.451  17.933   5.395
 5474POPC   GL170609  21.429  18.209   5.776
 5474POPC   GL270610  21.236  18.526   5.854
 5474POPC   C1A70611  21.453  18.131   6.225
 5474POPC   D2A70612  21.596  18.055   6.667
 5474POPC   C3A70613  21.266  18.084   6.997
 5474POPC   C4A70614  21.386  18.072   7.440
 5474POPC   C1B70615  21.561  18.620   6.193
 5474POPC   C2B70616  21.604  18.583   6.684
 5474POPC   C3B70617  21.548  18.486   7.168
 5474POPC   C4B70618  21.547  18.495   7.672
 5475POPC   NC370619  25.987   3.868   5.593
 5475POPC   PO470620  25.638   3.332   5.403
 5475POPC   GL170621  25.981   3.341   5.761
 5475POPC   GL270622  26.339   3.478   5.806
 5475POPC   C1A70623  25.950   3.520   6.201
 5475POPC   D2A70624  25.683   3.582   6.563
 5475POPC   C3A70625  25.833   3.734   6.945
 5475POPC   C4A70626  25.688   3.561   7.271
 5475POPC   C1B70627  26.456   3.431   6.263
 5475POPC   C2B70628  26.516   3.308   6.707
 5475POPC   C3B70629  26.146   3.320   6.968
 5475POPC   C4B70630  26.094   3.159   7.374
 5476POPC   NC370631  14.950  29.480   5.587
 5476POPC   PO470632  14.933  28.830   5.613
 5476POPC   GL170633  15.063  29.005   5.968
 5476POPC   GL270634  15.277  29.328   5.971
 5476POPC   C1A70635  15.222  28.904   6.366
 5476POPC   D2A70636  15.580  29.116   6.538
 5476POPC   C3A70637  15.440  29.218   6.950
 5476POPC   C4A70638  15.289  29.067   7.347
 5476POPC   C1B70639  14.998  29.382   6.319
 5476POPC   C2B70640  14.928  29.593   6.722
 5476POPC   C3B70641  14.998  29.448   7.137
 5476POPC   C4B70642  15.023  29.528   7.589
 5477POPC   NC370643   3.339  34.224   5.084
 5477POPC   PO470644   3.634  33.823   5.504
 5477POPC   GL170645   3.432  33.910   5.846
 5477POPC   GL270646   3.373  34.253   5.820
 5477POPC   C1A70647   3.346  33.670   6.220
 5477POPC   D2A70648   3.411  33.410   6.552
 5477POPC   C3A70649   3.249  33.564   6.923
 5477POPC   C4A70650   3.352  33.828   7.249
 5477POPC   C1B70651   3.540  34.166   6.249
 5477POPC   C2B70652   3.488  33.963   6.627
 5477POPC   C3B70653   3.610  34.175   6.994
 5477POPC   C4B70654   3.705  34.373   7.386
 5478POPC   NC370655  21.698  20.924   5.170
 5478POPC   PO470656  21.168  20.641   5.310
 5478POPC   GL170657  21.278  20.620   5.776
 5478POPC   GL270658  21.487  20.340   5.903
 5478POPC   C1A70659  21.323  20.718   6.239
 5478POPC   D2A70660  21.428  20.649   6.682
 5478POPC   C3A70661  21.216  20.939   6.974
 5478POPC   C4A70662  21.310  21.006   7.423
 5478POPC   C1B70663  21.716  20.389   6.312
 5478POPC   C2B70664  21.826  20.326   6.760
 5478POPC   C3B70665  21.569  20.259   7.056
 5478POPC   C4B70666  21.275  20.509   7.211
 5479POPC   NC370667  29.972  23.113   5.494
 5479POPC   PO470668  30.337  22.506   5.652
 5479POPC   GL170669  29.993  22.630   5.962
 5479POPC   GL270670  29.979  22.995   5.980
 5479POPC   C1A70671  29.889  22.732   6.403
 5479POPC   D2A70672  30.101  22.975   6.700
 5479POPC   C3A70673  30.064  22.816   7.115
 5479POPC   C4A70674  29.901  22.509   7.420
 5479POPC   C1B70675  29.600  23.158   6.184
 5479POPC   C2B70676  29.386  23.214   6.586
 5479POPC   C3B70677  29.631  23.113   6.959
 5479POPC   C4B70678  29.611  22.906   7.359
 5480POPC   NC370679   5.473  38.388   5.231
 5480POPC   PO470680   6.172  38.230   5.326
 5480POPC   GL170681   5.849  38.216   5.659
 5480POPC   GL270682   5.613  37.949   5.708
 5480POPC   C1A70683   5.924  38.300   6.107
 5480POPC   D2A70684   5.971  38.646   6.439
 5480POPC   C3A70685   6.083  38.540   6.870
 5480POPC   C4A70686   5.790  38.554   7.191
 5480POPC   C1B70687   5.633  37.813   6.119
 5480POPC   C2B70688   5.830  37.950   6.482
 5480POPC   C3B70689   5.779  38.128   6.877
 5480POPC   C4B70690   6.063  38.106   7.235
 5481POPC   NC370691  25.204  32.965   5.210
 5481POPC   PO470692  25.155  33.397   5.674
 5481POPC   GL170693  25.153  33.027   5.874
 5481POPC   GL270694  25.472  32.902   5.777
 5481POPC   C1A70695  25.155  33.002   6.324
 5481POPC   D2A70696  25.285  32.726   6.653
 5481POPC   C3A70697  25.016  32.762   7.023
 5481POPC   C4A70698  25.030  32.859   7.466
 5481POPC   C1B70699  25.588  33.206   6.134
 5481POPC   C2B70700  25.494  33.344   6.572
 5481POPC   C3B70701  25.371  33.164   6.956
 5481POPC   C4B70702  24.948  33.249   7.051
 5482POPC   NC370703   7.139  34.458   5.476
 5482POPC   PO470704   7.113  33.822   5.259
 5482POPC   GL170705   7.157  33.756   5.735
 5482POPC   GL270706   7.186  34.032   5.979
 5482POPC   C1A70707   7.203  33.525   6.176
 5482POPC   D2A70708   7.248  33.412   6.649
 5482POPC   C3A70709   7.098  33.558   7.068
 5482POPC   C4A70710   7.296  33.839   7.350
 5482POPC   C1B70711   7.382  33.944   6.425
 5482POPC   C2B70712   7.524  33.788   6.864
 5482POPC   C3B70713   7.752  33.999   7.225
 5482POPC   C4B70714   7.580  34.204   7.618
 5483POPC   NC370715  28.656   4.257   5.317
 5483POPC   PO470716  28.094   3.942   5.515
 5483POPC   GL170717  28.392   4.104   5.829
 5483POPC   GL270718  28.700   4.350   5.808
 5483POPC   C1A70719  28.242   4.100   6.261
 5483POPC   D2A70720  28.105   4.362   6.546
 5483POPC   C3A70721  28.221   4.288   6.929
 5483POPC   C4A70722  28.279   3.927   7.135
 5483POPC   C1B70723  28.741   4.234   6.240
 5483POPC   C2B70724  28.648   4.356   6.661
 5483POPC   C3B70725  28.684   4.278   7.137
 5483POPC   C4B70726  28.648   4.319   7.605
 5484POPC   NC370727  21.873  10.269   5.339
 5484POPC   PO470728  22.070  10.944   5.359
 5484POPC   GL170729  22.090  10.637   5.696
 5484POPC   GL270730  21.790  10.530   5.839
 5484POPC   C1A70731  22.164  10.625   6.177
 5484POPC   D2A70732  22.358  10.475   6.583
 5484POPC   C3A70733  22.231  10.509   7.027
 5484POPC   C4A70734  22.286  10.613   7.496
 5484POPC   C1B70735  21.698  10.799   6.235
 5484POPC   C2B70736  21.894  10.782   6.659
 5484POPC   C3B70737  21.758  10.714   7.096
 5484POPC   C4B70738  21.787  10.778   7.572
 5485POPC   NC370739  40.301  22.447   5.428
 5485POPC   PO470740  40.185  23.108   5.326
 5485POPC   GL170741  40.154  23.079   5.786
 5485POPC   GL270742  39.974  22.787   5.723
 5485POPC   C1A70743  40.132  23.105   6.287
 5485POPC   D2A70744  40.175  23.139   6.755
 5485POPC   C3A70745  40.123  22.768   7.026
 5485POPC   C4A70746  40.305  22.583   7.390
 5485POPC   C1B70747  39.700  23.030   6.029
 5485POPC   C2B70748  39.564  22.960   6.431
 5485POPC   C3B70749  39.690  22.989   6.830
 5485POPC   C4B70750  39.737  23.200   7.174
 5486POPC   NC370751  39.761  31.768   5.474
 5486POPC   PO470752  39.700  31.101   5.475
 5486POPC   GL170753  40.136  31.160   5.686
 5486POPC   GL270754  40.203  31.530   5.707
 5486POPC   C1A70755  40.308  31.240   6.121
 5486POPC   D2A70756  40.044  31.252   6.486
 5486POPC   C3A70757  40.219  31.269   6.895
 5486POPC   C4A70758  40.075  31.274   7.298
 5486POPC   C1B70759  40.239  31.738   6.141
 5486POPC   C2B70760  40.260  31.730   6.627
 5486POPC   C3B70761  40.043  31.736   7.043
 5486POPC   C4B70762  40.192  31.743   7.467
 5487POPC   NC370763  43.356  22.748   5.356
 5487POPC   PO470764  42.788  23.130   5.353
 5487POPC   GL170765  42.956  23.038   5.739
 5487POPC   GL270766  43.259  23.218   5.800
 5487POPC   C1A70767  42.953  22.919   6.186
 5487POPC   D2A70768  43.030  23.153   6.595
 5487POPC   C3A70769  43.044  22.833   6.914
 5487POPC   C4A70770  42.808  22.721   7.280
 5487POPC   C1B70771  43.405  23.167   6.221
 5487POPC   C2B70772  43.494  22.913   6.591
 5487POPC   C3B70773  43.564  22.967   7.036
 5487POPC   C4B70774  43.214  23.103   7.316
 5488POPC   NC370775  15.389  42.959   5.440
 5488POPC   PO470776  14.759  43.182   5.552
 5488POPC   GL170777  14.950  43.296   5.934
 5488POPC   GL270778  15.285  43.259   5.849
 5488POPC   C1A70779  15.048  43.318   6.390
 5488POPC   D2A70780  15.028  43.059   6.773
 5488POPC   C3A70781  15.066  43.129   7.206
 5488POPC   C4A70782  14.850  43.007   7.571
 5488POPC   C1B70783  15.499  43.078   6.195
 5488POPC   C2B70784  15.499  43.214   6.615
 5488POPC   C3B70785  15.610  43.194   7.015
 5488POPC   C4B70786  15.533  43.021   7.406
 5489POPC   NC370787   5.932  30.193   5.300
 5489POPC   PO470788   5.294  30.202   5.129
 5489POPC   GL170789   5.540  30.155   5.633
 5489POPC   GL270790   5.387  30.338   5.924
 5489POPC   C1A70791   5.766  29.959   6.035
 5489POPC   D2A70792   5.745  29.805   6.521
 5489POPC   C3A70793   5.911  29.860   6.966
 5489POPC   C4A70794   6.271  29.715   7.228
 5489POPC   C1B70795   5.582  30.320   6.337
 5489POPC   C2B70796   5.787  30.285   6.717
 5489POPC   C3B70797   5.638  30.292   7.140
 5489POPC   C4B70798   5.757  30.263   7.591
 5490POPC   NC370799  34.991  26.330   5.402
 5490POPC   PO470800  35.746  26.316   5.362
 5490POPC   GL170801  35.612  26.143   5.784
 5490POPC   GL270802  35.236  26.219   5.856
 5490POPC   C1A70803  35.593  26.232   6.244
 5490POPC   D2A70804  35.410  26.266   6.672
 5490POPC   C3A70805  35.687  26.196   6.989
 5490POPC   C4A70806  35.809  26.260   7.402
 5490POPC   C1B70807  35.104  26.421   6.268
 5490POPC   C2B70808  34.897  26.442   6.668
 5490POPC   C3B70809  35.010  26.186   7.023
 5490POPC   C4B70810  35.316  26.330   7.317
 5491POPC   NC370811  29.446  21.904   5.209
 5491POPC   PO470812  28.988  22.363   5.348
 5491POPC   GL170813  29.282  22.136   5.649
 5491POPC   GL270814  29.371  21.780   5.724
 5491POPC   C1A70815  29.266  22.124   6.116
 5491POPC   D2A70816  29.230  22.274   6.572
 5491POPC   C3A70817  29.005  22.109   6.941
 5491POPC   C4A70818  29.046  22.136   7.390
 5491POPC   C1B70819  29.599  21.715   6.135
 5491POPC   C2B70820  29.388  21.794   6.537
 5491POPC   C3B70821  29.432  21.857   6.975
 5491POPC   C4B70822  29.592  21.794   7.384
 5492POPC   NC370823  16.378  14.394   5.388
 5492POPC   PO470824  17.071  14.298   5.549
 5492POPC   GL170825  16.705  14.315   5.827
 5492POPC   GL270826  16.785  14.646   5.919
 5492POPC   C1A70827  16.575  14.375   6.306
 5492POPC   D2A70828  16.602  14.600   6.688
 5492POPC   C3A70829  16.338  14.373   6.935
 5492POPC   C4A70830  16.467  14.071   7.195
 5492POPC   C1B70831  17.061  14.358   6.198
 5492POPC   C2B70832  16.945  14.207   6.617
 5492POPC   C3B70833  16.882  14.325   7.050
 5492POPC   C4B70834  16.925  14.724   7.228
 5493POPC   NC370835  42.805  33.412   5.262
 5493POPC   PO470836  42.567  33.981   5.635
 5493POPC   GL170837  42.319  33.980   5.919
 5493POPC   GL270838  42.199  34.345   5.812
 5493POPC   C1A70839  42.498  33.730   6.266
 5493POPC   D2A70840  42.554  33.428   6.601
 5493POPC   C3A70841  42.564  33.672   6.975
 5493POPC   C4A70842  42.232  33.703   7.251
 5493POPC   C1B70843  42.311  34.349   6.244
 5493POPC   C2B70844  42.197  34.028   6.545
 5493POPC   C3B70845  42.034  34.057   6.960
 5493POPC   C4B70846  42.005  34.135   7.412
 5494POPC   NC370847  38.166   3.668   5.519
 5494POPC   PO470848  38.907   3.650   5.491
 5494POPC   GL170849  38.620   3.547   5.831
 5494POPC   GL270850  38.658   3.184   5.817
 5494POPC   C1A70851  38.479   3.699   6.249
 5494POPC   D2A70852  38.573   3.974   6.609
 5494POPC   C3A70853  38.429   3.745   6.956
 5494POPC   C4A70854  38.488   3.564   7.363
 5494POPC   C1B70855  38.353   3.190   6.178
 5494POPC   C2B70856  38.250   3.340   6.610
 5494POPC   C3B70857  38.315   3.241   7.022
 5494POPC   C4B70858  38.600   2.984   7.223
 5495POPC   NC370859  31.291  21.989   5.316
 5495POPC   PO470860  31.895  22.179   5.113
 5495POPC   GL170861  31.706  21.934   5.599
 5495POPC   GL270862  31.414  22.201   5.753
 5495POPC   C1A70863  31.692  21.997   6.127
 5495POPC   D2A70864  31.809  21.855   6.582
 5495POPC   C3A70865  31.825  22.038   7.030
 5495POPC   C4A70866  31.791  22.246   7.438
 5495POPC   C1B70867  31.170  22.087   6.128
 5495POPC   C2B70868  31.275  22.106   6.547
 5495POPC   C3B70869  31.387  21.859   6.879
 5495POPC   C4B70870  31.373  21.958   7.311
 5496POPC   NC370871   3.677  28.673   5.601
 5496POPC   PO470872   3.154  28.262   5.405
 5496POPC   GL170873   3.372  28.245   5.796
 5496POPC   GL270874   3.317  28.531   5.973
 5496POPC   C1A70875   3.624  28.215   6.188
 5496POPC   D2A70876   3.542  28.104   6.557
 5496POPC   C3A70877   3.721  28.359   6.868
 5496POPC   C4A70878   3.910  28.182   7.248
 5496POPC   C1B70879   3.591  28.770   6.263
 5496POPC   C2B70880   3.781  28.920   6.619
 5496POPC   C3B70881   3.513  28.846   6.937
 5496POPC   C4B70882   3.472  28.568   7.252
 5497POPC   NC370883  26.470  35.010   5.607
 5497POPC   PO470884  25.863  35.308   5.477
 5497POPC   GL170885  25.990  35.020   5.818
 5497POPC   GL270886  26.197  35.285   5.941
 5497POPC   C1A70887  26.244  34.875   6.222
 5497POPC   D2A70888  26.204  34.776   6.654
 5497POPC   C3A70889  26.004  35.073   6.914
 5497POPC   C4A70890  25.910  35.125   7.326
 5497POPC   C1B70891  25.889  35.275   6.277
 5497POPC   C2B70892  25.982  35.509   6.652
 5497POPC   C3B70893  26.011  35.556   7.100
 5497POPC   C4B70894  25.565  35.522   7.247
 5498POPC   NC370895  17.352  13.059   5.498
 5498POPC   PO470896  17.887  12.653   5.498
 5498POPC   GL170897  17.712  12.893   5.829
 5498POPC   GL270898  17.583  12.603   5.955
 5498POPC   C1A70899  17.456  13.079   6.180
 5498POPC   D2A70900  17.370  13.297   6.586
 5498POPC   C3A70901  17.541  13.126   6.993
 5498POPC   C4A70902  17.376  12.962   7.404
 5498POPC   C1B70903  17.317  12.588   6.275
 5498POPC   C2B70904  17.502  12.785   6.616
 5498POPC   C3B70905  17.242  12.717   6.971
 5498POPC   C4B70906  17.259  12.446   7.311
 5499POPC   NC370907  21.185   7.944   5.199
 5499POPC   PO470908  21.133   8.547   5.483
 5499POPC   GL170909  21.387   8.268   5.730
 5499POPC   GL270910  21.244   7.912   5.729
 5499POPC   C1A70911  21.530   8.096   6.121
 5499POPC   D2A70912  21.305   8.079   6.522
 5499POPC   C3A70913  21.501   8.109   6.924
 5499POPC   C4A70914  21.465   8.368   7.265
 5499POPC   C1B70915  20.990   7.920   6.135
 5499POPC   C2B70916  20.802   7.993   6.572
 5499POPC   C3B70917  21.029   7.955   6.971
 5499POPC   C4B70918  21.266   7.899   7.395
 5500POPC   NC370919  32.175  36.797   5.375
 5500POPC   PO470920  32.463  37.383   5.269
 5500POPC   GL170921  32.382  37.188   5.678
 5500POPC   GL270922  32.015  37.156   5.763
 5500POPC   C1A70923  32.368  37.269   6.126
 5500POPC   D2A70924  32.026  37.246   6.424
 5500POPC   C3A70925  32.123  37.161   6.850
 5500POPC   C4A70926  32.328  36.899   7.118
 5500POPC   C1B70927  32.072  36.834   6.108
 5500POPC   C2B70928  32.072  36.699   6.560
 5500POPC   C3B70929  31.893  36.685   6.979
 5500POPC   C4B70930  31.823  36.381   7.257
 5501POPC   NC370931   5.953   7.851   5.569
 5501POPC   PO470932   5.790   8.456   5.544
 5501POPC   GL170933   5.630   8.381   5.942
 5501POPC   GL270934   5.995   8.296   6.025
 5501POPC   C1A70935   5.635   8.418   6.411
 5501POPC   D2A70936   5.946   8.207   6.701
 5501POPC   C3A70937   6.173   8.462   7.016
 5501POPC   C4A70938   6.008   8.575   7.402
 5501POPC   C1B70939   5.809   7.953   6.246
 5501POPC   C2B70940   5.452   7.938   6.533
 5501POPC   C3B70941   5.562   7.920   6.937
 5501POPC   C4B70942   5.884   8.084   7.209
 5502POPC   NC370943   0.219  39.264   5.378
 5502POPC   PO470944   0.831  38.981   5.450
 5502POPC   GL170945   0.654  39.261   5.753
 5502POPC   GL270946   0.319  39.140   5.860
 5502POPC   C1A70947   0.689  39.160   6.192
 5502POPC   D2A70948   0.383  39.006   6.441
 5502POPC   C3A70949   0.419  39.091   6.856
 5502POPC   C4A70950   0.318  39.122   7.248
 5502POPC   C1B70951   0.121  39.374   6.187
 5502POPC   C2B70952  44.946  39.291   6.561
 5502POPC   C3B70953   0.029  39.441   6.938
 5502POPC   C4B70954  44.933  39.435   7.333
 5503POPC   NC370955  19.521  25.716   5.493
 5503POPC   PO470956  19.976  26.228   5.406
 5503POPC   GL170957  19.872  26.007   5.775
 5503POPC   GL270958  20.195  26.021   5.878
 5503POPC   C1A70959  19.723  25.979   6.219
 5503POPC   D2A70960  19.663  25.708   6.587
 5503POPC   C3A70961  19.661  25.831   7.016
 5503POPC   C4A70962  19.427  25.714   7.331
 5503POPC   C1B70963  20.184  26.160   6.307
 5503POPC   C2B70964  19.967  26.133   6.722
 5503POPC   C3B70965  20.100  26.112   7.166
 5503POPC   C4B70966  20.279  26.038   7.583
 5504POPC   NC370967  35.755  33.246   5.435
 5504POPC   PO470968  35.511  32.716   5.114
 5504POPC   GL170969  35.436  32.888   5.653
 5504POPC   GL270970  35.146  32.701   5.878
 5504POPC   C1A70971  35.523  32.912   6.146
 5504POPC   D2A70972  35.347  33.109   6.558
 5504POPC   C3A70973  35.622  33.230   6.934
 5504POPC   C4A70974  35.739  33.214   7.378
 5504POPC   C1B70975  35.002  32.732   6.301
 5504POPC   C2B70976  34.926  32.860   6.730
 5504POPC   C3B70977  35.174  32.989   7.067
 5504POPC   C4B70978  35.157  33.005   7.535
 5505POPC   NC370979  31.706  13.943   5.527
 5505POPC   PO470980  31.301  13.445   5.364
 5505POPC   GL170981  31.355  13.607   5.751
 5505POPC   GL270982  31.172  13.863   5.651
 5505POPC   C1A70983  31.580  13.645   6.151
 5505POPC   D2A70984  31.484  13.795   6.558
 5505POPC   C3A70985  31.678  13.564   6.875
 5505POPC   C4A70986  31.554  13.605   7.273
 5505POPC   C1B70987  31.150  13.916   6.103
 5505POPC   C2B70988  30.989  13.924   6.529
 5505POPC   C3B70989  31.142  13.875   6.954
 5505POPC   C4B70990  30.900  14.021   7.290
 5506POPC   NC370991  23.180  44.028   5.087
 5506POPC   PO470992  22.741  43.611   5.435
 5506POPC   GL170993  22.767  43.651   5.846
 5506POPC   GL270994  22.746  43.992   5.824
 5506POPC   C1A70995  22.940  43.703   6.243
 5506POPC   D2A70996  22.982  44.046   6.530
 5506POPC   C3A70997  23.067  43.991   6.932
 5506POPC   C4A70998  22.832  43.840   7.248
 5506POPC   C1B70999  22.485  43.980   6.142
 5506POPC   C2B71000  22.504  43.856   6.548
 5506POPC   C3B71001  22.546  44.106   6.920
 5506POPC   C4B71002  22.435  44.239   7.325
 5507POPC   NC371003  36.358  34.883   5.600
 5507POPC   PO471004  35.927  34.421   5.474
 5507POPC   GL171005  35.995  34.631   5.859
 5507POPC   GL271006  36.326  34.489   5.922
 5507POPC   C1A71007  35.999  34.812   6.290
 5507POPC   D2A71008  36.232  34.780   6.704
 5507POPC   C3A71009  36.117  34.433   6.964
 5507POPC   C4A71010  36.113  34.427   7.410
 5507POPC   C1B71011  36.507  34.688   6.263
 5507POPC   C2B71012  36.689  34.539   6.585
 5507POPC   C3B71013  36.623  34.408   6.957
 5507POPC   C4B71014  36.518  34.712   7.240
 5508POPC   NC371015   1.881  11.777   5.621
 5508POPC   PO471016   2.028  12.303   5.244
 5508POPC   GL171017   1.919  12.315   5.700
 5508POPC   GL271018   2.203  12.149   5.861
 5508POPC   C1A71019   1.827  12.237   6.172
 5508POPC   D2A71020   2.138  12.337   6.464
 5508POPC   C3A71021   2.025  12.445   6.893
 5508POPC   C4A71022   1.722  12.473   7.252
 5508POPC   C1B71023   2.198  11.881   6.234
 5508POPC   C2B71024   1.959  11.928   6.669
 5508POPC   C3B71025   1.907  11.907   7.103
 5508POPC   C4B71026   2.231  11.788   7.405
 5509POPC   NC371027   0.440  35.670   5.470
 5509POPC   PO471028   0.051  35.110   5.271
 5509POPC   GL171029   0.163  35.055   5.753
 5509POPC   GL271030   0.422  35.301   5.834
 5509POPC   C1A71031   0.131  35.246   6.224
 5509POPC   D2A71032   0.291  35.488   6.617
 5509POPC   C3A71033   0.194  35.200   6.990
 5509POPC   C4A71034   0.442  34.871   7.202
 5509POPC   C1B71035   0.619  35.461   6.195
 5509POPC   C2B71036   0.845  35.371   6.573
 5509POPC   C3B71037   0.837  35.478   6.977
 5509POPC   C4B71038   0.523  35.460   7.257
 5510POPC   NC371039  21.757  30.938   5.543
 5510POPC   PO471040  21.261  30.421   5.377
 5510POPC   GL171041  21.267  30.474   5.850
 5510POPC   GL271042  21.583  30.652   5.951
 5510POPC   C1A71043  21.160  30.410   6.321
 5510POPC   D2A71044  21.015  30.701   6.669
 5510POPC   C3A71045  21.200  30.646   7.106
 5510POPC   C4A71046  21.481  30.301   7.243
 5510POPC   C1B71047  21.631  30.675   6.402
 5510POPC   C2B71048  21.815  30.530   6.795
 5510POPC   C3B71049  21.741  30.741   7.168
 5510POPC   C4B71050  21.504  31.106   7.256
 5511POPC   NC371051  18.316  16.999   5.560
 5511POPC   PO471052  18.196  17.646   5.334
 5511POPC   GL171053  18.127  17.733   5.749
 5511POPC   GL271054  18.473  17.724   5.902
 5511POPC   C1A71055  18.040  17.545   6.148
 5511POPC   D2A71056  18.245  17.633   6.536
 5511POPC   C3A71057  18.079  17.680   6.941
 5511POPC   C4A71058  18.446  17.866   7.182
 5511POPC   C1B71059  18.704  17.537   6.262
 5511POPC   C2B71060  18.583  17.213   6.541
 5511POPC   C3B71061  18.420  17.305   6.923
 5511POPC   C4B71062  18.342  17.272   7.328
 5512POPC   NC371063   5.946  26.556   4.994
 5512POPC   PO471064   6.121  26.935   5.372
 5512POPC   GL171065   5.893  26.965   5.801
 5512POPC   GL271066   5.540  26.934   5.892
 5512POPC   C1A71067   5.868  27.106   6.241
 5512POPC   D2A71068   5.866  26.915   6.651
 5512POPC   C3A71069   5.758  27.074   7.048
 5512POPC   C4A71070   5.686  26.843   7.412
 5512POPC   C1B71071   5.402  26.889   6.357
 5512POPC   C2B71072   5.308  26.926   6.822
 5512POPC   C3B71073   5.233  27.044   7.263
 5512POPC   C4B71074   5.348  27.094   7.734
 5513POPC   NC371075  15.034  30.092   5.156
 5513POPC   PO471076  15.390  29.653   5.522
 5513POPC   GL171077  15.188  29.859   5.843
 5513POPC   GL271078  14.991  30.113   5.666
 5513POPC   C1A71079  15.201  29.833   6.281
 5513POPC   D2A71080  15.426  29.598   6.569
 5513POPC   C3A71081  15.389  29.746   6.976
 5513POPC   C4A71082  15.496  29.583   7.366
 5513POPC   C1B71083  14.947  30.233   6.098
 5513POPC   C2B71084  15.192  30.277   6.535
 5513POPC   C3B71085  15.066  30.158   6.954
 5513POPC   C4B71086  15.059  29.946   7.334
 5514POPC   NC371087  42.709   2.812   5.611
 5514POPC   PO471088  42.213   2.541   5.339
 5514POPC   GL171089  42.193   2.751   5.751
 5514POPC   GL271090  41.992   2.525   5.902
 5514POPC   C1A71091  42.297   2.906   6.197
 5514POPC   D2A71092  41.996   2.852   6.518
 5514POPC   C3A71093  42.031   2.730   6.935
 5514POPC   C4A71094  42.099   2.959   7.317
 5514POPC   C1B71095  42.419   2.431   6.140
 5514POPC   C2B71096  42.420   2.532   6.580
 5514POPC   C3B71097  42.500   2.396   6.971
 5514POPC   C4B71098  42.318   2.483   7.314
 5515POPC   NC371099  16.140  29.104   5.367
 5515POPC   PO471100  16.106  29.731   5.167
 5515POPC   GL171101  15.895  29.474   5.608
 5515POPC   GL271102  15.648  29.191   5.642
 5515POPC   C1A71103  15.923  29.318   6.092
 5515POPC   D2A71104  16.129  29.052   6.465
 5515POPC   C3A71105  16.216  29.122   6.936
 5515POPC   C4A71106  15.860  29.205   7.248
 5515POPC   C1B71107  15.596  28.892   6.017
 5515POPC   C2B71108  15.677  28.630   6.415
 5515POPC   C3B71109  15.840  28.775   6.832
 5515POPC   C4B71110  15.723  28.734   7.265
 5516POPC   NC371111   5.559  36.478   5.243
 5516POPC   PO471112   5.883  35.915   5.427
 5516POPC   GL171113   5.841  36.169   5.772
 5516POPC   GL271114   5.824  36.485   5.690
 5516POPC   C1A71115   5.589  36.230   6.164
 5516POPC   D2A71116   5.445  36.152   6.599
 5516POPC   C3A71117   5.683  36.142   7.003
 5516POPC   C4A71118   6.081  35.990   7.163
 5516POPC   C1B71119   5.983  36.536   6.111
 5516POPC   C2B71120   5.848  36.467   6.568
 5516POPC   C3B71121   6.035  36.542   6.949
 5516POPC   C4B71122   6.369  36.419   7.204
 5517POPC   NC371123  26.334  34.940   5.083
 5517POPC   PO471124  26.622  35.464   5.461
 5517POPC   GL171125  26.952  35.517   5.756
 5517POPC   GL271126  26.878  35.184   5.884
 5517POPC   C1A71127  27.139  35.524   6.178
 5517POPC   D2A71128  27.221  35.290   6.587
 5517POPC   C3A71129  26.916  35.261   6.938
 5517POPC   C4A71130  26.804  35.581   7.245
 5517POPC   C1B71131  26.756  35.125   6.349
 5517POPC   C2B71132  26.453  35.230   6.697
 5517POPC   C3B71133  26.434  35.229   7.166
 5517POPC   C4B71134  26.305  35.330   7.598
 5518POPC   NC371135  20.173  40.675   5.330
 5518POPC   PO471136  19.536  40.471   5.395
 5518POPC   GL171137  19.791  40.695   5.733
 5518POPC   GL271138  20.005  40.956   5.773
 5518POPC   C1A71139  19.741  40.892   6.195
 5518POPC   D2A71140  19.879  40.715   6.602
 5518POPC   C3A71141  19.800  40.893   7.020
 5518POPC   C4A71142  19.689  40.762   7.440
 5518POPC   C1B71143  20.223  41.061   6.118
 5518POPC   C2B71144  20.146  41.171   6.526
 5518POPC   C3B71145  20.276  40.947   6.864
 5518POPC   C4B71146  20.213  41.148   7.230
 5519POPC   NC371147  43.323  37.729   5.321
 5519POPC   PO471148  42.644  37.667   5.363
 5519POPC   GL171149  42.909  37.698   5.725
 5519POPC   GL271150  43.153  37.415   5.711
 5519POPC   C1A71151  43.023  37.657   6.180
 5519POPC   D2A71152  42.947  37.418   6.572
 5519POPC   C3A71153  42.986  37.630   6.978
 5519POPC   C4A71154  43.159  37.995   7.220
 5519POPC   C1B71155  43.295  37.236   6.111
 5519POPC   C2B71156  43.452  37.446   6.472
 5519POPC   C3B71157  43.438  37.347   6.897
 5519POPC   C4B71158  43.401  37.558   7.278
 5520POPC   NC371159  23.638  40.297   5.212
 5520POPC   PO471160  23.414  39.700   5.557
 5520POPC   GL171161  23.523  40.054   5.809
 5520POPC   GL271162  23.641  40.371   5.736
 5520POPC   C1A71163  23.591  40.102   6.248
 5520POPC   D2A71164  23.692  39.793   6.549
 5520POPC   C3A71165  23.828  39.939   6.937
 5520POPC   C4A71166  23.648  39.827   7.292
 5520POPC   C1B71167  23.983  40.370   6.097
 5520POPC   C2B71168  24.074  40.236   6.552
 5520POPC   C3B71169  24.034  40.404   6.977
 5520POPC   C4B71170  23.965  40.203   7.398
 5521POPC   NC371171   1.580   1.859   5.607
 5521POPC   PO471172   2.312   1.865   5.579
 5521POPC   GL171173   2.035   1.949   5.895
 5521POPC   GL271174   1.939   2.248   5.813
 5521POPC   C1A71175   1.751   2.073   6.253
 5521POPC   D2A71176   1.653   1.907   6.667
 5521POPC   C3A71177   1.866   2.063   7.036
 5521POPC   C4A71178   1.796   1.715   7.309
 5521POPC   C1B71179   2.183   2.334   6.182
 5521POPC   C2B71180   2.141   2.146   6.595
 5521POPC   C3B71181   2.377   2.203   6.972
 5521POPC   C4B71182   2.226   2.355   7.378
 5522POPC   NC371183   1.003  26.325   5.241
 5522POPC   PO471184   1.621  26.249   5.428
 5522POPC   GL171185   1.273  26.224   5.729
 5522POPC   GL271186   1.009  25.937   5.705
 5522POPC   C1A71187   1.275  26.254   6.179
 5522POPC   D2A71188   1.375  26.444   6.588
 5522POPC   C3A71189   1.310  26.167   6.938
 5522POPC   C4A71190   1.455  26.162   7.345
 5522POPC   C1B71191   0.832  25.987   6.135
 5522POPC   C2B71192   0.910  26.184   6.560
 5522POPC   C3B71193   0.772  26.152   6.991
 5522POPC   C4B71194   1.008  25.859   7.254
 5523POPC   NC371195  36.806   4.887   5.570
 5523POPC   PO471196  37.243   5.319   5.527
 5523POPC   GL171197  37.151   5.181   5.908
 5523POPC   GL271198  36.848   5.355   5.881
 5523POPC   C1A71199  37.037   5.063   6.319
 5523POPC   D2A71200  36.820   4.875   6.664
 5523POPC   C3A71201  37.031   4.901   7.074
 5523POPC   C4A71202  36.985   5.020   7.510
 5523POPC   C1B71203  36.705   5.503   6.275
 5523POPC   C2B71204  36.859   5.389   6.692
 5523POPC   C3B71205  36.952   5.421   7.110
 5523POPC   C4B71206  36.991   5.518   7.529
 5524POPC   NC371207  16.558  34.172   5.637
 5524POPC   PO471208  16.806  34.811   5.546
 5524POPC   GL171209  16.616  34.626   5.885
 5524POPC   GL271210  16.884  34.394   5.959
 5524POPC   C1A71211  16.569  34.528   6.319
 5524POPC   D2A71212  16.757  34.735   6.647
 5524POPC   C3A71213  16.582  34.540   7.009
 5524POPC   C4A71214  16.482  34.427   7.467
 5524POPC   C1B71215  17.091  34.363   6.376
 5524POPC   C2B71216  17.096  34.403   6.825
 5524POPC   C3B71217  16.926  34.273   7.241
 5524POPC   C4B71218  16.954  34.456   7.692
 5525POPC   NC371219  21.055   0.128   5.458
 5525POPC   PO471220  21.056   0.761   5.518
 5525POPC   GL171221  21.218   0.525   5.833
 5525POPC   GL271222  21.567   0.631   5.779
 5525POPC   C1A71223  21.232   0.304   6.237
 5525POPC   D2A71224  21.023   0.348   6.631
 5525POPC   C3A71225  21.069   0.111   7.023
 5525POPC   C4A71226  21.450   0.143   7.286
 5525POPC   C1B71227  21.496   0.829   6.173
 5525POPC   C2B71228  21.458   0.656   6.587
 5525POPC   C3B71229  21.335   0.544   6.979
 5525POPC   C4B71230  21.435   0.739   7.303
 5526POPC   NC371231  27.029  19.737   5.382
 5526POPC   PO471232  27.558  19.510   5.220
 5526POPC   GL171233  27.543  19.498   5.677
 5526POPC   GL271234  27.235  19.378   5.731
 5526POPC   C1A71235  27.656  19.718   6.075
 5526POPC   D2A71236  27.707  19.693   6.546
 5526POPC   C3A71237  27.845  19.947   6.911
 5526POPC   C4A71238  28.040  19.840   7.291
 5526POPC   C1B71239  27.165  19.572   6.127
 5526POPC   C2B71240  27.227  19.401   6.545
 5526POPC   C3B71241  27.431  19.530   6.939
 5526POPC   C4B71242  27.534  19.791   7.316
 5527POPC   NC371243  19.374  40.953   5.414
 5527POPC   PO471244  18.669  40.628   5.462
 5527POPC   GL171245  18.960  40.812   5.765
 5527POPC   GL271246  19.270  40.635   5.808
 5527POPC   C1A71247  18.967  40.969   6.219
 5527POPC   D2A71248  18.804  41.089   6.655
 5527POPC   C3A71249  18.975  40.901   7.021
 5527POPC   C4A71250  19.348  41.060   7.172
 5527POPC   C1B71251  19.553  40.427   6.080
 5527POPC   C2B71252  19.347  40.618   6.411
 5527POPC   C3B71253  19.386  40.662   6.823
 5527POPC   C4B71254  19.307  40.518   7.218
 5528POPC   NC371255   0.368   6.164   5.371
 5528POPC   PO471256   0.219   5.512   5.389
 5528POPC   GL171257   0.447   5.767   5.734
 5528POPC   GL271258   0.586   6.038   5.810
 5528POPC   C1A71259   0.653   5.688   6.156
 5528POPC   D2A71260   0.524   5.835   6.575
 5528POPC   C3A71261   0.706   5.710   6.987
 5528POPC   C4A71262   0.389   5.848   7.284
 5528POPC   C1B71263   0.559   6.200   6.207
 5528POPC   C2B71264   0.737   6.315   6.596
 5528POPC   C3B71265   0.640   6.220   6.991
 5528POPC   C4B71266   0.842   6.102   7.375
 5529POPC   NC371267  28.570  39.373   5.415
 5529POPC   PO471268  28.021  39.014   5.266
 5529POPC   GL171269  28.190  38.997   5.747
 5529POPC   GL271270  28.380  39.265   5.855
 5529POPC   C1A71271  28.381  38.991   6.257
 5529POPC   D2A71272  28.514  39.355   6.544
 5529POPC   C3A71273  28.461  39.268   6.979
 5529POPC   C4A71274  28.699  39.327   7.380
 5529POPC   C1B71275  28.023  39.338   6.153
 5529POPC   C2B71276  28.002  39.495   6.600
 5529POPC   C3B71277  28.011  39.506   7.072
 5529POPC   C4B71278  28.053  39.575   7.549
 5530POPC   NC371279  36.792  44.378   5.502
 5530POPC   PO471280  36.908   0.014   5.249
 5530POPC   GL171281  36.902  44.887   5.677
 5530POPC   GL271282  37.194  44.720   5.723
 5530POPC   C1A71283  36.654  44.727   6.045
 5530POPC   D2A71284  36.742  44.622   6.494
 5530POPC   C3A71285  36.807  44.924   6.825
 5530POPC   C4A71286  37.080  44.961   7.156
 5530POPC   C1B71287  37.118  44.538   6.116
 5530POPC   C2B71288  37.283  44.403   6.496
 5530POPC   C3B71289  37.127  44.519   6.880
 5530POPC   C4B71290  37.289  44.517   7.288
 5531POPC   NC371291  16.562   0.349   5.304
 5531POPC   PO471292  16.459   0.686   5.776
 5531POPC   GL171293  16.791   0.520   5.899
 5531POPC   GL271294  16.814   0.193   5.734
 5531POPC   C1A71295  16.812   0.632   6.307
 5531POPC   D2A71296  16.673   0.478   6.692
 5531POPC   C3A71297  16.571   0.695   7.031
 5531POPC   C4A71298  16.653   0.479   7.366
 5531POPC   C1B71299  16.872   0.032   6.155
 5531POPC   C2B71300  17.023   0.060   6.606
 5531POPC   C3B71301  16.855   0.118   7.042
 5531POPC   C4B71302  16.838   0.026   7.497
 5532POPC   NC371303   7.991  13.214   5.356
 5532POPC   PO471304   7.633  12.605   5.267
 5532POPC   GL171305   7.425  12.572   5.692
 5532POPC   GL271306   7.380  12.915   5.828
 5532POPC   C1A71307   7.502  12.501   6.142
 5532POPC   D2A71308   7.495  12.792   6.516
 5532POPC   C3A71309   7.430  12.621   6.927
 5532POPC   C4A71310   7.472  12.811   7.338
 5532POPC   C1B71311   7.440  13.217   6.175
 5532POPC   C2B71312   7.575  13.340   6.577
 5532POPC   C3B71313   7.460  13.166   6.982
 5532POPC   C4B71314   7.225  13.250   7.426
 5533POPC   NC371315  27.878  13.161   5.482
 5533POPC   PO471316  27.542  12.615   5.195
 5533POPC   GL171317  27.602  12.743   5.704
 5533POPC   GL271318  27.747  13.050   5.944
 5533POPC   C1A71319  27.525  12.704   6.200
 5533POPC   D2A71320  27.642  12.950   6.585
 5533POPC   C3A71321  27.459  12.717   6.923
 5533POPC   C4A71322  27.767  12.511   7.202
 5533POPC   C1B71323  27.382  13.212   6.222
 5533POPC   C2B71324  27.339  13.384   6.611
 5533POPC   C3B71325  27.367  13.219   6.994
 5533POPC   C4B71326  27.601  13.000   7.313
 5534POPC   NC371327  37.871  13.280   5.076
 5534POPC   PO471328  37.693  13.846   5.379
 5534POPC   GL171329  37.572  13.773   5.799
 5534POPC   GL271330  37.546  13.433   5.793
 5534POPC   C1A71331  37.688  13.713   6.232
 5534POPC   D2A71332  37.785  13.893   6.615
 5534POPC   C3A71333  37.704  13.666   6.959
 5534POPC   C4A71334  37.679  13.816   7.379
 5534POPC   C1B71335  37.861  13.258   6.088
 5534POPC   C2B71336  37.987  13.384   6.517
 5534POPC   C3B71337  37.942  13.201   6.933
 5534POPC   C4B71338  37.710  13.300   7.312
 5535POPC   NC371339  38.987   8.445   5.180
 5535POPC   PO471340  39.450   8.096   5.500
 5535POPC   GL171341  39.476   8.255   5.864
 5535POPC   GL271342  39.195   8.459   5.934
 5535POPC   C1A71343  39.404   8.092   6.258
 5535POPC   D2A71344  39.559   8.239   6.623
 5535POPC   C3A71345  39.287   8.177   6.921
 5535POPC   C4A71346  39.456   8.119   7.301
 5535POPC   C1B71347  38.915   8.302   6.276
 5535POPC   C2B71348  38.811   8.342   6.708
 5535POPC   C3B71349  39.010   8.633   6.990
 5535POPC   C4B71350  39.440   8.641   7.103
 5536POPC   NC371351  25.623  37.229   5.385
 5536POPC   PO471352  25.306  36.702   5.425
 5536POPC   GL171353  25.305  36.998   5.747
 5536POPC   GL271354  25.320  36.727   5.977
 5536POPC   C1A71355  25.108  37.196   6.119
 5536POPC   D2A71356  25.273  37.127   6.538
 5536POPC   C3A71357  25.162  37.334   6.921
 5536POPC   C4A71358  25.107  37.205   7.340
 5536POPC   C1B71359  25.646  36.837   6.271
 5536POPC   C2B71360  25.691  36.899   6.710
 5536POPC   C3B71361  25.332  36.846   6.969
 5536POPC   C4B71362  25.217  36.611   7.298
 5537POPC   NC371363   5.600  19.470   5.369
 5537POPC   PO471364   5.847  20.041   5.365
 5537POPC   GL171365   5.771  19.822   5.771
 5537POPC   GL271366   5.430  19.760   5.752
 5537POPC   C1A71367   5.854  19.803   6.242
 5537POPC   D2A71368   5.785  19.818   6.715
 5537POPC   C3A71369   6.103  19.763   7.020
 5537POPC   C4A71370   6.216  20.155   7.196
 5537POPC   C1B71371   5.412  19.550   6.177
 5537POPC   C2B71372   5.467  19.421   6.611
 5537POPC   C3B71373   5.542  19.532   7.055
 5537POPC   C4B71374   5.637  19.903   7.351
 5538POPC   NC371375  29.324   4.805   5.460
 5538POPC   PO471376  29.557   5.406   5.432
 5538POPC   GL171377  29.173   5.332   5.767
 5538POPC   GL271378  28.973   5.001   5.822
 5538POPC   C1A71379  28.991   5.362   6.214
 5538POPC   D2A71380  28.982   5.457   6.684
 5538POPC   C3A71381  29.260   5.272   7.009
 5538POPC   C4A71382  29.339   5.061   7.435
 5538POPC   C1B71383  28.861   4.798   6.257
 5538POPC   C2B71384  28.863   4.941   6.717
 5538POPC   C3B71385  28.858   5.005   7.193
 5538POPC   C4B71386  28.922   4.769   7.614
 5539POPC   NC371387  23.496  26.815   5.237
 5539POPC   PO471388  24.021  26.366   5.332
 5539POPC   GL171389  23.778  26.582   5.653
 5539POPC   GL271390  23.969  26.851   5.809
 5539POPC   C1A71391  23.700  26.542   6.119
 5539POPC   D2A71392  23.804  26.443   6.554
 5539POPC   C3A71393  23.676  26.642   6.952
 5539POPC   C4A71394  23.917  26.497   7.336
 5539POPC   C1B71395  23.828  27.044   6.208
 5539POPC   C2B71396  23.855  27.299   6.591
 5539POPC   C3B71397  23.866  27.154   7.010
 5539POPC   C4B71398  23.700  26.957   7.357
 5540POPC   NC371399   2.444  29.067   5.386
 5540POPC   PO471400   3.067  29.252   5.293
 5540POPC   GL171401   2.973  29.332   5.748
 5540POPC   GL271402   2.625  29.413   5.730
 5540POPC   C1A71403   2.913  29.211   6.172
 5540POPC   D2A71404   2.687  29.037   6.497
 5540POPC   C3A71405   2.950  28.953   6.850
 5540POPC   C4A71406   2.726  29.159   7.138
 5540POPC   C1B71407   2.509  29.554   6.142
 5540POPC   C2B71408   2.347  29.521   6.558
 5540POPC   C3B71409   2.466  29.571   6.980
 5540POPC   C4B71410   2.601  29.578   7.411
 5541POPC   NC371411  25.808  28.732   5.430
 5541POPC   PO471412  25.825  28.111   5.689
 5541POPC   GL171413  26.018  28.461   5.819
 5541POPC   GL271414  25.702  28.574   5.938
 5541POPC   C1A71415  26.336  28.386   6.124
 5541POPC   D2A71416  26.426  28.499   6.538
 5541POPC   C3A71417  26.366  28.184   6.874
 5541POPC   C4A71418  26.183  28.361   7.221
 5541POPC   C1B71419  25.839  28.353   6.297
 5541POPC   C2B71420  25.951  28.397   6.697
 5541POPC   C3B71421  25.735  28.492   7.016
 5541POPC   C4B71422  25.720  28.281   7.407
 5542POPC   NC371423   2.341   7.574   5.350
 5542POPC   PO471424   2.994   7.623   5.094
 5542POPC   GL171425   2.730   7.412   5.608
 5542POPC   GL271426   2.426   7.322   5.818
 5542POPC   C1A71427   2.814   7.359   6.118
 5542POPC   D2A71428   3.095   7.479   6.451
 5542POPC   C3A71429   2.988   7.390   6.873
 5542POPC   C4A71430   3.092   7.381   7.308
 5542POPC   C1B71431   2.385   7.099   6.190
 5542POPC   C2B71432   2.495   7.290   6.595
 5542POPC   C3B71433   2.517   7.330   7.031
 5542POPC   C4B71434   2.602   7.374   7.456
 5543POPC   NC371435  23.169  44.821   5.471
 5543POPC   PO471436  22.820  44.217   5.355
 5543POPC   GL171437  22.992  44.419   5.745
 5543POPC   GL271438  22.896  44.733   5.856
 5543POPC   C1A71439  23.025  44.424   6.217
 5543POPC   D2A71440  23.159  44.526   6.659
 5543POPC   C3A71441  22.984  44.453   7.122
 5543POPC   C4A71442  23.241  44.583   7.503
 5543POPC   C1B71443  23.188  44.916   6.173
 5543POPC   C2B71444  23.178   0.069   6.606
 5543POPC   C3B71445  22.916  44.922   6.930
 5543POPC   C4B71446  22.824  44.884   7.385
 5544POPC   NC371447   9.708  17.132   5.140
 5544POPC   PO471448   9.894  17.711   5.134
 5544POPC   GL171449   9.835  17.466   5.581
 5544POPC   GL271450   9.925  17.779   5.766
 5544POPC   C1A71451   9.749  17.438   6.100
 5544POPC   D2A71452   9.765  17.193   6.547
 5544POPC   C3A71453   9.712  17.393   7.003
 5544POPC   C4A71454   9.715  17.435   7.514
 5544POPC   C1B71455  10.152  17.782   6.151
 5544POPC   C2B71456   9.931  17.683   6.553
 5544POPC   C3B71457   9.939  17.875   6.984
 5544POPC   C4B71458   9.875  18.095   7.374
 5545POPC   NC371459  34.569   2.694   5.439
 5545POPC   PO471460  34.058   2.730   5.672
 5545POPC   GL171461  34.454   2.754   5.941
 5545POPC   GL271462  34.615   2.439   5.934
 5545POPC   C1A71463  34.783   2.769   6.309
 5545POPC   D2A71464  34.780   2.569   6.740
 5545POPC   C3A71465  34.777   2.782   7.159
 5545POPC   C4A71466  34.614   3.058   7.525
 5545POPC   C1B71467  34.386   2.454   6.372
 5545POPC   C2B71468  34.261   2.613   6.814
 5545POPC   C3B71469  34.266   2.808   7.234
 5545POPC   C4B71470  34.454   2.595   7.592
 5546POPC   NC371471  40.446  33.261   5.558
 5546POPC   PO471472  41.000  33.124   5.274
 5546POPC   GL171473  40.940  32.973   5.746
 5546POPC   GL271474  40.666  32.756   5.800
 5546POPC   C1A71475  40.798  33.038   6.212
 5546POPC   D2A71476  40.612  33.076   6.653
 5546POPC   C3A71477  40.863  33.318   6.938
 5546POPC   C4A71478  41.002  33.302   7.348
 5546POPC   C1B71479  40.511  32.623   6.186
 5546POPC   C2B71480  40.655  32.558   6.598
 5546POPC   C3B71481  40.488  32.605   7.005
 5546POPC   C4B71482  40.625  32.959   7.227
 5547POPC   NC371483  27.100  27.762   5.442
 5547POPC   PO471484  26.435  27.440   5.411
 5547POPC   GL171485  26.732  27.581   5.747
 5547POPC   GL271486  27.067  27.388   5.831
 5547POPC   C1A71487  26.678  27.774   6.149
 5547POPC   D2A71488  26.424  27.812   6.512
 5547POPC   C3A71489  26.632  27.737   6.916
 5547POPC   C4A71490  26.486  27.507   7.268
 5547POPC   C1B71491  27.165  27.130   6.252
 5547POPC   C2B71492  27.151  27.186   6.744
 5547POPC   C3B71493  27.039  27.437   7.142
 5547POPC   C4B71494  27.152  27.290   7.579
 5548POPC   NC371495  18.248   4.699   5.499
 5548POPC   PO471496  18.354   4.061   5.544
 5548POPC   GL171497  18.171   4.308   5.834
 5548POPC   GL271498  18.432   4.566   5.952
 5548POPC   C1A71499  18.199   4.249   6.263
 5548POPC   D2A71500  18.493   4.264   6.554
 5548POPC   C3A71501  18.266   4.206   6.896
 5548POPC   C4A71502  18.467   4.140   7.254
 5548POPC   C1B71503  18.083   4.766   6.169
 5548POPC   C2B71504  17.953   4.608   6.577
 5548POPC   C3B71505  18.035   4.724   6.984
 5548POPC   C4B71506  18.026   4.454   7.281
 5549POPC   NC371507  17.748  14.738   5.454
 5549POPC   PO471508  17.169  15.213   5.438
 5549POPC   GL171509  17.354  14.958   5.720
 5549POPC   GL271510  17.666  15.189   5.716
 5549POPC   C1A71511  17.209  14.869   6.119
 5549POPC   D2A71512  17.284  15.192   6.461
 5549POPC   C3A71513  17.446  15.059   6.856
 5549POPC   C4A71514  17.256  15.165   7.237
 5549POPC   C1B71515  17.666  15.077   6.150
 5549POPC   C2B71516  17.855  15.184   6.554
 5549POPC   C3B71517  17.902  15.336   7.000
 5549POPC   C4B71518  17.748  15.048   7.275
 5550POPC   NC371519  38.099  23.409   5.407
 5550POPC   PO471520  37.477  23.728   5.492
 5550POPC   GL171521  37.783  23.652   5.792
 5550POPC   GL271522  37.834  23.270   5.813
 5550POPC   C1A71523  37.783  23.884   6.188
 5550POPC   D2A71524  37.542  23.732   6.548
 5550POPC   C3A71525  37.719  23.672   6.945
 5550POPC   C4A71526  37.472  23.626   7.298
 5550POPC   C1B71527  37.768  23.386   6.233
 5550POPC   C2B71528  37.751  23.250   6.649
 5550POPC   C3B71529  37.951  23.232   7.085
 5550POPC   C4B71530  37.860  23.395   7.500
 5551POPC   NC371531  42.793   1.373   5.583
 5551POPC   PO471532  43.340   1.078   5.552
 5551POPC   GL171533  43.076   1.097   5.908
 5551POPC   GL271534  42.816   0.885   5.841
 5551POPC   C1A71535  43.026   1.358   6.276
 5551POPC   D2A71536  43.307   1.375   6.612
 5551POPC   C3A71537  43.263   1.132   6.958
 5551POPC   C4A71538  43.080   1.254   7.336
 5551POPC   C1B71539  42.719   0.943   6.261
 5551POPC   C2B71540  42.828   0.990   6.700
 5551POPC   C3B71541  42.720   0.951   7.163
 5551POPC   C4B71542  42.941   0.829   7.586
 5552POPC   NC371543  27.713  17.226   5.382
 5552POPC   PO471544  27.869  17.977   5.524
 5552POPC   GL171545  27.844  17.589   5.746
 5552POPC   GL271546  27.527  17.389   5.822
 5552POPC   C1A71547  27.954  17.398   6.132
 5552POPC   D2A71548  27.958  17.245   6.524
 5552POPC   C3A71549  27.939  17.553   6.848
 5552POPC   C4A71550  27.685  17.607   7.217
 5552POPC   C1B71551  27.473  17.230   6.240
 5552POPC   C2B71552  27.445  17.251   6.656
 5552POPC   C3B71553  27.694  17.115   6.983
 5552POPC   C4B71554  27.585  17.133   7.389
 5553POPC   NC371555   4.359  37.257   5.434
 5553POPC   PO471556   4.608  37.856   5.597
 5553POPC   GL171557   4.462  37.553   5.847
 5553POPC   GL271558   4.625  37.236   5.876
 5553POPC   C1A71559   4.230  37.648   6.209
 5553POPC   D2A71560   4.250  37.942   6.561
 5553POPC   C3A71561   4.294  37.776   6.962
 5553POPC   C4A71562   4.524  37.699   7.354
 5553POPC   C1B71563   4.713  37.389   6.253
 5553POPC   C2B71564   4.524  37.479   6.606
 5553POPC   C3B71565   4.603  37.356   6.983
 5553POPC   C4B71566   4.216  37.323   7.224
 5554POPC   NC371567  41.545   6.295   5.344
 5554POPC   PO471568  41.423   6.897   5.488
 5554POPC   GL171569  41.364   6.507   5.777
 5554POPC   GL271570  41.704   6.373   5.830
 5554POPC   C1A71571  41.377   6.431   6.242
 5554POPC   D2A71572  41.671   6.551   6.568
 5554POPC   C3A71573  41.528   6.687   6.980
 5554POPC   C4A71574  41.170   6.595   7.233
 5554POPC   C1B71575  41.931   6.246   6.203
 5554POPC   C2B71576  41.850   6.048   6.582
 5554POPC   C3B71577  41.758   6.228   6.970
 5554POPC   C4B71578  41.954   6.529   7.245
 5555POPC   NC371579  31.828  38.705   5.328
 5555POPC   PO471580  31.213  38.532   5.332
 5555POPC   GL171581  31.480  38.577   5.719
 5555POPC   GL271582  31.519  38.247   5.859
 5555POPC   C1A71583  31.578  38.659   6.184
 5555POPC   D2A71584  31.653  38.529   6.611
 5555POPC   C3A71585  31.627  38.792   6.971
 5555POPC   C4A71586  31.565  38.681   7.415
 5555POPC   C1B71587  31.768  38.137   6.261
 5555POPC   C2B71588  31.642  38.027   6.709
 5555POPC   C3B71589  31.729  38.282   7.064
 5555POPC   C4B71590  31.934  38.282   7.432
 5556POPC   NC371591   8.103  10.880   5.577
 5556POPC   PO471592   8.276  10.312   5.229
 5556POPC   GL171593   8.435  10.405   5.698
 5556POPC   GL271594   8.608  10.743   5.796
 5556POPC   C1A71595   8.256  10.402   6.160
 5556POPC   D2A71596   8.008  10.288   6.571
 5556POPC   C3A71597   8.049  10.357   7.033
 5556POPC   C4A71598   8.042  10.440   7.520
 5556POPC   C1B71599   8.569  10.804   6.274
 5556POPC   C2B71600   8.531  10.802   6.756
 5556POPC   C3B71601   8.412  10.663   7.201
 5556POPC   C4B71602   8.445  10.791   7.654
 5557POPC   NC371603   0.383  26.537   5.460
 5557POPC   PO471604   0.383  27.149   5.709
 5557POPC   GL171605   0.656  26.794   5.887
 5557POPC   GL271606   0.777  26.426   5.808
 5557POPC   C1A71607   0.686  26.938   6.300
 5557POPC   D2A71608   0.307  27.067   6.514
 5557POPC   C3A71609   0.155  26.880   6.904
 5557POPC   C4A71610   0.275  26.943   7.336
 5557POPC   C1B71611   0.596  26.427   6.233
 5557POPC   C2B71612   0.575  26.578   6.662
 5557POPC   C3B71613   0.646  26.748   7.050
 5557POPC   C4B71614   0.773  26.770   7.500
 5558POPC   NC371615  32.904  44.276   5.394
 5558POPC   PO471616  33.127  43.631   5.523
 5558POPC   GL171617  33.077  44.002   5.810
 5558POPC   GL271618  33.375  44.190   5.680
 5558POPC   C1A71619  32.866  44.064   6.256
 5558POPC   D2A71620  32.785  43.861   6.698
 5558POPC   C3A71621  32.749  44.068   7.142
 5558POPC   C4A71622  32.727  44.264   7.641
 5558POPC   C1B71623  33.494  44.054   6.118
 5558POPC   C2B71624  33.496  44.104   6.583
 5558POPC   C3B71625  33.265  43.806   6.852
 5558POPC   C4B71626  33.109  43.547   7.184
 5559POPC   NC371627  25.178  13.050   5.336
 5559POPC   PO471628  25.313  12.458   5.323
 5559POPC   GL171629  25.163  12.632   5.738
 5559POPC   GL271630  24.966  12.932   5.795
 5559POPC   C1A71631  25.316  12.588   6.189
 5559POPC   D2A71632  25.558  12.491   6.594
 5559POPC   C3A71633  25.355  12.553   6.995
 5559POPC   C4A71634  25.497  12.663   7.402
 5559POPC   C1B71635  25.109  13.075   6.205
 5559POPC   C2B71636  25.213  12.918   6.623
 5559POPC   C3B71637  25.051  12.957   7.040
 5559POPC   C4B71638  25.032  12.848   7.482
 5560POPC   NC371639  33.433  27.530   5.059
 5560POPC   PO471640  33.105  28.061   5.393
 5560POPC   GL171641  33.038  27.840   5.774
 5560POPC   GL271642  32.863  27.491   5.788
 5560POPC   C1A71643  33.037  27.815   6.212
 5560POPC   D2A71644  33.232  27.807   6.600
 5560POPC   C3A71645  32.928  27.804   6.902
 5560POPC   C4A71646  32.947  27.652   7.295
 5560POPC   C1B71647  32.854  27.337   6.231
 5560POPC   C2B71648  33.046  27.337   6.659
 5560POPC   C3B71649  32.834  27.204   7.059
 5560POPC   C4B71650  32.969  27.166   7.501
 5561POPC   NC371651  42.614  39.153   5.444
 5561POPC   PO471652  41.936  38.965   5.409
 5561POPC   GL171653  42.151  39.195   5.711
 5561POPC   GL271654  42.328  38.920   5.792
 5561POPC   C1A71655  42.213  39.330   6.124
 5561POPC   D2A71656  42.367  39.568   6.437
 5561POPC   C3A71657  42.319  39.435   6.845
 5561POPC   C4A71658  42.395  39.511   7.267
 5561POPC   C1B71659  42.426  38.859   6.194
 5561POPC   C2B71660  42.498  39.033   6.574
 5561POPC   C3B71661  42.336  38.939   6.973
 5561POPC   C4B71662  42.484  39.036   7.399
 5562POPC   NC371663  30.178  13.807   5.112
 5562POPC   PO471664  29.639  13.617   5.334
 5562POPC   GL171665  29.789  13.781   5.737
 5562POPC   GL271666  29.502  13.666   5.869
 5562POPC   C1A71667  29.870  13.603   6.202
 5562POPC   D2A71668  30.068  13.297   6.496
 5562POPC   C3A71669  30.232  13.422   6.915
 5562POPC   C4A71670  30.125  13.756   7.172
 5562POPC   C1B71671  29.334  13.471   6.245
 5562POPC   C2B71672  29.476  13.327   6.638
 5562POPC   C3B71673  29.686  13.576   6.965
 5562POPC   C4B71674  29.765  13.504   7.409
 5563POPC   NC371675  16.160   1.779   5.323
 5563POPC   PO471676  16.395   2.348   5.469
 5563POPC   GL171677  16.228   2.017   5.798
 5563POPC   GL271678  16.219   1.621   5.814
 5563POPC   C1A71679  16.102   1.906   6.248
 5563POPC   D2A71680  16.155   2.039   6.691
 5563POPC   C3A71681  15.819   2.045   7.073
 5563POPC   C4A71682  15.655   2.069   7.535
 5563POPC   C1B71683  16.482   1.558   6.213
 5563POPC   C2B71684  16.318   1.528   6.660
 5563POPC   C3B71685  16.223   1.720   7.074
 5563POPC   C4B71686  16.320   2.191   7.152
 5564POPC   NC371687  29.369  29.458   5.517
 5564POPC   PO471688  28.819  28.880   5.390
 5564POPC   GL171689  29.057  28.920   5.788
 5564POPC   GL271690  29.402  29.045   5.831
 5564POPC   C1A71691  29.026  29.144   6.186
 5564POPC   D2A71692  29.132  29.278   6.611
 5564POPC   C3A71693  28.952  29.019   6.944
 5564POPC   C4A71694  28.740  28.984   7.325
 5564POPC   C1B71695  29.547  29.077   6.291
 5564POPC   C2B71696  29.545  29.032   6.755
 5564POPC   C3B71697  29.363  29.243   7.117
 5564POPC   C4B71698  29.296  28.918   7.416
 5565POPC   NC371699  22.522  11.027   5.410
 5565POPC   PO471700  22.936  10.467   5.211
 5565POPC   GL171701  22.832  10.656   5.607
 5565POPC   GL271702  22.568  10.431   5.710
 5565POPC   C1A71703  22.948  10.787   6.042
 5565POPC   D2A71704  22.811  10.758   6.493
 5565POPC   C3A71705  23.092  10.696   6.855
 5565POPC   C4A71706  23.152  10.831   7.280
 5565POPC   C1B71707  22.627  10.407   6.144
 5565POPC   C2B71708  22.848  10.252   6.514
 5565POPC   C3B71709  22.722  10.345   6.932
 5565POPC   C4B71710  22.751  10.495   7.347
 5566POPC   NC371711  32.266  21.925   5.199
 5566POPC   PO471712  31.871  22.384   5.610
 5566POPC   GL171713  32.223  22.111   5.756
 5566POPC   GL271714  32.352  21.758   5.669
 5566POPC   C1A71715  32.346  22.173   6.184
 5566POPC   D2A71716  32.632  22.122   6.525
 5566POPC   C3A71717  32.472  22.352   6.868
 5566POPC   C4A71718  32.268  22.204   7.218
 5566POPC   C1B71719  32.550  21.723   6.077
 5566POPC   C2B71720  32.298  21.719   6.436
 5566POPC   C3B71721  32.293  21.863   6.834
 5566POPC   C4B71722  32.181  21.712   7.222
 5567POPC   NC371723  28.917  37.606   4.984
 5567POPC   PO471724  29.151  38.007   5.456
 5567POPC   GL171725  29.286  37.582   5.695
 5567POPC   GL271726  29.305  37.797   5.956
 5567POPC   C1A71727  29.368  37.335   6.136
 5567POPC   D2A71728  29.292  37.526   6.572
 5567POPC   C3A71729  29.354  37.315   6.985
 5567POPC   C4A71730  29.115  37.228   7.376
 5567POPC   C1B71731  29.175  37.989   6.316
 5567POPC   C2B71732  29.453  38.111   6.596
 5567POPC   C3B71733  29.370  38.069   6.978
 5567POPC   C4B71734  29.212  37.756   7.223
 5568POPC   NC371735  26.570  14.331   5.488
 5568POPC   PO471736  27.102  14.746   5.444
 5568POPC   GL171737  26.865  14.633   5.792
 5568POPC   GL271738  26.873  14.292   5.925
 5568POPC   C1A71739  26.980  14.704   6.196
 5568POPC   D2A71740  26.962  14.403   6.503
 5568POPC   C3A71741  26.914  14.605   6.877
 5568POPC   C4A71742  27.071  14.401   7.229
 5568POPC   C1B71743  26.539  14.409   6.228
 5568POPC   C2B71744  26.464  14.345   6.684
 5568POPC   C3B71745  26.552  14.353   7.140
 5568POPC   C4B71746  26.656  14.510   7.555
 5569POPC   NC371747  17.115  25.335   5.449
 5569POPC   PO471748  16.456  25.377   5.181
 5569POPC   GL171749  16.667  25.574   5.574
 5569POPC   GL271750  16.738  25.255   5.781
 5569POPC   C1A71751  16.658  25.642   6.075
 5569POPC   D2A71752  16.866  25.490   6.480
 5569POPC   C3A71753  16.632  25.477   6.881
 5569POPC   C4A71754  16.313  25.631   7.227
 5569POPC   C1B71755  16.789  25.030   6.202
 5569POPC   C2B71756  16.968  24.987   6.632
 5569POPC   C3B71757  16.903  25.070   7.079
 5569POPC   C4B71758  16.529  25.157   7.281
 5570POPC   NC371759   8.633  17.552   5.499
 5570POPC   PO471760   8.229  17.113   5.236
 5570POPC   GL171761   8.172  17.324   5.691
 5570POPC   GL271762   8.291  17.675   5.849
 5570POPC   C1A71763   8.040  17.330   6.172
 5570POPC   D2A71764   8.038  17.094   6.591
 5570POPC   C3A71765   8.274  17.291   6.957
 5570POPC   C4A71766   8.156  17.701   7.124
 5570POPC   C1B71767   8.490  17.857   6.235
 5570POPC   C2B71768   8.380  17.921   6.678
 5570POPC   C3B71769   8.632  17.727   6.967
 5570POPC   C4B71770   8.804  17.330   7.080
 5571POPC   NC371771  37.391  21.069   5.418
 5571POPC   PO471772  38.013  21.163   5.591
 5571POPC   GL171773  37.714  20.996   5.913
 5571POPC   GL271774  37.352  21.026   5.916
 5571POPC   C1A71775  37.704  20.659   6.251
 5571POPC   D2A71776  37.880  20.403   6.604
 5571POPC   C3A71777  37.878  20.606   7.023
 5571POPC   C4A71778  37.765  20.487   7.451
 5571POPC   C1B71779  37.408  21.058   6.350
 5571POPC   C2B71780  37.516  20.895   6.754
 5571POPC   C3B71781  37.460  20.922   7.197
 5571POPC   C4B71782  37.649  20.980   7.599
 5572POPC   NC371783  20.750   1.565   5.284
 5572POPC   PO471784  20.303   1.094   5.314
 5572POPC   GL171785  20.308   1.216   5.734
 5572POPC   GL271786  20.650   1.120   5.756
 5572POPC   C1A71787  20.421   1.501   6.102
 5572POPC   D2A71788  20.322   1.389   6.525
 5572POPC   C3A71789  20.494   1.478   6.941
 5572POPC   C4A71790  20.754   1.244   7.236
 5572POPC   C1B71791  20.524   1.005   6.197
 5572POPC   C2B71792  20.701   1.076   6.622
 5572POPC   C3B71793  20.429   0.958   6.969
 5572POPC   C4B71794  20.447   0.738   7.347
 5573POPC   NC371795  25.584  33.547   5.534
 5573POPC   PO471796  24.969  33.871   5.309
 5573POPC   GL171797  25.278  33.886   5.752
 5573POPC   GL271798  25.216  34.116   6.043
 5573POPC   C1A71799  25.376  33.685   6.205
 5573POPC   D2A71800  25.368  33.856   6.633
 5573POPC   C3A71801  25.523  33.655   6.996
 5573POPC   C4A71802  25.534  33.654   7.414
 5573POPC   C1B71803  24.977  34.066   6.364
 5573POPC   C2B71804  24.865  33.947   6.737
 5573POPC   C3B71805  25.034  33.766   7.078
 5573POPC   C4B71806  25.254  34.080   7.289
 5574POPC   NC371807  20.381  33.683   5.131
 5574POPC   PO471808  20.870  34.035   5.451
 5574POPC   GL171809  20.946  33.878   5.874
 5574POPC   GL271810  20.957  33.513   5.839
 5574POPC   C1A71811  20.705  33.731   6.258
 5574POPC   D2A71812  20.349  33.709   6.547
 5574POPC   C3A71813  20.466  33.796   6.979
 5574POPC   C4A71814  20.493  33.420   7.209
 5574POPC   C1B71815  21.167  33.518   6.258
 5574POPC   C2B71816  21.077  33.653   6.668
 5574POPC   C3B71817  20.985  33.649   7.099
 5574POPC   C4B71818  20.929  34.036   7.292
 5575POPC   NC371819  19.414  15.349   5.056
 5575POPC   PO471820  19.085  14.794   5.257
 5575POPC   GL171821  19.181  14.922   5.723
 5575POPC   GL271822  19.122  15.311   5.771
 5575POPC   C1A71823  19.088  15.003   6.186
 5575POPC   D2A71824  18.850  14.903   6.565
 5575POPC   C3A71825  18.985  15.157   6.902
 5575POPC   C4A71826  19.031  15.337   7.328
 5575POPC   C1B71827  19.407  15.389   6.166
 5575POPC   C2B71828  19.498  15.187   6.585
 5575POPC   C3B71829  19.472  15.344   7.027
 5575POPC   C4B71830  19.505  15.335   7.523
 5576POPC   NC371831  23.287  10.751   5.327
 5576POPC   PO471832  23.904  10.630   5.301
 5576POPC   GL171833  23.751  10.571   5.741
 5576POPC   GL271834  23.947  10.792   5.926
 5576POPC   C1A71835  23.438  10.548   6.120
 5576POPC   D2A71836  23.397  10.379   6.581
 5576POPC   C3A71837  23.539  10.474   7.040
 5576POPC   C4A71838  23.633  10.699   7.432
 5576POPC   C1B71839  23.914  10.511   6.283
 5576POPC   C2B71840  23.936  10.578   6.716
 5576POPC   C3B71841  24.073  10.360   7.070
 5576POPC   C4B71842  23.825  10.224   7.438
 5577POPC   NC371843   3.080  40.973   5.550
 5577POPC   PO471844   2.437  41.084   5.563
 5577POPC   GL171845   2.523  40.686   5.805
 5577POPC   GL271846   2.865  40.499   5.834
 5577POPC   C1A71847   2.582  40.702   6.248
 5577POPC   D2A71848   2.457  41.013   6.538
 5577POPC   C3A71849   2.527  40.888   6.936
 5577POPC   C4A71850   2.658  40.977   7.319
 5577POPC   C1B71851   3.087  40.751   6.178
 5577POPC   C2B71852   2.951  40.839   6.616
 5577POPC   C3B71853   3.097  40.965   7.026
 5577POPC   C4B71854   3.109  40.813   7.447
 5578POPC   NC371855  30.055  25.608   5.521
 5578POPC   PO471856  29.486  25.199   5.585
 5578POPC   GL171857  29.585  25.247   5.986
 5578POPC   GL271858  29.711  25.560   5.952
 5578POPC   C1A71859  29.624  25.166   6.418
 5578POPC   D2A71860  29.721  25.257   6.843
 5578POPC   C3A71861  30.131  25.138   6.936
 5578POPC   C4A71862  30.355  25.020   7.286
 5578POPC   C1B71863  30.044  25.453   6.255
 5578POPC   C2B71864  30.177  25.611   6.672
 5578POPC   C3B71865  30.016  25.609   7.093
 5578POPC   C4B71866  29.749  25.366   7.357
 5579POPC   NC371867   3.413  41.687   5.677
 5579POPC   PO471868   3.528  41.091   5.478
 5579POPC   GL171869   3.779  41.353   5.813
 5579POPC   GL271870   3.858  41.792   5.852
 5579POPC   C1A71871   3.677  41.436   6.255
 5579POPC   D2A71872   3.824  41.362   6.681
 5579POPC   C3A71873   3.505  41.419   7.022
 5579POPC   C4A71874   3.402  41.228   7.399
 5579POPC   C1B71875   3.574  41.943   6.227
 5579POPC   C2B71876   3.489  41.749   6.623
 5579POPC   C3B71877   3.605  41.919   7.008
 5579POPC   C4B71878   3.573  41.835   7.422
 5580POPC   NC371879  15.309  28.804   5.347
 5580POPC   PO471880  15.028  28.139   5.242
 5580POPC   GL171881  15.156  28.346   5.608
 5580POPC   GL271882  15.077  28.042   5.761
 5580POPC   C1A71883  15.297  28.443   6.053
 5580POPC   D2A71884  15.261  28.288   6.492
 5580POPC   C3A71885  15.374  28.548   6.862
 5580POPC   C4A71886  15.289  28.496   7.308
 5580POPC   C1B71887  14.904  28.074   6.156
 5580POPC   C2B71888  14.764  28.142   6.598
 5580POPC   C3B71889  14.949  28.225   7.024
 5580POPC   C4B71890  14.912  28.207   7.503
 5581POPC   NC371891  27.673   3.779   5.708
 5581POPC   PO471892  27.371   4.289   5.325
 5581POPC   GL171893  27.563   4.270   5.733
 5581POPC   GL271894  27.746   4.557   5.731
 5581POPC   C1A71895  27.755   4.292   6.171
 5581POPC   D2A71896  27.579   4.453   6.574
 5581POPC   C3A71897  27.732   4.294   6.970
 5581POPC   C4A71898  27.799   4.026   7.313
 5581POPC   C1B71899  27.460   4.703   6.073
 5581POPC   C2B71900  27.120   4.644   6.400
 5581POPC   C3B71901  27.132   4.601   6.854
 5581POPC   C4B71902  27.514   4.736   7.079
 5582POPC   NC371903   6.323  20.161   5.353
 5582POPC   PO471904   6.735  19.636   5.182
 5582POPC   GL171905   6.661  19.709   5.660
 5582POPC   GL271906   6.786  19.438   5.892
 5582POPC   C1A71907   6.436  19.878   6.054
 5582POPC   D2A71908   6.293  19.916   6.525
 5582POPC   C3A71909   6.618  19.976   6.879
 5582POPC   C4A71910   7.069  20.038   7.023
 5582POPC   C1B71911   6.846  19.665   6.327
 5582POPC   C2B71912   6.977  19.588   6.766
 5582POPC   C3B71913   6.762  19.521   7.143
 5582POPC   C4B71914   6.542  19.801   7.371
 5583POPC   NC371915  24.522  39.041   5.302
 5583POPC   PO471916  24.412  39.656   5.520
 5583POPC   GL171917  24.659  39.321   5.745
 5583POPC   GL271918  24.405  39.073   5.814
 5583POPC   C1A71919  24.664  39.295   6.214
 5583POPC   D2A71920  24.410  39.277   6.602
 5583POPC   C3A71921  24.632  39.226   6.983
 5583POPC   C4A71922  24.713  39.561   7.263
 5583POPC   C1B71923  24.186  38.997   6.217
 5583POPC   C2B71924  24.093  38.855   6.654
 5583POPC   C3B71925  24.142  39.105   7.051
 5583POPC   C4B71926  24.361  39.253   7.457
 5584POPC   NC371927  26.860  35.810   5.236
 5584POPC   PO471928  27.090  36.509   5.249
 5584POPC   GL171929  26.937  36.197   5.557
 5584POPC   GL271930  26.588  36.098   5.579
 5584POPC   C1A71931  26.952  35.993   5.965
 5584POPC   D2A71932  26.959  36.143   6.404
 5584POPC   C3A71933  26.826  36.042   6.831
 5584POPC   C4A71934  27.170  35.951   7.105
 5584POPC   C1B71935  26.564  36.336   6.000
 5584POPC   C2B71936  26.469  36.309   6.460
 5584POPC   C3B71937  26.549  36.486   6.869
 5584POPC   C4B71938  26.646  36.427   7.263
 5585POPC   NC371939  33.238  24.832   5.457
 5585POPC   PO471940  33.257  24.189   5.354
 5585POPC   GL171941  33.116  24.248   5.808
 5585POPC   GL271942  32.788  24.358   5.871
 5585POPC   C1A71943  33.085  24.224   6.285
 5585POPC   D2A71944  32.953  24.221   6.727
 5585POPC   C3A71945  33.059  24.605   6.966
 5585POPC   C4A71946  33.482  24.837   6.988
 5585POPC   C1B71947  32.699  24.671   6.197
 5585POPC   C2B71948  32.643  24.789   6.634
 5585POPC   C3B71949  32.617  24.883   7.053
 5585POPC   C4B71950  32.745  24.652   7.404
 5586POPC   NC371951  40.541  35.732   5.351
 5586POPC   PO471952  40.932  36.275   5.299
 5586POPC   GL171953  40.722  36.124   5.634
 5586POPC   GL271954  41.033  36.074   5.801
 5586POPC   C1A71955  40.587  36.043   6.045
 5586POPC   D2A71956  40.772  35.848   6.395
 5586POPC   C3A71957  40.785  36.058   6.775
 5586POPC   C4A71958  40.697  36.037   7.196
 5586POPC   C1B71959  41.113  36.183   6.211
 5586POPC   C2B71960  41.249  36.287   6.626
 5586POPC   C3B71961  41.076  36.424   7.019
 5586POPC   C4B71962  41.257  36.331   7.410
 5587POPC   NC371963  44.780  33.210   5.405
 5587POPC   PO471964  44.074  33.035   5.256
 5587POPC   GL171965  44.309  32.930   5.694
 5587POPC   GL271966  44.642  32.767   5.654
 5587POPC   C1A71967  44.439  33.102   6.149
 5587POPC   D2A71968  44.704  33.402   6.440
 5587POPC   C3A71969  44.657  33.314   6.911
 5587POPC   C4A71970  44.870  33.140   7.278
 5587POPC   C1B71971  44.760  32.702   6.109
 5587POPC   C2B71972  44.631  32.851   6.553
 5587POPC   C3B71973  44.694  32.755   6.987
 5587POPC   C4B71974  44.446  32.883   7.389
 5588POPC   NC371975  12.231   7.046   5.412
 5588POPC   PO471976  11.853   6.533   5.472
 5588POPC   GL171977  11.940   6.641   5.862
 5588POPC   GL271978  11.884   7.012   5.767
 5588POPC   C1A71979  12.209   6.521   6.223
 5588POPC   D2A71980  12.366   6.577   6.652
 5588POPC   C3A71981  12.311   6.244   6.938
 5588POPC   C4A71982  12.129   6.360   7.333
 5588POPC   C1B71983  12.154   7.026   6.108
 5588POPC   C2B71984  12.075   6.990   6.527
 5588POPC   C3B71985  12.169   6.975   6.957
 5588POPC   C4B71986  11.992   6.846   7.318
 5589POPC   NC371987  11.241  12.333   5.400
 5589POPC   PO471988  11.009  11.774   5.379
 5589POPC   GL171989  11.116  11.958   5.811
 5589POPC   GL271990  11.437  12.137   5.841
 5589POPC   C1A71991  11.139  12.015   6.278
 5589POPC   D2A71992  11.352  11.991   6.677
 5589POPC   C3A71993  11.150  11.965   7.072
 5589POPC   C4A71994  11.309  12.094   7.498
 5589POPC   C1B71995  11.653  12.188   6.247
 5589POPC   C2B71996  11.588  12.445   6.621
 5589POPC   C3B71997  11.505  12.354   7.059
 5589POPC   C4B71998  11.793  12.351   7.421
 5590W        W71999  18.510  21.042   4.938
 5591W        W72000  33.124  25.984   0.304
 5592W        W72001  26.655   8.303  13.789
 5593W        W72002  27.000   1.719  12.899
 5594W        W72003   4.926  21.530   2.734
 5595W        W72004  13.373  29.880  11.464
 5596W        W72005   1.445  28.688   0.866
 5597W        W72006  31.747  32.484   4.198
 5598W        W72007  31.979  34.984   1.825
 5599W        W72008  22.064  14.356   0.822
 5600W        W72009   9.288  27.757   4.010
 5601W        W72010  27.961   9.985  14.369
 5602W        W72011   9.409  43.052  14.837
 5603W        W72012   6.477  30.287   9.674
 5604W        W72013  13.514  36.912  10.623
 5605W        W72014  26.104  37.530   0.004
 5606W        W72015   2.733  23.136  14.956
 5607W        W72016  29.611  38.077  13.479
 5608W        W72017   6.636  18.099  13.900
 5609W        W72018  38.470   6.389  11.142
 5610W        W72019  41.495  23.454   2.626
 5611W        W72020   9.563   3.944  12.656
 5612W        W72021  16.759  37.417  14.827
 5613W        W72022  14.057  24.777   2.765
 5614W        W72023  33.398  39.876  10.900
 5615W        W72024   4.252  16.997  13.945
 5616W        W72025  36.370  33.886  13.743
 5617W        W72026  21.964  14.662   3.257
 5618W        W72027   1.672  31.178  11.714
 5619W        W72028  32.865   4.947   1.388
 5620W        W72029  38.984   9.659   1.479
 5621W        W72030  18.796  23.176   4.245
 5622W        W72031  26.018  30.395   0.370
 5623W        W72032  29.861  36.867  13.889
 5624W        W72033  10.613  17.436   4.100
 5625W        W72034  27.097  41.277   1.857
 5626W        W72035   8.477   9.325   0.305
 5627W        W72036  20.409  38.596  11.060
 5628W        W72037  14.557   3.671   0.777
 5629W        W72038  34.995  31.101   3.647
 5630W        W72039  21.473   3.568  10.145
 5631W        W72040   8.258  39.722  11.106
 5632W        W72041  33.019  25.199  10.816
 5633W        W72042   0.482  35.186   0.551
 5634W        W72043  43.756  11.165   1.422
 5635W        W72044  35.209  15.551  12.141
 5636W        W72045   2.700  22.192   0.924
 5637W        W72046   4.835  19.185  11.385
 5638W        W72047  40.640  39.404  14.261
 5639W        W72048  18.675  17.841   3.393
 5640W        W72049   9.208  19.758  12.100
 5641W        W72050  39.614  24.681  14.496
 5642W        W72051  36.938  32.125  10.078
 5643W        W72052   2.273  16.994   3.289
 5644W        W72053  40.894  24.520  14.072
 5645W        W72054  43.477  26.886  12.454
 5646W        W72055   7.828  44.248  13.021
 5647W        W72056  36.575  26.388  10.722
 5648W        W72057  16.508   2.167  12.020
 5649W        W72058   9.813  40.367  10.547
 5650W        W72059  37.146  17.780   0.981
 5651W        W72060  16.099  13.996  12.503
 5652W        W72061  13.879  16.692  10.683
 5653W        W72062  26.216  11.845   3.376
 5654W        W72063  44.967  24.559  13.067
 5655W        W72064  20.222   8.610  13.992
 5656W        W72065  30.120   8.532   2.892
 5657W        W72066   0.269  32.127  12.433
 5658W        W72067  29.756  24.461  14.364
 5659W        W72068   8.367  41.018   4.547
 5660W        W72069   9.265  44.386   3.165
 5661W        W72070  32.332  42.375   2.204
 5662W        W72071  31.143  18.732  14.868
 5663W        W72072   7.255  23.041  11.051
 5664W        W72073  38.940  38.805   4.036
 5665W        W72074  30.945  34.306  13.007
 5666W        W72075  16.058  39.288   1.208
 5667W        W72076   5.434  26.473  13.415
 5668W        W72077  18.618   0.227  12.055
 5669W        W72078  26.748  32.620   4.387
 5670W        W72079  36.776   9.308   1.012
 5671W        W72080  42.357   4.919  11.130
 5672W        W72081  43.295  38.215  12.663
 5673W        W72082   4.332  36.815  12.541
 5674W        W72083  37.840  14.739   2.264
 5675W        W72084  34.891  24.587   4.739
 5676W        W72085  41.085   8.473  13.534
 5677W        W72086  26.823   4.413   4.309
 5678W        W72087  12.699  39.285   2.020
 5679W        W72088   0.769   2.389   3.128
 5680W        W72089   0.315  38.836   4.741
 5681W        W72090  36.683   0.001   3.402
 5682W        W72091  10.541  35.590  14.827
 5683W        W72092   5.400  28.631  11.076
 5684W        W72093  18.262   9.804   1.681
 5685W        W72094  43.820  41.369  12.398
 5686W        W72095  34.473  41.644   3.592
 5687W        W72096  11.687  17.241   4.728
 5688W        W72097  31.459  27.750   3.330
 5689W        W72098   7.339  17.140   0.752
 5690W        W72099  15.114   5.352  13.090
 5691W        W72100  34.342  38.540  12.429
 5692W        W72101   8.883  39.483  11.825
 5693W        W72102  21.126  12.056  13.977
 5694W        W72103  32.955  40.075   3.133
 5695W        W72104  17.386  23.191   2.154
 5696W        W72105  42.745  15.234  14.398
 5697W        W72106  27.158  25.797  13.943
 5698W        W72107  12.833  43.091  14.563
 5699W        W72108   1.758  25.555   4.644
 5700W        W72109   4.293   3.243  11.815
 5701W        W72110  15.498  20.756   2.672
 5702W        W72111  43.274  22.761   0.510
 5703W        W72112  17.043   1.946   3.704
 5704W        W72113  32.943  22.519   1.764
 5705W        W72114  35.573   4.116   5.005
 5706W        W72115  21.892  33.394  13.283
 5707W        W72116  19.266  40.708  13.493
 5708W        W72117  23.507  32.683   1.067
 5709W        W72118  16.070  38.750  13.854
 5710W        W72119   5.138  23.065   4.530
 5711W        W72120  24.629  43.427  11.911
 5712W        W72121  34.847   5.249  11.955
 5713W        W72122  19.507   0.284  12.426
 5714W        W72123  10.597  11.602  13.395
 5715W        W72124   8.137   7.074  11.121
 5716W        W72125  29.499   7.889  11.033
 5717W        W72126   1.009  21.973  13.743
 5718W        W72127  26.480  34.495   4.222
 5719W        W72128   8.764   9.312  13.435
 5720W        W72129   1.730  37.909   2.213
 5721W        W72130  17.003   7.148  12.130
 5722W        W72131   3.910  31.425  11.963
 5723W        W72132  33.387   7.486   1.851
 5724W        W72133  11.350  19.026  12.392
 5725W        W72134  42.322  21.600   1.387
 5726W        W72135  20.061  23.712   1.321
 5727W        W72136  31.326  29.419  14.713
 5728W        W72137   3.714  30.275   0.851
 5729W        W72138  25.999  20.104   1.307
 5730W        W72139  35.365   6.293  13.595
 5731W        W72140  29.051  21.646  11.950
 5732W        W72141   5.074  12.856   1.661
 5733W        W72142  16.109  20.054   4.656
 5734W        W72143  12.096  14.158  14.470
 5735W        W72144  43.409   5.408  11.520
 5736W        W72145   6.310   2.433   1.904
 5737W        W72146  13.179  24.118   0.779
 5738W        W72147  34.841  33.884   2.821
 5739W        W72148  29.067  28.259   1.945
 5740W        W72149  27.908  19.442  13.830
 5741W        W72150   0.328   3.424  13.793
 5742W        W72151  32.043  37.961  12.545
 5743W        W72152  39.005  27.040   2.807
 5744W        W72153  39.271   0.824   3.200
 5745W        W72154  18.213   8.195  14.466
 5746W        W72155   2.292  22.791  10.612
 5747W        W72156  20.296  12.163   2.802
 5748W        W72157  25.765   9.453   0.197
 5749W        W72158  29.928  26.390  13.502
 5750W        W72159   3.879   8.766   3.316
 5751W        W72160   6.891  34.969   4.987
 5752W        W72161   4.224  30.340   3.786
 5753W        W72162  13.207  11.822   1.269
 5754W        W72163  10.397  27.818  12.121
 5755W        W72164  37.422  12.661   4.365
 5756W        W72165  36.816   7.676  10.671
 5757W        W72166   1.975  44.708   3.227
 5758W        W72167   9.865  19.604   1.116
 5759W        W72168  18.769  22.237   1.762
 5760W        W72169  32.013  40.449  12.141
 5761W        W72170  24.441  19.613  12.491
 5762W        W72171  10.063  18.046   1.787
 5763W        W72172   8.842  13.386  12.080
 5764W        W72173   4.000  18.498  14.067
 5765W        W72174  42.488  20.348  13.469
 5766W        W72175  21.688  10.081  12.584
 5767W        W72176  22.012   5.301   3.378
 5768W        W72177  26.605  26.512   1.834
 5769W        W72178  17.110   8.248  12.267
 5770W        W72179  12.861  34.670  14.896
 5771W        W72180  40.358   8.344  12.918
 5772W        W72181  11.592  12.191   1.210
 5773W        W72182   9.324  44.318   1.713
 5774W        W72183  36.560   3.871  13.511
 5775W        W72184  12.134  40.123   2.981
 5776W        W72185  41.946  27.771   0.715
 5777W        W72186   3.708   4.467   1.841
 5778W        W72187   6.830  23.905  12.801
 5779W        W72188  34.628  24.536  12.541
 5780W        W72189  41.403  34.972   4.426
 5781W        W72190  12.280  42.341   2.134
 5782W        W72191  24.633  32.577   4.583
 5783W        W72192   9.267  41.406  11.103
 5784W        W72193   6.104  12.572  12.039
 5785W        W72194  19.812  16.815  12.509
 5786W        W72195   4.963  43.807  12.315
 5787W        W72196  21.829  36.969   2.332
 5788W        W72197   7.384  17.169  10.343
 5789W        W72198  37.054  21.011  13.921
 5790W        W72199  19.043  22.455   3.650
 5791W        W72200   0.390  17.830  12.613
 5792W        W72201  39.939  43.729   3.813
 5793W        W72202  10.102  29.929  10.761
 5794W        W72203  37.559  20.209  13.328
 5795W        W72204   6.648  13.902   2.199
 5796W        W72205  27.910   2.807  13.707
 5797W        W72206  35.072  17.678  11.953
 5798W        W72207  42.474  15.536  11.548
 5799W        W72208   2.276  39.589   1.208
 5800W        W72209  41.989  11.375   4.274
 5801W        W72210  17.681  19.349   4.660
 5802W        W72211  21.610  20.144  13.477
 5803W        W72212   0.297  16.071  12.876
 5804W        W72213  33.344  18.096   4.182
 5805W        W72214  26.850  23.692   4.290
 5806W        W72215  26.672  38.036  11.102
 5807W        W72216  33.204   7.858   1.463
 5808W        W72217  17.265  30.951   1.902
 5809W        W72218  25.175  28.873   4.446
 5810W        W72219   9.741  26.179  13.007
 5811W        W72220  36.036  13.242  10.649
 5812W        W72221  31.126  17.331  11.602
 5813W        W72222  28.169  17.546   0.896
 5814W        W72223   5.169  36.609   4.582
 5815W        W72224   7.373  18.071   4.064
 5816W        W72225  13.588  17.595  14.742
 5817W        W72226   1.629  41.458   3.268
 5818W        W72227  31.458  30.202   0.547
 5819W        W72228  27.352  35.115   0.411
 5820W        W72229   0.908  44.451  14.972
 5821W        W72230  14.532  35.465   4.613
 5822W        W72231   2.506  29.379  14.879
 5823W        W72232   4.484  37.487  10.711
 5824W        W72233  16.714  22.526   3.614
 5825W        W72234  24.440  37.935   3.361
 5826W        W72235  28.210   8.842   2.912
 5827W        W72236  39.004  35.447   2.901
 5828W        W72237  29.353  40.371   0.542
 5829W        W72238   1.942  17.039   2.749
 5830W        W72239  35.945  34.989  12.473
 5831W        W72240  24.071  10.200   5.578
 5832W        W72241  41.081  33.959   1.761
 5833W        W72242  24.112  22.157  14.434
 5834W        W72243  38.109   4.694  11.081
 5835W        W72244   7.640  34.948   1.723
 5836W        W72245   5.670  39.848   0.856
 5837W        W72246  40.771   9.773  13.983
 5838W        W72247  18.058  32.387  14.583
 5839W        W72248  42.702  41.528   0.437
 5840W        W72249  36.940  38.895  13.069
 5841W        W72250  10.798   0.239   2.816
 5842W        W72251  33.454  13.897   2.759
 5843W        W72252  21.628  31.471  12.404
 5844W        W72253  26.033  21.969  12.256
 5845W        W72254   4.511  31.895   1.492
 5846W        W72255  29.926  11.126  11.978
 5847W        W72256  39.903   7.966   3.590
 5848W        W72257   2.730   8.134  12.140
 5849W        W72258  31.103   6.956   1.834
 5850W        W72259  43.714   0.592   3.178
 5851W        W72260   7.509  35.846  10.776
 5852W        W72261  10.659  21.498  11.615
 5853W        W72262  21.913  10.009   4.391
 5854W        W72263  28.481  43.149  10.853
 5855W        W72264   6.403  18.290  11.484
 5856W        W72265   6.779  37.920  11.017
 5857W        W72266  34.318  19.385   2.756
 5858W        W72267  22.552  30.974  12.835
 5859W        W72268  43.034  15.394  11.179
 5860W        W72269   2.535  43.934   1.238
 5861W        W72270   2.979  19.695   1.272
 5862W        W72271  38.975  35.788   1.862
 5863W        W72272  44.890  24.150   2.450
 5864W        W72273  25.387  33.026   1.421
 5865W        W72274   8.295   4.436  11.631
 5866W        W72275   1.085   9.415   3.179
 5867W        W72276   3.532  30.729  12.450
 5868W        W72277   0.845   3.002   3.780
 5869W        W72278   4.906  19.549   1.253
 5870W        W72279  41.997  11.714  13.080
 5871W        W72280  17.624  24.172  14.939
 5872W        W72281  30.301  13.356  13.129
 5873W        W72282   2.431   1.882  12.742
 5874W        W72283  12.249  15.016  12.849
 5875W        W72284  21.984  13.650   4.914
 5876W        W72285  23.490  20.256   2.696
 5877W        W72286   6.226   3.754  14.331
 5878W        W72287  23.003  25.659   3.314
 5879W        W72288  40.350   8.258   1.760
 5880W        W72289  22.322  41.980   1.375
 5881W        W72290  18.601  34.864   3.671
 5882W        W72291  25.929  34.612  14.337
 5883W        W72292  22.100  28.001  12.893
 5884W        W72293  23.772  36.422   2.682
 5885W        W72294  12.511  20.672   0.352
 5886W        W72295  22.919   9.405   1.753
 5887W        W72296  13.789  17.474  11.918
 5888W        W72297  11.827  44.259  10.572
 5889W        W72298  16.293  33.694   0.315
 5890W        W72299  34.658   5.904  13.927
 5891W        W72300   7.659  39.410   4.124
 5892W        W72301  40.553  13.134   2.711
 5893W        W72302   7.944  43.811   0.500
 5894W        W72303  41.337  39.396   2.448
 5895W        W72304  27.911  17.609   1.776
 5896W        W72305  22.211  38.002  12.168
 5897W        W72306  32.117  16.995   4.199
 5898W        W72307   1.789  14.676  12.013
 5899W        W72308  21.538  38.518   3.696
 5900W        W72309   3.706  32.255  14.953
 5901W        W72310  21.701   5.837  10.490
 5902W        W72311  34.491  15.182   4.655
 5903W        W72312  15.545  23.711  14.947
 5904W        W72313  41.953  34.000  14.937
 5905W        W72314  38.184  39.546   1.353
 5906W        W72315   3.364  28.458   0.901
 5907W        W72316  10.244  43.295   1.314
 5908W        W72317   3.113  39.319   2.997
 5909W        W72318  44.000   2.485   0.918
 5910W        W72319  31.430  22.684  13.622
 5911W        W72320   9.287  30.365   2.799
 5912W        W72321  10.383  44.508   2.221
 5913W        W72322  35.420  44.035   0.910
 5914W        W72323  25.054  12.436   4.821
 5915W        W72324  17.211   4.149  14.217
 5916W        W72325  27.518  24.096   0.554
 5917W        W72326   7.838   0.473  11.963
 5918W        W72327  34.911  31.527  11.301
 5919W        W72328  11.136  26.696   0.215
 5920W        W72329  42.273  44.023   3.630
 5921W        W72330   2.352   6.914  14.833
 5922W        W72331  20.875  43.397   3.232
 5923W        W72332  11.300  11.412  12.367
 5924W        W72333   5.094  19.202   2.446
 5925W        W72334  37.444  19.299   1.245
 5926W        W72335  44.962  19.150  11.677
 5927W        W72336  32.433  26.360  14.271
 5928W        W72337   9.774  25.600   0.279
 5929W        W72338  14.177  14.783  13.917
 5930W        W72339   2.997  42.066  11.452
 5931W        W72340  43.362   8.609  13.353
 5932W        W72341  41.684  20.397  13.000
 5933W        W72342  28.226   0.852  14.556
 5934W        W72343  41.840  37.411  12.885
 5935W        W72344  31.934  29.930  12.570
 5936W        W72345  42.817  37.338   2.943
 5937W        W72346  15.012  10.848  14.786
 5938W        W72347  18.259  17.778  12.073
 5939W        W72348  30.101  25.302  11.234
 5940W        W72349  12.466   0.884  13.360
 5941W        W72350  39.943  40.125   0.881
 5942W        W72351  22.609   2.213   3.766
 5943W        W72352   1.294  17.335  12.608
 5944W        W72353  29.685  23.740   3.667
 5945W        W72354  14.418  39.825  14.449
 5946W        W72355   1.467  29.435   2.289
 5947W        W72356  20.113  16.562   1.934
 5948W        W72357  33.216  17.131  11.468
 5949W        W72358   7.627   5.235   4.787
 5950W        W72359  35.373  41.458  10.569
 5951W        W72360  15.733  10.375   3.210
 5952W        W72361  37.888  26.081   4.848
 5953W        W72362  19.782  20.156   4.370
 5954W        W72363   2.313   2.898   2.681
 5955W        W72364  27.461  39.763   0.016
 5956W        W72365  10.855   4.491  10.053
 5957W        W72366  29.633  10.294   1.540
 5958W        W72367  10.223  39.976  11.195
 5959W        W72368  41.796  19.832  13.874
 5960W        W72369   5.833  19.996  14.215
 5961W        W72370   5.998  19.308  13.339
 5962W        W72371  22.506  11.569   0.912
 5963W        W72372  41.447  39.831  11.987
 5964W        W72373   3.757  14.761   4.210
 5965W        W72374  31.673  39.342  13.100
 5966W        W72375   6.924  25.032   2.828
 5967W        W72376   1.045  23.307   1.679
 5968W        W72377  10.759  38.474  12.260
 5969W        W72378  25.965  10.350   1.141
 5970W        W72379   8.499  34.486   4.092
 5971W        W72380   9.912  29.237   2.230
 5972W        W72381   3.141  27.428   0.948
 5973W        W72382  43.331  15.083  13.024
 5974W        W72383  44.444  32.109   2.360
 5975W        W72384  39.015   0.993  12.543
 5976W        W72385  27.943  28.596   4.282
 5977W        W72386  21.494   4.753  10.385
 5978W        W72387  15.580  20.944  13.325
 5979W        W72388  28.542  42.356  14.210
 5980W        W72389  28.768  19.410  11.627
 5981W        W72390  17.993   4.012  10.801
 5982W        W72391  43.526  29.082   2.325
 5983W        W72392  16.648  43.900  13.506
 5984W        W72393  39.315  34.100  13.391
 5985W        W72394  32.066  44.003   2.675
 5986W        W72395   9.379  13.915   3.603
 5987W        W72396  24.001  33.659  12.585
 5988W        W72397  14.457  17.620   3.218
 5989W        W72398  44.875  38.832  13.339
 5990W        W72399   3.695  44.190   2.245
 5991W        W72400  19.681  29.005  12.163
 5992W        W72401  23.471  22.639   3.696
 5993W        W72402  37.581  20.651  12.482
 5994W        W72403  35.235   4.230   2.282
 5995W        W72404  34.066  39.648   1.474
 5996W        W72405  14.800  28.421   3.020
 5997W        W72406  20.580  39.416  12.096
 5998W        W72407  22.677  24.558   0.454
 5999W        W72408  43.491  34.617   3.766
 6000W        W72409  14.153  29.590   3.423
 6001W        W72410  26.589  19.783  12.587
 6002W        W72411  17.969  33.620  12.089
 6003W        W72412  14.189  13.338  13.049
 6004W        W72413   9.848   8.941   4.991
 6005W        W72414  12.170  22.026   2.917
 6006W        W72415  15.067  11.411   3.317
 6007W        W72416  24.590   5.041   2.755
 6008W        W72417  26.901  10.354   1.328
 6009W        W72418   3.746  21.751  13.287
 6010W        W72419   8.372  32.886   0.268
 6011W        W72420  28.176  29.044  10.331
 6012W        W72421  29.993  13.026   1.399
 6013W        W72422  29.156  18.037   2.172
 6014W        W72423  44.434  20.174  12.464
 6015W        W72424  24.030  30.750  12.932
 6016W        W72425  17.361  39.450   2.751
 6017W        W72426  36.167  26.553   4.404
 6018W        W72427   9.173  31.389   2.638
 6019W        W72428  14.219  25.054   3.195
 6020W        W72429  25.846   0.055  11.625
 6021W        W72430  37.997  36.107   0.794
 6022W        W72431  23.104   0.743   0.847
 6023W        W72432  44.835   7.086  11.604
 6024W        W72433  34.358   2.926  14.818
 6025W        W72434  34.477  27.909  12.326
 6026W        W72435   7.278  31.246  12.994
 6027W        W72436  33.817  16.546   3.451
 6028W        W72437  17.517   9.223   1.794
 6029W        W72438  18.469   5.029  14.365
 6030W        W72439  18.558  17.003   0.775
 6031W        W72440  25.506   9.396  11.499
 6032W        W72441  33.093  16.245   2.162
 6033W        W72442  34.714  29.014  13.033
 6034W        W72443  37.472  24.885  13.193
 6035W        W72444  21.610   6.413   2.803
 6036W        W72445  23.762  12.242   0.850
 6037W        W72446  38.638   6.389  12.158
 6038W        W72447  14.703   0.946  12.630
 6039W        W72448  25.353  44.642  12.028
 6040W        W72449  35.582  15.905   0.881
 6041W        W72450   3.308  23.037   3.263
 6042W        W72451  10.093   7.551  14.476
 6043W        W72452   3.582  20.357  12.676
 6044W        W72453   8.133   6.149  11.109
 6045W        W72454  36.910  40.057  14.728
 6046W        W72455   7.721  17.102  14.983
 6047W        W72456  33.354  15.064   1.892
 6048W        W72457  11.705  43.326  14.010
 6049W        W72458   3.733  30.225  14.809
 6050W        W72459  16.327  44.549  14.182
 6051W        W72460  19.602  36.473  10.790
 6052W        W72461  29.832   3.184   4.145
 6053W        W72462  41.405  31.636  14.759
 6054W        W72463  20.642  37.566   0.067
 6055W        W72464  30.107  16.752  13.566
 6056W        W72465  44.816  38.152   3.683
 6057W        W72466  28.933  13.865   2.228
 6058W        W72467   7.465  41.815   0.411
 6059W        W72468  15.821   6.864  10.618
 6060W        W72469   0.783  32.216   4.913
 6061W        W72470  40.348  29.976  14.948
 6062W        W72471  22.708  16.532  12.327
 6063W        W72472  34.960  23.768  11.587
 6064W        W72473  31.599  13.439   0.283
 6065W        W72474  29.876  40.692  13.308
 6066W        W72475  38.119   4.859   0.263
 6067W        W72476  12.807  26.438  10.928
 6068W        W72477  25.297  35.486  13.479
 6069W        W72478  39.418  22.196  13.511
 6070W        W72479  26.138  34.289   3.168
 6071W        W72480   1.434  28.918   2.275
 6072W        W72481  22.174  34.594  10.738
 6073W        W72482  11.714  28.449   4.159
 6074W        W72483   2.723  22.528  10.718
 6075W        W72484   6.722  13.086  11.610
 6076W        W72485  10.330  15.398  13.926
 6077W        W72486  38.405  22.288   4.558
 6078W        W72487   4.654   8.997   4.149
 6079W        W72488  15.807  30.884  10.773
 6080W        W72489   3.037  38.520  12.005
 6081W        W72490  22.580  28.690   2.813
 6082W        W72491   1.709  41.283  12.421
 6083W        W72492  20.836  23.466  12.416
 6084W        W72493  41.010  29.878  14.880
 6085W        W72494  15.503   1.859  12.010
 6086W        W72495  16.214  30.646  13.034
 6087W        W72496  17.121  38.179  11.199
 6088W        W72497  43.228   7.679  13.462
 6089W        W72498   5.848  25.706  13.872
 6090W        W72499  36.117   8.434  14.841
 6091W        W72500   2.764  44.577   3.936
 6092W        W72501  18.517  44.886   4.079
 6093W        W72502   3.433  40.206   1.160
 6094W        W72503   5.621  34.106  12.120
 6095W        W72504   8.483  36.855  12.086
 6096W        W72505  11.138  40.214   1.311
 6097W        W72506  39.929  37.002   1.418
 6098W        W72507  21.596  10.782  12.000
 6099W        W72508  26.708  37.805   1.441
 6100W        W72509  14.857  11.680  14.622
 6101W        W72510  38.354  33.381  11.560
 6102W        W72511  33.775  28.222  12.783
 6103W        W72512  26.857  13.389  14.455
 6104W        W72513   3.839  33.618   2.296
 6105W        W72514  18.666  13.780  13.839
 6106W        W72515  18.833  14.557   2.405
 6107W        W72516  21.661  28.196  13.058
 6108W        W72517  28.124  32.402   0.824
 6109W        W72518  24.765  27.925   0.104
 6110W        W72519  18.960  28.934   1.935
 6111W        W72520  27.695  27.751   0.953
 6112W        W72521  18.875   1.758   2.293
 6113W        W72522  18.233  41.287   0.281
 6114W        W72523  42.217   4.393   3.246
 6115W        W72524  21.513  34.422   2.807
 6116W        W72525  33.338  19.998   1.786
 6117W        W72526  14.909   0.068  13.237
 6118W        W72527   9.464  13.528  14.747
 6119W        W72528  18.548   0.813  13.907
 6120W        W72529  23.239   9.558  13.819
 6121W        W72530  11.448   0.854  12.496
 6122W        W72531  30.852  32.010   4.838
 6123W        W72532  33.446  31.205  13.480
 6124W        W72533  32.403  28.110  14.387
 6125W        W72534  20.872  24.259   2.761
 6126W        W72535  12.943  36.489   1.199
 6127W        W72536  10.169  38.492  12.382
 6128W        W72537  21.555   2.628   2.142
 6129W        W72538   5.823  43.100  14.449
 6130W        W72539  29.933  38.533  12.035
 6131W        W72540  17.536  33.416  10.744
 6132W        W72541  27.569  41.381   3.264
 6133W        W72542  29.535  43.815   0.329
 6134W        W72543  41.584  22.975  12.504
 6135W        W72544  20.663  41.324   1.273
 6136W        W72545  38.812  40.504  12.876
 6137W        W72546  28.249  10.895   2.859
 6138W        W72547  42.879   8.252  10.770
 6139W        W72548  19.695  21.028  12.301
 6140W        W72549  14.196   0.467  12.827
 6141W        W72550   8.406  41.839  14.953
 6142W        W72551  42.100   8.564   3.629
 6143W        W72552  34.132  43.975  13.336
 6144W        W72553  33.473  30.502   4.085
 6145W        W72554  14.828  11.859   0.394
 6146W        W72555   3.867   5.871   1.896
 6147W        W72556  17.773  33.408   3.165
 6148W        W72557   4.689  32.744   0.239
 6149W        W72558   1.341  34.594   2.207
 6150W        W72559   6.596   4.517   1.362
 6151W        W72560   1.366  20.697  13.325
 6152W        W72561   0.860   0.985  11.463
 6153W        W72562  14.599  31.173   3.337
 6154W        W72563  31.493  40.286   2.234
 6155W        W72564  26.519  30.816  13.821
 6156W        W72565  32.157  26.023  12.957
 6157W        W72566   1.432  23.625  11.216
 6158W        W72567  38.129  30.187   1.786
 6159W        W72568  14.875   1.754   3.613
 6160W        W72569  40.498  17.754  12.185
 6161W        W72570  19.956  21.316  14.372
 6162W        W72571  39.809  29.351   3.351
 6163W        W72572  43.316  15.556   3.400
 6164W        W72573  16.073   2.261  14.548
 6165W        W72574  26.783  20.738   2.306
 6166W        W72575  29.879  31.472  14.531
 6167W        W72576   8.288  23.540  10.272
 6168W        W72577  42.910  41.316  12.608
 6169W        W72578  35.114   2.607   3.145
 6170W        W72579  28.717   2.179  11.520
 6171W        W72580  18.692  38.687  10.167
 6172W        W72581   9.082  40.271  13.833
 6173W        W72582  19.505  26.470  11.800
 6174W        W72583  39.375  28.957   3.647
 6175W        W72584  32.444   6.620   3.753
 6176W        W72585  34.948  12.053   0.784
 6177W        W72586  18.427  39.621  11.440
 6178W        W72587  41.775  15.136  12.557
 6179W        W72588   7.265  41.973   2.770
 6180W        W72589  20.860  13.455  13.863
 6181W        W72590  19.772  41.653   4.044
 6182W        W72591   7.682  35.626   3.104
 6183W        W72592  39.652   9.603   1.218
 6184W        W72593  28.883  12.134  13.400
 6185W        W72594  14.586  16.548   0.014
 6186W        W72595  22.996  44.016  13.982
 6187W        W72596  37.633  18.599   1.013
 6188W        W72597   1.291  44.583   1.364
 6189W        W72598  37.681   2.003  14.832
 6190W        W72599  30.987   1.271  12.333
 6191W        W72600  42.126   9.171  13.838
 6192W        W72601  12.210  15.819   2.403
 6193W        W72602  32.438   8.225   4.736
 6194W        W72603  41.447  43.252   0.816
 6195W        W72604  22.187  13.749   1.460
 6196W        W72605  14.227   1.826  10.519
 6197W        W72606  21.893   6.934   1.416
 6198W        W72607  12.749   7.460  14.299
 6199W        W72608  12.883   8.219   3.213
 6200W        W72609  21.767  10.189   2.283
 6201W        W72610  35.358   0.087  10.677
 6202W        W72611   7.311  25.405   1.986
 6203W        W72612  13.329  31.995  10.630
 6204W        W72613  20.346  24.518  11.082
 6205W        W72614  34.245  16.789   3.274
 6206W        W72615  26.830   5.337  14.802
 6207W        W72616   8.205   2.796   0.751
 6208W        W72617  27.058   8.648  12.115
 6209W        W72618  10.497  32.503   3.700
 6210W        W72619  33.947  30.118   3.357
 6211W        W72620  16.326   6.704   3.106
 6212W        W72621   7.682  19.155   0.887
 6213W        W72622  36.221  44.456  14.314
 6214W        W72623  23.943   1.533  11.244
 6215W        W72624  36.006  27.368   1.408
 6216W        W72625   6.891  38.503   1.953
 6217W        W72626  16.357  43.105   1.990
 6218W        W72627  35.970  16.103   2.693
 6219W        W72628   2.169  24.022   1.597
 6220W        W72629  39.926  32.226  11.587
 6221W        W72630  22.779   7.542  12.615
 6222W        W72631   1.969  24.997   0.228
 6223W        W72632  13.222   1.771  14.922
 6224W        W72633  20.319  20.825   3.268
 6225W        W72634  39.868  25.646  12.397
 6226W        W72635  22.778  16.073  12.731
 6227W        W72636  31.582  20.468   0.613
 6228W        W72637   1.785  44.026  11.084
 6229W        W72638  29.470  36.956   0.378
 6230W        W72639  41.096  26.601  14.209
 6231W        W72640  16.846  34.209  11.903
 6232W        W72641  16.797  44.711  11.416
 6233W        W72642  25.043  23.374   3.071
 6234W        W72643  15.744  13.131   0.932
 6235W        W72644  37.671  33.144   3.685
 6236W        W72645   2.702   9.642  10.529
 6237W        W72646  15.114  15.138   1.418
 6238W        W72647  13.792   3.507  13.319
 6239W        W72648  35.752  42.270   3.828
 6240W        W72649  13.344  25.555  12.107
 6241W        W72650  41.090  31.088  11.993
 6242W        W72651  22.437  44.931  13.802
 6243W        W72652  35.845  28.025  13.559
 6244W        W72653  41.744  14.748  12.909
 6245W        W72654  16.249  37.019  13.999
 6246W        W72655  44.381  44.981  13.011
 6247W        W72656  21.162  15.785  13.103
 6248W        W72657   1.657  31.295  14.355
 6249W        W72658  27.607  40.735  13.800
 6250W        W72659  43.817  24.429   0.188
 6251W        W72660  31.488  40.224  12.903
 6252W        W72661  37.063   7.093   0.369
 6253W        W72662  41.727  26.377   2.613
 6254W        W72663  25.956   7.208  14.855
 6255W        W72664  20.576  27.095  11.154
 6256W        W72665  15.319   4.839   4.512
 6257W        W72666   3.715   9.720  12.610
 6258W        W72667   6.958  22.358  10.891
 6259W        W72668  20.439  31.805   1.917
 6260W        W72669  21.127  19.578  10.323
 6261W        W72670  24.455  24.261  14.929
 6262W        W72671  14.640  35.380   3.725
 6263W        W72672   1.940  32.088  14.049
 6264W        W72673  32.164  22.261  12.070
 6265W        W72674  12.195  26.692   3.207
 6266W        W72675  37.306  18.564   3.703
 6267W        W72676   5.746   0.798   1.967
 6268W        W72677  17.040  37.316   2.257
 6269W        W72678  39.761  23.766  14.242
 6270W        W72679  36.555  28.614   3.339
 6271W        W72680  37.891  27.126  10.963
 6272W        W72681  18.951  39.778  11.553
 6273W        W72682  30.840  29.677  10.368
 6274W        W72683  27.403  31.427   0.226
 6275W        W72684  40.503  44.571  14.503
 6276W        W72685  16.811   4.456  12.323
 6277W        W72686  43.999   3.228   2.280
 6278W        W72687  16.092  31.693   2.927
 6279W        W72688  13.366  14.803  14.863
 6280W        W72689  16.795  21.965   1.863
 6281W        W72690   7.571  31.889   2.793
 6282W        W72691  13.831  12.874  10.574
 6283W        W72692   5.547   4.730  13.484
 6284W        W72693  14.442  32.166  13.434
 6285W        W72694   8.603  31.971   1.488
 6286W        W72695  44.454  35.006   4.513
 6287W        W72696  18.109  14.701   2.857
 6288W        W72697  10.599   3.509  12.887
 6289W        W72698  11.623   9.398   2.381
 6290W        W72699  23.535  25.217   4.117
 6291W        W72700  29.645  10.736  10.366
 6292W        W72701  31.030  14.909  13.387
 6293W        W72702   7.206   7.528  10.934
 6294W        W72703  31.282  19.436   1.860
 6295W        W72704  44.672  25.019   4.175
 6296W        W72705  33.169   9.258   4.236
 6297W        W72706  35.745  25.924  12.971
 6298W        W72707  11.410  25.430   4.922
 6299W        W72708  20.267  33.549  14.374
 6300W        W72709  36.586  11.315   1.695
 6301W        W72710  21.009   9.593  13.807
 6302W        W72711  13.644  23.481  14.329
 6303W        W72712  12.949   3.286   2.299
 6304W        W72713   1.950   4.374  12.515
 6305W        W72714  27.595   4.482   0.293
 6306W        W72715  28.393  40.880  13.033
 6307W        W72716  11.363  17.572  11.419
 6308W        W72717  11.629  39.066  11.594
 6309W        W72718   1.071   8.986   2.293
 6310W        W72719  37.633  35.545   2.765
 6311W        W72720  24.753  34.461   2.827
 6312W        W72721   0.680   6.902   1.764
 6313W        W72722  17.298  38.525   0.949
 6314W        W72723  27.980  17.285   0.225
 6315W        W72724  19.114  16.654   4.622
 6316W        W72725  37.400  14.345  11.603
 6317W        W72726  12.671  40.404   1.457
 6318W        W72727  27.780  18.125   2.351
 6319W        W72728  25.450  32.442  11.320
 6320W        W72729  14.641  38.125   1.648
 6321W        W72730  35.845  20.043   3.810
 6322W        W72731  34.129   4.584   4.500
 6323W        W72732  29.092   8.183   2.583
 6324W        W72733  34.042  39.630   3.175
 6325W        W72734  21.591  25.680   4.109
 6326W        W72735   1.915  19.824   0.350
 6327W        W72736  30.380  12.698  10.776
 6328W        W72737  11.105  37.479  12.591
 6329W        W72738  17.792  39.915   4.604
 6330W        W72739  44.355  29.166  10.614
 6331W        W72740  33.140  10.177  13.550
 6332W        W72741  36.922  14.624   1.241
 6333W        W72742  31.939  30.963  14.333
 6334W        W72743  34.658   2.446  13.955
 6335W        W72744   1.905   4.828   0.699
 6336W        W72745   2.003   0.865  10.703
 6337W        W72746  22.189  43.320  14.329
 6338W        W72747   1.337  29.186  12.325
 6339W        W72748  27.241  15.161   0.719
 6340W        W72749  24.750  24.292   1.187
 6341W        W72750  17.337  40.038   3.755
 6342W        W72751  28.573  32.606  14.478
 6343W        W72752  32.185  14.207   0.950
 6344W        W72753  42.479  31.395  10.632
 6345W        W72754  21.984  29.289  11.308
 6346W        W72755  39.779   7.626  10.653
 6347W        W72756  21.205  44.727  13.470
 6348W        W72757  23.542   7.390  14.848
 6349W        W72758  39.283   2.839   0.919
 6350W        W72759  15.382  27.291   3.077
 6351W        W72760   9.736   8.907  11.074
 6352W        W72761  12.553  35.953   0.009
 6353W        W72762  36.361  10.142   4.247
 6354W        W72763  12.438  21.953   1.336
 6355W        W72764  18.352   4.905   3.606
 6356W        W72765  42.448   1.427   0.710
 6357W        W72766  12.383  17.583  13.980
 6358W        W72767  21.126  21.305  14.805
 6359W        W72768  26.636  34.541   1.316
 6360W        W72769  34.171   1.429  12.338
 6361W        W72770  27.498  41.874   3.493
 6362W        W72771  14.891  20.674  11.340
 6363W        W72772   5.351  36.994  11.609
 6364W        W72773  29.233  27.517   1.726
 6365W        W72774  24.696  27.444   3.145
 6366W        W72775  44.337  23.120  11.982
 6367W        W72776  35.627  20.237  13.339
 6368W        W72777  41.105   4.261   3.130
 6369W        W72778  10.020   7.376  13.533
 6370W        W72779  22.911  26.580   0.014
 6371W        W72780  34.865   0.003  13.134
 6372W        W72781   2.615  44.017  12.933
 6373W        W72782  33.613  40.754   4.144
 6374W        W72783  14.602  40.992   0.020
 6375W        W72784   7.421   2.781  13.645
 6376W        W72785  31.402  36.068   3.168
 6377W        W72786  28.159  27.596  13.365
 6378W        W72787  29.001  12.699   4.198
 6379W        W72788  25.692   9.221  14.759
 6380W        W72789  38.504   9.023  14.396
 6381W        W72790   5.911  30.667  14.092
 6382W        W72791  16.451  40.210   1.447
 6383W        W72792  37.448   2.462   3.173
 6384W        W72793   4.502   8.597   1.287
 6385W        W72794  30.969  30.484   0.688
 6386W        W72795  10.696  20.969  10.036
 6387W        W72796  12.780   0.896  14.633
 6388W        W72797  19.347   4.220  13.315
 6389W        W72798   5.218  39.487   4.425
 6390W        W72799  31.838   4.712  11.217
 6391W        W72800  38.806  26.385   4.664
 6392W        W72801   8.771   2.804  13.858
 6393W        W72802   6.424  15.231  13.494
 6394W        W72803  10.526  29.565   2.783
 6395W        W72804  10.086  23.354  13.161
 6396W        W72805   3.989  23.960   0.895
 6397W        W72806   7.952   8.764  10.525
 6398W        W72807  19.507  33.179  13.661
 6399W        W72808  15.594  10.631  13.914
 6400W        W72809  13.333  39.316  12.548
 6401W        W72810  44.876  22.986  13.979
 6402W        W72811  18.611  35.587   3.161
 6403W        W72812   3.402  41.833   0.229
 6404W        W72813  38.342  22.249   0.967
 6405W        W72814  21.022   9.168   1.482
 6406W        W72815  40.475   6.220  11.133
 6407W        W72816  31.138  38.845  12.545
 6408W        W72817  24.856   7.738  11.090
 6409W        W72818  10.282   3.517  12.428
 6410W        W72819  15.223  24.623  12.630
 6411W        W72820  22.221  14.377  13.965
 6412W        W72821  32.571  18.382  12.434
 6413W        W72822  39.594  43.242  11.630
 6414W        W72823  40.852  40.523  13.533
 6415W        W72824  31.055  28.882  10.592
 6416W        W72825  10.856   5.874  10.844
 6417W        W72826  36.838  23.058   3.683
 6418W        W72827  12.177  15.585  13.201
 6419W        W72828  38.384  17.920   1.832
 6420W        W72829  32.479  42.069   3.738
 6421W        W72830  17.510   1.146  11.289
 6422W        W72831  26.842  31.918  12.033
 6423W        W72832   4.717  41.313   0.832
 6424W        W72833   9.713  33.365  14.810
 6425W        W72834  24.119  11.654  13.196
 6426W        W72835  27.945  24.446   3.706
 6427W        W72836  25.154   6.742  12.665
 6428W        W72837  27.932   3.670   1.462
 6429W        W72838  20.681  24.227   1.873
 6430W        W72839  22.563  28.432   4.181
 6431W        W72840  41.814  19.268   0.782
 6432W        W72841  24.196  32.165   0.999
 6433W        W72842  27.987  36.406   3.250
 6434W        W72843  35.566   2.869   3.890
 6435W        W72844   0.436  21.489   2.445
 6436W        W72845  35.377   6.305  12.067
 6437W        W72846  41.295  34.390   3.697
 6438W        W72847  15.166  15.628   2.143
 6439W        W72848   6.650  16.423  13.144
 6440W        W72849   5.275  13.595  14.595
 6441W        W72850  36.836  25.881   3.717
 6442W        W72851  10.379   4.027   1.864
 6443W        W72852  13.446   2.256   3.637
 6444W        W72853  42.849   8.338   1.840
 6445W        W72854  33.403  32.321   4.074
 6446W        W72855  31.942  44.180   3.152
 6447W        W72856  26.276   4.417  13.215
 6448W        W72857  19.777  41.487   2.734
 6449W        W72858  30.716  25.533  12.119
 6450W        W72859  18.763  20.109   2.257
 6451W        W72860  16.250  31.169  11.581
 6452W        W72861  41.860  42.954  11.483
 6453W        W72862  35.435  32.486   1.300
 6454W        W72863   2.882  20.647   3.702
 6455W        W72864  31.849  19.759   4.838
 6456W        W72865  32.367   4.721  13.937
 6457W        W72866  27.396  44.778  10.863
 6458W        W72867   0.769  31.895   1.665
 6459W        W72868  43.267  19.605  12.500
 6460W        W72869  31.528   6.022  13.243
 6461W        W72870  19.953   0.704   1.317
 6462W        W72871  17.184   9.256   4.021
 6463W        W72872  24.649  44.549  11.060
 6464W        W72873  31.117  24.571   1.273
 6465W        W72874  16.745  25.737   4.110
 6466W        W72875  14.805   6.735   4.221
 6467W        W72876  25.390  14.896   1.367
 6468W        W72877  35.974  18.597  11.083
 6469W        W72878  12.009   1.477   4.444
 6470W        W72879  26.940   2.069  12.487
 6471W        W72880  26.572  39.376  13.502
 6472W        W72881  19.716  39.392  13.998
 6473W        W72882  33.919  39.129  12.879
 6474W        W72883  30.524   4.854  12.616
 6475W        W72884  14.607  16.639  13.081
 6476W        W72885   7.598  43.210  13.806
 6477W        W72886  25.600   9.653  11.956
 6478W        W72887  42.658  30.635   2.373
 6479W        W72888  31.075  12.385  10.765
 6480W        W72889  28.591  35.511  14.389
 6481W        W72890  19.378   1.909   0.347
 6482W        W72891   5.461   0.229  11.066
 6483W        W72892  18.323   7.260  12.863
 6484W        W72893  10.304  44.209   0.308
 6485W        W72894  37.915  41.561  13.071
 6486W        W72895  18.188  12.696  13.308
 6487W        W72896  17.166   3.254  10.198
 6488W        W72897   6.009  19.825   0.313
 6489W        W72898  30.272  40.233   2.266
 6490W        W72899  39.566  22.753  12.111
 6491W        W72900  15.880  15.217  10.507
 6492W        W72901  31.858   0.518  11.614
 6493W        W72902   6.790  36.486   4.925
 6494W        W72903  29.569  34.460   3.170
 6495W        W72904  42.768  44.557   0.924
 6496W        W72905  23.681  22.102   1.726
 6497W        W72906  27.566  28.145   2.621
 6498W        W72907   9.256   7.620   0.483
 6499W        W72908  39.854  44.521   3.002
 6500W        W72909   7.326   4.806  10.678
 6501W        W72910  38.604  10.201   2.712
 6502W        W72911   6.536   9.615   3.986
 6503W        W72912  40.064   2.315   4.583
 6504W        W72913   7.783  34.025   0.260
 6505W        W72914  24.181   5.122  11.065
 6506W        W72915  44.422  25.014   1.526
 6507W        W72916  29.698  10.111   0.665
 6508W        W72917  40.643   2.396   1.427
 6509W        W72918  15.918  11.708   1.869
 6510W        W72919  16.042   7.107   3.230
 6511W        W72920  36.170  26.126   4.085
 6512W        W72921   1.218  14.007  13.204
 6513W        W72922   3.426  14.580  14.971
 6514W        W72923   9.374  43.460  12.488
 6515W        W72924  19.151   2.042  12.185
 6516W        W72925  33.489  42.487  13.397
 6517W        W72926  40.624   9.246   4.682
 6518W        W72927  27.125  20.231   0.456
 6519W        W72928  37.269  36.361  12.017
 6520W        W72929  20.403  41.162   3.519
 6521W        W72930  21.131  13.307  11.929
 6522W        W72931   9.418  12.750  14.745
 6523W        W72932  37.561  39.545   0.830
 6524W        W72933   0.934  25.001  10.382
 6525W        W72934  10.282  18.561  10.443
 6526W        W72935   3.934   9.091  11.512
 6527W        W72936  29.512  21.633  11.709
 6528W        W72937  34.679  14.725   1.843
 6529W        W72938  19.538  10.641   0.436
 6530W        W72939   5.264   2.000   1.674
 6531W        W72940  19.093   1.513  12.194
 6532W        W72941  35.048  13.277   2.993
 6533W        W72942   0.563  39.423   2.023
 6534W        W72943  43.004  26.509  12.928
 6535W        W72944  27.453  26.738  13.847
 6536W        W72945  33.101  13.177  10.794
 6537W        W72946  20.430   6.485  13.334
 6538W        W72947  19.106  37.216   4.630
 6539W        W72948  31.454  26.234   3.718
 6540W        W72949  29.642  17.311   2.787
 6541W        W72950  19.633   9.523  11.562
 6542W        W72951  11.381  35.199   1.777
 6543W        W72952  39.252  27.087  12.813
 6544W        W72953  44.878   6.599  11.568
 6545W        W72954   6.169  27.206   0.287
 6546W        W72955   4.892  13.888   3.732
 6547W        W72956  19.608  11.786   4.548
 6548W        W72957  10.127  40.495  13.313
 6549W        W72958  13.097  36.475   5.320
 6550W        W72959  37.550   7.208  11.987
 6551W        W72960  14.258  15.431   2.216
 6552W        W72961  10.844  11.811  11.223
 6553W        W72962   9.516  16.752  14.253
 6554W        W72963  39.632  40.927  12.039
 6555W        W72964   4.915  13.473  13.396
 6556W        W72965   3.516  21.598  10.976
 6557W        W72966  10.725  43.533  14.024
 6558W        W72967   0.963  24.259   5.094
 6559W        W72968   3.822   6.066  11.186
 6560W        W72969  28.634  11.019  13.515
 6561W        W72970  44.910  36.860  14.204
 6562W        W72971  20.752   5.855  13.834
 6563W        W72972   1.336   2.545  12.550
 6564W        W72973  27.468  39.920  14.520
 6565W        W72974   8.256   2.267  12.869
 6566W        W72975   0.284  14.391  12.720
 6567W        W72976  32.045  14.108  10.331
 6568W        W72977  29.554   8.397   2.718
 6569W        W72978  35.994  40.851   3.653
 6570W        W72979  20.547  22.566   4.054
 6571W        W72980   7.585  35.083   3.196
 6572W        W72981  18.539  36.365   1.776
 6573W        W72982  24.172   6.291   2.845
 6574W        W72983   8.818  27.166   5.028
 6575W        W72984  21.159   8.944  13.551
 6576W        W72985  37.537  17.658   0.609
 6577W        W72986   8.125  11.665  13.427
 6578W        W72987  18.802  13.584  14.349
 6579W        W72988   5.500  35.595   0.365
 6580W        W72989  24.995  33.583  11.440
 6581W        W72990  10.965  27.445   2.393
 6582W        W72991   0.408  10.679   2.311
 6583W        W72992  27.617  42.294   4.226
 6584W        W72993  38.378  20.414   4.173
 6585W        W72994  28.253  38.252  13.389
 6586W        W72995  15.003  14.108   0.417
 6587W        W72996   6.415  17.405  12.512
 6588W        W72997   7.169  43.554   3.593
 6589W        W72998  20.638  33.529   4.620
 6590W        W72999  42.578   5.338  11.306
 6591W        W73000  39.257  39.818  14.809
 6592W        W73001   3.833  19.557  11.160
 6593W        W73002  26.689  27.512   4.687
 6594W        W73003  16.138  41.839  11.932
 6595W        W73004   5.329  10.857  12.916
 6596W        W73005  40.027  24.817  12.080
 6597W        W73006  34.942  34.029  11.665
 6598W        W73007   3.107   1.966  11.595
 6599W        W73008   8.115  33.706  12.652
 6600W        W73009  35.879   0.064   1.532
 6601W        W73010  20.979  17.300   0.139
 6602W        W73011  37.365   9.628   4.408
 6603W        W73012  30.052  14.157   3.401
 6604W        W73013  16.708  19.816  14.589
 6605W        W73014  21.570  29.546  13.895
 6606W        W73015  23.558  44.040   1.636
 6607W        W73016  21.603  36.315  10.379
 6608W        W73017   8.891  32.814  11.988
 6609W        W73018   0.838   1.945   2.810
 6610W        W73019  40.437  39.398  12.505
 6611W        W73020  37.455  22.491  13.027
 6612W        W73021  24.546   7.579   4.038
 6613W        W73022  21.480  35.135  14.360
 6614W        W73023  14.917   4.111  14.296
 6615W        W73024  44.201  32.895  13.061
 6616W        W73025  44.542  41.014  13.460
 6617W        W73026   4.350  10.069   4.831
 6618W        W73027  30.007  29.361  11.425
 6619W        W73028  12.261  18.115   4.615
 6620W        W73029  35.921  34.079  11.969
 6621W        W73030   7.695  43.515  12.337
 6622W        W73031  11.828   7.281   2.646
 6623W        W73032   8.456  18.281   2.826
 6624W        W73033   6.531  28.443  14.845
 6625W        W73034  32.445   7.484   0.521
 6626W        W73035  32.287  10.420   2.207
 6627W        W73036  42.393  44.997   2.746
 6628W        W73037   3.221   5.408   1.391
 6629W        W73038  37.510   5.995  11.157
 6630W        W73039  11.752  20.036  11.407
 6631W        W73040  20.649  18.091   3.363
 6632W        W73041  13.640  20.663  11.303
 6633W        W73042  35.651   6.391   0.719
 6634W        W73043  11.385   3.151   4.024
 6635W        W73044   5.479   8.472   0.348
 6636W        W73045   2.479  12.809   0.297
 6637W        W73046  24.037  13.993   4.205
 6638W        W73047   6.685  26.865   1.350
 6639W        W73048  14.378  41.991   0.005
 6640W        W73049  43.544  21.224   2.226
 6641W        W73050  31.060  20.790   3.572
 6642W        W73051  27.969  15.135  13.748
 6643W        W73052  16.565  24.590   4.131
 6644W        W73053  20.164  24.094   2.762
 6645W        W73054  11.437  15.242   1.128
 6646W        W73055  44.422   8.825  13.963
 6647W        W73056  22.650  36.396  13.938
 6648W        W73057  20.994   0.388  12.120
 6649W        W73058  42.514  25.975   1.916
 6650W        W73059  39.792   7.122  12.914
 6651W        W73060  33.238   8.357   1.593
 6652W        W73061  39.618  27.326   0.270
 6653W        W73062  34.874  40.271   3.270
 6654W        W73063  14.919  26.523   4.569
 6655W        W73064  10.553  16.114   4.285
 6656W        W73065  31.085   3.311   1.505
 6657W        W73066  31.461   6.611  12.175
 6658W        W73067  15.673   4.606  10.317
 6659W        W73068   9.682  33.926  12.218
 6660W        W73069   6.936   2.386   2.142
 6661W        W73070  41.422   6.382   3.375
 6662W        W73071  43.394  21.592   0.509
 6663W        W73072  33.310  30.647   0.474
 6664W        W73073  31.678   5.843  10.957
 6665W        W73074  42.082  41.955  12.104
 6666W        W73075   2.507   5.557  11.320
 6667W        W73076  14.365  44.052   0.803
 6668W        W73077  27.983  17.209  10.751
 6669W        W73078  37.831  34.624  11.920
 6670W        W73079   9.402  14.947  13.900
 6671W        W73080  40.067  17.905  14.930
 6672W        W73081  21.866  34.117   3.834
 6673W        W73082  35.969  13.948   0.320
 6674W        W73083   0.267  39.478  14.769
 6675W        W73084  33.710  25.543  13.396
 6676W        W73085  19.339   2.980   4.554
 6677W        W73086   3.374  35.933   3.802
 6678W        W73087  15.651  27.937   0.628
 6679W        W73088  10.748  33.230   2.220
 6680W        W73089  24.463  35.929   3.842
 6681W        W73090  11.225  40.681   1.112
 6682W        W73091  26.961  26.770   0.879
 6683W        W73092   3.172  42.222   2.368
 6684W        W73093  30.058  31.972  14.525
 6685W        W73094   0.756  42.595  13.035
 6686W        W73095  28.411  13.928  13.592
 6687W        W73096  36.047  15.122   3.626
 6688W        W73097  35.424  20.239   0.769
 6689W        W73098  15.152   4.599   4.064
 6690W        W73099  13.530  30.512   2.178
 6691W        W73100   6.175  40.326   1.594
 6692W        W73101  40.089  35.073   1.213
 6693W        W73102  25.139  38.317  11.605
 6694W        W73103  19.785   7.686  13.988
 6695W        W73104   4.564  44.838  11.264
 6696W        W73105  22.922  25.166  10.164
 6697W        W73106  37.336  28.533   2.254
 6698W        W73107  42.903  19.182   2.388
 6699W        W73108   3.327   3.174   3.782
 6700W        W73109  15.112  11.599  12.993
 6701W        W73110  14.145  32.382  13.805
 6702W        W73111  23.491  41.970   2.848
 6703W        W73112   1.895   2.790  11.262
 6704W        W73113  27.391  13.869   3.758
 6705W        W73114  19.326  29.430  14.924
 6706W        W73115  41.866   8.165   5.212
 6707W        W73116  33.588  20.948   4.085
 6708W        W73117  36.328  29.186  14.487
 6709W        W73118  14.361   5.806   3.811
 6710W        W73119  24.689  24.149  14.456
 6711W        W73120  18.813   5.512  13.438
 6712W        W73121  16.042  17.098  12.447
 6713W        W73122  40.480  15.539  11.425
 6714W        W73123  42.746   2.673  12.084
 6715W        W73124  19.089   4.971   0.130
 6716W        W73125  31.505   6.844   3.809
 6717W        W73126  27.787  25.640   4.195
 6718W        W73127  26.720   0.304  10.634
 6719W        W73128   8.643  24.333   0.851
 6720W        W73129  16.905   4.496   2.873
 6721W        W73130   0.244  17.976   0.709
 6722W        W73131  29.763  40.850  11.943
 6723W        W73132  16.993  38.952  11.560
 6724W        W73133  35.894   7.573  12.168
 6725W        W73134  20.118  13.427  13.364
 6726W        W73135  35.020  40.943   2.799
 6727W        W73136  32.949  40.065  13.546
 6728W        W73137  32.174   4.236   2.273
 6729W        W73138   5.519  20.485  11.224
 6730W        W73139  43.255  15.213   0.045
 6731W        W73140  20.256  44.720   3.673
 6732W        W73141   9.160  20.552   2.843
 6733W        W73142  41.996  24.114   2.008
 6734W        W73143  32.075  19.811   3.773
 6735W        W73144  42.804   9.315   2.423
 6736W        W73145   6.049  18.911   4.825
 6737W        W73146  25.648  34.556   3.133
 6738W        W73147  39.411   6.419  14.860
 6739W        W73148  10.098  28.754  12.880
 6740W        W73149  10.226   3.715   2.294
 6741W        W73150  37.611  20.661   1.720
 6742W        W73151  18.741  40.446  14.265
 6743W        W73152  19.186  40.073  14.396
 6744W        W73153  38.804   9.481  10.359
 6745W        W73154  34.491  20.103   4.185
 6746W        W73155  37.057   4.829  10.059
 6747W        W73156  31.506  35.550  12.762
 6748W        W73157   5.657  29.995   3.669
 6749W        W73158  40.482  15.643   3.604
 6750W        W73159  36.343   4.728   1.407
 6751W        W73160  15.382  29.003  11.650
 6752W        W73161  11.702  41.916  13.840
 6753W        W73162  22.937  22.594  14.864
 6754W        W73163   8.671  34.401   2.764
 6755W        W73164  40.772  28.345   9.808
 6756W        W73165  25.962  10.191  14.075
 6757W        W73166  37.591  42.981  14.689
 6758W        W73167  19.032  16.856   1.173
 6759W        W73168   9.591  36.251  12.150
 6760W        W73169  10.794  14.213   2.923
 6761W        W73170  24.146  43.287  13.799
 6762W        W73171  38.406   1.411   3.303
 6763W        W73172   3.267  35.924   4.736
 6764W        W73173  12.184  16.571  14.834
 6765W        W73174  29.984  11.702   1.303
 6766W        W73175  31.133  43.927  14.769
 6767W        W73176  23.167  35.286  14.468
 6768W        W73177  43.285   7.891   2.784
 6769W        W73178  20.059  31.098  13.980
 6770W        W73179  35.910   9.470   4.569
 6771W        W73180  39.603  14.869  10.707
 6772W        W73181  22.111  44.811   1.170
 6773W        W73182  12.389   9.906   1.711
 6774W        W73183  27.596  10.634   1.363
 6775W        W73184  41.870   9.374   1.842
 6776W        W73185  17.551  30.879  12.545
 6777W        W73186  23.455  15.609  10.886
 6778W        W73187  27.456  12.612   0.324
 6779W        W73188   1.954  37.372   4.680
 6780W        W73189  42.006  38.058  14.388
 6781W        W73190  43.015  44.385   0.054
 6782W        W73191  13.528   2.801   3.750
 6783W        W73192  31.624  36.808  12.460
 6784W        W73193  20.530  28.557  11.232
 6785W        W73194  21.307  42.971  14.804
 6786W        W73195  12.860  17.266  13.307
 6787W        W73196  32.350   9.372  12.006
 6788W        W73197   2.637   6.751   2.937
 6789W        W73198  22.408  21.525   9.737
 6790W        W73199  36.878  16.091  14.793
 6791W        W73200  27.486  35.906  11.614
 6792W        W73201  30.217   6.018  14.911
 6793W        W73202  23.531  30.526   0.316
 6794W        W73203   5.442  20.669   1.288
 6795W        W73204  18.978   6.911   0.342
 6796W        W73205   9.665   1.044   3.650
 6797W        W73206  22.081  35.033   2.899
 6798W        W73207  27.883  16.813   2.854
 6799W        W73208  16.332  32.148   0.227
 6800W        W73209   8.849  20.207   1.396
 6801W        W73210   9.368  22.310   4.045
 6802W        W73211  42.010  15.093   2.687
 6803W        W73212  38.827  24.145   4.461
 6804W        W73213   8.434   6.286  11.996
 6805W        W73214  18.548  43.379   0.949
 6806W        W73215  13.747  24.621   3.658
 6807W        W73216  16.729  14.371   2.433
 6808W        W73217  37.586  43.564   2.101
 6809W        W73218  27.179  25.335   2.242
 6810W        W73219  37.814  13.824   2.181
 6811W        W73220  40.348  20.714  12.956
 6812W        W73221  28.161   1.024  11.385
 6813W        W73222  14.127  43.721   4.646
 6814W        W73223   9.075  44.833  10.769
 6815W        W73224  18.593  18.242  10.922
 6816W        W73225  11.698  16.663   0.890
 6817W        W73226  15.649   4.330   0.975
 6818W        W73227  19.252  29.968   0.984
 6819W        W73228   0.199  38.992  14.999
 6820W        W73229   6.211  21.094   5.044
 6821W        W73230  22.241  39.751   3.196
 6822W        W73231  14.183  41.302  14.292
 6823W        W73232  37.805  44.934   2.578
 6824W        W73233  10.679   5.695   0.433
 6825W        W73234   1.348  20.704   1.467
 6826W        W73235  16.680  21.748  12.611
 6827W        W73236   9.726   1.318   3.194
 6828W        W73237  12.487  17.675  12.615
 6829W        W73238  16.028  28.387   3.220
 6830W        W73239  29.901   7.469  12.405
 6831W        W73240  42.527   7.651  13.009
 6832W        W73241   7.311  19.769  13.047
 6833W        W73242   0.374  35.317  11.159
 6834W        W73243  11.596  34.378  13.468
 6835W        W73244  30.555  25.516   0.663
 6836W        W73245  21.076   4.349   1.619
 6837W        W73246   1.903  10.134  13.420
 6838W        W73247  23.630  41.182   4.308
 6839W        W73248  21.483  41.880  12.514
 6840W        W73249  12.619   5.634  10.820
 6841W        W73250  17.081   7.398  11.682
 6842W        W73251  40.087   6.011  14.890
 6843W        W73252  17.702  40.780   3.564
 6844W        W73253  33.945  27.220  12.948
 6845W        W73254  23.020  16.625  14.470
 6846W        W73255  10.781   9.341   1.973
 6847W        W73256  25.536  34.475  12.593
 6848W        W73257  33.988   2.424   1.236
 6849W        W73258   9.763  21.210  14.447
 6850W        W73259   3.794  17.825   2.710
 6851W        W73260  37.258  27.804  10.124
 6852W        W73261  23.710  24.866  13.072
 6853W        W73262   2.956   2.422  10.801
 6854W        W73263  19.159  18.548  13.076
 6855W        W73264   3.969  39.779  11.546
 6856W        W73265  13.851  29.671  11.489
 6857W        W73266  28.505  33.926   1.858
 6858W        W73267  41.863  18.426  13.056
 6859W        W73268   1.938  18.244   2.326
 6860W        W73269  13.169  30.880  13.389
 6861W        W73270  35.993  32.591  13.457
 6862W        W73271  32.054  25.709  11.572
 6863W        W73272  22.163  33.374   5.046
 6864W        W73273   1.245   9.558  10.552
 6865W        W73274  44.953  42.055   4.684
 6866W        W73275  31.558   6.932  12.599
 6867W        W73276   1.766  18.726   1.213
 6868W        W73277  43.109  10.311   3.767
 6869W        W73278   1.900   4.001  13.856
 6870W        W73279  21.026  37.278   2.427
 6871W        W73280  18.284  39.609   1.396
 6872W        W73281  13.299  20.574   2.924
 6873W        W73282   4.356  28.429   3.344
 6874W        W73283  40.036   1.628  12.986
 6875W        W73284  10.193  44.681   1.758
 6876W        W73285  15.243   7.288   4.576
 6877W        W73286  20.045  41.515  11.819
 6878W        W73287  36.822  28.181  11.024
 6879W        W73288  38.139  30.937   1.177
 6880W        W73289  18.543  20.290  10.890
 6881W        W73290   5.003  43.990   4.107
 6882W        W73291  14.404  11.162   1.401
 6883W        W73292  17.231  15.471   2.111
 6884W        W73293  27.930  21.201  10.766
 6885W        W73294  22.541  14.561   0.957
 6886W        W73295  41.762   4.847   4.188
 6887W        W73296   1.929   9.736  12.091
 6888W        W73297  15.650  41.292  12.616
 6889W        W73298   8.188   2.996   1.224
 6890W        W73299  34.147  12.251  13.243
 6891W        W73300  14.888   0.577  13.310
 6892W        W73301  26.863  30.061   1.513
 6893W        W73302   9.208   7.819   3.690
 6894W        W73303  39.548  26.227   0.912
 6895W        W73304  19.258  24.044   4.509
 6896W        W73305  15.782  25.837  10.701
 6897W        W73306   8.038   0.647  10.286
 6898W        W73307   8.963   0.782   4.193
 6899W        W73308  33.832  28.814  11.446
 6900W        W73309  33.533   8.586  11.075
 6901W        W73310  31.960  13.610   1.374
 6902W        W73311   4.496  21.215   1.850
 6903W        W73312   7.037  23.088   1.727
 6904W        W73313  21.176  28.651   2.459
 6905W        W73314  27.200  37.072   3.442
 6906W        W73315  43.188   1.980   4.475
 6907W        W73316   4.904  42.282  11.501
 6908W        W73317  26.279  32.383   1.419
 6909W        W73318   9.793  43.646   4.177
 6910W        W73319   1.023   6.328  12.253
 6911W        W73320  40.521  34.186   2.918
 6912W        W73321  35.351  12.248   4.782
 6913W        W73322  41.482   6.952  11.708
 6914W        W73323   6.045  24.928  13.167
 6915W        W73324  33.543  28.434  11.625
 6916W        W73325  26.076   8.791  11.771
 6917W        W73326  12.267   5.653   0.727
 6918W        W73327  43.409  13.296   5.153
 6919W        W73328   3.901   6.662   2.828
 6920W        W73329  22.399  38.908  13.849
 6921W        W73330  17.575  18.650   1.853
 6922W        W73331  26.012  28.744  13.011
 6923W        W73332  20.606  26.652   4.462
 6924W        W73333  32.867   3.425  11.670
 6925W        W73334  30.342  16.772   4.739
 6926W        W73335  38.744   5.786  14.575
 6927W        W73336  23.024  24.951  13.319
 6928W        W73337  28.727  26.134   1.450
 6929W        W73338  21.969  19.294   2.715
 6930W        W73339  12.773  43.794   1.691
 6931W        W73340  44.285  11.583  14.100
 6932W        W73341  14.646  19.139  10.958
 6933W        W73342  28.104  10.770  12.887
 6934W        W73343   6.558   8.179  10.629
 6935W        W73344  43.940  21.660  11.603
 6936W        W73345  12.705  31.935  12.343
 6937W        W73346  18.585   7.831   4.960
 6938W        W73347   7.619  32.325  13.773
 6939W        W73348  39.423  44.375   4.133
 6940W        W73349  12.132   9.609  12.101
 6941W        W73350  42.245  37.330  11.926
 6942W        W73351   9.268  18.069   5.147
 6943W        W73352  12.304  26.110  12.538
 6944W        W73353  37.455   8.852   0.910
 6945W        W73354  43.941  33.118  12.032
 6946W        W73355  16.091   9.329   2.717
 6947W        W73356  32.377  25.069  13.502
 6948W        W73357  24.456   8.034   2.214
 6949W        W73358  27.835  35.064   0.257
 6950W        W73359  41.797   1.614   0.249
 6951W        W73360  41.066  30.927   3.837
 6952W        W73361  26.842  21.599  11.554
 6953W        W73362  40.663  33.287  10.101
 6954W        W73363  12.083  13.053   0.967
 6955W        W73364  27.705  42.046  13.513
 6956W        W73365  31.488  28.031   1.763
 6957W        W73366  40.469  41.483   0.813
 6958W        W73367  13.661   0.487  13.786
 6959W        W73368   4.055   6.134   3.645
 6960W        W73369  33.664  24.934   5.190
 6961W        W73370   6.670  32.616  11.224
 6962W        W73371  43.939  21.105  13.415
 6963W        W73372  18.224   5.859  11.944
 6964W        W73373  40.929  30.669   1.406
 6965W        W73374   8.198  30.643  11.250
 6966W        W73375  28.916  25.911   0.217
 6967W        W73376  43.775  14.108  11.090
 6968W        W73377   9.627  35.473   1.413
 6969W        W73378  42.842  33.046  10.737
 6970W        W73379  22.580  23.477   4.172
 6971W        W73380  10.554  14.992  14.455
 6972W        W73381  21.805  26.471   1.875
 6973W        W73382  34.318   7.609  11.007
 6974W        W73383  17.484  18.413  10.564
 6975W        W73384   6.140   2.449  13.851
 6976W        W73385  40.033   1.414   4.145
 6977W        W73386  14.703  16.292   0.544
 6978W        W73387   6.497  31.733  11.981
 6979W        W73388  32.103  36.026   4.300
 6980W        W73389   8.728   0.874   5.450
 6981W        W73390  28.493  37.102  13.914
 6982W        W73391  31.445  11.181   2.175
 6983W        W73392  15.062   9.926   4.101
 6984W        W73393  18.180  20.869  14.637
 6985W        W73394   0.753  32.126   2.680
 6986W        W73395  11.463   7.601   4.177
 6987W        W73396  21.563  44.487   4.797
 6988W        W73397  11.625   4.885   4.075
 6989W        W73398  24.147  41.349   2.283
 6990W        W73399  15.261  40.858  10.601
 6991W        W73400  20.247   6.353   5.004
 6992W        W73401  40.695  34.424  14.904
 6993W        W73402  24.403   6.138   4.101
 6994W        W73403  34.481  41.506   1.416
 6995W        W73404  31.597  13.652  13.224
 6996W        W73405  30.708  17.829  10.196
 6997W        W73406  39.073  38.533  14.751
 6998W        W73407  43.572   1.829  10.584
 6999W        W73408  34.239   7.659  12.313
 7000W        W73409  37.917  36.791  12.639
 7001W        W73410   8.352  38.331   3.298
 7002W        W73411   5.895  43.760   4.032
 7003W        W73412  26.378  44.084  14.715
 7004W        W73413   6.457  32.738   0.363
 7005W        W73414  31.290  26.248   2.776
 7006W        W73415  11.793   2.107   2.639
 7007W        W73416  36.811   9.408   4.653
 7008W        W73417  26.029  35.935   4.768
 7009W        W73418  44.422  24.977   3.710
 7010W        W73419  41.473  42.346   3.378
 7011W        W73420  12.768  22.992   0.257
 7012W        W73421   3.217  37.524  10.139
 7013W        W73422  36.512  25.056   2.577
 7014W        W73423  31.891  29.684  13.862
 7015W        W73424  25.066  15.003   2.398
 7016W        W73425  44.974  16.197   1.379
 7017W        W73426  35.837  21.915  14.789
 7018W        W73427  43.920  20.146  10.869
 7019W        W73428   0.438  38.442  11.888
 7020W        W73429  10.331  24.522  11.471
 7021W        W73430  13.073  40.318  13.279
 7022W        W73431  36.158  30.486  12.003
 7023W        W73432  27.008  31.931   3.897
 7024W        W73433  29.708   4.807  14.924
 7025W        W73434  17.265  40.261  11.013
 7026W        W73435  23.142  30.588  10.734
 7027W        W73436  14.258  24.548  14.553
 7028W        W73437  15.250  15.281   2.965
 7029W        W73438  14.993   0.613   2.247
 7030W        W73439  31.784   8.270   2.608
 7031W        W73440  37.010   3.982   2.981
 7032W        W73441  33.866   9.891   3.404
 7033W        W73442  25.985  29.176  14.426
 7034W        W73443   5.127  23.579  13.318
 7035W        W73444  40.829  28.290  13.910
 7036W        W73445  30.012  43.439   0.439
 7037W        W73446  27.383   2.529  13.320
 7038W        W73447  44.863  39.081   4.620
 7039W        W73448  27.908  18.816  13.161
 7040W        W73449   9.382  25.630  11.946
 7041W        W73450  17.798  21.881  11.220
 7042W        W73451  40.343   9.508   3.575
 7043W        W73452  43.891  22.829   2.841
 7044W        W73453  19.958   3.764   1.739
 7045W        W73454  36.681  26.253   2.195
 7046W        W73455  33.557  37.908  14.974
 7047W        W73456  34.548  15.613   0.837
 7048W        W73457  44.818  28.666   1.504
 7049W        W73458  42.823  28.169  12.514
 7050W        W73459  30.160  15.725  12.471
 7051W        W73460  25.323  21.486  11.663
 7052W        W73461  28.538  29.728   1.425
 7053W        W73462  36.084  14.236   2.261
 7054W        W73463  11.813  22.784  14.869
 7055W        W73464  21.645  43.331  10.723
 7056W        W73465  36.628  30.471   4.638
 7057W        W73466   1.807  41.941   2.095
 7058W        W73467  40.128  34.543   4.366
 7059W        W73468  25.390   7.400  13.497
 7060W        W73469  39.522  28.991  11.490
 7061W        W73470  21.572  39.151  14.011
 7062W        W73471   7.099  26.595   1.496
 7063W        W73472  38.059  24.539   1.731
 7064W        W73473  28.529  29.045  13.327
 7065W        W73474   5.627   9.830  13.493
 7066W        W73475  18.764  13.047  10.764
 7067W        W73476   3.302  12.107   0.492
 7068W        W73477  35.096   8.702   9.911
 7069W        W73478  40.678  37.164   1.021
 7070W        W73479  18.993  25.910  13.590
 7071W        W73480  30.043  44.255  10.919
 7072W        W73481  26.978  38.816  12.422
 7073W        W73482   1.551  26.431   0.681
 7074W        W73483  11.652  41.521   4.606
 7075W        W73484  30.053  24.502  12.490
 7076W        W73485  26.921  24.475  12.481
 7077W        W73486   1.493  34.633   3.705
 7078W        W73487  40.353  43.995  13.694
 7079W        W73488  22.421  29.545  12.201
 7080W        W73489  11.460  13.611   1.256
 7081W        W73490   3.860   0.010  10.764
 7082W        W73491  21.883  15.305   0.710
 7083W        W73492  42.445  40.517  11.451
 7084W        W73493  31.775  25.775   1.828
 7085W        W73494  20.153  26.665  12.061
 7086W        W73495  12.751  36.744   5.033
 7087W        W73496   9.745  19.918  11.131
 7088W        W73497   3.436  34.927  12.888
 7089W        W73498  28.608   9.796   1.339
 7090W        W73499   3.454   8.873   0.398
 7091W        W73500   4.850  16.698   2.764
 7092W        W73501  30.773  28.405   1.091
 7093W        W73502  12.788  42.384  11.376
 7094W        W73503  27.931  44.710  12.938
 7095W        W73504  38.439  43.427   2.678
 7096W        W73505  43.684  41.973  10.873
 7097W        W73506   2.992   0.561  10.625
 7098W        W73507   1.873  27.602   2.260
 7099W        W73508   9.657  19.510  14.719
 7100W        W73509   2.750  17.323  13.804
 7101W        W73510   7.404  34.491   1.745
 7102W        W73511  41.781  18.600   3.033
 7103W        W73512  14.361  40.375  14.020
 7104W        W73513   7.374   7.919   1.223
 7105W        W73514  40.594  12.797  12.896
 7106W        W73515  34.548  20.565   0.502
 7107W        W73516   1.802   7.667   3.272
 7108W        W73517  32.850   0.489   5.224
 7109W        W73518  23.678  17.425  11.189
 7110W        W73519  16.006  38.266  10.652
 7111W        W73520  11.652  31.074   0.736
 7112W        W73521  10.903  11.208  13.587
 7113W        W73522  10.297   0.790  14.423
 7114W        W73523  25.631  22.541   2.514
 7115W        W73524  38.713  33.491   3.586
 7116W        W73525   4.212   2.803   1.334
 7117W        W73526  28.963  40.810  10.497
 7118W        W73527  30.364  13.380   4.581
 7119W        W73528  17.305  17.836   3.675
 7120W        W73529  33.459   4.532   1.764
 7121W        W73530  20.680  39.740   2.748
 7122W        W73531  41.452  31.903   4.688
 7123W        W73532   0.914  24.917   0.413
 7124W        W73533  38.958   6.246   3.186
 7125W        W73534   2.259  29.943   0.966
 7126W        W73535   0.882  39.761   2.343
 7127W        W73536   7.938  17.758   0.695
 7128W        W73537  27.253   3.509  11.694
 7129W        W73538   8.789  12.903   2.885
 7130W        W73539   6.343  28.253  10.656
 7131W        W73540   3.443  41.979  14.192
 7132W        W73541  41.344   2.742  12.058
 7133W        W73542  11.353   1.783  14.592
 7134W        W73543  11.184  44.278   4.558
 7135W        W73544  42.315  36.493  13.672
 7136W        W73545  29.197  18.583   2.191
 7137W        W73546   8.311  30.450  13.763
 7138W        W73547  16.682  37.118  13.299
 7139W        W73548  15.578  12.123  12.065
 7140W        W73549  12.897   6.566   1.220
 7141W        W73550  26.033  18.689   3.099
 7142W        W73551  11.714  24.117   4.589
 7143W        W73552  23.517  43.286  11.681
 7144W        W73553  39.224  11.908  12.500
 7145W        W73554  24.046  12.093   0.435
 7146W        W73555  33.149  38.425   1.888
 7147W        W73556  31.669  23.058  13.044
 7148W        W73557  17.754   1.488  13.888
 7149W        W73558   4.876  12.304  14.366
 7150W        W73559  30.582  11.443  14.251
 7151W        W73560  19.121  19.146   0.559
 7152W        W73561  17.401  31.375   3.175
 7153W        W73562  14.857  23.132  14.957
 7154W        W73563  42.092  39.373   0.376
 7155W        W73564  27.039  12.680  11.933
 7156W        W73565  20.593  27.508   2.900
 7157W        W73566  35.622   7.187   2.941
 7158W        W73567  21.793  35.749   3.742
 7159W        W73568  14.094   8.429  11.590
 7160W        W73569   8.176  17.314   3.817
 7161W        W73570  29.009  42.348  13.336
 7162W        W73571  44.346  41.447   2.447
 7163W        W73572  32.878   9.602  14.760
 7164W        W73573  22.999  27.949   3.121
 7165W        W73574   6.611  13.862  13.475
 7166W        W73575  34.792  26.289   0.978
 7167W        W73576  43.149   9.388  14.702
 7168W        W73577  18.685   6.851   1.296
 7169W        W73578  44.420  15.292   1.666
 7170W        W73579  23.598  25.784   2.855
 7171W        W73580  14.660   6.304   3.912
 7172W        W73581  19.344  42.580  13.367
 7173W        W73582  30.975   8.707   4.604
 7174W        W73583  20.068  21.072  13.511
 7175W        W73584  13.149  43.103  10.168
 7176W        W73585  12.238  28.055   2.628
 7177W        W73586  26.674  42.916   3.094
 7178W        W73587   9.145  33.662  13.957
 7179W        W73588  29.214  44.181   1.513
 7180W        W73589  44.505   0.972  12.553
 7181W        W73590  36.983  24.692  12.876
 7182W        W73591  21.231  10.814   4.215
 7183W        W73592  42.905   1.695  11.967
 7184W        W73593   6.844  16.003  14.568
 7185W        W73594  14.560  11.546  11.207
 7186W        W73595  20.129  19.188  13.477
 7187W        W73596  19.100   9.040   2.986
 7188W        W73597   9.144  33.213  14.257
 7189W        W73598  43.565   9.498   4.196
 7190W        W73599  18.803   6.963  13.522
 7191W        W73600  18.672   1.334   2.100
 7192W        W73601  26.667  10.129  13.032
 7193W        W73602  25.659  27.002   0.680
 7194W        W73603  28.582  22.809   1.846
 7195W        W73604  18.580  19.341   3.161
 7196W        W73605  13.362  41.773  14.302
 7197W        W73606  36.361   2.348  14.445
 7198W        W73607  41.913  15.409  14.034
 7199W        W73608  41.710  27.125   2.254
 7200W        W73609  30.460   9.079  11.589
 7201W        W73610  40.265   9.221   5.066
 7202W        W73611  23.968   0.289  12.373
 7203W        W73612  13.370  23.627   0.870
 7204W        W73613   5.000  35.101   1.202
 7205W        W73614  36.318  16.956  10.299
 7206W        W73615  37.254  15.722  14.749
 7207W        W73616  36.675  12.654   1.717
 7208W        W73617  20.654  21.472   2.310
 7209W        W73618  35.713  12.781  14.836
 7210W        W73619  26.737  19.267  12.008
 7211W        W73620  30.075  26.830   0.826
 7212W        W73621  31.610  31.161  10.653
 7213W        W73622   1.833  44.040   0.233
 7214W        W73623   6.703   9.313  13.378
 7215W        W73624  41.864   5.742   0.693
 7216W        W73625   1.963   9.232  12.051
 7217W        W73626  33.439  20.168   3.089
 7218W        W73627  39.043   0.260   3.945
 7219W        W73628   7.910  30.002  13.184
 7220W        W73629  35.676  22.526  11.893
 7221W        W73630  20.075  19.771   4.608
 7222W        W73631   7.195  16.057   1.349
 7223W        W73632  29.560  13.241   1.231
 7224W        W73633  24.963   6.479   0.285
 7225W        W73634  10.406   7.252   3.545
 7226W        W73635  24.189  42.294  13.446
 7227W        W73636  33.478  15.370  12.061
 7228W        W73637  15.191   2.443  13.497
 7229W        W73638   4.192  35.363  12.021
 7230W        W73639  15.058  37.854   1.858
 7231W        W73640  22.774   9.306  13.918
 7232W        W73641  40.750  30.098   0.258
 7233W        W73642  11.447  38.239   4.245
 7234W        W73643  13.785  37.452  12.812
 7235W        W73644  40.378   2.852   4.441
 7236W        W73645  16.487  42.969   4.015
 7237W        W73646  22.745   7.355  10.876
 7238W        W73647  43.391  43.912   0.520
 7239W        W73648   6.252  24.993  13.909
 7240W        W73649  24.682  33.695   1.997
 7241W        W73650   6.127  20.655  11.928
 7242W        W73651  23.160  36.892   3.729
 7243W        W73652  38.301   6.117   4.128
 7244W        W73653  14.818   6.633  14.488
 7245W        W73654  33.289  23.122   4.902
 7246W        W73655  44.009  29.602  12.528
 7247W        W73656  15.773  11.180   2.892
 7248W        W73657   7.774  36.021   0.816
 7249W        W73658  37.431   9.542  12.942
 7250W        W73659  19.659  35.902  12.593
 7251W        W73660  15.697   1.851   1.057
 7252W        W73661  26.789  14.861   3.139
 7253W        W73662  19.775  35.664   1.782
 7254W        W73663   7.731  13.101  10.503
 7255W        W73664  10.691  11.366   2.436
 7256W        W73665   6.228   2.894  11.081
 7257W        W73666   8.276   6.437   4.248
 7258W        W73667  42.479  42.740   2.367
 7259W        W73668   3.854   7.954   0.706
 7260W        W73669   3.789  11.352  10.858
 7261W        W73670   0.503  20.269   3.635
 7262W        W73671  33.541  30.583   0.005
 7263W        W73672  27.586   8.218  13.321
 7264W        W73673   1.721   8.784  13.062
 7265W        W73674  17.332  36.013   3.183
 7266W        W73675   2.041  39.298   1.582
 7267W        W73676  44.353  38.156  12.505
 7268W        W73677  35.508  14.710  10.445
 7269W        W73678   6.010  26.213   4.060
 7270W        W73679  13.038  42.703  14.889
 7271W        W73680  36.049  42.600   3.129
 7272W        W73681  42.347  30.332  10.885
 7273W        W73682  13.608  23.646  12.936
 7274W        W73683  16.076   1.834   3.991
 7275W        W73684   9.777  38.889   1.024
 7276W        W73685  17.858  26.377  12.827
 7277W        W73686   4.585  19.198   1.038
 7278W        W73687  15.301   1.557  10.113
 7279W        W73688  19.254   1.367   2.265
 7280W        W73689  18.553  11.219   1.415
 7281W        W73690  16.265  32.312   1.217
 7282W        W73691  29.662   1.654  11.560
 7283W        W73692  26.308  29.602   3.972
 7284W        W73693   1.785  44.902  14.047
 7285W        W73694  21.151   8.954  14.444
 7286W        W73695  30.557  42.368   4.165
 7287W        W73696  12.895  32.652  13.030
 7288W        W73697   9.788  39.042  13.014
 7289W        W73698  29.997   9.607   2.651
 7290W        W73699  35.074  33.458   0.748
 7291W        W73700  18.603  31.627  13.931
 7292W        W73701   1.938  10.234  11.971
 7293W        W73702  25.996  24.645  12.396
 7294W        W73703  20.198  13.102   4.706
 7295W        W73704  25.513  16.983  11.029
 7296W        W73705  33.447  11.162   0.251
 7297W        W73706  10.389  15.946  13.017
 7298W        W73707  17.356  10.291   3.309
 7299W        W73708  34.481  26.422   3.770
 7300W        W73709  13.397  33.243  13.276
 7301W        W73710  28.050   4.743   0.283
 7302W        W73711  35.791  41.142  12.567
 7303W        W73712  39.351  26.189   4.313
 7304W        W73713  10.874  19.056   1.666
 7305W        W73714   9.409  28.381  13.267
 7306W        W73715  41.566   2.931  13.921
 7307W        W73716  38.792  31.078   4.085
 7308W        W73717  36.900   8.645  12.615
 7309W        W73718  13.897   0.542   2.863
 7310W        W73719  42.098  16.435  10.222
 7311W        W73720  36.663  38.530   2.632
 7312W        W73721  44.582  27.235   3.453
 7313W        W73722   4.491  28.520  11.461
 7314W        W73723  14.659  30.971  13.283
 7315W        W73724  29.108  22.938  13.361
 7316W        W73725   0.706  23.680  11.246
 7317W        W73726  43.911  21.156   4.520
 7318W        W73727  38.347   8.153  14.425
 7319W        W73728  32.415   0.985  10.254
 7320W        W73729  39.882  25.588  13.669
 7321W        W73730  41.244  40.866   2.397
 7322W        W73731  36.257  27.056   4.086
 7323W        W73732  12.605  18.685  12.581
 7324W        W73733  31.988  44.187   0.772
 7325W        W73734  10.829   3.779  10.681
 7326W        W73735   7.671  17.173  13.007
 7327W        W73736  26.629  13.463  13.069
 7328W        W73737  12.213  44.990  11.650
 7329W        W73738   2.718  14.160  13.611
 7330W        W73739   6.903  43.332  11.051
 7331W        W73740  41.481  35.551   1.277
 7332W        W73741  19.634   5.380  14.847
 7333W        W73742   5.453  36.016  13.025
 7334W        W73743  10.379  10.720  11.444
 7335W        W73744   7.263  19.250  11.861
 7336W        W73745  39.225  17.249   1.903
 7337W        W73746   9.412  16.233  12.189
 7338W        W73747  43.739  36.581   1.770
 7339W        W73748  40.476  22.262  12.107
 7340W        W73749  14.671  15.750   2.298
 7341W        W73750  14.946  19.679   5.334
 7342W        W73751  21.167  20.219   4.961
 7343W        W73752  13.176   6.423  11.117
 7344W        W73753  26.407  18.212   0.370
 7345W        W73754   2.117  38.399   0.610
 7346W        W73755  37.234  23.183  14.565
 7347W        W73756   0.951  21.622  13.109
 7348W        W73757   2.358  16.997  13.920
 7349W        W73758  43.364  27.686   0.992
 7350W        W73759  37.837  41.197   3.877
 7351W        W73760  23.655  42.239  13.571
 7352W        W73761   8.073  40.521   3.697
 7353W        W73762  44.020   4.337  12.057
 7354W        W73763  19.312  26.746  12.567
 7355W        W73764  36.337   0.933  12.481
 7356W        W73765   1.949  23.110   4.484
 7357W        W73766  36.163   2.303   2.356
 7358W        W73767   6.522   4.473   0.645
 7359W        W73768  17.916  42.455  13.444
 7360W        W73769   8.330  26.957  14.485
 7361W        W73770  14.251  28.837  10.706
 7362W        W73771  42.266  12.939   2.351
 7363W        W73772   3.430  10.712   4.038
 7364W        W73773  10.835  14.639  14.068
 7365W        W73774  29.921   4.157   0.615
 7366W        W73775  42.406   3.899   3.277
 7367W        W73776  40.107  33.561  11.617
 7368W        W73777  36.106   9.258  12.509
 7369W        W73778  36.030  30.495   2.170
 7370W        W73779  15.333  31.971   1.523
 7371W        W73780  33.113  14.139   4.595
 7372W        W73781   0.402   6.657  14.308
 7373W        W73782  14.093  16.179  11.875
 7374W        W73783  18.594   2.778   0.301
 7375W        W73784  20.058  25.978  10.691
 7376W        W73785  24.503  40.802  13.975
 7377W        W73786   1.522  36.564   1.922
 7378W        W73787  32.601  11.789  11.987
 7379W        W73788   8.666   2.693   3.735
 7380W        W73789   3.375  33.414   3.168
 7381W        W73790   1.700  37.965  10.979
 7382W        W73791  21.488  27.976  12.445
 7383W        W73792  24.874  38.866  13.971
 7384W        W73793  17.803   0.068   0.376
 7385W        W73794  19.751  44.218  12.959
 7386W        W73795  15.990   4.403   1.806
 7387W        W73796  37.956   0.901   0.998
 7388W        W73797  40.769   1.921   9.844
 7389W        W73798   3.502   4.968   1.614
 7390W        W73799  10.100  39.933   1.908
 7391W        W73800  14.708  37.390  11.217
 7392W        W73801  36.521  22.207  11.521
 7393W        W73802  12.363   2.904  13.952
 7394W        W73803  13.203  29.627   4.363
 7395W        W73804   1.322  17.032   2.186
 7396W        W73805   0.070   2.944   0.405
 7397W        W73806  15.803  36.859  13.329
 7398W        W73807  12.158  33.138  14.310
 7399W        W73808   9.606  44.035  11.084
 7400W        W73809  28.657  30.753   0.944
 7401W        W73810  33.003  17.263   1.745
 7402W        W73811  35.775   3.522  12.094
 7403W        W73812  14.696  43.256   0.899
 7404W        W73813  39.849  22.280  12.879
 7405W        W73814  26.578   1.340   3.684
 7406W        W73815  20.498   1.258   2.885
 7407W        W73816   1.542  28.084   0.356
 7408W        W73817  16.781  32.069  13.470
 7409W        W73818  26.472  42.555  11.442
 7410W        W73819   9.788  15.313   2.396
 7411W        W73820  27.212  36.394  13.137
 7412W        W73821  29.813   4.995   3.600
 7413W        W73822   3.764  20.063  14.007
 7414W        W73823   3.516  29.527   2.823
 7415W        W73824  38.804  35.168   3.628
 7416W        W73825   8.403  10.825  14.412
 7417W        W73826   2.203  18.854  11.017
 7418W        W73827  16.098  27.752  14.998
 7419W        W73828   9.814  34.579  10.744
 7420W        W73829  31.073  40.587  10.516
 7421W        W73830  11.469  35.433  12.043
 7422W        W73831  32.853  37.337   4.149
 7423W        W73832  11.297   6.938  13.444
 7424W        W73833   1.039   6.690   0.828
 7425W        W73834   0.548  34.358   2.629
 7426W        W73835   1.352   6.643   0.394
 7427W        W73836   4.209  20.765   3.238
 7428W        W73837   9.151  39.867   1.189
 7429W        W73838   6.542  14.189   0.911
 7430W        W73839   2.565  34.332   2.386
 7431W        W73840  10.825  13.132  13.581
 7432W        W73841  33.012  15.213  14.706
 7433W        W73842  36.422  40.533   4.023
 7434W        W73843  42.731  37.978  12.875
 7435W        W73844  43.866  14.891  10.680
 7436W        W73845   5.776  41.510   2.830
 7437W        W73846   1.632  42.765   0.426
 7438W        W73847   8.444  40.344  14.951
 7439W        W73848  33.778  12.133   2.279
 7440W        W73849   2.097  34.078   3.678
 7441W        W73850  43.605  39.412   3.716
 7442W        W73851  21.073  42.139  12.719
 7443W        W73852  18.425  28.396  13.579
 7444W        W73853   3.431  22.106   2.231
 7445W        W73854  34.002  35.864   4.683
 7446W        W73855   2.195  37.347  11.584
 7447W        W73856   2.246   8.357  12.113
 7448W        W73857   2.045  13.817  13.475
 7449W        W73858  44.186  27.510   2.592
 7450W        W73859  38.079  24.236  14.286
 7451W        W73860  11.060   6.019  13.439
 7452W        W73861  31.718  22.444   2.289
 7453W        W73862  15.224  20.335  10.718
 7454W        W73863  24.251  13.895   1.371
 7455W        W73864  29.536  20.984  14.725
 7456W        W73865  16.119  42.331   0.052
 7457W        W73866  19.413  25.169   4.620
 7458W        W73867  13.655   0.897  12.351
 7459W        W73868  38.183  34.335   0.457
 7460W        W73869  28.477  22.027  10.758
 7461W        W73870  37.895   2.015  11.422
 7462W        W73871  19.703  16.300   0.265
 7463W        W73872  38.320  25.151  12.019
 7464W        W73873  41.522  31.692  10.655
 7465W        W73874   1.011  42.798   3.396
 7466W        W73875   6.407  13.110   2.101
 7467W        W73876   3.766  26.104  13.625
 7468W        W73877   0.990   4.414  14.874
 7469W        W73878  15.073  31.530   4.526
 7470W        W73879   4.186  26.391  13.031
 7471W        W73880   6.340  42.671  13.940
 7472W        W73881  34.972   5.251   1.848
 7473W        W73882  10.145  36.150  13.990
 7474W        W73883  37.119  22.306  10.464
 7475W        W73884  24.611  22.745   1.377
 7476W        W73885  37.305  41.902   3.104
 7477W        W73886   6.536   9.578  12.023
 7478W        W73887   0.836  41.913  12.579
 7479W        W73888  36.941  30.595  13.667
 7480W        W73889  44.237  26.708  14.464
 7481W        W73890   7.794  19.857  14.857
 7482W        W73891  39.754  39.870  14.942
 7483W        W73892  22.171  32.221  11.609
 7484W        W73893  26.610  25.478   4.613
 7485W        W73894  43.868  35.951   1.281
 7486W        W73895  29.217  41.987   3.659
 7487W        W73896  15.855  16.348   2.385
 7488W        W73897   6.963  38.287  14.068
 7489W        W73898  32.470  15.900  12.806
 7490W        W73899  30.545  30.327  14.900
 7491W        W73900  27.372  33.582   2.604
 7492W        W73901   1.253  10.423   0.984
 7493W        W73902  40.909   0.604  10.618
 7494W        W73903  29.940  30.071  13.599
 7495W        W73904  29.851  14.902  14.299
 7496W        W73905  26.643  32.587   0.320
 7497W        W73906   7.718  42.013  14.373
 7498W        W73907  37.319  34.949  13.552
 7499W        W73908  17.667   4.385  11.407
 7500W        W73909  37.894   7.918  11.649
 7501W        W73910  19.569  40.809   0.378
 7502W        W73911  42.362  31.886  14.372
 7503W        W73912   0.720  41.281   2.250
 7504W        W73913   5.715   6.172  14.458
 7505W        W73914  10.905  19.539  11.642
 7506W        W73915   5.837  34.579   0.995
 7507W        W73916  40.800  19.661  12.212
 7508W        W73917  33.017  20.641  11.688
 7509W        W73918  11.872  25.496  14.618
 7510W        W73919  12.582  22.321   0.995
 7511W        W73920  41.588  13.864  12.456
 7512W        W73921  39.456  27.501  13.963
 7513W        W73922  37.566  15.652   0.259
 7514W        W73923  40.298  30.638  13.535
 7515W        W73924  17.888  14.814   3.340
 7516W        W73925  35.501  44.373   0.493
 7517W        W73926  12.672  35.529   9.804
 7518W        W73927  21.372   6.349   1.743
 7519W        W73928  18.112  10.394  12.601
 7520W        W73929  21.844   2.407   1.755
 7521W        W73930  32.020  16.226   4.702
 7522W        W73931  11.178  41.942  11.611
 7523W        W73932  18.695  11.353   0.202
 7524W        W73933  16.110  42.504  10.648
 7525W        W73934  33.837  22.718   3.298
 7526W        W73935  29.842   5.404  12.094
 7527W        W73936  20.253  44.016   0.919
 7528W        W73937  15.657   7.148   4.276
 7529W        W73938  15.094   8.632   0.489
 7530W        W73939  35.207  32.142   4.504
 7531W        W73940  14.127  40.358   0.358
 7532W        W73941   9.256   4.734  11.239
 7533W        W73942  39.815  41.712   3.136
 7534W        W73943  15.380  27.184  13.504
 7535W        W73944  14.441  26.113  11.498
 7536W        W73945  34.875  18.287   1.451
 7537W        W73946  44.073  44.457  13.966
 7538W        W73947  29.652  13.513   3.254
 7539W        W73948   0.542   9.587  10.289
 7540W        W73949  16.605  25.509  11.809
 7541W        W73950  44.441  33.096   4.085
 7542W        W73951  13.387   4.311   1.463
 7543W        W73952  22.309  12.279   4.071
 7544W        W73953  29.176  43.283   1.233
 7545W        W73954  24.041  24.953   4.127
 7546W        W73955  33.573  36.343  12.240
 7547W        W73956  30.207  34.567  12.527
 7548W        W73957  41.905  37.655   4.002
 7549W        W73958  26.641  12.906  11.687
 7550W        W73959  43.541  12.560  12.238
 7551W        W73960   3.972   7.116   4.554
 7552W        W73961  26.077  11.638   1.700
 7553W        W73962  29.188  17.246  12.364
 7554W        W73963  14.088   3.759  11.504
 7555W        W73964  33.978  35.575   3.201
 7556W        W73965  32.931  13.688  10.784
 7557W        W73966  42.758  16.936   3.644
 7558W        W73967  33.963  21.152   3.194
 7559W        W73968  24.662  27.317  13.696
 7560W        W73969  30.203  36.514  13.724
 7561W        W73970  19.315  40.883  11.661
 7562W        W73971  33.067  26.546  11.183
 7563W        W73972  23.130  13.826  11.812
 7564W        W73973   0.446  12.290  14.727
 7565W        W73974  41.553  20.444  12.497
 7566W        W73975  24.970   2.513  14.870
 7567W        W73976  44.371   3.288   4.669
 7568W        W73977  33.356  17.968   1.891
 7569W        W73978   9.952   3.490   2.810
 7570W        W73979   8.342  40.368  12.494
 7571W        W73980  15.474  28.105  13.442
 7572W        W73981   8.722  15.639  13.523
 7573W        W73982   6.028  10.967  11.496
 7574W        W73983   5.485  13.046  13.395
 7575W        W73984   2.206  20.728   4.190
 7576W        W73985  12.712  43.398  12.336
 7577W        W73986  25.268   5.483  10.945
 7578W        W73987  14.795  12.678   3.243
 7579W        W73988   4.309   6.489  11.961
 7580W        W73989  36.838  18.708  12.725
 7581W        W73990  11.723  32.315  10.792
 7582W        W73991  25.663  33.828  13.257
 7583W        W73992  15.048  38.285   2.148
 7584W        W73993  20.902  33.123  13.770
 7585W        W73994   5.701  34.044   1.838
 7586W        W73995  16.217  14.375  14.032
 7587W        W73996   1.954  18.658  10.613
 7588W        W73997  13.238  13.192  12.129
 7589W        W73998  23.564  11.433   3.761
 7590W        W73999  31.182  33.879   0.003
 7591W        W74000  38.324  10.230   2.265
 7592W        W74001   0.323  16.117   2.913
 7593W        W74002  28.567  24.674   2.995
 7594W        W74003  42.845  25.916  12.271
 7595W        W74004   1.939  25.892   3.297
 7596W        W74005  19.359  20.179   2.311
 7597W        W74006  28.051  11.589  13.506
 7598W        W74007  37.431  16.167   0.980
 7599W        W74008  30.696  14.610  13.641
 7600W        W74009   4.044  31.914   2.824
 7601W        W74010  37.049  14.322   1.645
 7602W        W74011  35.847  32.153   1.825
 7603W        W74012   1.325  11.377   1.870
 7604W        W74013  12.306  22.986  14.994
 7605W        W74014  28.953   9.402   1.324
 7606W        W74015  29.416   3.900  10.423
 7607W        W74016  20.249  37.426   4.566
 7608W        W74017  43.635  16.582  13.810
 7609W        W74018   7.973   1.767  10.473
 7610W        W74019  31.565  27.808  11.110
 7611W        W74020  25.722  25.036  13.378
 7612W        W74021  34.091  18.549  10.783
 7613W        W74022  19.596  30.349   2.308
 7614W        W74023   8.850  16.324   3.197
 7615W        W74024  27.695  43.222   0.524
 7616W        W74025  19.051  27.851   0.668
 7617W        W74026   0.214  39.547  12.154
 7618W        W74027  21.151  37.463  14.656
 7619W        W74028   9.088  15.017   1.242
 7620W        W74029  27.443  11.792   2.198
 7621W        W74030  21.216  27.981   3.659
 7622W        W74031  41.011  33.340   2.280
 7623W        W74032  34.279  24.941   0.799
 7624W        W74033  25.102  24.136   2.612
 7625W        W74034  33.799  42.733  13.078
 7626W        W74035   4.936  15.568   0.431
 7627W        W74036  40.811   2.874  14.695
 7628W        W74037  36.223   4.462   4.250
 7629W        W74038  29.462   6.400  11.230
 7630W        W74039  36.096   2.871   4.735
 7631W        W74040  43.252  18.517  13.111
 7632W        W74041  31.181  26.029   0.916
 7633W        W74042  13.158  43.819  13.956
 7634W        W74043   3.000  25.070   3.177
 7635W        W74044  41.794  27.674  11.235
 7636W        W74045  23.744  37.896  12.133
 7637W        W74046  35.918   5.337   4.060
 7638W        W74047  32.643  23.264  11.433
 7639W        W74048  12.628  31.915   1.335
 7640W        W74049  10.394  43.823   4.551
 7641W        W74050  37.612  15.680   0.797
 7642W        W74051  30.499  16.239   4.732
 7643W        W74052  26.387  35.361   0.988
 7644W        W74053  18.614   5.256   4.226
 7645W        W74054  26.606  16.671   4.036
 7646W        W74055  20.920  15.094  13.565
 7647W        W74056  20.268  15.759  13.403
 7648W        W74057  22.801  43.808   3.186
 7649W        W74058  41.461  32.685  12.937
 7650W        W74059  41.478  18.532  13.912
 7651W        W74060  21.439  18.174   4.041
 7652W        W74061   9.171  12.364  10.773
 7653W        W74062   2.370  21.762   4.160
 7654W        W74063  31.944  36.711  10.742
 7655W        W74064   6.283   1.310  12.004
 7656W        W74065  26.964  43.508  14.079
 7657W        W74066  26.029  37.842   4.932
 7658W        W74067  35.575   0.129   4.340
 7659W        W74068  38.852  27.719   3.650
 7660W        W74069  43.676   7.629  14.640
 7661W        W74070  34.030  17.836  13.402
 7662W        W74071  28.943   7.193  11.568
 7663W        W74072  28.202  13.172  14.364
 7664W        W74073  12.122  28.249   0.048
 7665W        W74074  31.296  24.004  11.178
 7666W        W74075  24.174  16.612   3.075
 7667W        W74076  10.804  24.613   1.330
 7668W        W74077  35.406  29.567  13.528
 7669W        W74078  30.115  15.282   1.847
 7670W        W74079  38.805  31.043   2.170
 7671W        W74080  30.173  39.762  12.467
 7672W        W74081  33.487  18.108  14.451
 7673W        W74082  44.496  26.458   0.240
 7674W        W74083  18.899  27.592  10.911
 7675W        W74084   5.488  37.521  10.589
 7676W        W74085   2.836  44.874   2.734
 7677W        W74086   0.712  16.118   4.370
 7678W        W74087   9.137  42.501   2.790
 7679W        W74088  28.433  25.263  14.927
 7680W        W74089  29.173  20.140  11.979
 7681W        W74090   1.871  40.366   2.398
 7682W        W74091  26.927  25.084   4.093
 7683W        W74092  27.073  13.627  14.877
 7684W        W74093  26.791   1.531  13.327
 7685W        W74094  14.601  13.531  13.280
 7686W        W74095  27.842   1.033  12.089
 7687W        W74096  37.118  40.990  11.280
 7688W        W74097  35.381  22.582   4.363
 7689W        W74098   2.942  24.901  10.765
 7690W        W74099  35.828  41.063   4.101
 7691W        W74100  20.952  35.576   2.732
 7692W        W74101   8.094  15.471  11.441
 7693W        W74102  19.068  42.986  12.457
 7694W        W74103   3.421  18.794  11.758
 7695W        W74104  36.747  41.736   1.301
 7696W        W74105  25.799  36.455  12.039
 7697W        W74106  44.617  14.144   3.784
 7698W        W74107  33.684  32.846  12.017
 7699W        W74108  15.420  34.754   2.803
 7700W        W74109  17.743  12.803   2.624
 7701W        W74110  19.240  14.550   3.823
 7702W        W74111  44.565  15.111  14.054
 7703W        W74112  12.704  27.513  11.654
 7704W        W74113  12.293  21.751  10.476
 7705W        W74114  35.828  24.500  12.075
 7706W        W74115  26.473   6.652   4.946
 7707W        W74116  41.623   2.936   0.392
 7708W        W74117   3.415  26.278   2.633
 7709W        W74118  29.183  25.941  14.776
 7710W        W74119  16.739  28.716   2.717
 7711W        W74120  16.816  19.100  11.608
 7712W        W74121  22.441  13.796  11.996
 7713W        W74122   6.505  33.097  10.239
 7714W        W74123   5.749   0.691   2.893
 7715W        W74124  33.112   2.387   3.186
 7716W        W74125  38.393  39.981   4.657
 7717W        W74126   5.132  15.351  13.399
 7718W        W74127  38.572   9.871  13.065
 7719W        W74128   5.964  13.175  11.144
 7720W        W74129  18.218  44.735  12.834
 7721W        W74130  11.438  42.832  12.011
 7722W        W74131  40.048  13.083   4.038
 7723W        W74132  22.505  27.651  12.181
 7724W        W74133  16.657  27.265   2.957
 7725W        W74134  35.322  11.991  11.659
 7726W        W74135  29.171   7.038   1.080
 7727W        W74136  33.072  22.527   4.471
 7728W        W74137  44.484  21.803   2.174
 7729W        W74138  21.311   6.908   3.390
 7730W        W74139   2.718  26.197   1.023
 7731W        W74140  21.210  34.407  13.086
 7732W        W74141  33.080  25.580   4.595
 7733W        W74142   2.600  37.764  10.754
 7734W        W74143  34.358   6.496  11.936
 7735W        W74144  38.754  35.342  12.975
 7736W        W74145   9.589  31.043  13.390
 7737W        W74146   2.244  12.382  13.489
 7738W        W74147  31.554   1.649  14.024
 7739W        W74148  37.537  38.800  10.674
 7740W        W74149  23.082  33.502   2.410
 7741W        W74150  24.255   8.417   1.837
 7742W        W74151  40.747  15.078   0.037
 7743W        W74152  17.613  39.013   2.202
 7744W        W74153  38.563   1.017  10.933
 7745W        W74154  40.906  12.670   1.401
 7746W        W74155  30.587  16.133   4.228
 7747W        W74156   1.863  43.465   0.482
 7748W        W74157   3.351  29.170   3.168
 7749W        W74158  26.176  42.161   2.928
 7750W        W74159  35.458   1.624  14.060
 7751W        W74160   5.618  24.899  12.876
 7752W        W74161  32.137  32.470   1.933
 7753W        W74162  38.927  35.325   2.409
 7754W        W74163  36.362  38.608  12.523
 7755W        W74164  44.309  23.171   1.727
 7756W        W74165  31.505  35.456   4.847
 7757W        W74166  24.359  38.507  13.006
 7758W        W74167  44.261  42.416   2.286
 7759W        W74168  25.558  18.325   2.072
 7760W        W74169  17.743  37.081  14.835
 7761W        W74170  17.873  24.115   4.412
 7762W        W74171  36.581  31.098  11.159
 7763W        W74172  13.543   4.923  12.479
 7764W        W74173  37.876  10.838   1.474
 7765W        W74174  22.546  30.350   0.843
 7766W        W74175   3.901  30.102  13.329
 7767W        W74176  29.488  35.718   0.314
 7768W        W74177  34.304  18.722  13.003
 7769W        W74178  20.281  41.434  14.477
 7770W        W74179  34.370  35.852  11.065
 7771W        W74180  29.884  33.157  12.433
 7772W        W74181   5.758  29.101   3.903
 7773W        W74182  31.176  32.440  10.448
 7774W        W74183  40.785  26.078   3.571
 7775W        W74184  11.852  12.611   3.114
 7776W        W74185  36.952  12.181  13.651
 7777W        W74186   5.967  28.210   4.580
 7778W        W74187  18.794  20.277  12.892
 7779W        W74188  13.631   0.457  11.448
 7780W        W74189  39.323  35.488  12.275
 7781W        W74190  12.841  30.894   2.942
 7782W        W74191  27.737  30.032  14.049
 7783W        W74192  38.046  37.450   4.564
 7784W        W74193  42.269  12.923  11.595
 7785W        W74194  30.118  24.499  13.854
 7786W        W74195  27.944  10.074  13.263
 7787W        W74196  21.538  41.813  14.486
 7788W        W74197  38.825  14.200   0.749
 7789W        W74198  38.401  35.716  11.965
 7790W        W74199  23.794   3.692   3.974
 7791W        W74200  30.970   6.507   5.045
 7792W        W74201  35.068   6.975  11.217
 7793W        W74202   1.257  13.424  13.340
 7794W        W74203   4.177  27.172   2.563
 7795W        W74204  21.127  39.196   0.967
 7796W        W74205  41.772  15.223   0.889
 7797W        W74206  16.913  15.138  14.440
 7798W        W74207  44.151   1.288   0.053
 7799W        W74208  42.110  26.515  10.806
 7800W        W74209  22.000  22.091   1.242
 7801W        W74210   9.253   8.234  14.840
 7802W        W74211   7.099  27.987   3.253
 7803W        W74212  25.134  37.903  12.343
 7804W        W74213   6.734  30.868  13.436
 7805W        W74214  26.196   7.706  14.841
 7806W        W74215  18.487  19.273  12.449
 7807W        W74216  13.970  18.626  11.542
 7808W        W74217  44.655   3.195   4.229
 7809W        W74218  44.995  35.557   1.710
 7810W        W74219  15.739  14.387  12.495
 7811W        W74220  43.855  22.960  14.084
 7812W        W74221   6.312  34.308   4.095
 7813W        W74222  10.189  34.607   1.271
 7814W        W74223  30.751   0.448  14.361
 7815W        W74224   4.770  24.391  14.822
 7816W        W74225  31.421   1.798   0.871
 7817W        W74226  10.132   7.325   4.512
 7818W        W74227  24.087  29.439  14.791
 7819W        W74228  40.095  42.533   0.487
 7820W        W74229  33.507  19.528  14.403
 7821W        W74230   9.378  42.518  14.851
 7822W        W74231  38.505  17.827  11.348
 7823W        W74232  40.927  19.203   3.542
 7824W        W74233  14.203  22.439  12.105
 7825W        W74234  21.299  35.339  13.905
 7826W        W74235  14.708  30.399   3.255
 7827W        W74236   3.823  29.692  14.861
 7828W        W74237  35.952   1.306  12.492
 7829W        W74238  24.314  42.763  11.201
 7830W        W74239  23.722  11.626  10.678
 7831W        W74240  33.139  31.370  14.609
 7832W        W74241  13.903  37.086  13.875
 7833W        W74242   4.431   2.264   4.105
 7834W        W74243  33.625  10.259  13.383
 7835W        W74244  35.603  25.287   0.843
 7836W        W74245  32.415   7.310   4.529
 7837W        W74246  32.290  25.699   1.747
 7838W        W74247  44.200  43.862  10.271
 7839W        W74248  42.408  25.151   0.015
 7840W        W74249  35.602   5.934   0.444
 7841W        W74250  17.427   4.507   2.840
 7842W        W74251  18.171   2.495  13.102
 7843W        W74252  26.476   4.580  12.331
 7844W        W74253  24.855  34.428  12.059
 7845W        W74254   8.471  32.703   2.388
 7846W        W74255  15.731  40.425  12.026
 7847W        W74256   5.345  27.252   1.301
 7848W        W74257  16.040  24.755  11.128
 7849W        W74258  31.095  37.508   4.673
 7850W        W74259  17.753   7.920  14.352
 7851W        W74260  32.892  29.424   1.041
 7852W        W74261  35.962  42.271   0.666
 7853W        W74262  31.154  40.091  14.935
 7854W        W74263  32.003  14.165   1.447
 7855W        W74264  18.607  36.457   0.913
 7856W        W74265  12.874  29.986  10.737
 7857W        W74266  30.024  20.575   3.697
 7858W        W74267  40.440  25.226   0.463
 7859W        W74268   7.642   5.605   3.274
 7860W        W74269   8.356  38.573   2.754
 7861W        W74270   1.341   2.946   2.571
 7862W        W74271  18.615  15.827  13.830
 7863W        W74272  12.419  17.720   3.085
 7864W        W74273  44.901  36.835  11.794
 7865W        W74274  21.196  21.251  12.303
 7866W        W74275  10.605  18.300  14.900
 7867W        W74276  26.415   7.683   0.332
 7868W        W74277  11.198  35.505   3.380
 7869W        W74278  20.818  41.695   1.696
 7870W        W74279  34.836  37.828  11.501
 7871W        W74280  16.303  38.614  14.312
 7872W        W74281  37.956  39.215   2.197
 7873W        W74282   6.438  38.320  10.880
 7874W        W74283  11.608  21.126  12.572
 7875W        W74284   7.881  36.664  11.102
 7876W        W74285  23.429  10.663   3.636
 7877W        W74286  13.233  24.095  14.780
 7878W        W74287  32.960  24.655   2.466
 7879W        W74288  31.612  16.512   2.671
 7880W        W74289  12.113  38.491   1.196
 7881W        W74290  14.595  37.475   1.050
 7882W        W74291  28.487  23.659  13.451
 7883W        W74292  27.976  23.517  12.586
 7884W        W74293  44.723  25.399   3.570
 7885W        W74294  33.354  11.687  11.078
 7886W        W74295  37.090  15.722  11.425
 7887W        W74296  11.408  38.823  11.198
 7888W        W74297  10.882  37.494   4.600
 7889W        W74298  12.841  21.329   1.499
 7890W        W74299  15.624  11.641  12.911
 7891W        W74300  27.635   3.156  11.507
 7892W        W74301  25.444   0.996  11.918
 7893W        W74302  34.090   5.825   0.280
 7894W        W74303  28.466  16.210   3.336
 7895W        W74304  18.772  28.037   2.596
 7896W        W74305  20.705  34.050   0.710
 7897W        W74306  25.584  23.284   5.470
 7898W        W74307  14.829  34.927   1.744
 7899W        W74308  36.803  26.710  12.040
 7900W        W74309  10.101   4.774  12.423
 7901W        W74310  20.085  17.599  13.492
 7902W        W74311  27.798  15.693   4.118
 7903W        W74312  29.658  40.271   3.950
 7904W        W74313  24.671  14.800   1.146
 7905W        W74314   5.989  12.937   2.391
 7906W        W74315  28.218  43.881   0.835
 7907W        W74316  32.963   1.090   4.490
 7908W        W74317  16.113  20.015  12.436
 7909W        W74318  12.306  15.826   4.594
 7910W        W74319  27.894  21.336  13.558
 7911W        W74320  30.452   7.205   3.363
 7912W        W74321  29.190  14.914   3.403
 7913W        W74322  10.647  36.333   0.697
 7914W        W74323  30.635  15.767   4.908
 7915W        W74324  34.453  23.954  11.681
 7916W        W74325  34.017  10.359   3.597
 7917W        W74326  36.525  27.491   0.831
 7918W        W74327  22.820   4.877   0.359
 7919W        W74328  23.790  13.164   0.916
 7920W        W74329  28.467  14.754  11.493
 7921W        W74330  11.403  25.858  12.976
 7922W        W74331  39.344   1.306   3.410
 7923W        W74332  20.682  27.003   0.212
 7924W        W74333  29.549   1.920  10.650
 7925W        W74334  13.183  42.990   1.722
 7926W        W74335  22.443  28.696  14.427
 7927W        W74336  24.162  39.538  14.715
 7928W        W74337  12.165   6.238   4.668
 7929W        W74338  34.496  43.414  12.904
 7930W        W74339  11.798  36.431   4.194
 7931W        W74340  22.099  36.666  13.342
 7932W        W74341  34.655  27.012  13.042
 7933W        W74342  38.777  22.554   0.344
 7934W        W74343  28.994   1.202  14.458
 7935W        W74344  38.510  12.226  11.543
 7936W        W74345  13.421  12.192  13.981
 7937W        W74346   7.206  34.884   0.196
 7938W        W74347   7.689  12.115   3.343
 7939W        W74348  16.098  26.234   3.783
 7940W        W74349  35.917  42.252   1.185
 7941W        W74350  17.371  39.018  10.295
 7942W        W74351   7.188  41.371   3.148
 7943W        W74352  43.606  26.136   4.147
 7944W        W74353  14.384  41.366  11.976
 7945W        W74354  11.312  13.309   2.711
 7946W        W74355   5.936  20.930  12.578
 7947W        W74356  11.918  31.501  12.567
 7948W        W74357  16.312  40.175  11.267
 7949W        W74358   3.620  42.408   1.363
 7950W        W74359  29.248  24.029  12.290
 7951W        W74360   0.350  14.366  11.084
 7952W        W74361  42.791  28.988   1.318
 7953W        W74362   1.873  43.765   2.816
 7954W        W74363  20.058  24.538  12.061
 7955W        W74364  10.184  43.308  11.034
 7956W        W74365   2.458  22.271  13.447
 7957W        W74366  37.476  14.775   3.214
 7958W        W74367  41.293  29.478   2.596
 7959W        W74368  44.994   7.643  12.998
 7960W        W74369  21.035  17.838   1.912
 7961W        W74370  34.495  32.664   3.258
 7962W        W74371  40.051  26.327  11.228
 7963W        W74372  33.308   9.642  13.436
 7964W        W74373  28.928   4.981  14.575
 7965W        W74374  14.662  14.813  12.615
 7966W        W74375  17.254  39.880   1.355
 7967W        W74376  16.723  32.159   1.447
 7968W        W74377  18.255   2.981   3.907
 7969W        W74378  43.231  17.750   3.589
 7970W        W74379  20.287   4.980  12.937
 7971W        W74380  35.473   9.158   4.339
 7972W        W74381  29.968   8.973   5.091
 7973W        W74382  44.880  29.088  11.475
 7974W        W74383  42.054  12.219   2.685
 7975W        W74384   4.856  26.285   4.493
 7976W        W74385  29.173  40.953   2.724
 7977W        W74386  26.861  22.805  13.843
 7978W        W74387  32.867   6.247  11.595
 7979W        W74388   6.230  41.303   2.068
 7980W        W74389  39.034  23.232  14.445
 7981W        W74390  12.683  10.768   2.424
 7982W        W74391  43.494  14.409  12.458
 7983W        W74392  18.804  24.989  14.446
 7984W        W74393  14.565  15.957  11.492
 7985W        W74394  42.998  19.127   1.882
 7986W        W74395  34.682  10.658  12.846
 7987W        W74396   8.212   4.891   0.977
 7988W        W74397  20.657  43.248  12.618
 7989W        W74398   9.416  26.573   2.757
 7990W        W74399  21.352  23.247  11.958
 7991W        W74400  25.102  27.334  10.733
 7992W        W74401   7.196  18.494   2.254
 7993W        W74402  24.955   6.628   2.391
 7994W        W74403   7.201  37.590   3.246
 7995W        W74404  21.550  19.544   2.299
 7996W        W74405  31.517  13.018   2.636
 7997W        W74406  23.296   0.616   3.783
 7998W        W74407  38.845  30.212  13.168
 7999W        W74408   1.633  11.859   4.559
 8000W        W74409  20.615  25.095  11.600
 8001W        W74410   3.886  29.657  10.556
 8002W        W74411  37.985  22.541  12.483
 8003W        W74412  44.328  17.006  13.293
 8004W        W74413  40.003   0.877  13.360
 8005W        W74414  34.521  36.639   4.758
 8006W        W74415   7.603  33.730   1.248
 8007W        W74416   4.302  34.992  11.470
 8008W        W74417  44.432  22.262  11.961
 8009W        W74418  39.415  12.685  11.769
 8010W        W74419  16.617  31.647   2.753
 8011W        W74420   5.312  39.706   2.136
 8012W        W74421  12.967  28.749  14.960
 8013W        W74422  37.213  16.732  14.419
 8014W        W74423   1.250  26.602   0.224
 8015W        W74424  12.805  34.435   1.677
 8016W        W74425  14.544  34.307  14.388
 8017W        W74426  40.809  27.608  13.096
 8018W        W74427  37.514  41.891  13.403
 8019W        W74428  42.439   2.851   1.373
 8020W        W74429  24.179  27.056  14.829
 8021W        W74430  13.911  29.715  13.022
 8022W        W74431  11.146  40.035  13.870
 8023W        W74432   0.919   1.388  14.506
 8024W        W74433  22.682  38.512   3.117
 8025W        W74434   9.280  37.759  11.558
 8026W        W74435   8.790   1.803   2.065
 8027W        W74436  32.542  38.108   3.188
 8028W        W74437   9.253   5.824  14.962
 8029W        W74438  37.579  38.499  12.914
 8030W        W74439  41.379  10.558  11.586
 8031W        W74440  41.144  25.109  14.520
 8032W        W74441  12.744  41.549  12.485
 8033W        W74442  36.046  24.595   3.084
 8034W        W74443   7.298   6.743   3.320
 8035W        W74444   8.591  37.482  10.259
 8036W        W74445  29.611  41.513  12.488
 8037W        W74446  35.890  26.019   1.824
 8038W        W74447  38.086  28.987  14.406
 8039W        W74448  39.853  32.688   4.176
 8040W        W74449  19.288   9.690  12.525
 8041W        W74450  29.353  17.182  10.285
 8042W        W74451  14.119  18.647   4.292
 8043W        W74452   1.247  19.651   1.358
 8044W        W74453  19.089   0.002  13.822
 8045W        W74454  26.215  35.903   4.285
 8046W        W74455  44.784  34.463   1.357
 8047W        W74456  27.215  28.678  11.630
 8048W        W74457  21.266  29.382  11.966
 8049W        W74458  29.105  16.794   1.555
 8050W        W74459  13.717  41.503  12.505
 8051W        W74460   9.353  19.032   3.849
 8052W        W74461  12.346  15.668  14.537
 8053W        W74462   2.540  14.270   2.846
 8054W        W74463  11.577  41.213   1.785
 8055W        W74464  40.901  15.125   4.065
 8056W        W74465  16.100  11.748  13.058
 8057W        W74466  36.909  11.572   3.256
 8058W        W74467   2.999  13.252  12.764
 8059W        W74468  12.145  37.803  13.890
 8060W        W74469  44.330  19.532   1.985
 8061W        W74470  15.561  32.372  14.025
 8062W        W74471   7.361   2.378  11.213
 8063W        W74472  23.091  16.331   4.504
 8064W        W74473  14.342  16.349   2.632
 8065W        W74474  34.001  26.604   2.168
 8066W        W74475  22.346  31.739   3.719
 8067W        W74476   2.035   0.340   1.256
 8068W        W74477  16.701   0.936   4.363
 8069W        W74478   4.416  19.719  13.030
 8070W        W74479  41.266  38.760   4.295
 8071W        W74480  44.598  18.433  12.608
 8072W        W74481  38.352   1.381  11.963
 8073W        W74482  14.632   1.195   4.005
 8074W        W74483   5.739  23.587  14.603
 8075W        W74484  31.025   0.673   2.721
 8076W        W74485  20.082  11.905  12.886
 8077W        W74486   2.888  24.137  12.384
 8078W        W74487  40.180   3.977   0.670
 8079W        W74488  18.750  16.899   3.823
 8080W        W74489  35.384  26.205  14.884
 8081W        W74490  21.955  13.546   3.326
 8082W        W74491   9.972  31.754   2.467
 8083W        W74492  33.581   6.536  10.162
 8084W        W74493  36.192  37.919   3.182
 8085W        W74494  22.215  15.817   4.957
 8086W        W74495  41.920  43.646   3.763
 8087W        W74496  28.063  32.852   0.031
 8088W        W74497   9.273  18.014  11.137
 8089W        W74498  44.156   7.825   0.979
 8090W        W74499  26.763   3.167   3.886
 8091W        W74500  22.684   0.420  11.633
 8092W        W74501  15.017  19.140  10.593
 8093W        W74502  12.381   4.294  11.439
 8094W        W74503  39.901  22.129  13.924
 8095W        W74504  10.985  35.263  11.154
 8096W        W74505  19.663  20.706  14.425
 8097W        W74506  10.098   9.688  10.657
 8098W        W74507  30.918  36.040  11.632
 8099W        W74508   9.415  25.072  10.801
 8100W        W74509  24.339  38.374   3.791
 8101W        W74510   9.687   2.116  10.774
 8102W        W74511  13.098  27.265  13.879
 8103W        W74512   5.146   1.083   4.160
 8104W        W74513  21.501  32.951   4.516
 8105W        W74514  17.518  12.562   3.453
 8106W        W74515  14.769   4.681  10.224
 8107W        W74516  44.242  25.263   4.264
 8108W        W74517  44.266  30.616   2.103
 8109W        W74518  24.665   2.854  13.873
 8110W        W74519  13.269  22.085  13.871
 8111W        W74520  41.844  32.063   1.722
 8112W        W74521  32.328  16.538   9.863
 8113W        W74522  10.044  42.436   4.607
 8114W        W74523  36.742  36.057  12.795
 8115W        W74524  11.794  27.126   0.619
 8116W        W74525  24.368  44.595   3.597
 8117W        W74526  17.289  44.321  13.888
 8118W        W74527   1.658  27.024   1.857
 8119W        W74528  27.296  39.829   2.716
 8120W        W74529  10.740  30.526  12.319
 8121W        W74530  16.215  16.987  14.977
 8122W        W74531  28.195  10.386   4.068
 8123W        W74532  33.888  35.527  14.047
 8124W        W74533  19.298  24.559  14.961
 8125W        W74534  27.435  38.572   0.544
 8126W        W74535  43.307  20.011   3.784
 8127W        W74536  44.570  32.593   0.831
 8128W        W74537  12.188   2.663  12.562
 8129W        W74538  32.631  29.453  14.362
 8130W        W74539  29.337   3.723  11.924
 8131W        W74540  32.461  29.911  12.054
 8132W        W74541   1.954   1.559   0.412
 8133W        W74542   0.236   0.650  13.339
 8134W        W74543  15.006   1.842  11.911
 8135W        W74544  29.864   5.161   0.901
 8136W        W74545  33.129  30.013   1.278
 8137W        W74546  41.382  33.314   0.730
 8138W        W74547  15.220  20.957  13.863
 8139W        W74548   1.508  20.236  11.534
 8140W        W74549  43.720  28.539   0.903
 8141W        W74550  35.279  41.428  12.594
 8142W        W74551  34.410   9.766   1.455
 8143W        W74552  38.993  21.711   2.758
 8144W        W74553  29.427  18.702   3.076
 8145W        W74554  17.945  32.482   4.614
 8146W        W74555  27.937  31.029   1.206
 8147W        W74556   2.475  10.601   2.409
 8148W        W74557  29.528  34.909  12.949
 8149W        W74558  40.119   5.007   1.094
 8150W        W74559  42.012  15.874  13.370
 8151W        W74560  37.343  26.057  11.202
 8152W        W74561   1.528  41.003  11.324
 8153W        W74562   6.845  13.000  13.519
 8154W        W74563  39.527  19.694   2.154
 8155W        W74564  25.502   5.750  12.196
 8156W        W74565  15.266  33.920   4.106
 8157W        W74566  10.816   8.384   3.230
 8158W        W74567   3.749  20.634   1.783
 8159W        W74568   1.798   3.766   2.241
 8160W        W74569  42.684  37.770   2.659
 8161W        W74570  19.198   3.502   1.974
 8162W        W74571   7.640  10.700   0.900
 8163W        W74572  10.248  12.430  12.454
 8164W        W74573  33.983  33.699   4.955
 8165W        W74574  44.761  27.888  13.056
 8166W        W74575  23.692  22.715   2.592
 8167W        W74576  40.067  19.231   0.487
 8168W        W74577  32.403  38.606   4.096
 8169W        W74578   8.576   8.948   9.893
 8170W        W74579   0.446  15.820  12.421
 8171W        W74580   5.397   3.882   0.947
 8172W        W74581   0.399  21.236  11.431
 8173W        W74582  33.547  10.188  12.320
 8174W        W74583  17.871  33.678   0.256
 8175W        W74584  26.516  32.618  10.368
 8176W        W74585  23.176  11.770  10.742
 8177W        W74586  33.580  26.814   0.822
 8178W        W74587  36.836  20.211   1.855
 8179W        W74588   7.431  29.098  12.721
 8180W        W74589  18.522  25.125  12.145
 8181W        W74590  15.360   0.773   4.509
 8182W        W74591  34.633  28.500  12.944
 8183W        W74592  16.379  27.192  12.856
 8184W        W74593   1.434  20.165  10.650
 8185W        W74594   0.952   8.953   5.023
 8186W        W74595  37.248  23.960  12.152
 8187W        W74596  12.088  43.065  14.871
 8188W        W74597   6.555  34.796  13.905
 8189W        W74598  35.500  18.005  11.968
 8190W        W74599   5.104  26.154   1.696
 8191W        W74600  43.197   1.443   2.282
 8192W        W74601   4.339  44.006  14.615
 8193W        W74602  19.000  33.128  11.995
 8194W        W74603  12.125  44.309   9.796
 8195W        W74604  16.556  30.789   4.092
 8196W        W74605  21.278  20.802   1.384
 8197W        W74606  31.091  11.260   0.866
 8198W        W74607  29.108   6.829  13.180
 8199W        W74608  20.687   5.179   3.291
 8200W        W74609   6.992  31.671  14.092
 8201W        W74610   0.279  27.887   2.360
 8202W        W74611  34.565  22.297  14.234
 8203W        W74612  20.679  10.476   3.145
 8204W        W74613   5.381  30.539   4.765
 8205W        W74614  43.031   1.830  10.573
 8206W        W74615  24.959  33.290   1.629
 8207W        W74616  18.220  31.680   4.226
 8208W        W74617  15.304  30.147   3.137
 8209W        W74618  32.434  14.951  13.413
 8210W        W74619  23.805  25.616  14.041
 8211W        W74620  39.545  43.853  12.115
 8212W        W74621  32.964   8.890   4.644
 8213W        W74622  37.992  27.121   3.563
 8214W        W74623   0.393  22.064  10.821
 8215W        W74624  29.853  18.335   0.097
 8216W        W74625  36.582  42.999   4.149
 8217W        W74626  15.949  12.186  11.240
 8218W        W74627  15.778  42.753  13.925
 8219W        W74628  42.496  17.861   0.263
 8220W        W74629   0.851  39.743  13.335
 8221W        W74630  21.048  39.477   0.536
 8222W        W74631  14.568  11.164   2.396
 8223W        W74632  31.044  21.803  11.127
 8224W        W74633  42.413  35.707   0.704
 8225W        W74634  36.764  18.130  10.406
 8226W        W74635  20.253   5.440  12.548
 8227W        W74636  33.097  25.579  11.142
 8228W        W74637   0.771   7.954   4.592
 8229W        W74638  27.622  40.441  14.553
 8230W        W74639   8.355   4.263  13.197
 8231W        W74640  32.466  21.980   4.214
 8232W        W74641   4.312  39.325  10.569
 8233W        W74642  14.836   5.447  13.542
 8234W        W74643   6.805  39.494   0.256
 8235W        W74644  17.747   7.683  13.854
 8236W        W74645  11.119  41.177   0.999
 8237W        W74646  13.832   3.314   3.765
 8238W        W74647  44.145  23.199   0.931
 8239W        W74648  37.725   8.202  12.926
 8240W        W74649  37.513  18.084  14.824
 8241W        W74650  16.056  16.675  14.588
 8242W        W74651  28.806  25.156   1.739
 8243W        W74652  13.146  14.699   3.295
 8244W        W74653  33.008   1.312   2.292
 8245W        W74654  43.028  30.153   4.374
 8246W        W74655  19.243   2.303   2.662
 8247W        W74656  30.751  27.466   4.566
 8248W        W74657   0.434   6.246  13.534
 8249W        W74658  13.801  42.798   0.444
 8250W        W74659  12.586   7.943  14.353
 8251W        W74660  19.632  24.479   1.365
 8252W        W74661   2.611  13.206  14.906
 8253W        W74662  32.146  24.485   3.567
 8254W        W74663  36.108  40.250   0.136
 8255W        W74664  18.475  43.114   2.860
 8256W        W74665  26.963  39.425  12.076
 8257W        W74666  25.437  39.392  13.410
 8258W        W74667  22.963  13.212  12.445
 8259W        W74668  15.538  20.490  14.754
 8260W        W74669  41.875  36.142   4.147
 8261W        W74670  13.814  15.778  12.594
 8262W        W74671  37.874   7.591   0.495
 8263W        W74672  35.159   4.480  12.423
 8264W        W74673  23.274   9.618  11.072
 8265W        W74674  42.129  15.586  12.106
 8266W        W74675   1.963  11.481   3.715
 8267W        W74676  15.310   6.420   5.073
 8268W        W74677  17.742  26.131   4.620
 8269W        W74678  37.273   7.977   3.428
 8270W        W74679  36.579  37.322   2.627
 8271W        W74680  29.191  20.206   2.251
 8272W        W74681  36.955  39.711   3.610
 8273W        W74682  20.116  11.096   1.862
 8274W        W74683  34.490  10.494   0.823
 8275W        W74684  27.527  40.353  13.456
 8276W        W74685   7.523   6.882   0.018
 8277W        W74686  34.409  10.779  13.762
 8278W        W74687  15.245  26.712  14.981
 8279W        W74688   6.735  13.883  14.066
 8280W        W74689  21.372  10.521  12.489
 8281W        W74690  29.434  22.737   3.542
 8282W        W74691  25.280  20.567   3.062
 8283W        W74692  19.670  17.496   2.734
 8284W        W74693  27.351  37.662   4.699
 8285W        W74694   9.882   1.249   2.355
 8286W        W74695  27.511  21.179  14.472
 8287W        W74696  25.567  29.063   1.161
 8288W        W74697  21.993   6.509   4.325
 8289W        W74698   2.383  27.630   1.986
 8290W        W74699  19.476  28.412  14.882
 8291W        W74700   3.052   9.750   4.190
 8292W        W74701  38.089  33.969   3.683
 8293W        W74702   6.840  34.417  14.071
 8294W        W74703  23.971  41.791   3.740
 8295W        W74704  22.804  41.462  14.562
 8296W        W74705  23.465  41.927  13.962
 8297W        W74706   6.756  31.751   4.703
 8298W        W74707  26.186  14.656   3.811
 8299W        W74708  15.303   2.558   1.264
 8300W        W74709  44.945  29.907  13.987
 8301W        W74710  24.023  39.093  12.547
 8302W        W74711  42.486   1.403  11.701
 8303W        W74712  25.073  22.141  12.595
 8304W        W74713  21.268   1.962  13.346
 8305W        W74714  12.076  29.397   5.060
 8306W        W74715  33.468  14.110  11.917
 8307W        W74716  35.307  39.567  14.493
 8308W        W74717  24.131  22.054  13.474
 8309W        W74718   2.423   7.720  12.830
 8310W        W74719   5.610   7.508  12.905
 8311W        W74720  24.259  23.575  13.376
 8312W        W74721  16.327   5.231   4.673
 8313W        W74722  44.421  23.223   4.144
 8314W        W74723  29.689   7.689  11.475
 8315W        W74724  15.649  14.623  13.564
 8316W        W74725  29.579  36.350   3.575
 8317W        W74726  24.544  41.928   0.204
 8318W        W74727   1.998  10.156   0.212
 8319W        W74728  10.679  33.161  14.465
 8320W        W74729  31.922  43.991   3.809
 8321W        W74730  25.152  29.297  13.488
 8322W        W74731   6.740  17.821   1.758
 8323W        W74732  38.522   7.310   0.032
 8324W        W74733  31.991   6.823   3.999
 8325W        W74734  25.872  10.797  12.511
 8326W        W74735  44.023  15.683   1.307
 8327W        W74736   3.350  11.559   4.633
 8328W        W74737   1.490   7.193  10.448
 8329W        W74738   1.395  22.732  11.749
 8330W        W74739  18.172  40.166   2.127
 8331W        W74740  27.653  37.914   0.735
 8332W        W74741  10.853  32.355  13.534
 8333W        W74742  40.399  34.136   3.431
 8334W        W74743   3.929  28.393  11.971
 8335W        W74744   2.263  12.214  13.989
 8336W        W74745  34.385   7.863   4.065
 8337W        W74746   8.272  29.602  11.913
 8338W        W74747  33.989  32.417  11.892
 8339W        W74748   3.440  14.047  12.863
 8340W        W74749  35.976  40.215  11.637
 8341W        W74750  29.654  26.180  13.892
 8342W        W74751  11.740   9.318   1.005
 8343W        W74752  34.396  31.983  10.525
 8344W        W74753  33.419  21.477  12.490
 8345W        W74754  12.343  38.369   3.750
 8346W        W74755  19.563  36.859   0.715
 8347W        W74756   4.443  41.498   4.582
 8348W        W74757  18.304   4.332   1.402
 8349W        W74758  28.927  12.223   1.770
 8350W        W74759  13.356   0.939   1.781
 8351W        W74760  22.303  23.220   3.819
 8352W        W74761  38.113  10.125   3.550
 8353W        W74762  31.343  42.522   0.062
 8354W        W74763  16.323  29.467   2.998
 8355W        W74764  38.978   7.297  12.413
 8356W        W74765  30.971  20.533  12.629
 8357W        W74766  15.443  10.891   1.390
 8358W        W74767   5.300  37.875   0.153
 8359W        W74768  30.476  13.603   2.358
 8360W        W74769   3.960  15.687  12.104
 8361W        W74770  17.803  21.219   5.469
 8362W        W74771  39.455   5.841   4.764
 8363W        W74772  20.252  27.184  12.049
 8364W        W74773  43.937  17.634  11.626
 8365W        W74774  22.644   6.821  13.929
 8366W        W74775  43.538   0.184  11.890
 8367W        W74776   3.960  40.648   0.644
 8368W        W74777  17.844  10.773  10.775
 8369W        W74778  12.381  28.601  13.610
 8370W        W74779  17.375   3.414  10.697
 8371W        W74780  18.565  19.787  12.475
 8372W        W74781  25.360  23.996   3.742
 8373W        W74782  10.420  34.560  11.948
 8374W        W74783  17.602  11.313  14.765
 8375W        W74784  16.019  38.460   2.268
 8376W        W74785  12.643  12.014   4.698
 8377W        W74786  36.987   9.139   1.872
 8378W        W74787  37.776  23.481  11.636
 8379W        W74788  41.450   4.361   1.319
 8380W        W74789   1.707   7.265  11.656
 8381W        W74790  29.264  40.680  12.254
 8382W        W74791  13.524  23.116  11.615
 8383W        W74792   6.187   9.262   4.734
 8384W        W74793  24.563  27.993   2.313
 8385W        W74794  24.170  36.742   4.614
 8386W        W74795  31.063  32.128   2.302
 8387W        W74796   1.080  34.353   2.615
 8388W        W74797   7.689  11.311  10.466
 8389W        W74798  31.858  40.999   4.237
 8390W        W74799   6.812  37.124  13.447
 8391W        W74800  43.150   8.550   1.449
 8392W        W74801  27.884   5.165  13.325
 8393W        W74802  11.132  22.575   2.757
 8394W        W74803  15.293   6.316  11.099
 8395W        W74804   1.847  32.390  11.059
 8396W        W74805  27.974  35.598   2.855
 8397W        W74806  30.028  13.908  12.013
 8398W        W74807  14.201   5.630  13.625
 8399W        W74808  12.335  10.079  12.123
 8400W        W74809  12.354  24.534   0.973
 8401W        W74810   5.955  28.573  13.022
 8402W        W74811  19.037   0.424  14.113
 8403W        W74812  26.901  27.117  10.648
 8404W        W74813   8.163  24.565   2.807
 8405W        W74814   1.932  37.063   4.099
 8406W        W74815  21.749  13.548  14.212
 8407W        W74816  13.154  32.556  12.514
 8408W        W74817  38.035  19.191  14.589
 8409W        W74818  28.732   6.873   2.236
 8410W        W74819  15.850   9.891   1.431
 8411W        W74820  37.187  17.931  11.710
 8412W        W74821   0.485  44.843  13.095
 8413W        W74822  35.829  24.664  11.567
 8414W        W74823  18.095  25.078   4.520
 8415W        W74824  15.656  16.704  10.898
 8416W        W74825  41.045  40.542  14.012
 8417W        W74826  40.243  13.536  14.402
 8418W        W74827   9.077  43.776  11.756
 8419W        W74828  19.814  42.853   4.908
 8420W        W74829   9.257  27.218   5.950
 8421W        W74830  37.820   1.325  14.042
 8422W        W74831  29.535  41.028   4.313
 8423W        W74832  40.217  16.085  12.034
 8424W        W74833   6.801  32.204  10.024
 8425W        W74834   1.442  21.098  10.683
 8426W        W74835  18.069  38.739   0.412
 8427W        W74836  14.674  30.930  14.859
 8428W        W74837  10.383  30.562  10.422
 8429W        W74838  38.940  15.624   2.932
 8430W        W74839   4.718  19.233  13.875
 8431W        W74840  30.100  25.876   0.939
 8432W        W74841  21.731  38.924   3.163
 8433W        W74842  32.356  19.667  10.638
 8434W        W74843  27.078  20.575   2.698
 8435W        W74844  18.068  36.704   1.608
 8436W        W74845  39.786  14.414  13.394
 8437W        W74846  31.489   6.239  14.922
 8438W        W74847   6.179  21.156  11.081
 8439W        W74848  33.528  37.297   1.405
 8440W        W74849  38.142  35.544   2.884
 8441W        W74850  26.873   4.914  11.308
 8442W        W74851  39.744  21.039   1.918
 8443W        W74852  36.508  40.438   0.397
 8444W        W74853   9.153  31.696   2.199
 8445W        W74854  32.321   5.477  12.165
 8446W        W74855  12.400  43.754   3.062
 8447W        W74856  34.867   3.443   1.450
 8448W        W74857  26.804  44.417   0.888
 8449W        W74858  15.909  27.897   3.220
 8450W        W74859  40.781  36.794  12.027
 8451W        W74860  24.089  44.224   1.697
 8452W        W74861   2.886  41.120  14.357
 8453W        W74862  16.115  25.606   1.766
 8454W        W74863   3.917  41.441   4.627
 8455W        W74864  14.679  22.990  13.372
 8456W        W74865  15.752  25.629   4.412
 8457W        W74866  35.523  28.066   1.834
 8458W        W74867  30.140  36.402   2.179
 8459W        W74868   3.032  40.043  11.730
 8460W        W74869  29.207  10.680   2.728
 8461W        W74870  19.274  12.237   1.910
 8462W        W74871   9.104   1.337   4.647
 8463W        W74872   6.963  14.245  13.106
 8464W        W74873   4.635   2.481  14.982
 8465W        W74874   9.842  41.804   2.397
 8466W        W74875  12.948  12.195  14.922
 8467W        W74876  37.233  36.955  10.826
 8468W        W74877   3.945  44.805   2.320
 8469W        W74878  35.440  41.339   3.841
 8470W        W74879   4.122  36.643   3.730
 8471W        W74880  15.768  25.714   5.668
 8472W        W74881  20.521   3.347   3.164
 8473W        W74882  19.298  44.937  14.830
 8474W        W74883   0.830  31.660   5.037
 8475W        W74884  13.620  11.002  11.912
 8476W        W74885  27.486  10.462  12.002
 8477W        W74886  42.746  23.940  11.143
 8478W        W74887  26.625  40.840   1.491
 8479W        W74888  40.508  37.185   2.234
 8480W        W74889   4.753   8.267   3.718
 8481W        W74890  44.639   2.866   4.998
 8482W        W74891  41.519  10.919   3.329
 8483W        W74892  18.432  42.340  13.364
 8484W        W74893  25.289  41.293  13.870
 8485W        W74894   6.309   3.204   4.793
 8486W        W74895  15.870  26.446   2.826
 8487W        W74896  29.722  43.683   0.794
 8488W        W74897  33.612   0.991  11.941
 8489W        W74898  39.904  40.907   4.558
 8490W        W74899  11.366  34.148   5.109
 8491W        W74900  13.594  27.240  14.019
 8492W        W74901  13.520  29.804   1.605
 8493W        W74902  34.291  38.431   2.330
 8494W        W74903  10.420  21.608  11.112
 8495W        W74904  13.872   5.710  14.015
 8496W        W74905  28.410  12.282   1.787
 8497W        W74906  35.592  24.053  12.580
 8498W        W74907  29.175  14.540  13.534
 8499W        W74908  38.984  15.170  13.067
 8500W        W74909  41.858  35.372  14.822
 8501W        W74910  42.306  36.629   2.418
 8502W        W74911   5.339  25.021  14.232
 8503W        W74912  34.416  27.126   0.346
 8504W        W74913  38.039  23.705  14.335
 8505W        W74914   1.289  18.600  11.178
 8506W        W74915   7.671  27.400   0.478
 8507W        W74916  43.163   0.645   3.138
 8508W        W74917  20.021  13.031   1.869
 8509W        W74918  21.083  35.278   3.147
 8510W        W74919  23.226  25.150  13.745
 8511W        W74920  35.885   8.140  11.568
 8512W        W74921  41.227  27.746   2.638
 8513W        W74922   7.683  41.286  12.469
 8514W        W74923  22.625  29.726   3.650
 8515W        W74924  40.130  34.148  12.814
 8516W        W74925   7.851   9.698   0.410
 8517W        W74926   8.881  41.213  12.941
 8518W        W74927   5.215  13.498  12.535
 8519W        W74928  26.615  23.461  13.712
 8520W        W74929  21.515   5.344  14.892
 8521W        W74930  43.271  13.625  14.458
 8522W        W74931  33.176  20.625   1.090
 8523W        W74932  39.604  30.924   3.156
 8524W        W74933  44.894  35.576  14.670
 8525W        W74934  19.089  22.737   1.333
 8526W        W74935  23.532  18.601   4.586
 8527W        W74936  31.481  28.618   4.282
 8528W        W74937  36.927  27.482   2.398
 8529W        W74938   8.862  33.437  12.830
 8530W        W74939  42.332   3.049  12.726
 8531W        W74940  25.252   2.379   1.426
 8532W        W74941  34.257  31.416   0.779
 8533W        W74942  26.532   7.509   3.851
 8534W        W74943  18.631  23.963  11.156
 8535W        W74944  28.739  33.393  13.958
 8536W        W74945   9.170  15.355   0.801
 8537W        W74946  22.571  38.000   1.735
 8538W        W74947  25.290  42.419   1.924
 8539W        W74948  17.105   8.221   0.471
 8540W        W74949   1.503  22.801   1.219
 8541W        W74950  30.431   7.596  13.324
 8542W        W74951  38.861  33.447  11.543
 8543W        W74952  37.746   6.760   0.078
 8544W        W74953  18.749  44.944   1.472
 8545W        W74954  35.113  44.463   5.045
 8546W        W74955   1.932   1.879  11.106
 8547W        W74956   4.373  13.727  13.127
 8548W        W74957  40.760   8.684   4.758
 8549W        W74958  38.878  37.376   4.994
 8550W        W74959   3.310  35.428  11.982
 8551W        W74960  39.550  39.507  13.414
 8552W        W74961  31.661  18.748   1.449
 8553W        W74962  31.649   7.388  12.346
 8554W        W74963  19.028  18.193   4.189
 8555W        W74964  41.568  27.460  10.566
 8556W        W74965  30.026  20.087   3.393
 8557W        W74966  36.931  29.114  12.654
 8558W        W74967   4.161  15.616  10.589
 8559W        W74968   0.722  32.301  12.613
 8560W        W74969   5.709  27.204   2.959
 8561W        W74970  27.231  42.410   0.785
 8562W        W74971  44.775  41.338  14.995
 8563W        W74972  12.725  35.094  13.486
 8564W        W74973  27.634  42.326  11.243
 8565W        W74974  18.173  33.957  14.020
 8566W        W74975  42.295  14.217   3.666
 8567W        W74976  30.825   3.872   4.482
 8568W        W74977   0.335  10.797   3.260
 8569W        W74978   4.419  26.753  13.372
 8570W        W74979  21.159   5.874   1.690
 8571W        W74980   7.187  34.354   3.897
 8572W        W74981   0.687  41.445  12.381
 8573W        W74982  11.620   4.929  13.965
 8574W        W74983  19.504  15.735  10.641
 8575W        W74984  27.422  33.826  13.866
 8576W        W74985  10.813   9.812  13.798
 8577W        W74986  20.513  19.137  12.638
 8578W        W74987  40.294  22.557  10.949
 8579W        W74988  44.033  30.134   3.136
 8580W        W74989  38.815  15.983   4.185
 8581W        W74990  27.120  33.934   4.253
 8582W        W74991  26.589   7.883  14.422
 8583W        W74992   5.150  10.433  11.545
 8584W        W74993  15.623  42.600   4.064
 8585W        W74994  44.201  32.066  14.413
 8586W        W74995   4.927  36.331  14.392
 8587W        W74996  24.581  11.168   4.510
 8588W        W74997  13.429  40.312  11.591
 8589W        W74998  29.464  22.096  11.503
 8590W        W74999  11.246  27.784  13.734
 8591W        W75000  27.897  12.849   0.117
 8592W        W75001   6.370  37.357   2.839
 8593W        W75002   2.425   1.769   0.630
 8594W        W75003  17.788  10.856   0.098
 8595W        W75004  39.996   9.975  14.346
 8596W        W75005  36.581  26.880   3.685
 8597W        W75006  44.059  17.504   1.322
 8598W        W75007  17.831  35.931  13.030
 8599W        W75008  42.714  36.433   1.293
 8600W        W75009  39.436  44.974  13.545
 8601W        W75010   1.581   3.267   3.763
 8602W        W75011  37.987  27.419  14.055
 8603W        W75012  35.047  32.189  12.783
 8604W        W75013  38.943  18.647  11.216
 8605W        W75014   5.324  31.142  12.667
 8606W        W75015   8.774  20.545  14.680
 8607W        W75016  36.083  29.893   1.713
 8608W        W75017  10.543   1.947  10.994
 8609W        W75018  31.421  10.752  14.331
 8610W        W75019  44.862   0.645  14.099
 8611W        W75020  44.205  44.450   0.863
 8612W        W75021  14.940   2.968  11.517
 8613W        W75022  24.468  26.113   2.441
 8614W        W75023   5.524  31.597   3.313
 8615W        W75024  43.026  23.227  14.503
 8616W        W75025  19.530  13.297  14.542
 8617W        W75026   1.867   1.295  14.398
 8618W        W75027  43.418   3.272   3.593
 8619W        W75028  26.141  43.082  10.624
 8620W        W75029  38.192  13.233  11.185
 8621W        W75030   4.823  16.229   0.741
 8622W        W75031   4.790  43.234  10.571
 8623W        W75032  12.215   9.901  11.374
 8624W        W75033  27.578  29.019  13.804
 8625W        W75034   7.101   6.388   2.842
 8626W        W75035  19.101  25.420   4.163
 8627W        W75036  24.186  11.090  11.227
 8628W        W75037  41.542  36.901   1.274
 8629W        W75038  24.909  44.114  11.153
 8630W        W75039  25.798  15.321  14.726
 8631W        W75040   7.919  30.673  14.010
 8632W        W75041  14.049  40.569  13.424
 8633W        W75042  19.179  15.038  12.075
 8634W        W75043  35.283  12.156   3.250
 8635W        W75044   3.967  44.470  12.536
 8636W        W75045  10.215   5.271  12.384
 8637W        W75046  11.219   2.855  12.686
 8638W        W75047  37.546  13.555   3.778
 8639W        W75048  36.796  13.585   1.462
 8640W        W75049  38.088   8.404  13.865
 8641W        W75050   6.796  22.839  10.841
 8642W        W75051  28.187  28.457   1.348
 8643W        W75052  39.427   8.909   9.828
 8644W        W75053   2.335  39.638  10.750
 8645W        W75054  12.454   5.003  13.045
 8646W        W75055  21.266   0.356   3.367
 8647W        W75056  26.090   0.781  10.560
 8648W        W75057  42.411  22.540   0.838
 8649W        W75058  28.851  32.511   1.860
 8650W        W75059  17.571  22.280  10.554
 8651W        W75060  14.333  11.170   2.846
 8652W        W75061  41.537   2.336  14.362
 8653W        W75062  24.234  43.748   1.894
 8654W        W75063  18.392  40.058   1.132
 8655W        W75064  34.343  22.600   3.249
 8656W        W75065  25.588  19.490   3.696
 8657W        W75066  24.304  19.751  10.679
 8658W        W75067  10.534  26.159  11.288
 8659W        W75068   8.941  34.061  13.344
 8660W        W75069   8.180   2.196  11.993
 8661W        W75070   2.727   8.801   0.055
 8662W        W75071  12.035   2.243   0.275
 8663W        W75072  36.004  19.140   1.183
 8664W        W75073   1.221  33.637  10.547
 8665W        W75074  32.171   2.464  11.630
 8666W        W75075  12.712  15.522  11.233
 8667W        W75076  25.545  18.925  14.927
 8668W        W75077  28.013  28.376   2.803
 8669W        W75078   7.848  39.002  14.928
 8670W        W75079  12.364  17.759   4.003
 8671W        W75080   3.056  37.909   0.511
 8672W        W75081  37.392   2.039  13.983
 8673W        W75082  36.849  37.501   1.928
 8674W        W75083   8.424  38.534   1.807
 8675W        W75084  11.366   5.702   3.720
 8676W        W75085  19.082   6.718   3.550
 8677W        W75086  44.104  42.989   3.392
 8678W        W75087   5.771   2.988   0.814
 8679W        W75088  44.706   0.770  14.747
 8680W        W75089  25.043   3.170  13.333
 8681W        W75090  36.131  23.093   1.032
 8682W        W75091  43.332  38.984   3.196
 8683W        W75092  31.863  29.604   1.828
 8684W        W75093  20.709   3.212   0.815
 8685W        W75094  25.012  39.886   4.772
 8686W        W75095   1.591   3.301  13.406
 8687W        W75096  40.034  42.360   3.639
 8688W        W75097  41.014  13.135  14.687
 8689W        W75098  17.248   5.190   4.849
 8690W        W75099  28.642  32.109  13.295
 8691W        W75100  31.355  14.215   3.844
 8692W        W75101  13.173  17.308   1.861
 8693W        W75102   4.732  31.472   0.277
 8694W        W75103  18.610  39.614  10.583
 8695W        W75104  37.870  22.640   2.129
 8696W        W75105   0.805  14.079   1.349
 8697W        W75106   9.865   1.058   0.362
 8698W        W75107  17.301  25.148   2.272
 8699W        W75108  18.488  28.887   3.303
 8700W        W75109  31.668   6.863   1.549
 8701W        W75110  20.934  19.389   2.637
 8702W        W75111  40.609  29.524  14.911
 8703W        W75112  19.998  18.819   0.189
 8704W        W75113  40.432  41.407  10.773
 8705W        W75114  28.274  26.493   2.810
 8706W        W75115  32.918   4.858  13.310
 8707W        W75116  13.026  38.302   5.354
 8708W        W75117   5.340  30.948  13.506
 8709W        W75118  28.791   0.259  10.683
 8710W        W75119  33.518   3.006   1.894
 8711W        W75120   5.439  10.864   4.639
 8712W        W75121  26.415  34.230  12.619
 8713W        W75122  22.989   6.438  12.313
 8714W        W75123  13.456  27.156  12.589
 8715W        W75124   1.923  10.897   1.038
 8716W        W75125  11.847  17.202  13.675
 8717W        W75126   4.279  15.586   1.657
 8718W        W75127  21.477  41.370  12.460
 8719W        W75128   8.631  18.477   0.307
 8720W        W75129   6.338  41.821   0.529
 8721W        W75130  27.558  38.715   0.044
 8722W        W75131  16.667   4.604   0.295
 8723W        W75132  29.333  27.188   0.491
 8724W        W75133   3.759  12.235  10.613
 8725W        W75134  43.054   0.489   2.314
 8726W        W75135   4.004   7.802   1.248
 8727W        W75136   5.279   0.243  13.153
 8728W        W75137  21.011  19.425  12.978
 8729W        W75138   0.863  19.149   4.011
 8730W        W75139  10.507  22.314  12.592
 8731W        W75140  41.869   1.259  14.846
 8732W        W75141  23.646  39.255  14.459
 8733W        W75142  22.197  39.251   3.196
 8734W        W75143  18.014  10.159   0.725
 8735W        W75144  30.443  18.689   3.349
 8736W        W75145  14.462  19.068  10.445
 8737W        W75146  43.837  16.914  13.427
 8738W        W75147  19.566   1.730  10.663
 8739W        W75148   3.896  28.957   1.289
 8740W        W75149  19.022  15.325   4.194
 8741W        W75150  40.934  18.696   4.704
 8742W        W75151   8.580   4.089  10.925
 8743W        W75152  43.946  26.420   1.455
 8744W        W75153  22.698  41.964  14.399
 8745W        W75154   8.436   2.787   3.267
 8746W        W75155  16.447  19.849   1.807
 8747W        W75156  28.024   2.397  13.985
 8748W        W75157  34.292  24.718   2.569
 8749W        W75158  26.922   7.890   2.586
 8750W        W75159   6.933  22.986   4.094
 8751W        W75160  15.639  34.590   0.360
 8752W        W75161  26.418  41.966   3.939
 8753W        W75162  10.733  43.812   4.091
 8754W        W75163  32.656  27.896  11.871
 8755W        W75164  11.923  21.538   0.269
 8756W        W75165  37.026  30.496  12.442
 8757W        W75166  15.212  42.465  12.882
 8758W        W75167  41.835   0.379   2.600
 8759W        W75168  29.418   5.419   4.482
 8760W        W75169  11.085  23.275  13.903
 8761W        W75170  23.262  39.814  10.773
 8762W        W75171  36.022   3.750  12.809
 8763W        W75172  19.681  30.724   4.474
 8764W        W75173  14.897  37.764   3.105
 8765W        W75174  22.134  20.951  10.895
 8766W        W75175   7.189  38.819   2.892
 8767W        W75176   0.060   1.947  10.919
 8768W        W75177   3.019  30.179   3.228
 8769W        W75178  18.989  16.575  10.630
 8770W        W75179  14.458  36.421  14.412
 8771W        W75180  40.977  26.872   1.801
 8772W        W75181  35.192  10.943   3.747
 8773W        W75182   4.995  12.374   4.910
 8774W        W75183   7.530   0.912  11.958
 8775W        W75184   9.893  17.154  14.814
 8776W        W75185  35.047   1.765   3.824
 8777W        W75186  22.306   0.023  11.394
 8778W        W75187  42.765  32.556  10.549
 8779W        W75188  12.329  25.963  14.433
 8780W        W75189  15.320  14.607   4.477
 8781W        W75190  21.544  17.960  11.186
 8782W        W75191   5.525  12.523  13.377
 8783W        W75192  13.712  16.195  12.890
 8784W        W75193  24.752  12.677  13.600
 8785W        W75194  38.293  14.837   5.017
 8786W        W75195  28.264  38.364  12.499
 8787W        W75196   9.081  10.169  12.491
 8788W        W75197  30.134  40.395   1.336
 8789W        W75198  17.588   6.261  10.461
 8790W        W75199  27.213  14.875  13.582
 8791W        W75200  40.144  27.975  12.630
 8792W        W75201  43.842   7.220  11.575
 8793W        W75202  43.117  33.766   5.042
 8794W        W75203  15.096  10.643   3.948
 8795W        W75204  25.987  30.577   2.009
 8796W        W75205  13.689  13.798   4.039
 8797W        W75206  34.477  13.787   0.351
 8798W        W75207  28.190   5.372  14.313
 8799W        W75208  39.082  13.793   4.975
 8800W        W75209  22.300  32.534   0.419
 8801W        W75210  39.638  37.238   1.814
 8802W        W75211  24.040   2.013  12.982
 8803W        W75212  28.984   1.670  11.194
 8804W        W75213   8.971  14.322   2.300
 8805W        W75214  17.057   0.953  10.137
 8806W        W75215  30.146  41.697   3.927
 8807W        W75216  43.015  20.244  13.405
 8808W        W75217  38.111  15.232   1.620
 8809W        W75218  44.838  38.605   0.759
 8810W        W75219   5.411  18.249   0.992
 8811W        W75220  32.442   9.822  14.581
 8812W        W75221  11.399  25.499  14.884
 8813W        W75222  32.988  42.013   3.686
 8814W        W75223  36.466   9.201   0.208
 8815W        W75224   5.693  27.644  10.940
 8816W        W75225   6.409   8.351  13.701
 8817W        W75226  20.024  12.237  12.434
 8818W        W75227  12.354  13.855  10.612
 8819W        W75228   6.818  12.795  11.216
 8820W        W75229  39.414  30.003   3.747
 8821W        W75230  24.686  19.724  11.006
 8822W        W75231  10.735   6.155   3.240
 8823W        W75232   9.186  20.674  14.330
 8824W        W75233   7.603   9.902   1.419
 8825W        W75234  11.381  19.775  14.528
 8826W        W75235  16.874  38.912  12.266
 8827W        W75236   8.159   7.866  11.572
 8828W        W75237  38.131  43.946  12.019
 8829W        W75238   4.708  17.702   0.915
 8830W        W75239  10.367  19.043   4.080
 8831W        W75240  15.308  14.612  13.194
 8832W        W75241  22.184   5.790  13.084
 8833W        W75242  16.758  44.888  10.322
 8834W        W75243  39.217  28.633   0.313
 8835W        W75244  34.047  29.140   0.898
 8836W        W75245  28.614  23.656   0.255
 8837W        W75246  19.387  25.092  11.005
 8838W        W75247  38.389  12.055   0.333
 8839W        W75248  25.774  29.499   0.321
 8840W        W75249  40.792  44.069   1.850
 8841W        W75250  35.581  35.611  11.513
 8842W        W75251  14.628  11.140   1.884
 8843W        W75252  38.601  17.207  12.092
 8844W        W75253  28.828   1.331  10.803
 8845W        W75254   7.670  18.664   2.453
 8846W        W75255  20.564  10.769  12.025
 8847W        W75256   0.203  23.969  11.584
 8848W        W75257  28.930   6.705   0.036
 8849W        W75258  19.289  13.791  14.532
 8850W        W75259  30.055  31.978   3.790
 8851W        W75260  38.871   8.719  12.471
 8852W        W75261  30.366   7.306  14.907
 8853W        W75262  28.055  36.000  12.172
 8854W        W75263  37.910   5.289  13.352
 8855W        W75264  34.023  31.363  12.657
 8856W        W75265  42.456  38.050  14.685
 8857W        W75266   5.875  39.729  10.617
 8858W        W75267  35.004   7.802  13.107
 8859W        W75268  21.671   0.869   2.712
 8860W        W75269  28.669  16.194   4.366
 8861W        W75270   7.843  30.519   4.575
 8862W        W75271  23.603  33.036  12.068
 8863W        W75272  18.108  41.986  13.584
 8864W        W75273  17.805  39.893   1.362
 8865W        W75274   9.737  38.586  11.200
 8866W        W75275  43.283  42.855   2.699
 8867W        W75276  28.439   2.900   3.839
 8868W        W75277  34.958  40.494   4.172
 8869W        W75278  27.772  10.697  10.687
 8870W        W75279   8.555  34.191  10.759
 8871W        W75280  38.500   0.039  14.490
 8872W        W75281   0.358  33.410   2.415
 8873W        W75282  35.361  44.681   4.176
 8874W        W75283  12.272  28.961   1.668
 8875W        W75284   5.425  23.102  13.978
 8876W        W75285  15.989   0.861   2.356
 8877W        W75286   1.890  43.205   2.900
 8878W        W75287  14.737  41.319  11.583
 8879W        W75288  18.859  43.873  12.500
 8880W        W75289  34.181  24.393  11.648
 8881W        W75290  15.228  10.950  13.495
 8882W        W75291  40.868  33.489  10.948
 8883W        W75292  36.856  10.628  10.842
 8884W        W75293   1.466   8.058   4.115
 8885W        W75294   5.206  43.830   1.072
 8886W        W75295  31.168  21.616  14.776
 8887W        W75296  40.638  27.919   3.260
 8888W        W75297   1.756  33.960  14.777
 8889W        W75298   0.992  20.745   0.719
 8890W        W75299   6.433  10.593   4.372
 8891W        W75300  43.775   4.278  12.514
 8892W        W75301  19.028  15.493  12.511
 8893W        W75302  27.640   0.005   2.294
 8894W        W75303   4.851   3.513  14.067
 8895W        W75304   6.622  20.053  13.430
 8896W        W75305  23.776  28.047   4.566
 8897W        W75306  21.059  31.860   2.708
 8898W        W75307  28.137  44.770  11.617
 8899W        W75308  24.133  23.081  13.400
 8900W        W75309  33.288  37.038   0.962
 8901W        W75310  32.043   5.721   2.749
 8902W        W75311  34.984  19.789   3.183
 8903W        W75312   9.224  44.541   2.681
 8904W        W75313  13.898  13.056  11.552
 8905W        W75314   5.243  11.505  11.092
 8906W        W75315  24.464  21.333  11.915
 8907W        W75316  16.258  22.297  11.905
 8908W        W75317   3.352  12.687  11.100
 8909W        W75318  42.589  42.002   4.281
 8910W        W75319  30.218  21.939  12.214
 8911W        W75320  25.100  32.660  14.682
 8912W        W75321  30.610  20.661   2.640
 8913W        W75322   9.874  16.070  12.983
 8914W        W75323  44.837  33.394  12.194
 8915W        W75324   5.446   4.935  10.763
 8916W        W75325   3.194  19.212   2.860
 8917W        W75326  18.047  36.083  13.470
 8918W        W75327  27.976  13.166  11.142
 8919W        W75328  21.668  30.201   4.583
 8920W        W75329  31.886  30.236  11.322
 8921W        W75330  11.947  44.700  10.843
 8922W        W75331  40.043  13.252  13.422
 8923W        W75332  40.239  44.735   0.284
 8924W        W75333  34.559  37.436   1.422
 8925W        W75334  37.848  44.108   3.181
 8926W        W75335   9.363  27.665   4.513
 8927W        W75336  20.030  24.631  12.993
 8928W        W75337   3.241   9.145   0.800
 8929W        W75338  41.831  31.581  12.012
 8930W        W75339   6.904  11.393   0.929
 8931W        W75340   2.182   4.158  11.601
 8932W        W75341  27.256  15.111   3.231
 8933W        W75342  24.916   4.333  12.527
 8934W        W75343  35.122  41.484   0.837
 8935W        W75344  28.402  26.767   4.214
 8936W        W75345  21.301   3.988  10.435
 8937W        W75346   4.208  22.165   1.770
 8938W        W75347  19.558  41.342  11.710
 8939W        W75348  32.432  43.015   2.734
 8940W        W75349  24.060  44.811  12.687
 8941W        W75350  17.828  44.547  12.519
 8942W        W75351  41.855  18.765  12.149
 8943W        W75352  23.135  12.881   2.671
 8944W        W75353   9.806  42.205  14.832
 8945W        W75354  11.282  35.336  11.575
 8946W        W75355   9.177  44.013   3.504
 8947W        W75356  25.700  44.748   4.115
 8948W        W75357  33.010  14.263  11.677
 8949W        W75358  10.021  41.301  11.525
 8950W        W75359  38.010  25.526  14.246
 8951W        W75360   1.370  35.436   4.507
 8952W        W75361  29.668  32.539  13.018
 8953W        W75362  24.333  36.405  12.019
 8954W        W75363  27.670  26.065  12.197
 8955W        W75364   6.543  32.567  13.065
 8956W        W75365  30.515   3.705   2.194
 8957W        W75366  15.780  35.482   0.019
 8958W        W75367  20.673  35.876   2.112
 8959W        W75368   3.722  35.877  14.328
 8960W        W75369  27.138  32.818   0.059
 8961W        W75370  30.851  34.481  14.406
 8962W        W75371  23.014  12.101   0.257
 8963W        W75372  32.654  14.713  14.016
 8964W        W75373  31.011  26.020   4.927
 8965W        W75374  39.364  42.383  14.773
 8966W        W75375  40.539  42.394  14.740
 8967W        W75376   9.192   9.022  14.638
 8968W        W75377  26.536   4.139  11.461
 8969W        W75378   3.425   8.382  14.332
 8970W        W75379   3.478   5.732  13.720
 8971W        W75380   0.420  25.126  14.298
 8972W        W75381  39.568  36.986   4.955
 8973W        W75382  34.174   3.793   0.804
 8974W        W75383  25.226   6.677  13.934
 8975W        W75384  41.286  34.807   0.902
 8976W        W75385  42.030  14.744   3.620
 8977W        W75386  39.875  31.963   1.714
 8978W        W75387  28.099  30.752  14.370
 8979W        W75388   1.184  18.001   0.732
 8980W        W75389  18.358  17.213   3.657
 8981W        W75390  43.324  39.434   0.854
 8982W        W75391  36.454   0.384   3.687
 8983W        W75392  20.319   2.545   4.070
 8984W        W75393  39.051  13.633   3.174
 8985W        W75394  39.354   2.375   3.396
 8986W        W75395  18.050  36.510   4.213
 8987W        W75396  34.809  44.274   3.614
 8988W        W75397  15.078  43.790  11.116
 8989W        W75398  44.095  24.543   1.366
 8990W        W75399   5.979  21.261  14.038
 8991W        W75400   2.690  20.614   2.237
 8992W        W75401  13.315   3.941  12.334
 8993W        W75402  36.112  41.304   1.000
 8994W        W75403  18.517  39.387  13.108
 8995W        W75404  25.987  33.074   4.699
 8996W        W75405  26.210  17.204  11.454
 8997W        W75406  36.436  22.674  14.877
 8998W        W75407  19.322  37.387  13.245
 8999W        W75408  30.973  11.753  11.554
 9000W        W75409  27.070  17.668   4.401
 9001W        W75410  43.781  17.548   2.760
 9002W        W75411  39.058  32.234   3.424
 9003W        W75412  20.990  25.156  12.449
 9004W        W75413  25.747  42.456  11.136
 9005W        W75414  11.837  33.674   3.811
 9006W        W75415  13.130  27.733  13.375
 9007W        W75416  22.775   4.368   2.857
 9008W        W75417  23.806  18.151   5.067
 9009W        W75418   4.210   4.575  13.336
 9010W        W75419   4.324  40.308  12.453
 9011W        W75420  12.633  17.099   1.008
 9012W        W75421   4.440   9.787  11.098
 9013W        W75422  22.606   3.337   4.655
 9014W        W75423  11.823   1.936  14.365
 9015W        W75424  22.942  28.778   0.353
 9016W        W75425  29.085  13.860  14.278
 9017W        W75426  26.557  36.409  12.419
 9018W        W75427  33.744   3.900  14.108
 9019W        W75428   6.341   7.099   5.065
 9020W        W75429  22.700  36.164  14.450
 9021W        W75430  16.072  41.510  11.473
 9022W        W75431   5.126  43.391   3.724
 9023W        W75432  20.758  10.382  11.327
 9024W        W75433  21.690  41.067  13.038
 9025W        W75434  32.579  12.442   0.872
 9026W        W75435  40.070   1.602  13.984
 9027W        W75436  17.805   1.913  12.535
 9028W        W75437  30.444   0.422   0.993
 9029W        W75438  21.159  16.204  10.880
 9030W        W75439   5.102  20.710  14.075
 9031W        W75440  23.904  44.431  14.293
 9032W        W75441  11.791  29.324   4.527
 9033W        W75442  34.843  17.210  11.211
 9034W        W75443  32.371   2.777  12.981
 9035W        W75444  30.123  40.878   1.000
 9036W        W75445   9.913   4.858   1.570
 9037W        W75446   4.553  28.160   4.274
 9038W        W75447  30.338  18.977   4.409
 9039W        W75448  34.330  11.751  13.320
 9040W        W75449  36.544   1.614   0.659
 9041W        W75450   8.491  12.740  12.777
 9042W        W75451  32.903  19.213  12.312
 9043W        W75452  42.119  37.186   4.160
 9044W        W75453  29.830  31.535   3.494
 9045W        W75454  25.551  18.658  11.828
 9046W        W75455  16.734  41.400  10.926
 9047W        W75456  32.069   5.069   4.027
 9048W        W75457   6.888   0.841   4.966
 9049W        W75458  19.690  44.215   4.481
 9050W        W75459  15.284  19.232  14.040
 9051W        W75460   1.333  33.805  13.939
 9052W        W75461  23.647   2.133  11.979
 9053W        W75462  26.462  17.910  11.070
 9054W        W75463  19.483  19.144  14.314
 9055W        W75464  39.743  40.613   0.159
 9056W        W75465  12.929  12.304  14.009
 9057W        W75466  10.264  15.718   1.551
 9058W        W75467   7.478  14.267  13.028
 9059W        W75468  13.716  42.413   4.981
 9060W        W75469  43.348  42.288   0.792
 9061W        W75470  12.807  19.709  12.932
 9062W        W75471  29.500  17.080   0.785
 9063W        W75472  28.707   8.142   3.446
 9064W        W75473  10.794  29.716  10.760
 9065W        W75474  30.692  25.291  14.721
 9066W        W75475   8.074  33.456   2.680
 9067W        W75476  10.071  18.358  12.650
 9068W        W75477   5.258  13.659   4.392
 9069W        W75478  14.679  27.588  11.619
 9070W        W75479   7.905  36.881   4.581
 9071W        W75480  36.446  11.289   4.838
 9072W        W75481   8.272  33.380  14.116
 9073W        W75482   2.195  25.857   1.870
 9074W        W75483  18.459  11.624  10.939
 9075W        W75484  17.288   4.083  12.041
 9076W        W75485  22.547  21.185   2.221
 9077W        W75486   9.966  21.109   1.754
 9078W        W75487  35.683  44.980   3.193
 9079W        W75488  16.904  30.508   0.840
 9080W        W75489  44.973   1.988  13.596
 9081W        W75490   4.767  33.666  13.825
 9082W        W75491  27.469   1.209   1.223
 9083W        W75492  21.283  10.393   2.271
 9084W        W75493   5.311  35.685  14.868
 9085W        W75494  21.001  30.151  12.032
 9086W        W75495  42.950  15.074   0.865
 9087W        W75496  41.362  41.296   1.935
 9088W        W75497  21.442   8.424   4.292
 9089W        W75498  17.019  20.052   4.915
 9090W        W75499  37.777  11.060  10.893
 9091W        W75500  39.027  43.329   1.894
 9092W        W75501  16.412  10.371  14.983
 9093W        W75502  21.762  14.192   0.332
 9094W        W75503  20.768  22.513  12.513
 9095W        W75504  20.774   9.647  11.119
 9096W        W75505  10.753  25.751  13.587
 9097W        W75506   4.945  11.700   1.643
 9098W        W75507  37.384  31.421   4.486
 9099W        W75508   5.838  27.929   1.347
 9100W        W75509  19.716  42.346   1.675
 9101W        W75510  17.532  43.848   1.302
 9102W        W75511  13.332   0.518  13.373
 9103W        W75512  33.197   3.424   3.192
 9104W        W75513  44.815   2.198  14.017
 9105W        W75514  18.015  15.069  14.773
 9106W        W75515  43.426   4.254   3.949
 9107W        W75516  23.948   8.468  14.722
 9108W        W75517  19.017  20.999   1.463
 9109W        W75518  33.524  32.178   1.144
 9110W        W75519  17.843  14.559   1.281
 9111W        W75520   9.314  41.544  12.572
 9112W        W75521  15.167  35.678  14.549
 9113W        W75522  38.129   1.345   4.576
 9114W        W75523  41.022  32.580   2.613
 9115W        W75524  26.244   6.993  11.300
 9116W        W75525  41.487   4.924   4.643
 9117W        W75526  29.531  44.945   1.314
 9118W        W75527  17.612  32.460   1.623
 9119W        W75528  26.975  23.239  12.919
 9120W        W75529  30.022   5.799   3.235
 9121W        W75530   4.721   2.917   1.314
 9122W        W75531  18.796  24.449  11.060
 9123W        W75532  13.724  43.861   3.931
 9124W        W75533  35.997   5.660  13.003
 9125W        W75534  35.936  18.363  14.359
 9126W        W75535   0.219  38.926   0.908
 9127W        W75536   2.660  34.120  13.418
 9128W        W75537  25.044  29.262   2.104
 9129W        W75538  20.982  28.129  12.434
 9130W        W75539  17.884  33.408  13.830
 9131W        W75540  31.189  15.185  11.649
 9132W        W75541  37.808  38.236   0.263
 9133W        W75542  21.302   1.771   0.519
 9134W        W75543  14.260  25.030  12.456
 9135W        W75544  21.706  20.302   3.822
 9136W        W75545  24.113  30.181   1.431
 9137W        W75546  19.085  21.052  13.862
 9138W        W75547  24.219  42.817  13.592
 9139W        W75548  37.913  11.149   1.020
 9140W        W75549   2.245  34.062  14.445
 9141W        W75550  35.853  30.117   4.052
 9142W        W75551  20.268  14.693   0.476
 9143W        W75552  15.772   3.886   0.095
 9144W        W75553  18.236   6.682  12.032
 9145W        W75554  23.313  42.865   3.126
 9146W        W75555  29.358   3.195   1.971
 9147W        W75556   4.828  29.074   3.897
 9148W        W75557   9.663  35.449  11.140
 9149W        W75558   8.853  13.803   1.105
 9150W        W75559   5.735  34.394   2.815
 9151W        W75560   0.703   4.690   3.093
 9152W        W75561  36.057   7.243  10.384
 9153W        W75562  26.230  41.871   4.449
 9154W        W75563  28.600   0.840   4.367
 9155W        W75564  34.402   0.588   9.720
 9156W        W75565  16.841  19.583   1.538
 9157W        W75566  36.729  30.614   3.422
 9158W        W75567  26.205   0.746   0.313
 9159W        W75568   7.929   8.852   3.195
 9160W        W75569  17.747   5.775  11.684
 9161W        W75570   5.896   2.686  13.431
 9162W        W75571  41.423   9.341  12.523
 9163W        W75572  26.552   3.389   3.395
 9164W        W75573   1.877  35.857  13.457
 9165W        W75574  36.364  20.585   4.673
 9166W        W75575  14.159   5.905  12.454
 9167W        W75576  41.124  42.266  12.851
 9168W        W75577  34.556   6.373   3.073
 9169W        W75578  40.965   1.783  13.474
 9170W        W75579  27.926  43.248  12.328
 9171W        W75580   8.373   2.290   0.811
 9172W        W75581   8.566  38.473  11.622
 9173W        W75582  24.918  17.454   4.112
 9174W        W75583  20.537  42.477  12.873
 9175W        W75584  17.571  14.085  14.471
 9176W        W75585  37.416   9.888  11.740
 9177W        W75586   5.078  35.429   3.299
 9178W        W75587  40.582   9.401   0.273
 9179W        W75588  41.046  20.531  14.066
 9180W        W75589  19.837  19.631  13.534
 9181W        W75590   2.265   8.291   4.717
 9182W        W75591   8.382  33.593   2.261
 9183W        W75592  23.594  20.294   1.156
 9184W        W75593  25.087   4.416   3.797
 9185W        W75594  13.047  40.419   3.656
 9186W        W75595  13.857  44.017   0.803
 9187W        W75596  29.804  21.296  10.949
 9188W        W75597  38.650   1.796  14.914
 9189W        W75598   9.540   6.099   1.776
 9190W        W75599  32.066  40.365  13.519
 9191W        W75600  38.025  13.561   2.579
 9192W        W75601  13.958  18.965   0.616
 9193W        W75602  38.651  20.591  10.073
 9194W        W75603  19.574  31.606  11.990
 9195W        W75604  12.547  16.736  12.115
 9196W        W75605  15.726   7.123  14.393
 9197W        W75606  23.563  11.570   2.903
 9198W        W75607   7.418  31.790  12.101
 9199W        W75608  41.804  29.119   3.705
 9200W        W75609  21.759   4.232  14.306
 9201W        W75610  27.107  38.874   1.888
 9202W        W75611   5.438   6.378   3.416
 9203W        W75612  29.048  40.864   4.442
 9204W        W75613  31.837  19.586  11.442
 9205W        W75614  38.084  33.099  12.998
 9206W        W75615   0.859  29.223  11.062
 9207W        W75616  34.438  33.973   1.417
 9208W        W75617  39.869  31.129  13.884
 9209W        W75618  25.186  18.641  10.592
 9210W        W75619  27.123  27.229   4.486
 9211W        W75620  42.993   3.477  11.917
 9212W        W75621  37.999   3.519  11.678
 9213W        W75622  37.528  23.310  13.754
 9214W        W75623   7.389  39.358  12.501
 9215W        W75624   4.425  37.093   0.581
 9216W        W75625  31.279   0.507  14.363
 9217W        W75626  18.857  25.854   3.796
 9218W        W75627  15.465  36.695  10.282
 9219W        W75628  12.736   1.796   2.362
 9220W        W75629  39.341  36.315   2.587
 9221W        W75630  43.849  21.770   2.751
 9222W        W75631  35.462  40.826   3.811
 9223W        W75632  20.847   7.557  14.709
 9224W        W75633  41.978  22.528   1.164
 9225W        W75634  20.783  39.012  10.953
 9226W        W75635  10.921  36.562   1.086
 9227W        W75636  35.031  23.483  12.024
 9228W        W75637  30.782  44.214  12.201
 9229W        W75638  11.707   5.831  11.309
 9230W        W75639   7.192  27.641  11.480
 9231W        W75640  29.914  35.340  12.197
 9232W        W75641  16.387  37.214   0.134
 9233W        W75642  40.953  10.196   3.196
 9234W        W75643   2.726  40.570  13.518
 9235W        W75644  42.035   2.310   2.062
 9236W        W75645   8.624   5.325   4.606
 9237W        W75646  21.586  34.707  11.951
 9238W        W75647  26.196   0.052   3.474
 9239W        W75648   4.631  13.086  14.920
 9240W        W75649   7.251   1.207  13.445
 9241W        W75650   2.935  38.166  13.442
 9242W        W75651  43.310   3.947   0.413
 9243W        W75652   8.672  30.423   3.245
 9244W        W75653  44.440  36.254   2.424
 9245W        W75654  11.131   3.847   1.305
 9246W        W75655  17.143  16.817   1.494
 9247W        W75656  29.648   1.152  11.468
 9248W        W75657  42.061  26.289   3.691
 9249W        W75658  31.960  35.609  14.533
 9250W        W75659  38.337  38.244   0.320
 9251W        W75660  40.699  16.814   1.215
 9252W        W75661  23.224   2.309   4.562
 9253W        W75662  15.195  22.170  13.274
 9254W        W75663  20.060  25.542   3.248
 9255W        W75664   2.248  12.336   4.315
 9256W        W75665  36.457  32.741   4.194
 9257W        W75666   8.930   4.455   3.709
 9258W        W75667  30.423  39.472  14.874
 9259W        W75668   3.391  28.975   0.867
 9260W        W75669  27.649  26.497  14.282
 9261W        W75670  22.702  38.376  11.541
 9262W        W75671   6.002  31.864   3.371
 9263W        W75672  28.567  24.065  11.551
 9264W        W75673  25.520   8.737   3.777
 9265W        W75674  37.926  44.979  13.784
 9266W        W75675  28.507  22.184   3.999
 9267W        W75676  39.504  41.815   4.156
 9268W        W75677   1.538  23.848  14.253
 9269W        W75678  28.335  11.121   2.396
 9270W        W75679  23.050  26.084   1.999
 9271W        W75680  17.501  27.598  12.193
 9272W        W75681   6.993  22.053   2.300
 9273W        W75682  10.729   6.441  14.264
 9274W        W75683  18.164  19.109   0.878
 9275W        W75684  28.097  33.688   4.101
 9276W        W75685  14.302   0.406  14.565
 9277W        W75686  40.578  27.918   2.391
 9278W        W75687  40.061  23.984  11.836
 9279W        W75688  35.585   4.141   1.292
 9280W        W75689  25.309  27.049   4.753
 9281W        W75690   3.632  31.959  14.526
 9282W        W75691  21.619  40.354   2.967
 9283W        W75692  17.773   8.942   4.488
 9284W        W75693  33.342  37.519  11.605
 9285W        W75694  40.497  44.395  10.350
 9286W        W75695   1.829  32.325   5.042
 9287W        W75696  22.189  10.586   4.573
 9288W        W75697  37.959  11.913  11.156
 9289W        W75698  18.619  40.786  12.688
 9290W        W75699  31.506  16.027   1.310
 9291W        W75700  31.408  42.413   4.085
 9292W        W75701   5.902  14.580  12.454
 9293W        W75702  41.202  35.228   3.609
 9294W        W75703   5.140   8.145   1.250
 9295W        W75704  11.627  21.246  10.263
 9296W        W75705  38.941  13.600  12.511
 9297W        W75706  17.767   3.265  13.335
 9298W        W75707  39.648  14.969   5.100
 9299W        W75708   9.537   0.622  11.098
 9300W        W75709  43.200  38.440  14.384
 9301W        W75710  29.477  34.890  11.042
 9302W        W75711  44.926   8.085  11.682
 9303W        W75712  44.066   2.667  14.481
 9304W        W75713  39.879  18.665  13.087
 9305W        W75714   0.716  25.530   1.215
 9306W        W75715  34.512  42.116   2.728
 9307W        W75716   0.004  22.387   3.246
 9308W        W75717  35.339   8.209   3.306
 9309W        W75718  25.021   5.888  12.357
 9310W        W75719  17.090   1.405  11.459
 9311W        W75720  37.130  30.112   4.195
 9312W        W75721  22.247   5.456  13.950
 9313W        W75722  24.391  16.381   1.890
 9314W        W75723  32.977  37.788   4.944
 9315W        W75724  28.910  16.112   1.287
 9316W        W75725  42.203  27.549  13.514
 9317W        W75726  14.826  17.130  13.083
 9318W        W75727  22.590  12.840  12.346
 9319W        W75728  22.209  16.089  11.568
 9320W        W75729  28.528  35.993   4.479
 9321W        W75730   5.847  16.814  14.857
 9322W        W75731   9.074  20.335  12.868
 9323W        W75732  28.579   0.674  11.618
 9324W        W75733  13.690  40.385   1.662
 9325W        W75734   1.910  32.293   0.450
 9326W        W75735  12.793  24.164  11.964
 9327W        W75736  18.054   8.651  14.666
 9328W        W75737  22.499  34.663  13.380
 9329W        W75738   6.157  43.378  11.639
 9330W        W75739  22.310   1.352   2.326
 9331W        W75740  42.075  20.026   2.220
 9332W        W75741   9.871  35.906  10.203
 9333W        W75742   7.833  27.029   2.586
 9334W        W75743   7.621  39.759   2.802
 9335W        W75744  30.446  21.463   1.258
 9336W        W75745  13.809  15.298  11.918
 9337W        W75746  37.607  25.341   2.321
 9338W        W75747  34.382   2.782   4.068
 9339W        W75748   4.825   3.856  14.752
 9340W        W75749  21.844   0.226   1.926
 9341W        W75750  24.901  25.116   4.408
 9342W        W75751  23.391  17.774   1.200
 9343W        W75752  22.011  28.357  14.301
 9344W        W75753  25.857  12.165  13.480
 9345W        W75754  15.984  22.282  12.873
 9346W        W75755  11.473  16.258  10.671
 9347W        W75756  40.303   6.905   0.087
 9348W        W75757  11.644  43.787   5.376
 9349W        W75758  18.070  23.296   0.307
 9350W        W75759  37.519  42.706   3.839
 9351W        W75760  37.348   2.480  14.481
 9352W        W75761  11.192   6.662   0.783
 9353W        W75762  22.814   3.547  11.432
 9354W        W75763  36.449  36.888   4.775
 9355W        W75764   6.428  37.015  11.459
 9356W        W75765  23.194  15.656  14.419
 9357W        W75766  33.031  19.593  12.949
 9358W        W75767  16.232  34.850   1.180
 9359W        W75768   7.758  32.708   3.204
 9360W        W75769  27.438   7.932   4.457
 9361W        W75770  39.871  30.081   4.040
 9362W        W75771  18.945  16.818   0.277
 9363W        W75772  36.420  44.857   0.690
 9364W        W75773   7.674  28.210   1.400
 9365W        W75774   0.084  34.104  11.665
 9366W        W75775  24.530  36.573   0.331
 9367W        W75776  20.511   4.999  14.314
 9368W        W75777   6.858  43.398   1.459
 9369W        W75778  40.694   6.703   4.117
 9370W        W75779  23.897  35.328   1.587
 9371W        W75780  21.622  22.690  10.755
 9372W        W75781   4.246   3.429   3.498
 9373W        W75782  29.606   4.165   5.023
 9374W        W75783   9.115  17.080   3.777
 9375W        W75784  34.484  22.236  12.039
 9376W        W75785  32.897  44.992   1.205
 9377W        W75786  40.674   7.063   0.904
 9378W        W75787  34.478   4.015  14.893
 9379W        W75788   0.687   3.115  12.646
 9380W        W75789   1.236  43.995  11.193
 9381W        W75790  28.179  26.206  14.897
 9382W        W75791  23.224  31.814   4.264
 9383W        W75792   5.221  22.967   1.554
 9384W        W75793  37.653  30.362  13.242
 9385W        W75794  38.757  38.518   2.678
 9386W        W75795  39.363  19.111  13.817
 9387W        W75796   8.408  44.371   1.810
 9388W        W75797  41.794  30.186   0.237
 9389W        W75798  25.111  26.432  11.916
 9390W        W75799  31.985  23.677   1.415
 9391W        W75800  44.714  37.529  13.937
 9392W        W75801  27.059  38.054  13.841
 9393W        W75802  39.752  10.602  12.926
 9394W        W75803   3.276   3.831   2.264
 9395W        W75804  41.844  21.920   4.640
 9396W        W75805  44.520  19.381  13.924
 9397W        W75806  41.850  31.894  14.529
 9398W        W75807  30.693  33.519  14.475
 9399W        W75808  10.075  24.492   2.306
 9400W        W75809  17.269  13.379   0.746
 9401W        W75810  43.744  11.168   0.263
 9402W        W75811  25.161  42.841   1.243
 9403W        W75812  26.031  13.827  10.510
 9404W        W75813  34.624   1.210  11.985
 9405W        W75814  15.059   0.429   4.233
 9406W        W75815  42.499  35.789   4.325
 9407W        W75816  29.123  29.467  12.325
 9408W        W75817  35.274  23.864  12.928
 9409W        W75818  38.581  15.276   3.720
 9410W        W75819  30.323   4.303   1.752
 9411W        W75820  38.326  42.331  12.037
 9412W        W75821  32.020  35.857  12.122
 9413W        W75822  24.685   4.828   4.333
 9414W        W75823  29.688   0.298  12.969
 9415W        W75824   0.927  29.398   3.405
 9416W        W75825  32.002  26.933  13.174
 9417W        W75826  15.083  17.312   4.221
 9418W        W75827  33.537   6.813   4.690
 9419W        W75828   9.956   4.259  11.564
 9420W        W75829   9.742  44.474   0.994
 9421W        W75830  22.532  26.118   1.331
 9422W        W75831  40.929  11.967  10.308
 9423W        W75832  21.801  10.158  13.474
 9424W        W75833  15.378  11.465  13.421
 9425W        W75834   4.946  41.015  14.482
 9426W        W75835  20.321  10.841  13.395
 9427W        W75836   5.835  26.117   3.525
 9428W        W75837  41.388   4.777  11.154
 9429W        W75838  12.880  43.774  13.386
 9430W        W75839  22.450  43.476  12.250
 9431W        W75840   1.460  35.997  10.636
 9432W        W75841  35.318  14.268  11.614
 9433W        W75842   3.039  40.539   1.205
 9434W        W75843   4.695  24.029   0.187
 9435W        W75844   7.323  19.323   2.727
 9436W        W75845  42.493   2.933  10.786
 9437W        W75846  37.876   2.172  11.897
 9438W        W75847  21.185  18.507  13.909
 9439W        W75848  24.463  17.105   4.114
 9440W        W75849  30.010  30.700   0.898
 9441W        W75850  20.517   5.689   0.280
 9442W        W75851  15.200  14.742  14.680
 9443W        W75852  42.299  42.753  14.768
 9444W        W75853  19.782  35.859   3.113
 9445W        W75854  43.675  11.776   3.357
 9446W        W75855  36.935  10.857  12.789
 9447W        W75856  41.032  22.535   4.557
 9448W        W75857  22.187  16.864   4.592
 9449W        W75858   1.403  40.609  12.084
 9450W        W75859  23.927  40.356   1.594
 9451W        W75860  10.928  30.896   3.312
 9452W        W75861  35.694  40.487  11.963
 9453W        W75862  23.498  11.799   3.375
 9454W        W75863   4.166  33.036   2.817
 9455W        W75864  38.941  21.456  14.424
 9456W        W75865  44.314  23.209  10.910
 9457W        W75866  29.130  33.882  11.420
 9458W        W75867   5.066   4.792  11.723
 9459W        W75868  40.297  22.680   2.369
 9460W        W75869  27.473  11.392   2.507
 9461W        W75870  27.168   0.451   4.586
 9462W        W75871  21.292  42.951  10.610
 9463W        W75872   7.421  25.752  14.062
 9464W        W75873   4.151  33.916  13.409
 9465W        W75874  41.424  44.852  11.173
 9466W        W75875   2.846   2.716   3.818
 9467W        W75876  12.117  37.056   9.913
 9468W        W75877  19.166   6.424  11.741
 9469W        W75878  21.717  14.538  13.519
 9470W        W75879   8.245  30.420   0.278
 9471W        W75880  13.612  43.239  10.739
 9472W        W75881  20.548  11.384   2.127
 9473W        W75882  17.494  32.728  11.941
 9474W        W75883   7.568  44.500  12.105
 9475W        W75884   6.892   5.308   3.607
 9476W        W75885  24.250  27.687  12.403
 9477W        W75886   6.196  19.881  10.763
 9478W        W75887  43.010   6.179  13.734
 9479W        W75888  29.058  16.037  10.503
 9480W        W75889  26.197  12.583   0.841
 9481W        W75890   4.448  15.091   1.665
 9482W        W75891  14.923  25.720   4.273
 9483W        W75892  27.178   3.679   0.454
 9484W        W75893   0.745  35.421   1.297
 9485W        W75894   3.479  32.995  10.928
 9486W        W75895  32.299  35.985  11.724
 9487W        W75896  20.236  28.606   1.571
 9488W        W75897   6.836  29.101  12.384
 9489W        W75898  43.371  43.717  12.074
 9490W        W75899   8.952   0.873   4.972
 9491W        W75900   2.200   6.682   3.259
 9492W        W75901  37.805   0.535  13.549
 9493W        W75902  32.843  28.390  14.236
 9494W        W75903  43.596  31.433  11.689
 9495W        W75904  34.330   1.426  10.717
 9496W        W75905  17.662  14.741  13.875
 9497W        W75906   2.580  23.607  10.653
 9498W        W75907  36.582   6.267  11.958
 9499W        W75908  34.446  44.810   1.950
 9500W        W75909  11.330  42.305  14.953
 9501W        W75910   5.773  26.906   0.460
 9502W        W75911  23.473  30.535   2.130
 9503W        W75912  19.404  10.309   4.597
 9504W        W75913  19.787  38.862  14.040
 9505W        W75914  36.314   8.266  14.390
 9506W        W75915  21.658  22.717   0.385
 9507W        W75916  11.248  30.931  12.876
 9508W        W75917  15.548  35.422   3.382
 9509W        W75918   8.410  20.719   0.032
 9510W        W75919  33.132   4.297  12.561
 9511W        W75920  16.361  29.711  12.700
 9512W        W75921  37.076  31.402  12.440
 9513W        W75922   3.829  10.240   0.484
 9514W        W75923   3.854  38.893   2.812
 9515W        W75924  27.165   1.139   2.517
 9516W        W75925   7.841  40.899   2.806
 9517W        W75926  36.637  39.548   1.872
 9518W        W75927  30.394  37.467  12.487
 9519W        W75928  11.416   5.042   4.535
 9520W        W75929   2.349   5.926   1.898
 9521W        W75930  41.889  28.185  12.143
 9522W        W75931  17.303  10.638   4.509
 9523W        W75932  37.859  30.422  12.011
 9524W        W75933  35.864  28.597   0.271
 9525W        W75934   1.573  36.480   0.941
 9526W        W75935  12.111  20.423  11.110
 9527W        W75936  31.481  18.162  12.125
 9528W        W75937   2.721  24.049   3.375
 9529W        W75938   7.898   0.377   2.126
 9530W        W75939  30.683  27.915  14.334
 9531W        W75940  17.296   1.085  10.609
 9532W        W75941  13.515  11.735   3.751
 9533W        W75942  25.624  26.228  12.017
 9534W        W75943  39.031  28.967   3.206
 9535W        W75944  43.402   1.619  11.897
 9536W        W75945   4.803  29.927  14.924
 9537W        W75946   3.515  10.052  14.811
 9538W        W75947  28.550  14.164  12.845
 9539W        W75948  40.682   6.840  12.673
 9540W        W75949  44.443  12.297  12.203
 9541W        W75950  14.794  25.167  13.359
 9542W        W75951   4.378  14.825  11.553
 9543W        W75952  31.502  28.862  13.859
 9544W        W75953   0.470  10.943  12.437
 9545W        W75954  27.512   4.176   2.613
 9546W        W75955   7.346  22.655  11.924
 9547W        W75956   3.379   1.376   0.430
 9548W        W75957  26.954  44.960   2.867
 9549W        W75958   6.221   9.369   0.448
 9550W        W75959  22.763  18.744   2.110
 9551W        W75960   5.204  21.314  12.872
 9552W        W75961  27.933  43.743   0.426
 9553W        W75962  39.385  19.030   1.811
 9554W        W75963   9.711   2.114  11.690
 9555W        W75964   4.997  39.492  14.967
 9556W        W75965  15.064  37.264   2.376
 9557W        W75966  31.193   3.677  12.010
 9558W        W75967  37.278  37.504  12.992
 9559W        W75968  33.637  16.607  14.625
 9560W        W75969   8.749   8.036   3.730
 9561W        W75970   7.787  21.025   5.041
 9562W        W75971  32.074  10.927   2.067
 9563W        W75972  16.589  33.845   4.092
 9564W        W75973   9.776   3.381   3.301
 9565W        W75974  11.377  34.941  11.241
 9566W        W75975   3.286  42.944   0.318
 9567W        W75976  34.166  43.460   4.692
 9568W        W75977  41.788  12.643   0.350
 9569W        W75978  13.272  11.842  11.642
 9570W        W75979  19.794  14.118   1.224
 9571W        W75980  24.705  35.620   4.661
 9572W        W75981  26.636  18.494   4.132
 9573W        W75982  41.582   8.579   5.064
 9574W        W75983  16.212  13.301   0.707
 9575W        W75984  17.577  22.352  11.105
 9576W        W75985  14.554  44.264   4.083
 9577W        W75986  22.603  33.041   0.290
 9578W        W75987  17.841  27.474   3.242
 9579W        W75988  15.021  34.087  13.931
 9580W        W75989  35.469   2.623  10.035
 9581W        W75990  19.404  27.249  12.552
 9582W        W75991  38.054   6.668  11.204
 9583W        W75992  31.894   8.360   3.111
 9584W        W75993  22.465  22.779  14.767
 9585W        W75994   0.462   7.745  14.064
 9586W        W75995  41.820  12.838   5.209
 9587W        W75996   1.382   2.733  11.119
 9588W        W75997  11.840  41.314   0.499
 9589W        W75998  31.895  39.261  10.737
 9590W        W75999  18.820   3.998   4.553
 9591W        W76000  18.766  22.945   3.745
 9592W        W76001  15.816  40.387  10.609
 9593W        W76002  16.824   9.398   3.092
 9594W        W76003   7.452   4.159  14.634
 9595W        W76004  12.049   2.481  13.990
 9596W        W76005  29.025  30.850   0.146
 9597W        W76006  43.778  40.049  13.976
 9598W        W76007   7.815  29.461  12.081
 9599W        W76008  41.939  31.955  12.575
 9600W        W76009  26.776  21.026   4.976
 9601W        W76010   4.927  41.446  12.959
 9602W        W76011   5.147  38.486  12.914
 9603W        W76012  44.175  24.786   2.356
 9604W        W76013  22.990  14.391   1.772
 9605W        W76014  13.267  27.482  12.945
 9606W        W76015   4.877  44.441   4.814
 9607W        W76016  42.029  32.536   1.958
 9608W        W76017  32.292  25.587   1.238
 9609W        W76018  14.116  18.699  10.637
 9610W        W76019   9.684  12.744   3.361
 9611W        W76020   9.652  19.284   0.389
 9612W        W76021  27.704   5.348   0.632
 9613W        W76022  42.982   5.263  14.478
 9614W        W76023  10.638   0.997   1.787
 9615W        W76024   7.023  33.750  14.511
 9616W        W76025  15.623  42.818   1.846
 9617W        W76026  20.646   4.986  10.595
 9618W        W76027  12.198   0.896  12.917
 9619W        W76028  41.028  36.435  11.681
 9620W        W76029  10.071  27.185   2.898
 9621W        W76030  18.013  31.356   3.903
 9622W        W76031  16.064  21.686  11.243
 9623W        W76032  14.764   8.564   4.202
 9624W        W76033  39.259  29.597  11.933
 9625W        W76034  41.521  42.823   3.139
 9626W        W76035  29.409  24.988  10.747
 9627W        W76036  39.007  15.092  12.561
 9628W        W76037   9.820  14.486  12.145
 9629W        W76038  19.357  14.110   1.807
 9630W        W76039   6.887   4.203   0.345
 9631W        W76040  11.307   8.213   4.136
 9632W        W76041  18.779  11.812  14.350
 9633W        W76042   2.095  22.267   1.608
 9634W        W76043  36.601  42.249   3.710
 9635W        W76044   5.793  29.029   4.435
 9636W        W76045  15.654  40.613   4.545
 9637W        W76046  20.089  39.871  14.795
 9638W        W76047  37.343   0.553  13.805
 9639W        W76048  11.651  20.960  13.433
 9640W        W76049   1.472   8.804   1.910
 9641W        W76050  43.004   6.452   4.715
 9642W        W76051   7.440   5.637   1.259
 9643W        W76052  17.971   9.855  14.782
 9644W        W76053   6.183   8.788  11.147
 9645W        W76054  39.397  43.520   3.885
 9646W        W76055  16.125  13.472  12.479
 9647W        W76056  24.092   5.763   2.889
 9648W        W76057  11.155  18.069   0.818
 9649W        W76058  25.416  27.469   4.190
 9650W        W76059  27.941  38.615   4.089
 9651W        W76060  20.951  39.660   1.053
 9652W        W76061  12.229  14.957   4.188
 9653W        W76062  13.315  12.729   1.886
 9654W        W76063  23.475   3.229   1.270
 9655W        W76064  23.315  16.689  13.463
 9656W        W76065  14.545  23.498  14.745
 9657W        W76066  25.055   8.359   4.539
 9658W        W76067  10.920  16.526  12.623
 9659W        W76068  28.702  12.293   4.041
 9660W        W76069  43.445  23.540  11.756
 9661W        W76070  28.939  22.604   4.288
 9662W        W76071   8.231  30.929   2.127
 9663W        W76072   9.034  22.048   2.308
 9664W        W76073  28.003  32.612   1.590
 9665W        W76074  13.729  11.368   0.203
 9666W        W76075  11.892  32.590   3.909
 9667W        W76076  17.838   6.664   2.862
 9668W        W76077  22.992   5.674   4.830
 9669W        W76078  42.373  40.726   1.898
 9670W        W76079  13.779   1.949  13.375
 9671W        W76080  37.092  29.830  13.545
 9672W        W76081  40.937   7.487   5.633
 9673W        W76082  42.774  26.966  13.027
 9674W        W76083  38.776  34.044  11.129
 9675W        W76084  30.274  26.129   4.170
 9676W        W76085   8.818   3.399  12.982
 9677W        W76086   3.932  15.968   3.200
 9678W        W76087  44.482  25.476   2.323
 9679W        W76088  31.021  14.369  13.320
 9680W        W76089  15.270  27.051  14.348
 9681W        W76090  22.031   9.365   0.405
 9682W        W76091  42.244   6.622   4.490
 9683W        W76092  17.589   6.514   4.269
 9684W        W76093  17.935  28.519   4.643
 9685W        W76094  33.194  17.646  12.442
 9686W        W76095  24.189  38.073  14.537
 9687W        W76096  27.562   1.442   2.614
 9688W        W76097  37.107  16.527  13.031
 9689W        W76098  29.979   1.741  11.950
 9690W        W76099  22.540  26.727   2.088
 9691W        W76100   6.192  31.107   1.065
 9692W        W76101   7.240  42.642   1.882
 9693W        W76102  43.375  30.580   1.778
 9694W        W76103  19.026  34.951  14.532
 9695W        W76104  41.647  23.481  14.257
 9696W        W76105  24.892  30.934  14.189
 9697W        W76106  27.398  30.035   0.859
 9698W        W76107  25.105  43.408  11.260
 9699W        W76108  22.851   0.799  13.503
 9700W        W76109  41.102  10.231   0.422
 9701W        W76110  12.912  18.246  10.474
 9702W        W76111   7.276  17.659   4.854
 9703W        W76112  19.047   0.896  13.783
 9704W        W76113  44.357  17.960   4.644
 9705W        W76114  13.220  29.235   0.444
 9706W        W76115   1.272  15.972  12.101
 9707W        W76116  43.756  18.885  12.840
 9708W        W76117  11.226  12.690  12.911
 9709W        W76118   9.060  23.142  13.500
 9710W        W76119  28.634   4.692  10.955
 9711W        W76120  13.084  22.977   3.581
 9712W        W76121   6.435   2.714  13.504
 9713W        W76122   2.154  41.902   2.454
 9714W        W76123  20.578  33.978  14.313
 9715W        W76124  36.127   2.807  10.506
 9716W        W76125  16.231  38.653   1.826
 9717W        W76126   3.895  20.287  13.496
 9718W        W76127  18.165  22.466  10.965
 9719W        W76128  43.571  27.388   4.148
 9720W        W76129  19.246  17.515  12.444
 9721W        W76130  15.823  20.133  13.815
 9722W        W76131  12.886  23.296  10.955
 9723W        W76132  29.830  25.682  13.048
 9724W        W76133  33.850  11.655   1.292
 9725W        W76134  25.385  36.442  11.149
 9726W        W76135  26.642  14.537  10.644
 9727W        W76136  41.922   5.592   2.125
 9728W        W76137  44.723  37.919  12.896
 9729W        W76138  31.458  20.079  12.094
 9730W        W76139  16.674   3.338   0.067
 9731W        W76140  39.409  14.155   1.482
 9732W        W76141  20.620   6.622   1.277
 9733W        W76142   8.371   1.997   1.267
 9734W        W76143   5.234  17.250   1.556
 9735W        W76144   9.996  22.262  14.050
 9736W        W76145   1.285  38.836  10.854
 9737W        W76146  22.093  24.490  11.550
 9738W        W76147  25.840  39.275   2.157
 9739W        W76148  30.552  10.192   3.655
 9740W        W76149  41.985  39.007   4.003
 9741W        W76150  14.582  26.512   4.165
 9742W        W76151  28.472   9.022   3.325
 9743W        W76152  43.310  26.517   3.873
 9744W        W76153  40.385  14.369  14.719
 9745W        W76154   7.034  23.591  11.987
 9746W        W76155  14.597  35.788  12.087
 9747W        W76156  15.295  30.757   1.811
 9748W        W76157   1.921  30.205   0.234
 9749W        W76158  40.542  29.837  13.158
 9750W        W76159   2.349   9.435  14.774
 9751W        W76160  15.845  38.084   0.366
 9752W        W76161  22.622  33.118  14.682
 9753W        W76162   2.032   2.569  13.764
 9754W        W76163  37.395  14.610  14.530
 9755W        W76164   7.061   6.941  11.643
 9756W        W76165   7.436  30.527   1.728
 9757W        W76166   4.556  24.955   1.478
 9758W        W76167   6.433   0.623   1.255
 9759W        W76168  14.030   3.873  11.016
 9760W        W76169  44.526  30.076   3.189
 9761W        W76170  20.029  27.997  11.582
 9762W        W76171  10.616  29.228  10.679
 9763W        W76172   9.136   4.726  10.322
 9764W        W76173  37.140  36.999  13.060
 9765W        W76174   8.244   1.737  11.235
 9766W        W76175  25.398  32.825  11.657
 9767W        W76176  30.643  27.504   4.064
 9768W        W76177  20.915  22.955  12.946
 9769W        W76178  34.542   1.713   1.630
 9770W        W76179   6.877   5.697   2.844
 9771W        W76180   4.266  28.926  11.242
 9772W        W76181   2.809  10.396   2.757
 9773W        W76182  35.663  32.690  11.511
 9774W        W76183  40.729  18.181  12.385
 9775W        W76184  43.934  37.851  11.557
 9776W        W76185  10.106   7.261   1.266
 9777W        W76186   4.297  30.609   0.556
 9778W        W76187  12.212  36.638  10.307
 9779W        W76188  14.147  13.189   3.760
 9780W        W76189  36.102  26.323   2.412
 9781W        W76190   6.702  13.741  14.601
 9782W        W76191  14.561  14.815  12.110
 9783W        W76192   0.408  38.528   2.544
 9784W        W76193   1.550  39.983  10.777
 9785W        W76194  10.172  25.786   3.782
 9786W        W76195  37.503  24.043   3.747
 9787W        W76196  28.476   7.934  11.215
 9788W        W76197   7.705   9.792  14.468
 9789W        W76198  15.104  14.697   2.711
 9790W        W76199  41.829  43.624  12.861
 9791W        W76200   4.826   6.836  12.653
 9792W        W76201  39.938  37.138  10.669
 9793W        W76202  12.119  30.332   2.923
 9794W        W76203   9.286  15.161   0.313
 9795W        W76204  43.204   4.832  10.086
 9796W        W76205  21.840  29.558   1.333
 9797W        W76206  28.696  29.271  12.523
 9798W        W76207  11.605   5.774  12.299
 9799W        W76208  33.651  11.620   0.292
 9800W        W76209  22.520  32.065   1.843
 9801W        W76210  41.008  33.416  13.062
 9802W        W76211  41.921   4.674  14.262
 9803W        W76212  10.434  21.600  13.052
 9804W        W76213   9.797  36.090  10.675
 9805W        W76214   9.449  30.916   5.269
 9806W        W76215  28.055  15.485   3.700
 9807W        W76216   2.754  44.750   4.809
 9808W        W76217  16.987  25.159  12.088
 9809W        W76218  38.300  23.070   0.328
 9810W        W76219   5.525  22.745  10.974
 9811W        W76220   0.493  42.501   3.547
 9812W        W76221   7.145  41.069  11.417
 9813W        W76222  27.890   7.845   1.317
 9814W        W76223  40.473  10.152   0.851
 9815W        W76224  10.659  13.556  13.847
 9816W        W76225  38.394  20.089   0.925
 9817W        W76226  42.047  41.440  10.674
 9818W        W76227  29.198   9.779   0.024
 9819W        W76228   9.832  15.408  10.359
 9820W        W76229  36.883  31.673  10.495
 9821W        W76230   6.447   8.265   2.772
 9822W        W76231  18.622  36.156  14.288
 9823W        W76232  21.628  34.753   0.693
 9824W        W76233  14.547  17.077  12.200
 9825W        W76234  13.792  35.132   1.727
 9826W        W76235  22.213  13.458  12.333
 9827W        W76236  16.244  14.539   2.897
 9828W        W76237   5.213   5.888  10.928
 9829W        W76238   4.834   4.915   1.016
 9830W        W76239  13.255   3.871  14.608
 9831W        W76240   5.854  20.722  13.334
 9832W        W76241  33.486   9.884   3.029
 9833W        W76242  12.676  32.152  14.777
 9834W        W76243   4.914  37.828  14.341
 9835W        W76244  24.686  23.878  13.321
 9836W        W76245  43.674   6.806  13.597
 9837W        W76246  42.356  35.458  11.239
 9838W        W76247   8.404  21.325   3.202
 9839W        W76248  34.308  32.074   4.134
 9840W        W76249  15.099  33.115   0.142
 9841W        W76250  27.563  23.461  13.858
 9842W        W76251  33.962   6.239   2.529
 9843W        W76252   7.273  32.318   9.846
 9844W        W76253  13.075  35.050   2.842
 9845W        W76254  41.921   6.895   2.678
 9846W        W76255  24.667  16.465   2.857
 9847W        W76256  14.004  14.413  11.600
 9848W        W76257  19.738  27.417  12.929
 9849W        W76258   1.191  37.504  14.406
 9850W        W76259  30.716  37.276  11.257
 9851W        W76260  16.514  36.879  14.615
 9852W        W76261  37.507   6.269  10.735
 9853W        W76262  35.919  43.543  12.622
 9854W        W76263  28.239  38.804   0.481
 9855W        W76264   1.312  23.741   3.572
 9856W        W76265   1.811  13.337  10.561
 9857W        W76266  34.439  41.131   3.481
 9858W        W76267  38.886  14.809  10.137
 9859W        W76268  15.087   1.458   3.993
 9860W        W76269   4.352  18.326   2.244
 9861W        W76270  34.579  37.996   2.145
 9862W        W76271  32.946  42.287   2.819
 9863W        W76272  25.485  32.010   3.021
 9864W        W76273  13.277  30.153   1.922
 9865W        W76274   7.914   0.989   4.143
 9866W        W76275   9.537  38.709  13.997
 9867W        W76276  39.070  11.338  11.042
 9868W        W76277  39.039  44.231   1.976
 9869W        W76278  36.445  15.199  10.534
 9870W        W76279   5.368  12.035  13.436
 9871W        W76280   4.324   6.683  12.554
 9872W        W76281  36.350   6.316   0.506
 9873W        W76282  26.002  22.945   3.578
 9874W        W76283  10.621  15.296  11.678
 9875W        W76284  27.241   3.990  13.082
 9876W        W76285  11.171  34.389   2.091
 9877W        W76286  30.987   7.444   1.621
 9878W        W76287  19.058  39.328   3.292
 9879W        W76288   2.847  18.492   0.888
 9880W        W76289  13.999  33.632  13.305
 9881W        W76290  38.896  24.538  12.996
 9882W        W76291  26.600  19.799   0.925
 9883W        W76292   1.018  18.970  14.257
 9884W        W76293   4.038  10.817  13.161
 9885W        W76294  31.120  12.196   2.130
 9886W        W76295   5.636   8.524  11.919
 9887W        W76296  33.989  40.262  12.549
 9888W        W76297  19.954  40.436   3.361
 9889W        W76298  24.338  35.378   3.686
 9890W        W76299  16.091  38.525   3.639
 9891W        W76300   3.502  12.170   2.289
 9892W        W76301  29.957  12.300  10.392
 9893W        W76302  36.918  33.483   4.149
 9894W        W76303   6.872   9.899   3.178
 9895W        W76304   1.740  30.076  10.693
 9896W        W76305  24.520   7.597  11.909
 9897W        W76306  30.203  10.777   2.656
 9898W        W76307  31.993  34.556   4.666
 9899W        W76308  44.721  31.401   2.606
 9900W        W76309  31.381  25.733  14.277
 9901W        W76310  43.018   8.608  12.091
 9902W        W76311  27.818  18.337   3.685
 9903W        W76312  32.020  34.892   3.221
 9904W        W76313  37.966  33.703  11.571
 9905W        W76314   6.712  33.127   1.102
 9906W        W76315  31.851  12.636  12.442
 9907W        W76316  43.551   1.452   1.326
 9908W        W76317  14.985  13.211  11.482
 9909W        W76318   6.392  39.758   0.420
 9910W        W76319   7.725  20.202   1.383
 9911W        W76320  22.669  44.253  13.624
 9912W        W76321   3.087   4.275  14.040
 9913W        W76322  31.611   3.382  12.124
 9914W        W76323   2.323   8.202   0.732
 9915W        W76324  28.084  33.977   4.513
 9916W        W76325  28.562  28.097   4.167
 9917W        W76326  29.624  10.415   3.960
 9918W        W76327  24.419  12.774   4.093
 9919W        W76328  37.237  29.366  13.037
 9920W        W76329   6.487  16.091  10.716
 9921W        W76330   5.500  30.999   0.294
 9922W        W76331   0.904  42.711   5.127
 9923W        W76332  44.451  15.308   3.182
 9924W        W76333  26.813  28.657  14.318
 9925W        W76334  21.446  13.338   1.439
 9926W        W76335  32.536   0.058  11.097
 9927W        W76336  41.379  44.085  11.722
 9928W        W76337  14.857  42.053  10.971
 9929W        W76338  26.919  18.750   3.355
 9930W        W76339   4.352  28.661  10.473
 9931W        W76340  39.033   9.624   4.163
 9932W        W76341  21.022  32.086   4.326
 9933W        W76342  37.814   3.805  14.462
 9934W        W76343  37.058  16.989   5.009
 9935W        W76344  15.624   4.829  14.738
 9936W        W76345  32.113  37.362   0.751
 9937W        W76346   0.232  26.966  14.362
 9938W        W76347  40.923   3.967   3.531
 9939W        W76348  11.838  28.054   0.454
 9940W        W76349   0.940   9.125  14.220
 9941W        W76350  42.440  22.031   2.683
 9942W        W76351  28.642  16.356   0.747
 9943W        W76352  43.854  37.944  10.974
 9944W        W76353  40.729  30.975   4.700
 9945W        W76354  16.752  17.538   4.160
 9946W        W76355  27.239  21.073   4.034
 9947W        W76356  17.731  43.241  12.935
 9948W        W76357   2.970   4.872   4.575
 9949W        W76358  21.070   4.462  13.904
 9950W        W76359  42.950  36.494   3.291
 9951W        W76360  21.103   7.772  11.043
 9952W        W76361  16.236  17.166   2.690
 9953W        W76362  28.522   6.144  13.433
 9954W        W76363  10.151   1.923  11.894
 9955W        W76364   2.339  40.393   9.818
 9956W        W76365   0.431   6.347   2.924
 9957W        W76366  38.568  42.070   2.804
 9958W        W76367  22.541  10.264  14.256
 9959W        W76368  14.840  30.561   1.738
 9960W        W76369   8.069  35.319   4.002
 9961W        W76370  26.733  29.995  12.053
 9962W        W76371  15.378  44.094   3.772
 9963W        W76372  42.121  36.547  13.188
 9964W        W76373  17.729  35.167  14.381
 9965W        W76374   1.694  15.438   3.471
 9966W        W76375  30.239   8.150   5.251
 9967W        W76376  19.949   7.854  13.024
 9968W        W76377  11.419  27.430  10.750
 9969W        W76378   2.237  38.430  14.082
 9970W        W76379   8.855  39.792  14.402
 9971W        W76380  38.482  20.940  12.823
 9972W        W76381   6.948  15.889   2.435
 9973W        W76382  37.787  28.667   0.504
 9974W        W76383  27.151  39.520   3.109
 9975W        W76384  32.245  23.862   2.273
 9976W        W76385  33.123  13.640   4.486
 9977W        W76386  17.546   5.606   2.982
 9978W        W76387  23.755  19.958  13.928
 9979W        W76388  35.805  35.490  13.185
 9980W        W76389  24.294  22.595   2.736
 9981W        W76390  17.205   5.725  12.097
 9982W        W76391  15.714  27.511   0.313
 9983W        W76392   7.141  25.134   1.262
 9984W        W76393  19.268   6.217  11.283
 9985W        W76394  14.297  23.724   0.527
 9986W        W76395  16.674  17.841  10.196
 9987W        W76396  11.833  26.427  10.801
 9988W        W76397   8.455  41.982  11.585
 9989W        W76398  44.152  29.107   1.721
 9990W        W76399  44.060  28.421   1.271
 9991W        W76400  42.464  20.790  10.934
 9992W        W76401  42.710   2.679  13.552
 9993W        W76402  14.666  41.498   2.311
 9994W        W76403  18.527   2.485   1.980
 9995W        W76404  40.930  30.375  12.521
 9996W        W76405   3.450  42.526   3.658
 9997W        W76406  38.627   1.328   4.509
 9998W        W76407  11.223  31.812  14.742
 9999W        W76408  19.940  34.662  13.477
10000W        W76409   5.595   0.949   4.386
10001W        W76410  12.217  19.657  10.548
10002W        W76411   7.149  40.420  13.237
10003W        W76412  38.991  33.707   2.253
10004W        W76413  23.603  41.928   1.824
10005W        W76414  32.149   4.170  12.557
10006W        W76415  38.634  26.485   3.669
10007W        W76416  12.371  33.914  12.889
10008W        W76417  28.640  26.266   3.731
10009W        W76418   1.193   6.858   1.702
10010W        W76419  38.042  43.998   0.790
10011W        W76420  29.454  22.246  12.434
10012W        W76421  18.721  21.741   1.849
10013W        W76422  31.844  42.547  11.849
10014W        W76423   4.721  43.639  10.902
10015W        W76424  23.939  10.132  11.779
10016W        W76425  26.514  29.904  14.862
10017W        W76426  13.357  20.721  13.461
10018W        W76427  12.168  15.794   1.483
10019W        W76428  11.934  43.272   4.134
10020W        W76429   9.769  42.917  14.264
10021W        W76430  40.426  43.780  12.468
10022W        W76431  25.968  14.652  12.893
10023W        W76432  11.342  37.883  13.343
10024W        W76433  10.903  32.225  14.020
10025W        W76434   7.189  32.873   2.336
10026W        W76435  28.111  33.659   3.333
10027W        W76436   5.531  28.649   1.791
10028W        W76437  38.415  39.491   4.447
10029W        W76438  11.892  12.201   0.747
10030W        W76439  14.841  17.569  13.509
10031W        W76440  33.468  26.274  10.956
10032W        W76441   6.327   4.315   3.343
10033W        W76442  35.353  38.339  10.495
10034W        W76443  11.264  35.112  10.754
10035W        W76444  25.836  40.821  12.531
10036W        W76445  14.290  23.534   3.966
10037W        W76446   7.882  11.929   1.724
10038W        W76447   2.256  41.051   0.015
10039W        W76448  31.656  28.033   0.742
10040W        W76449  42.594   7.298   1.018
10041W        W76450   2.590  26.585  12.587
10042W        W76451  40.038  26.006   1.004
10043W        W76452  21.043  42.618  12.925
10044W        W76453   8.794  39.328   2.870
10045W        W76454  23.317  11.295  10.616
10046W        W76455   8.308  31.387   3.043
10047W        W76456  20.926  17.974   0.833
10048W        W76457  43.178  23.126   4.994
10049W        W76458  42.507  20.553  14.067
10050W        W76459  35.896  34.090  12.500
10051W        W76460  16.479  36.550   4.188
10052W        W76461  14.676  31.470   4.163
10053W        W76462  11.718  43.023   2.344
10054W        W76463  33.077  28.562  11.888
10055W        W76464   7.231  12.680   1.684
10056W        W76465  27.683   6.637   4.488
10057W        W76466  19.930  11.788  12.015
10058W        W76467  19.321   4.978   2.711
10059W        W76468  14.290  28.377   1.574
10060W        W76469  27.085  31.473   3.136
10061W        W76470  43.383  10.659   0.911
10062W        W76471  23.920  32.129  12.417
10063W        W76472  12.605  18.800  11.513
10064W        W76473  43.027  27.473   2.718
10065W        W76474  21.347  13.209  13.831
10066W        W76475  32.610  20.689   3.644
10067W        W76476  11.188  17.737   2.323
10068W        W76477  24.171   4.629  10.237
10069W        W76478  39.525  20.813   0.675
10070W        W76479  27.562  23.394   4.599
10071W        W76480  17.505  41.830   2.952
10072W        W76481  41.791  10.366  12.859
10073W        W76482  17.701  40.373   4.363
10074W        W76483  44.285   8.314  14.696
10075W        W76484  20.684  34.669  11.980
10076W        W76485   8.240   3.856   0.779
10077W        W76486  29.360  17.411   2.280
10078W        W76487   5.861  30.495   4.562
10079W        W76488  15.540   5.143   1.441
10080W        W76489  26.818  10.008   2.790
10081W        W76490  40.886   0.419  14.270
10082W        W76491  34.404  36.010  10.585
10083W        W76492   4.900  35.648  13.464
10084W        W76493  33.985   1.573   0.842
10085W        W76494  43.953   1.978   0.034
10086W        W76495   1.215   7.772  14.715
10087W        W76496  17.782  39.005  14.950
10088W        W76497  42.356   9.295   2.658
10089W        W76498  12.208  11.176  12.997
10090W        W76499  23.015  25.430   4.109
10091W        W76500  43.246  36.936  10.865
10092W        W76501  36.007  14.734   2.374
10093W        W76502  15.400  13.066  14.352
10094W        W76503  36.382   5.325  10.398
10095W        W76504  29.452  43.252   4.635
10096W        W76505  12.525   1.944  13.238
10097W        W76506  38.082  41.715  11.745
10098W        W76507   9.470   1.213  11.986
10099W        W76508  29.051   4.676  13.561
10100W        W76509  20.758  30.857  14.532
10101W        W76510  44.793  34.319  12.509
10102W        W76511  29.085  37.174  13.706
10103W        W76512  37.901  11.220  12.929
10104W        W76513  40.926  10.945   2.401
10105W        W76514  24.590   9.670   0.949
10106W        W76515  35.644  34.019   3.226
10107W        W76516  24.475  41.938  12.566
10108W        W76517  40.541  32.675  10.446
10109W        W76518  26.909  10.744   4.523
10110W        W76519  30.138   9.284   3.379
10111W        W76520  40.898  25.658   4.961
10112W        W76521  29.857   6.836   4.471
10113W        W76522   4.712  34.128   0.075
10114W        W76523   1.876   2.340   1.173
10115W        W76524  37.538  33.411   5.245
10116W        W76525  14.611  18.681  10.745
10117W        W76526   8.235  17.271   3.294
10118W        W76527  22.946   6.133  13.345
10119W        W76528  44.512   5.048   0.815
10120W        W76529  31.982  43.524   1.678
10121W        W76530  23.761  21.458  10.533
10122W        W76531  34.437  43.151   4.989
10123W        W76532  40.753   7.747  10.813
10124W        W76533  38.599  15.768  11.513
10125W        W76534   5.858  27.196  13.504
10126W        W76535  35.575  30.549   1.869
10127W        W76536  30.060  23.866  11.983
10128W        W76537   7.262  18.802   4.355
10129W        W76538   5.374  17.475  14.096
10130W        W76539  43.234  37.838   0.294
10131W        W76540   0.371   9.613  13.973
10132W        W76541  40.485  39.000  14.566
10133W        W76542  42.566  23.417  10.819
10134W        W76543   5.758  22.532  12.899
10135W        W76544  43.677   6.044   0.908
10136W        W76545  21.155  44.292  10.838
10137W        W76546  17.977  32.832  14.865
10138W        W76547  40.899   4.517   0.527
10139W        W76548  17.312  13.350  14.855
10140W        W76549  14.294  11.096  13.962
10141W        W76550   7.676  32.220   0.447
10142W        W76551  39.579  25.096   1.377
10143W        W76552   0.182  31.797   2.631
10144W        W76553  10.103  23.064  13.597
10145W        W76554  38.083  13.436  14.570
10146W        W76555   9.148  38.453  13.354
10147W        W76556  11.806  38.602   2.788
10148W        W76557   5.531  15.567  13.043
10149W        W76558  41.072  17.022   0.343
10150W        W76559   8.787  42.070  12.019
10151W        W76560  25.574  14.579  12.465
10152W        W76561  10.762  37.928  12.116
10153W        W76562  43.542  37.069  12.436
10154W        W76563  36.451   0.651  12.909
10155W        W76564  14.583  40.449   4.656
10156W        W76565  43.532   2.316   3.646
10157W        W76566   5.178  19.975   3.795
10158W        W76567  42.041  43.854   4.217
10159W        W76568  32.509   1.697   2.626
10160W        W76569  29.712   6.421   0.970
10161W        W76570  33.379  37.961   1.779
10162W        W76571   9.630  23.261   0.803
10163W        W76572  19.711  36.327  11.267
10164W        W76573  24.965   2.031   1.857
10165W        W76574  19.162  13.447   3.048
10166W        W76575  12.952   3.679  13.001
10167W        W76576  33.571   1.958   1.935
10168W        W76577  43.795  15.316   0.801
10169W        W76578  28.996  10.658  13.548
10170W        W76579   0.078  30.142  12.051
10171W        W76580  33.440   3.681   1.294
10172W        W76581  37.891  33.894  14.339
10173W        W76582  37.332  20.722  11.052
10174W        W76583   5.759  30.635   0.560
10175W        W76584   2.839   6.335   4.910
10176W        W76585  14.336   5.884  11.527
10177W        W76586  28.669  43.260   0.355
10178W        W76587  42.341   8.431   5.290
10179W        W76588  18.635  15.319   1.884
10180W        W76589  38.572  39.934   3.252
10181W        W76590  42.784  17.346   0.347
10182W        W76591  25.583  25.755  14.700
10183W        W76592  32.047  12.214  11.236
10184W        W76593  10.686   8.271  10.612
10185W        W76594  24.048  13.920  11.455
10186W        W76595  14.628  21.309  14.487
10187W        W76596  21.680  33.047   0.174
10188W        W76597  41.014  20.356   2.533
10189W        W76598  31.374   2.480  14.784
10190W        W76599  11.675  38.945  14.317
10191W        W76600  25.492  20.306   3.503
10192W        W76601  15.752  33.006  13.351
10193W        W76602  16.774  43.828  12.109
10194W        W76603  44.843  30.892  13.801
10195W        W76604  12.741  20.285   0.058
10196W        W76605  27.023  31.448  12.102
10197W        W76606  32.451  10.669   0.686
10198W        W76607  24.936  16.914   4.172
10199W        W76608  28.153  39.471   1.306
10200W        W76609  25.924   1.424  13.954
10201W        W76610   4.044  36.685  11.001
10202W        W76611  37.967   2.383   3.230
10203W        W76612  15.696  25.088  10.293
10204W        W76613  38.471  33.097  13.362
10205W        W76614  20.181  21.336   1.714
10206W        W76615  18.650  39.609   1.024
10207W        W76616  32.174  26.229  10.576
10208W        W76617   4.781  43.022  11.545
10209W        W76618   6.661  41.312  14.823
10210W        W76619  34.669  23.371   2.353
10211W        W76620  37.023  39.065  13.994
10212W        W76621  20.606   2.477  11.571
10213W        W76622  41.935  32.106   2.720
10214W        W76623  33.622   7.808   5.166
10215W        W76624  26.007  34.308   4.324
10216W        W76625   2.379  11.754   1.503
10217W        W76626  26.607  43.090  14.975
10218W        W76627  43.550  15.215   3.036
10219W        W76628   4.693  10.762  14.887
10220W        W76629  40.833  36.921   2.842
10221W        W76630  11.254  43.460   2.769
10222W        W76631  13.075  39.970  11.406
10223W        W76632  21.116  27.633   2.739
10224W        W76633  14.592  39.677   1.606
10225W        W76634  22.278   1.928   2.267
10226W        W76635  11.169  18.617   2.156
10227W        W76636  12.673  20.235   3.645
10228W        W76637  37.640  19.689   1.529
10229W        W76638  37.705  41.262  13.560
10230W        W76639  30.770  26.015  13.342
10231W        W76640  37.028  41.414  10.504
10232W        W76641  14.782   5.477  11.620
10233W        W76642  15.585  26.291   3.889
10234W        W76643   3.704  21.706  12.316
10235W        W76644  25.088  15.034   0.963
10236W        W76645   6.087  37.176  13.739
10237W        W76646  32.895  39.608  12.523
10238W        W76647   7.409  16.922   1.223
10239W        W76648  42.392  27.925  11.899
10240W        W76649  16.197  25.006   1.550
10241W        W76650  40.312  40.413   3.270
10242W        W76651  41.485  10.202   2.319
10243W        W76652  35.122  13.863  10.666
10244W        W76653  21.004   1.394   9.944
10245W        W76654  18.825   8.147  14.551
10246W        W76655   8.762  10.337   0.031
10247W        W76656  18.748  20.204  12.067
10248W        W76657  20.023  37.912  12.924
10249W        W76658  26.554   3.451  12.201
10250W        W76659   1.883  32.334   4.096
10251W        W76660  23.510  29.431  13.723
10252W        W76661  20.578  33.653   2.976
10253W        W76662   1.912  30.368   3.842
10254W        W76663   7.799  20.694  12.417
10255W        W76664  28.680  39.339  12.166
10256W        W76665  23.223   3.251  11.487
10257W        W76666  34.011  31.712  10.732
10258W        W76667  24.183   6.886  13.936
10259W        W76668  25.177  41.831  11.411
10260W        W76669   6.924  35.531   3.760
10261W        W76670  15.101   6.371   1.726
10262W        W76671   6.854  19.099  13.442
10263W        W76672   7.264  20.756  10.649
10264W        W76673  28.075  20.069  11.125
10265W        W76674   4.794   6.333   1.863
10266W        W76675  42.890  17.020  11.843
10267W        W76676  25.544  19.974  13.807
10268W        W76677  18.709  20.667   3.893
10269W        W76678  23.995  10.289   1.691
10270W        W76679  14.636  36.512  13.315
10271W        W76680  32.782  17.647  13.780
10272W        W76681  41.590  37.857   3.609
10273W        W76682  38.450  12.830   3.004
10274W        W76683  12.077  26.703   0.164
10275W        W76684   6.724   4.254   4.221
10276W        W76685  26.929  39.818   4.083
10277W        W76686  25.856  10.274   1.955
10278W        W76687  40.455  24.461  14.412
10279W        W76688  10.377  40.939   0.349
10280W        W76689  37.166   1.060  11.992
10281W        W76690  19.494  22.801  13.031
10282W        W76691  26.737  11.190   0.909
10283W        W76692   1.761  39.827  11.221
10284W        W76693   2.735  31.202  13.572
10285W        W76694  35.066  15.822  12.556
10286W        W76695   5.592  44.447  14.947
10287W        W76696   0.788   2.151  13.926
10288W        W76697  36.985  38.750  14.436
10289W        W76698  27.108  41.560  13.889
10290W        W76699  29.024  24.679  14.512
10291W        W76700  41.720   4.645   2.468
10292W        W76701   4.529  43.939  14.122
10293W        W76702  43.482  23.131  11.459
10294W        W76703  26.411  10.145  13.849
10295W        W76704   7.728  17.371   3.145
10296W        W76705   2.947  13.659   4.287
10297W        W76706  41.802  20.214   1.841
10298W        W76707  19.030  24.119   0.076
10299W        W76708  26.694  21.023  14.130
10300W        W76709  37.032  19.179  13.521
10301W        W76710  39.491  17.607   1.346
10302W        W76711  13.145   8.736  11.948
10303W        W76712   4.188  20.223  13.025
10304W        W76713  11.584  24.708   3.389
10305W        W76714  26.087   6.182   1.423
10306W        W76715  19.066  26.998  12.939
10307W        W76716   9.970  44.384  13.676
10308W        W76717   9.239  38.866   3.269
10309W        W76718  37.821  12.164  14.019
10310W        W76719   3.794  20.711   0.851
10311W        W76720  38.368  19.327   1.937
10312W        W76721  13.461   8.013   3.657
10313W        W76722   6.907  42.342  11.929
10314W        W76723   2.440  36.192  10.517
10315W        W76724  24.034  34.480  10.320
10316W        W76725   8.918  26.449   2.799
10317W        W76726  12.573  23.176  11.995
10318W        W76727  34.563  29.425   2.278
10319W        W76728  40.344  42.848  10.636
10320W        W76729  42.839  22.982  14.079
10321W        W76730  36.815  27.953   1.235
10322W        W76731  32.858  27.882  14.397
10323W        W76732  36.821  16.969   3.739
10324W        W76733  19.564  35.454   3.325
10325W        W76734   4.349  21.999   4.060
10326W        W76735  34.662   5.248  11.480
10327W        W76736  10.585  18.759   4.485
10328W        W76737  41.934  43.798  11.045
10329W        W76738  42.573  15.370   4.368
10330W        W76739  30.688  29.981   2.607
10331W        W76740  12.867  13.781   3.825
10332W        W76741   9.296  14.863   0.752
10333W        W76742  39.434  37.746   1.790
10334W        W76743  37.743   9.838   2.305
10335W        W76744  10.610  26.149  12.304
10336W        W76745  36.425  40.797   1.335
10337W        W76746  33.964  15.719   2.369
10338W        W76747  14.953   9.922   2.403
10339W        W76748  23.195  16.010  12.469
10340W        W76749   4.470  20.171   4.987
10341W        W76750  40.050   0.989   0.408
10342W        W76751   3.606  44.332  11.174
10343W        W76752   4.039   9.817  13.967
10344W        W76753  43.939  28.020   1.675
10345W        W76754  17.550  26.157   3.679
10346W        W76755  12.171  20.076   3.594
10347W        W76756  26.977  37.546   2.263
10348W        W76757  28.114  37.415  14.480
10349W        W76758  37.816  26.165   2.435
10350W        W76759   9.635  34.936  14.850
10351W        W76760   5.050   5.754   1.159
10352W        W76761  29.031  26.494  12.596
10353W        W76762  11.760  41.576   3.357
10354W        W76763  22.610  32.275  14.085
10355W        W76764   9.300  34.948   3.628
10356W        W76765  23.523  23.737  14.585
10357W        W76766  23.636  39.541   0.519
10358W        W76767   4.630  12.137  12.870
10359W        W76768   3.585   3.170  11.100
10360W        W76769  22.111  42.721   0.434
10361W        W76770  29.844   8.842   0.595
10362W        W76771  16.868   1.843  11.675
10363W        W76772  35.561   1.872  12.384
10364W        W76773  24.486  33.616   1.534
10365W        W76774  30.575   8.150  10.495
10366W        W76775   4.867  34.512  14.286
10367W        W76776  30.032  10.151  13.927
10368W        W76777  25.659  28.710  11.980
10369W        W76778  22.040   0.923  13.165
10370W        W76779   6.939  35.430  13.959
10371W        W76780  15.349  34.474  14.019
10372W        W76781  19.782  36.003  10.613
10373W        W76782  41.920  15.654  14.759
10374W        W76783  15.531  27.770  11.904
10375W        W76784  41.852   7.787   0.783
10376W        W76785  27.883  13.603  14.468
10377W        W76786  39.153  43.322  13.738
10378W        W76787   5.219  33.305  13.048
10379W        W76788  39.074  40.811   0.406
10380W        W76789  40.703  18.223  10.462
10381W        W76790  12.777  41.726  14.759
10382W        W76791  44.518  16.519   1.212
10383W        W76792  18.671   5.445   0.228
10384W        W76793   3.400   6.669   2.250
10385W        W76794   8.754  43.064  13.565
10386W        W76795  16.522   4.536  12.751
10387W        W76796  30.277  39.439   1.401
10388W        W76797   4.979  42.862   1.614
10389W        W76798  21.131   2.991   2.864
10390W        W76799  10.739   3.706   4.486
10391W        W76800  17.167  31.476   3.627
10392W        W76801  13.414  33.047   2.435
10393W        W76802  34.323  27.024  12.587
10394W        W76803  29.951  20.475  14.111
10395W        W76804  27.052  42.785   1.747
10396W        W76805  27.469  42.086  12.572
10397W        W76806   9.279  16.838   4.232
10398W        W76807  38.019   2.400  14.705
10399W        W76808  31.331   9.909   4.239
10400W        W76809   5.723  38.819   1.792
10401W        W76810  30.529  20.798  10.633
10402W        W76811  36.377  16.345  13.743
10403W        W76812  41.417   0.310   3.419
10404W        W76813  12.139  16.365   3.282
10405W        W76814  11.003  15.112   2.396
10406W        W76815  13.880  38.838   0.693
10407W        W76816  27.507  32.147   4.601
10408W        W76817  30.122  32.407   5.201
10409W        W76818   2.977  21.177  11.557
10410W        W76819  16.844  27.119  11.122
10411W        W76820  30.094  17.874  14.826
10412W        W76821  44.432  33.302  11.916
10413W        W76822  11.144   3.787  12.484
10414W        W76823  25.057   6.846  12.142
10415W        W76824  14.820  24.739  12.319
10416W        W76825  15.572   2.874  12.088
10417W        W76826  10.387  14.312   3.253
10418W        W76827  35.435   7.003   2.491
10419W        W76828  28.364  27.761  11.547
10420W        W76829  14.677  32.450   4.797
10421W        W76830  19.200  16.049   3.782
10422W        W76831  40.394  23.006   1.211
10423W        W76832   7.874  10.393   2.813
10424W        W76833  30.579  17.402  14.248
10425W        W76834   0.232  31.672   0.283
10426W        W76835  30.365  27.282  11.114
10427W        W76836  27.180  38.969   2.941
10428W        W76837  28.687  25.979  13.011
10429W        W76838  21.452  17.863  13.354
10430W        W76839  23.713  24.269  10.523
10431W        W76840  14.585  37.127   0.066
10432W        W76841  35.022   8.677   4.990
10433W        W76842  32.981   7.370  11.781
10434W        W76843  15.392   7.179  10.614
10435W        W76844  20.431   1.464   0.722
10436W        W76845  43.754  17.882   3.557
10437W        W76846  27.026  26.167   1.317
10438W        W76847  27.618   8.046   3.563
10439W        W76848  33.213  43.424   2.285
10440W        W76849  30.106  32.632  13.327
10441W        W76850  24.987  13.699   2.965
10442W        W76851  11.614   5.017   1.141
10443W        W76852  18.149  41.486  13.273
10444W        W76853   9.285  42.484  11.227
10445W        W76854  10.792  28.022   0.447
10446W        W76855  18.263   6.313  11.665
10447W        W76856  16.846  22.051   3.845
10448W        W76857  29.192  21.806   0.755
10449W        W76858   7.206  34.607  12.147
10450W        W76859  26.030  28.137  14.037
10451W        W76860  23.701  12.698   4.558
10452W        W76861   8.688   7.182   3.250
10453W        W76862  38.178  22.965   3.824
10454W        W76863  28.080  10.781   1.442
10455W        W76864   4.336   6.203  13.470
10456W        W76865  11.553  37.822   3.215
10457W        W76866  28.421  12.639  10.558
10458W        W76867  13.616   9.647   1.226
10459W        W76868  37.074  18.583  10.437
10460W        W76869  12.127  24.184  12.608
10461W        W76870  10.776  20.077  14.429
10462W        W76871   2.243  35.092   0.683
10463W        W76872   0.423  17.699  14.468
10464W        W76873  18.627  23.521   0.284
10465W        W76874  18.551  14.444  10.810
10466W        W76875  10.269  44.962  12.019
10467W        W76876  10.562   1.888   3.184
10468W        W76877   9.846  37.468  10.879
10469W        W76878   7.201  14.850   0.824
10470W        W76879  42.364  19.578   2.302
10471W        W76880  35.943  10.741   3.163
10472W        W76881  44.349   6.609   0.423
10473W        W76882   1.452   8.270   0.894
10474W        W76883   8.942   8.282   2.327
10475W        W76884  30.623   2.132  12.543
10476W        W76885  36.326  25.367  10.083
10477W        W76886  23.535   9.075   1.880
10478W        W76887  23.601   6.332   4.638
10479W        W76888  42.095  14.492   4.073
10480W        W76889   9.691   8.029   2.860
10481W        W76890  21.598  10.950  12.922
10482W        W76891  17.777  33.201   2.691
10483W        W76892   1.554  24.622   4.309
10484W        W76893  33.323  23.225   2.693
10485W        W76894  37.794  43.398  14.969
10486W        W76895   2.921  43.346   4.551
10487W        W76896  44.924  21.285   2.415
10488W        W76897  23.200  36.966   1.372
10489W        W76898  41.837   1.469   4.636
10490W        W76899  42.825  42.191   0.776
10491W        W76900   6.299  27.035   3.161
10492W        W76901  40.112   8.922   0.981
10493W        W76902  19.214  28.929   4.978
10494W        W76903  19.777  36.831   2.680
10495W        W76904  43.301  32.575   3.296
10496W        W76905  37.887  42.909  12.513
10497W        W76906  37.366  14.074   0.310
10498W        W76907  35.222  16.681   2.948
10499W        W76908  32.233   6.373  10.269
10500W        W76909   4.240  25.721   2.777
10501W        W76910  18.474  15.647   1.512
10502W        W76911  39.514  37.898   2.283
10503W        W76912   8.770   1.128   1.134
10504W        W76913  20.137   6.659   1.889
10505W        W76914  29.624  19.904   2.248
10506W        W76915   6.549   9.899   4.980
10507W        W76916  21.022  29.538   1.708
10508W        W76917   2.067  41.854  11.636
10509W        W76918  11.737  30.214  14.796
10510W        W76919  38.941  38.556  12.890
10511W        W76920  34.691  43.528   1.148
10512W        W76921  19.871  24.078   3.206
10513W        W76922  29.986   0.502   1.239
10514W        W76923  35.779   1.038  13.347
10515W        W76924  10.676  14.747  11.109
10516W        W76925  19.555  27.401  14.950
10517W        W76926  40.473  14.366   4.550
10518W        W76927  19.548  43.411  14.881
10519W        W76928  24.596  36.969   0.967
10520W        W76929  10.581  35.982   1.425
10521W        W76930  35.582  37.518  14.824
10522W        W76931   7.839  29.044  11.063
10523W        W76932   7.218  38.401   4.599
10524W        W76933   7.187  12.414   0.319
10525W        W76934  28.858  12.955   2.231
10526W        W76935   9.420  25.225  13.437
10527W        W76936  33.444  12.911   4.977
10528W        W76937   3.766  17.591   4.086
10529W        W76938  25.718  40.807   0.733
10530W        W76939   6.264   6.754   4.239
10531W        W76940  16.380  40.819   0.252
10532W        W76941  17.242  27.466   3.788
10533W        W76942   6.727   7.202  14.231
10534W        W76943   0.506  26.217  13.474
10535W        W76944  30.088  36.336  11.012
10536W        W76945  34.637  18.292   0.537
10537W        W76946  23.642  28.434  10.751
10538W        W76947  16.008  39.633  13.042
10539W        W76948   6.693  43.200   0.363
10540W        W76949  10.294  10.545  13.651
10541W        W76950   2.731  24.517  11.109
10542W        W76951   4.855  18.527   3.484
10543W        W76952  16.303  38.091  12.583
10544W        W76953  23.443  13.088   4.115
10545W        W76954  27.709  12.377   4.226
10546W        W76955   1.682  39.974  13.112
10547W        W76956  11.701  39.367  14.700
10548W        W76957  30.024  27.920   0.591
10549W        W76958  38.401  38.353   1.638
10550W        W76959  39.476  26.107  13.872
10551W        W76960   2.067  31.368   3.831
10552W        W76961  32.969  21.235  11.548
10553W        W76962  24.758  28.044   3.764
10554W        W76963  21.812  12.229   4.177
10555W        W76964   7.089  43.010   1.190
10556W        W76965   0.525  23.215  14.381
10557W        W76966  29.504  22.046  12.962
10558W        W76967   1.969  39.807   3.247
10559W        W76968  25.993  16.513  13.339
10560W        W76969   5.787   3.425  13.945
10561W        W76970  25.126   3.418  11.359
10562W        W76971   5.812  32.556  10.753
10563W        W76972  23.070  14.923   4.441
10564W        W76973   4.775  39.503   4.121
10565W        W76974  33.557  44.389   4.118
10566W        W76975  17.796  36.630  12.506
10567W        W76976   1.301  13.213   3.203
10568W        W76977   7.593   8.445   3.164
10569W        W76978  43.398  12.621  11.391
10570W        W76979  19.001   2.747   4.150
10571W        W76980  30.476  14.279   4.028
10572W        W76981  37.498  20.521   3.999
10573W        W76982  34.075   8.972   4.038
10574W        W76983  22.819  19.090  11.928
10575W        W76984  20.020   8.341   0.323
10576W        W76985   2.365   2.393  12.557
10577W        W76986  28.437  36.867  13.431
10578W        W76987  30.160  10.654  14.321
10579W        W76988  28.479   0.513   3.994
10580W        W76989  43.447  20.050  10.702
10581W        W76990  15.236  26.536  13.012
10582W        W76991  38.003  36.285   4.597
10583W        W76992  38.081  31.559   0.403
10584W        W76993   2.286   9.052  10.295
10585W        W76994  26.170  23.715  13.771
10586W        W76995  11.646  29.604  14.447
10587W        W76996  30.795  37.052   4.615
10588W        W76997   9.877  10.628  11.558
10589W        W76998  23.878  21.567   0.369
10590W        W76999   4.323  10.213   0.800
10591W        W77000  16.202  40.473  10.291
10592W        W77001  16.824  27.408  10.696
10593W        W77002  10.405  33.486   2.745
10594W        W77003  21.505  21.656   3.092
10595W        W77004   6.249  24.103  11.986
10596W        W77005  20.259  34.128   0.404
10597W        W77006   6.462  31.225   0.231
10598W        W77007  10.444  32.805   3.289
10599W        W77008  29.524   3.293  13.607
10600W        W77009   5.630   7.723  10.731
10601W        W77010  36.398  21.789   3.662
10602W        W77011  43.839  31.945   2.785
10603W        W77012  12.830  43.842  11.713
10604W        W77013  44.514  19.435   5.081
10605W        W77014   6.431   2.928   0.451
10606W        W77015  25.463  17.931   3.479
10607W        W77016  17.273  16.253  11.149
10608W        W77017  18.855  14.725   4.181
10609W        W77018  18.288   3.323  12.367
10610W        W77019  25.525  17.954   2.949
10611W        W77020  19.478   1.205  13.886
10612W        W77021  41.101   8.801   2.794
10613W        W77022   5.791   6.857  13.459
10614W        W77023  21.951  37.042   0.891
10615W        W77024  30.800  25.617  10.745
10616W        W77025  40.473  33.111   1.897
10617W        W77026  18.762  21.429  12.708
10618W        W77027  15.766  40.930   4.966
10619W        W77028  10.911  38.613   2.545
10620W        W77029  40.991  19.656   0.733
10621W        W77030  18.710  41.786   1.492
10622W        W77031   5.397  35.101   0.161
10623W        W77032  19.470   1.468  13.003
10624W        W77033  23.689   9.094  14.009
10625W        W77034   3.166  14.115  14.848
10626W        W77035  34.375   6.217   0.059
10627W        W77036  14.258  35.754  11.631
10628W        W77037  22.576  30.755  14.536
10629W        W77038  21.576  13.679   4.147
10630W        W77039  11.199  18.661   1.637
10631W        W77040  43.509  42.184   1.351
10632W        W77041  35.415  35.917   0.791
10633W        W77042  15.093  34.474  13.561
10634W        W77043   4.419  44.910  13.537
10635W        W77044  41.593  22.682  11.027
10636W        W77045   9.272  42.568   2.315
10637W        W77046  32.351   1.272  12.929
10638W        W77047  40.536   2.307  12.543
10639W        W77048  24.272  16.290   4.988
10640W        W77049  40.404   5.982  14.047
10641W        W77050   4.886  23.488  14.413
10642W        W77051  35.599  36.342  11.132
10643W        W77052  10.859   8.274  13.836
10644W        W77053   0.253   0.121  11.150
10645W        W77054  19.738   8.564  13.792
10646W        W77055  38.852  16.077   0.725
10647W        W77056  28.138  43.695   1.309
10648W        W77057  12.732  14.175  11.691
10649W        W77058  27.694   9.046   3.621
10650W        W77059  21.892  16.719  13.951
10651W        W77060  24.176  35.075  13.093
10652W        W77061  37.973   7.379  13.357
10653W        W77062   0.951  18.567   3.554
10654W        W77063  29.562  30.554  12.958
10655W        W77064   5.254  23.522   0.843
10656W        W77065  14.770  18.229  11.504
10657W        W77066  37.781  36.534  12.143
10658W        W77067  39.771  27.031  10.758
10659W        W77068  32.626  33.294   1.891
10660W        W77069  31.476   2.505   1.655
10661W        W77070  29.458  39.445   2.708
10662W        W77071  24.317   2.361   1.811
10663W        W77072   0.768  29.885   4.756
10664W        W77073  12.232  11.904  13.541
10665W        W77074  27.074  23.823   2.262
10666W        W77075  15.291  15.725  11.277
10667W        W77076   0.367  28.279   4.183
10668W        W77077  10.808  26.009   4.160
10669W        W77078  22.965   4.003   2.394
10670W        W77079   6.246  41.948  10.581
10671W        W77080   1.510   4.005  10.821
10672W        W77081  22.351  29.623   1.298
10673W        W77082  16.652  19.209  12.433
10674W        W77083  34.162  33.677  11.921
10675W        W77084   4.896  38.618  11.164
10676W        W77085  42.545  31.240  12.598
10677W        W77086   4.689   4.371  13.410
10678W        W77087  34.110  29.283  13.790
10679W        W77088   9.764  12.849  14.347
10680W        W77089  28.206   3.922   4.490
10681W        W77090  39.191  33.056  11.527
10682W        W77091   2.924  30.061  11.237
10683W        W77092   6.648  31.583   1.880
10684W        W77093  34.619  12.758  11.954
10685W        W77094  27.726  38.126   1.392
10686W        W77095  29.241  39.921   2.701
10687W        W77096  20.501  24.593  11.582
10688W        W77097  38.584  10.166  12.308
10689W        W77098  20.684  26.654   0.616
10690W        W77099  28.864  31.223   2.210
10691W        W77100  39.500   4.390  13.965
10692W        W77101  19.640  11.903  12.497
10693W        W77102  14.278  32.536   3.381
10694W        W77103  10.167  26.330  12.093
10695W        W77104   1.300  36.906  14.937
10696W        W77105  20.156  35.007   4.789
10697W        W77106  43.034   7.219  13.616
10698W        W77107  18.999  34.304   1.299
10699W        W77108   1.877  14.554   3.562
10700W        W77109  10.632  26.757   0.266
10701W        W77110  43.760   3.787  13.182
10702W        W77111   7.866   3.278  13.859
10703W        W77112  42.459  15.639  10.699
10704W        W77113  17.811  19.640   1.888
10705W        W77114  11.680  34.096   1.260
10706W        W77115  16.648  22.199  11.039
10707W        W77116   8.798  22.600   0.084
10708W        W77117  27.211  20.982  14.093
10709W        W77118  41.946  16.835  14.498
10710W        W77119  11.485  21.587   1.441
10711W        W77120   9.159   2.696  14.198
10712W        W77121  44.407   8.977  11.438
10713W        W77122   4.237  27.620  12.958
10714W        W77123  10.091  35.047   0.416
10715W        W77124  24.445  27.063   0.292
10716W        W77125  42.348  23.733   4.171
10717W        W77126  16.190  22.878   4.267
10718W        W77127   7.462  31.905   0.005
10719W        W77128  36.371  24.671  10.697
10720W        W77129  11.770  10.623   1.421
10721W        W77130  23.140   6.129  11.920
10722W        W77131  36.509  27.087  11.892
10723W        W77132  28.863  19.049  14.126
10724W        W77133  28.927  13.158  13.115
10725W        W77134  35.127   7.665   4.221
10726W        W77135  16.719  23.106  13.060
10727W        W77136  35.508  36.911  13.532
10728W        W77137   7.719  11.292   4.633
10729W        W77138  24.659  41.948   1.111
10730W        W77139  31.623  30.154   2.832
10731W        W77140   2.744  15.646   4.090
10732W        W77141  25.103  44.402   1.844
10733W        W77142  29.188   1.433  11.607
10734W        W77143  32.563   4.800  12.907
10735W        W77144   6.638  41.187   1.724
10736W        W77145  18.788   2.873  12.066
10737W        W77146  22.143   3.394  13.050
10738W        W77147  30.183  34.843  13.461
10739W        W77148  39.242  19.690  10.356
10740W        W77149  29.572   6.451   4.643
10741W        W77150  44.566  35.964  12.881
10742W        W77151  44.019   7.519  11.938
10743W        W77152  38.609  26.543   2.385
10744W        W77153  13.756  33.238  14.058
10745W        W77154  35.418  21.563   1.376
10746W        W77155  16.743  24.557  13.921
10747W        W77156  10.573   6.407   1.798
10748W        W77157  10.628  10.046   0.802
10749W        W77158  21.203  10.078  13.814
10750W        W77159  26.433  12.304   4.289
10751W        W77160   0.350   2.500   1.731
10752W        W77161  18.618  32.971   4.253
10753W        W77162  26.960   7.787   3.104
10754W        W77163  17.536   4.399  12.961
10755W        W77164   2.197  18.609  12.069
10756W        W77165  10.227   4.658  13.746
10757W        W77166  25.711  25.073   4.714
10758W        W77167   0.489  39.785   0.701
10759W        W77168  13.764  29.394   3.702
10760W        W77169  21.192   1.331  14.083
10761W        W77170  23.718  41.316   3.731
10762W        W77171  11.585   7.700   2.452
10763W        W77172  21.712  33.312   1.873
10764W        W77173  22.625  41.008  13.312
10765W        W77174   4.391   2.726  13.865
10766W        W77175  25.823  41.284  13.841
10767W        W77176   1.141  30.597   1.485
10768W        W77177  13.206  19.297  14.575
10769W        W77178   6.342  17.325   2.876
10770W        W77179  36.594  19.722   0.206
10771W        W77180  30.036  27.399  10.714
10772W        W77181  18.291   3.180   3.378
10773W        W77182  37.578  36.996   0.355
10774W        W77183   9.044  17.156  11.611
10775W        W77184   1.328  13.641   4.395
10776W        W77185  19.654  32.527  13.966
10777W        W77186   0.181  32.045   3.718
10778W        W77187  17.523  44.762  10.753
10779W        W77188   5.587  10.711  11.592
10780W        W77189  37.020  27.114   0.240
10781W        W77190  21.426  16.044  11.949
10782W        W77191  41.964  33.581   0.272
10783W        W77192   4.815   5.672   3.677
10784W        W77193  37.337  28.390   0.454
10785W        W77194   2.082   1.285   4.379
10786W        W77195  32.420  30.036   4.344
10787W        W77196   3.605  16.934  13.869
10788W        W77197  23.326  36.333   0.791
10789W        W77198  14.108  19.302  13.077
10790W        W77199  38.410  11.810   1.658
10791W        W77200  26.898  40.763   2.810
10792W        W77201  36.369  44.608  14.775
10793W        W77202   7.354  15.224   4.343
10794W        W77203   6.732  42.445   1.834
10795W        W77204  37.827  41.525  14.040
10796W        W77205  28.146   7.920  11.844
10797W        W77206  27.490   9.759  13.346
10798W        W77207   0.853  41.235  11.950
10799W        W77208  12.582  17.725   4.487
10800W        W77209  20.918  22.638   1.062
10801W        W77210   1.543   4.417  11.147
10802W        W77211  17.746  32.778  12.860
10803W        W77212  39.401   5.501   3.197
10804W        W77213  25.444  38.281  12.078
10805W        W77214  15.916  24.157   4.545
10806W        W77215   9.372   0.482  10.198
10807W        W77216   3.212  22.210  10.837
10808W        W77217  39.354   7.093   1.930
10809W        W77218  28.206   6.759   3.061
10810W        W77219  36.548   8.788   1.003
10811W        W77220   2.884  21.176   3.658
10812W        W77221   0.953  38.549  12.740
10813W        W77222  31.161  10.138  13.826
10814W        W77223   7.119  23.150  14.390
10815W        W77224  22.445  44.329   5.006
10816W        W77225  38.369  24.190   1.483
10817W        W77226   8.842  40.407  11.492
10818W        W77227  34.819  15.272  14.936
10819W        W77228  14.890  14.166   2.496
10820W        W77229  41.349  23.847   1.273
10821W        W77230  16.641   7.845   3.253
10822W        W77231  14.655  34.660  11.273
10823W        W77232  36.373   6.444   3.152
10824W        W77233  29.240  29.111   0.283
10825W        W77234  11.184  28.211  13.423
10826W        W77235  35.889  44.446  14.695
10827W        W77236  28.985   0.424   0.956
10828W        W77237   3.959  41.300   2.767
10829W        W77238  38.637  43.877  12.015
10830W        W77239  21.179  38.431  11.483
10831W        W77240  23.097  24.127   4.374
10832W        W77241  20.581   0.799  14.824
10833W        W77242   2.881  25.736   1.791
10834W        W77243  22.740  34.033  14.182
10835W        W77244   1.302  33.881   4.806
10836W        W77245  14.074  27.654  14.419
10837W        W77246  29.986   0.942  14.325
10838W        W77247  33.627  33.059   1.424
10839W        W77248  42.201  38.502  14.716
10840W        W77249  34.560  37.470   1.933
10841W        W77250  26.651  16.723  14.771
10842W        W77251  18.156  41.032  12.496
10843W        W77252  24.958  20.489  12.325
10844W        W77253  37.742  10.202  10.795
10845W        W77254   8.688  35.581   3.250
10846W        W77255  30.534  21.369  10.283
10847W        W77256  24.083  39.220   4.128
10848W        W77257   2.580  22.740  13.254
10849W        W77258  40.446  23.325  12.005
10850W        W77259  10.139  19.179   2.320
10851W        W77260  36.565  10.404  13.411
10852W        W77261  23.137  26.476   3.312
10853W        W77262  11.312  34.487  12.556
10854W        W77263  12.844  44.338  11.967
10855W        W77264  27.038  16.574  12.185
10856W        W77265  44.373  44.023  11.199
10857W        W77266  23.509  21.019  10.661
10858W        W77267  27.194   8.818  12.590
10859W        W77268  13.155  37.059  14.377
10860W        W77269  19.506   0.922  11.163
10861W        W77270  42.632  16.271   3.162
10862W        W77271  37.551   2.934  10.570
10863W        W77272  24.050   1.851  14.176
10864W        W77273  35.926  19.327  11.894
10865W        W77274  36.584  19.078  11.512
10866W        W77275  22.736  35.820   0.346
10867W        W77276  13.335  24.280  11.956
10868W        W77277  18.795  39.417   3.740
10869W        W77278  43.503   1.107  13.493
10870W        W77279  20.144  17.627  14.395
10871W        W77280  42.936  15.266  12.647
10872W        W77281   8.707  27.476  13.998
10873W        W77282  19.696   5.338   3.210
10874W        W77283  14.327  16.494  14.074
10875W        W77284  29.149  10.208   1.718
10876W        W77285  32.257   4.412  11.221
10877W        W77286  15.269  14.647   2.213
10878W        W77287  35.833  38.477   2.247
10879W        W77288  37.399  18.300   5.377
10880W        W77289   2.203  26.384  11.121
10881W        W77290  20.007  24.884   2.680
10882W        W77291  31.281  23.672  12.519
10883W        W77292  30.998  19.061  12.259
10884W        W77293  41.068  32.510  12.676
10885W        W77294  36.431  24.957  11.130
10886W        W77295  11.627  37.085  12.715
10887W        W77296  27.403   7.581  10.750
10888W        W77297  37.397   8.962  13.793
10889W        W77298  28.920  29.671   3.727
10890W        W77299  21.149  18.452  14.821
10891W        W77300  39.804  38.776   4.539
10892W        W77301  33.317   0.962  12.375
10893W        W77302  17.918  30.366   0.976
10894W        W77303  13.377  31.077   4.288
10895W        W77304  24.542  24.085  12.639
10896W        W77305  25.004  19.491  13.323
10897W        W77306  28.416  20.491   1.323
10898W        W77307   1.306  26.287   3.395
10899W        W77308  11.722  31.122  12.898
10900W        W77309  14.106   7.848   4.546
10901W        W77310  33.294  16.630   4.511
10902W        W77311  25.591  43.525   3.924
10903W        W77312  23.431  21.550   1.865
10904W        W77313   4.941  28.873   5.059
10905W        W77314   3.026  25.919   1.331
10906W        W77315  10.294  31.067   1.863
10907W        W77316   0.431  15.047  12.968
10908W        W77317   1.812  42.464   1.956
10909W        W77318   0.260  18.497  11.222
10910W        W77319   5.816  34.543   1.559
10911W        W77320  44.714   0.793   0.759
10912W        W77321  23.149  24.079   2.973
10913W        W77322   3.895  24.441   5.446
10914W        W77323  39.083  28.442   4.503
10915W        W77324  41.987   3.869   4.507
10916W        W77325  16.682   6.959   5.000
10917W        W77326   0.401  44.957  14.049
10918W        W77327  18.504  17.293  10.898
10919W        W77328   2.697  20.754  14.508
10920W        W77329   6.104   6.757   4.748
10921W        W77330   2.742  41.077  13.516
10922W        W77331   1.030  32.844   0.474
10923W        W77332  39.692   5.304  12.924
10924W        W77333   2.024  19.761  12.141
10925W        W77334   4.888   8.691  11.906
10926W        W77335  33.487  21.986   4.181
10927W        W77336  23.447  40.846   0.565
10928W        W77337  14.371  17.399  13.632
10929W        W77338  15.540  12.556  11.224
10930W        W77339  22.182  10.899   4.148
10931W        W77340  41.251   6.679  12.070
10932W        W77341   9.620   7.338  14.500
10933W        W77342  11.666  27.208   1.138
10934W        W77343  16.023  13.182   2.807
10935W        W77344  20.137  35.447  11.205
10936W        W77345   4.540  26.645  14.743
10937W        W77346  14.066  34.625  14.430
10938W        W77347  11.686  16.803   1.780
10939W        W77348  38.533  30.570   2.097
10940W        W77349  26.107  28.730   4.235
10941W        W77350   1.848  31.055   0.004
10942W        W77351  36.641  18.982  14.849
10943W        W77352  22.559   2.979   4.189
10944W        W77353  32.460  24.131  12.054
10945W        W77354  19.570  38.877  10.856
10946W        W77355  21.587   3.811   3.837
10947W        W77356  43.118  29.242   4.883
10948W        W77357  36.320  14.719   4.546
10949W        W77358  13.789  25.028   4.063
10950W        W77359  35.639  24.243   3.110
10951W        W77360  40.897  37.799  12.661
10952W        W77361  19.709  35.859   3.648
10953W        W77362  14.452  40.328  14.534
10954W        W77363  22.760  40.932  14.775
10955W        W77364  27.207   6.777  11.259
10956W        W77365  39.800  35.045  13.991
10957W        W77366  26.680  11.870  13.842
10958W        W77367  35.993  25.922   2.697
10959W        W77368  26.089  13.235   4.563
10960W        W77369  36.388  23.509  13.434
10961W        W77370  36.416  34.152   2.699
10962W        W77371  24.336  28.122   1.839
10963W        W77372   5.752  11.557   0.377
10964W        W77373  37.364   5.234   3.339
10965W        W77374  36.431  30.592   2.978
10966W        W77375  23.183  34.964   4.882
10967W        W77376  36.340  15.287   1.201
10968W        W77377  34.663  42.508  10.493
10969W        W77378  40.805   7.297  12.931
10970W        W77379  26.811   2.908  12.936
10971W        W77380  38.547  22.168  14.885
10972W        W77381  35.880  29.058   0.473
10973W        W77382   3.338   6.732  14.987
10974W        W77383  32.131  40.051  11.150
10975W        W77384  40.397  43.014   4.654
10976W        W77385  16.748  28.911  14.412
10977W        W77386  10.307  29.211  14.952
10978W        W77387  37.539  15.836   1.891
10979W        W77388  16.571  12.164   1.436
10980W        W77389  16.307  31.383  13.432
10981W        W77390  15.089  14.075  12.559
10982W        W77391  18.531  29.168  14.899
10983W        W77392  27.119   7.776  13.295
10984W        W77393   0.032   4.819   1.705
10985W        W77394  24.985  32.976   2.470
10986W        W77395  40.426  26.627   4.655
10987W        W77396  17.009  18.824  12.498
10988W        W77397  24.069  39.430  14.189
10989W        W77398  43.890  42.074   3.568
10990W        W77399  37.959  27.733   0.217
10991W        W77400  14.822   1.435   4.452
10992W        W77401  30.204   9.756   1.857
10993W        W77402  22.250   5.853  14.873
10994W        W77403  22.186  26.760   9.991
10995W        W77404  13.117  38.538   4.898
10996W        W77405  18.818  36.971   3.134
10997W        W77406   7.428  17.694   0.801
10998W        W77407  17.807  13.392   0.810
10999W        W77408  33.978  20.246   4.241
11000W        W77409  18.355  13.307  11.757
11001W        W77410  18.152  35.565   3.432
11002W        W77411  21.043   2.895   1.539
11003W        W77412  30.465   3.096   0.147
11004W        W77413  18.631  35.569  11.217
11005W        W77414  28.449  10.319   3.533
11006W        W77415  35.483  22.060  14.025
11007W        W77416  11.679  19.641  11.765
11008W        W77417  36.334   4.169  14.853
11009W        W77418  32.151  23.688   4.093
11010W        W77419  35.105  24.897   4.134
11011W        W77420   1.322   7.225   4.590
11012W        W77421   2.966  17.007   2.348
11013W        W77422  40.823  43.479  12.294
11014W        W77423  12.259  37.336   4.337
11015W        W77424   5.038  16.550   3.642
11016W        W77425   2.978  32.924   2.283
11017W        W77426  35.492  41.985   0.659
11018W        W77427  37.996  22.035  13.576
11019W        W77428  28.246  14.150   1.883
11020W        W77429  28.848   6.062  10.693
11021W        W77430  36.087  17.376   2.191
11022W        W77431   0.122   7.056   1.685
11023W        W77432  19.774  33.146  11.047
11024W        W77433  25.399   8.294   9.845
11025W        W77434  42.907   6.530   2.742
11026W        W77435  30.428  19.393  12.962
11027W        W77436  12.046  36.420  13.951
11028W        W77437  33.640  43.774   2.147
11029W        W77438  21.294  17.442  11.191
11030W        W77439  19.637  34.563  14.054
11031W        W77440  33.082   9.622   3.262
11032W        W77441  37.988  16.725  10.880
11033W        W77442  36.381  18.771   4.578
11034W        W77443  16.525  23.154  11.007
11035W        W77444   2.739  19.139  13.494
11036W        W77445  17.254  16.768  11.177
11037W        W77446  13.842  31.952  12.535
11038W        W77447  29.470  37.600   1.159
11039W        W77448   8.398  38.069   3.760
11040W        W77449  26.430  44.230   2.928
11041W        W77450  42.623  34.604  11.582
11042W        W77451  28.578  23.688   2.831
11043W        W77452   8.104  43.500  11.992
11044W        W77453   9.586  31.024   1.280
11045W        W77454  13.635  12.402   4.522
11046W        W77455   3.267  27.227   0.244
11047W        W77456  42.093  15.525   4.134
11048W        W77457  15.130   4.863  14.587
11049W        W77458  34.562  24.019  14.327
11050W        W77459  26.523  31.190   0.095
11051W        W77460  40.059  14.837   3.758
11052W        W77461   7.129   2.210   3.173
11053W        W77462   3.721   4.971   5.024
11054W        W77463  29.998  26.269  11.107
11055W        W77464  20.827  38.392   4.514
11056W        W77465  28.176  28.693  12.433
11057W        W77466   9.187   3.719   2.209
11058W        W77467  19.898  28.224   2.261
11059W        W77468  32.344  17.664  14.431
11060W        W77469  38.652  18.507  13.650
11061W        W77470   6.429  36.338   3.970
11062W        W77471   3.911  23.054  14.371
11063W        W77472  20.800  22.726  13.411
11064W        W77473   8.260  32.461   0.554
11065W        W77474  28.217  30.409  14.853
11066W        W77475  38.524   5.202  11.628
11067W        W77476   9.595  14.656   0.342
11068W        W77477  40.455  29.616   2.697
11069W        W77478  40.577  26.550  10.659
11070W        W77479   9.814  21.581  11.743
11071W        W77480   3.164  43.814   4.835
11072W        W77481  21.686  25.714  12.919
11073W        W77482  21.169  31.193  14.372
11074W        W77483  43.512  22.583   1.890
11075W        W77484   6.912  26.606   3.677
11076W        W77485  31.906  14.319   4.656
11077W        W77486  41.823  19.451   1.399
11078W        W77487  10.683  18.634  14.520
11079W        W77488   7.516   4.345   2.385
11080W        W77489  42.843  32.316   1.687
11081W        W77490   3.776  21.143   1.131
11082W        W77491  32.324  19.482  14.815
11083W        W77492  37.475  36.688   3.277
11084W        W77493  44.587  24.375  12.078
11085W        W77494  17.061   6.827   2.690
11086W        W77495  28.428   4.283  12.548
11087W        W77496  30.639   4.242  11.521
11088W        W77497   6.319  35.918   1.222
11089W        W77498  29.150   0.681  14.567
11090W        W77499   3.803  32.352  14.243
11091W        W77500  13.147   8.756  10.631
11092W        W77501   0.714  23.560  12.285
11093W        W77502   9.511  32.396  11.172
11094W        W77503  43.774  13.970  11.641
11095W        W77504  37.609   2.351  12.542
11096W        W77505  28.228  12.763   2.841
11097W        W77506  38.340   2.924  13.626
11098W        W77507  30.036  34.812   2.976
11099W        W77508  16.014  13.161  11.028
11100W        W77509  25.051  12.743   0.987
11101W        W77510  11.856  44.961  11.268
11102W        W77511  27.968  21.956  14.377
11103W        W77512  17.322  15.117   0.437
11104W        W77513  38.474  13.688  13.531
11105W        W77514  13.424   2.113  13.027
11106W        W77515  18.455  37.951  11.256
11107W        W77516  42.477  15.541  12.494
11108W        W77517  10.792  11.144  14.476
11109W        W77518  30.180   7.042  12.548
11110W        W77519  42.089   1.231  12.071
11111W        W77520  23.101  23.453   4.782
11112W        W77521  43.079  20.083   4.266
11113W        W77522   0.248  31.973   1.673
11114W        W77523  36.759  26.645   3.187
11115W        W77524  41.841  39.442  12.397
11116W        W77525  22.243   7.820   2.234
11117W        W77526  21.306  11.982  13.488
11118W        W77527  17.227   9.015   0.912
11119W        W77528  29.633  25.657   3.620
11120W        W77529  33.486   3.559   2.775
11121W        W77530  15.157   3.464  12.634
11122W        W77531   0.503  11.854   5.138
11123W        W77532  40.087   3.472  12.474
11124W        W77533  22.064   2.434   2.249
11125W        W77534  40.460  29.744  10.278
11126W        W77535  14.204  41.181  12.422
11127W        W77536  22.434  22.306  11.856
11128W        W77537  24.532   3.914   2.209
11129W        W77538  11.485  28.971  12.054
11130W        W77539  34.396  16.333  12.966
11131W        W77540   1.423  26.036  12.518
11132W        W77541   1.697  25.763   2.167
11133W        W77542   0.449  13.125  14.835
11134W        W77543  25.290  22.421  11.734
11135W        W77544  43.418  34.222   4.972
11136W        W77545   2.934  22.737   1.272
11137W        W77546  29.701  11.830   2.964
11138W        W77547  37.085  44.848  13.577
11139W        W77548  27.099  21.987   0.874
11140W        W77549  11.133  10.703  11.971
11141W        W77550  37.103  42.879   4.127
11142W        W77551  17.704  44.012   1.798
11143W        W77552  13.132  41.065  10.613
11144W        W77553  31.844   7.754   4.080
11145W        W77554  22.196  17.752  12.562
11146W        W77555  20.239  30.215   2.686
11147W        W77556  11.892  36.657  14.463
11148W        W77557  42.846   5.091   1.404
11149W        W77558  43.432  21.339   3.621
11150W        W77559  37.948  31.702  11.157
11151W        W77560  18.178  27.263   4.337
11152W        W77561  35.865   0.992   1.215
11153W        W77562  13.047  44.414   0.728
11154W        W77563  41.803  28.204  10.358
11155W        W77564  21.582   8.701   0.824
11156W        W77565  35.278  33.161  13.368
11157W        W77566  11.821  15.334  12.389
11158W        W77567  36.940  30.489   2.966
11159W        W77568  34.893   4.726  14.433
11160W        W77569  18.199  15.210   2.677
11161W        W77570  12.872  28.629   1.015
11162W        W77571  38.696   9.332   2.244
11163W        W77572  26.069   3.223   5.081
11164W        W77573  17.514   3.448  12.943
11165W        W77574  25.160   3.692   0.693
11166W        W77575   6.485  19.334   3.815
11167W        W77576  37.419  44.358   4.506
11168W        W77577   2.771  31.694   1.692
11169W        W77578  13.844  31.434   2.269
11170W        W77579  44.380  24.270   0.834
11171W        W77580  30.471  15.293   0.231
11172W        W77581  21.595  44.716  12.139
11173W        W77582  11.130  16.829  13.027
11174W        W77583   2.689   4.695   4.150
11175W        W77584  17.135  21.001   2.199
11176W        W77585  44.795   0.169  13.933
11177W        W77586  13.586  23.101  10.239
11178W        W77587   4.498   7.674   2.130
11179W        W77588   2.225  21.749  10.659
11180W        W77589  39.224  42.463  13.792
11181W        W77590  42.909  31.161   4.628
11182W        W77591  15.612  34.884  13.853
11183W        W77592  40.530   3.792   4.565
11184W        W77593  25.672  24.188  13.464
11185W        W77594  26.703  37.105   4.596
11186W        W77595  28.468  32.034   2.134
11187W        W77596  42.054  10.990  13.633
11188W        W77597  23.213  14.151  14.535
11189W        W77598  28.931  31.942   3.128
11190W        W77599   6.121  10.664   1.009
11191W        W77600  36.482  30.175  11.141
11192W        W77601  29.490  10.774  11.324
11193W        W77602  23.463  16.032  12.906
11194W        W77603   6.656  10.367  14.943
11195W        W77604  28.061   9.369   2.708
11196W        W77605  26.845  12.195   2.512
11197W        W77606  42.398   3.480  14.463
11198W        W77607  15.387  42.956  12.871
11199W        W77608   1.347  31.797   0.950
11200W        W77609  10.598  22.141   3.287
11201W        W77610  18.046  16.924   0.901
11202W        W77611  15.122  44.614  13.746
11203W        W77612  16.311  35.473   0.971
11204W        W77613   3.790   4.214   1.394
11205W        W77614  22.828  32.437  11.980
11206W        W77615  27.139  40.763   1.803
11207W        W77616  41.730  43.235  11.890
11208W        W77617  27.927  10.477  14.264
11209W        W77618   6.694  14.840   3.092
11210W        W77619  40.357  29.427  11.649
11211W        W77620  40.933  42.764  11.924
11212W        W77621  30.458  30.658   0.372
11213W        W77622  25.299  38.235   0.334
11214W        W77623   3.624   7.318  12.909
11215W        W77624  31.698  43.442   2.169
11216W        W77625  16.250  25.897   4.256
11217W        W77626  39.098  40.395   2.646
11218W        W77627  40.477   5.202  11.758
11219W        W77628  20.163  34.851   1.818
11220W        W77629   5.691  35.568  12.862
11221W        W77630   4.052   8.266  12.833
11222W        W77631  43.410  23.156   0.217
11223W        W77632   5.595   0.474  14.064
11224W        W77633   3.247  42.876  11.684
11225W        W77634  26.774  25.717   1.357
11226W        W77635  25.253  26.600   5.043
11227W        W77636  35.018  43.245  12.619
11228W        W77637  34.738  20.000  13.021
11229W        W77638   1.014  35.517   1.748
11230W        W77639  14.269  21.080   3.636
11231W        W77640   1.316  13.730   0.896
11232W        W77641  22.983   8.250   3.259
11233W        W77642   5.780  43.237   0.397
11234W        W77643  35.006   7.324   4.664
11235W        W77644   9.676   4.288   1.391
11236W        W77645  21.826  25.208  12.953
11237W        W77646  21.086  42.487   1.616
11238W        W77647  39.847  11.139   2.862
11239W        W77648  41.379   9.226   2.885
11240W        W77649  24.977  36.682  11.313
11241W        W77650   0.428   1.499   3.227
11242W        W77651  24.286  25.815  11.216
11243W        W77652  25.838  26.674  13.096
11244W        W77653  18.342   3.120  14.983
11245W        W77654   4.236  31.566  10.735
11246W        W77655  38.328  36.821   0.289
11247W        W77656  42.328  43.032   4.108
11248W        W77657   0.910  40.783  13.421
11249W        W77658  35.056   9.980  13.043
11250W        W77659  34.569  44.378   4.410
11251W        W77660  42.511  19.132   2.051
11252W        W77661  19.608  36.444   2.393
11253W        W77662  14.755  14.161  12.055
11254W        W77663  17.705  43.031   2.147
11255W        W77664   1.254  28.509  13.609
11256W        W77665  34.760   9.678   4.997
11257W        W77666  23.268  12.311  14.832
11258W        W77667  21.741  29.888   3.594
11259W        W77668  43.724  30.130  10.786
11260W        W77669  15.581  41.911  13.591
11261W        W77670  36.865   8.354  13.073
11262W        W77671  21.156  34.957   0.833
11263W        W77672  18.689  25.308   3.355
11264W        W77673  21.749  40.987  14.967
11265W        W77674  43.479  42.710  13.119
11266W        W77675  37.905   7.781   4.539
11267W        W77676   7.287  14.288   3.647
11268W        W77677  32.478  36.045  10.745
11269W        W77678  12.100   1.324   1.854
11270W        W77679  26.041   8.208  12.559
11271W        W77680  31.194  26.483   3.209
11272W        W77681   4.825   6.376  13.414
11273W        W77682  23.163   2.255  11.117
11274W        W77683  30.541  41.520  12.489
11275W        W77684   1.727  35.318  12.607
11276W        W77685  43.536  19.281   4.795
11277W        W77686  30.802  42.624  11.393
11278W        W77687  32.393  28.658  11.650
11279W        W77688  19.105  42.832  11.088
11280W        W77689   5.149   7.786  14.899
11281W        W77690  13.403  31.886  14.335
11282W        W77691  18.598  18.814   0.445
11283W        W77692  21.627  11.367  11.993
11284W        W77693  27.727  26.817  11.104
11285W        W77694  16.761  29.176  10.928
11286W        W77695  42.571  44.918   4.159
11287W        W77696  17.038   2.760  12.463
11288W        W77697   2.657  37.043   4.660
11289W        W77698  13.585  22.283  12.190
11290W        W77699  15.551  16.535   4.258
11291W        W77700   5.097  25.705   4.999
11292W        W77701   5.408   3.100   0.400
11293W        W77702   3.976  41.793   1.936
11294W        W77703  21.782  11.735   0.280
11295W        W77704  44.255  31.926  12.257
11296W        W77705  34.598  19.174  13.135
11297W        W77706  41.829   2.325   1.584
11298W        W77707  14.690   0.361  11.955
11299W        W77708  35.436  37.580   2.930
11300W        W77709   3.083  14.588  13.989
11301W        W77710  15.825  39.812   3.548
11302W        W77711   4.937  24.112   3.059
11303W        W77712  34.269  39.917   4.096
11304W        W77713   4.098  24.118   3.486
11305W        W77714  25.356   7.855  11.146
11306W        W77715  10.591  10.288  14.005
11307W        W77716   0.220  42.045   2.288
11308W        W77717  39.640   1.639  14.789
11309W        W77718  15.295  19.309   1.682
11310W        W77719   7.591  34.141  11.064
11311W        W77720  15.180  18.066  12.976
11312W        W77721  38.118   9.721   0.244
11313W        W77722   0.644  21.191  13.245
11314W        W77723  24.078  37.003   0.829
11315W        W77724  40.308  39.332   1.443
11316W        W77725  42.770   1.399  10.745
11317W        W77726  16.188  27.989   1.357
11318W        W77727  28.458  22.595  12.584
11319W        W77728  37.937   5.659   2.803
11320W        W77729  38.949   0.917   2.675
11321W        W77730  25.618   6.437   1.654
11322W        W77731  17.357  19.636   3.302
11323W        W77732  25.274  39.321   4.847
11324W        W77733  30.706   1.349   4.542
11325W        W77734  11.065  11.828   0.843
11326W        W77735  37.850  14.637   0.762
11327W        W77736   1.780   1.718  13.971
11328W        W77737  25.844  11.967   2.258
11329W        W77738  21.589  12.290  12.398
11330W        W77739  19.606   1.122   1.457
11331W        W77740  42.553  32.201  12.333
11332W        W77741  39.386   1.358  13.474
11333W        W77742  27.648  39.838   1.811
11334W        W77743  14.323  35.202   4.211
11335W        W77744  22.167  10.981   0.955
11336W        W77745  31.098   7.893   4.824
11337W        W77746  37.539   6.834  11.618
11338W        W77747  23.261  42.270   0.286
11339W        W77748   8.336  42.368  13.761
11340W        W77749   3.344  23.878  12.420
11341W        W77750  44.960   9.411  11.801
11342W        W77751   1.080  41.370   0.321
11343W        W77752  38.356  20.086   3.305
11344W        W77753  39.854  13.258   2.163
11345W        W77754   7.871  38.920  12.675
11346W        W77755   6.728  34.326  12.018
11347W        W77756  33.094   5.508  13.883
11348W        W77757  26.884  33.124   1.431
11349W        W77758  26.396  31.572   1.455
11350W        W77759   6.574  20.196  12.582
11351W        W77760   6.762  25.268  12.081
11352W        W77761  27.067   3.251  12.108
11353W        W77762  30.927  24.188  13.358
11354W        W77763   1.501  37.388  14.809
11355W        W77764  35.533  25.034  10.717
11356W        W77765  21.230  41.811  13.083
11357W        W77766  39.565  24.116  12.491
11358W        W77767  13.834   1.176   1.768
11359W        W77768  15.984  15.764  13.966
11360W        W77769  37.322   0.796   3.596
11361W        W77770  18.665   6.358  14.409
11362W        W77771  34.464  14.552   3.598
11363W        W77772  41.871   1.490   3.539
11364W        W77773  11.829  23.493   3.208
11365W        W77774   3.943  24.540   2.154
11366W        W77775  26.443  44.857  10.463
11367W        W77776   6.471  19.156   1.771
11368W        W77777   1.462   1.006  14.210
11369W        W77778  25.537   5.348  11.374
11370W        W77779  13.625  37.968   1.322
11371W        W77780  31.119  27.198   2.659
11372W        W77781   5.156  44.515   2.799
11373W        W77782   6.271  13.535   4.164
11374W        W77783  22.988  31.501  12.129
11375W        W77784  31.063  10.113   3.478
11376W        W77785  23.563  36.298   3.133
11377W        W77786   0.925  41.751  11.008
11378W        W77787  24.817  41.236  13.001
11379W        W77788  35.546   2.764   2.844
11380W        W77789  33.933  34.618   4.322
11381W        W77790  30.490  32.417   0.781
11382W        W77791  24.700  32.636  13.841
11383W        W77792  16.264  20.582   0.283
11384W        W77793  42.338   9.455   1.140
11385W        W77794  42.763  30.646  13.582
11386W        W77795  19.122  38.867  13.588
11387W        W77796   9.079  36.864   1.264
11388W        W77797  19.590   1.174   3.230
11389W        W77798   2.033  34.651  13.135
11390W        W77799   8.537  17.804   3.382
11391W        W77800  22.516  21.041   1.712
11392W        W77801  34.439  31.541  11.653
11393W        W77802  39.764  21.413  11.463
11394W        W77803  33.546  44.641  12.350
11395W        W77804  17.236  21.836  11.847
11396W        W77805   9.364   6.340  14.320
11397W        W77806  38.501   0.309   1.337
11398W        W77807  22.296  14.707   3.710
11399W        W77808  35.099  41.789  11.579
11400W        W77809  38.893  16.785   2.109
11401W        W77810  17.753  18.771   3.544
11402W        W77811   8.139  34.110  10.437
11403W        W77812  34.562  13.404   2.270
11404W        W77813  42.419   1.247  14.784
11405W        W77814  40.806  21.707   2.443
11406W        W77815  25.203  28.272   0.402
11407W        W77816  40.350  35.626   3.844
11408W        W77817  14.847  36.426   2.843
11409W        W77818  11.575  27.061   3.173
11410W        W77819  31.368   6.480   1.264
11411W        W77820   9.848  24.372  12.064
11412W        W77821  40.769  18.772   3.778
11413W        W77822  34.917  10.991  12.482
11414W        W77823  25.618  11.199   3.353
11415W        W77824   2.841  23.729  11.427
11416W        W77825   1.907  14.591   0.038
11417W        W77826  23.675  23.907  13.142
11418W        W77827  36.399   9.659   1.919
11419W        W77828  35.497  21.703  14.454
11420W        W77829  11.226  27.234   2.836
11421W        W77830  42.966  28.804  13.825
11422W        W77831  13.374  40.407  12.848
11423W        W77832  12.352  41.479   2.220
11424W        W77833  21.057  18.563   5.008
11425W        W77834  29.584  30.939   4.414
11426W        W77835  41.199  14.717  13.075
11427W        W77836  18.559  10.604  14.378
11428W        W77837  16.256  27.945   3.616
11429W        W77838  31.724  31.136   4.677
11430W        W77839  27.288  17.418   0.887
11431W        W77840  22.234  15.042   4.140
11432W        W77841  29.115  31.184  12.094
11433W        W77842  19.020   5.849   2.677
11434W        W77843   7.966  16.244   0.366
11435W        W77844  19.668  41.841  12.943
11436W        W77845  40.243   4.487   2.776
11437W        W77846   3.498  10.802  14.382
11438W        W77847  34.052  30.597   0.132
11439W        W77848   6.858  10.120   1.854
11440W        W77849  40.519  20.557   2.638
11441W        W77850  29.191  20.852  13.868
11442W        W77851  41.025   6.357  14.337
11443W        W77852   6.634  31.364  14.397
11444W        W77853  15.630  22.696  12.021
11445W        W77854   8.953  29.611   4.962
11446W        W77855  40.413  41.241  13.911
11447W        W77856  18.155  11.823   0.340
11448W        W77857   6.909  17.362  13.407
11449W        W77858  19.830  12.567   1.411
11450W        W77859  30.095  39.493  12.906
11451W        W77860  21.708  22.452  11.874
11452W        W77861   2.467  24.535  13.773
11453W        W77862  30.157  24.658  13.360
11454W        W77863  34.418  14.280  11.916
11455W        W77864  20.147  37.826   3.677
11456W        W77865   3.238  44.590   3.665
11457W        W77866  20.906  10.296  14.654
11458W        W77867  32.450  36.417   2.458
11459W        W77868  14.247  13.856  14.940
11460W        W77869  13.491  28.113  14.152
11461W        W77870  18.541  40.774   4.558
11462W        W77871  18.641  31.108   4.716
11463W        W77872  12.661  17.432   1.902
11464W        W77873   1.538   2.721  12.120
11465W        W77874  23.696  39.066   1.348
11466W        W77875  17.578  39.600  12.045
11467W        W77876  21.300  17.449  12.053
11468W        W77877  38.557  17.321   3.212
11469W        W77878  29.059   7.174   1.646
11470W        W77879   4.059  24.106   2.797
11471W        W77880  29.891  12.588  14.668
11472W        W77881  32.791   0.984   9.846
11473W        W77882  36.560  11.843  12.086
11474W        W77883  36.058  14.316   1.751
11475W        W77884  10.606  15.201   3.825
11476W        W77885   7.153   3.224  11.579
11477W        W77886   3.283  31.370  10.719
11478W        W77887  40.987  21.324  11.657
11479W        W77888   9.651  27.836   0.461
11480W        W77889  20.201  38.850   3.750
11481W        W77890  11.207  41.910   2.210
11482W        W77891  20.036  34.069   3.766
11483W        W77892  20.593  11.884  14.906
11484W        W77893  29.538  26.168  12.016
11485W        W77894  28.453   7.208   3.853
11486W        W77895  39.359  35.528  13.272
11487W        W77896  32.636  32.014  13.238
11488W        W77897   0.208  31.311   2.412
11489W        W77898   2.971  35.647   3.662
11490W        W77899  34.085   9.258  13.871
11491W        W77900  14.859  33.454  13.049
11492W        W77901  25.761  43.954  12.681
11493W        W77902  39.943   0.790   1.329
11494W        W77903  36.532  22.763  14.035
11495W        W77904  30.996   1.243   4.096
11496W        W77905  25.410  21.769   1.703
11497W        W77906  44.264  14.599   2.648
11498W        W77907  33.064  22.220   5.080
11499W        W77908  32.085  31.266  13.095
11500W        W77909  43.011  38.640   0.380
11501W        W77910  21.845  18.136  12.613
11502W        W77911   5.754  34.076  13.882
11503W        W77912  10.296  31.602   0.043
11504W        W77913  26.011   9.855   2.260
11505W        W77914  11.185  31.168   1.008
11506W        W77915  33.831  29.539   2.753
11507W        W77916  44.722  39.734   2.985
11508W        W77917  25.101   8.413  12.807
11509W        W77918   2.341  28.219   3.330
11510W        W77919   0.433  30.300   0.726
11511W        W77920  19.032  23.836   1.886
11512W        W77921  18.000  44.627   2.727
11513W        W77922  13.900  43.868   2.934
11514W        W77923   9.332   4.451  10.754
11515W        W77924   3.747  10.254  13.837
11516W        W77925  24.123  23.874   4.074
11517W        W77926  31.727   5.043   3.305
11518W        W77927  15.367  30.458   3.582
11519W        W77928  31.438  44.266  14.294
11520W        W77929  33.395   9.125   1.305
11521W        W77930  44.261  15.788   1.758
11522W        W77931  12.154   6.674   1.185
11523W        W77932  26.543   5.378   0.264
11524W        W77933  31.597   8.803  14.450
11525W        W77934  35.402  16.400   1.254
11526W        W77935  19.066  30.738  11.144
11527W        W77936  17.447  32.533  13.187
11528W        W77937   3.731  11.344  10.349
11529W        W77938  23.472  25.538   2.424
11530W        W77939  20.737  41.824   2.208
11531W        W77940   7.930  34.543  12.550
11532W        W77941   3.783  10.051  10.454
11533W        W77942  39.443  21.648   4.362
11534W        W77943   9.848  31.058   3.078
11535W        W77944  32.897  43.281   2.705
11536W        W77945  32.455  11.570  14.406
11537W        W77946   5.666  11.251  12.828
11538W        W77947  16.653  27.451   1.583
11539W        W77948  24.605  11.621   0.075
11540W        W77949   9.642  20.712  11.636
11541W        W77950  32.673  41.014  13.458
11542W        W77951  38.048  44.453  10.756
11543W        W77952  11.180  11.667   0.366
11544W        W77953   4.441   6.763   2.181
11545W        W77954  21.990   9.729  14.862
11546W        W77955   9.428  37.756  11.068
11547W        W77956   2.717  42.927  12.447
11548W        W77957  43.094  18.125   4.269
11549W        W77958  12.560  35.141  14.016
11550W        W77959   7.804  17.266  12.507
11551W        W77960  36.331  19.638  14.369
11552W        W77961  18.242  38.042  14.687
11553W        W77962  15.637   2.491  10.500
11554W        W77963  20.263  10.051   1.011
11555W        W77964  42.735  22.607  13.432
11556W        W77965  41.410  26.975  11.478
11557W        W77966  15.125  28.031  13.875
11558W        W77967  40.555  18.731   2.320
11559W        W77968  13.717  44.841   0.027
11560W        W77969  33.182  44.336  12.088
11561W        W77970  35.923  28.191   2.504
11562W        W77971  23.930  22.084   2.209
11563W        W77972  43.405  18.190  12.168
11564W        W77973  11.723  14.796  12.882
11565W        W77974   4.723  39.367  14.527
11566W        W77975  23.204  24.179  12.231
11567W        W77976  25.979  27.614  14.019
11568W        W77977  20.602   6.282  14.540
11569W        W77978  41.982  36.400   4.678
11570W        W77979  32.153   7.408   2.218
11571W        W77980  16.235  12.490  11.569
11572W        W77981  10.718   3.725   2.073
11573W        W77982  33.562   5.947  12.911
11574W        W77983  27.112  43.983   3.714
11575W        W77984  26.398  21.584   0.432
11576W        W77985  27.163  15.487   3.562
11577W        W77986   6.239  37.164  11.936
11578W        W77987   5.078  20.986   5.141
11579W        W77988  30.107  38.164  13.457
11580W        W77989  27.209  10.256   2.194
11581W        W77990  33.762  10.537  14.404
11582W        W77991  16.750  40.183  14.952
11583W        W77992  24.368  38.911  13.995
11584W        W77993  14.170  21.597   3.669
11585W        W77994   6.334  43.581   3.115
11586W        W77995  24.574   0.789   0.351
11587W        W77996   9.330  18.343  13.065
11588W        W77997  23.504  39.262  12.133
11589W        W77998  33.944  11.500  13.566
11590W        W77999  13.909  43.244   4.569
11591W        W78000  11.906  14.307  11.138
11592W        W78001  12.248  29.188  11.630
11593W        W78002  10.298   6.791  12.762
11594W        W78003  17.697  18.514   0.417
11595W        W78004  42.405  18.256  13.853
11596W        W78005   1.279   4.481  11.635
11597W        W78006   5.195   9.297   4.564
11598W        W78007  43.624  16.065   2.129
11599W        W78008  41.551   3.450   1.338
11600W        W78009   6.694   8.582  12.031
11601W        W78010  34.034  33.895   0.253
11602W        W78011  23.882  15.612   4.621
11603W        W78012  40.415   2.379   1.919
11604W        W78013  41.837  24.026   1.526
11605W        W78014  14.607  34.413   2.328
11606W        W78015  39.344  19.650   2.636
11607W        W78016  38.804  40.112  14.154
11608W        W78017  35.441  13.592   0.335
11609W        W78018   1.767  41.881   0.289
11610W        W78019  28.174  25.903  12.391
11611W        W78020  30.416   8.953  12.520
11612W        W78021  24.378  30.405  11.151
11613W        W78022  22.725  29.860   0.853
11614W        W78023  38.676   3.797  13.389
11615W        W78024  27.639   9.966   2.358
11616W        W78025   9.296  34.349   3.714
11617W        W78026  37.877   6.431  12.490
11618W        W78027   6.815  21.692  12.513
11619W        W78028   2.749  39.602  14.383
11620W        W78029   0.772  27.303  10.474
11621W        W78030  41.561  31.543  13.731
11622W        W78031  11.982  34.143  11.196
11623W        W78032  20.098   6.148  11.628
11624W        W78033  43.905  44.285  10.123
11625W        W78034   1.392  27.809   2.984
11626W        W78035  26.138   6.282   3.787
11627W        W78036  31.515   4.587   0.227
11628W        W78037   3.157  37.060  11.843
11629W        W78038  11.493  44.170  14.631
11630W        W78039  36.789  34.952  13.428
11631W        W78040  13.859   0.171  11.062
11632W        W78041  33.373  35.895   3.275
11633W        W78042  35.542  24.722   4.336
11634W        W78043  14.319   6.763   2.158
11635W        W78044  38.123  26.203  13.482
11636W        W78045   7.379  16.594   1.656
11637W        W78046   9.905  28.805   2.817
11638W        W78047  24.620  19.316  11.292
11639W        W78048  35.018  32.943   4.480
11640W        W78049   5.460  26.000  13.639
11641W        W78050  19.818  33.612  14.080
11642W        W78051  13.899   0.705   0.621
11643W        W78052   7.362   9.322   2.625
11644W        W78053   5.451  17.125  11.655
11645W        W78054   8.150   5.765   0.856
11646W        W78055  35.114  32.133   3.713
11647W        W78056  33.830  21.727   2.353
11648W        W78057  12.903  39.671  12.535
11649W        W78058  33.859  40.532   3.392
11650W        W78059  31.497  36.209   1.137
11651W        W78060   2.098  21.555   0.438
11652W        W78061  16.990  22.368  14.901
11653W        W78062  21.752  30.252   0.980
11654W        W78063  20.875   8.957  12.394
11655W        W78064   7.727  17.258  13.943
11656W        W78065  39.629  36.829  13.977
11657W        W78066   5.833  26.947  11.692
11658W        W78067   0.580   8.208  13.831
11659W        W78068  17.978  40.300  12.396
11660W        W78069  23.258   5.755   2.543
11661W        W78070  31.601  40.290  11.909
11662W        W78071   4.247   5.455   4.915
11663W        W78072  19.058  34.554   3.154
11664W        W78073  14.714  42.030   2.344
11665W        W78074  20.667  34.054   1.655
11666W        W78075  22.722  34.300   3.280
11667W        W78076   2.791  21.156   0.276
11668W        W78077   2.187  31.934  12.707
11669W        W78078  24.747  39.955  13.191
11670W        W78079  26.263  19.209  10.778
11671W        W78080  41.035  25.836   2.720
11672W        W78081  35.150  25.135  14.806
11673W        W78082   5.991  24.010  11.551
11674W        W78083   6.860  28.166  13.715
11675W        W78084  42.881  38.794   3.413
11676W        W78085  15.628  13.373  12.615
11677W        W78086  17.163  39.989  10.590
11678W        W78087  19.239  39.003  12.385
11679W        W78088   5.283  40.608  14.346
11680W        W78089   6.818  28.106  13.193
11681W        W78090  43.957  15.792  11.968
11682W        W78091  17.034  19.218   3.176
11683W        W78092  10.886  25.760  14.075
11684W        W78093  19.154  24.500  13.120
11685W        W78094  18.672   3.471   4.623
11686W        W78095  24.156  20.824   1.905
11687W        W78096  29.617  29.776   2.809
11688W        W78097  20.090   6.356  12.967
11689W        W78098   1.999   2.454   4.428
11690W        W78099  19.144  10.354  14.262
11691W        W78100  21.255  42.981   0.829
11692W        W78101  43.878  41.732  11.508
11693W        W78102  19.502  20.858   1.581
11694W        W78103  15.901  43.632  14.425
11695W        W78104  18.108   3.255   2.881
11696W        W78105   8.126  42.267   2.763
11697W        W78106  44.971  13.253  11.639
11698W        W78107  40.625   6.576   2.826
11699W        W78108   9.733   6.248   1.202
11700W        W78109   7.411  28.760  13.113
11701W        W78110  23.037  13.747  14.243
11702W        W78111  17.649  10.268  11.646
11703W        W78112  37.406  33.586  12.481
11704W        W78113  36.200  18.507   4.167
11705W        W78114  26.864  42.067   0.939
11706W        W78115   8.785  42.582  12.001
11707W        W78116  15.984  10.796   3.775
11708W        W78117  35.886  28.834   4.594
11709W        W78118  24.735  42.075  13.412
11710W        W78119  37.783  39.256   1.192
11711W        W78120  31.662  39.959  11.488
11712W        W78121  26.168  11.711  11.693
11713W        W78122  41.560  36.814  13.448
11714W        W78123  23.718   1.175   0.346
11715W        W78124  16.644  27.545  13.238
11716W        W78125  27.326  32.766  13.482
11717W        W78126   2.000  26.153   2.843
11718W        W78127  14.543  18.533   3.495
11719W        W78128  11.924  19.685  12.661
11720W        W78129  27.755  32.042  11.124
11721W        W78130  36.006  12.303  11.676
11722W        W78131   5.228  44.344  13.363
11723W        W78132  39.782   7.834  11.125
11724W        W78133  25.582  29.212  12.102
11725W        W78134  38.639   3.194  11.868
11726W        W78135  10.125  17.757   1.356
11727W        W78136  38.287   1.398   1.707
11728W        W78137  15.275  36.198  10.376
11729W        W78138  39.538   6.769  11.958
11730W        W78139  35.521  34.373  13.205
11731W        W78140  13.359   6.631  13.396
11732W        W78141  13.484   4.792   4.632
11733W        W78142  22.478  39.432   3.644
11734W        W78143  20.600  16.350  10.740
11735W        W78144  35.526  39.054   1.657
11736W        W78145  17.348   2.373  12.573
11737W        W78146  19.266  41.492  12.928
11738W        W78147  43.064   7.209  11.290
11739W        W78148  19.759  27.222   3.176
11740W        W78149   6.392  40.798   0.329
11741W        W78150  41.615  37.589  14.847
11742W        W78151  15.561  16.129  13.919
11743W        W78152   4.199   5.378   4.386
11744W        W78153  42.570  39.536   1.308
11745W        W78154  20.069  39.492   4.342
11746W        W78155  20.119  23.552  12.122
11747W        W78156  22.481  36.386   2.391
11748W        W78157   1.468  42.502  10.925
11749W        W78158   7.387   3.902   0.729
11750W        W78159  24.973  40.026  11.466
11751W        W78160  37.005  10.627  11.323
11752W        W78161  20.119  17.802  14.923
11753W        W78162  19.615  31.352  13.907
11754W        W78163  26.512  38.040   4.525
11755W        W78164  11.857   3.339  11.646
11756W        W78165  14.886  11.146   3.736
11757W        W78166  31.637  18.345  14.476
11758W        W78167   4.386  44.453   1.211
11759W        W78168  27.606   8.225   4.078
11760W        W78169  28.719  40.777   2.522
11761W        W78170  40.962  43.327  14.294
11762W        W78171  38.365  24.225   2.365
11763W        W78172  25.159  33.134   2.940
11764W        W78173  36.333  21.288   4.104
11765W        W78174  38.081  10.231  14.141
11766W        W78175  17.234  41.478   3.217
11767W        W78176  41.942  37.653  10.576
11768W        W78177  34.250  23.987   1.843
11769W        W78178  31.177   8.807  10.542
11770W        W78179  10.335  29.953  14.450
11771W        W78180  21.473   4.635   4.921
11772W        W78181  44.357  34.937  13.117
11773W        W78182  16.111  37.447   3.173
11774W        W78183  23.471  34.632  14.849
11775W        W78184  16.872  14.693   1.168
11776W        W78185   2.692  14.977  12.471
11777W        W78186  30.361   3.035   5.128
11778W        W78187  27.861  39.514  12.062
11779W        W78188  10.224  44.504   1.220
11780W        W78189  14.924   9.299   4.656
11781W        W78190  33.548  17.265   3.820
11782W        W78191  31.241  36.508   1.522
11783W        W78192   1.885  43.550  12.504
11784W        W78193  13.051  27.739   1.700
11785W        W78194   3.147  33.385  11.091
11786W        W78195  18.908   0.869  12.935
11787W        W78196   4.613  35.255  13.299
11788W        W78197  10.295  19.567   3.854
11789W        W78198   1.254  18.746   2.407
11790W        W78199  20.343  16.866  12.487
11791W        W78200   6.295   6.832  14.242
11792W        W78201  27.534   0.229  13.429
11793W        W78202  43.409  10.674  13.620
11794W        W78203  39.919  42.311  12.086
11795W        W78204  39.594   3.886   0.458
11796W        W78205  15.233  21.660   0.397
11797W        W78206   3.147   4.440   4.318
11798W        W78207  15.426  10.842   2.262
11799W        W78208  36.573  42.481  11.056
11800W        W78209  23.013  38.105  10.345
11801W        W78210  13.145  39.100   1.286
11802W        W78211  34.591  15.665  13.726
11803W        W78212  39.079  40.193  11.597
11804W        W78213  22.536  33.388   0.726
11805W        W78214  13.575  15.787  14.511
11806W        W78215   5.341  15.096  12.317
11807W        W78216  18.864   0.509   3.311
11808W        W78217   3.379  21.556  13.655
11809W        W78218   5.229  22.656  14.704
11810W        W78219   9.908   8.168  10.815
11811W        W78220  35.587  39.273  10.887
11812W        W78221  35.050  35.168  13.328
11813W        W78222  32.396  11.252   3.546
11814W        W78223   3.793   5.089   0.380
11815W        W78224  11.163  44.961  14.147
11816W        W78225   2.072  30.688   0.282
11817W        W78226  16.036   4.963   1.398
11818W        W78227   9.208  38.048   2.869
11819W        W78228  41.417  23.978   0.750
11820W        W78229  43.264   5.641  14.295
11821W        W78230  44.482  14.758   3.127
11822W        W78231  10.055  22.698   3.715
11823W        W78232  32.914   4.765   3.331
11824W        W78233   5.271  36.769   1.195
11825W        W78234  12.206  22.502   0.135
11826W        W78235  44.936  12.124  12.012
11827W        W78236   6.753  17.416  12.907
11828W        W78237  35.463  37.266   1.338
11829W        W78238   8.172  44.446  14.834
11830W        W78239  27.451  15.742   0.436
11831W        W78240   3.456  42.996   1.807
11832W        W78241  24.739  35.019   4.101
11833W        W78242  19.501  35.551   2.245
11834W        W78243  38.664   1.820  12.121
11835W        W78244  14.927  39.898   1.275
11836W        W78245   5.467  18.479   0.054
11837W        W78246  21.766  28.037  11.996
11838W        W78247  16.110  34.907   4.493
11839W        W78248  36.546  15.214  11.040
11840W        W78249  18.578  19.180  13.344
11841W        W78250  27.769  26.893   3.711
11842W        W78251  10.183  14.797  10.914
11843W        W78252  15.587  13.891  12.488
11844W        W78253   0.785  34.088   3.716
11845W        W78254  30.002  29.637  12.412
11846W        W78255  15.721  14.773  10.705
11847W        W78256  15.299  21.466  13.931
11848W        W78257   8.700  18.534   3.636
11849W        W78258   7.318  17.130  10.851
11850W        W78259  42.011  29.453  10.745
11851W        W78260  17.774   6.411   1.444
11852W        W78261  14.294  29.600  11.225
11853W        W78262   0.206   0.352   2.359
11854W        W78263  16.306   8.648  12.107
11855W        W78264  37.351  35.872   3.640
11856W        W78265   5.935  21.582   5.073
11857W        W78266  26.294  28.557   2.278
11858W        W78267  10.166  26.707  14.986
11859W        W78268  25.309  43.446   1.342
11860W        W78269   1.805  16.224  13.328
11861W        W78270  39.483   2.729  12.609
11862W        W78271  19.205   9.775   4.372
11863W        W78272  14.854  28.698  11.180
11864W        W78273  36.754  43.780  14.028
11865W        W78274  26.442  24.577  11.508
11866W        W78275  18.505  32.527   3.253
11867W        W78276  38.952  26.145  13.937
11868W        W78277  25.430  29.622  14.030
11869W        W78278  23.613  31.175  13.285
11870W        W78279  42.440   5.694  11.626
11871W        W78280  35.436  21.038   0.745
11872W        W78281  19.774  33.574  14.583
11873W        W78282  20.727  31.422   1.688
11874W        W78283   0.004  39.037  12.337
11875W        W78284  30.631  32.241  12.361
11876W        W78285  11.157  29.492   2.775
11877W        W78286  31.406   9.295  14.429
11878W        W78287  36.794  17.126  11.162
11879W        W78288  24.219   0.609   1.840
11880W        W78289  33.380   4.423   4.041
11881W        W78290  20.151  20.786   4.439
11882W        W78291  30.966  18.829  13.439
11883W        W78292  28.817  31.674   2.448
11884W        W78293  10.940  39.714   1.501
11885W        W78294   5.125  32.487  14.030
11886W        W78295  13.361  17.519   1.389
11887W        W78296  20.805  22.136   0.415
11888W        W78297  37.583  43.234   0.716
11889W        W78298  19.090  29.455  14.107
11890W        W78299  44.368  16.321   4.866
11891W        W78300  12.070  20.618   3.986
11892W        W78301  41.501  21.281  14.329
11893W        W78302  13.810  34.522  11.560
11894W        W78303  38.271  15.554   2.416
11895W        W78304   2.217   4.419   0.250
11896W        W78305  13.321  40.929   1.954
11897W        W78306   1.457   1.930  10.896
11898W        W78307  32.317  42.884  13.110
11899W        W78308   7.970  14.652  11.317
11900W        W78309  36.411  19.827   1.795
11901W        W78310  14.529  33.150   0.365
11902W        W78311  30.863   6.693  13.637
11903W        W78312  41.955  16.129  14.943
11904W        W78313   8.367  22.610   4.867
11905W        W78314  31.210   9.357   4.843
11906W        W78315  35.078  40.190   4.586
11907W        W78316  34.569   5.466   4.580
11908W        W78317  25.406  33.297  11.466
11909W        W78318  31.088  43.092   1.771
11910W        W78319  30.516  44.186   5.073
11911W        W78320   4.880   9.172  10.584
11912W        W78321  16.222   5.814  14.278
11913W        W78322  34.579   0.331   0.831
11914W        W78323  40.787   5.539  11.957
11915W        W78324  27.921  34.118   3.173
11916W        W78325   2.986  43.521   2.262
11917W        W78326   1.107  29.534   0.888
11918W        W78327  28.984  23.040   4.579
11919W        W78328  13.690  29.790   2.690
11920W        W78329   5.329  34.209   4.197
11921W        W78330  14.724  26.839  11.097
11922W        W78331   9.471   4.017   4.521
11923W        W78332  17.643  20.455  12.542
11924W        W78333  13.634  19.288  12.858
11925W        W78334  36.557  35.188  11.627
11926W        W78335   1.360  10.689  10.222
11927W        W78336   4.245  35.016  14.094
11928W        W78337  19.871   1.688   2.218
11929W        W78338  22.696  39.037  12.919
11930W        W78339  33.846  42.343   3.769
11931W        W78340  25.104  31.415   3.319
11932W        W78341  17.726  31.891   4.068
11933W        W78342  16.730  41.539   1.423
11934W        W78343  17.549  18.670  13.820
11935W        W78344  37.217  18.028   3.699
11936W        W78345  40.843  22.325   3.813
11937W        W78346  26.335  12.802   4.433
11938W        W78347  17.268   0.898   3.064
11939W        W78348  29.526  38.490   0.359
11940W        W78349  35.837   3.362   2.266
11941W        W78350  23.235   7.071  10.408
11942W        W78351  38.401  15.610  11.038
11943W        W78352  23.481  14.601   3.914
11944W        W78353  15.144  40.978  14.331
11945W        W78354   9.205  16.126  14.607
11946W        W78355  22.485  25.493   4.128
11947W        W78356   8.642  26.481  11.961
11948W        W78357  27.494  35.844   2.712
11949W        W78358  34.826  26.057  12.001
11950W        W78359  41.009  41.283  11.999
11951W        W78360  44.157  12.929   5.085
11952W        W78361   9.749  21.804  13.568
11953W        W78362  39.062   4.939   2.336
11954W        W78363  40.895  24.954   0.797
11955W        W78364   0.611   2.172   4.109
11956W        W78365  13.874  35.865  14.148
11957W        W78366  42.407  25.116  12.503
11958W        W78367  17.119  43.965   3.670
11959W        W78368  31.390  42.950   2.887
11960W        W78369  10.940  25.175   2.695
11961W        W78370  41.756  14.097   3.332
11962W        W78371  39.789  18.350  13.864
11963W        W78372  36.814   4.233   0.048
11964W        W78373   3.575  36.566  12.002
11965W        W78374  15.275  42.455   1.332
11966W        W78375  30.297  36.223   3.096
11967W        W78376  18.010  40.274  10.197
11968W        W78377  23.026  27.876  13.583
11969W        W78378   9.834  30.319   4.750
11970W        W78379  31.657  10.130   0.795
11971W        W78380   3.430   5.475   3.321
11972W        W78381  29.561  42.396  11.132
11973W        W78382  17.560  29.545  12.054
11974W        W78383   4.720  40.770  11.743
11975W        W78384   3.657   6.804   1.387
11976W        W78385  14.782   1.760  13.608
11977W        W78386  36.956  42.931  13.954
11978W        W78387   8.658  36.201   1.773
11979W        W78388   3.931   4.722  12.081
11980W        W78389   9.129   7.623   4.154
11981W        W78390  40.299   2.901  14.319
11982W        W78391  34.042  34.792  12.944
11983W        W78392  36.915  25.992  11.588
11984W        W78393  40.990   6.837  13.089
11985W        W78394  29.779  16.108   1.615
11986W        W78395   0.517  28.464  14.455
11987W        W78396   0.910  20.173  10.710
11988W        W78397  28.899  36.962  13.268
11989W        W78398  12.290  37.336   5.135
11990W        W78399  43.542  40.935  10.710
11991W        W78400  29.725  37.291  14.734
11992W        W78401  34.572   3.884  11.613
11993W        W78402  32.503   4.793   4.061
11994W        W78403   5.885  17.375   3.164
11995W        W78404   4.303  24.713  13.767
11996W        W78405  29.622   0.524  10.579
11997W        W78406   0.868  30.045  13.959
11998W        W78407  18.735   5.640   3.325
11999W        W78408  30.863  30.226  12.961
12000W        W78409  36.933   9.693  14.078
12001W        W78410  13.920   5.730  12.010
12002W        W78411  37.160  10.321  11.706
12003W        W78412  33.167  22.201  13.757
12004W        W78413  24.226  42.700  13.084
12005W        W78414  40.016  22.998  12.054
12006W        W78415  25.587  32.596  10.823
12007W        W78416  23.556  43.466  10.657
12008W        W78417  14.405   9.307   4.584
12009W        W78418  19.637   8.464   3.259
12010W        W78419  22.054  30.637  10.566
12011W        W78420   8.355   6.337   3.283
12012W        W78421  28.081  31.465  14.844
12013W        W78422  16.122  12.248   1.671
12014W        W78423   6.120  13.804  13.421
12015W        W78424  11.542  42.824  14.065
12016W        W78425   2.355   3.434  11.612
12017W        W78426  37.161  31.275   4.022
12018W        W78427  30.415  17.225   4.985
12019W        W78428  26.995  30.502   2.268
12020W        W78429  33.925  44.825  14.335
12021W        W78430  32.163  27.863  12.616
12022W        W78431  42.626  23.270   0.977
12023W        W78432  31.608  19.537  10.986
12024W        W78433  23.498  13.682   4.718
12025W        W78434  13.230   2.074  12.055
12026W        W78435  40.986  15.820  13.510
12027W        W78436  13.589   8.424   0.280
12028W        W78437  30.072  43.164  12.806
12029W        W78438  33.022  21.592   1.691
12030W        W78439   8.685   8.845   0.242
12031W        W78440   4.439  26.942   0.821
12032W        W78441  43.431  16.726  10.884
12033W        W78442   6.163  39.381  11.867
12034W        W78443  39.719  12.175  12.017
12035W        W78444  14.823  41.404   0.253
12036W        W78445  19.233  19.692  11.662
12037W        W78446   8.289  22.944  12.485
12038W        W78447   7.298  16.870   3.601
12039W        W78448  10.703  25.162   3.148
12040W        W78449  43.815  35.400  11.542
12041W        W78450   9.519   4.816  14.269
12042W        W78451   7.935  43.556  11.102
12043W        W78452   6.359  41.506  12.084
12044W        W78453  10.600  34.971   0.489
12045W        W78454  36.487  43.201   2.225
12046W        W78455  15.853   6.766  11.682
12047W        W78456  38.447   0.978   0.826
12048W        W78457  18.092  38.294   3.271
12049W        W78458   6.919   6.222  12.131
12050W        W78459  17.988   1.780   3.761
12051W        W78460  32.658  32.314   4.662
12052W        W78461  16.674  16.616   1.312
12053W        W78462  32.872  27.761  13.078
12054W        W78463  25.663  26.528   2.354
12055W        W78464  22.614  10.616   4.302
12056W        W78465  29.016  10.418   3.155
12057W        W78466   1.504  25.120   0.798
12058W        W78467  40.056   3.119  10.559
12059W        W78468  38.583   0.957   1.776
12060W        W78469  32.675  32.312  11.557
12061W        W78470  26.152  35.311  13.396
12062W        W78471  44.634  29.415  10.250
12063W        W78472  41.010   5.842  11.176
12064W        W78473  40.086  33.834  11.175
12065W        W78474  21.764  34.679   3.189
12066W        W78475  16.788  21.327  12.911
12067W        W78476  13.761  26.155   4.454
12068W        W78477  28.555  41.801   4.043
12069W        W78478  28.889  16.603   2.602
12070W        W78479  24.536  35.537  14.268
12071W        W78480  25.610  44.220  14.876
12072W        W78481  36.088  28.501   3.073
12073W        W78482  44.417  15.106   2.625
12074W        W78483  26.808   8.274   2.217
12075W        W78484  14.014  30.028  11.114
12076W        W78485  29.135  17.775  11.883
12077W        W78486  13.519  21.206   2.280
12078W        W78487  38.915   6.693  13.982
12079W        W78488  31.508  29.141  11.603
12080W        W78489  26.972  11.364   1.345
12081W        W78490  38.028  38.172   4.205
12082W        W78491  21.977  23.401   5.072
12083W        W78492   9.739  11.328  14.538
12084W        W78493  37.868  22.467  10.672
12085W        W78494  22.576  13.572   1.795
12086W        W78495  12.934  17.671  11.662
12087W        W78496  26.549  36.813   1.355
12088W        W78497  22.503  29.737  14.383
12089W        W78498  36.896  11.904   4.224
12090W        W78499  10.789  27.876   1.465
12091W        W78500  21.129   6.872  12.891
12092W        W78501   3.830  25.753  12.320
12093W        W78502  40.775  21.693   3.146
12094W        W78503  17.367  13.047  13.557
12095W        W78504  42.862  42.933   4.193
12096W        W78505  35.283  12.758  10.180
12097W        W78506  22.767  20.583   1.513
12098W        W78507  23.784  42.650  14.467
12099W        W78508  25.063  21.522   5.090
12100W        W78509  39.085   9.118  11.091
12101W        W78510  17.284  35.903  11.533
12102W        W78511  18.861  12.663  14.468
12103W        W78512   5.083  18.836  13.449
12104W        W78513  18.030  16.535  10.614
12105W        W78514  43.807  23.496   4.606
12106W        W78515  20.296   7.227  14.502
12107W        W78516  27.143  16.109  12.965
12108W        W78517  18.250  18.995   1.404
12109W        W78518  28.471   6.438   3.347
12110W        W78519   9.326  14.139  11.921
12111W        W78520  27.472   9.403  10.222
12112W        W78521   7.163  19.279  11.358
12113W        W78522  33.008  18.066  13.334
12114W        W78523  12.674   0.301   1.465
12115W        W78524  17.844  38.806   3.089
12116W        W78525  25.692  38.478  12.509
12117W        W78526  44.883  26.945   2.641
12118W        W78527  23.929  18.180   1.873
12119W        W78528   6.397   1.526  11.181
12120W        W78529   4.281  11.248   2.269
12121W        W78530   4.976  25.262   1.400
12122W        W78531  27.672  44.878  14.787
12123W        W78532   7.875  41.550  10.370
12124W        W78533   5.734  44.740   0.345
12125W        W78534   0.736  17.672  14.885
12126W        W78535  27.194   9.660   4.007
12127W        W78536   0.235  26.476  14.546
12128W        W78537  10.853  38.544  11.721
12129W        W78538   6.977   2.948   0.371
12130W        W78539  35.462  23.250   3.242
12131W        W78540  24.184  11.912   4.646
12132W        W78541  23.626  38.465   0.729
12133W        W78542  20.296  41.604   2.766
12134W        W78543  27.476  39.476   0.524
12135W        W78544  27.648   0.336   0.410
12136W        W78545  24.403  13.805   3.800
12137W        W78546  34.815   7.408   0.770
12138W        W78547   4.799  13.963  13.389
12139W        W78548  34.488  31.351   2.869
12140W        W78549   4.027  30.507   4.504
12141W        W78550  17.117   6.856   3.596
12142W        W78551  14.664  11.703   3.853
12143W        W78552  44.226   3.168   0.945
12144W        W78553  13.099  41.516   2.802
12145W        W78554  15.847  27.636   3.704
12146W        W78555  23.272   2.154  13.492
12147W        W78556  16.226  39.469   3.581
12148W        W78557   3.408  37.097  11.396
12149W        W78558  28.367  19.717   3.336
12150W        W78559  25.631  41.800  10.615
12151W        W78560   3.161   8.455   2.375
12152W        W78561  13.270  35.383  11.048
12153W        W78562  30.618  42.433   0.295
12154W        W78563  16.811  40.073   4.236
12155W        W78564  44.059  13.003  11.691
12156W        W78565  42.310  29.148  13.344
12157W        W78566  16.249  37.660   1.863
12158W        W78567  31.873   9.421   2.328
12159W        W78568  13.226  32.153   0.753
12160W        W78569  37.666  34.117  13.905
12161W        W78570   6.368  34.446   1.768
12162W        W78571  17.206  22.340  14.144
12163W        W78572  22.628  22.483   0.728
12164W        W78573  12.851   9.884   0.859
12165W        W78574  33.781  10.636  12.559
12166W        W78575  27.903  19.654  12.911
12167W        W78576  23.639  11.879  13.311
12168W        W78577  40.466  29.916  11.544
12169W        W78578  13.948  23.059   3.283
12170W        W78579  41.936  35.770   3.689
12171W        W78580   8.789  24.181  12.664
12172W        W78581   6.643  35.644  14.360
12173W        W78582  40.425  42.529  13.424
12174W        W78583  32.832  34.562   1.344
12175W        W78584   0.098  30.429   3.753
12176W        W78585  12.737  42.276  14.778
12177W        W78586  34.003  16.088  10.710
12178W        W78587  14.993   4.432  12.495
12179W        W78588  44.459  18.971  12.608
12180W        W78589  29.784  17.377  14.794
12181W        W78590  17.282  43.256  13.186
12182W        W78591  27.453  41.490   4.862
12183W        W78592   9.329   6.679   3.277
12184W        W78593   3.907  42.785   1.646
12185W        W78594  10.469   5.727  12.517
12186W        W78595   8.399  31.493  10.523
12187W        W78596  29.278  12.736   2.629
12188W        W78597  14.993  13.142   1.010
12189W        W78598  33.201   1.260  10.326
12190W        W78599  22.678  13.040  10.339
12191W        W78600   8.898  13.537   4.082
12192W        W78601  37.928  33.012   4.578
12193W        W78602  19.686  41.607  12.176
12194W        W78603  32.590  24.078   0.914
12195W        W78604  26.474  17.145  13.453
12196W        W78605   9.891  38.126  13.120
12197W        W78606   8.353  39.859   4.271
12198W        W78607  12.212   8.090   1.293
12199W        W78608  30.722  11.516   4.583
12200W        W78609   1.507  10.278  10.597
12201W        W78610   5.472  15.148   1.885
12202W        W78611   9.631  39.944  12.595
12203W        W78612  42.731  42.691   0.864
12204W        W78613  41.025  21.995  10.986
12205W        W78614  29.606  19.596   0.230
12206W        W78615  29.688  40.166   2.591
12207W        W78616  33.193  26.501  13.492
12208W        W78617  44.016  19.903  12.592
12209W        W78618  14.751  41.052  13.081
12210W        W78619  16.702  31.238   0.325
12211W        W78620  26.267  23.502  11.997
12212W        W78621  33.081   9.288  13.814
12213W        W78622  34.148  18.058   0.879
12214W        W78623  44.203  24.017  11.509
12215W        W78624   6.285  27.395   4.145
12216W        W78625   6.559  34.869   3.151
12217W        W78626  43.526  26.696  13.673
12218W        W78627   3.715  37.135  10.996
12219W        W78628   6.174  33.393  14.016
12220W        W78629  27.214  39.546  14.199
12221W        W78630   4.159  19.240  13.134
12222W        W78631   4.716  34.638   0.040
12223W        W78632  30.880  37.382   0.675
12224W        W78633  11.465  30.890   3.267
12225W        W78634  28.260  37.738  13.501
12226W        W78635  38.085   7.106   2.706
12227W        W78636  36.499  17.375  13.548
12228W        W78637  13.700  31.113  12.246
12229W        W78638   3.439  35.883  11.174
12230W        W78639  10.556   4.678   2.316
12231W        W78640  39.996   9.110  12.029
12232W        W78641  34.911  10.239  12.620
12233W        W78642  30.915  27.868   0.939
12234W        W78643   7.371  21.251  11.543
12235W        W78644  26.040  26.732  11.647
12236W        W78645  29.032  41.825  13.323
12237W        W78646  23.853  35.460  11.702
12238W        W78647  44.530   3.217   2.370
12239W        W78648  25.587   2.632  11.735
12240W        W78649  24.725  22.594  13.052
12241W        W78650  32.644  37.053  10.731
12242W        W78651  23.592  23.462   0.012
12243W        W78652   9.742  16.135  14.475
12244W        W78653   2.766  21.209   1.381
12245W        W78654  39.362  36.550   4.109
12246W        W78655   6.402  28.714   5.082
12247W        W78656  20.733  18.734  12.396
12248W        W78657  43.104   0.733   1.722
12249W        W78658  41.582   5.821  13.448
12250W        W78659  32.421   7.946   0.212
12251W        W78660  36.125  29.482   0.886
12252W        W78661  13.308  34.926   0.677
12253W        W78662  38.664  18.033  13.430
12254W        W78663  40.007  22.182   2.263
12255W        W78664  25.072  13.680   3.482
12256W        W78665  35.412  40.338   3.962
12257W        W78666  39.287  27.014   3.326
12258W        W78667  40.630  34.831   5.127
12259W        W78668  11.422  39.044  12.378
12260W        W78669  37.805  22.942  11.637
12261W        W78670  32.005  39.453   4.261
12262W        W78671   0.481  18.266   0.332
12263W        W78672  16.332  27.145  12.073
12264W        W78673  43.951  17.989   1.137
12265W        W78674  39.061   9.187   0.367
12266W        W78675  24.819  15.865   0.766
12267W        W78676  44.376  30.567   2.982
12268W        W78677  13.953  31.439  12.587
12269W        W78678  35.317  25.738   3.321
12270W        W78679   6.146  43.815   0.553
12271W        W78680   4.795  13.174  12.964
12272W        W78681  23.507  12.705   0.828
12273W        W78682  36.676   0.352   1.821
12274W        W78683  18.160  18.665   3.857
12275W        W78684  36.303  22.926   4.879
12276W        W78685  42.393   6.159  11.449
12277W        W78686  19.821  31.760  13.668
12278W        W78687  36.935   6.217  13.850
12279W        W78688  42.808  40.781  12.574
12280W        W78689  11.578  13.661   9.955
12281W        W78690  39.412  34.018  10.567
12282W        W78691  16.543   3.787   1.831
12283W        W78692  35.494  12.301  14.967
12284W        W78693  28.667   0.351   0.398
12285W        W78694  20.683   3.561   0.412
12286W        W78695  30.956  15.125   0.033
12287W        W78696  30.467   6.862   0.176
12288W        W78697  24.809  12.890   0.449
12289W        W78698  13.732  22.635   0.823
12290W        W78699  19.350  43.861   1.895
12291W        W78700  21.465   5.432   1.053
12292W        W78701  28.772  44.914   0.125
12293W        W78702   9.333   2.118   0.803
12294W        W78703  35.609  26.749  14.233
12295W        W78704  18.337  34.040   2.389
12296W        W78705  31.485  30.940  13.271
12297W        W78706   2.583  28.354  14.750
12298W        W78707  26.778  37.420  13.399
12299W        W78708  40.601  40.389   3.710
12300W        W78709  19.681  14.652   1.171
12301W        W78710  11.233  35.115  14.033
12302W        W78711   3.250  18.552   0.259
12303W        W78712  18.557  23.775  13.941
12304W        W78713  33.980  40.373   3.869
12305W        W78714  44.778  33.618   0.710
12306W        W78715   7.777  33.130  11.010
12307W        W78716  42.948  40.334  12.836
12308W        W78717   3.864  35.857   1.238
12309W        W78718   1.709  35.579   2.355
12310W        W78719   0.905  22.280  14.710
12311W        W78720   5.889  17.621   1.221
12312W        W78721  22.141  20.275  13.359
12313W        W78722  23.302  33.198   4.239
12314W        W78723  15.775  27.719  14.211
12315W        W78724  10.494  28.774  12.406
12316W        W78725   4.855  28.926   3.364
12317W        W78726  33.831  12.409   2.759
12318W        W78727   1.700  33.384  12.007
12319W        W78728  41.161  16.519   4.566
12320W        W78729  28.470   0.322  14.923
12321W        W78730   8.996  17.196   0.317
12322W        W78731  35.305  37.030  13.056
12323W        W78732  10.507  29.599  11.577
12324W        W78733  28.875  33.539   3.718
12325W        W78734  38.318   4.176   2.887
12326W        W78735  35.449  26.986   4.435
12327W        W78736   3.551   2.366  12.950
12328W        W78737  31.168   8.549   4.167
12329W        W78738  13.225  33.873  13.659
12330W        W78739   6.885  33.489  10.921
12331W        W78740  15.053   9.370   1.697
12332W        W78741  41.396  15.849   1.665
12333W        W78742  44.547  42.725   0.201
12334W        W78743  22.651  29.011   4.968
12335W        W78744  24.239  20.463   4.618
12336W        W78745  25.291  23.825  12.061
12337W        W78746  19.701  37.797   1.678
12338W        W78747  31.456  34.193   2.660
12339W        W78748   6.201  28.832  13.469
12340W        W78749  25.161   1.159  13.414
12341W        W78750  43.024   1.317  11.622
12342W        W78751   8.387   6.606  11.100
12343W        W78752  39.037  40.976  13.710
12344W        W78753  41.631  20.711   3.772
12345W        W78754  21.459  20.515  12.002
12346W        W78755  21.477  34.384   4.142
12347W        W78756  34.408   2.962   2.597
12348W        W78757  13.325   4.256  11.354
12349W        W78758  31.931  14.824   1.802
12350W        W78759  28.234   7.071   2.224
12351W        W78760   8.269  42.212   1.881
12352W        W78761  43.233  33.094   3.095
12353W        W78762  38.773  28.329   1.341
12354W        W78763   3.536  31.768   2.863
12355W        W78764  40.841  42.861  13.858
12356W        W78765  11.827   5.890  13.142
12357W        W78766  12.122   3.747  12.508
12358W        W78767  31.194  14.569  13.771
12359W        W78768  36.355  32.526   4.670
12360W        W78769  31.970  10.813  13.620
12361W        W78770  40.283   1.842   3.576
12362W        W78771  20.369  22.443  13.407
12363W        W78772  26.180  38.310   3.585
12364W        W78773  33.411   9.326  10.668
12365W        W78774   7.198  28.973  13.544
12366W        W78775   7.059  33.599   1.703
12367W        W78776  10.838  38.935   4.819
12368W        W78777  15.649   0.966   1.773
12369W        W78778  30.066  16.056   3.985
12370W        W78779  39.826  26.547   4.537
12371W        W78780  33.966   0.952  13.274
12372W        W78781  43.801  43.905  11.872
12373W        W78782  37.624  18.267  13.440
12374W        W78783  28.268  34.930   2.131
12375W        W78784  12.092  23.058   4.505
12376W        W78785   8.310  42.944  10.438
12377W        W78786  21.719   3.431  14.891
12378W        W78787   1.865  22.328  11.006
12379W        W78788   7.688  19.396  11.554
12380W        W78789   2.390  21.639  12.553
12381W        W78790  40.935  20.703   3.404
12382W        W78791  38.116  14.173  11.069
12383W        W78792   3.317  27.670   0.502
12384W        W78793  19.095  11.662  14.749
12385W        W78794  40.271   2.493  14.865
12386W        W78795   0.784  33.453  14.076
12387W        W78796  15.248  14.107   2.146
12388W        W78797  31.957  17.345  13.280
12389W        W78798  28.060  29.916   1.410
12390W        W78799   9.325  17.530  14.798
12391W        W78800  34.678  28.549  11.641
12392W        W78801  23.145  44.905   1.952
12393W        W78802  22.495  42.137   4.347
12394W        W78803   8.247  17.850   2.636
12395W        W78804  40.889  35.009   4.264
12396W        W78805  29.528   4.359   3.698
12397W        W78806  30.656  17.067  10.903
12398W        W78807   1.466  11.385  13.718
12399W        W78808  39.869  18.189  12.810
12400W        W78809   7.215  14.724  12.976
12401W        W78810   8.264   3.592   4.608
12402W        W78811   6.348  43.070  14.372
12403W        W78812   7.627  32.191  11.353
12404W        W78813  28.650   9.905  13.984
12405W        W78814   5.432  28.944  11.915
12406W        W78815  37.387  28.054   2.055
12407W        W78816  19.449  25.922  14.943
12408W        W78817  37.606  25.463   1.812
12409W        W78818   5.816  26.460  11.502
12410W        W78819  17.999   6.381  14.515
12411W        W78820  44.262  44.280  14.424
12412W        W78821  20.501  19.623   4.946
12413W        W78822  35.964  27.294   4.962
12414W        W78823   8.000  23.022   2.679
12415W        W78824   2.732  12.196   3.186
12416W        W78825  12.426  34.843   0.118
12417W        W78826  12.174  17.521  14.475
12418W        W78827  15.595  31.112  11.176
12419W        W78828  22.053   8.750  13.962
12420W        W78829  34.359   6.803  10.940
12421W        W78830  34.120  43.310   0.567
12422W        W78831  10.264  25.813  12.153
12423W        W78832  33.854  30.783  14.628
12424W        W78833  30.164  20.318  10.799
12425W        W78834  24.302  42.923  12.211
12426W        W78835  35.113  17.230  11.670
12427W        W78836  35.550  34.528  13.699
12428W        W78837  34.994  25.527  12.110
12429W        W78838   0.303  42.744   1.484
12430W        W78839   3.925   2.936   1.739
12431W        W78840  30.401  44.014  13.799
12432W        W78841  44.203  12.638   2.469
12433W        W78842  39.437  16.476  12.608
12434W        W78843  25.131   6.488   1.925
12435W        W78844   7.365  41.823  13.405
12436W        W78845   6.373   8.014   3.236
12437W        W78846  11.589  25.160  11.203
12438W        W78847  23.337  36.416  13.133
12439W        W78848  22.770  29.917  11.465
12440W        W78849  11.324  22.450  11.116
12441W        W78850  13.250  37.604   2.813
12442W        W78851   9.219   4.916   3.639
12443W        W78852  12.718  20.219  12.829
12444W        W78853  12.206  17.645  11.192
12445W        W78854  33.701   5.961  11.956
12446W        W78855  31.392  21.570   0.258
12447W        W78856   0.905   3.280   3.352
12448W        W78857  36.335  27.502   4.661
12449W        W78858  12.312  20.707  11.508
12450W        W78859  26.162   5.598  14.435
12451W        W78860  22.550   3.394   0.315
12452W        W78861   6.603  37.813   4.538
12453W        W78862  20.951  41.538  13.440
12454W        W78863  16.005   9.903   2.300
12455W        W78864  30.045   4.686  14.538
12456W        W78865  19.032  44.188  11.548
12457W        W78866  31.316  22.195  10.854
12458W        W78867  41.394  23.974   2.672
12459W        W78868   1.116  15.900   0.507
12460W        W78869  33.887  40.113   3.108
12461W        W78870  39.707   5.076  11.972
12462W        W78871  21.062   6.537  14.487
12463W        W78872   6.432  44.517  12.401
12464W        W78873  11.351  24.321   3.716
12465W        W78874  39.823  19.723  12.470
12466W        W78875  39.903   7.446   3.602
12467W        W78876  43.891  33.914   1.231
12468W        W78877  37.582   9.260   5.017
12469W        W78878  31.409  33.950  13.809
12470W        W78879   0.346  31.376  10.686
12471W        W78880   4.245  22.525   9.899
12472W        W78881  19.292  21.349   3.385
12473W        W78882  33.582   6.857  14.817
12474W        W78883  30.617   1.604  12.479
12475W        W78884  10.230  19.248  14.093
12476W        W78885   0.934  20.797  13.022
12477W        W78886  24.008  20.277   3.086
12478W        W78887  31.848  23.752  13.848
12479W        W78888  29.720  41.884   3.688
12480W        W78889  18.704  12.883  14.918
12481W        W78890  17.646  26.168  12.004
12482W        W78891  15.692  43.374   4.529
12483W        W78892   2.393  13.033   4.933
12484W        W78893   1.227   4.326   2.817
12485W        W78894   8.672   4.392  13.883
12486W        W78895  32.139  39.293   1.637
12487W        W78896  40.209  22.470  14.161
12488W        W78897  36.563  10.646  11.578
12489W        W78898   6.759   0.326   0.050
12490W        W78899  36.588  20.986   4.444
12491W        W78900  24.104  41.375   4.079
12492W        W78901   9.791  28.772   3.544
12493W        W78902  16.556  38.553  13.855
12494W        W78903  39.431  44.620   2.723
12495W        W78904   6.258  35.311   4.310
12496W        W78905   9.837  35.816  13.031
12497W        W78906  35.059  34.800  12.373
12498W        W78907  18.573  19.215  14.684
12499W        W78908  44.993  33.981   4.765
12500W        W78909  41.932  40.438  11.589
12501W        W78910  14.735  17.022  13.557
12502W        W78911  12.260  35.645   4.686
12503W        W78912   6.219  22.191  10.843
12504W        W78913  21.429  25.724  13.811
12505W        W78914  22.016  27.791  12.400
12506W        W78915  19.810  13.805  13.624
12507W        W78916  41.905  24.053   2.516
12508W        W78917  10.940  20.233  14.883
12509W        W78918  19.469   7.286  14.024
12510W        W78919  44.495  38.984  12.576
12511W        W78920   4.783   7.590   0.742
12512W        W78921  32.110  35.413   3.153
12513W        W78922  10.824  44.336   0.326
12514W        W78923  37.591   1.951   4.084
12515W        W78924  26.867   6.846  14.860
12516W        W78925  18.477  42.308   4.623
12517W        W78926   4.874   3.018  12.026
12518W        W78927  34.044  28.925   3.630
12519W        W78928  25.973  44.547   1.942
12520W        W78929   8.591  22.194  14.284
12521W        W78930  31.601  36.491   4.150
12522W        W78931   7.591  37.187   3.680
12523W        W78932   4.255   2.019   1.815
12524W        W78933  20.400  35.653  11.684
12525W        W78934  23.210  39.374   0.252
12526W        W78935  19.516  21.444   4.847
12527W        W78936  26.530  16.047  12.203
12528W        W78937   7.269  11.712   0.355
12529W        W78938   1.005  21.738   3.159
12530W        W78939  32.876  44.514   1.438
12531W        W78940  42.393   7.520   1.915
12532W        W78941  21.035   2.278  12.771
12533W        W78942   0.862  16.658  14.891
12534W        W78943  35.674   1.436   2.578
12535W        W78944   8.250  30.964  14.329
12536W        W78945   2.409  19.059   1.245
12537W        W78946  21.701   7.228   3.142
12538W        W78947  31.054  16.063   4.462
12539W        W78948  41.545   1.523  13.063
12540W        W78949   5.577   2.024   0.647
12541W        W78950  44.115  19.595   2.950
12542W        W78951  39.074   7.887  12.779
12543W        W78952  16.276  36.105   0.304
12544W        W78953  17.382  43.417  11.062
12545W        W78954   0.908  25.775   0.790
12546W        W78955  41.784  18.252  11.679
12547W        W78956  10.797  37.600   0.908
12548W        W78957  43.403   5.283   3.694
12549W        W78958   1.967  42.172   1.134
12550W        W78959  40.443  36.410  14.973
12551W        W78960  39.918  19.590  14.842
12552W        W78961  38.913  39.974   4.618
12553W        W78962  41.885   6.899  12.892
12554W        W78963  34.637  10.240  14.865
12555W        W78964  27.094  10.201  11.732
12556W        W78965  11.611  41.721   1.924
12557W        W78966  32.095  42.937  12.617
12558W        W78967  34.082  44.382   4.220
12559W        W78968  32.586  27.244   3.223
12560W        W78969  43.837  10.737  13.934
12561W        W78970  26.589  32.110  10.410
12562W        W78971   9.162  38.378   2.346
12563W        W78972   3.894  32.973  11.211
12564W        W78973   5.234  33.605  11.455
12565W        W78974   6.678  17.181  13.842
12566W        W78975  11.960  42.011  13.322
12567W        W78976  13.078  23.169   4.086
12568W        W78977   6.503  17.447  11.603
12569W        W78978  21.973  33.513  12.400
12570W        W78979   4.481  15.668  12.122
12571W        W78980   1.949  15.875   0.159
12572W        W78981  43.545  42.433   2.844
12573W        W78982  31.172   2.252   0.804
12574W        W78983   4.887  30.402   3.559
12575W        W78984   9.265  29.762   4.106
12576W        W78985   1.658  43.336  14.524
12577W        W78986  34.620  35.246  14.425
12578W        W78987  27.922   4.880  12.617
12579W        W78988  34.936  41.290   2.320
12580W        W78989   8.832  18.906  12.302
12581W        W78990   6.603  33.956  14.202
12582W        W78991   6.893  34.792   2.177
12583W        W78992  29.589  43.475  12.415
12584W        W78993  35.324  18.731  13.513
12585W        W78994  40.849  31.231  10.735
12586W        W78995   7.422  40.441   1.660
12587W        W78996  30.904  22.133   0.877
12588W        W78997  36.548  41.940  14.835
12589W        W78998   3.072  17.652   0.091
12590W        W78999  23.959  40.863   0.396
12591W        W79000  30.606  11.074   0.738
12592W        W79001   0.271  12.766   2.237
12593W        W79002  22.655  35.086  12.951
12594W        W79003  41.347  43.486  12.173
12595W        W79004  19.730  21.283   0.634
12596W        W79005  24.508   5.821   1.879
12597W        W79006  28.513  11.132  12.255
12598W        W79007  21.663  18.811  13.757
12599W        W79008  34.708  38.840  12.228
12600W        W79009  33.008  30.377  10.779
12601W        W79010  21.020  42.783  12.006
12602W        W79011  31.985  38.977   2.944
12603W        W79012   0.772  18.482  11.205
12604W        W79013  18.232   9.085  14.458
12605W        W79014  43.210  22.271  11.485
12606W        W79015   9.513  29.423  12.341
12607W        W79016  11.138   3.781   2.413
12608W        W79017  25.173  14.862  11.433
12609W        W79018   7.613  40.284   2.717
12610W        W79019   5.268  16.682   2.150
12611W        W79020  16.690  16.613   3.164
12612W        W79021  23.031  43.555  10.621
12613W        W79022  41.534  37.410   4.338
12614W        W79023  11.841   4.362  14.603
12615W        W79024  20.517  29.076  11.700
12616W        W79025  43.184  27.018  12.057
12617W        W79026  33.776  16.298   0.757
12618W        W79027  37.988  38.435   4.684
12619W        W79028  31.382   9.893  11.588
12620W        W79029  34.935  15.090   1.480
12621W        W79030  22.566  20.317   3.673
12622W        W79031  20.318  31.674  12.553
12623W        W79032  20.229  14.152  12.125
12624W        W79033  37.127  28.437  14.958
12625W        W79034  14.075  38.846  14.380
12626W        W79035   8.323   9.697   4.364
12627W        W79036   8.365  37.824  12.866
12628W        W79037   3.197  24.134   0.532
12629W        W79038  11.415  36.427  10.561
12630W        W79039  32.422   5.356  10.873
12631W        W79040   9.889  21.055   1.241
12632W        W79041  34.609  33.573   0.487
12633W        W79042  26.671   7.718  12.968
12634W        W79043   8.467  14.663   1.234
12635W        W79044  27.214   4.476  12.912
12636W        W79045  26.226  22.096   1.693
12637W        W79046  26.998  33.513  10.610
12638W        W79047  18.970   8.927   3.900
12639W        W79048   6.767  34.559   4.117
12640W        W79049  28.417  12.354   3.071
12641W        W79050  39.875  37.890   4.540
12642W        W79051  27.904  32.527  12.931
12643W        W79052   1.745   1.489   2.373
12644W        W79053   4.125  24.118  12.054
12645W        W79054   5.961  19.722  13.808
12646W        W79055  37.624  10.387   1.719
12647W        W79056   4.689   5.546  14.863
12648W        W79057  17.043  42.036  10.492
12649W        W79058  23.449  38.876   3.703
12650W        W79059  26.826   8.700  12.937
12651W        W79060  22.054  25.557  10.771
12652W        W79061   0.313   6.007   1.020
12653W        W79062  41.077  39.041  10.440
12654W        W79063   0.400  12.381  12.042
12655W        W79064   1.026  20.096   1.903
12656W        W79065  33.449  13.899  13.409
12657W        W79066  20.297   4.628   1.870
12658W        W79067  26.672  10.404  12.134
12659W        W79068  19.616  22.001   1.402
12660W        W79069  10.349   8.132   4.125
12661W        W79070   3.750  20.993  12.130
12662W        W79071  26.429  44.494  12.279
12663W        W79072  18.774  34.045  13.213
12664W        W79073  12.891  17.157  11.935
12665W        W79074   6.732  20.788  10.665
12666W        W79075  32.451  22.037   0.917
12667W        W79076  33.296   8.774   0.832
12668W        W79077   2.562  13.773  13.289
12669W        W79078  44.936   5.034  13.569
12670W        W79079  21.762   6.416  11.068
12671W        W79080  16.641   3.127  11.952
12672W        W79081  10.694  36.598  12.512
12673W        W79082  30.763  28.912  11.018
12674W        W79083   9.381  17.995  10.634
12675W        W79084   8.852  40.928   3.663
12676W        W79085  26.961  12.872  14.383
12677W        W79086  40.736   0.390  13.741
12678W        W79087  10.406  19.754   4.664
12679W        W79088  32.153   1.929   0.157
12680W        W79089  44.657  37.479  14.460
12681W        W79090  25.224   2.933  13.971
12682W        W79091  27.563  19.839  11.942
12683W        W79092  26.426  15.265   3.776
12684W        W79093  19.093  11.170   3.167
12685W        W79094  41.796   1.873   1.343
12686W        W79095  35.834  43.404   3.759
12687W        W79096  37.446   7.614   4.787
12688W        W79097   4.969  21.133  13.323
12689W        W79098  17.875  20.890  10.231
12690W        W79099  29.526  15.294   3.589
12691W        W79100  22.748  37.243   2.354
12692W        W79101  21.553  42.512   1.370
12693W        W79102  27.396  32.588  13.021
12694W        W79103  26.211   3.952   0.148
12695W        W79104  13.138  10.354   3.234
12696W        W79105   9.411  14.147   3.162
12697W        W79106   1.343  28.176   0.838
12698W        W79107  19.295  43.487   3.325
12699W        W79108   7.758  15.705  12.017
12700W        W79109  21.224   5.711  12.093
12701W        W79110  31.433  41.829  13.042
12702W        W79111   1.365   1.521   0.400
12703W        W79112  16.526  14.279  12.448
12704W        W79113   2.444  39.409  12.853
12705W        W79114  21.601  11.170  13.378
12706W        W79115  43.283   5.469   1.833
12707W        W79116  26.655  18.117   2.880
12708W        W79117  40.235   6.265   3.726
12709W        W79118  15.823  29.111   0.548
12710W        W79119   1.808  18.076  13.541
12711W        W79120  40.965  35.379  14.496
12712W        W79121  12.833  11.147  10.393
12713W        W79122  24.585   8.348   9.967
12714W        W79123  22.221  30.213   2.801
12715W        W79124  25.223  23.685   5.433
12716W        W79125  40.536   9.093  13.561
12717W        W79126  42.283  18.143  11.584
12718W        W79127  16.074  23.730   0.762
12719W        W79128  36.307  27.199  14.283
12720W        W79129  26.506  37.579   3.185
12721W        W79130  34.447  31.118  12.491
12722W        W79131  40.978  33.085   2.738
12723W        W79132  20.843  24.819   2.786
12724W        W79133  39.359  28.204  14.949
12725W        W79134   0.309  40.720  10.595
12726W        W79135   8.176  44.345   4.220
12727W        W79136   1.160   2.878  12.895
12728W        W79137  35.623  37.111   2.843
12729W        W79138  20.699  36.144   4.622
12730W        W79139  20.018   9.935   3.213
12731W        W79140  19.056   1.295   4.263
12732W        W79141  14.181  41.802  13.816
12733W        W79142  16.197  16.371   1.221
12734W        W79143  11.669   0.968   3.561
12735W        W79144  14.565  14.663   4.076
12736W        W79145  36.133  13.565   0.751
12737W        W79146  42.437  18.397   0.899
12738W        W79147  10.365  11.761  14.967
12739W        W79148  28.967   4.457  11.311
12740W        W79149   7.343  17.056   3.124
12741W        W79150  22.476   2.121   5.115
12742W        W79151  40.006  36.081  14.941
12743W        W79152  32.801  11.569   2.743
12744W        W79153  40.530  15.136  10.559
12745W        W79154  34.022  38.045   4.017
12746W        W79155  16.089  28.756  14.819
12747W        W79156   8.095  32.532  13.896
12748W        W79157  38.334  26.773   3.367
12749W        W79158  35.678  33.509   3.770
12750W        W79159  33.470  39.777   3.182
12751W        W79160  33.370  31.065  12.068
12752W        W79161  21.758  28.451  12.626
12753W        W79162  40.829  12.175   3.682
12754W        W79163  34.787  13.353   4.486
12755W        W79164  39.104  20.942   2.301
12756W        W79165  14.430  24.842   2.404
12757W        W79166   8.241  10.352  12.860
12758W        W79167  34.460  28.551   4.513
12759W        W79168  23.811  33.165   4.232
12760W        W79169  24.664  36.389  14.686
12761W        W79170  38.371  25.646  13.423
12762W        W79171  13.340  20.791   4.695
12763W        W79172  22.598   3.842   4.572
12764W        W79173  44.852  11.595   1.741
12765W        W79174  27.423  15.715   4.525
12766W        W79175   0.780  20.456   4.108
12767W        W79176   9.877  30.483   0.012
12768W        W79177  16.029  44.700   3.687
12769W        W79178  31.419  22.037  13.025
12770W        W79179  38.863  37.718   3.012
12771W        W79180   0.961  26.984  13.381
12772W        W79181  38.502  30.578  12.995
12773W        W79182  28.936  25.487  13.876
12774W        W79183   2.762  15.603  11.625
12775W        W79184  17.690  10.745   3.130
12776W        W79185  22.128  16.201  10.683
12777W        W79186  18.750  15.292  12.096
12778W        W79187  30.133  13.679   3.191
12779W        W79188   9.722  31.371  11.577
12780W        W79189  40.491  32.585  10.941
12781W        W79190  34.698  13.254   1.582
12782W        W79191   3.914  35.208   3.660
12783W        W79192  25.774  18.722   0.789
12784W        W79193   2.224  25.983   3.720
12785W        W79194  26.642  23.523   0.401
12786W        W79195  44.253   4.708   2.378
12787W        W79196  26.620   6.922  14.409
12788W        W79197  27.247   8.454   0.877
12789W        W79198  29.884  32.357   4.087
12790W        W79199  22.092  10.293   1.456
12791W        W79200  18.790  17.060   4.325
12792W        W79201   1.697  22.758   2.081
12793W        W79202  18.826  23.752  11.610
12794W        W79203   8.071  42.544  13.279
12795W        W79204  31.432  42.722   4.554
12796W        W79205  30.796  32.843  14.907
12797W        W79206   8.671  31.688   0.778
12798W        W79207  14.757  42.288   0.753
12799W        W79208  15.622  40.307  12.500
12800W        W79209  30.923   3.775   1.325
12801W        W79210  32.638  29.998  13.001
12802W        W79211  29.216  39.393  14.490
12803W        W79212  44.138  12.197   4.625
12804W        W79213  30.868   9.317  11.862
12805W        W79214  12.223  26.150  13.959
12806W        W79215  37.179   5.378   4.666
12807W        W79216   2.453  27.365   1.528
12808W        W79217  36.366   7.424   9.986
12809W        W79218  43.932  24.459  11.598
12810W        W79219   1.546  38.996   4.204
12811W        W79220  34.120  35.724   1.305
12812W        W79221  27.925   2.210   3.607
12813W        W79222   4.219   3.906   3.191
12814W        W79223  31.506  39.449  11.463
12815W        W79224  13.730  24.360  10.569
12816W        W79225   9.203  23.492   4.694
12817W        W79226  41.015  19.503  12.628
12818W        W79227  33.413   4.339   4.970
12819W        W79228  18.987  33.886  13.668
12820W        W79229  33.103  38.498  10.459
12821W        W79230  12.102  35.339  12.856
12822W        W79231  19.317  44.945   2.348
12823W        W79232  16.304  40.778  12.005
12824W        W79233  18.287   1.818  12.251
12825W        W79234  35.858  36.118   2.763
12826W        W79235  10.881   7.851   1.362
12827W        W79236  34.909  26.572  12.043
12828W        W79237  41.442  12.887  13.104
12829W        W79238  43.557  38.418   2.576
12830W        W79239  40.803  31.757   0.189
12831W        W79240  35.924   9.450  12.941
12832W        W79241  29.127  14.502   0.757
12833W        W79242  41.941   3.595   1.687
12834W        W79243  18.334  42.597   2.873
12835W        W79244  24.140  14.597   4.590
12836W        W79245  19.449   0.241   1.017
12837W        W79246  34.582  41.245  12.004
12838W        W79247  28.844  30.072  13.347
12839W        W79248  32.829  24.109  13.575
12840W        W79249  22.389  13.837   3.494
12841W        W79250  44.891  17.187   4.639
12842W        W79251  21.610   7.763  14.088
12843W        W79252  13.401  23.077   1.993
12844W        W79253  21.536   0.898  11.637
12845W        W79254  31.082  40.181   1.630
12846W        W79255  24.746  31.476  13.078
12847W        W79256  26.331  12.100   2.393
12848W        W79257   2.353  19.613  14.411
12849W        W79258  41.043  43.615   1.833
12850W        W79259  42.390  22.275   4.677
12851W        W79260  22.273  23.991   2.812
12852W        W79261  18.720   6.306   2.578
12853W        W79262  19.210  18.039  12.998
12854W        W79263  16.940  43.393  10.030
12855W        W79264  37.993  26.614  14.561
12856W        W79265  14.315  12.464  11.623
12857W        W79266  27.467  41.367  11.888
12858W        W79267   8.883  16.715   1.731
12859W        W79268  21.967  40.781  13.853
12860W        W79269  33.127  15.957  12.729
12861W        W79270   4.521  39.382   2.459
12862W        W79271  21.914  24.846   4.142
12863W        W79272  31.210  39.965  11.213
12864W        W79273  15.865  23.299  13.249
12865W        W79274  13.295  14.178   3.341
12866W        W79275  10.336  43.724   1.046
12867W        W79276  20.456  11.728   1.357
12868W        W79277  30.614  43.433   4.037
12869W        W79278  22.508  38.181  14.486
12870W        W79279  34.590  30.154   2.034
12871W        W79280  16.132  34.195   0.312
12872W        W79281  11.046  35.128  12.006
12873W        W79282  33.995   9.905   3.887
12874W        W79283  44.330  34.109  12.587
12875W        W79284  43.310  34.493  12.538
12876W        W79285   5.332  37.054   0.728
12877W        W79286  43.918  38.154  10.425
12878W        W79287  18.171  29.638  10.703
12879W        W79288  16.829  37.822  12.970
12880W        W79289  13.829  27.206   0.777
12881W        W79290  32.541   5.415   5.294
12882W        W79291  20.059  20.218   2.907
12883W        W79292  20.426   8.427  11.955
12884W        W79293  25.558   0.708   1.798
12885W        W79294  42.001   2.570   0.286
12886W        W79295  42.105  43.142   3.649
12887W        W79296  27.514   2.500   3.687
12888W        W79297  12.239  13.313   2.431
12889W        W79298  37.855  12.285  13.444
12890W        W79299   7.249  23.922  13.109
12891W        W79300  12.693   9.579  12.522
12892W        W79301  10.139  20.558  13.903
12893W        W79302   2.461  20.349  11.165
12894W        W79303  29.962   2.944   1.317
12895W        W79304  17.274  25.525  11.009
12896W        W79305   0.799  28.133   0.660
12897W        W79306  10.202  15.657   1.003
12898W        W79307  22.574  42.440  10.311
12899W        W79308  20.171   6.345  14.273
12900W        W79309  30.476  22.781  11.666
12901W        W79310  23.958  15.850   1.284
12902W        W79311   4.258  36.345   4.177
12903W        W79312  24.582  12.710  12.054
12904W        W79313  27.632  26.116   3.527
12905W        W79314  13.267  21.143   2.743
12906W        W79315  21.174  41.385  10.849
12907W        W79316  20.470   5.330  11.623
12908W        W79317  13.572  21.044  14.922
12909W        W79318  28.972  37.086   3.634
12910W        W79319  26.219  42.188  13.826
12911W        W79320  37.800  22.242   1.023
12912W        W79321  13.068  23.223   1.053
12913W        W79322  40.271  36.733  12.013
12914W        W79323  23.607   3.482   3.089
12915W        W79324  36.349  29.650  11.119
12916W        W79325  36.519  28.748   2.411
12917W        W79326  41.882  26.887  11.646
12918W        W79327  16.852  36.552   1.442
12919W        W79328  35.029  32.043  11.562
12920W        W79329   7.548  40.748   5.053
12921W        W79330  29.614  27.132  12.995
12922W        W79331  21.578  35.271   0.705
12923W        W79332   8.451  25.533  11.047
12924W        W79333  35.592  35.082  11.528
12925W        W79334  44.836  20.114  11.199
12926W        W79335  10.642  34.379  13.859
12927W        W79336  36.980  28.168   0.783
12928W        W79337   2.134  17.704   2.243
12929W        W79338  22.206  26.967  10.609
12930W        W79339  28.508  15.891  12.011
12931W        W79340  12.864  21.599   0.339
12932W        W79341  23.668   2.947  10.630
12933W        W79342  26.921  26.502   3.945
12934W        W79343  15.339  15.702   0.767
12935W        W79344   3.656  43.604  12.650
12936W        W79345  20.088  18.331   9.818
12937W        W79346   9.951   3.908   1.610
12938W        W79347  10.424  32.268  11.146
12939W        W79348  31.819  15.791   0.950
12940W        W79349  20.541  14.791  13.824
12941W        W79350  13.683   9.907   4.120
12942W        W79351  37.313  27.578   1.880
12943W        W79352   2.704   0.936  13.923
12944W        W79353  43.120  10.039  13.922
12945W        W79354  37.600  12.228   0.749
12946W        W79355  13.705  20.082   1.321
12947W        W79356  19.850  30.936   3.280
12948W        W79357   6.082  42.623  14.390
12949W        W79358  38.103   8.333  10.741
12950W        W79359  19.900   5.726  12.207
12951W        W79360  30.436  14.307  13.949
12952W        W79361  10.837  40.332  10.395
12953W        W79362   3.313  25.263   4.588
12954W        W79363  32.124  18.630   2.423
12955W        W79364  25.031   1.348   0.364
12956W        W79365  11.596  14.194   4.503
12957W        W79366  21.542   0.913   2.218
12958W        W79367  22.400  10.099   4.259
12959W        W79368  41.054   1.460  12.024
12960W        W79369  33.528  25.026  13.993
12961W        W79370  27.997   0.350   3.745
12962W        W79371   1.687   2.348  13.355
12963W        W79372  38.942   0.271  11.164
12964W        W79373  31.444   0.010   0.544
12965W        W79374   0.462  42.655  11.558
12966W        W79375   9.550  41.181  11.691
12967W        W79376  31.625   8.760   2.443
12968W        W79377  18.248   3.468  13.434
12969W        W79378  11.934  16.367   0.507
12970W        W79379  15.877   0.279  12.335
12971W        W79380   0.974   0.751   0.373
12972W        W79381  39.422  18.005  13.781
12973W        W79382  44.525  27.970  11.998
12974W        W79383   8.310   9.668  12.330
12975W        W79384  26.114  21.250   1.931
12976W        W79385  44.493   4.770  13.554
12977W        W79386  27.148  30.116   1.944
12978W        W79387   5.900  13.728   1.867
12979W        W79388  36.459   6.547   5.335
12980W        W79389  28.405   4.793  11.793
12981W        W79390  32.158   8.429   2.292
12982W        W79391  16.255  25.009  12.585
12983W        W79392   0.287  20.385  11.236
12984W        W79393  30.933  31.659   2.142
12985W        W79394  42.323  18.819  10.762
12986W        W79395  29.336  41.249   2.009
12987W        W79396  24.320  27.984   0.884
12988W        W79397  30.842   9.431  14.300
12989W        W79398  14.477  23.289   0.280
12990W        W79399   4.834  23.652  10.111
12991W        W79400  25.731  29.501   3.947
12992W        W79401  19.497  27.615   4.152
12993W        W79402  32.195  17.542   3.371
12994W        W79403  36.126  20.245  10.644
12995W        W79404  36.074  12.480  11.190
12996W        W79405  36.721   1.173   4.736
12997W        W79406  19.616  42.866  12.129
12998W        W79407  14.319  10.605   0.301
12999W        W79408  40.604   9.383   1.260
13000W        W79409  30.673  16.665  13.662
13001W        W79410  12.777  22.353  11.044
13002W        W79411  24.078  12.663  14.788
13003W        W79412  23.140  23.389   2.201
13004W        W79413   3.896  13.671  12.935
13005W        W79414  29.626   2.926  12.117
13006W        W79415  14.487  15.475   2.688
13007W        W79416  41.626  17.227  13.299
13008W        W79417  38.825  26.812   3.239
13009W        W79418  38.369  25.934  11.644
13010W        W79419  38.168  33.471  14.217
13011W        W79420  17.487  12.674   5.144
13012W        W79421  43.551  29.579  13.204
13013W        W79422  19.712   2.471  13.300
13014W        W79423  30.793  17.661  13.831
13015W        W79424  30.625  33.695  11.995
13016W        W79425   0.459  35.320  13.727
13017W        W79426  28.115   9.282   0.969
13018W        W79427  24.691   0.749   3.649
13019W        W79428  30.975  32.653   1.323
13020W        W79429  23.790   9.285   4.924
13021W        W79430  32.891  19.904  13.881
13022W        W79431  43.599  14.649   0.369
13023W        W79432  37.476  37.406  10.690
13024W        W79433  12.801  10.074  11.633
13025W        W79434  43.860  43.930   0.319
13026W        W79435  41.423  19.123  13.107
13027W        W79436   7.418  25.556   1.493
13028W        W79437  42.074  39.689   1.317
13029W        W79438   1.223  24.805  13.135
13030W        W79439  15.835   4.105   0.559
13031W        W79440   6.694  19.203  11.016
13032W        W79441  17.725  21.777  13.014
13033W        W79442   9.220  16.714  12.113
13034W        W79443  33.645  12.634   2.332
13035W        W79444   2.296  31.503   2.520
13036W        W79445   1.594  13.242  14.065
13037W        W79446   1.655  40.006   4.106
13038W        W79447  10.532  19.205   1.303
13039W        W79448  41.702  16.796  11.544
13040W        W79449  14.233  15.845   3.039
13041W        W79450  40.254  28.472   3.190
13042W        W79451  29.848   8.755  13.924
13043W        W79452  41.790  32.120   3.713
13044W        W79453  39.122  17.263   3.766
13045W        W79454  30.433  44.402   2.390
13046W        W79455  38.017  15.269  14.530
13047W        W79456  38.555  37.734  14.382
13048W        W79457  34.788  44.472   1.742
13049W        W79458   2.780  14.607   2.494
13050W        W79459  30.491  12.617   1.856
13051W        W79460  13.177  13.410   5.012
13052W        W79461  36.910   9.882  11.942
13053W        W79462  36.489  41.887   2.233
13054W        W79463  27.170   9.099   0.754
13055W        W79464  17.031   1.400  12.554
13056W        W79465  32.180  41.579   2.780
13057W        W79466   4.118  32.511  14.810
13058W        W79467   5.807  39.674   2.817
13059W        W79468  40.492  24.713   1.735
13060W        W79469  32.637  29.053  13.089
13061W        W79470  11.063  18.195   1.853
13062W        W79471  15.362  38.763  14.912
13063W        W79472   3.503  31.967   1.274
13064W        W79473  23.559  10.584   1.863
13065W        W79474  19.116  44.087   1.349
13066W        W79475  21.697  30.991  11.192
13067W        W79476  30.572  29.136  10.588
13068W        W79477   6.182  14.624   2.372
13069W        W79478  27.557   8.719   0.555
13070W        W79479  43.781  29.169  11.787
13071W        W79480  22.152  17.719  12.056
13072W        W79481  31.097  29.315   1.229
13073W        W79482   6.170  42.003  11.446
13074W        W79483  43.386  20.470  12.318
13075W        W79484   7.187  38.117   3.203
13076W        W79485  38.440  40.219   0.305
13077W        W79486  44.356  18.805   4.260
13078W        W79487  12.619  15.764  10.780
13079W        W79488  10.827  28.455  14.057
13080W        W79489  11.644  22.424   1.261
13081W        W79490   5.590  34.166  14.792
13082W        W79491  13.326  44.020  13.459
13083W        W79492  33.837   0.531  14.911
13084W        W79493   4.053  28.750   3.065
13085W        W79494  40.481   2.867  11.706
13086W        W79495  20.183  29.485  11.467
13087W        W79496  23.239  28.716   3.285
13088W        W79497  37.284  12.672   3.860
13089W        W79498  10.480  22.304  10.394
13090W        W79499  12.126  19.685  11.518
13091W        W79500   0.979  40.786  14.697
13092W        W79501  16.484  39.881   1.872
13093W        W79502   0.737  40.376  15.000
13094W        W79503   6.353  30.724   4.518
13095W        W79504  20.534   6.731  14.225
13096W        W79505  35.359  41.957   4.626
13097W        W79506  21.583  36.437  12.389
13098W        W79507  44.587  44.292  11.947
13099W        W79508  19.048   2.491   2.003
13100W        W79509  14.754   4.414   1.447
13101W        W79510  37.710  38.127  12.535
13102W        W79511  34.155  11.711  14.009
13103W        W79512  40.871  38.296   2.668
13104W        W79513  23.059   8.904   1.803
13105W        W79514  16.097   2.437  12.676
13106W        W79515  10.658   1.810  12.039
13107W        W79516  21.787  36.924   2.875
13108W        W79517  39.380  18.626  14.065
13109W        W79518  30.047  34.402   4.661
13110W        W79519  32.909   6.893   3.994
13111W        W79520  37.873  27.924   2.920
13112W        W79521  41.183  30.452   0.993
13113W        W79522  19.087  41.940  11.059
13114W        W79523  38.471  27.600  13.895
13115W        W79524  17.227  17.554  12.931
13116W        W79525  32.672  42.718   4.177
13117W        W79526  24.000  17.610  11.560
13118W        W79527  11.809  31.940   2.572
13119W        W79528   6.727  17.425  11.111
13120W        W79529  31.917  23.967   0.764
13121W        W79530  41.153  17.530   0.285
13122W        W79531  37.890  22.468  13.298
13123W        W79532   5.411  28.967  13.859
13124W        W79533   0.881  42.275  14.427
13125W        W79534  40.127   8.390   4.782
13126W        W79535  40.606  11.424   2.484
13127W        W79536  21.318  22.574  13.253
13128W        W79537  26.916   2.709  13.414
13129W        W79538  26.975  12.836  13.381
13130W        W79539  17.572  38.913   0.408
13131W        W79540  18.770  11.541   1.792
13132W        W79541  21.040  17.110  13.765
13133W        W79542  44.934  42.694  14.678
13134W        W79543   4.430  22.301  13.033
13135W        W79544  28.301  40.977   2.771
13136W        W79545   8.843  40.360  12.363
13137W        W79546   9.275  38.008   1.962
13138W        W79547  11.824  18.116   2.606
13139W        W79548  36.480  31.680   1.733
13140W        W79549   2.858  28.026   1.603
13141W        W79550  33.461  19.645   2.260
13142W        W79551  18.506   9.861  14.828
13143W        W79552   6.409  29.089  14.112
13144W        W79553  12.965  34.192   2.971
13145W        W79554  19.941  28.652  14.813
13146W        W79555  34.309   6.685  13.094
13147W        W79556   9.142  15.313   4.266
13148W        W79557  22.281   9.782   0.583
13149W        W79558  33.793   9.954   4.351
13150W        W79559  37.932  13.378  12.042
13151W        W79560  31.058  11.127  14.475
13152W        W79561  34.060  33.571   1.548
13153W        W79562  38.210  41.259  13.541
13154W        W79563  20.432  38.328   1.049
13155W        W79564  39.734   7.379   4.091
13156W        W79565  44.821   5.271  12.515
13157W        W79566  21.000  38.499   2.682
13158W        W79567  19.135  18.746   2.753
13159W        W79568  21.059  27.087  12.569
13160W        W79569   9.751  24.020  14.582
13161W        W79570  37.828  24.153  12.963
13162W        W79571  19.010  29.139  10.954
13163W        W79572  29.712  44.034   4.652
13164W        W79573  41.767  12.669  13.541
13165W        W79574  10.268   3.221   3.120
13166W        W79575  39.553  13.938   0.059
13167W        W79576  15.065  22.499   0.473
13168W        W79577  25.759  30.524   3.769
13169W        W79578  43.487  16.380   1.734
13170W        W79579  32.495  23.219  14.523
13171W        W79580  24.963  11.944  14.896
13172W        W79581  24.738  23.859   0.278
13173W        W79582  29.682  26.526   4.545
13174W        W79583  20.905  31.615  13.807
13175W        W79584   3.430   1.428  11.629
13176W        W79585  17.656  29.679   1.871
13177W        W79586  36.252   9.343  11.045
13178W        W79587  10.943  30.955  14.456
13179W        W79588  24.772  42.420   3.762
13180W        W79589  14.250  13.329  14.946
13181W        W79590  32.056   8.143  13.893
13182W        W79591  43.645   8.659   3.942
13183W        W79592  24.810  12.398   0.696
13184W        W79593  38.259  37.868  13.972
13185W        W79594  37.818   0.252  11.418
13186W        W79595  15.252  23.955   0.316
13187W        W79596   2.328  38.996   3.095
13188W        W79597  44.923   8.943  14.663
13189W        W79598   2.622  22.769   1.707
13190W        W79599  36.790  31.176  14.480
13191W        W79600  24.659  16.109   3.652
13192W        W79601  30.410   2.695  11.696
13193W        W79602  12.914   4.221  12.137
13194W        W79603  23.094  34.922  12.487
13195W        W79604  40.125   1.646  14.501
13196W        W79605  40.128  27.891  14.487
13197W        W79606   8.877  25.616  10.740
13198W        W79607   8.913   1.428   3.819
13199W        W79608  43.228  13.729   0.981
13200W        W79609   4.858  15.203  12.991
13201W        W79610  20.647  13.340   4.562
13202W        W79611  41.936  30.357   2.834
13203W        W79612  26.493   6.702  13.959
13204W        W79613  14.854  31.458   0.943
13205W        W79614  30.398  34.170  11.961
13206W        W79615  23.175  11.850   2.624
13207W        W79616  25.752  26.586   1.420
13208W        W79617  33.804  32.894  13.650
13209W        W79618  38.980   4.857   3.378
13210W        W79619  39.884   1.488   2.791
13211W        W79620  13.218   0.044   2.759
13212W        W79621  19.791  44.908   3.736
13213W        W79622  36.010  28.354   1.629
13214W        W79623   1.679   2.995  12.524
13215W        W79624  43.244  14.590   1.752
13216W        W79625  25.606   3.166  14.416
13217W        W79626  34.640  20.470  12.463
13218W        W79627   7.684  19.156   3.389
13219W        W79628  24.453  30.712   1.289
13220W        W79629  41.843  38.045   4.365
13221W        W79630  40.000  27.234  11.560
13222W        W79631  23.905  27.770  13.669
13223W        W79632  44.578  30.662   2.514
13224W        W79633   9.472  42.344  12.978
13225W        W79634  29.439  27.510   4.935
13226W        W79635  39.913   5.358  12.428
13227W        W79636  19.745  39.300  14.957
13228W        W79637  23.504  19.303   2.680
13229W        W79638  39.651  41.014  10.745
13230W        W79639  23.733   5.808   1.448
13231W        W79640  28.720  41.733  11.156
13232W        W79641  16.305   4.007  12.887
13233W        W79642   2.890  14.703  10.665
13234W        W79643  12.883  24.711  12.355
13235W        W79644  24.285  23.964  11.671
13236W        W79645  12.751   9.350  14.322
13237W        W79646  27.609  11.721   4.989
13238W        W79647   5.811  44.889   2.190
13239W        W79648   3.865  22.516   2.902
13240W        W79649  22.168  30.597  14.263
13241W        W79650  37.389  21.942   0.973
13242W        W79651  35.492   5.479   1.234
13243W        W79652  14.762  33.622  13.878
13244W        W79653  21.397  18.294  10.829
13245W        W79654  14.628  34.620   3.202
13246W        W79655   2.934   4.914  14.899
13247W        W79656   7.503  38.497   3.325
13248W        W79657  43.021  32.957  13.432
13249W        W79658   2.940  20.079  13.854
13250W        W79659   7.820  22.544  11.590
13251W        W79660   9.367  38.069   3.707
13252W        W79661  17.015  35.543   3.684
13253W        W79662   0.885   8.882  11.601
13254W        W79663  18.737  31.682  11.143
13255W        W79664  17.763  31.622  13.527
13256W        W79665  32.437  26.943   3.604
13257W        W79666   0.674  33.481  12.145
13258W        W79667   9.809  29.217   1.589
13259W        W79668  30.061  15.908   4.855
13260W        W79669  42.863  37.454  11.165
13261W        W79670  20.054  26.993   4.709
13262W        W79671  20.616  43.984   1.290
13263W        W79672  12.291  25.237   4.068
13264W        W79673   3.904  25.118   4.249
13265W        W79674  13.847  31.738  11.712
13266W        W79675  23.070  28.247  12.640
13267W        W79676   9.169  17.202  10.059
13268W        W79677  33.918   3.162   3.590
13269W        W79678  14.272  41.315   0.282
13270W        W79679  13.699  10.335  10.654
13271W        W79680   8.894  33.346  11.959
13272W        W79681  43.417  19.727  14.347
13273W        W79682  20.702  39.051   2.196
13274W        W79683  35.887  19.104  11.047
13275W        W79684   2.385  44.091   4.603
13276W        W79685  18.746  15.050   2.303
13277W        W79686   2.962   6.407   1.741
13278W        W79687  18.560  16.798   1.361
13279W        W79688  40.977  41.852   1.966
13280W        W79689  11.207   6.768  11.685
13281W        W79690  30.623  23.040   2.233
13282W        W79691  18.279  22.208   2.825
13283W        W79692  19.540   2.994  12.566
13284W        W79693  10.136  28.718   0.797
13285W        W79694  30.930  16.664   3.707
13286W        W79695   7.618   0.026  11.019
13287W        W79696  21.587  21.217   2.837
13288W        W79697   3.854  37.752  13.193
13289W        W79698  34.534  41.465   0.398
13290W        W79699  43.954  26.953   1.366
13291W        W79700  42.778  38.870  14.994
13292W        W79701   0.654  26.898   1.602
13293W        W79702  32.355  28.052  10.480
13294W        W79703   9.562  39.438   2.195
13295W        W79704  20.108  30.533  14.348
13296W        W79705  32.913  36.628   1.883
13297W        W79706   4.243  34.479  10.723
13298W        W79707  35.413  27.899   4.624
13299W        W79708  30.131  27.354   0.867
13300W        W79709  33.681  20.211   1.158
13301W        W79710  22.220  21.708  12.951
13302W        W79711  15.663  26.438  13.862
13303W        W79712  44.314  41.529  13.469
13304W        W79713  32.138  18.041  12.517
13305W        W79714  36.647  29.963   4.175
13306W        W79715  25.679  32.893  14.599
13307W        W79716  13.041  42.406  11.849
13308W        W79717  25.548  39.776  12.659
13309W        W79718   9.376  25.697  14.899
13310W        W79719   4.512  41.057   4.870
13311W        W79720   2.489  12.613  11.674
13312W        W79721  44.502  21.626  11.686
13313W        W79722   2.179   1.335   3.863
13314W        W79723  13.724   2.450   1.628
13315W        W79724  37.478   4.353  10.688
13316W        W79725  15.023  42.905  11.211
13317W        W79726   8.714  36.667  10.723
13318W        W79727  19.322  20.494  10.858
13319W        W79728  31.457   4.914  12.486
13320W        W79729  18.830  28.523   1.502
13321W        W79730  19.134  38.572   1.292
13322W        W79731   1.415  11.915   1.887
13323W        W79732  33.181  32.094   1.531
13324W        W79733  18.718  19.850  10.274
13325W        W79734   8.693  27.039   4.133
13326W        W79735  28.960   0.091  11.202
13327W        W79736  17.047  33.455   1.620
13328W        W79737   9.944  28.768   1.997
13329W        W79738   9.638  38.045   3.211
13330W        W79739  16.831  25.471  12.652
13331W        W79740  35.664  31.443  13.158
13332W        W79741  39.443  15.188   0.440
13333W        W79742  39.415  40.441   0.515
13334W        W79743   6.234  20.131  11.660
13335W        W79744  40.478   2.858   1.193
13336W        W79745  34.575  12.359   0.522
13337W        W79746  20.837  16.508  11.171
13338W        W79747  27.074   4.047  14.079
13339W        W79748  14.317  40.683  12.502
13340W        W79749   8.898  22.184  14.769
13341W        W79750   1.080  17.964   2.384
13342W        W79751   4.532  18.794   3.775
13343W        W79752   2.336  23.717  13.506
13344W        W79753  17.994  44.335  14.982
13345W        W79754  29.136   5.725   2.910
13346W        W79755   3.406  32.540  12.106
13347W        W79756  30.021  35.380   3.613
13348W        W79757  33.980  10.330   4.654
13349W        W79758   5.661   7.827  14.780
13350W        W79759  11.837  22.326  12.446
13351W        W79760  35.805  13.338  11.499
13352W        W79761   8.016  38.311   4.684
13353W        W79762  18.303   8.730  13.125
13354W        W79763  28.056  16.480  12.716
13355W        W79764   7.890  39.294  13.870
13356W        W79765  25.997  28.570   2.711
13357W        W79766  35.422  11.328  13.896
13358W        W79767  29.575  25.492   2.554
13359W        W79768  44.088  18.591   4.667
13360W        W79769  35.340  11.504  12.421
13361W        W79770  11.264  37.389   0.772
13362W        W79771  33.067  33.170   2.206
13363W        W79772  36.958  14.314   2.619
13364W        W79773  17.944   8.658   1.560
13365W        W79774  13.055  28.546  12.608
13366W        W79775  17.471   3.948  10.650
13367W        W79776  25.843  31.690   0.389
13368W        W79777  26.482  20.773   0.312
13369W        W79778   9.373  24.491   4.897
13370W        W79779  24.330  36.557  13.280
13371W        W79780  21.263  11.058  14.006
13372W        W79781  36.050  16.364  14.385
13373W        W79782   9.411  23.582   2.393
13374W        W79783  38.359  17.128  14.774
13375W        W79784  17.978  22.685   1.709
13376W        W79785  33.375  27.662   2.203
13377W        W79786  39.521  20.065   5.267
13378W        W79787  22.769  30.226  10.689
13379W        W79788  22.094  17.211  13.831
13380W        W79789  30.454  34.426   4.977
13381W        W79790  33.712   5.783   2.680
13382W        W79791  10.728  11.669  10.218
13383W        W79792  23.790  21.396   4.080
13384W        W79793  14.064  19.701  10.566
13385W        W79794  27.184  18.302   3.290
13386W        W79795  31.282  10.618   1.455
13387W        W79796  13.709  12.323  11.038
13388W        W79797  26.550  37.493   0.873
13389W        W79798  22.648  15.240   2.999
13390W        W79799   4.374  33.487   3.572
13391W        W79800  39.370  41.291  13.007
13392W        W79801  44.223  26.579  11.082
13393W        W79802   0.412   4.815  13.554
13394W        W79803  23.535  20.550   4.645
13395W        W79804  25.063  35.034  14.759
13396W        W79805  31.166  30.377  10.814
13397W        W79806   5.274  41.989   0.036
13398W        W79807   1.065   4.198  12.032
13399W        W79808   9.174  37.027  14.355
13400W        W79809  31.538  19.014  13.480
13401W        W79810  33.434  34.352   5.066
13402W        W79811   4.891   5.345   2.333
13403W        W79812   0.310   1.395  13.946
13404W        W79813  36.495  44.565   2.710
13405W        W79814  30.347   4.385  11.906
13406W        W79815  17.056  21.253   3.549
13407W        W79816  44.240  26.200  11.642
13408W        W79817   7.125  35.345   4.207
13409W        W79818   7.392  44.440   3.741
13410W        W79819  32.251   1.956   0.664
13411W        W79820   3.761  15.948  13.596
13412W        W79821  23.829   9.453  14.884
13413W        W79822  14.257  21.831  13.075
13414W        W79823  43.910  41.332   4.094
13415W        W79824  34.117  29.456   0.241
13416W        W79825  35.920  15.543  10.029
13417W        W79826  35.414   2.140   1.412
13418W        W79827  19.612   8.322   4.652
13419W        W79828   5.810  32.043   2.470
13420W        W79829  34.123  25.121   3.648
13421W        W79830  18.128  35.060  14.720
13422W        W79831  40.537  18.069  13.237
13423W        W79832  20.066   8.824  14.454
13424W        W79833   2.388  19.790   3.806
13425W        W79834  40.414  29.377   2.232
13426W        W79835  18.987  26.487  11.688
13427W        W79836   2.774   3.805   2.349
13428W        W79837   5.863   8.677   0.812
13429W        W79838  40.960  32.321   3.046
13430W        W79839  17.505  13.670  12.175
13431W        W79840  19.799   9.522  11.058
13432W        W79841  11.835  36.150  14.421
13433W        W79842  15.540  40.052  13.349
13434W        W79843  32.324  28.982  13.504
13435W        W79844  41.748  19.115   4.717
13436W        W79845  30.413   0.811  13.397
13437W        W79846   6.378  10.837   2.097
13438W        W79847   2.611  30.179   1.875
13439W        W79848  22.774  41.088  10.985
13440W        W79849   9.236  32.041  12.464
13441W        W79850  40.887  15.433   0.941
13442W        W79851   8.790  16.776   4.058
13443W        W79852  19.947  14.104   4.630
13444W        W79853   0.898  27.666  11.947
13445W        W79854  19.800  15.830   0.482
13446W        W79855  25.441  25.706   4.665
13447W        W79856  36.574  14.341   4.777
13448W        W79857  42.100   8.850   2.784
13449W        W79858  16.670   7.143   2.714
13450W        W79859  28.476   7.874  13.988
13451W        W79860   9.908  17.643  14.004
13452W        W79861  28.381  28.539   3.981
13453W        W79862  16.294   6.960  13.393
13454W        W79863  18.196  41.859  11.741
13455W        W79864  22.052  28.936  11.674
13456W        W79865  42.259  38.836   0.112
13457W        W79866  34.514  30.439  10.785
13458W        W79867   9.559  13.794  11.535
13459W        W79868  39.986   4.807   4.881
13460W        W79869   3.280  14.254  13.552
13461W        W79870   1.875  32.875   4.257
13462W        W79871  32.041  32.944   3.342
13463W        W79872  19.751  22.245   0.965
13464W        W79873   4.321  28.377   3.862
13465W        W79874   5.661  17.897   2.221
13466W        W79875  44.305  25.778   4.208
13467W        W79876  19.313  30.074  14.314
13468W        W79877  43.447  29.515  13.694
13469W        W79878  36.422   4.845  10.584
13470W        W79879   7.183  24.571  13.784
13471W        W79880  10.159  11.201   4.108
13472W        W79881  39.419  33.843   4.735
13473W        W79882  43.221  36.434   1.282
13474W        W79883   4.712  32.490   2.105
13475W        W79884  34.254  33.019  13.382
13476W        W79885  19.817  28.074   0.233
13477W        W79886  17.245  21.531  13.074
13478W        W79887  30.204   2.546  10.222
13479W        W79888   8.950  38.942  13.433
13480W        W79889  33.174  27.423  13.517
13481W        W79890   0.858  36.034   2.744
13482W        W79891  24.590  10.430  11.149
13483W        W79892   0.332  14.906  11.026
13484W        W79893  23.646  25.238  13.434
13485W        W79894  30.703  13.924   0.154
13486W        W79895  21.284  15.378   0.449
13487W        W79896  18.280   8.943   0.025
13488W        W79897  39.770   5.724  14.348
13489W        W79898  39.897   3.759   3.229
13490W        W79899  30.674  29.625   0.424
13491W        W79900   6.317  32.548  12.397
13492W        W79901  19.086   8.787  12.041
13493W        W79902  11.320  10.347   4.849
13494W        W79903  44.256  37.504   3.101
13495W        W79904  11.573   8.262   1.904
13496W        W79905  25.992  26.858  10.751
13497W        W79906  19.200  23.716   4.892
13498W        W79907  23.032  17.858   3.535
13499W        W79908  30.178  43.173  11.121
13500W        W79909  40.352   5.737   1.662
13501W        W79910  29.383  27.883   2.140
13502W        W79911   3.019  41.396   1.206
13503W        W79912  31.660  31.146  11.525
13504W        W79913  27.733  19.152   4.876
13505W        W79914  24.727  35.159  11.149
13506W        W79915   4.659  43.805  12.738
13507W        W79916  12.353  17.770   2.580
13508W        W79917  25.934  18.230   1.682
13509W        W79918   5.935   8.541   1.317
13510W        W79919   8.563  27.349   4.614
13511W        W79920  26.165  40.388   4.533
13512W        W79921  26.028  23.038   1.405
13513W        W79922  31.078  20.069   2.271
13514W        W79923  29.485   5.464   0.699
13515W        W79924   2.271  41.885  12.135
13516W        W79925  44.841   8.431   1.465
13517W        W79926   4.729   7.698   1.664
13518W        W79927   4.849   5.655   2.737
13519W        W79928  43.746  31.072   4.049
13520W        W79929  16.321  18.277   0.939
13521W        W79930  10.837  14.077   2.421
13522W        W79931  43.910  18.100   2.086
13523W        W79932  24.709  18.043   4.567
13524W        W79933  30.090  22.430  14.775
13525W        W79934  12.249  15.483  13.712
13526W        W79935  44.987  43.527  12.389
13527W        W79936  29.801  29.160  11.862
13528W        W79937   7.394  22.761  14.192
13529W        W79938  25.600  37.177  13.153
13530W        W79939  16.151  39.465   4.527
13531W        W79940  32.905  17.000   2.861
13532W        W79941  39.745  35.446  14.322
13533W        W79942  28.376   1.901   0.972
13534W        W79943  37.868  39.017  12.838
13535W        W79944  20.127  12.605  10.638
13536W        W79945  29.735  23.000   4.143
13537W        W79946  13.272  37.357  12.890
13538W        W79947   0.272  41.214   1.810
13539W        W79948   7.960  31.556   4.084
13540W        W79949  10.045  28.055  11.778
13541W        W79950   0.969  16.742  13.984
13542W        W79951  16.209   4.988   2.793
13543W        W79952  12.076  32.383   4.620
13544W        W79953  32.291   8.681   1.818
13545W        W79954  19.652   8.854  12.831
13546W        W79955  23.884  31.242   0.817
13547W        W79956  15.970  12.744  11.988
13548W        W79957  31.198  31.918  11.612
13549W        W79958   3.923  41.331   1.725
13550W        W79959  23.082  19.322  12.303
13551W        W79960  37.346  14.562   3.655
13552W        W79961   7.211  43.363   2.701
13553W        W79962  43.928  26.705  13.332
13554W        W79963  34.975  37.812   4.953
13555W        W79964  19.704  37.398   4.946
13556W        W79965  21.690  34.661  14.337
13557W        W79966  38.109   1.030   2.016
13558W        W79967  26.640  11.716   2.572
13559W        W79968   5.546  14.222   1.211
13560W        W79969  37.250  28.716  12.526
13561W        W79970  40.835  16.702  13.579
13562W        W79971   5.069  25.245  10.675
13563W        W79972  29.979  13.101   3.226
13564W        W79973  13.510  26.008  13.658
13565W        W79974  36.599  16.515   4.231
13566W        W79975   4.509  26.237   4.121
13567W        W79976  43.367  37.017   0.738
13568W        W79977  22.533  12.551  14.834
13569W        W79978  23.106  24.667  11.553
13570W        W79979  35.385   0.724  13.510
13571W        W79980  14.146   9.600  11.066
13572W        W79981  37.685   3.813  12.380
13573W        W79982  40.368  15.133   2.307
13574W        W79983  12.776  26.550  13.166
13575W        W79984  19.090   5.285   0.566
13576W        W79985  33.239  39.640   3.648
13577W        W79986  22.118  19.500  11.405
13578W        W79987  38.926  21.705   4.574
13579W        W79988  17.597   0.902   0.807
13580W        W79989   3.388  10.366   0.198
13581W        W79990  26.320  26.164   5.275
13582W        W79991  11.270  36.515  12.874
13583W        W79992  14.239  30.445   3.039
13584W        W79993  30.452  35.056  13.045
13585W        W79994  14.604  23.231  12.547
13586W        W79995  15.626   5.153  14.344
13587W        W79996  21.172   8.604   4.692
13588W        W79997  17.853  29.346  11.666
13589W        W79998  18.667  16.930  13.034
13590W        W79999  21.970   3.986  13.854
13591W        W80000  28.738  35.006  14.958
13592W        W80001  42.382  27.964   0.889
13593W        W80002  38.842  32.559  10.715
13594W        W80003  20.098   1.962  12.633
13595W        W80004  37.929  27.118  13.644
13596W        W80005  23.073  32.404  14.270
13597W        W80006  31.067  21.815  12.075
13598W        W80007  31.235  13.355  10.840
13599W        W80008  15.046  29.752   4.028
13600W        W80009  35.842  43.782  10.757
13601W        W80010   2.363  21.847  13.703
13602W        W80011  14.036  30.864   1.822
13603W        W80012  36.929  11.634   3.763
13604W        W80013  41.574  32.334   0.790
13605W        W80014  14.946  19.560   4.141
13606W        W80015  38.999  43.857   3.734
13607W        W80016   0.448   1.985   3.653
13608W        W80017   7.632   9.076  13.776
13609W        W80018   2.191  16.690  14.302
13610W        W80019   5.752  41.946   4.585
13611W        W80020  41.095  11.275   1.201
13612W        W80021  34.913   7.411   3.741
13613W        W80022  39.013  27.588   1.906
13614W        W80023  23.815   2.995   4.129
13615W        W80024  10.393  25.018  10.572
13616W        W80025  16.858  12.066  11.669
13617W        W80026  41.413  44.022  12.211
13618W        W80027   5.405  20.736   0.396
13619W        W80028  44.436  18.676   2.593
13620W        W80029  17.241  40.507   1.719
13621W        W80030  40.834  26.095   0.461
13622W        W80031  18.512  29.652  10.313
13623W        W80032  23.437  19.030   3.114
13624W        W80033   4.138   0.469  10.707
13625W        W80034  21.115  13.076   3.393
13626W        W80035  41.660  19.523  14.782
13627W        W80036  32.879  32.851   1.823
13628W        W80037  18.990   8.175  11.087
13629W        W80038   6.620  22.963   0.798
13630W        W80039  34.873  28.830   3.134
13631W        W80040  19.023  25.022  11.980
13632W        W80041   2.248   3.080   1.524
13633W        W80042  10.233  19.163  10.695
13634W        W80043   5.473  22.227   2.324
13635W        W80044   2.509  15.336  14.415
13636W        W80045   0.994  15.764   0.013
13637W        W80046  19.586  24.641   2.360
13638W        W80047  44.528  38.731  14.611
13639W        W80048  16.604  20.174  13.583
13640W        W80049  27.773  30.498  11.444
13641W        W80050  16.850   4.465   1.405
13642W        W80051  40.373  13.303   2.220
13643W        W80052  30.061  23.583  12.413
13644W        W80053  22.797   5.640   2.349
13645W        W80054  36.569  34.298  13.995
13646W        W80055  39.024  28.498  11.437
13647W        W80056  28.561  44.864   2.323
13648W        W80057  42.411   6.150  13.124
13649W        W80058  24.339  43.847  10.355
13650W        W80059  24.638  17.015   2.364
13651W        W80060  43.590  38.040   1.697
13652W        W80061  28.684  14.408   4.578
13653W        W80062  35.368  37.962  12.782
13654W        W80063   3.871  32.772   3.593
13655W        W80064  25.464  12.772   4.936
13656W        W80065  13.427   0.158   0.390
13657W        W80066   5.131   6.810   1.354
13658W        W80067   4.643  15.656  10.760
13659W        W80068  39.804  14.720  11.716
13660W        W80069  38.908  23.413   4.172
13661W        W80070  36.629  41.840  10.756
13662W        W80071   9.914  19.155  14.964
13663W        W80072  12.321  27.018   0.508
13664W        W80073  44.300  38.838   3.969
13665W        W80074  18.669  42.920  13.997
13666W        W80075   7.885  10.853  14.041
13667W        W80076  26.846  39.386   1.832
13668W        W80077  36.762  36.125  12.006
13669W        W80078  34.841  25.650  10.714
13670W        W80079  22.971  38.673  10.231
13671W        W80080  44.237   2.417  11.001
13672W        W80081  25.807  12.594   1.258
13673W        W80082   9.375  24.736  13.564
13674W        W80083   2.005  33.551  14.989
13675W        W80084   5.209   9.300  12.821
13676W        W80085  22.358   0.608   1.288
13677W        W80086  43.553  18.655   3.567
13678W        W80087  36.571  35.475   1.048
13679W        W80088  19.228   0.450   0.079
13680W        W80089  42.395  15.191  12.900
13681W        W80090   2.267   1.989  10.396
13682W        W80091  22.116  24.716  13.515
13683W        W80092  27.471  31.431  11.309
13684W        W80093   6.907   5.209   4.281
13685W        W80094  38.686  23.538  12.883
13686W        W80095  34.565  27.937   1.195
13687W        W80096   4.842  38.898  11.670
13688W        W80097  27.200  13.381   3.780
13689W        W80098   3.155  10.413  14.347
13690W        W80099  41.449   2.748   3.583
13691W        W80100  21.659  24.023   2.372
13692W        W80101   3.265  36.944  14.714
13693W        W80102   2.904   7.273   3.188
13694W        W80103  41.038  14.792  14.392
13695W        W80104  40.785  27.008  10.526
13696W        W80105  20.665  31.311  12.434
13697W        W80106  19.710  25.278  11.766
13698W        W80107   0.888  25.283   2.268
13699W        W80108  20.433   1.159  12.237
13700W        W80109   4.803  30.575  13.759
13701W        W80110  31.067  30.451   3.206
13702W        W80111  12.075  35.364  10.733
13703W        W80112  28.616  19.268  10.666
13704W        W80113  14.336  18.048   3.647
13705W        W80114  31.104  16.576   2.740
13706W        W80115  13.080  17.403  14.248
13707W        W80116  14.540  19.202  14.124
13708W        W80117  29.162   2.239  13.435
13709W        W80118  31.944  41.963   4.437
13710W        W80119  20.601  25.177   0.878
13711W        W80120  33.614  36.533   2.590
13712W        W80121   7.252  18.564   3.148
13713W        W80122  10.632  26.573   3.275
13714W        W80123  35.917   8.036   3.614
13715W        W80124  24.981  22.469  14.917
13716W        W80125  18.134  19.554  12.215
13717W        W80126  34.041  44.760   2.838
13718W        W80127  25.143  31.623  14.530
13719W        W80128  42.362   0.781   0.020
13720W        W80129   7.610  44.418  13.449
13721W        W80130  41.903   2.496  11.169
13722W        W80131   6.870  33.122   1.589
13723W        W80132  30.579  29.186  13.909
13724W        W80133  13.917   9.853  10.652
13725W        W80134  34.800  18.749  13.391
13726W        W80135  31.865  44.397   4.484
13727W        W80136   0.328  28.764  14.083
13728W        W80137  25.640  13.005  10.779
13729W        W80138  15.710  39.199   2.913
13730W        W80139   4.136  23.236  12.966
13731W        W80140  33.287   1.161   0.504
13732W        W80141  19.762  44.053  10.739
13733W        W80142  31.055  12.688   0.192
13734W        W80143  35.965  13.010  11.115
13735W        W80144  41.773  29.972   3.160
13736W        W80145   0.718  44.547  14.490
13737W        W80146   4.958  12.272   0.239
13738W        W80147   7.479  42.698   1.425
13739W        W80148  27.583   5.515   0.138
13740W        W80149  44.938  34.992   1.297
13741W        W80150  35.571  19.045   3.298
13742W        W80151   6.117  37.157   1.164
13743W        W80152  11.917  15.399   4.099
13744W        W80153  11.257   4.851  10.005
13745W        W80154  43.709  13.263   0.336
13746W        W80155  10.124  40.610   3.673
13747W        W80156  34.573  10.719   3.610
13748W        W80157  12.952  22.378   1.370
13749W        W80158  20.610  21.035  10.614
13750W        W80159   6.047   0.931   4.649
13751W        W80160  15.567  41.285   2.152
13752W        W80161   6.687  12.306   2.658
13753W        W80162  43.928  27.556  14.280
13754W        W80163  35.737  40.286  13.867
13755W        W80164  12.275  32.552   3.100
13756W        W80165  37.903  29.100   3.291
13757W        W80166  44.799  24.026  14.122
13758W        W80167  31.914  29.880   3.158
13759W        W80168   5.457  42.481  10.934
13760W        W80169  15.831   2.432  13.846
13761W        W80170  39.726  24.504  13.737
13762W        W80171  14.404  35.273  11.635
13763W        W80172  24.042  16.750   4.171
13764W        W80173  13.609  25.056  14.047
13765W        W80174  24.770   9.405  12.147
13766W        W80175  21.392  22.174  10.098
13767W        W80176  16.854  26.845  13.784
13768W        W80177  42.948  43.795   4.487
13769W        W80178  30.252  29.685   4.965
13770W        W80179  31.874  37.479   3.320
13771W        W80180  36.160   0.419   0.890
13772W        W80181  40.069  43.284  10.664
13773W        W80182  38.570  28.462  11.145
13774W        W80183  39.509  33.706  13.106
13775W        W80184  21.831  20.661   0.303
13776W        W80185   7.790  21.079  14.595
13777W        W80186   4.650  10.879   3.568
13778W        W80187  44.829  35.264  14.243
13779W        W80188  41.408   4.505  10.324
13780W        W80189  29.043  12.708  12.903
13781W        W80190   8.336  31.651  13.966
13782W        W80191  16.388  43.449   2.732
13783W        W80192  33.734   5.399  11.203
13784W        W80193  36.165  29.202   2.534
13785W        W80194  20.095  15.622  14.349
13786W        W80195  17.728  42.258  13.889
13787W        W80196  12.734   4.716  13.963
13788W        W80197  15.255  15.183   0.923
13789W        W80198  11.747  13.175   1.428
13790W        W80199  42.266  40.289   0.887
13791W        W80200  15.267   3.686  12.166
13792W        W80201  33.833  25.028   2.136
13793W        W80202  43.211  28.466  13.521
13794W        W80203  33.046  37.514   3.707
13795W        W80204  14.709  39.376  12.456
13796W        W80205  28.572  21.633   2.706
13797W        W80206  22.749  37.692   3.716
13798W        W80207  17.188  31.072   4.833
13799W        W80208  39.857  27.961  13.573
13800W        W80209   5.833   2.833  12.805
13801W        W80210  27.342  15.100  11.966
13802W        W80211  16.028  16.561   1.941
13803W        W80212  26.724   1.434  14.457
13804W        W80213  43.853  18.332   3.822
13805W        W80214  11.930  11.925   2.390
13806W        W80215  44.145  36.908   3.214
13807W        W80216  35.109   8.338   4.599
13808W        W80217  39.750   4.470  12.776
13809W        W80218   8.796  42.986  13.035
13810W        W80219  37.353  30.526  12.032
13811W        W80220  30.558  29.540   4.502
13812W        W80221   8.448  44.898   0.053
13813W        W80222  23.732   9.411  12.089
13814W        W80223  36.384   0.360   0.443
13815W        W80224  34.957   1.674  13.128
13816W        W80225  41.309   1.208   3.356
13817W        W80226  21.871  34.050   4.363
13818W        W80227   1.720  15.486   3.984
13819W        W80228  10.071  40.084  13.963
13820W        W80229  38.503  44.864  12.954
13821W        W80230   9.523  12.611  11.101
13822W        W80231  13.739   8.164  12.540
13823W        W80232  37.378  44.762  14.919
13824W        W80233  16.900  22.208  12.537
13825W        W80234  16.057   2.309   2.710
13826W        W80235  39.984  12.114   1.974
13827W        W80236  10.389  18.183   0.355
13828W        W80237  17.775  13.523  11.235
13829W        W80238  18.112  41.518  14.813
13830W        W80239  35.531  10.794   0.806
13831W        W80240  34.958  29.659  13.802
13832W        W80241   0.775  26.402   0.251
13833W        W80242  21.397  20.729   0.700
13834W        W80243  26.596  44.762   2.296
13835W        W80244  15.494  37.090   1.294
13836W        W80245  19.765  42.297  14.256
13837W        W80246   4.955  18.688  10.735
13838W        W80247   2.666   8.024   4.959
13839W        W80248  22.877  18.762  13.536
13840W        W80249   8.425  21.444   4.229
13841W        W80250   9.913  42.311  10.538
13842W        W80251  40.328  19.753  11.901
13843W        W80252  35.591  44.982   0.180
13844W        W80253  16.017  42.507  12.203
13845W        W80254  37.578   7.122   0.423
13846W        W80255   7.106  32.005  12.487
13847W        W80256   2.834   9.874  11.945
13848W        W80257   2.795  43.356  12.166
13849W        W80258  30.048  15.244  11.201
13850W        W80259  10.560  20.059  12.474
13851W        W80260   6.363  15.615  11.209
13852W        W80261   2.352  38.628  10.772
13853W        W80262  40.856   5.374  10.948
13854W        W80263  19.976  29.976   3.152
13855W        W80264   5.463  28.774   1.215
13856W        W80265  17.314  20.013  11.104
13857W        W80266  35.820  39.516   2.152
13858W        W80267  11.023  24.534  13.931
13859W        W80268  36.438  42.133   1.031
13860W        W80269  35.617  39.385  12.208
13861W        W80270  35.358  34.402   1.139
13862W        W80271  39.084   4.922  14.532
13863W        W80272  40.925  18.168   0.177
13864W        W80273  18.801  33.817   1.311
13865W        W80274  24.794  27.047   4.616
13866W        W80275  29.752  33.499   1.722
13867W        W80276  42.233  22.139  10.581
13868W        W80277  19.117  19.462  11.193
13869W        W80278   5.919  23.745  13.702
13870W        W80279  39.849  30.641  11.762
13871W        W80280  36.056   0.289  12.165
13872W        W80281  33.856  36.087   3.200
13873W        W80282  26.415  35.034   2.772
13874W        W80283  31.185  19.090   3.236
13875W        W80284  42.755  22.708   4.136
13876W        W80285  21.811  27.259   2.536
13877W        W80286   3.388  39.040   1.916
13878W        W80287  36.395  35.394   4.510
13879W        W80288  42.193   7.698  11.172
13880W        W80289  29.074  31.952  12.569
13881W        W80290  27.763  35.403  11.038
13882W        W80291  40.246  34.577  10.688
13883W        W80292  34.006  17.518   0.516
13884W        W80293  21.702  12.661   0.248
13885W        W80294  12.719  36.103  13.594
13886W        W80295   5.382  27.200  11.014
13887W        W80296  42.857  31.066   4.124
13888W        W80297  32.602  30.068   1.313
13889W        W80298  11.073  18.152   4.070
13890W        W80299  15.939  41.076   3.663
13891W        W80300  25.892   5.308  12.184
13892W        W80301   2.219  36.930  11.237
13893W        W80302  18.273  15.730   2.775
13894W        W80303  43.092  12.574   1.828
13895W        W80304  43.845   0.307   1.822
13896W        W80305  27.624  23.679  11.433
13897W        W80306  24.236   1.479   4.218
13898W        W80307  42.502   5.040  14.533
13899W        W80308   7.258   5.982  11.486
13900W        W80309  27.185   2.924   2.396
13901W        W80310  29.221  17.293   1.629
13902W        W80311  18.310   4.938   4.512
13903W        W80312  36.502  36.280  12.408
13904W        W80313  21.140   4.634  11.202
13905W        W80314   4.024  24.346   4.463
13906W        W80315  41.066   8.110  12.045
13907W        W80316  24.072   6.631  13.361
13908W        W80317  29.843  33.553   5.045
13909W        W80318  12.169  24.569  12.239
13910W        W80319  23.183  25.061  10.611
13911W        W80320  19.203  11.245   1.701
13912W        W80321  11.702   5.796   2.947
13913W        W80322   3.352   9.693  12.210
13914W        W80323  38.867  35.434   4.412
13915W        W80324  35.060   5.782  14.396
13916W        W80325  43.307   9.108   2.148
13917W        W80326  40.320  29.069  13.935
13918W        W80327  22.716  19.295   3.727
13919W        W80328  17.559  15.224   3.344
13920W        W80329  22.751   1.452   0.391
13921W        W80330  19.073   3.969  11.783
13922W        W80331  29.668   0.920  13.896
13923W        W80332  32.435  18.860  14.650
13924W        W80333   8.785  34.045  12.484
13925W        W80334   3.181  12.071  11.913
13926W        W80335  43.264  14.121   2.266
13927W        W80336  43.405  14.787  11.509
13928W        W80337   5.263  41.504  14.801
13929W        W80338  20.257  23.242  14.875
13930W        W80339  16.996  22.793   1.812
13931W        W80340  29.293  11.628  10.471
13932W        W80341   8.961  35.883  11.184
13933W        W80342   5.458  39.516  11.190
13934W        W80343  35.471  14.419  12.560
13935W        W80344   0.375  36.638  12.526
13936W        W80345   4.721  30.586  12.014
13937W        W80346  29.449  16.367  10.609
13938W        W80347  17.055  12.659  12.975
13939W        W80348  12.328   0.465  12.051
13940W        W80349  22.762  23.696  11.558
13941W        W80350  12.946   3.729  12.030
13942W        W80351  26.918   0.369  14.835
13943W        W80352  28.878  39.880  12.889
13944W        W80353   6.975  25.016   1.941
13945W        W80354   4.942   4.645   3.649
13946W        W80355  35.070  18.692  10.762
13947W        W80356  41.773  23.915  14.531
13948W        W80357  41.749  41.397   3.408
13949W        W80358   3.106  27.749   3.240
13950W        W80359  27.259  32.609   4.559
13951W        W80360   2.804  39.042   3.332
13952W        W80361  10.958  24.207  10.564
13953W        W80362  22.043  14.569   4.174
13954W        W80363   1.704   2.384   0.142
13955W        W80364  21.049  33.888  12.988
13956W        W80365  43.425  15.621  14.218
13957W        W80366  41.591  37.544   0.830
13958W        W80367   3.806  22.287  10.100
13959W        W80368  17.694  18.145  10.951
13960W        W80369  39.014  14.556   2.333
13961W        W80370  40.433  28.208  14.815
13962W        W80371  30.720   3.969   1.778
13963W        W80372  11.116   9.943   4.569
13964W        W80373  28.635  41.918   4.537
13965W        W80374  10.613   3.788   0.172
13966W        W80375  29.703   9.168   0.967
13967W        W80376  32.587  21.265  14.489
13968W        W80377  27.415  33.584   0.618
13969W        W80378  24.792  38.795  12.228
13970W        W80379  17.302  36.786  11.515
13971W        W80380  12.712  11.227  14.149
13972W        W80381  31.001  32.192  13.066
13973W        W80382  19.296  26.082   1.720
13974W        W80383   9.254  25.398   4.523
13975W        W80384  19.230  39.755   0.257
13976W        W80385   7.935  42.988   3.680
13977W        W80386  31.328  34.571  10.868
13978W        W80387  37.258  24.402  11.849
13979W        W80388  39.906   5.283   2.237
13980W        W80389  34.546  25.284   1.080
13981W        W80390  26.564  41.361   2.217
13982W        W80391   5.822  18.110   0.269
13983W        W80392  40.493   8.876   0.467
13984W        W80393  40.343  38.486  14.328
13985W        W80394  39.040  42.790  11.111
13986W        W80395  14.565  21.078  12.033
13987W        W80396  40.723  13.391  11.403
13988W        W80397  39.975  29.576   2.471
13989W        W80398  20.083  25.115   1.691
13990W        W80399  21.034   2.597   2.520
13991W        W80400   8.660  31.395  11.468
13992W        W80401  15.881  41.844   3.173
13993W        W80402  24.178  23.230   3.307
13994W        W80403   0.996  26.694   3.678
13995W        W80404   9.754  38.899   4.432
13996W        W80405  13.692  11.306  11.520
13997W        W80406  42.912   3.254   3.154
13998W        W80407  32.840  33.945   3.884
13999W        W80408  39.538   1.761  12.707
14000W        W80409  16.826   9.634  11.601
14001W        W80410  10.245   7.795  11.135
14002W        W80411  44.389  26.117  12.997
14003W        W80412  17.197  27.698  10.481
14004W        W80413   0.430  12.617  13.132
14005W        W80414  35.098   9.666   2.206
14006W        W80415   3.295   6.764   3.617
14007W        W80416   6.009   8.946   4.103
14008W        W80417  36.558  17.422   3.878
14009W        W80418  12.612  39.098  11.607
14010W        W80419  19.730  23.201  14.893
14011W        W80420  21.738  44.541  13.617
14012W        W80421  31.932  30.723   4.337
14013W        W80422  38.618   2.278  11.044
14014W        W80423  15.722  26.407  14.845
14015W        W80424  17.051  20.893  13.867
14016W        W80425  35.141  28.209  14.949
14017W        W80426  28.647  37.487   2.605
14018W        W80427  43.315  36.238   1.773
14019W        W80428  31.084   3.732  14.155
14020W        W80429  42.081  30.073   2.210
14021W        W80430   9.201  12.300   4.883
14022W        W80431  43.571  36.195  12.994
14023W        W80432  19.956  20.614   1.710
14024W        W80433  18.463  23.152  10.459
14025W        W80434   1.832   3.203  11.612
14026W        W80435   8.243   5.786  13.978
14027W        W80436   8.919  44.947  14.805
14028W        W80437   9.397  35.394  11.694
14029W        W80438  19.358  10.296   0.769
14030W        W80439  26.931   5.452   2.902
14031W        W80440  27.027  12.335   0.288
14032W        W80441  24.592  16.965   2.881
14033W        W80442  33.929  35.901  14.743
14034W        W80443  37.511   1.121   2.673
14035W        W80444   8.611  23.312   3.816
14036W        W80445  27.629  30.528   0.267
14037W        W80446   2.718   1.371  13.321
14038W        W80447   4.277  22.380   2.605
14039W        W80448  39.847  30.542   4.292
14040W        W80449   4.857  10.389   0.216
14041W        W80450  32.456  20.624   4.565
14042W        W80451   4.096   6.743   0.423
14043W        W80452  43.337  14.272  13.311
14044W        W80453  14.403  15.011   2.465
14045W        W80454  10.076  23.482  12.015
14046W        W80455  26.679  19.525  10.700
14047W        W80456  26.938   5.611  13.377
14048W        W80457  33.941   4.371   4.922
14049W        W80458   5.169   2.162  10.304
14050W        W80459  19.678   9.648   2.722
14051W        W80460   5.081   3.075   3.698
14052W        W80461  43.273  16.976  13.942
14053W        W80462  41.564  27.221  11.030
14054W        W80463  31.797   6.655   2.474
14055W        W80464  30.062  29.506   2.695
14056W        W80465  10.194   1.355   3.376
14057W        W80466  19.397   9.827  11.197
14058W        W80467  17.615  10.603  12.554
14059W        W80468  24.007  25.574  10.526
14060W        W80469   5.761  42.594   3.799
14061W        W80470  30.888   6.305  12.882
14062W        W80471  29.047  41.218  10.806
14063W        W80472  13.344   5.160   4.021
14064W        W80473  15.075  43.524   2.171
14065W        W80474  16.096  43.004   4.843
14066W        W80475   0.756  33.337   3.291
14067W        W80476   9.422  30.571   2.337
14068W        W80477   8.256  11.601  12.609
14069W        W80478  31.943   0.229  12.055
14070W        W80479   3.534   0.301   1.387
14071W        W80480   4.964  32.379  10.278
14072W        W80481  25.236  12.667   0.312
14073W        W80482   2.299  16.652  12.099
14074W        W80483  37.205  44.009   1.264
14075W        W80484  24.670  17.083   1.441
14076W        W80485  17.266   0.233   1.415
14077W        W80486  12.824  41.265   0.874
14078W        W80487   1.327  34.388   4.702
14079W        W80488  40.750  34.799   0.277
14080W        W80489  28.675  42.783   2.742
14081W        W80490  20.944  31.430  11.854
14082W        W80491  41.347  25.822  13.955
14083W        W80492  32.078  40.478   4.285
14084W        W80493  33.479  29.023  12.504
14085W        W80494   5.205   4.354  13.404
14086W        W80495  10.102   0.001  12.887
14087W        W80496  20.127  24.582   4.629
14088W        W80497  33.097  37.354  11.191
14089W        W80498  41.880  14.181  14.335
14090W        W80499  18.233  10.234   0.050
14091W        W80500  41.544  44.181   0.365
14092W        W80501  39.558  23.477   4.660
14093W        W80502  40.634  20.054   2.734
14094W        W80503  41.065   7.559   4.116
14095W        W80504  18.244   6.750   3.172
14096W        W80505  18.113   3.847  13.852
14097W        W80506  38.615  31.093   5.031
14098W        W80507  35.808   9.162   1.340
14099W        W80508   3.814  23.334   4.619
14100W        W80509   5.257  18.985  11.155
14101W        W80510  28.955   8.667   3.487
14102W        W80511   5.415  22.627   4.573
14103W        W80512  26.914  32.564  14.325
14104W        W80513  22.746  42.516  14.518
14105W        W80514   2.349  28.028   4.920
14106W        W80515  41.311  14.777   4.379
14107W        W80516  43.393  44.503   2.310
14108W        W80517  11.805   6.234  12.194
14109W        W80518  30.488   5.555   4.606
14110W        W80519  21.925  41.031   3.815
14111W        W80520  31.526  24.491   4.184
14112W        W80521  20.738   8.577   2.714
14113W        W80522  27.577   7.559   4.110
14114W        W80523  14.388  25.871  13.886
14115W        W80524  18.076  13.797  14.981
14116W        W80525  26.815  41.308   2.757
14117W        W80526  15.103  24.161  13.476
14118W        W80527  18.762   4.641  13.838
14119W        W80528  43.016  32.272  11.809
14120W        W80529  21.722  21.454  12.158
14121W        W80530   8.412  29.487  14.384
14122W        W80531  37.158   4.817   4.564
14123W        W80532  39.278  19.622   4.518
14124W        W80533   9.198  28.126   0.447
14125W        W80534  31.641  14.487   2.632
14126W        W80535  17.063   0.971  12.890
14127W        W80536  23.324  43.878   2.304
14128W        W80537  11.545  17.548   4.351
14129W        W80538  43.059   5.468   4.435
14130W        W80539  18.535   4.289  14.914
14131W        W80540   3.988  39.265  12.932
14132W        W80541  11.140  11.934  11.619
14133W        W80542  28.133  36.917  11.181
14134W        W80543   0.247  25.546   2.837
14135W        W80544  10.371  16.166   0.770
14136W        W80545  21.011  41.143  12.461
14137W        W80546  38.310  12.219  14.713
14138W        W80547  37.152  20.279  10.895
14139W        W80548   1.478  36.929  10.448
14140W        W80549  39.566  20.554   1.632
14141W        W80550  39.876   4.919   3.885
14142W        W80551   5.671   1.019   0.908
14143W        W80552   6.330  18.184   0.492
14144W        W80553  43.487   7.347  12.512
14145W        W80554   5.205  36.954  12.207
14146W        W80555  31.658   0.073   3.226
14147W        W80556  15.283  21.481  11.636
14148W        W80557  35.407   1.859   2.375
14149W        W80558   5.413  33.545  12.610
14150W        W80559  15.524  30.082  11.001
14151W        W80560  19.082  12.738  12.238
14152W        W80561  13.809  21.700   0.742
14153W        W80562  25.961  11.555  13.930
14154W        W80563   8.103  44.993   4.655
14155W        W80564  32.978   5.686   9.918
14156W        W80565  31.009  30.120  14.779
14157W        W80566   4.169  17.660   2.264
14158W        W80567   3.165  21.682   1.346
14159W        W80568  10.208   8.381  10.465
14160W        W80569  15.127  28.672  14.700
14161W        W80570  15.328   3.222   0.744
14162W        W80571  22.816  38.819  13.528
14163W        W80572  33.348  33.082  10.244
14164W        W80573   1.258  32.895  14.715
14165W        W80574  32.365   3.478   3.481
14166W        W80575  14.259   5.523   4.283
14167W        W80576  32.019   2.172  14.699
14168W        W80577  41.467  35.291  12.591
14169W        W80578   1.223  15.689  14.454
14170W        W80579  32.655  10.647   4.645
14171W        W80580  16.557  22.051   2.828
14172W        W80581  42.625  11.096  11.907
14173W        W80582  42.273  43.087   2.677
14174W        W80583   6.141  32.883  12.013
14175W        W80584   0.977  39.904  12.432
14176W        W80585  27.966  44.310   0.391
14177W        W80586  19.342  14.056  11.985
14178W        W80587  21.218  41.336  12.913
14179W        W80588  28.499  15.644   2.689
14180W        W80589   7.792  24.918   3.769
14181W        W80590  15.619  34.024   4.483
14182W        W80591  16.596  36.841  10.997
14183W        W80592  20.581  34.611  13.772
14184W        W80593  38.063   5.724   1.460
14185W        W80594   9.932   2.034  14.355
14186W        W80595  22.142  11.153   3.679
14187W        W80596   4.416  35.234  14.553
14188W        W80597  34.447  31.866  13.852
14189W        W80598   9.175  25.008   2.342
14190W        W80599  37.479  16.107   0.484
14191W        W80600  16.697  20.220   5.308
14192W        W80601  21.314  14.584  12.547
14193W        W80602  38.978  25.740   3.568
14194W        W80603   9.119   7.775   0.011
14195W        W80604   8.352  42.926   0.545
14196W        W80605  40.516  11.841   1.897
14197W        W80606  36.332  37.761   2.707
14198W        W80607  24.761   8.286   1.853
14199W        W80608  42.910  15.565   1.789
14200W        W80609  39.531  21.457   2.848
14201W        W80610  22.534  38.197   0.384
14202W        W80611  30.432   0.871   1.701
14203W        W80612  31.142  13.163  12.615
14204W        W80613  27.650  27.129   2.288
14205W        W80614   8.559  23.081  13.386
14206W        W80615  41.582  11.083  13.861
14207W        W80616  24.668  14.622  14.586
14208W        W80617  38.481  34.661   1.843
14209W        W80618  19.192  31.971  12.947
14210W        W80619  10.131  17.823  13.550
14211W        W80620   6.033  14.111   1.083
14212W        W80621   9.896  31.649   3.708
14213W        W80622  43.995   4.942   2.754
14214W        W80623  30.255  24.049  12.439
14215W        W80624  35.373  18.525   0.822
14216W        W80625   0.003   7.410   1.314
14217W        W80626  41.397  41.579   4.613
14218W        W80627  31.963  32.307   0.435
14219W        W80628  39.857  29.335   1.448
14220W        W80629   0.340   4.257  13.395
14221W        W80630  32.517   9.392   2.865
14222W        W80631   7.443   3.322   4.951
14223W        W80632  42.941  33.808  11.097
14224W        W80633   1.670  10.280  12.449
14225W        W80634  42.410  44.873   4.667
14226W        W80635   4.713  43.605  13.365
14227W        W80636  29.910  32.151   2.803
14228W        W80637  38.971  12.893   4.902
14229W        W80638  13.406   6.938   4.487
14230W        W80639  16.494  16.721  13.799
14231W        W80640  14.577  31.680   2.720
14232W        W80641  41.904  12.659  13.046
14233W        W80642   0.206   4.746  14.947
14234W        W80643   0.314  29.884   3.852
14235W        W80644   6.645  42.167   0.275
14236W        W80645  41.470  43.859   3.554
14237W        W80646   1.690  34.506  10.919
14238W        W80647  37.605  22.586  11.997
14239W        W80648  12.567  29.113  13.436
14240W        W80649   4.686  13.720   1.227
14241W        W80650  33.414  18.398   4.596
14242W        W80651  39.598  41.494   4.576
14243W        W80652  37.526  20.738  11.977
14244W        W80653  36.486   8.237   1.430
14245W        W80654  21.775  21.563   1.135
14246W        W80655  26.655  27.674  13.422
14247W        W80656  16.110  23.324  14.366
14248W        W80657  25.557   3.441   0.474
14249W        W80658  13.613   2.934   1.777
14250W        W80659  24.152  31.167   3.723
14251W        W80660  21.151  34.369  10.751
14252W        W80661  43.075  21.495   2.236
14253W        W80662  41.630  30.391  10.836
14254W        W80663  34.179  20.965   1.760
14255W        W80664  24.476  38.568  11.304
14256W        W80665   6.197  25.669   1.234
14257W        W80666  37.308  30.541  14.942
14258W        W80667  28.595  27.006  11.134
14259W        W80668   9.403   8.292   1.411
14260W        W80669  11.158  18.601   2.674
14261W        W80670  16.040  17.679   4.259
14262W        W80671   2.723  39.893  12.090
14263W        W80672   9.859   7.034   4.147
14264W        W80673  44.793  39.167  14.717
14265W        W80674   5.966   6.424   2.187
14266W        W80675  43.856   0.287   4.695
14267W        W80676   5.443  13.344  11.957
14268W        W80677   4.338  30.564  14.010
14269W        W80678  11.426  27.996  11.626
14270W        W80679  27.400  11.896  12.908
14271W        W80680  10.686   2.546  11.619
14272W        W80681  14.225  27.741   2.230
14273W        W80682  12.468  43.449  13.436
14274W        W80683  35.108  35.152  10.731
14275W        W80684   7.922  11.717   0.795
14276W        W80685  12.059  19.655   1.820
14277W        W80686  27.724  15.992  10.713
14278W        W80687  24.362  25.301  11.246
14279W        W80688   2.755  30.626   3.296
14280W        W80689  42.684  24.409   1.216
14281W        W80690  40.596  34.377  13.994
14282W        W80691  14.620   3.007   2.636
14283W        W80692  28.788  23.881  11.138
14284W        W80693   9.918  13.661  13.041
14285W        W80694   6.138  41.300  12.519
14286W        W80695  30.302   9.069   9.947
14287W        W80696  19.842  40.623   4.189
14288W        W80697  24.439  16.668  12.516
14289W        W80698  31.582  29.576  14.280
14290W        W80699  38.354  19.557  14.716
14291W        W80700  14.242  24.156   0.782
14292W        W80701  27.854  41.379   9.590
14293W        W80702  16.485   1.664  10.727
14294W        W80703  30.350  14.392   2.694
14295W        W80704   6.752  37.882   2.588
14296W        W80705   0.090  23.473  13.439
14297W        W80706  23.170   9.790   4.059
14298W        W80707  43.552  44.734   3.976
14299W        W80708  13.289  19.030   2.343
14300W        W80709  36.620  32.038   2.107
14301W        W80710  15.613  41.105  13.109
14302W        W80711   6.427  12.959  12.005
14303W        W80712  28.859  17.637  13.922
14304W        W80713  17.974  28.778   3.238
14305W        W80714  23.096  10.946   1.820
14306W        W80715  15.330  27.076   2.462
14307W        W80716   3.209  40.839  13.456
14308W        W80717  29.896  33.886   3.303
14309W        W80718  25.727  22.984   2.269
14310W        W80719  39.561  27.150  12.392
14311W        W80720  18.089  38.821  10.462
14312W        W80721   8.103  19.661   4.221
14313W        W80722  23.699   9.367   4.234
14314W        W80723  41.870  42.804   2.243
14315W        W80724  13.163  11.228  10.782
14316W        W80725  31.347   4.336   2.771
14317W        W80726  25.486   0.895   2.615
14318W        W80727  28.494  36.093  11.913
14319W        W80728  18.948  17.220  13.527
14320W        W80729  18.227  26.330   4.373
14321W        W80730   0.354  33.993  14.900
14322W        W80731  10.085   7.750  14.997
14323W        W80732  15.343  23.713  14.417
14324W        W80733  27.812  20.817  11.914
14325W        W80734  34.230  28.503  14.519
14326W        W80735  40.450  38.489  10.770
14327W        W80736   1.174  11.817   3.823
14328W        W80737  37.090   5.941   1.230
14329W        W80738  11.701  18.606  10.642
14330W        W80739  26.198  40.069   1.267
14331W        W80740  11.393  29.639  13.092
14332W        W80741  10.408   4.218  11.296
14333W        W80742   6.214  12.868   0.444
14334W        W80743  23.682   2.010  11.080
14335W        W80744  38.260  22.108  12.390
14336W        W80745  13.150  26.530  14.324
14337W        W80746  22.828   8.173  13.899
14338W        W80747  29.154  25.685  13.456
14339W        W80748  42.468  43.480   0.808
14340W        W80749  10.740  28.627   0.901
14341W        W80750  40.850  11.161  14.805
14342W        W80751  18.797  13.813  12.883
14343W        W80752  41.729   3.392  11.559
14344W        W80753  22.394  39.054  13.353
14345W        W80754   0.768  29.922   0.817
14346W        W80755   9.142   0.928  10.990
14347W        W80756  44.144  35.854   9.790
14348W        W80757  40.443  25.146   1.453
14349W        W80758  39.559   2.239  13.403
14350W        W80759  39.815   7.917  11.620
14351W        W80760  33.937  19.051   2.628
14352W        W80761  34.017   8.395   3.735
14353W        W80762   2.136  23.979  13.056
14354W        W80763  22.326  18.573   1.116
14355W        W80764  26.652  24.395  13.892
14356W        W80765   4.290  36.196  14.317
14357W        W80766   4.676  17.707  13.358
14358W        W80767   7.425  44.424  13.945
14359W        W80768   7.142   6.612  13.048
14360W        W80769   5.023  32.234   2.884
14361W        W80770  31.238  11.897  13.813
14362W        W80771  44.281  14.815   4.350
14363W        W80772   1.293  37.999   4.548
14364W        W80773  26.129  44.915  13.955
14365W        W80774  18.273  21.355   4.175
14366W        W80775  13.171  35.777  13.822
14367W        W80776   8.621  18.741  14.836
14368W        W80777   0.726  42.815  12.567
14369W        W80778  33.028  15.240  14.202
14370W        W80779  44.017  16.218   1.145
14371W        W80780  26.508  11.346   3.389
14372W        W80781  14.982  27.762  10.331
14373W        W80782  39.310  36.134  14.391
14374W        W80783   0.396  36.031  10.784
14375W        W80784  27.896  42.186   3.128
14376W        W80785  28.909  15.452  12.172
14377W        W80786  20.397   0.404  11.240
14378W        W80787   9.773  25.982   0.648
14379W        W80788  42.783  42.764  11.426
14380W        W80789   8.321   6.329   4.746
14381W        W80790   2.376  27.451   0.122
14382W        W80791  14.899  12.711  13.893
14383W        W80792  39.074  13.732   0.777
14384W        W80793  10.156  12.218  14.833
14385W        W80794   5.307  19.733   4.642
14386W        W80795   9.795  44.378  10.721
14387W        W80796  38.611   8.738  12.017
14388W        W80797   7.762   3.284   1.438
14389W        W80798  40.495  44.958  13.579
14390W        W80799  29.966   1.171   0.403
14391W        W80800  38.082  27.494  14.759
14392W        W80801   3.891  11.682  13.521
14393W        W80802  30.113   7.476   1.572
14394W        W80803  10.884  38.839   1.781
14395W        W80804  29.637  17.636  13.615
14396W        W80805  21.142   0.930  14.403
14397W        W80806  39.850  32.911  13.337
14398W        W80807  44.434  19.044   3.810
14399W        W80808  23.167   1.591   2.155
14400W        W80809   4.227   0.953   4.908
14401W        W80810  29.981  21.774  13.029
14402W        W80811   5.479  22.158   1.398
14403W        W80812   6.391  33.885   2.421
14404W        W80813   0.499  36.345  13.726
14405W        W80814   1.825  18.956  11.801
14406W        W80815   1.361  31.631  12.520
14407W        W80816  38.483  24.790   4.272
14408W        W80817  22.803  37.469  10.767
14409W        W80818  13.546  20.634  14.063
14410W        W80819  22.716  28.277   0.419
14411W        W80820  15.200  18.743  10.279
14412W        W80821  44.440   1.403   1.321
14413W        W80822  10.261  12.006  13.585
14414W        W80823  11.612  12.890   2.746
14415W        W80824  20.106  15.840   5.295
14416W        W80825  20.676  15.598   4.372
14417W        W80826  43.904  30.522   1.735
14418W        W80827  44.003  18.713   0.409
14419W        W80828  12.328   3.351  11.427
14420W        W80829  27.280  20.689  11.915
14421W        W80830  25.537  30.917  11.389
14422W        W80831  38.805   8.606  13.320
14423W        W80832  14.628  30.638   4.756
14424W        W80833  13.128   7.278   3.236
14425W        W80834  32.654  34.777   4.669
14426W        W80835   6.922   9.906   4.253
14427W        W80836  22.068  38.463  14.426
14428W        W80837  11.378  30.434   1.330
14429W        W80838  43.897  21.815   1.842
14430W        W80839  23.471   9.999   2.757
14431W        W80840  37.791  34.131  11.317
14432W        W80841   7.055  20.455  11.855
14433W        W80842  31.001  41.814  12.428
14434W        W80843  12.047  11.305   2.689
14435W        W80844  10.648  18.359  13.834
14436W        W80845  26.976   7.458  11.514
14437W        W80846   9.066  41.305  10.585
14438W        W80847  11.694  11.944  10.266
14439W        W80848  34.656  30.020   2.786
14440W        W80849  39.976  25.630  10.663
14441W        W80850  10.377  34.708   3.932
14442W        W80851  22.484  13.400   2.262
14443W        W80852  10.801   0.285   2.312
14444W        W80853  17.988   4.491  13.204
14445W        W80854   8.409   1.822  12.639
14446W        W80855   2.530  34.787   4.588
14447W        W80856  14.496  20.126  13.334
14448W        W80857   5.774  41.679   1.218
14449W        W80858  24.023  11.473   2.133
14450W        W80859  37.051   0.749   0.930
14451W        W80860  14.960  41.273  10.450
14452W        W80861   3.256   0.001  11.459
14453W        W80862  42.984  34.471   1.891
14454W        W80863  35.144  24.034   3.370
14455W        W80864  41.714   3.704  11.998
14456W        W80865  22.069  10.814  11.782
14457W        W80866  18.672   1.980   1.786
14458W        W80867  23.833  28.997   3.763
14459W        W80868  44.918  29.089  10.576
14460W        W80869  20.173  25.444  10.782
14461W        W80870   5.682  36.383  13.784
14462W        W80871  18.044  37.738   4.080
14463W        W80872  30.915  10.081  10.279
14464W        W80873  30.669  20.276  10.630
14465W        W80874   4.491  31.074   0.446
14466W        W80875  29.327  15.045  13.421
14467W        W80876   5.214  34.447   2.898
14468W        W80877  29.376  15.679  12.193
14469W        W80878  42.987  25.186   4.461
14470W        W80879  29.837  22.066   4.581
14471W        W80880  31.969   5.933   1.747
14472W        W80881  32.394  36.943  14.402
14473W        W80882  43.868   8.338   2.304
14474W        W80883  42.856  18.747   2.678
14475W        W80884   5.388  31.173  14.376
14476W        W80885  42.984  38.706   2.906
14477W        W80886   4.743  40.784  14.953
14478W        W80887  10.855  30.096   0.380
14479W        W80888   5.628  29.692  14.337
14480W        W80889  35.423  14.921   1.369
14481W        W80890  31.362  12.432  11.199
14482W        W80891  11.358  20.087   0.209
14483W        W80892  20.314  27.932   0.378
14484W        W80893  20.612  40.618   3.738
14485W        W80894   7.426   5.806   4.596
14486W        W80895   9.632  12.712   4.445
14487W        W80896  26.014  14.307   2.325
14488W        W80897  38.408  21.659  10.881
14489W        W80898  11.264  29.534  10.923
14490W        W80899   2.768  21.721   2.113
14491W        W80900  30.974  37.841   1.947
14492W        W80901  30.842  11.252  11.505
14493W        W80902   9.150  44.730   0.753
14494W        W80903  31.624  37.838   4.767
14495W        W80904  38.434   5.765   2.798
14496W        W80905  34.955  17.707  11.444
14497W        W80906  40.525  27.468  10.677
14498W        W80907  39.150  13.093   3.093
14499W        W80908  41.183  36.502   4.785
14500W        W80909  11.093  21.594   1.095
14501W        W80910  29.458  38.276  14.864
14502W        W80911  35.846  20.092  12.900
14503W        W80912  26.213  12.346  10.410
14504W        W80913  40.807  12.536  10.508
14505W        W80914  33.989  30.147   1.751
14506W        W80915  22.425   9.463   3.179
14507W        W80916   4.159  11.838   4.997
14508W        W80917  35.879   7.535  12.668
14509W        W80918  38.964   8.409   3.766
14510W        W80919  22.474  15.764  13.843
14511W        W80920  13.961   7.366  12.979
14512W        W80921  28.669  41.323  13.985
14513W        W80922  11.615  25.528   1.490
14514W        W80923  15.424  30.089  12.085
14515W        W80924   8.795   5.388  14.113
14516W        W80925   2.242   7.899  11.898
14517W        W80926  26.963  37.433   4.942
14518W        W80927  22.712  37.087  12.004
14519W        W80928  27.927  39.504  11.143
14520W        W80929  34.965  20.714   0.188
14521W        W80930   5.037  24.669  14.484
14522W        W80931   6.804  38.219  13.149
14523W        W80932  31.466   7.838  12.536
14524W        W80933  35.947   9.937   1.779
14525W        W80934  43.928   0.781  10.881
14526W        W80935  35.005  17.867  12.434
14527W        W80936  25.659  44.714  14.762
14528W        W80937   4.261  40.762   1.450
14529W        W80938  30.204  21.197   2.273
14530W        W80939  22.871  12.635   4.821
14531W        W80940  16.741   8.916  12.031
14532W        W80941  19.927  15.379  13.505
14533W        W80942   9.257  19.349  14.451
14534W        W80943  29.423  37.961   4.022
14535W        W80944  13.527   7.266   2.242
14536W        W80945   9.683  10.413   0.664
14537W        W80946   5.752  20.139  11.495
14538W        W80947  11.606  27.560   3.944
14539W        W80948  34.494  12.143  13.614
14540W        W80949  37.611  41.922   4.126
14541W        W80950  18.649   7.493  11.545
14542W        W80951   2.679   1.315   3.720
14543W        W80952  31.180  39.758  14.524
14544W        W80953  28.966  12.446   4.947
14545W        W80954  32.319  34.751  14.582
14546W        W80955   2.490  13.696   1.639
14547W        W80956  11.404  40.403   4.536
14548W        W80957  36.811   1.210   1.785
14549W        W80958   9.905   2.073   3.682
14550W        W80959  14.795  34.146  11.213
14551W        W80960  43.708  26.239  13.401
14552W        W80961   6.246  41.884   2.941
14553W        W80962   0.738  22.524   3.628
14554W        W80963  28.376  37.904  14.297
14555W        W80964   0.402  41.465  11.957
14556W        W80965  32.889  32.977  14.792
14557W        W80966  29.425  20.407  14.064
14558W        W80967  27.181   0.883   4.172
14559W        W80968  32.996   2.767   2.672
14560W        W80969  29.707  39.316   2.241
14561W        W80970  36.586   1.402   2.709
14562W        W80971  16.258   1.325   2.278
14563W        W80972  35.604  36.449   4.019
14564W        W80973   1.274  11.865  13.734
14565W        W80974  41.937  10.251   0.462
14566W        W80975  41.327  11.991   2.354
14567W        W80976   4.530  18.288   3.937
14568W        W80977  16.990  13.208   1.619
14569W        W80978  14.840  36.038  11.125
14570W        W80979  12.949   5.041   0.284
14571W        W80980  17.276  11.724  13.581
14572W        W80981  38.103  12.844   4.951
14573W        W80982  38.101  15.585   9.957
14574W        W80983  28.588  41.108   0.336
14575W        W80984  41.799  16.770  12.466
14576W        W80985  40.760  27.855   1.910
14577W        W80986  21.557  32.780   3.758
14578W        W80987  23.115  37.897   2.929
14579W        W80988  44.000  17.001   3.642
14580W        W80989  36.084  32.390  11.557
14581W        W80990  42.038  17.659  12.722
14582W        W80991  19.103  28.899   2.440
14583W        W80992  35.162  38.648  12.111
14584W        W80993  16.854  11.746   3.227
14585W        W80994  44.274  23.246  10.394
14586W        W80995  10.156  34.599  13.763
14587W        W80996  25.084  38.803   2.816
14588W        W80997  10.358  11.694   3.992
14589W        W80998  44.732   6.850  12.515
14590W        W80999  43.376  41.381  14.818
14591W        W81000  34.648  31.579   2.186
14592W        W81001   0.678  33.751  12.599
14593W        W81002  30.510  37.959  11.641
14594W        W81003  40.544   7.239  13.387
14595W        W81004  18.257  28.356   3.349
14596W        W81005  35.746  25.241  13.592
14597W        W81006  31.410  16.326  12.416
14598W        W81007  32.402   3.246  13.857
14599W        W81008  41.384  20.670   2.695
14600W        W81009  11.177  19.059   3.756
14601W        W81010  10.576   6.564  13.781
14602W        W81011  35.518  25.108  11.689
14603W        W81012  27.146  13.859   4.562
14604W        W81013  23.196  23.098  14.406
14605W        W81014  21.014  41.311   4.583
14606W        W81015  21.351  17.592  14.928
14607W        W81016   9.706  13.152  12.444
14608W        W81017  32.327  41.605  14.840
14609W        W81018  27.349  28.671   0.818
14610W        W81019  15.567  38.303   2.090
14611W        W81020  27.640  15.323   4.827
14612W        W81021   1.790   0.695   0.927
14613W        W81022  11.065  37.028  11.225
14614W        W81023   9.595  14.117  12.428
14615W        W81024  15.073  18.526   2.154
14616W        W81025  31.684  34.419  14.016
14617W        W81026  31.558  11.474  12.630
14618W        W81027   2.929   5.441  12.530
14619W        W81028  38.663  37.961   3.817
14620W        W81029  37.636  20.468  11.402
14621W        W81030  18.721  44.433  10.224
14622W        W81031  10.325  14.706   0.835
14623W        W81032   4.127  34.803   3.892
14624W        W81033  38.026  24.276   0.734
14625W        W81034  43.362  14.172   3.663
14626W        W81035  34.963  30.024   4.554
14627W        W81036  41.873  26.120  11.044
14628W        W81037  38.098  25.096  13.327
14629W        W81038  27.096  33.000  14.559
14630W        W81039  13.712   8.326  13.044
14631W        W81040  30.873  33.473   3.028
14632W        W81041  34.869   4.947   3.589
14633W        W81042   7.898  34.773  13.030
14634W        W81043   2.777  15.515   0.804
14635W        W81044  38.211  14.740  10.244
14636W        W81045   4.845  43.496   4.162
14637W        W81046   0.877  10.825   4.157
14638W        W81047  34.264  34.392   0.016
14639W        W81048  39.509  38.147   2.747
14640W        W81049  41.764   9.320  12.923
14641W        W81050  43.385  10.191  13.467
14642W        W81051  38.498   4.376  14.066
14643W        W81052  17.137  39.603   0.452
14644W        W81053  20.795  12.946  12.650
14645W        W81054   4.581   9.884  13.911
14646W        W81055   8.721   3.821   4.690
14647W        W81056  20.951  22.669   2.332
14648W        W81057  28.647   2.652   1.892
14649W        W81058  11.070  43.846  11.896
14650W        W81059  33.151  19.145   3.910
14651W        W81060   1.176  30.987  10.563
14652W        W81061  38.908  17.364  14.321
14653W        W81062  10.877  31.515   0.699
14654W        W81063  35.113  40.259   1.186
14655W        W81064  17.326  18.532   4.525
14656W        W81065  41.865   3.957  13.437
14657W        W81066  18.137  11.625  12.286
14658W        W81067  23.933  16.166   0.843
14659W        W81068  31.624  30.152  10.658
14660W        W81069  18.638   2.418   3.917
14661W        W81070  13.565  33.295   3.714
14662W        W81071  26.788  28.667   2.173
14663W        W81072  37.201   3.360  12.269
14664W        W81073  15.494   5.826   4.480
14665W        W81074  42.636   5.677   4.707
14666W        W81075  44.181  39.815  13.003
14667W        W81076  31.433   7.792  10.982
14668W        W81077  35.117   5.644  12.110
14669W        W81078  20.130  15.160   3.236
14670W        W81079  44.971   2.672  14.970
14671W        W81080  29.967  15.736   0.564
14672W        W81081  43.294  24.174  12.379
14673W        W81082  43.605  32.416   2.913
14674W        W81083  16.867  14.708  13.288
14675W        W81084  35.392  22.055   0.999
14676W        W81085  16.510  33.392  11.822
14677W        W81086   1.558   4.292   2.227
14678W        W81087  29.655  33.822   0.405
14679W        W81088  41.622  22.446  12.565
14680W        W81089  39.555  15.689   0.399
14681W        W81090  26.007   9.111   1.610
14682W        W81091   4.713  28.475  12.391
14683W        W81092  25.125  17.554   3.635
14684W        W81093  27.428  42.366   3.209
14685W        W81094  35.081  39.724  12.921
14686W        W81095   9.249  44.379   1.175
14687W        W81096  11.689   0.425  11.120
14688W        W81097  42.708   0.431   1.943
14689W        W81098  40.974  27.167   1.353
14690W        W81099   7.706   3.315  11.543
14691W        W81100  21.309   7.549   4.856
14692W        W81101  19.963  17.087  13.432
14693W        W81102  19.987  27.054   2.713
14694W        W81103  40.403   0.408  10.632
14695W        W81104  15.040  21.302  14.845
14696W        W81105  24.933  10.742   3.625
14697W        W81106  41.154   3.866  11.285
14698W        W81107  40.240  29.639   1.256
14699W        W81108  27.357  44.454  12.310
14700W        W81109  17.155  41.438  12.132
14701W        W81110   3.498  21.924   0.976
14702W        W81111   7.683   2.431   4.444
14703W        W81112   4.439  42.521   3.740
14704W        W81113  40.865  30.127  11.906
14705W        W81114  38.212   3.919  12.448
14706W        W81115  42.512  14.757   3.866
14707W        W81116   5.385  13.787   3.856
14708W        W81117   7.304   0.104  12.573
14709W        W81118  24.536  37.675  10.269
14710W        W81119  44.704  22.629   2.512
14711W        W81120   4.422  23.032  12.541
14712W        W81121   8.633   6.138   1.968
14713W        W81122   6.443  14.785   1.316
14714W        W81123  27.478  41.846   2.994
14715W        W81124  13.313   2.625   3.298
14716W        W81125  15.766  29.767  14.892
14717W        W81126  40.489  37.898   2.775
14718W        W81127  28.797   3.516   3.128
14719W        W81128   1.763   8.088  12.032
14720W        W81129  28.046   5.951  11.855
14721W        W81130   1.279  15.221  10.749
14722W        W81131  25.723  40.999  11.221
14723W        W81132  43.055   5.243  12.653
14724W        W81133  39.441  25.604  13.419
14725W        W81134   0.083  39.796   3.321
14726W        W81135  40.913  32.813   4.488
14727W        W81136   4.998  23.281  13.735
14728W        W81137  28.416  44.875  13.150
14729W        W81138  15.804  40.930  11.886
14730W        W81139   0.466   2.369  12.554
14731W        W81140   6.791  44.420  11.376
14732W        W81141  39.624  36.088   0.355
14733W        W81142  38.383  18.767  14.483
14734W        W81143  17.838  33.470  11.168
14735W        W81144  34.746  35.600  10.778
14736W        W81145  39.791   2.823   1.024
14737W        W81146   5.636  34.981   3.606
14738W        W81147  34.354  43.435   3.268
14739W        W81148  20.171   6.128   1.963
14740W        W81149   1.383   1.524  14.285
14741W        W81150  26.027  31.261   2.774
14742W        W81151  20.160  18.896  13.986
14743W        W81152  30.566   6.852   0.684
14744W        W81153  15.549  30.471  10.663
14745W        W81154   2.498  33.131  13.422
14746W        W81155  28.425   0.164   1.885
14747W        W81156   4.969   9.338   1.728
14748W        W81157  35.569  28.166  12.100
14749W        W81158  19.450  15.893   0.101
14750W        W81159  24.702  34.780   2.412
14751W        W81160  27.130  26.702  11.184
14752W        W81161   3.377  19.462   4.945
14753W        W81162  17.653  12.749  11.519
14754W        W81163  24.470  15.573   2.375
14755W        W81164  35.814  26.631   2.103
14756W        W81165  23.588  28.402  11.560
14757W        W81166   6.191  41.379   3.091
14758W        W81167   2.297  33.065   3.985
14759W        W81168  10.769  38.534   3.047
14760W        W81169  12.488   8.337  11.021
14761W        W81170  24.978  11.909   0.744
14762W        W81171  21.040  20.056  11.498
14763W        W81172  22.515  12.358   2.259
14764W        W81173  15.191   6.796  11.243
14765W        W81174  30.204  14.269   4.887
14766W        W81175   9.464   5.722  11.133
14767W        W81176   6.919  29.352   3.695
14768W        W81177  38.791   8.070   4.159
14769W        W81178   4.534   2.024   2.259
14770W        W81179   4.270  44.754  11.683
14771W        W81180  25.497  23.597   3.161
14772W        W81181  34.799   8.663   3.239
14773W        W81182  33.270  22.598  11.731
14774W        W81183   2.820  32.954  13.040
14775W        W81184   4.501   3.883   1.710
14776W        W81185  38.971  13.449  10.723
14777W        W81186  22.502  27.620  10.480
14778W        W81187   2.032  16.567  13.007
14779W        W81188  32.230  38.112   3.979
14780W        W81189   7.818  36.301  10.725
14781W        W81190   7.279  29.589   0.941
14782W        W81191  38.317   1.984   3.182
14783W        W81192  36.928  34.332  14.809
14784W        W81193  19.210   9.665   4.893
14785W        W81194  44.425  25.757   3.267
14786W        W81195   1.956   3.034  12.071
14787W        W81196  29.037  40.952  12.661
14788W        W81197  43.003  43.122  12.878
14789W        W81198  30.916   9.259  14.782
14790W        W81199  22.813  21.138  11.377
14791W        W81200  18.249   6.712  14.846
14792W        W81201  42.725  13.207   0.302
14793W        W81202  42.588  41.263  10.552
14794W        W81203  42.881  14.364  10.932
14795W        W81204  38.266  39.702   0.323
14796W        W81205  29.688  10.747  10.870
14797W        W81206   5.437  16.541  11.704
14798W        W81207  44.287  11.062  14.180
14799W        W81208  29.086  14.806   2.064
14800W        W81209  34.864  31.379   3.222
14801W        W81210  15.231  32.645  13.030
14802W        W81211  18.613  22.640   2.888
14803W        W81212  26.277  39.081   0.680
14804W        W81213  29.018  25.378   4.759
14805W        W81214   3.128  22.172  12.861
14806W        W81215   5.857  43.845   3.177
14807W        W81216  23.127  29.541   4.509
14808W        W81217  22.061   3.372  11.957
14809W        W81218   8.083  42.141  12.896
14810W        W81219  44.869   5.619   3.845
14811W        W81220   1.864  23.930  11.123
14812W        W81221  27.433   3.667   1.222
14813W        W81222  11.226  22.196   1.034
14814W        W81223   9.180  16.503  12.579
14815W        W81224  30.460   8.428  12.433
14816W        W81225  19.838   2.905  11.158
14817W        W81226  40.588  31.223  13.512
14818W        W81227  40.588  12.213   2.649
14819W        W81228  19.130  41.105   0.284
14820W        W81229  41.627  23.985  14.024
14821W        W81230  36.886  30.936  14.962
14822W        W81231  18.837  19.620  13.465
14823W        W81232  18.054   5.842   4.073
14824W        W81233  24.165   8.217   1.165
14825W        W81234  32.465  34.140   2.892
14826W        W81235   5.667  19.676   3.878
14827W        W81236  33.438  37.381  12.468
14828W        W81237  44.778  37.384  10.171
14829W        W81238  44.947  25.070  14.046
14830W        W81239  25.489   6.750   3.594
14831W        W81240  28.099  12.249   2.259
14832W        W81241  14.670  28.954   2.384
14833W        W81242   3.243  18.820   0.811
14834W        W81243  34.472   8.587  12.563
14835W        W81244  11.621  32.589  13.607
14836W        W81245   0.018   1.927   2.237
14837W        W81246  23.056  35.020   2.599
14838W        W81247  36.789  32.050  11.411
14839W        W81248  17.112  22.790   2.349
14840W        W81249  28.259  30.070  12.103
14841W        W81250  14.589  13.145  13.965
14842W        W81251  35.038  15.688   5.021
14843W        W81252   1.767  41.948   3.297
14844W        W81253  29.337  23.744  10.986
14845W        W81254  38.123  28.571  10.860
14846W        W81255  35.310  10.143   3.182
14847W        W81256   4.612  17.268  12.006
14848W        W81257   5.802  15.107  14.724
14849W        W81258  37.325  18.533  13.085
14850W        W81259  37.615  17.090  14.373
14851W        W81260  26.646  20.497   4.133
14852W        W81261  16.785  44.917   4.223
14853W        W81262  34.330   8.772  13.838
14854W        W81263  37.355   5.847   4.521
14855W        W81264  23.466  32.338   1.453
14856W        W81265   6.408  44.445  14.484
14857W        W81266  16.995   0.227  11.437
14858W        W81267  14.655  15.959   2.763
14859W        W81268  30.708  29.147   2.160
14860W        W81269  42.494   0.875  12.081
14861W        W81270  12.152  41.843   1.356
14862W        W81271  26.923  15.768  10.746
14863W        W81272   4.334  27.464   3.215
14864W        W81273  38.016  29.003   1.234
14865W        W81274  17.534  21.040  11.692
14866W        W81275  40.942  28.149  10.712
14867W        W81276  38.289  34.421  10.635
14868W        W81277  20.727  25.071  13.799
14869W        W81278   7.898  26.676   4.454
14870W        W81279  11.048  19.248  11.107
14871W        W81280  23.705  23.744  10.644
14872W        W81281   5.134   9.337  12.311
14873W        W81282  43.430  40.655   4.926
14874W        W81283  21.260  12.801  12.028
14875W        W81284   5.393  43.379  14.262
14876W        W81285  34.923   0.887   1.874
14877W        W81286  11.291  23.535  12.458
14878W        W81287  17.879  12.514  11.104
14879W        W81288  30.311  19.306  14.797
14880W        W81289   5.121  23.494  11.584
14881W        W81290  31.883  31.244  11.089
14882W        W81291  13.888  40.106   2.120
14883W        W81292  30.099  17.786  12.435
14884W        W81293  25.218   3.697  10.702
14885W        W81294  27.999  11.314  12.955
14886W        W81295  21.313   2.052  10.849
14887W        W81296  35.843   3.894   5.408
14888W        W81297  16.095  39.561   3.103
14889W        W81298  23.744  29.359   2.660
14890W        W81299  40.027  20.513  14.789
14891W        W81300  28.879   2.211   0.175
14892W        W81301  29.860   0.430  14.768
14893W        W81302  18.077  29.573  14.183
14894W        W81303  18.037  11.592   4.530
14895W        W81304  44.186   3.701  11.909
14896W        W81305  12.152  19.727   3.177
14897W        W81306  33.075  11.586  12.485
14898W        W81307  40.276  35.168   2.689
14899W        W81308  24.554  20.226   3.749
14900W        W81309   4.314  14.565   1.730
14901W        W81310  29.754  41.374  11.203
14902W        W81311  27.799  39.170  14.124
14903W        W81312   9.734  29.430   4.321
14904W        W81313  43.900  26.204  10.820
14905W        W81314  32.974   9.390   4.729
14906W        W81315  37.839  17.836   0.212
14907W        W81316  10.641  42.786  11.536
14908W        W81317   1.354  36.779   4.951
14909W        W81318  10.326  38.125  12.858
14910W        W81319   8.872  43.424   0.859
14911W        W81320  29.770  11.884   3.951
14912W        W81321  27.838  26.431   1.038
14913W        W81322  27.380  17.668   3.262
14914W        W81323   8.173  28.627   1.711
14915W        W81324  18.559  18.394   5.079
14916W        W81325  37.129  22.538   3.884
14917W        W81326  42.491  28.944  10.511
14918W        W81327   2.357   0.022   3.377
14919W        W81328  31.506  43.982   0.709
14920W        W81329   8.827  26.934  11.116
14921W        W81330  15.873  29.335  11.199
14922W        W81331  37.077  17.181  10.724
14923W        W81332  22.455  42.968  13.862
14924W        W81333  26.575  20.624   3.281
14925W        W81334   6.196   9.274  14.120
14926W        W81335  31.155  30.532   4.403
14927W        W81336   8.380  38.952   1.488
14928W        W81337  35.968   8.583   0.332
14929W        W81338  21.548  41.715   1.061
14930W        W81339  26.449   2.253  12.528
14931W        W81340  12.109  11.088  12.119
14932W        W81341  33.947  37.478  12.447
14933W        W81342  28.644  10.465   0.185
14934W        W81343   6.775  42.032  10.631
14935W        W81344  34.394  36.105  14.808
14936W        W81345  35.643  21.161  10.747
14937W        W81346  42.815   2.499   0.752
14938W        W81347  44.475   9.617  14.972
14939W        W81348  38.874  18.711  12.246
14940W        W81349   4.181  39.152  14.924
14941W        W81350   5.909  41.547  10.584
14942W        W81351   4.933  29.483  13.337
14943W        W81352  22.166   5.707   1.729
14944W        W81353  31.887  27.419  11.902
14945W        W81354  43.924  23.768  12.881
14946W        W81355  15.659  42.621  13.120
14947W        W81356  35.152  18.421  10.332
14948W        W81357   3.236  44.390   4.139
14949W        W81358  44.462  10.139   3.426
14950W        W81359  18.731  23.022   2.217
14951W        W81360   6.257  23.969  14.015
14952W        W81361  35.358  29.912  14.843
14953W        W81362  42.776   0.631  13.823
14954W        W81363  10.308  22.319   1.678
14955W        W81364  32.613  18.709   1.582
14956W        W81365   3.322   6.262  10.559
14957W        W81366  33.763  25.048  12.364
14958W        W81367  33.315  28.101  14.503
14959W        W81368  17.697  11.498  11.994
14960W        W81369   8.971   6.446   3.671
14961W        W81370  11.339   8.550   0.506
14962W        W81371  18.243  30.328   4.791
14963W        W81372  35.566  28.673   2.940
14964W        W81373   8.314  20.661  12.466
14965W        W81374  29.047  25.004  13.005
14966W        W81375  21.061  12.539   3.359
14967W        W81376  30.600  41.668   0.990
14968W        W81377   8.824  43.933  12.601
14969W        W81378  34.636  40.868   0.361
14970W        W81379   9.843  12.263   0.431
14971W        W81380  29.597   1.245   0.942
14972W        W81381   9.422   4.408   3.651
14973W        W81382  11.028   9.057  11.198
14974W        W81383  30.099  27.692  12.008
14975W        W81384   4.849  17.172  13.450
14976W        W81385  33.648  36.824   1.252
14977W        W81386  26.070  33.374  12.519
14978W        W81387  12.752   7.168   0.508
14979W        W81388  11.959  31.319  10.713
14980W        W81389   5.963  37.117   3.443
14981W        W81390   2.634  16.252  12.040
14982W        W81391  21.476  15.562   0.917
14983W        W81392  35.753  44.669  14.221
14984W        W81393  28.276   1.791  12.430
14985W        W81394  16.521   1.846  13.576
14986W        W81395  37.687  41.036  12.421
14987W        W81396  11.630  32.239   4.855
14988W        W81397  27.887   6.963  14.906
14989W        W81398  14.867  18.033   2.810
14990W        W81399   5.398   3.169  14.750
14991W        W81400  41.060  38.163  10.731
14992W        W81401  24.195  14.524   3.316
14993W        W81402  43.539   4.683  13.277
14994W        W81403  12.293  14.164  13.041
14995W        W81404  10.191   3.969   3.754
14996W        W81405  21.280  16.598   9.965
14997W        W81406  11.232  24.126   0.250
14998W        W81407  42.895  44.120  12.850
14999W        W81408  18.701  15.298  13.795
15000W        W81409   0.682  25.932   4.166
15001W        W81410  42.915  10.405  13.613
15002W        W81411  15.505  30.484   5.041
15003W        W81412  29.483   4.008   0.408
15004W        W81413  33.115   8.021   2.389
15005W        W81414  24.934  39.443   1.222
15006W        W81415   7.216  15.693   4.222
15007W        W81416  41.009  44.844  12.099
15008W        W81417  41.865  24.770   4.964
15009W        W81418  19.558  43.975   3.592
15010W        W81419  14.354  30.664  14.526
15011W        W81420  28.170  14.261  14.083
15012W        W81421  11.771   8.215   0.508
15013W        W81422  32.441  42.870   0.408
15014W        W81423   4.386  15.889   4.702
15015W        W81424  22.510  36.985   4.166
15016W        W81425  44.846   1.502  10.805
15017W        W81426  38.613   9.406   3.970
15018W        W81427  41.032  19.081  10.533
15019W        W81428  26.309  40.824   4.794
15020W        W81429   3.486  44.713  10.579
15021W        W81430  34.241   5.005  10.778
15022W        W81431  36.194  44.599   4.208
15023W        W81432   3.198  19.711  10.715
15024W        W81433   4.765  11.455  13.261
15025W        W81434  13.716  14.550  13.862
15026W        W81435  15.242  10.510   3.199
15027W        W81436  39.915  13.437  11.639
15028W        W81437  44.382  33.623   2.007
15029W        W81438   6.877  21.437   1.076
15030W        W81439  14.424  15.123   4.297
15031W        W81440   2.843  35.302   1.267
15032W        W81441  34.659  36.967   3.293
15033W        W81442  43.967  22.302  14.970
15034W        W81443  10.103   8.587   4.086
15035W        W81444  13.545  11.248  12.931
15036W        W81445   0.931  29.099   4.080
15037W        W81446  18.569   2.033  13.370
15038W        W81447  22.261  19.038   2.363
15039W        W81448  24.554  24.294  13.599
15040W        W81449  27.174  14.653  14.934
15041W        W81450  14.683  38.277   3.597
15042W        W81451  19.836  22.529  11.586
15043W        W81452  20.346  44.128  11.564
15044W        W81453  22.433   9.718   4.922
15045W        W81454  26.169  23.504   3.745
15046W        W81455  43.194  36.073   4.902
15047W        W81456  14.448  32.372   1.123
15048W        W81457  10.365  40.314   3.293
15049W        W81458  31.657  21.823  14.882
15050W        W81459  29.024  19.030  11.374
15051W        W81460  31.948  44.504  10.106
15052W        W81461  41.083  13.506   4.903
15053W        W81462  26.653  20.130  11.358
15054W        W81463   6.363  40.550  12.319
15055W        W81464  38.045  22.211   0.048
15056W        W81465  11.068  19.503   1.851
15057W        W81466  32.098   2.322   1.083
15058W        W81467  23.729  25.978   3.725
15059W        W81468   9.324  17.295   3.360
15060W        W81469   8.388  31.941  11.995
15061W        W81470   9.722  21.196   5.011
15062W        W81471   6.746  23.214   3.673
15063W        W81472  20.439  15.980   4.110
15064W        W81473  33.506  15.778  13.057
15065W        W81474  38.106  17.032   3.836
15066W        W81475  40.147   8.740  13.532
15067W        W81476  16.399   6.188  13.957
15068W        W81477  33.547  17.595   4.255
15069W        W81478   9.274  11.598   2.516
15070W        W81479  21.935  18.163   1.987
15071W        W81480  38.714  29.917  10.539
15072W        W81481  21.716  22.805  12.654
15073W        W81482  31.416  27.587  12.317
15074W        W81483  24.954  43.502  13.464
15075W        W81484  41.734   7.124   2.224
15076W        W81485  34.633  11.676   3.660
15077W        W81486  41.516  39.523   4.594
15078W        W81487   7.295  28.301  10.231
15079W        W81488   3.630  38.595   2.419
15080W        W81489   7.815  43.402   3.389
15081W        W81490  16.799  20.456   4.109
15082W        W81491   8.743   3.309   1.705
15083W        W81492  22.082  38.058  10.735
15084W        W81493   0.513  30.713  12.234
15085W        W81494  36.118  23.899   0.281
15086W        W81495  10.160  31.164   2.691
15087W        W81496   4.696  35.981   1.637
15088W        W81497  26.834  36.442   0.867
15089W        W81498   8.645  10.901  12.077
15090W        W81499   0.803  10.326  13.557
15091W        W81500  37.573   7.973   0.683
15092W        W81501  30.003  11.250  12.910
15093W        W81502   6.629  38.334   0.053
15094W        W81503   3.705   6.261   1.256
15095W        W81504  15.263  12.646   4.620
15096W        W81505   8.743  17.991  11.738
15097W        W81506  33.383  39.493  12.375
15098W        W81507  35.742   9.922  12.372
15099W        W81508  39.012  20.114   4.137
15100W        W81509  33.036  41.562   0.403
15101W        W81510  28.662  10.614   4.097
15102W        W81511  23.098  29.099   4.179
15103W        W81512   8.209  19.157  11.832
15104W        W81513  16.846  13.240  11.732
15105W        W81514  40.543  36.859  11.126
15106W        W81515  44.523   7.336  12.431
15107W        W81516  33.407  28.741   4.459
15108W        W81517   0.703   4.222   2.840
15109W        W81518  39.948  38.264  11.690
15110W        W81519   0.918  29.917   3.392
15111W        W81520  34.884   5.807   3.666
15112W        W81521   5.014  35.678  10.514
15113W        W81522   3.829  31.480   4.777
15114W        W81523  26.137   9.398  13.036
15115W        W81524  24.281  36.276   1.787
15116W        W81525  30.370  21.558   0.333
15117W        W81526  39.387   6.992  10.669
15118W        W81527  24.446  10.318   1.438
15119W        W81528  19.421  32.620   3.712
15120W        W81529  41.867  34.379  10.334
15121W        W81530   0.497   9.687  12.954
15122W        W81531  25.973  44.739   3.059
15123W        W81532  43.452   2.328   2.126
15124W        W81533  22.519  21.209   3.284
15125W        W81534   0.293  43.859  14.001
15126W        W81535  40.845  39.453  10.624
15127W        W81536   0.046   1.741  12.407
15128W        W81537  33.612   1.454   1.838
15129W        W81538  10.148   3.184  12.876
15130W        W81539   7.197  21.012   2.285
15131W        W81540  19.148  21.713  12.486
15132W        W81541  28.385  44.655   1.787
15133W        W81542  28.817  30.879   3.895
15134W        W81543   9.678  31.490   2.793
15135W        W81544   3.326  23.171   1.347
15136W        W81545  32.639   4.981  10.617
15137W        W81546  36.319  23.353   3.675
15138W        W81547  18.808  37.598   3.718
15139W        W81548  14.930  22.177   3.229
15140W        W81549  17.085   6.918   0.021
15141W        W81550  40.931  40.477   4.145
15142W        W81551  41.847   9.342   2.721
15143W        W81552  26.070  34.366  13.895
15144W        W81553  15.853  32.121  14.445
15145W        W81554  34.062   0.177  12.905
15146W        W81555  43.020   3.248  12.884
15147W        W81556  17.164   9.872   3.059
15148W        W81557   6.495  28.214   4.611
15149W        W81558  38.401  27.935   3.823
15150W        W81559  41.077  35.026   3.140
15151W        W81560  26.703  20.455  14.972
15152W        W81561   5.370  39.645  12.268
15153W        W81562  30.831  21.640   1.672
15154W        W81563   6.262  44.416  11.533
15155W        W81564   5.084  32.569  14.933
15156W        W81565  29.107  34.759   1.673
15157W        W81566   8.251  16.974   2.836
15158W        W81567   7.788  28.404  13.014
15159W        W81568   1.422  41.275  12.910
15160W        W81569  29.964  10.688  13.850
15161W        W81570  28.231  20.588   4.508
15162W        W81571  30.209  29.041   2.020
15163W        W81572  28.655  38.062   1.230
15164W        W81573  30.581  12.907  14.356
15165W        W81574  10.742   2.392   3.154
15166W        W81575  39.561  10.124   0.360
15167W        W81576  37.998  43.485   3.916
15168W        W81577  32.175  24.056  11.013
15169W        W81578  44.301  41.979  11.613
15170W        W81579   1.281  23.360  12.999
15171W        W81580  14.245   6.050   4.250
15172W        W81581  25.237  20.495  11.895
15173W        W81582  23.989   9.064   2.711
15174W        W81583   8.656  37.589  13.548
15175W        W81584  32.524  37.700   2.317
15176W        W81585  19.627  35.876   4.705
15177W        W81586  37.514  27.967  12.222
15178W        W81587  32.015  26.073   1.455
15179W        W81588  19.140  13.901  11.531
15180W        W81589  18.790  39.831  13.284
15181W        W81590  40.291  39.484  12.986
15182W        W81591  37.045  26.193  12.527
15183W        W81592   8.427  41.000  10.720
15184W        W81593  43.498  14.972  11.039
15185W        W81594   2.898  10.573  10.717
15186W        W81595  43.491  11.740   5.010
15187W        W81596  23.185   1.802  10.881
15188W        W81597  39.801  20.714   0.219
15189W        W81598  20.362   4.190   1.054
15190W        W81599  25.306   8.709   0.448
15191W        W81600   7.303  38.031  12.700
15192W        W81601  11.225  25.429  13.843
15193W        W81602  32.589  31.084   2.674
15194W        W81603   1.447  34.473  14.885
15195W        W81604  23.226  18.609   0.199
15196W        W81605  43.784   5.002  14.906
15197W        W81606   4.010  41.431   0.270
15198W        W81607  26.249  32.398  10.762
15199W        W81608  25.248  25.255   2.720
15200W        W81609  26.645  21.462   1.403
15201W        W81610  14.781  44.320  12.093
15202W        W81611  37.438  34.361  11.659
15203W        W81612  42.172   5.345  10.924
15204W        W81613   1.547  28.106  13.710
15205W        W81614  28.182  12.158   0.834
15206W        W81615   5.649  34.100   0.860
15207W        W81616  41.807  23.812  12.803
15208W        W81617  41.353  34.080   4.096
15209W        W81618  42.490   9.405   0.317
15210W        W81619  32.128   7.781  12.917
15211W        W81620   9.862  11.446  11.913
15212W        W81621  35.894  38.044   2.766
15213W        W81622  20.174  31.971   3.308
15214W        W81623  23.591   1.501  10.873
15215W        W81624  27.055  17.284  10.665
15216W        W81625  44.257  39.455  12.630
15217W        W81626   7.458   3.005  14.118
15218W        W81627  40.313  23.281  10.785
15219W        W81628  34.184   3.000   3.167
15220W        W81629   3.366   0.655  14.511
15221W        W81630  13.726  32.124  12.048
15222W        W81631  41.081   1.821   0.692
15223W        W81632  25.299   2.440   1.938
15224W        W81633  32.401   4.370   2.720
15225W        W81634  35.358  27.226   2.459
15226W        W81635  32.593  24.316   0.378
15227W        W81636   7.392   3.622  12.416
15228W        W81637  30.154  32.935  12.025
15229W        W81638  16.835   1.417  13.488
15230W        W81639  38.099  39.510  11.155
15231W        W81640  19.140   6.827   4.901
15232W        W81641  11.881   8.607   1.687
15233W        W81642  22.275   9.497  12.453
15234W        W81643  16.962   5.766  10.179
15235W        W81644  10.894  44.233  13.519
15236W        W81645  30.031  33.079   1.930
15237W        W81646  20.225  12.553   1.770
15238W        W81647  39.463   3.279   3.686
15239W        W81648   3.486  15.235   4.387
15240W        W81649  17.659  16.583   3.603
15241W        W81650  24.151  31.672   2.859
15242W        W81651  29.673   2.541   0.541
15243W        W81652  16.715  22.607  12.807
15244W        W81653  41.402  11.724  13.850
15245W        W81654  14.436  18.367   2.922
15246W        W81655  27.189  16.107   0.718
15247W        W81656   5.723   1.075  13.144
15248W        W81657   4.199  27.798  10.277
15249W        W81658  29.051  23.489   2.881
15250W        W81659  33.009  41.313   4.615
15251W        W81660  15.550  24.489   0.177
15252W        W81661  18.378  32.802  12.410
15253W        W81662  11.130  36.830  14.802
15254W        W81663   7.148  32.182   2.738
15255W        W81664  40.939  30.183  13.023
15256W        W81665   1.887  41.346   4.111
15257W        W81666  21.581  34.312  12.306
15258W        W81667  25.107  43.956  14.379
15259W        W81668  20.766  42.997  13.181
15260W        W81669  21.269   4.743  11.702
15261W        W81670   3.272  11.117   1.870
15262W        W81671  37.261  40.726  11.692
15263W        W81672  42.823  30.093  10.613
15264W        W81673   5.903  36.273  12.345
15265W        W81674  32.419  12.913   0.700
15266W        W81675  20.666  31.289  13.320
15267W        W81676  28.610  27.906   0.867
15268W        W81677  17.149   4.649  14.319
15269W        W81678   6.469  29.645   1.766
15270W        W81679  27.551   1.892  11.209
15271W        W81680  33.961   3.040   2.342
15272W        W81681  33.364  26.641  14.001
15273W        W81682  28.049  34.473  12.610
15274W        W81683  23.568   9.446   0.866
15275W        W81684  13.575  15.292  14.364
15276W        W81685   3.439  30.840  10.822
15277W        W81686  26.284  38.453   1.877
15278W        W81687  23.553  25.902  11.463
15279W        W81688  35.977  26.264  11.237
15280W        W81689  24.569  17.589   3.752
15281W        W81690   3.307  41.986   2.856
15282W        W81691   8.745  36.507  12.568
15283W        W81692  37.940  19.671   4.382
15284W        W81693  23.492   8.330   2.402
15285W        W81694  42.062  37.981  13.508
15286W        W81695  22.830   5.713  12.131
15287W        W81696  34.842  33.597   2.192
15288W        W81697   0.446   9.166  13.032
15289W        W81698  39.157  38.917  10.268
15290W        W81699   8.170  33.004   0.724
15291W        W81700  22.507   5.696   5.014
15292W        W81701   1.454  40.886   2.689
15293W        W81702  18.546   8.703   4.104
15294W        W81703  12.353   1.300  14.810
15295W        W81704   2.488  37.789   1.728
15296W        W81705  17.838  29.786   0.919
15297W        W81706  24.455  25.575  10.783
15298W        W81707  40.384   6.394  12.008
15299W        W81708  31.842  32.647  11.893
15300W        W81709   1.547  32.886  11.081
15301W        W81710  20.221  42.453   1.548
15302W        W81711  10.371   2.268   3.517
15303W        W81712  11.855  33.364  11.802
15304W        W81713  22.209  38.728   3.278
15305W        W81714  25.373  38.992  14.013
15306W        W81715   3.831  33.393   4.628
15307W        W81716   8.303  22.144   3.575
15308W        W81717  22.563  24.485   3.185
15309W        W81718  22.341  28.960   3.606
15310W        W81719  44.512  33.992   4.488
15311W        W81720  41.781  20.748   2.376
15312W        W81721  31.870   1.796  11.902
15313W        W81722  13.840  32.844   0.438
15314W        W81723  15.632  43.768   0.895
15315W        W81724  28.451  28.074   2.694
15316W        W81725  40.838  34.506   3.191
15317W        W81726   5.670   1.865  11.398
15318W        W81727  23.000  44.127   0.284
15319W        W81728   6.576  44.037  11.657
15320W        W81729  20.992  30.846  14.043
15321W        W81730  29.906  14.287   0.179
15322W        W81731   7.128   4.894   2.571
15323W        W81732  10.765   9.748   3.671
15324W        W81733   6.646  16.692   0.268
15325W        W81734  31.576  29.353   1.477
15326W        W81735  35.535  28.405   4.712
15327W        W81736   7.738  14.411  11.697
15328W        W81737   2.602  42.037  10.451
15329W        W81738  22.035  42.271  13.231
15330W        W81739  32.573  10.184   1.837
15331W        W81740  44.489  10.407   3.895
15332W        W81741  29.071  40.094  11.118
15333W        W81742   6.886  15.100  13.702
15334W        W81743  24.138   4.510  14.914
15335W        W81744  11.688  22.207   0.771
15336W        W81745  42.752  22.959   0.581
15337W        W81746  31.587  42.988   0.009
15338W        W81747  28.608   7.141  13.384
15339W        W81748   7.983  22.911  12.926
15340W        W81749  30.341  24.883   2.357
15341W        W81750   1.242  13.353   0.047
15342W        W81751  24.051  27.139  11.199
15343W        W81752   9.498   2.247  12.907
15344W        W81753   7.623  39.842  12.550
15345W        W81754  18.567  27.579   1.822
15346W        W81755  25.990  11.449   2.214
15347W        W81756  17.122  37.274  11.552
15348W        W81757  24.606  20.124   4.459
15349W        W81758  36.384  28.121   3.278
15350W        W81759  44.537  12.544  12.659
15351W        W81760   8.070  20.724  11.991
15352W        W81761  38.078  13.955  14.452
15353W        W81762  36.105  12.116   1.312
15354W        W81763  30.554  39.553  10.766
15355W        W81764  11.929  14.921   0.650
15356W        W81765  12.385  20.758  12.414
15357W        W81766  24.203  35.452   2.115
15358W        W81767  26.944   6.464   2.666
15359W        W81768  12.788   1.492   3.643
15360W        W81769   7.842   5.439   1.555
15361W        W81770   8.626  17.348   5.008
15362W        W81771  34.386  31.744  12.576
15363W        W81772  16.699  25.523  10.758
15364W        W81773  21.981  15.883   1.917
15365W        W81774   8.308  19.094  10.984
15366W        W81775   4.603  15.743   0.783
15367W        W81776  34.803  26.568  13.810
15368W        W81777  39.486  25.672   4.438
15369W        W81778  32.990  10.154  14.047
15370W        W81779  30.028  10.530   3.078
15371W        W81780  21.448  24.110   0.408
15372W        W81781   3.725  37.586   1.720
15373W        W81782  39.109  24.399  13.782
15374W        W81783  34.646  16.832  10.906
15375W        W81784  38.976   6.276  11.187
15376W        W81785   5.164  11.803   2.903
15377W        W81786  11.085  34.440  13.497
15378W        W81787  25.664  25.001  13.898
15379W        W81788  11.311  28.589   1.560
15380W        W81789  22.813  27.960  11.898
15381W        W81790   2.964   4.263   2.182
15382W        W81791  20.106   6.127   4.541
15383W        W81792   8.281  20.573  11.553
15384W        W81793   1.055  31.869  10.821
15385W        W81794  40.767  16.847   0.719
15386W        W81795  15.609   2.158   2.960
15387W        W81796  25.556  44.537   2.628
15388W        W81797   4.668  18.522   0.357
15389W        W81798  14.891   7.176  14.391
15390W        W81799   4.339  43.713   4.096
15391W        W81800  43.743  35.056   3.847
15392W        W81801  15.273  26.678  13.531
15393W        W81802   2.862  20.242  11.872
15394W        W81803  38.771  13.106  13.867
15395W        W81804  35.480  43.863  13.102
15396W        W81805  14.587  43.036   1.382
15397W        W81806   4.917  13.547  14.972
15398W        W81807  20.054  24.094  12.862
15399W        W81808   4.545  24.518   0.331
15400W        W81809  18.103  32.089   2.206
15401W        W81810   8.858  18.046   0.484
15402W        W81811  34.611   1.725  11.097
15403W        W81812  40.116  38.971  10.663
15404W        W81813  41.797  25.567   4.178
15405W        W81814  31.148   5.363   1.889
15406W        W81815   7.296   9.231  13.350
15407W        W81816  30.900  22.066  14.928
15408W        W81817  15.280  29.970   0.250
15409W        W81818  23.008   4.046  12.574
15410W        W81819  21.268  10.903   2.196
15411W        W81820   1.881  40.150  14.043
15412W        W81821   8.380  13.701   1.378
15413W        W81822  40.868   0.760   1.421
15414W        W81823  30.113  39.740   0.522
15415W        W81824  13.811  23.252   2.333
15416W        W81825  13.800  26.665  11.225
15417W        W81826   0.447   0.450   1.897
15418W        W81827  12.870  38.351  13.925
15419W        W81828   8.960  10.702  12.476
15420W        W81829  33.231  25.948   3.753
15421W        W81830   4.424  23.102   0.556
15422W        W81831  21.553  17.040  10.999
15423W        W81832  43.834   8.063   4.204
15424W        W81833  13.533   2.908  11.704
15425W        W81834  12.599  24.613   2.774
15426W        W81835  31.012   8.689  12.794
15427W        W81836  28.188  16.794   1.362
15428W        W81837  38.620  31.655  13.277
15429W        W81838  18.652  21.327   4.543
15430W        W81839  23.310   2.482   2.109
15431W        W81840   3.436  24.250   0.101
15432W        W81841   3.222  36.523   4.078
15433W        W81842  41.019  35.382   1.392
15434W        W81843  29.387  39.102   3.740
15435W        W81844   0.170   2.459  12.959
15436W        W81845  35.555  33.427  12.956
15437W        W81846  14.912  23.629   2.803
15438W        W81847  15.199  18.188   3.307
15439W        W81848  29.450  15.934   1.980
15440W        W81849  14.164  22.554  14.676
15441W        W81850   4.496   5.961  13.879
15442W        W81851  25.155   2.922   3.216
15443W        W81852   2.954   7.651  12.177
15444W        W81853   0.536  10.734  13.725
15445W        W81854  13.170  36.002  14.843
15446W        W81855   6.618  26.252  12.133
15447W        W81856  31.592   8.269   1.650
15448W        W81857  13.127  22.739  14.684
15449W        W81858  20.152   7.355  13.500
15450W        W81859   6.459  23.085  12.560
15451W        W81860  12.525   6.587  12.397
15452W        W81861  11.749   0.330  11.621
15453W        W81862  11.776  28.359   3.150
15454W        W81863   3.765   5.372   4.678
15455W        W81864  14.267  20.760  11.668
15456W        W81865   8.267  30.052   4.307
15457W        W81866   8.437  44.794   4.251
15458W        W81867  41.473  36.770   2.239
15459W        W81868  17.242  43.150  14.517
15460W        W81869  34.541  34.319  13.294
15461W        W81870  27.072  15.252  10.770
15462W        W81871  12.580  25.943  14.906
15463W        W81872  31.662  41.586   2.852
15464W        W81873  10.281   2.507  12.428
15465W        W81874  19.974   6.139  10.290
15466W        W81875   5.290  23.760   1.818
15467W        W81876  21.617  34.440  13.865
15468W        W81877   8.139   5.094   4.909
15469W        W81878  25.949  10.127  12.516
15470W        W81879  35.026  16.819  13.360
15471W        W81880  32.065  19.177  14.447
15472W        W81881  43.956  41.584   0.826
15473W        W81882  38.574   2.264  12.408
15474W        W81883  20.473  32.117   0.246
15475W        W81884   0.479   1.638  14.387
15476W        W81885  10.761  37.302   3.600
15477W        W81886  44.464  16.309   1.774
15478W        W81887   9.525  28.590   3.089
15479W        W81888  42.903  28.021   0.932
15480W        W81889   1.808  24.576   2.737
15481W        W81890  32.074   8.981  14.325
15482W        W81891  42.318  24.007  11.590
15483W        W81892   5.225   0.899  12.793
15484W        W81893  32.155  21.100   0.476
15485W        W81894  40.634  38.872   1.974
15486W        W81895  20.743  39.386  13.973
15487W        W81896  22.689   3.097  10.229
15488W        W81897  19.715   1.622   1.394
15489W        W81898  41.860  38.324  12.486
15490W        W81899  31.243  20.586   3.141
15491W        W81900   2.204  30.177   2.854
15492W        W81901  15.379  26.164  11.912
15493W        W81902  12.264  16.344   2.394
15494W        W81903  16.169   8.606   1.942
15495W        W81904  38.160  43.185   1.384
15496W        W81905  22.666  18.855   0.795
15497W        W81906  36.087   5.282   2.730
15498W        W81907   3.837  28.899  12.105
15499W        W81908  42.799  19.784   4.594
15500W        W81909  27.878  31.116   3.420
15501W        W81910  26.144  21.597   3.783
15502W        W81911   7.987   9.906  13.546
15503W        W81912  41.971  37.449   2.153
15504W        W81913  35.846  11.353  10.674
15505W        W81914  28.183  17.841   2.156
15506W        W81915  12.894   9.817   4.065
15507W        W81916  23.699  15.473  14.001
15508W        W81917  16.362  40.261   0.265
15509W        W81918  28.917  30.360   2.005
15510W        W81919  42.680   4.692   2.169
15511W        W81920  13.024  13.229  13.956
15512W        W81921  40.519  24.471  13.558
15513W        W81922  32.874  32.040   1.943
15514W        W81923  32.943  21.240  12.377
15515W        W81924   4.321  31.239   4.046
15516W        W81925  36.045  34.958   1.525
15517W        W81926   1.804  21.684  13.049
15518W        W81927  11.834  19.191  12.475
15519W        W81928  12.159  11.683  13.059
15520W        W81929  11.349  14.650   3.702
15521W        W81930  11.115  44.927  11.549
15522W        W81931  20.015  17.294  14.784
15523W        W81932  31.208  11.195  11.911
15524W        W81933  36.784  10.631   1.702
15525W        W81934  12.692  10.128  12.498
15526W        W81935  23.136  15.504   0.305
15527W        W81936  18.234   6.241   2.302
15528W        W81937  15.162  22.631   1.825
15529W        W81938  44.899  32.867   3.445
15530W        W81939  22.672  10.175  11.587
15531W        W81940  26.766  11.625  10.625
15532W        W81941  17.892  44.027  14.485
15533W        W81942  21.513  17.685  14.268
15534W        W81943   1.592  22.334   1.756
15535W        W81944  15.095  35.163  14.720
15536W        W81945  25.926   9.686  13.403
15537W        W81946   2.771  11.658  12.020
15538W        W81947  29.543  26.913  14.584
15539W        W81948   9.093  30.697   0.678
15540W        W81949  34.372  36.922  12.070
15541W        W81950   9.717   5.690  11.997
15542W        W81951  37.310   1.857   3.194
15543W        W81952  20.841  11.614   4.308
15544W        W81953  33.409  15.774  13.551
15545W        W81954   5.921  15.345   4.536
15546W        W81955  37.464  17.716   3.232
15547W        W81956  39.126  15.219   3.809
15548W        W81957  31.904  36.143  14.322
15549W        W81958  24.249  39.410   4.584
15550W        W81959  35.373  21.135  13.393
15551W        W81960  18.098   4.744   0.266
15552W        W81961  36.893   7.770  13.979
15553W        W81962  29.623  13.396  11.524
15554W        W81963  26.902   6.176   1.681
15555W        W81964  40.347  21.984   3.232
15556W        W81965  40.817   9.810  13.057
15557W        W81966  22.067  43.363   4.851
15558W        W81967  12.761  13.374  12.131
15559W        W81968  34.343  20.591   4.344
15560W        W81969  22.183  12.822   2.697
15561W        W81970  12.697  23.653   2.752
15562W        W81971  42.086   6.174   1.440
15563W        W81972  19.137   1.851  13.074
15564W        W81973   1.294  15.675   2.092
15565W        W81974   2.403  17.269  13.432
15566W        W81975  42.516  22.484  14.755
15567W        W81976  29.658  40.367  10.133
15568W        W81977  14.660  27.193  14.764
15569W        W81978  10.729   0.487  14.636
15570W        W81979  40.966  35.305  14.999
15571W        W81980  13.788   8.693  12.679
15572W        W81981  35.560  42.413  14.365
15573W        W81982  12.094  23.694   9.872
15574W        W81983   3.707   2.938   0.419
15575W        W81984  26.707  32.986   3.176
15576W        W81985  18.834  23.401  14.825
15577W        W81986  38.976   1.042  11.653
15578W        W81987  21.193   3.927  12.908
15579W        W81988  39.889  37.337   3.778
15580W        W81989  31.074  40.636  11.693
15581W        W81990  41.138  41.810   2.448
15582W        W81991   9.377   7.155  13.908
15583W        W81992  30.039  41.245  12.417
15584W        W81993  17.818  18.717  13.368
15585W        W81994   1.000  35.529   3.576
15586W        W81995  13.823  11.200  13.395
15587W        W81996  31.902  37.741  10.767
15588W        W81997  20.568   4.452  13.811
15589W        W81998   5.814  43.940   2.277
15590W        W81999  14.604  27.479   1.941
15591W        W82000  19.866  34.502   0.585
15592W        W82001  21.145  28.644  14.205
15593W        W82002  13.559  13.660  14.412
15594W        W82003  40.523  27.355   4.191
15595W        W82004  20.432  11.163   4.589
15596W        W82005  41.878  21.024  11.513
15597W        W82006  19.027   7.420   4.737
15598W        W82007  18.749  23.592  10.752
15599W        W82008  25.994  35.099   4.708
15600W        W82009  20.239  36.434   4.194
15601W        W82010  29.693  33.895  13.280
15602W        W82011   6.222  15.217  14.328
15603W        W82012  28.070   9.709   3.520
15604W        W82013   8.916  43.469   2.159
15605W        W82014  15.767  21.749  10.798
15606W        W82015  25.870   5.475   0.808
15607W        W82016  34.665  27.643  11.118
15608W        W82017  11.203   0.777   0.406
15609W        W82018  40.043  40.370   2.817
15610W        W82019  19.500  15.683  13.561
15611W        W82020   8.153   7.425   1.345
15612W        W82021  31.521  42.812   1.447
15613W        W82022   6.240  12.339  11.133
15614W        W82023  25.895  15.044   1.212
15615W        W82024  30.787   9.584  10.733
15616W        W82025   8.337   8.835   2.829
15617W        W82026  16.166  22.601   1.423
15618W        W82027  31.247  30.134   1.023
15619W        W82028  34.838   8.738   0.578
15620W        W82029  22.047  26.750   3.149
15621W        W82030  24.752   8.359   5.380
15622W        W82031   1.305   7.738  13.210
15623W        W82032  23.684   2.831  12.574
15624W        W82033  35.339  21.586  13.110
15625W        W82034  29.126   4.391  10.790
15626W        W82035  15.288   7.375   2.753
15627W        W82036  16.314  11.971  11.582
15628W        W82037  41.283  42.939  13.044
15629W        W82038  10.603  43.011  11.072
15630W        W82039  10.755  20.696  10.803
15631W        W82040  11.086  14.259   4.500
15632W        W82041  15.108  15.516  12.208
15633W        W82042  19.419   3.625   3.828
15634W        W82043  42.342  32.020   1.903
15635W        W82044  33.939  23.531   1.803
15636W        W82045  30.503  40.752   2.759
15637W        W82046  18.214  24.183  11.381
15638W        W82047   2.622   0.340   2.614
15639W        W82048  31.561  28.126  14.279
15640W        W82049  28.654  15.002  12.105
15641W        W82050  39.557  38.346   1.800
15642W        W82051   1.781   9.508   0.975
15643W        W82052   3.781  34.963  10.733
15644W        W82053  27.474  38.760   3.316
15645W        W82054  43.062  35.627   0.094
15646W        W82055  13.681  21.444   2.788
15647W        W82056  27.548   8.556   3.544
15648W        W82057  34.883  23.521  12.954
15649W        W82058  21.816   3.359  14.390
15650W        W82059  13.315  15.240  10.669
15651W        W82060   6.255  26.053   3.146
15652W        W82061  20.552  31.731   2.620
15653W        W82062  43.823  34.541   4.217
15654W        W82063  21.471  18.063  13.925
15655W        W82064  41.855   1.212  13.822
15656W        W82065   8.310  12.357  14.547
15657W        W82066   0.670  22.422   0.227
15658W        W82067  20.063  29.490  14.434
15659W        W82068  25.665  25.460  14.251
15660W        W82069  21.066  17.418   2.224
15661W        W82070   6.822  22.605   5.604
15662W        W82071  38.146  37.209   1.982
15663W        W82072  14.060  29.220  12.974
15664W        W82073  38.676  10.370  10.309
15665W        W82074  22.821  17.765  14.859
15666W        W82075  33.967   4.858   2.276
15667W        W82076  18.136  20.299   0.297
15668W        W82077   4.916  21.228  13.871
15669W        W82078  11.091  30.263   4.623
15670W        W82079  22.671  20.709   0.494
15671W        W82080  13.070   7.160   1.970
15672W        W82081  30.832  44.443   3.317
15673W        W82082   1.944  43.925   4.377
15674W        W82083  39.909  32.824  12.062
15675W        W82084  36.144   3.238   0.337
15676W        W82085   4.182   8.303   0.965
15677W        W82086  35.010  40.755   1.276
15678W        W82087  43.692  42.864  11.395
15679W        W82088  32.992  20.099  12.091
15680W        W82089  10.444  20.224  10.677
15681W        W82090  22.475  28.501  14.992
15682W        W82091  23.801  14.090  13.724
15683W        W82092  32.440  25.204   0.353
15684W        W82093  15.823  20.039  12.858
15685W        W82094  26.086   1.830   1.198
15686W        W82095  24.475  14.388  12.971
15687W        W82096  30.224  35.423  11.457
15688W        W82097  14.893   4.064  12.921
15689W        W82098  38.894   3.672  13.899
15690W        W82099  14.576   9.590  11.950
15691W        W82100  39.408  22.440  10.312
15692W        W82101  36.390  19.349  12.894
15693W        W82102  38.635  27.132   4.856
15694W        W82103  41.838   7.696   3.065
15695W        W82104  32.564  35.330   4.722
15696W        W82105   3.032  39.509  11.165
15697W        W82106   9.578  44.775   3.310
15698W        W82107  20.591   6.774  12.910
15699W        W82108   6.400  21.208  12.577
15700W        W82109  10.500  25.966  12.782
15701W        W82110  35.675  33.184  11.631
15702W        W82111  44.300  39.487   3.237
15703W        W82112  10.538  44.210  11.276
15704W        W82113  11.736  42.658  14.996
15705W        W82114   9.627  42.521  13.448
15706W        W82115  25.547   3.299  14.975
15707W        W82116  26.753   6.341   0.023
15708W        W82117  16.778  33.859   2.913
15709W        W82118  32.684  26.565   2.017
15710W        W82119  31.044  11.119  11.076
15711W        W82120   5.317  29.255   1.182
15712W        W82121  16.734  29.317   1.432
15713W        W82122  37.747  18.772  13.290
15714W        W82123  23.653  29.556   0.916
15715W        W82124   8.905  24.690  11.764
15716W        W82125  42.366  32.035  11.367
15717W        W82126  34.084   1.649  13.948
15718W        W82127  40.264  10.701   4.468
15719W        W82128   5.797  15.312   3.248
15720W        W82129  18.513  24.945  10.915
15721W        W82130   6.096   5.442  12.580
15722W        W82131   5.870  16.234   4.827
15723W        W82132  17.715  11.161  13.414
15724W        W82133  17.165  39.004   1.749
15725W        W82134  14.694  23.547  10.364
15726W        W82135  39.531  15.831   4.203
15727W        W82136  40.499  40.664  12.440
15728W        W82137  23.005  18.885  12.579
15729W        W82138  26.596  17.169  10.438
15730W        W82139  36.118   0.864  13.701
15731W        W82140  10.392  39.695   4.665
15732W        W82141  38.225   8.636   0.020
15733W        W82142  18.681  36.276  10.445
15734W        W82143   6.222   4.885  11.343
15735W        W82144  16.215   9.675  12.058
15736W        W82145  32.860  37.162  14.838
15737W        W82146  11.662  15.971  11.050
15738W        W82147  11.675  26.857  10.482
15739W        W82148  40.298  32.576   0.195
15740W        W82149   0.627  19.280  12.436
15741W        W82150  24.793  33.984  13.270
15742W        W82151  11.840  27.881   2.911
15743W        W82152  18.698  28.499  14.037
15744W        W82153  20.516   3.310  14.981
15745W        W82154  22.632  42.085  11.652
15746W        W82155  18.286  11.378  13.562
15747W        W82156  31.046  11.855   0.192
15748W        W82157  22.737  35.893   2.128
15749W        W82158  17.800  42.182   1.162
15750W        W82159  26.673   0.336   4.612
15751W        W82160   6.505  44.858  11.494
15752W        W82161  36.041  17.272   1.676
15753W        W82162   7.973   6.949   1.932
15754W        W82163   3.195  40.496  12.636
15755W        W82164  30.021  22.937   4.598
15756W        W82165  26.998  18.039   4.763
15757W        W82166  42.159  15.974  12.479
15758W        W82167  11.428  43.766   1.583
15759W        W82168  23.010  24.913   4.044
15760W        W82169   9.874  10.738   4.223
15761W        W82170  34.061   8.796   1.195
15762W        W82171  10.812  43.104   2.139
15763W        W82172  37.444  24.145  14.992
15764W        W82173  43.515   5.783   4.639
15765W        W82174   9.214  36.049   2.503
15766W        W82175  34.608  32.676   0.792
15767W        W82176  29.007  30.403  14.519
15768W        W82177  41.872  44.379   2.384
15769W        W82178  12.759   3.963  14.462
15770W        W82179  21.064  26.868  13.076
15771W        W82180  34.373  30.877  14.665
15772W        W82181  40.506  12.374   0.927
15773W        W82182  17.442  38.061   4.240
15774W        W82183  42.246  33.670   1.103
15775W        W82184  27.743  33.711   0.205
15776W        W82185   1.066  32.374  10.701
15777W        W82186   6.775  17.089   3.678
15778W        W82187  10.799   7.306  11.025
15779W        W82188  36.094  43.244   4.194
15780W        W82189  11.835  27.859   9.519
15781W        W82190  20.676  21.624  12.917
15782W        W82191   8.907  31.945  12.887
15783W        W82192   7.211  31.033   4.492
15784W        W82193  37.473  40.400   4.582
15785W        W82194  24.008  13.704   4.617
15786W        W82195   7.662  27.549  12.738
15787W        W82196  13.745  16.738  14.593
15788W        W82197  31.003  37.301   4.209
15789W        W82198   8.791  32.573   0.243
15790W        W82199  29.470   5.617  10.604
15791W        W82200  34.782  43.903  14.909
15792W        W82201  17.084   5.454   2.742
15793W        W82202  22.028  31.649   0.998
15794W        W82203  19.110  27.615   1.800
15795W        W82204  21.673  36.544   3.329
15796W        W82205  11.794   9.719  13.363
15797W        W82206  34.724   4.294   2.377
15798W        W82207  16.678  32.574  13.543
15799W        W82208   8.696  16.079   0.902
15800W        W82209  17.961  24.531   2.185
15801W        W82210  24.628  38.472   4.857
15802W        W82211  31.754  32.901   4.580
15803W        W82212  19.013  22.666  11.258
15804W        W82213   7.006  23.403  10.250
15805W        W82214  15.668  40.583   1.348
15806W        W82215  39.707  37.438   3.186
15807W        W82216   5.808   0.414   3.727
15808W        W82217   3.207  42.923   4.359
15809W        W82218  44.413  19.811   0.534
15810W        W82219  25.228   6.980   2.128
15811W        W82220   7.868   8.273  10.671
15812W        W82221  43.909  27.544  11.186
15813W        W82222  11.423  18.468  11.136
15814W        W82223  19.923  29.941   2.246
15815W        W82224  14.559  32.603   2.939
15816W        W82225  37.616  19.727   2.485
15817W        W82226  30.293   8.779   0.325
15818W        W82227   9.195  19.495  10.743
15819W        W82228  34.664  26.343  11.608
15820W        W82229  19.002  20.123   2.691
15821W        W82230   8.318  40.765   1.459
15822W        W82231  12.147  38.770   2.402
15823W        W82232  27.665  10.389   3.171
15824W        W82233  16.098   5.833  12.933
15825W        W82234   1.222   3.910  12.499
15826W        W82235  42.894  29.734   4.686
15827W        W82236  34.383  33.909   3.747
15828W        W82237   3.434   8.863  13.562
15829W        W82238  13.751  21.177  11.417
15830W        W82239  16.321  39.307   2.703
15831W        W82240  29.467  40.220   3.071
15832W        W82241  20.380  42.983   2.646
15833W        W82242   8.741  34.375  10.288
15834W        W82243  12.145  38.619  12.173
15835W        W82244  27.071  17.257  11.675
15836W        W82245   1.799   6.754   1.262
15837W        W82246  10.589  10.071  12.982
15838W        W82247  40.157  31.136   4.237
15839W        W82248   1.754  15.822  11.189
15840W        W82249  32.232  16.398  13.472
15841W        W82250  10.179  15.795   0.487
15842W        W82251  34.320  14.736  10.996
15843W        W82252  15.778   7.064   0.506
15844W        W82253  24.425  20.729   5.022
15845W        W82254  28.344  29.952  10.334
15846W        W82255  13.404  11.813  14.346
15847W        W82256  27.354  31.848  12.066
15848W        W82257  41.909  21.093  12.007
15849W        W82258  35.927  11.421   1.823
15850W        W82259   1.430  20.714  13.841
15851W        W82260  22.456  14.959   2.248
15852W        W82261  34.062  30.971   0.547
15853W        W82262   3.205  32.768  11.312
15854W        W82263  14.795  25.787  14.243
15855W        W82264  34.104   4.706  13.432
15856W        W82265  12.680  41.860   1.418
15857W        W82266  27.243   7.907   3.948
15858W        W82267  11.229  17.156   1.037
15859W        W82268  24.232  32.554  10.697
15860W        W82269  29.127  38.013  11.211
15861W        W82270  17.752  15.266  14.004
15862W        W82271  16.622  38.457   9.844
15863W        W82272  35.627  28.994  13.875
15864W        W82273  20.599  22.647  12.005
15865W        W82274  31.960   9.019  13.442
15866W        W82275  23.437  12.778   5.043
15867W        W82276  30.052  30.902  14.071
15868W        W82277  32.154  11.304  12.099
15869W        W82278  43.103  16.993  11.379
15870W        W82279  22.624  30.071  12.897
15871W        W82280  39.286  15.291   1.354
15872W        W82281  36.604  24.173  10.658
15873W        W82282  37.504  38.925  13.242
15874W        W82283   1.409   2.801  14.406
15875W        W82284  12.768  36.933   2.281
15876W        W82285  26.755  31.753  11.214
15877W        W82286   7.498   8.694  10.770
15878W        W82287   9.387  35.832   1.694
15879W        W82288  44.179  16.511   4.445
15880W        W82289  18.503   1.902  10.699
15881W        W82290  21.666  42.460   0.464
15882W        W82291  12.318  30.588  12.434
15883W        W82292  21.979  19.590   3.176
15884W        W82293  21.935  20.568  12.192
15885W        W82294  43.115  18.986  12.944
15886W        W82295   0.216  29.717  12.891
15887W        W82296  32.382  35.158   0.829
15888W        W82297  16.097   4.669   3.205
15889W        W82298  19.271  24.211   1.605
15890W        W82299   6.614  21.987  14.899
15891W        W82300   0.917  41.100  13.017
15892W        W82301  27.824  39.008  13.621
15893W        W82302  32.423  29.124  12.588
15894W        W82303   6.406  33.239  13.561
15895W        W82304  44.998  27.906  10.162
15896W        W82305  39.936  27.609  13.176
15897W        W82306  11.307  14.126   3.617
15898W        W82307  22.690   0.200  11.110
15899W        W82308  32.985  37.871   2.434
15900W        W82309   7.405  22.399  12.441
15901W        W82310  28.953  18.805   4.192
15902W        W82311  16.710  44.387   4.333
15903W        W82312  39.329  42.405  10.358
15904W        W82313  12.264  42.523   1.641
15905W        W82314   8.600  23.516   0.528
15906W        W82315  16.888  23.712   2.378
15907W        W82316  13.089  41.660   4.943
15908W        W82317  43.545  44.513  13.982
15909W        W82318  37.169  38.840   3.857
15910W        W82319  34.833  21.709  14.869
15911W        W82320  41.927  23.260  14.977
15912W        W82321  34.854  10.498  13.832
15913W        W82322  38.049  37.332  10.650
15914W        W82323  30.421  35.390   4.625
15915W        W82324  42.228  13.318   0.261
15916W        W82325  40.191   8.734   9.770
15917W        W82326  32.955  25.050   0.726
15918W        W82327  19.643   3.391   0.833
15919W        W82328  18.866  43.937  14.339
15920W        W82329   7.315   3.945   0.203
15921W        W82330  14.359  13.634   3.942
15922W        W82331  30.062  31.899   1.803
15923W        W82332  15.385  24.270  11.939
15924W        W82333  20.619  16.666   4.617
15925W        W82334  29.528  25.692   4.111
15926W        W82335  31.135  18.543   2.354
15927W        W82336  27.041  18.597  11.109
15928W        W82337   3.410  24.370   2.075
15929W        W82338  20.696  41.719   3.122
15930W        W82339  40.473  33.368   1.421
15931W        W82340  40.624   8.609  13.316
15932W        W82341  24.999  16.671  11.690
15933W        W82342  32.405  44.249  12.868
15934W        W82343   8.474  23.011  11.606
15935W        W82344   9.731   6.157   0.680
15936W        W82345  22.264  24.544   3.857
15937W        W82346  14.137  32.224   2.281
15938W        W82347  17.790  35.456   0.882
15939W        W82348  25.514  14.361   5.079
15940W        W82349  35.146   3.758   1.778
15941W        W82350   5.599  22.587  13.756
15942W        W82351  39.152  32.576   4.854
15943W        W82352   6.479   3.823   4.607
15944W        W82353   8.366  36.499   2.829
15945W        W82354  17.866  11.406   0.208
15946W        W82355  17.328  27.418   3.288
15947W        W82356  18.824   5.872  14.359
15948W        W82357  32.833   9.619  11.521
15949W        W82358  31.552  44.907  10.849
15950W        W82359  32.693  13.681  12.451
15951W        W82360  36.918  34.312  10.742
15952W        W82361   6.209  16.664  12.099
15953W        W82362  35.149  37.016  10.736
15954W        W82363  20.157  38.848  14.611
15955W        W82364  25.659  29.062  13.962
15956W        W82365  15.606  10.391  14.567
15957W        W82366  11.778  10.414   2.399
15958W        W82367  21.695   8.686  12.459
15959W        W82368  32.350  40.986   1.458
15960W        W82369  25.269  10.593   0.256
15961W        W82370  41.037  13.116   4.225
15962W        W82371  33.626  21.236   2.346
15963W        W82372   9.631  44.761   2.380
15964W        W82373  19.089   3.174  12.393
15965W        W82374  12.890   5.740   2.706
15966W        W82375  36.768   4.246   2.198
15967W        W82376   9.119  42.514   1.213
15968W        W82377  19.157  11.187   2.635
15969W        W82378  37.782  35.545  11.129
15970W        W82379  40.669  40.897  12.011
15971W        W82380  40.935  15.771  12.194
15972W        W82381  15.232  35.947  12.599
15973W        W82382  11.680   6.835  12.902
15974W        W82383   5.706  13.532  13.278
15975W        W82384   6.449   6.392   4.978
15976W        W82385  10.280  31.771   4.102
15977W        W82386  12.622  29.522  11.672
15978W        W82387  24.467  21.022  14.943
15979W        W82388  42.279  43.962  10.709
15980W        W82389  27.048  14.627   1.369
15981W        W82390   1.854  21.638   2.180
15982W        W82391  35.516  43.324   1.766
15983W        W82392  15.899  24.161  12.838
15984W        W82393  34.978   6.383   3.720
15985W        W82394  42.364   9.372  13.405
15986W        W82395   9.912  21.594   0.308
15987W        W82396  20.603  38.874  12.836
15988W        W82397  42.730   2.373  14.899
15989W        W82398  27.928  17.034  13.461
15990W        W82399  40.191  14.662   1.727
15991W        W82400   4.030  43.194   3.049
15992W        W82401  32.020  26.836   2.750
15993W        W82402  24.086  39.482   0.231
15994W        W82403   3.693  16.695  10.623
15995W        W82404  25.194  40.971  13.209
15996W        W82405  24.619  11.110   0.093
15997W        W82406  38.992  36.603  11.517
15998W        W82407  33.840  21.407  13.597
15999W        W82408   4.333  36.112   1.286
16000W        W82409   7.589  24.666   3.088
16001W        W82410  16.883  21.472  13.971
16002W        W82411  20.630  17.774   3.765
16003W        W82412   5.196  14.434   0.885
16004W        W82413  10.585  21.597  13.917
16005W        W82414  16.530   1.364  14.356
16006W        W82415  17.204  14.097   1.641
16007W        W82416  37.851   0.205  14.575
16008W        W82417   2.325  29.706   2.729
16009W        W82418  37.800  38.056  14.137
16010W        W82419   2.975  30.137   2.295
16011W        W82420  23.059   0.371  13.823
16012W        W82421  21.467   1.753  14.217
16013W        W82422  21.172  24.703   1.428
16014W        W82423  28.142  22.555   1.869
16015W        W82424  43.721  19.242  11.925
16016W        W82425  19.251  44.931  10.572
16017W        W82426  22.668  29.168   4.452
16018W        W82427   8.232  39.887   1.978
16019W        W82428  20.871  19.302  14.821
16020W        W82429  30.465  19.160   2.661
16021W        W82430  25.809  14.719   3.410
16022W        W82431  42.632  16.050   3.612
16023W        W82432  42.435  30.900   1.722
16024W        W82433  20.028  21.266   3.665
16025W        W82434  42.924  34.076   2.816
16026W        W82435   1.141  26.162   0.521
16027W        W82436  42.929  41.979   2.285
16028W        W82437  41.228  31.245  14.023
16029W        W82438  10.860  23.077   3.667
16030W        W82439   1.885  11.191  13.511
16031W        W82440  25.029  10.872   4.516
16032W        W82441   2.835  35.369  10.647
16033W        W82442  22.125  41.385  13.977
16034W        W82443  32.005   6.862  12.361
16035W        W82444  23.458   9.573   1.964
16036W        W82445  31.559  30.469   4.097
16037W        W82446  12.422  43.772   3.566
16038W        W82447  32.459  43.614   2.658
16039W        W82448  15.710  18.027   1.845
16040W        W82449  26.148  42.836   4.204
16041W        W82450  35.284  40.033  11.070
16042W        W82451   5.601  37.255  12.901
16043W        W82452  30.115   4.085   0.078
16044W        W82453  39.943  20.025   4.053
16045W        W82454  19.541   9.273   1.219
16046W        W82455  37.919  43.571   0.478
16047W        W82456  43.147  21.226  11.578
16048W        W82457  10.727   8.453  13.339
16049W        W82458  34.592  25.407   1.991
16050W        W82459  29.545   2.960  14.594
16051W        W82460  38.992  34.754  11.669
16052W        W82461  10.384   1.912   4.138
16053W        W82462  31.380  15.573   3.879
16054W        W82463   6.222  37.554   3.298
16055W        W82464   0.432  20.476   2.333
16056W        W82465  24.245  12.199   2.854
16057W        W82466  39.471  32.169   1.405
16058W        W82467  43.769  35.084  11.954
16059W        W82468  10.200  38.831  11.998
16060W        W82469  30.103   6.240   1.828
16061W        W82470  36.760  20.566  13.881
16062W        W82471  27.387  22.924  13.821
16063W        W82472  23.826  29.030  11.113
16064W        W82473   1.961   8.188   1.689
16065W        W82474  41.841  29.471   3.308
16066W        W82475  33.568  40.687  13.490
16067W        W82476  42.902  42.426   0.302
16068W        W82477  10.415  14.092  10.373
16069W        W82478  42.872   6.366  13.275
16070W        W82479   9.240  19.096   3.347
16071W        W82480  36.531  22.904   0.324
16072W        W82481  13.044  25.043   0.206
16073W        W82482   3.830  18.317  13.375
16074W        W82483  27.648   5.719   4.213
16075W        W82484   8.259  43.049   1.501
16076W        W82485  44.940   6.545   0.251
16077W        W82486  31.371  24.416  10.872
16078W        W82487  13.511   8.849   9.847
16079W        W82488  34.003  15.700   3.392
16080W        W82489   9.225  21.632   0.826
16081W        W82490   5.558  34.383  11.571
16082W        W82491   2.540  40.941  11.666
16083W        W82492  18.554  42.907  12.463
16084W        W82493   3.354  38.047  12.897
16085W        W82494  19.151  41.017  14.770
16086W        W82495  20.305   3.977  12.713
16087W        W82496  31.405  31.009  11.100
16088W        W82497  11.797  11.154   1.349
16089W        W82498  27.692   3.159  12.789
16090W        W82499  28.516  23.473  10.926
16091W        W82500   1.655  25.574   1.419
16092W        W82501  21.529   6.289  14.495
16093W        W82502  11.328  39.490  11.600
16094W        W82503   8.256  28.010  11.394
16095W        W82504  19.509   2.809   1.890
16096W        W82505   2.940  16.743   1.517
16097W        W82506  18.009   1.523   2.792
16098W        W82507  20.531  12.612  11.865
16099W        W82508  28.471  20.170   0.906
16100W        W82509  24.541  39.492   0.489
16101W        W82510  13.400  43.994  12.583
16102W        W82511  21.312  26.004   1.839
16103W        W82512  29.857   6.238  10.927
16104W        W82513   5.225   2.251   4.770
16105W        W82514   1.037   4.422  11.145
16106W        W82515  19.995   1.265  13.823
16107W        W82516  36.622  36.967  13.993
16108W        W82517  16.727  30.387  10.590
16109W        W82518  30.683  21.010  14.026
16110W        W82519   0.866  10.905  14.926
16111W        W82520  20.595  14.305  13.547
16112W        W82521  40.333  42.379   4.275
16113W        W82522  12.797   8.147   4.901
16114W        W82523  40.005  15.553  11.227
16115W        W82524  39.630  37.555  13.516
16116W        W82525  10.279  10.382   3.806
16117W        W82526  29.484  26.211  12.541
16118W        W82527   0.941  27.482  13.519
16119W        W82528  24.001  21.516  11.734
16120W        W82529  40.827  20.896   0.364
16121W        W82530  26.754  16.482  13.121
16122W        W82531   1.672  39.200   0.068
16123W        W82532   8.191   4.963  10.403
16124W        W82533  31.344  29.109  14.310
16125W        W82534   4.190  32.958  13.901
16126W        W82535  32.753  23.560   0.901
16127W        W82536  43.612  30.124   1.905
16128W        W82537  21.982  41.331   3.367
16129W        W82538   7.761   0.415  14.975
16130W        W82539   5.164  13.275  11.516
16131W        W82540  27.676  41.914   4.565
16132W        W82541   6.154  14.340  11.617
16133W        W82542  30.416  15.085  12.220
16134W        W82543  21.823   9.867   0.335
16135W        W82544   8.902  24.710  12.632
16136W        W82545  35.189  26.379  11.195
16137W        W82546  29.641   6.391   3.601
16138W        W82547  42.229  16.733  11.627
16139W        W82548  27.620  33.723  13.376
16140W        W82549  11.875  13.657   1.584
16141W        W82550  17.616  44.780  12.097
16142W        W82551  22.696  41.514   3.812
16143W        W82552  21.727  30.699   4.724
16144W        W82553  28.912  26.728   3.260
16145W        W82554  30.062  33.128  11.561
16146W        W82555  40.544  28.135   3.722
16147W        W82556  31.114  16.957  11.177
16148W        W82557  21.110  25.442   4.918
16149W        W82558   5.606  10.271   3.324
16150W        W82559  30.357  42.375  14.855
16151W        W82560  12.850  11.599   2.665
16152W        W82561   8.857  17.158  13.301
16153W        W82562  19.615  33.674  13.093
16154W        W82563  21.791  24.756   2.697
16155W        W82564  36.144  44.684  13.862
16156W        W82565  17.002  17.785   1.872
16157W        W82566  26.633  19.108   2.684
16158W        W82567  35.918  40.894   1.281
16159W        W82568  32.681  28.799  13.872
16160W        W82569  40.668  28.671   2.739
16161W        W82570  22.013  27.708  14.936
16162W        W82571  22.452  27.513   3.539
16163W        W82572  35.868  10.267   4.122
16164W        W82573  11.449  15.962  14.214
16165W        W82574  38.173   1.873  14.737
16166W        W82575   1.340  14.590   3.415
16167W        W82576  35.584  39.162  11.414
16168W        W82577  18.238  26.082   4.817
16169W        W82578  11.104  39.095   4.147
16170W        W82579  18.103  33.861  14.606
16171W        W82580  43.004   2.438  12.497
16172W        W82581  21.256  35.478   4.292
16173W        W82582   5.754  35.794  14.475
16174W        W82583  37.094  13.244   1.873
16175W        W82584  15.787  24.597  14.316
16176W        W82585  13.829  39.655   1.328
16177W        W82586  31.998  33.015  10.647
16178W        W82587  19.055  45.000  11.904
16179W        W82588   9.594  44.159  11.971
16180W        W82589  18.509   7.634   0.733
16181W        W82590  34.860  24.678  13.997
16182W        W82591   1.630   0.384   3.703
16183W        W82592  31.722  32.136  13.918
16184W        W82593  44.796  15.225   4.423
16185W        W82594  38.958  19.333   3.562
16186W        W82595  11.556  31.506   4.849
16187W        W82596   6.744  10.154   2.734
16188W        W82597  14.175  16.675   1.221
16189W        W82598  14.699  12.830   2.219
16190W        W82599   3.886   7.331  11.269
16191W        W82600  26.465  38.550   4.465
16192W        W82601   9.410   3.120   0.504
16193W        W82602  21.735  19.018   4.024
16194W        W82603   0.701  15.157   0.763
16195W        W82604  34.550  22.905   0.974
16196W        W82605  36.825   7.436  14.393
16197W        W82606  24.885   5.866  14.640
16198W        W82607   8.907   0.172   1.418
16199W        W82608  16.687  11.189  14.483
16200W        W82609   3.385  16.400  14.997
16201W        W82610  15.195   7.164   1.205
16202W        W82611  14.308  36.293  12.506
16203W        W82612  10.967   3.826   3.162
16204W        W82613  21.558  34.170  13.427
16205W        W82614   2.891  12.700   3.172
16206W        W82615  23.054   8.160  12.150
16207W        W82616   7.847   6.250  14.950
16208W        W82617   9.164  30.582  14.397
16209W        W82618  12.672   5.473   0.236
16210W        W82619  25.338  41.093   0.992
16211W        W82620   8.763  32.630   2.806
16212W        W82621  36.628  18.036  11.083
16213W        W82622   4.222  13.274  12.346
16214W        W82623   5.297   7.306   1.404
16215W        W82624  37.653  43.514  13.968
16216W        W82625  31.947  44.479   0.265
16217W        W82626   7.970  16.658  14.807
16218W        W82627   9.840   6.664   4.555
16219W        W82628  11.259  17.247   0.502
16220W        W82629   6.896  33.297   2.348
16221W        W82630  28.804   5.211   1.301
16222W        W82631  29.952   9.403   2.187
16223W        W82632  17.736  11.773   1.141
16224W        W82633  37.257  35.947  14.260
16225W        W82634  20.320  34.478   1.460
16226W        W82635  11.360   6.406  14.796
16227W        W82636  18.119  29.272   3.193
16228W        W82637  17.074  11.572   2.775
16229W        W82638   4.378  21.085   1.350
16230W        W82639  26.693  35.834   4.725
16231W        W82640  26.007  20.992   4.537
16232W        W82641  10.292  29.190  12.654
16233W        W82642   8.147  18.696  13.450
16234W        W82643  31.868  24.816  12.044
16235W        W82644  38.637  25.055   2.474
16236W        W82645  39.341  10.851   3.978
16237W        W82646  36.917   0.993   2.820
16238W        W82647  18.632  19.697   1.979
16239W        W82648   8.613  12.726   0.004
16240W        W82649  28.680  44.834  12.489
16241W        W82650  40.454  29.160  14.433
16242W        W82651   2.872   1.924   4.155
16243W        W82652   7.862   8.842   5.062
16244W        W82653  42.291  42.463   2.763
16245W        W82654  16.752  29.715  14.047
16246W        W82655  42.726   6.776   4.446
16247W        W82656  28.683  29.250   3.044
16248W        W82657  33.139   7.031   2.292
16249W        W82658   1.201  36.593  12.117
16250W        W82659   4.675  42.872  10.921
16251W        W82660  31.962  17.223   0.869
16252W        W82661  40.650  10.645   4.845
16253W        W82662  41.065  22.763   3.696
16254W        W82663  12.120  13.213  13.120
16255W        W82664  34.431  32.853   1.831
16256W        W82665  23.471  40.445  13.448
16257W        W82666  42.061  27.139   1.381
16258W        W82667  12.345  40.450  11.501
16259W        W82668  31.975  20.492  10.242
16260W        W82669  11.281  31.174  14.015
16261W        W82670  23.664   1.811   1.100
16262W        W82671  24.697  10.588  12.411
16263W        W82672  10.857  28.193   2.823
16264W        W82673   6.996  26.555  11.036
16265W        W82674   2.950  16.695  10.836
16266W        W82675  36.136  28.689   3.626
16267W        W82676  17.082  19.433  13.575
16268W        W82677  40.560  32.566   0.682
16269W        W82678  39.001  17.754  10.278
16270W        W82679  37.425  37.044  14.809
16271W        W82680  44.283  28.882  11.059
16272W        W82681  35.959  20.118   0.804
16273W        W82682  42.825   3.962  14.889
16274W        W82683   5.297  33.930   3.767
16275W        W82684  18.757   3.771  13.877
16276W        W82685  34.410  14.134   3.252
16277W        W82686   1.912  19.135   2.433
16278W        W82687  34.603   7.093   1.342
16279W        W82688  38.837  39.890   2.785
16280W        W82689  17.943  26.933   1.822
16281W        W82690   3.989   8.484  11.262
16282W        W82691  36.158  36.460   2.454
16283W        W82692  28.652  38.115   3.725
16284W        W82693  36.352  21.733  13.922
16285W        W82694  10.592  42.474   0.513
16286W        W82695  33.227  22.086   1.868
16287W        W82696  17.139  33.429   3.537
16288W        W82697   4.744  13.924  12.406
16289W        W82698  19.363  41.653   0.933
16290W        W82699  34.616  12.121  13.076
16291W        W82700   6.868  35.411  11.126
16292W        W82701  34.469  20.097   3.188
16293W        W82702  44.738  22.129  11.593
16294W        W82703  40.035  43.537  11.583
16295W        W82704  36.414  24.765   3.408
16296W        W82705   9.166  31.915   2.747
16297W        W82706  13.775  22.743   2.284
16298W        W82707  42.063  23.798  14.980
16299W        W82708  34.810  43.430  14.416
16300W        W82709  28.203   0.466  13.960
16301W        W82710   6.920  33.453   0.759
16302W        W82711  36.555  32.659   1.800
16303W        W82712  43.471  40.558   2.613
16304W        W82713   8.913  40.118   3.249
16305W        W82714  35.871  18.677   3.770
16306W        W82715   6.361  11.877   0.208
16307W        W82716  42.486  34.318   1.893
16308W        W82717  28.162  33.804   4.981
16309W        W82718   7.610  36.097   0.336
16310W        W82719   8.837  37.815   1.666
16311W        W82720  38.856   7.277  11.375
16312W        W82721  17.458  14.139   0.308
16313W        W82722   4.759  22.228   1.793
16314W        W82723  22.272  35.798  14.393
16315W        W82724  26.580   5.803  14.947
16316W        W82725  41.086  12.840   1.914
16317W        W82726  43.902   7.185   2.288
16318W        W82727  11.335  15.694  13.333
16319W        W82728   3.126  36.033  12.635
16320W        W82729  23.667  30.038   2.222
16321W        W82730  14.055  11.347  12.966
16322W        W82731   6.680  35.615   4.265
16323W        W82732  21.025  32.112  13.891
16324W        W82733   7.600  22.371   3.153
16325W        W82734  15.619  34.424  13.562
16326W        W82735   6.646  16.651  10.590
16327W        W82736  22.442  16.264  10.200
16328W        W82737  30.109  11.239  14.954
16329W        W82738  38.850  20.534  11.819
16330W        W82739   3.023  22.674  14.743
16331W        W82740  30.720  33.652   1.701
16332W        W82741  13.929  25.155   2.398
16333W        W82742  10.286  18.158   3.570
16334W        W82743  19.543  34.923   5.063
16335W        W82744  42.490  21.223  13.361
16336W        W82745   5.764  15.391  11.180
16337W        W82746  31.655  36.619   1.843
16338W        W82747  38.304  39.534  14.441
16339W        W82748   2.499  33.934   3.946
16340W        W82749   2.506  36.937  11.693
16341W        W82750  35.036   1.228  14.033
16342W        W82751  36.803  18.464   4.613
16343W        W82752  24.533  35.834   1.959
16344W        W82753  16.164  31.656  11.746
16345W        W82754  21.264  39.311  14.938
16346W        W82755  24.751  19.574  11.917
16347W        W82756  17.849   4.928  14.850
16348W        W82757  11.085   4.464   4.170
16349W        W82758   6.610  24.507   4.133
16350W        W82759  41.219  23.463  13.964
16351W        W82760  33.635  24.069   4.003
16352W        W82761  24.933   9.981   4.184
16353W        W82762  28.405  34.862  13.225
16354W        W82763  44.073  23.963   4.444
16355W        W82764  26.222  17.252  12.747
16356W        W82765  15.935   0.502  10.159
16357W        W82766  28.576   9.782   3.556
16358W        W82767   6.675   2.537  14.453
16359W        W82768   8.809  19.098   4.591
16360W        W82769  15.433  22.166   1.109
16361W        W82770  31.333  29.428  12.984
16362W        W82771  44.120  32.391  14.976
16363W        W82772   6.365   0.589  12.995
16364W        W82773  13.663  18.438  14.847
16365W        W82774  35.395  24.077   2.668
16366W        W82775  21.203  19.799   2.832
16367W        W82776  17.399   8.831  13.387
16368W        W82777   5.394  21.594   2.951
16369W        W82778  34.878   2.602  12.163
16370W        W82779   1.708  26.003  12.953
16371W        W82780  40.857  13.948  13.589
16372W        W82781   3.929  15.632   4.620
16373W        W82782   2.987  30.507  13.031
16374W        W82783   5.435   8.972   0.186
16375W        W82784   0.511   2.167  14.368
16376W        W82785  21.958   2.506  11.610
16377W        W82786  32.640  11.227  11.996
16378W        W82787   0.475  25.977  13.929
16379W        W82788   6.937  30.005   1.913
16380W        W82789  35.132   9.293  12.555
16381W        W82790  35.631  41.456   0.910
16382W        W82791  10.698  23.152  13.106
16383W        W82792  43.913  13.312   1.713
16384W        W82793   1.945  28.503   1.723
16385W        W82794  43.647   9.673   2.679
16386W        W82795  34.653  19.808   2.744
16387W        W82796   4.290  15.717   2.443
16388W        W82797  33.537  15.261   4.041
16389W        W82798   5.012  39.502  11.925
16390W        W82799  17.075  13.665  11.900
16391W        W82800   8.781  31.561  14.762
16392W        W82801  30.725  37.113   1.954
16393W        W82802  40.818  40.025  13.454
16394W        W82803  26.131  43.017  11.995
16395W        W82804  37.603  38.497  13.931
16396W        W82805  23.125  23.359  11.251
16397W        W82806  38.104  12.931  14.719
16398W        W82807  38.444   9.529  14.323
16399W        W82808  22.487   8.138   4.166
16400W        W82809  25.165   0.401  11.518
16401W        W82810   1.257  30.254   2.854
16402W        W82811  23.988  24.317  11.961
16403W        W82812  20.737  24.033  11.760
16404W        W82813  16.014   5.124  14.974
16405W        W82814  37.204  29.920   2.332
16406W        W82815  42.654  36.896   2.722
16407W        W82816   4.558  33.468   4.056
16408W        W82817  19.621  34.141  12.917
16409W        W82818  38.906  19.197   1.898
16410W        W82819  31.022  14.065   5.187
16411W        W82820   9.822  35.510   2.255
16412W        W82821  34.924  16.317  14.883
16413W        W82822  15.867  30.555   2.429
16414W        W82823  18.395  23.506  13.435
16415W        W82824   2.395  40.379   3.758
16416W        W82825  35.487  12.623   2.357
16417W        W82826  44.474  13.597   0.205
16418W        W82827   3.418  19.325  10.966
16419W        W82828  21.979  40.359   1.456
16420W        W82829  19.129  15.647  11.999
16421W        W82830   7.132  26.520   0.016
16422W        W82831  23.979  39.544   2.471
16423W        W82832   8.337  26.598   1.722
16424W        W82833  44.931   6.524   4.439
16425W        W82834  31.382  42.460   3.107
16426W        W82835  27.183  39.000  14.802
16427W        W82836  43.923  33.008   1.662
16428W        W82837  21.627   1.057  13.444
16429W        W82838   8.024   8.421  14.464
16430W        W82839  34.115  10.294   2.660
16431W        W82840   2.905  24.897   0.470
16432W        W82841  19.616   7.737   1.232
16433W        W82842  19.386  34.443   4.582
16434W        W82843   7.153   0.783   0.815
16435W        W82844   6.918   3.766   1.793
16436W        W82845  24.400   5.262   1.393
16437W        W82846   1.682  37.369  10.669
16438W        W82847  11.439  40.279  10.733
16439W        W82848  44.281  31.565  14.546
16440W        W82849  21.700  21.315   4.368
16441W        W82850  36.463  39.074  12.372
16442W        W82851  32.100  18.176   4.805
16443W        W82852  12.757  40.062   2.772
16444W        W82853  19.603  32.377  11.510
16445W        W82854   4.368  12.443  12.537
16446W        W82855  35.599  38.345   4.077
16447W        W82856  13.896  38.821  12.898
16448W        W82857  15.778   5.056  11.054
16449W        W82858  34.088  41.640  13.179
16450W        W82859  22.587  11.028   2.720
16451W        W82860   2.964  44.054   1.511
16452W        W82861   0.696  10.352  14.062
16453W        W82862  13.463  22.667  10.475
16454W        W82863   3.425  42.408  10.449
16455W        W82864  14.836  42.536  13.719
16456W        W82865  35.246   4.332  10.147
16457W        W82866  38.521   3.339   0.889
16458W        W82867  27.089  19.993  14.107
16459W        W82868  44.760  16.704  11.555
16460W        W82869  28.882  19.691   0.429
16461W        W82870  37.157  25.779  12.088
16462W        W82871  30.787  18.374   2.740
16463W        W82872   3.687  29.443   0.366
16464W        W82873  18.357  26.941  12.252
16465W        W82874   5.764  21.489  13.005
16466W        W82875  28.594  13.316   4.785
16467W        W82876  42.056  18.252   2.774
16468W        W82877  16.689  31.639   2.238
16469W        W82878  38.910   4.449  12.134
16470W        W82879  41.052  24.983  12.912
16471W        W82880   3.871  31.436   4.241
16472W        W82881  20.645  30.372   3.722
16473W        W82882  43.349   6.889   0.382
16474W        W82883   0.339  36.007  13.374
16475W        W82884  36.293  18.195   3.772
16476W        W82885  41.440  37.441   1.326
16477W        W82886  15.659   8.300   2.070
16478W        W82887   5.491   9.311   1.847
16479W        W82888   3.236  24.661  14.848
16480W        W82889   0.232  24.569   3.652
16481W        W82890   4.084  29.792   0.293
16482W        W82891   6.408   2.669   4.194
16483W        W82892  22.730  24.212   2.690
16484W        W82893  31.912   1.071   5.342
16485W        W82894   5.449  43.152   4.614
16486W        W82895   3.834  36.740  13.975
16487W        W82896  41.573  27.084  13.793
16488W        W82897   3.653  35.094  13.317
16489W        W82898  13.044  41.709   2.347
16490W        W82899  44.676  19.683  12.410
16491W        W82900  24.999   3.822  13.848
16492W        W82901  35.069  10.706  10.593
16493W        W82902  13.524  36.990  14.820
16494W        W82903  23.986   3.516   1.150
16495W        W82904  21.819  23.875   5.002
16496W        W82905  41.884  34.871   4.667
16497W        W82906  25.225  42.896  12.863
16498W        W82907  23.309  12.905  13.929
16499W        W82908  18.009  24.558  11.659
16500W        W82909  16.786   3.933  14.591
16501W        W82910   8.344   0.976  12.532
16502W        W82911   3.567   6.242   3.687
16503W        W82912  21.170  16.230  14.017
16504W        W82913  17.333  31.559   2.236
16505W        W82914   4.244  21.803  14.532
16506W        W82915  36.747  30.561  12.879
16507W        W82916  43.150   5.202  10.660
16508W        W82917   9.259  29.123   1.424
16509W        W82918  34.083  34.035   3.336
16510W        W82919   0.265  14.900   0.835
16511W        W82920   4.313  33.269  11.208
16512W        W82921  33.096  10.131   3.993
16513W        W82922   0.906  43.871   1.122
16514W        W82923   8.209  40.245  11.088
16515W        W82924  13.545  38.555  11.994
16516W        W82925  44.339  22.989   3.706
16517W        W82926  25.694  10.796   1.206
16518W        W82927   8.266  31.126  12.969
16519W        W82928   6.089  21.935   0.025
16520W        W82929   4.950  17.608  12.199
16521W        W82930  25.549  34.661  13.090
16522W        W82931  34.626  27.459   3.526
16523W        W82932  38.382  37.131   0.740
16524W        W82933  20.006   3.769  11.298
16525W        W82934  42.441  23.051  13.754
16526W        W82935  37.232  17.885   2.759
16527W        W82936   6.670   1.696  10.371
16528W        W82937  41.152   5.527   3.652
16529W        W82938  27.073  17.687  12.981
16530W        W82939  44.160  16.226   0.258
16531W        W82940   5.695  39.261   4.865
16532W        W82941  34.779  34.989   2.204
16533W        W82942  32.519  17.104   0.881
16534W        W82943   3.399  28.490   3.681
16535W        W82944  29.295  25.130   1.845
16536W        W82945  37.555  43.378   4.559
16537W        W82946  44.519  42.847   2.467
16538W        W82947  26.101  26.540   5.541
16539W        W82948   0.543  29.387   3.812
16540W        W82949  10.782  17.183   1.264
16541W        W82950  43.251  35.445  13.770
16542W        W82951  24.925  24.726   5.191
16543W        W82952  29.198   5.854   4.295
16544W        W82953   3.836  28.026  10.646
16545W        W82954  22.764  34.809   0.802
16546W        W82955  23.517  29.679   0.367
16547W        W82956  16.223  31.586   1.974
16548W        W82957   1.402  30.161   0.324
16549W        W82958  41.553  18.797   0.906
16550W        W82959   4.772  41.250  11.520
16551W        W82960  35.034   6.619  11.569
16552W        W82961  21.559   5.411  10.753
16553W        W82962  35.275  20.630  10.643
16554W        W82963   7.834   8.699   4.202
16555W        W82964  10.117  18.733   0.230
16556W        W82965  34.291   6.620   1.857
16557W        W82966   6.348  25.960   2.172
16558W        W82967  38.917  18.917  14.589
16559W        W82968  14.663   0.293   3.157
16560W        W82969   2.272  24.049   2.130
16561W        W82970  20.061  41.978   1.464
16562W        W82971  23.914  10.336  12.977
16563W        W82972  33.623  42.400   4.231
16564W        W82973   5.263  25.664   1.604
16565W        W82974  37.505  19.226  13.279
16566W        W82975  31.486  44.814   0.070
16567W        W82976  15.804  38.393   2.767
16568W        W82977  38.936  15.049   2.182
16569W        W82978  16.350  44.710   3.285
16570W        W82979  26.822  12.124   3.991
16571W        W82980  42.578  15.796   4.073
16572W        W82981   9.187   6.756   0.233
16573W        W82982   0.420   7.669   3.406
16574W        W82983  33.701  44.204   3.642
16575W        W82984  38.431  40.892   3.133
16576W        W82985  21.531  37.789  12.886
16577W        W82986  39.805  20.073   1.023
16578W        W82987  14.098  44.927  13.366
16579W        W82988  33.868  42.913  13.964
16580W        W82989  28.376  11.992  13.390
16581W        W82990  28.664  28.194   1.328
16582W        W82991  26.079  33.591  11.213
16583W        W82992  44.292  31.077   2.348
16584W        W82993  18.172  36.162   0.780
16585W        W82994  32.691  29.596  13.340
16586W        W82995  34.733  22.583   0.365
16587W        W82996  28.150  44.024   3.018
16588W        W82997  43.548   7.199  11.162
16589W        W82998  37.944  23.192  12.059
16590W        W82999  38.017  32.847  13.447
16591W        W83000   8.590  18.631   1.724
16592W        W83001  15.752  38.624  11.377
16593W        W83002  14.356  15.106  10.560
16594W        W83003  11.255  16.606   4.091
16595W        W83004  24.588  28.486   2.486
16596W        W83005  20.691   4.843  11.084
16597W        W83006  23.040  19.570  11.860
16598W        W83007  12.110  38.685  12.811
16599W        W83008   7.239  32.061  11.647
16600W        W83009   6.879  40.013   0.345
16601W        W83010  29.152  20.134  14.746
16602W        W83011  20.178   4.647  11.064
16603W        W83012   9.789  22.087  11.569
16604W        W83013   6.846  13.483  13.721
16605W        W83014  30.645  18.422  11.034
16606W        W83015  36.959  33.149   1.497
16607W        W83016  13.642   1.003  11.411
16608W        W83017  31.855  26.042   4.661
16609W        W83018  29.178  16.203   4.640
16610W        W83019   8.541  33.648   3.895
16611W        W83020  20.120  15.250  13.974
16612W        W83021  40.675  33.061   4.073
16613W        W83022   6.245   1.770  10.053
16614W        W83023  32.925  16.736   1.929
16615W        W83024  28.411  19.726  10.376
16616W        W83025   2.000  33.704   1.483
16617W        W83026  11.879  19.905  14.478
16618W        W83027  19.458   4.106  14.453
16619W        W83028  22.126   0.224  10.576
16620W        W83029  36.866   5.417  11.102
16621W        W83030  38.277  12.272  12.338
16622W        W83031  14.350  40.781   5.023
16623W        W83032  21.100   8.997   0.369
16624W        W83033   6.811   0.881   3.974
16625W        W83034  35.472  22.739   2.316
16626W        W83035  31.955  15.121   3.147
16627W        W83036   7.238  36.556   1.444
16628W        W83037   5.331  34.379  13.868
16629W        W83038  32.969   8.782  13.639
16630W        W83039  28.678   2.256  13.268
16631W        W83040  28.869  33.094  10.811
16632W        W83041   4.505   6.280   1.395
16633W        W83042  29.288  24.276  14.328
16634W        W83043  15.827  19.130   0.752
16635W        W83044   1.782   1.171  12.951
16636W        W83045  41.988  40.909  10.669
16637W        W83046  28.017  27.512   2.210
16638W        W83047   2.284  29.955   3.717
16639W        W83048  14.291   6.430  14.531
16640W        W83049  36.046  42.393   4.537
16641W        W83050  18.754  13.161   3.375
16642W        W83051  34.110  33.487  11.035
16643W        W83052  25.028  39.744   4.284
16644W        W83053  31.636   0.472   0.740
16645W        W83054  41.678  44.302  11.031
16646W        W83055   1.350  29.294  13.889
16647W        W83056  30.098  34.835   3.487
16648W        W83057  40.584  22.772  13.973
16649W        W83058  40.572  35.052   3.187
16650W        W83059  16.348  23.504   1.423
16651W        W83060   8.962  35.190   0.824
16652W        W83061   9.479  34.486  12.117
16653W        W83062  30.314  36.791   0.319
16654W        W83063  34.488  29.551  13.042
16655W        W83064   3.252  32.420   0.576
16656W        W83065   2.920  11.491  12.936
16657W        W83066   9.834   6.952  13.793
16658W        W83067  39.323  28.463   2.279
16659W        W83068  25.076  29.490   1.654
16660W        W83069  43.069  40.810  13.007
16661W        W83070  17.681  14.900  12.927
16662W        W83071   3.577  37.554   4.114
16663W        W83072  18.272   6.406  14.085
16664W        W83073   6.411  11.609  12.609
16665W        W83074   6.825   3.023  12.712
16666W        W83075  15.045  24.130  14.261
16667W        W83076   6.520  10.325  13.091
16668W        W83077  19.320  21.099  11.920
16669W        W83078  23.709  44.652   0.417
16670W        W83079   6.371  30.689   1.851
16671W        W83080  22.436   8.769  12.028
16672W        W83081   5.395  12.289  11.708
16673W        W83082  36.748   2.854   1.294
16674W        W83083  42.616   3.424   4.145
16675W        W83084  44.427  34.935   2.132
16676W        W83085  20.275   7.258  12.999
16677W        W83086   1.669  36.603   2.820
16678W        W83087  11.600  39.046   1.096
16679W        W83088  13.893   5.936   0.332
16680W        W83089  24.736  21.120   4.935
16681W        W83090   6.235  14.024  10.311
16682W        W83091  10.884   6.287  10.525
16683W        W83092  17.743  39.153  10.648
16684W        W83093  39.478  11.678   4.631
16685W        W83094  12.727  35.622   0.955
16686W        W83095  40.018  23.694  10.471
16687W        W83096  32.553  20.045  11.829
16688W        W83097  29.734   8.934   1.417
16689W        W83098  30.323  23.414  14.816
16690W        W83099  12.734  18.752   2.414
16691W        W83100  33.192   9.240  14.963
16692W        W83101  34.168  25.820  13.443
16693W        W83102  16.628  36.073   2.290
16694W        W83103  27.653  23.660  14.330
16695W        W83104  24.651   6.813  12.520
16696W        W83105  33.067  44.084  13.864
16697W        W83106   7.287  25.955  14.516
16698W        W83107  17.408  34.895   1.959
16699W        W83108   2.798   0.762  11.502
16700W        W83109  25.589  11.839   1.739
16701W        W83110   1.756  24.435  11.118
16702W        W83111   1.975  19.007   3.960
16703W        W83112   7.202  24.872  12.918
16704W        W83113  35.772  32.906  14.295
16705W        W83114  15.715   7.914   3.272
16706W        W83115  39.108  25.582   4.058
16707W        W83116   3.291   7.180   1.312
16708W        W83117   7.299  15.080  12.002
16709W        W83118   3.836  44.720  12.108
16710W        W83119  21.753  22.620   4.832
16711W        W83120   0.922  38.087  10.599
16712W        W83121  27.370  21.925  14.864
16713W        W83122  21.532  35.037   2.200
16714W        W83123  15.713   0.889  12.572
16715W        W83124   3.383   7.194   0.232
16716W        W83125   5.403  23.256  10.787
16717W        W83126  35.861   6.696  13.049
16718W        W83127   4.712  30.087  10.679
16719W        W83128  12.317   2.995   1.453
16720W        W83129  14.885  29.401   0.085
16721W        W83130  29.901  38.802  10.770
16722W        W83131  29.220  25.152  14.704
16723W        W83132  20.802  20.617   1.353
16724W        W83133  40.085  23.508  11.685
16725W        W83134   6.366  15.806  10.285
16726W        W83135  33.347  40.295  11.938
16727W        W83136  30.461  21.142   2.731
16728W        W83137  19.719  34.163   2.826
16729W        W83138  12.259  19.197  10.296
16730W        W83139   8.583  40.639  11.101
16731W        W83140  39.034  37.078   3.559
16732W        W83141  19.328  37.949  13.992
16733W        W83142  17.185  41.878   1.467
16734W        W83143  21.236   8.363  12.123
16735W        W83144   8.930  40.307   0.906
16736W        W83145  20.823  11.162  13.766
16737W        W83146  23.033   3.288   0.127
16738W        W83147   5.839  29.302   9.996
16739W        W83148   7.380  21.388  10.228
16740W        W83149   0.405  42.542   2.333
16741W        W83150  41.818  33.552   1.760
16742W        W83151  14.268  43.604  10.577
16743W        W83152  24.281  19.573   2.768
16744W        W83153   8.234  13.548  13.889
16745W        W83154   1.886  29.548   1.907
16746W        W83155  12.421  32.394   1.625
16747W        W83156   7.745  40.708   4.543
16748W        W83157   8.250  29.372  11.032
16749W        W83158   1.484   1.932  11.399
16750W        W83159   5.928   0.932   2.457
16751W        W83160  38.121  15.511   2.927
16752W        W83161  28.774  26.011   1.961
16753W        W83162  41.872  38.470   1.790
16754W        W83163  18.292  38.183   4.242
16755W        W83164   9.204  19.518  13.458
16756W        W83165  37.511  43.324   3.667
16757W        W83166   7.832  40.096  14.378
16758W        W83167  34.000  42.384   1.367
16759W        W83168  15.337  13.206   4.581
16760W        W83169   0.192  31.161  12.077
16761W        W83170  15.127  24.736   0.007
16762W        W83171  14.118   6.820  13.994
16763W        W83172  44.855  19.347   3.751
16764W        W83173  21.967  42.459  11.992
16765W        W83174  21.753   4.312  14.815
16766W        W83175   1.916  35.432  12.105
16767W        W83176   2.665  19.819   0.820
16768W        W83177  18.464  36.400   0.078
16769W        W83178  15.265   7.174   2.184
16770W        W83179  32.902  38.534  13.989
16771W        W83180  21.043  11.968  12.985
16772W        W83181  20.636  30.819  13.580
16773W        W83182  18.237  28.723  13.963
16774W        W83183  37.052  37.870   2.843
16775W        W83184  10.189  20.095  12.108
16776W        W83185   2.585  41.829  11.652
16777W        W83186   9.282  37.516   2.822
16778W        W83187  14.478   4.322  14.935
16779W        W83188   6.425  13.708  12.540
16780W        W83189  35.745  17.456   5.486
16781W        W83190  44.982   3.482   2.828
16782W        W83191  10.693  12.148  14.759
16783W        W83192  43.894   4.980  14.045
16784W        W83193  38.727  39.810  14.549
16785W        W83194  33.579  17.515   3.372
16786W        W83195  23.685  44.932   4.620
16787W        W83196  26.673  23.624   3.821
16788W        W83197  13.868  33.138   2.671
16789W        W83198  22.029  33.007   4.659
16790W        W83199  28.961   5.526  11.918
16791W        W83200  40.831   8.889  11.401
16792W        W83201  30.643  39.901   1.471
16793W        W83202   5.493  14.299  13.001
16794W        W83203   6.783   2.253  14.886
16795W        W83204  43.267  34.674  13.825
16796W        W83205  23.234  19.960  13.880
16797W        W83206  33.683  17.392  14.942
16798W        W83207  24.799  40.888  13.534
16799W        W83208  41.340   5.901   2.647
16800W        W83209  32.073  41.943  14.125
16801W        W83210  14.721  11.130   4.657
16802W        W83211  32.595  10.210   4.274
16803W        W83212   6.927  16.306  13.562
16804W        W83213  29.869  43.387  11.453
16805W        W83214  38.339  24.525   3.818
16806W        W83215  14.149  35.145  14.531
16807W        W83216  16.330  14.873   3.282
16808W        W83217  42.612  17.055  13.357
16809W        W83218  32.925   5.192   3.004
16810W        W83219  23.297   7.341   3.392
16811W        W83220  20.844  22.149   3.227
16812W        W83221  26.324  31.667  10.357
16813W        W83222  30.623  30.086   3.105
16814W        W83223  40.907   7.667   3.206
16815W        W83224  19.092  16.089  11.090
16816W        W83225  33.183   3.770  11.437
16817W        W83226   3.130  31.435   0.370
16818W        W83227  35.662  26.227   4.148
16819W        W83228   4.423  33.882   2.318
16820W        W83229   2.559  23.504   0.311
16821W        W83230  24.717   9.775  12.976
16822W        W83231   7.675   6.835   2.794
16823W        W83232  32.919  29.922  12.564
16824W        W83233  25.810  25.445   9.779
16825W        W83234  39.875  29.214  11.804
16826W        W83235  31.436   0.982  12.005
16827W        W83236   3.667  14.155  11.959
16828W        W83237  37.023   6.975  11.663
16829W        W83238  39.422  24.480  10.792
16830W        W83239  21.643   1.661  14.696
16831W        W83240  10.902  23.478   5.090
16832W        W83241  14.118  32.468   3.849
16833W        W83242   9.554  20.795  13.413
16834W        W83243  15.826   8.869   0.320
16835W        W83244  15.240  35.984  11.488
16836W        W83245  42.996  17.346   2.872
16837W        W83246  35.323  25.488   1.411
16838W        W83247  29.474  15.541  13.546
16839W        W83248   2.458  29.534   0.707
16840W        W83249  28.624  39.320   1.099
16841W        W83250   3.230  20.236  14.848
16842W        W83251  39.289  26.672  12.361
16843W        W83252  24.801   2.347   4.150
16844W        W83253   6.413  16.363   3.789
16845W        W83254  34.569   8.265   0.544
16846W        W83255  19.698  30.155  10.637
16847W        W83256  28.324  39.449  10.805
16848W        W83257  29.599  23.763  12.555
16849W        W83258  35.537  25.408   3.715
16850W        W83259  20.640  29.900  13.989
16851W        W83260  11.707  40.716  14.854
16852W        W83261  24.702  17.536   2.258
16853W        W83262  37.596  35.399  13.522
16854W        W83263  44.436   6.320  10.788
16855W        W83264   5.821   8.944   4.572
16856W        W83265  18.368  29.866   4.985
16857W        W83266  31.506  39.141   4.671
16858W        W83267  27.740  25.714   0.373
16859W        W83268   6.310  17.621  13.142
16860W        W83269  32.725  25.624  14.571
16861W        W83270  38.588  24.233  10.807
16862W        W83271  10.348  30.759   5.389
16863W        W83272  31.926  41.856   3.228
16864W        W83273  28.175  13.806   0.462
16865W        W83274   7.159   2.376   3.663
16866W        W83275  17.179   9.296  11.392
16867W        W83276  38.264  32.843  10.723
16868W        W83277   2.302  19.176   4.588
16869W        W83278  23.261   9.104  11.086
16870W        W83279  27.789  19.955  14.769
16871W        W83280  23.045  24.630   3.134
16872W        W83281   2.246  31.527  11.159
16873W        W83282   4.868  41.881   1.745
16874W        W83283  42.756   7.525   1.467
16875W        W83284   6.776  28.926  14.801
16876W        W83285  32.550  40.505  13.377
16877W        W83286   6.520  30.040   2.431
16878W        W83287  37.002  40.738  13.034
16879W        W83288  10.257   2.822  11.401
16880W        W83289  29.044  29.297  10.529
16881W        W83290  35.620  32.774   0.363
16882W        W83291  15.644  16.594  10.375
16883W        W83292  30.740  20.479   3.116
16884W        W83293   8.697  25.943  13.396
16885W        W83294  22.149  22.222   2.138
16886W        W83295   1.873   5.934   4.040
16887W        W83296  12.546  23.007   1.857
16888W        W83297   2.717  32.185  13.391
16889W        W83298  44.312   8.287   0.197
16890W        W83299  34.473  18.626  12.516
16891W        W83300   9.846  37.816   0.796
16892W        W83301   0.015  12.676  14.513
16893W        W83302  17.148  14.634   2.806
16894W        W83303  35.792  27.138   2.221
16895W        W83304  23.286   5.173  13.443
16896W        W83305  25.045  20.757  13.849
16897W        W83306   1.977   0.838   4.612
16898W        W83307   2.756   5.876   3.770
16899W        W83308  17.585  12.702   1.582
16900W        W83309  39.575   8.740   1.954
16901W        W83310  24.172  14.671  12.508
16902W        W83311  16.551  18.844   2.759
16903W        W83312  28.602  35.586   1.394
16904W        W83313  29.066  31.533  10.902
16905W        W83314  21.086  25.846   3.997
16906W        W83315  31.548  35.655  12.215
16907W        W83316   2.222  20.461   2.461
16908W        W83317  25.428   2.657  14.383
16909W        W83318  25.025  24.948   2.361
16910W        W83319  23.597  36.447   0.351
16911W        W83320   0.202  24.517   1.743
16912W        W83321   0.708   0.720   4.272
16913W        W83322  27.855   9.268   1.425
16914W        W83323  19.121  37.496   1.193
16915W        W83324  39.473  26.541   3.287
16916W        W83325   9.400  25.457  11.460
16917W        W83326  33.291  42.409   3.830
16918W        W83327  26.726  43.924  13.886
16919W        W83328  38.500  22.823   3.292
16920W        W83329  41.881  39.910   0.869
16921W        W83330   0.264  24.202  14.325
16922W        W83331   3.206  20.570   3.120
16923W        W83332  43.459  25.208   4.201
16924W        W83333  21.528   1.207  11.189
16925W        W83334  20.135  18.222   2.038
16926W        W83335  27.536  42.823   0.822
16927W        W83336  43.360  28.521  11.273
16928W        W83337  27.294  34.550   1.173
16929W        W83338  41.503  20.871  11.057
16930W        W83339   3.369  14.192  12.351
16931W        W83340  26.861   4.834  10.792
16932W        W83341  27.470   8.335  12.030
16933W        W83342  17.345   2.591  11.991
16934W        W83343  26.192   9.777  14.315
16935W        W83344  32.568  39.994   1.143
16936W        W83345  27.604   8.751  11.253
16937W        W83346  35.504  39.820  14.928
16938W        W83347  18.434  12.253   0.388
16939W        W83348  44.344  26.108  10.605
16940W        W83349  26.236   1.422   2.895
16941W        W83350  11.874   3.058  11.066
16942W        W83351  10.315  35.399   1.884
16943W        W83352  23.637  22.197  12.596
16944W        W83353  22.848  17.765   1.304
16945W        W83354  38.308  32.066  13.295
16946W        W83355   1.096  42.055   2.627
16947W        W83356  22.795  33.430   2.914
16948W        W83357  36.954   0.546   3.254
16949W        W83358  27.327  36.765  12.479
16950W        W83359  34.355  20.978  12.389
16951W        W83360   4.438  14.294  10.828
16952W        W83361   8.344   6.034   1.545
16953W        W83362  38.599  35.964   2.231
16954W        W83363   7.428   1.258   1.862
16955W        W83364  22.477  37.523  12.244
16956W        W83365  10.171  38.365  11.048
16957W        W83366  37.589  10.133  14.318
16958W        W83367  26.507   6.095   4.131
16959W        W83368  15.671  13.186  13.926
16960W        W83369  33.050  36.495   3.896
16961W        W83370  11.589  41.448   2.863
16962W        W83371  16.631  10.730   2.585
16963W        W83372  10.824  11.911  12.987
16964W        W83373  41.410  26.192  10.305
16965W        W83374  12.341   0.241   3.607
16966W        W83375   7.674  35.593  11.183
16967W        W83376  24.949  29.114  14.488
16968W        W83377  25.295  40.226  11.127
16969W        W83378  40.166  40.026  11.912
16970W        W83379  35.417  18.226  12.430
16971W        W83380  24.989  21.276  13.830
16972W        W83381  43.813  32.619  13.287
16973W        W83382  17.270   8.379  13.157
16974W        W83383  13.141  29.706  14.079
16975W        W83384   5.350  10.470   0.002
16976W        W83385  16.302  20.653  13.243
16977W        W83386  27.078  14.655  11.986
16978W        W83387  25.516  18.612  13.832
16979W        W83388  42.754  34.534  10.588
16980W        W83389  12.498   2.512   2.302
16981W        W83390  39.116   0.469  12.509
16982W        W83391  16.823   2.037   0.227
16983W        W83392  41.837  14.129   4.381
16984W        W83393   2.360   8.704  10.672
16985W        W83394  43.335   7.213   5.310
16986W        W83395   6.041  28.470  11.680
16987W        W83396  19.754  15.221   4.141
16988W        W83397   6.631  27.861   3.085
16989W        W83398  20.653  38.601  14.516
16990W        W83399  30.727   4.297   4.208
16991W        W83400   4.461  29.371  13.569
16992W        W83401  37.878   1.822  13.151
16993W        W83402  25.694  15.716  13.320
16994W        W83403  37.542  13.317  12.982
16995W        W83404  26.858  17.162   0.758
16996W        W83405  27.545  10.970  12.050
16997W        W83406  10.611   4.886   4.096
16998W        W83407  39.784   0.651   3.117
16999W        W83408  34.595   1.203  11.110
17000W        W83409  44.033  32.456   0.755
17001W        W83410  12.698  18.091  11.855
17002W        W83411  13.839   3.820  11.938
17003W        W83412  17.117  30.118  13.448
17004W        W83413  18.234  17.951  14.937
17005W        W83414  34.352  15.090   0.866
17006W        W83415   3.019  28.613  14.824
17007W        W83416  22.107  26.554   3.628
17008W        W83417  35.991  16.693   3.404
17009W        W83418  32.848  24.379  14.919
17010W        W83419  34.503  11.190  10.874
17011W        W83420   1.516  15.899   3.304
17012W        W83421  18.365  31.154   3.058
17013W        W83422   0.511  34.540   3.165
17014W        W83423   7.951  24.227   0.196
17015W        W83424  12.775   1.899  13.691
17016W        W83425   4.526  26.925  11.851
17017W        W83426  39.189  37.350   3.132
17018W        W83427  18.656  38.424  11.474
17019W        W83428  22.813  22.159  11.052
17020W        W83429  24.475  13.723   4.310
17021W        W83430  28.494   4.301   4.808
17022W        W83431  24.634  42.582  13.409
17023W        W83432  17.413  30.784   4.430
17024W        W83433  34.419   1.694  14.381
17025W        W83434  32.988  39.236  11.530
17026W        W83435  37.874  25.751  13.375
17027W        W83436   4.920  14.000  11.924
17028W        W83437  37.816  27.397   1.358
17029W        W83438   4.782  41.947   0.262
17030W        W83439   2.848  42.483  11.177
17031W        W83440  39.370  11.020   3.470
17032W        W83441  21.049  26.688  13.915
17033W        W83442  14.180  34.850   3.138
17034W        W83443  43.771  22.783   0.036
17035W        W83444  20.602  27.413   3.408
17036W        W83445  31.196  21.137   2.288
17037W        W83446  21.008  39.026   2.898
17038W        W83447  25.160  29.202   3.558
17039W        W83448   0.336  14.775   2.567
17040W        W83449  19.423  33.620   3.364
17041W        W83450  33.126  22.199   3.705
17042W        W83451   0.767  19.767  12.518
17043W        W83452  36.303  40.857  11.524
17044W        W83453   4.939  20.074  14.317
17045W        W83454  41.545  44.718   1.656
17046W        W83455  32.782   4.048   0.436
17047W        W83456  42.255  34.901   3.872
17048W        W83457  23.083  26.630  13.810
17049W        W83458  33.030  43.652  12.911
17050W        W83459  23.432   5.946  11.525
17051W        W83460   6.915  35.558  13.354
17052W        W83461  44.973  33.363   3.268
17053W        W83462  39.086  41.972  13.897
17054W        W83463  33.468  26.413   3.889
17055W        W83464   4.097  14.852  12.027
17056W        W83465  24.501  14.755   0.089
17057W        W83466  16.085  21.554  14.391
17058W        W83467  24.549   4.523   2.848
17059W        W83468  12.127  36.432  11.878
17060W        W83469  23.009   4.742  10.650
17061W        W83470  32.575  29.103   0.335
17062W        W83471  44.295  21.055  13.832
17063W        W83472  38.865  14.313  10.664
17064W        W83473  26.015   1.233   0.388
17065W        W83474  33.189  32.783  12.934
17066W        W83475  41.635  21.000   1.300
17067W        W83476  10.954   2.296  14.729
17068W        W83477  43.133  19.470   1.292
17069W        W83478  29.417  32.389  11.603
17070W        W83479  18.244  29.433   2.704
17071W        W83480  24.938  24.623  14.484
17072W        W83481  41.084  26.223   1.317
17073W        W83482   6.681   0.294   2.827
17074W        W83483  43.731  36.058   3.599
17075W        W83484  21.798  29.029   1.909
17076W        W83485   7.198  19.686  12.081
17077W        W83486  32.856  37.085   0.693
17078W        W83487  25.087  41.058   2.306
17079W        W83488  12.514  35.065   2.848
17080W        W83489   1.255  14.544  12.017
17081W        W83490   7.314  13.277  10.775
17082W        W83491  31.570  34.948  14.022
17083W        W83492  31.149  41.451   2.203
17084W        W83493   9.250   5.327  12.104
17085W        W83494   6.272  19.178   3.211
17086W        W83495   6.779  35.115  12.459
17087W        W83496  23.787  38.614  10.780
17088W        W83497  40.379  24.571   3.101
17089W        W83498  38.617  15.302   0.807
17090W        W83499  44.065  25.573  14.357
17091W        W83500  44.319  22.578   1.666
17092W        W83501  35.948  35.807  14.482
17093W        W83502  14.751   7.841   0.308
17094W        W83503   0.098   0.423  14.548
17095W        W83504  19.790  35.092   3.027
17096W        W83505  21.439  19.547   4.572
17097W        W83506  23.459  38.570  11.184
17098W        W83507  38.587   9.162   1.306
17099W        W83508   2.172  31.950   3.217
17100W        W83509  26.613  24.988   2.345
17101W        W83510  34.986  24.536   1.444
17102W        W83511  30.597  37.640   2.784
17103W        W83512   7.952  35.412   0.814
17104W        W83513  13.562   0.057   4.107
17105W        W83514  15.738  23.052   4.065
17106W        W83515  40.908  41.874  13.630
17107W        W83516  19.804  12.710  11.193
17108W        W83517   4.877   8.891   2.288
17109W        W83518  38.478  14.219  14.269
17110W        W83519  16.217   9.859   0.331
17111W        W83520  26.991  24.754   3.663
17112W        W83521  27.949  44.460  14.143
17113W        W83522   5.699  40.929  14.941
17114W        W83523   3.278  32.360   2.065
17115W        W83524  25.066  33.006   0.417
17116W        W83525  23.631  39.571  14.977
17117W        W83526  30.711  40.076   3.239
17118W        W83527   9.210  14.639   3.369
17119W        W83528  32.479  44.696   3.540
17120W        W83529  22.537  40.336   4.179
17121W        W83530   0.966  11.225   2.784
17122W        W83531  21.158  36.449   4.627
17123W        W83532   7.839   0.266  10.616
17124W        W83533  27.922  11.912   4.195
17125W        W83534  28.636  20.197  14.515
17126W        W83535  38.534  15.616   5.393
17127W        W83536  36.843  31.969   3.962
17128W        W83537  25.149   7.346  11.185
17129W        W83538  18.199  15.333  14.331
17130W        W83539  22.653  12.755  14.372
17131W        W83540  30.396  13.828  14.751
17132W        W83541  14.120  13.734  10.998
17133W        W83542  17.047  24.678   4.301
17134W        W83543  35.138  25.444  11.131
17135W        W83544  14.674  26.017   2.944
17136W        W83545  34.807  41.240  14.414
17137W        W83546  19.823  10.932  13.349
17138W        W83547  37.825  31.160   1.853
17139W        W83548  10.751  37.094  14.566
17140W        W83549   9.016  20.760  12.009
17141W        W83550  34.694   5.406   3.394
17142W        W83551  33.659   2.041  13.074
17143W        W83552   4.166  18.386  12.902
17144W        W83553  36.526  15.186   0.236
17145W        W83554  28.335  11.501   3.741
17146W        W83555  16.334  19.335   1.792
17147W        W83556  17.668  22.040  13.454
17148W        W83557  11.541  10.700  14.122
17149W        W83558  41.456  18.612   3.411
17150W        W83559  33.113   1.208   4.964
17151W        W83560  42.310  13.909  11.661
17152W        W83561   5.687  36.564  14.797
17153W        W83562   9.161  21.470   1.924
17154W        W83563   3.880   7.274  14.569
17155W        W83564  33.937  38.597  12.943
17156W        W83565  20.714  21.209   3.267
17157W        W83566  28.869  42.510   2.318
17158W        W83567  25.050  34.895   2.798
17159W        W83568  41.118  33.501   0.342
17160W        W83569  40.900  28.577   3.866
17161W        W83570  44.944  43.660   3.652
17162W        W83571   7.862  10.097   5.006
17163W        W83572  33.488   4.660  14.541
17164W        W83573  18.233  18.589  13.027
17165W        W83574  42.663  21.795   3.138
17166W        W83575  41.309   8.242   2.663
17167W        W83576  41.920  44.724  11.980
17168W        W83577   8.663   1.918  14.913
17169W        W83578  21.966  44.821   3.153
17170W        W83579  28.421  18.711   3.913
17171W        W83580  23.098   2.914   1.358
17172W        W83581  15.782  18.175  11.664
17173W        W83582  30.222   8.162  11.395
17174W        W83583   0.721  21.096   2.861
17175W        W83584  21.337  28.993  11.209
17176W        W83585   3.007  14.145   2.646
17177W        W83586   5.128   8.739  14.827
17178W        W83587  28.593  11.938   4.594
17179W        W83588  18.054  14.686   1.739
17180W        W83589  26.332  37.143  12.490
17181W        W83590   7.850  18.665   0.786
17182W        W83591  23.250  30.114   1.953
17183W        W83592   2.381  44.487  11.692
17184W        W83593  36.853  20.122  12.729
17185W        W83594   6.719   9.748  10.768
17186W        W83595   5.898  41.913  14.322
17187W        W83596   2.732  20.128  12.350
17188W        W83597  24.244  42.511   2.876
17189W        W83598  40.476   1.188  11.609
17190W        W83599  17.613   1.378   1.436
17191W        W83600  44.696   5.696  14.985
17192W        W83601  16.532  39.069  11.360
17193W        W83602  43.302  29.723   2.852
17194W        W83603   8.148  21.591  12.550
17195W        W83604  37.527  11.415  11.200
17196W        W83605  33.625  37.089  11.643
17197W        W83606  16.066  43.482   3.132
17198W        W83607  40.627  21.735  14.438
17199W        W83608  29.522   4.477   1.444
17200W        W83609  37.292  29.483   3.762
17201W        W83610  28.902  43.842   1.751
17202W        W83611  40.424  27.779   1.142
17203W        W83612  30.162   1.817  12.413
17204W        W83613  20.203  35.014   1.327
17205W        W83614   6.394  34.764  10.788
17206W        W83615  34.327   6.204   0.583
17207W        W83616   7.291  41.338  13.930
17208W        W83617  27.543  33.078   0.720
17209W        W83618  18.282  20.175  13.962
17210W        W83619   3.774  16.860   0.420
17211W        W83620  11.192  26.955  10.775
17212W        W83621  28.503  32.385  10.605
17213W        W83622  42.943   5.635  11.572
17214W        W83623  36.050  33.474  13.682
17215W        W83624   0.670  18.187  12.372
17216W        W83625  36.426  22.045  12.015
17217W        W83626  17.374  31.040  14.760
17218W        W83627  18.570  27.095  12.834
17219W        W83628  37.591  29.504   2.208
17220W        W83629   3.276  23.109   2.200
17221W        W83630   4.358  36.397   3.351
17222W        W83631   4.486   8.482   4.121
17223W        W83632  20.650  19.809  13.871
17224W        W83633  10.059  41.649   3.494
17225W        W83634   6.739  20.385  14.353
17226W        W83635  37.870  25.230   3.669
17227W        W83636  43.320  38.056   3.368
17228W        W83637  43.837  16.281   4.752
17229W        W83638  24.465   5.293  10.686
17230W        W83639   4.036   2.579   4.099
17231W        W83640  16.697  20.509  11.426
17232W        W83641  43.341   1.311   1.789
17233W        W83642  11.270  24.970  14.140
17234W        W83643  39.779   8.277   0.587
17235W        W83644   6.634  44.604  12.907
17236W        W83645  42.021  24.599   0.302
17237W        W83646  34.108  27.698   1.147
17238W        W83647  20.049  18.440   0.555
17239W        W83648  33.807  11.157   1.019
17240W        W83649   9.828  41.598   4.801
17241W        W83650  28.587  39.714   1.432
17242W        W83651  30.088   2.445  11.028
17243W        W83652  38.985  16.583  10.053
17244W        W83653  25.698   5.292  13.933
17245W        W83654  23.939  31.651  13.315
17246W        W83655  25.057  20.805   0.329
17247W        W83656  41.519  11.403  14.279
17248W        W83657  23.968  11.113   3.703
17249W        W83658  33.539  14.271   4.988
17250W        W83659  14.027   4.343   0.196
17251W        W83660  25.788  37.823  11.199
17252W        W83661   4.002  27.649  13.512
17253W        W83662   7.638  29.632   3.444
17254W        W83663  26.539  27.743   2.661
17255W        W83664   2.802  40.306   4.209
17256W        W83665  37.158   0.751  10.806
17257W        W83666  44.538  18.172  11.261
17258W        W83667   2.618   7.151  14.472
17259W        W83668  19.787  40.531  10.712
17260W        W83669  16.202   1.021  12.379
17261W        W83670   2.216  29.978  12.863
17262W        W83671   4.968  23.425   2.468
17263W        W83672   9.827  27.075  14.103
17264W        W83673  24.524  14.241  14.927
17265W        W83674  34.524  17.846  11.725
17266W        W83675  21.066  44.496  13.933
17267W        W83676  28.082  29.046  10.860
17268W        W83677  22.034  29.637  14.164
17269W        W83678  36.842  16.504   3.412
17270W        W83679  30.903  29.917   4.096
17271W        W83680  40.216  27.696   2.718
17272W        W83681  20.966   0.614   4.277
17273W        W83682  41.730  30.177  12.065
17274W        W83683   3.839   3.161   1.251
17275W        W83684  15.842  44.982   4.798
17276W        W83685  22.767  11.237  12.941
17277W        W83686  23.626   1.065  11.127
17278W        W83687  23.592  25.469   4.612
17279W        W83688  38.509  24.627  11.161
17280W        W83689  41.314  19.056  12.592
17281W        W83690   0.759  23.240   0.758
17282W        W83691  43.196  35.190   4.583
17283W        W83692  35.829  35.037  14.126
17284W        W83693  10.153  42.059  13.457
17285W        W83694  37.590  19.163   1.736
17286W        W83695   3.302  44.501  11.559
17287W        W83696  11.141  13.565   0.521
17288W        W83697   3.174   6.344  11.818
17289W        W83698   5.759  36.383  10.582
17290W        W83699   4.218   6.334  11.040
17291W        W83700   1.651  37.535   4.097
17292W        W83701   5.998  14.152  14.744
17293W        W83702  38.811   9.188   3.109
17294W        W83703  36.983   0.887  13.597
17295W        W83704  38.356  35.904  11.135
17296W        W83705  38.877  18.701  11.746
17297W        W83706   7.184  21.025   1.386
17298W        W83707  34.649  13.646  12.922
17299W        W83708  16.997  30.248   1.276
17300W        W83709  25.627   1.949   4.627
17301W        W83710  28.283  37.770  11.678
17302W        W83711  13.312  29.120   3.722
17303W        W83712   8.360  27.665  10.522
17304W        W83713  32.554  17.630   3.752
17305W        W83714  20.740  12.412  14.829
17306W        W83715  22.275  28.113  14.704
17307W        W83716  34.712  39.138  10.258
17308W        W83717  36.592   1.333   1.320
17309W        W83718  36.575  35.956  11.010
17310W        W83719  20.382  29.529  11.932
17311W        W83720  39.415   5.308  12.502
17312W        W83721  33.687  19.104  11.579
17313W        W83722  39.260  26.571  13.978
17314W        W83723  16.287  19.551   4.657
17315W        W83724  44.838  15.136   2.906
17316W        W83725  11.926  44.871   4.940
17317W        W83726  41.822   3.255  12.910
17318W        W83727  30.313  31.935   1.329
17319W        W83728  33.138   3.383  10.331
17320W        W83729   0.720  41.657   1.250
17321W        W83730   5.821   1.818  10.898
17322W        W83731  30.664  30.789   1.328
17323W        W83732  36.998  42.724   2.688
17324W        W83733  20.601   8.014   4.015
17325W        W83734  23.694  29.091   4.545
17326W        W83735  37.925   5.051   4.189
17327W        W83736  29.015  34.481  13.731
17328W        W83737  37.075  18.272  14.504
17329W        W83738  24.457  12.337   2.273
17330W        W83739  32.444  25.230   1.943
17331W        W83740  27.594  25.579  11.536
17332W        W83741  25.183  23.760  12.786
17333W        W83742  24.433  10.328  11.663
17334W        W83743   5.797  40.599   4.461
17335W        W83744  15.539  19.285  11.360
17336W        W83745  39.957  34.085   4.734
17337W        W83746  38.019  23.104   4.842
17338W        W83747  41.383  27.032  14.836
17339W        W83748  15.926  23.890   5.027
17340W        W83749   1.845  25.958  10.831
17341W        W83750  22.260   2.563   2.717
17342W        W83751  22.423  30.506  12.069
17343W        W83752  20.106  32.403  11.623
17344W        W83753  42.769   8.695   4.548
17345W        W83754  44.543   2.411  12.752
17346W        W83755  26.770   4.463   1.342
17347W        W83756  42.763  14.099   1.327
17348W        W83757  20.837  12.222   2.620
17349W        W83758  32.104  25.775  13.872
17350W        W83759  39.432   3.181   2.754
17351W        W83760  24.759  18.796   0.891
17352W        W83761  28.246  20.020   4.424
17353W        W83762  39.465  10.975  13.531
17354W        W83763  41.194  28.571   2.918
17355W        W83764  37.123  15.361   4.949
17356W        W83765  24.511  39.967  11.691
17357W        W83766  40.719  16.209  12.067
17358W        W83767   8.292  36.241   3.291
17359W        W83768  32.776  13.982   4.218
17360W        W83769  42.486  40.996  11.731
17361W        W83770  32.206  38.943   5.055
17362W        W83771  29.112  38.498  11.468
17363W        W83772  31.982  23.010   0.945
17364W        W83773  33.527  30.362  10.009
17365W        W83774   0.347   2.134  13.303
17366W        W83775  27.864   9.762   0.166
17367W        W83776  28.063  19.623   1.683
17368W        W83777  35.053  42.317   0.975
17369W        W83778  23.633  36.841  12.624
17370W        W83779   8.653  24.799   0.641
17371W        W83780   3.437  25.188  13.612
17372W        W83781  11.416   9.070  13.085
17373W        W83782  32.818   7.309   0.832
17374W        W83783  13.733  33.861   9.920
17375W        W83784  29.271  37.870  13.151
17376W        W83785   6.556  19.100  12.554
17377W        W83786  30.313  37.034  11.056
17378W        W83787   7.221  17.621   1.687
17379W        W83788  36.876  10.653   3.824
17380W        W83789   6.313  23.467  13.862
17381W        W83790   0.256   1.748  14.840
17382W        W83791   9.222   0.244  12.113
17383W        W83792  35.862  16.459  10.729
17384W        W83793  39.767  40.666   1.615
17385W        W83794   9.099   3.008   3.675
17386W        W83795  33.959  31.956   0.244
17387W        W83796  23.406  10.328   4.207
17388W        W83797  38.379  32.298  10.710
17389W        W83798  23.335  41.944  11.185
17390W        W83799  30.387  29.115   4.734
17391W        W83800   3.888  27.571   1.808
17392W        W83801  34.384  34.452  12.397
17393W        W83802  39.112   8.775   1.700
17394W        W83803  37.362  41.592  13.821
17395W        W83804  36.091  20.814   2.894
17396W        W83805   0.786  37.500  14.063
17397W        W83806  23.089  40.797   1.132
17398W        W83807  25.252  23.160  10.636
17399W        W83808  14.268  40.623  14.925
17400W        W83809  39.029   1.859   0.867
17401W        W83810  13.757  19.785   3.645
17402W        W83811  16.811  21.106  12.445
17403W        W83812  21.022  21.645  12.557
17404W        W83813  41.845  38.159  10.509
17405W        W83814  11.232  19.828   3.164
17406W        W83815  22.962  21.569  11.595
17407W        W83816  13.645  26.714   0.710
17408W        W83817  28.940  43.125   4.593
17409W        W83818  42.827   7.765   9.584
17410W        W83819   3.145  33.954   4.690
17411W        W83820  23.570  33.957  10.732
17412W        W83821  16.590  18.070   4.511
17413W        W83822  26.158  15.209   2.789
17414W        W83823  26.972   8.966  14.970
17415W        W83824   6.983   2.998  13.452
17416W        W83825  16.714  33.794  12.585
17417W        W83826   5.317  23.478   9.964
17418W        W83827   6.654  13.885   4.048
17419W        W83828  20.524  43.560   1.018
17420W        W83829  38.409  40.816  13.797
17421W        W83830  29.303  31.560  10.450
17422W        W83831  19.273  35.985  10.633
17423W        W83832  15.594   1.685  13.236
17424W        W83833   9.598  14.771   3.695
17425W        W83834  37.571  21.176  11.192
17426W        W83835   9.899  12.757   3.954
17427W        W83836  33.799  35.151   2.770
17428W        W83837   1.346  29.859  11.609
17429W        W83838  38.669   3.945   3.826
17430W        W83839  27.552  33.512   2.130
17431W        W83840   7.063  14.636   2.291
17432W        W83841  32.145  38.297  13.318
17433W        W83842  31.350  25.235   4.781
17434W        W83843   7.854  33.687  11.045
17435W        W83844  23.305   0.190   4.240
17436W        W83845  17.196   9.976  13.626
17437W        W83846  36.349  18.166  11.900
17438W        W83847   5.858  42.766  11.116
17439W        W83848  42.382  12.298  12.577
17440W        W83849  36.487  17.197   1.920
17441W        W83850  15.879  23.383   4.971
17442W        W83851   2.040   7.381  12.878
17443W        W83852  17.341  43.224   4.219
17444W        W83853  12.805  13.625  10.815
17445W        W83854  22.232  25.413   1.423
17446W        W83855  18.672  10.943  12.048
17447W        W83856   7.012  38.818  11.109
17448W        W83857  25.296  11.502   4.024
17449W        W83858   6.698  36.843   3.976
17450W        W83859  32.857  42.231   4.148
17451W        W83860  31.439  36.468   2.341
17452W        W83861  23.934   1.076  13.185
17453W        W83862  16.801  28.971   1.793
17454W        W83863  21.641  40.964   4.261
17455W        W83864  31.163  35.542   2.424
17456W        W83865   4.287  34.031   2.798
17457W        W83866  36.900  44.707  11.578
17458W        W83867   7.923  22.825  11.170
17459W        W83868  10.819  11.367   0.810
17460W        W83869  28.870  19.462   4.914
17461W        W83870  14.849  15.695  12.616
17462W        W83871  18.633  22.626   0.809
17463W        W83872   2.311  16.257   2.160
17464W        W83873   8.223   2.716   1.679
17465W        W83874   0.407  35.044  12.406
17466W        W83875   6.875  32.197   4.989
17467W        W83876   7.794  21.117   2.711
17468W        W83877  26.551  36.302   1.334
17469W        W83878  26.113  33.263   4.232
17470W        W83879  16.435  15.375  14.248
17471W        W83880  43.479   3.866  12.622
17472W        W83881  12.443  23.880  10.248
17473W        W83882  26.700  20.013  10.867
17474W        W83883  34.229   9.374   2.146
17475W        W83884  14.330  24.915  11.584
17476W        W83885  10.695  13.219   1.495
17477W        W83886  21.519  10.333   4.188
17478W        W83887  12.358   6.132  10.647
17479W        W83888  24.099  33.896  10.845
17480W        W83889  10.678  43.948   3.204
17481W        W83890  23.551  11.833  12.468
17482W        W83891  40.037   1.960   4.186
17483W        W83892  21.569   3.391  11.060
17484W        W83893  30.635  12.831  11.616
17485W        W83894   3.164  27.615  13.882
17486W        W83895   4.585  15.125   3.659
17487W        W83896  18.969  22.647   4.127
17488W        W83897  11.174  44.355   2.694
17489W        W83898  42.794  20.157  13.862
17490W        W83899  26.098  42.495  14.209
17491W        W83900  15.694  38.014  11.393
17492W        W83901  12.548  37.374  13.839
17493W        W83902   0.207   6.467   3.362
17494W        W83903  24.763  10.638   0.293
17495W        W83904   0.182  33.922  11.158
17496W        W83905  25.221  41.910  13.466
17497W        W83906  24.446   9.286   2.589
17498W        W83907   6.156  40.367   2.107
17499W        W83908  38.878  21.809   9.636
17500W        W83909  38.387  32.592   1.749
17501W        W83910  26.163  43.218  14.736
17502W        W83911  11.412  43.891  12.830
17503W        W83912  20.089  34.463  12.152
17504W        W83913  40.182  20.423  12.101
17505W        W83914  18.095  27.142  12.658
17506W        W83915  23.130  18.514  14.362
17507W        W83916  26.930   3.460  12.560
17508W        W83917   6.526  25.439   3.910
17509W        W83918  14.445  34.406  14.881
17510W        W83919  33.579  21.283   5.019
17511W        W83920  23.604  14.766  10.751
17512W        W83921   9.800  31.289  12.487
17513W        W83922  12.174  39.078  11.924
17514W        W83923  21.141   8.974  11.576
17515W        W83924   3.898  19.791   1.320
17516W        W83925  26.282  32.748   4.146
17517W        W83926   2.213  10.706  14.415
17518W        W83927  11.822   2.817   3.126
17519W        W83928  13.174  37.788  11.491
17520W        W83929  15.387   4.226   4.354
17521W        W83930  34.718  40.154  13.824
17522W        W83931  29.249  33.479  13.879
17523W        W83932  25.686   9.829  10.317
17524W        W83933  42.204   2.273  12.921
17525W        W83934  43.482  13.397  14.853
17526W        W83935   9.686   1.800   1.022
17527W        W83936  22.786  32.146  14.619
17528W        W83937  11.892   3.604   4.605
17529W        W83938  22.826   2.418   1.819
17530W        W83939  20.960  15.861  11.236
17531W        W83940  13.938  22.351  13.052
17532W        W83941  26.461   4.525  10.682
17533W        W83942  13.567  33.030  12.075
17534W        W83943  23.550  32.011   0.476
17535W        W83944  10.125  28.485  10.607
17536W        W83945  32.930  18.275   0.721
17537W        W83946   0.586  40.817   1.706
17538W        W83947   4.733  27.567   0.640
17539W        W83948  40.337  24.689  12.934
17540W        W83949  32.609  28.384  12.025
17541W        W83950  23.049  18.730   4.397
17542W        W83951  18.323  11.565   4.079
17543W        W83952  42.315  33.087   2.280
17544W        W83953  19.621  32.903  11.489
17545W        W83954  11.842  10.899  14.494
17546W        W83955  32.809  20.945   1.333
17547W        W83956  43.924   7.428   3.319
17548W        W83957  42.893  16.132  14.781
17549W        W83958  32.601   4.020   5.320
17550W        W83959  28.862   4.865   3.880
17551W        W83960  41.300  26.736  11.048
17552W        W83961  20.825  21.220   4.191
17553W        W83962  21.390  20.593   3.301
17554W        W83963   4.739  11.324   4.301
17555W        W83964  29.506  27.205   3.684
17556W        W83965  23.469   0.728  11.498
17557W        W83966  21.654  12.649  10.860
17558W        W83967   5.621  14.672   4.509
17559W        W83968  34.896   3.478  14.442
17560W        W83969  12.222  36.487   3.900
17561W        W83970   0.299   3.689  14.214
17562W        W83971  19.959   9.778  11.865
17563W        W83972  33.133  36.111  11.171
17564W        W83973  21.011  36.930  12.787
17565W        W83974  36.617  23.162  10.547
17566W        W83975  36.348   2.284  12.118
17567W        W83976  26.209  36.789   2.174
17568W        W83977  29.466  15.172   0.362
17569W        W83978   9.769  28.485  11.921
17570W        W83979  30.007  15.296   2.855
17571W        W83980  10.221  38.876  11.101
17572W        W83981  44.505  38.257   4.545
17573W        W83982  17.335  12.371   4.675
17574W        W83983  35.271  33.181  10.720
17575W        W83984   4.703  28.640   4.133
17576W        W83985  10.242  25.935   0.401
17577W        W83986  32.836  26.689  13.971
17578W        W83987   3.795  10.406  11.244
17579W        W83988  13.252  18.705  14.733
17580W        W83989  24.921  16.822  14.247
17581W        W83990  31.077  18.841  14.360
17582W        W83991  19.223  19.506  13.093
17583W        W83992  20.399  24.945  10.743
17584W        W83993  43.294  33.235  11.742
17585W        W83994  19.561  28.575  10.820
17586W        W83995  20.213  13.893   4.216
17587W        W83996  29.071  42.752  12.986
17588W        W83997  22.480   8.404   3.288
17589W        W83998   2.432  38.018   2.586
17590W        W83999  42.607  25.552  10.756
17591W        W84000  13.836  34.584  12.932
17592W        W84001  12.449  37.854   2.323
17593W        W84002   4.157  24.595  11.102
17594W        W84003  16.235  22.658   0.373
17595W        W84004  10.789  36.017  11.731
17596W        W84005  16.264  17.724  14.521
17597W        W84006  33.457  15.864   2.250
17598W        W84007   6.662  27.128   0.369
17599W        W84008  15.835  24.078  11.065
17600W        W84009  23.435   9.659   1.436
17601W        W84010  18.058   5.262   1.449
17602W        W84011  24.219  15.104  13.428
17603W        W84012  33.207   5.386  10.291
17604W        W84013  34.012  17.842  11.179
17605W        W84014  42.795   3.016  11.200
17606W        W84015   4.382  29.123   3.210
17607W        W84016  33.634   4.302  12.497
17608W        W84017  14.039  10.773  11.648
17609W        W84018  33.568  43.949   0.412
17610W        W84019  24.150  28.022   0.357
17611W        W84020  34.356  19.185  14.564
17612W        W84021   8.294   3.598  13.865
17613W        W84022  20.324  22.678  14.265
17614W        W84023   6.401  32.197   4.782
17615W        W84024  16.332  16.103  13.218
17616W        W84025  30.865  27.897  14.847
17617W        W84026   5.639  32.872   2.752
17618W        W84027   9.172   5.451  13.112
17619W        W84028  27.681  36.069   0.200
17620W        W84029  37.473  32.473   1.340
17621W        W84030  37.051   9.615  11.520
17622W        W84031  29.047  30.593   2.988
17623W        W84032  29.567  14.300  11.384
17624W        W84033  33.639  38.146   3.657
17625W        W84034  42.015  41.563   2.468
17626W        W84035  19.192   9.885   2.306
17627W        W84036   3.892  18.044  14.998
17628W        W84037   7.295  16.053   3.256
17629W        W84038  40.283  36.538   4.116
17630W        W84039  27.391  38.306   1.003
17631W        W84040   5.376   2.518   2.746
17632W        W84041  11.687  42.360  12.385
17633W        W84042  29.911   0.406   3.908
17634W        W84043   5.838  41.398  14.277
17635W        W84044   4.791  31.926   5.001
17636W        W84045  23.560   8.659  13.766
17637W        W84046  12.583   8.230  12.202
17638W        W84047  20.366  13.821  13.639
17639W        W84048  33.378  38.366   3.232
17640W        W84049  37.524  35.863   0.780
17641W        W84050  28.893  35.137   0.898
17642W        W84051  38.255  19.658  11.985
17643W        W84052   7.725  10.104   3.707
17644W        W84053  13.810  39.546  12.438
17645W        W84054   2.464   7.254  13.569
17646W        W84055   7.460  18.706  13.853
17647W        W84056  34.467  17.367   0.309
17648W        W84057  40.891  36.928   4.650
17649W        W84058   5.805  21.679   1.853
17650W        W84059   2.823  28.110  10.930
17651W        W84060  11.382  20.271  13.750
17652W        W84061  30.893  34.977   0.848
17653W        W84062   1.123   0.456  14.099
17654W        W84063  19.492  16.192  13.337
17655W        W84064  21.766  23.027   0.865
17656W        W84065   3.337  12.544   0.254
17657W        W84066  12.277   1.032  12.149
17658W        W84067  21.537  14.719   4.169
17659W        W84068  25.172   4.161   1.010
17660W        W84069   7.218  31.940  14.476
17661W        W84070  27.181   0.963  11.106
17662W        W84071   2.263  42.234  14.115
17663W        W84072   7.848   8.648   0.782
17664W        W84073  33.374  25.014  11.564
17665W        W84074  19.169  26.555   2.607
17666W        W84075  29.505   8.201  11.987
17667W        W84076   7.317   7.287  11.929
17668W        W84077  15.243  40.377   0.019
17669W        W84078  10.912  43.873   2.753
17670W        W84079  20.693  23.573  11.401
17671W        W84080  15.206  44.579   3.665
17672W        W84081  40.231   6.297   4.571
17673W        W84082  35.536  15.684   4.929
17674W        W84083  36.896  36.046  14.661
17675W        W84084  31.092  34.093   0.471
17676W        W84085  19.795   8.773  10.941
17677W        W84086  36.394  15.702   2.068
17678W        W84087  29.743  41.656   0.888
17679W        W84088  10.612  24.136   4.121
17680W        W84089  28.181  22.041  12.129
17681W        W84090  11.405  10.771  11.538
17682W        W84091  27.605  31.423  12.304
17683W        W84092  16.763   2.506   0.460
17684W        W84093  12.532  28.246  14.414
17685W        W84094  33.651  13.126   0.699
17686W        W84095  44.389  11.299   4.317
17687W        W84096   7.499  23.820  11.846
17688W        W84097   6.850  12.753   4.880
17689W        W84098  25.731   2.275   2.808
17690W        W84099   8.480  37.384  11.207
17691W        W84100  18.110  35.659  13.806
17692W        W84101  10.686   4.652   0.337
17693W        W84102  14.832  11.824   4.358
17694W        W84103   0.330  34.823   2.763
17695W        W84104   7.235   0.430   2.903
17696W        W84105  41.573   5.255   3.828
17697W        W84106   2.250   5.892   3.685
17698W        W84107   3.704  27.603   0.865
17699W        W84108  26.883  43.416   2.385
17700W        W84109  12.842  19.013  14.811
17701W        W84110  40.684  30.004  14.493
17702W        W84111  44.786  23.508  14.051
17703W        W84112  32.351  10.864  12.437
17704W        W84113  11.613  18.206  14.839
17705W        W84114  12.757   8.442   1.884
17706W        W84115  34.327  25.194  11.237
17707W        W84116  28.053  22.103   4.658
17708W        W84117  21.132  25.957  11.574
17709W        W84118   9.474  22.513  13.057
17710W        W84119  42.242   7.019   2.268
17711W        W84120  10.125  15.839  10.493
17712W        W84121  28.858  16.773   4.965
17713W        W84122   0.324  38.115   4.295
17714W        W84123   3.372  20.417   0.783
17715W        W84124  31.881  15.316  13.118
17716W        W84125  15.748  36.929  13.872
17717W        W84126  17.029  14.107  14.339
17718W        W84127  27.498  35.514  11.951
17719W        W84128  26.122  13.637   0.826
17720W        W84129   4.694  31.230   3.644
17721W        W84130  23.171  32.067  13.011
17722W        W84131   7.708  23.827   1.640
17723W        W84132  28.120   0.838   4.121
17724W        W84133  27.989  40.548  11.933
17725W        W84134  18.546  40.077  10.860
17726W        W84135  23.445  37.548   0.198
17727W        W84136  21.286  15.309  14.483
17728W        W84137  16.242  36.889   3.297
17729W        W84138   8.956  11.723  14.496
17730W        W84139  29.651  16.027  11.547
17731W        W84140  35.516  44.112   2.301
17732W        W84141   0.447  33.777  13.857
17733W        W84142  36.968   3.134   0.900
17734W        W84143   5.186  27.123   2.845
17735W        W84144   6.846   2.770  14.902
17736W        W84145  44.728   7.478   1.758
17737W        W84146   8.870  30.648   9.940
17738W        W84147  26.680  11.463  13.476
17739W        W84148  27.069  24.763  13.934
17740W        W84149  40.494  41.343   4.043
17741W        W84150  12.674   0.197  13.757
17742W        W84151  26.179  24.308   4.116
17743W        W84152  11.926  44.036  11.525
17744W        W84153   3.369  33.710   5.082
17745W        W84154  33.462  16.221  12.378
17746W        W84155  44.834  16.314  13.636
17747W        W84156  40.587   5.744  13.637
17748W        W84157  13.210   4.692   4.143
17749W        W84158  21.276  10.760   4.774
17750W        W84159   8.148  42.104   4.483
17751W        W84160  29.231   2.826   0.378
17752W        W84161  12.236  14.380   4.220
17753W        W84162  23.194  42.160  11.940
17754W        W84163  34.615  33.427  11.137
17755W        W84164   9.435   5.899   3.695
17756W        W84165  35.870  15.202   2.629
17757W        W84166  12.342   1.747  11.186
17758W        W84167   2.535  21.369  13.809
17759W        W84168  39.013  11.208  13.409
17760W        W84169  40.421  37.745   5.179
17761W        W84170  30.039  30.678  11.166
17762W        W84171  23.571   7.324   4.793
17763W        W84172   0.715  12.839   3.287
17764W        W84173  42.661  43.017  14.498
17765W        W84174  10.908   6.476  12.047
17766W        W84175  17.219  42.311   0.294
17767W        W84176  41.777  16.082   2.427
17768W        W84177  41.833  25.648   2.308
17769W        W84178   6.898   5.346  10.333
17770W        W84179   0.141   8.698  13.042
17771W        W84180   8.177   4.095   4.576
17772W        W84181  18.025   3.597  12.973
17773W        W84182  26.964  26.606  10.704
17774W        W84183  40.432  14.224  11.646
17775W        W84184   1.312  37.891  14.810
17776W        W84185  32.008   0.498  13.476
17777W        W84186  40.842  12.914   4.702
17778W        W84187  19.550   4.466  11.458
17779W        W84188  15.779  14.464   3.145
17780W        W84189  10.767  21.465   1.692
17781W        W84190  25.054  12.339  13.910
17782W        W84191   8.515  28.780  14.930
17783W        W84192  14.673   1.973   4.927
17784W        W84193  11.853  23.602  13.836
17785W        W84194  25.056  40.891  10.735
17786W        W84195  40.321   8.715   3.419
17787W        W84196  38.956  18.685  10.207
17788W        W84197  20.981  25.785   3.505
17789W        W84198  42.796  26.186   4.829
17790W        W84199  44.859  22.028  12.112
17791W        W84200  29.044  26.732  13.065
17792W        W84201  42.497  22.557  13.888
17793W        W84202   7.879  27.628  14.592
17794W        W84203  11.389  20.817  11.584
17795W        W84204  14.763   8.695   5.041
17796W        W84205   6.885  33.402  13.398
17797W        W84206  24.259  28.691  14.357
17798W        W84207   4.132  17.750   1.428
17799W        W84208   4.353  34.334   0.452
17800W        W84209  32.908  22.254  11.602
17801W        W84210  33.182   0.102  13.837
17802W        W84211  18.903   5.914  12.134
17803W        W84212   4.939  26.878   0.044
17804W        W84213  41.888  32.213   4.567
17805W        W84214  34.888  30.409   4.231
17806W        W84215   3.908  12.697  10.331
17807W        W84216  30.834  36.991   1.446
17808W        W84217  33.110  42.246  13.129
17809W        W84218  33.941  43.825  12.499
17810W        W84219   4.695   8.779   3.673
17811W        W84220  17.967   6.261  12.107
17812W        W84221   9.811   8.725   3.606
17813W        W84222  31.672  35.879   1.520
17814W        W84223  35.330  40.940  12.430
17815W        W84224  30.954  17.707  10.634
17816W        W84225  35.071  22.582  14.949
17817W        W84226  33.108   2.195   3.705
17818W        W84227  10.329   1.775   3.649
17819W        W84228   4.804  13.097   2.351
17820W        W84229  10.562  35.047  11.876
17821W        W84230   4.623  31.765  10.429
17822W        W84231  22.694   3.220  14.715
17823W        W84232  23.525  37.159  13.430
17824W        W84233  41.252  24.561   0.868
17825W        W84234  43.436   5.706  11.058
17826W        W84235   6.763  21.752  11.964
17827W        W84236  16.108  33.041  14.005
17828W        W84237  10.268  16.725   4.559
17829W        W84238   0.430  13.192  13.138
17830W        W84239  30.471  31.777   4.580
17831W        W84240  10.256  21.620   1.818
17832W        W84241   5.789  34.948   4.554
17833W        W84242  28.704  20.694  10.590
17834W        W84243  23.778  15.650   0.830
17835W        W84244  10.267  29.189  13.155
17836W        W84245  41.905  17.747  11.681
17837W        W84246  40.571  16.641  10.726
17838W        W84247  15.322   1.498   3.534
17839W        W84248  21.970  21.608  13.401
17840W        W84249  30.927   3.559  12.477
17841W        W84250   1.763  18.735  12.280
17842W        W84251  39.051  44.814   1.064
17843W        W84252  39.628  13.196  12.044
17844W        W84253  35.111  19.559   2.736
17845W        W84254  45.000  27.528   2.130
17846W        W84255   5.404  40.752   3.903
17847W        W84256   3.434  14.260   4.421
17848W        W84257  43.918  29.532   4.833
17849W        W84258   9.270  36.033   4.172
17850W        W84259  29.584  12.729   1.588
17851W        W84260  39.896  10.160  13.626
17852W        W84261  15.056  26.572   0.460
17853W        W84262  17.570  34.481   4.076
17854W        W84263  37.241   7.999  12.889
17855W        W84264  28.988  27.620  14.706
17856W        W84265  26.092  44.031   1.927
17857W        W84266  43.188  18.813  13.531
17858W        W84267   0.245  29.528   2.891
17859W        W84268  43.662  31.193  10.576
17860W        W84269  39.067   6.376  14.377
17861W        W84270   8.175  21.150  12.272
17862W        W84271  35.891  42.282  13.988
17863W        W84272  15.646   4.619   1.505
17864W        W84273  14.740   9.935   0.875
17865W        W84274   5.532   1.878  11.880
17866W        W84275  35.116   5.493   4.947
17867W        W84276  28.580  18.587   2.915
17868W        W84277   2.298  36.171   1.655
17869W        W84278   8.257   7.796   3.585
17870W        W84279   1.984  34.438  11.747
17871W        W84280  25.745   2.470   1.667
17872W        W84281   3.916  21.686   3.811
17873W        W84282   1.410  14.215  10.710
17874W        W84283   6.774   4.396   3.653
17875W        W84284  24.713   0.414   0.020
17876W        W84285  19.825  13.870   1.688
17877W        W84286  43.867  10.430  13.505
17878W        W84287  36.165  32.912  11.617
17879W        W84288  37.254  17.793  13.371
17880W        W84289  18.061   8.916   3.303
17881W        W84290  14.666  19.472   3.220
17882W        W84291  29.474   2.487   2.279
17883W        W84292   5.642  25.996  14.349
17884W        W84293  22.593  24.717  11.155
17885W        W84294  41.258  35.542  13.034
17886W        W84295  40.976  31.734  10.791
17887W        W84296  39.767  23.747   2.442
17888W        W84297  18.080  20.684   2.545
17889W        W84298  37.373  27.500  11.091
17890W        W84299  29.998  41.251   4.150
17891W        W84300  36.021  21.534  12.574
17892W        W84301  15.777  34.543  12.081
17893W        W84302  30.178  16.077  12.872
17894W        W84303  30.541   4.866  14.567
17895W        W84304  23.376  14.237   1.379
17896W        W84305  22.295  33.516  11.973
17897W        W84306   5.403  37.838   3.850
17898W        W84307   1.968   6.665  11.067
17899W        W84308  35.508  30.614  12.436
17900W        W84309  29.528  28.260   1.247
17901W        W84310  17.098   8.144   1.882
17902W        W84311  10.572  27.598   0.295
17903W        W84312  22.872  19.832   1.025
17904W        W84313  33.864  37.001   1.963
17905W        W84314  27.211  39.005   0.355
17906W        W84315  13.847  39.946  12.131
17907W        W84316  39.240   4.251  14.401
17908W        W84317   9.435  17.622  13.770
17909W        W84318  31.177  41.044   1.871
17910W        W84319   8.179   5.896   4.157
17911W        W84320  40.535  37.970  14.928
17912W        W84321  30.809  13.995  13.032
17913W        W84322  21.326   4.851   2.675
17914W        W84323   4.044   4.107  11.371
17915W        W84324  12.446  13.079  14.097
17916W        W84325  21.489  21.670   3.601
17917W        W84326  17.620   3.860   0.826
17918W        W84327  38.862  28.050  11.194
17919W        W84328  33.215  31.345  12.958
17920W        W84329   0.030  14.591  10.740
17921W        W84330  28.568   3.345  13.836
17922W        W84331   8.730  19.755   2.390
17923W        W84332   9.126  34.846  11.946
17924W        W84333  23.702  21.071   0.391
17925W        W84334  21.050   9.831   4.210
17926W        W84335  27.919  42.380  11.671
17927W        W84336  30.145  41.779   4.425
17928W        W84337  15.936  32.640  11.842
17929W        W84338   4.912  13.659  13.917
17930W        W84339   3.150  30.958   2.665
17931W        W84340  24.012  14.364  11.222
17932W        W84341  18.425  25.263   2.888
17933W        W84342  30.161  43.521  10.755
17934W        W84343  25.197  42.760  13.843
17935W        W84344  30.420  27.765   3.632
17936W        W84345  33.426   9.765   2.146
17937W        W84346  27.274  25.340  13.566
17938W        W84347  15.679  18.040   4.576
17939W        W84348  13.185  26.699  10.680
17940W        W84349   2.573  14.462  12.433
17941W        W84350  30.811  32.822   0.817
17942W        W84351  22.597  42.003   0.777
17943W        W84352  31.379  14.122   2.861
17944W        W84353  24.718   8.206  13.105
17945W        W84354  16.213  28.211   1.841
17946W        W84355   6.221   7.692   4.283
17947W        W84356   9.602   2.683   4.487
17948W        W84357   7.758  27.804   2.676
17949W        W84358   2.066  15.032   3.081
17950W        W84359  36.362  29.644   3.432
17951W        W84360  10.812  41.420  13.370
17952W        W84361  30.451   3.774   3.069
17953W        W84362  13.816  39.998   2.636
17954W        W84363  22.683  39.340  13.787
17955W        W84364  36.486  31.922  10.270
17956W        W84365  21.474   9.688  14.953
17957W        W84366  13.607  42.740   1.894
17958W        W84367   1.957  32.902  12.034
17959W        W84368   3.977   4.066  13.905
17960W        W84369  42.350  28.146  12.862
17961W        W84370  12.727  41.428  11.433
17962W        W84371  10.575   6.684  13.205
17963W        W84372  37.884  13.691  12.455
17964W        W84373  36.948  22.131   3.276
17965W        W84374   4.866  22.265   0.064
17966W        W84375  31.415  35.668   0.283
17967W        W84376  14.381  40.557  13.013
17968W        W84377  17.085  14.622  13.802
17969W        W84378  44.582  10.580   0.070
17970W        W84379  32.014  29.595   0.816
17971W        W84380  44.221  35.320   1.158
17972W        W84381  23.595   2.546  11.004
17973W        W84382  30.559  11.982   0.880
17974W        W84383   9.524  28.039  11.886
17975W        W84384  21.758  14.801  10.329
17976W        W84385   6.726  35.110   4.511
17977W        W84386  36.384  22.129   1.831
17978W        W84387  43.324  18.714   4.063
17979W        W84388  33.942   4.034   3.307
17980W        W84389  14.282  21.400   1.478
17981W        W84390  36.423  18.855  13.004
17982W        W84391  38.318  23.488   2.878
17983W        W84392  33.517   9.301   0.818
17984W        W84393  20.286  26.904  13.446
17985W        W84394  19.612  20.818   0.803
17986W        W84395  15.329  35.778  14.014
17987W        W84396  38.477   2.828  11.551
17988W        W84397  38.155   0.580   1.767
17989W        W84398  33.482  18.946   4.520
17990W        W84399  14.214   8.435  13.919
17991W        W84400  23.198  40.537  12.980
17992W        W84401  38.060  44.462   4.002
17993W        W84402  41.974  30.892   4.220
17994W        W84403  44.999  35.589  13.793
17995W        W84404  43.078   6.815   3.154
17996W        W84405  31.213  42.744  12.140
17997W        W84406  12.616  14.179  12.599
17998W        W84407   8.772  12.212  14.275
17999W        W84408  11.454  31.591  12.236
18000W        W84409  28.717   0.235  11.956
18001W        W84410  25.906  41.758   1.018
18002W        W84411  23.896   4.418  11.533
18003W        W84412  14.994  13.718  11.993
18004W        W84413  29.198  33.543   4.295
18005W        W84414  12.048  43.695   1.367
18006W        W84415  41.999  21.575  12.160
18007W        W84416  13.628   0.141   1.873
18008W        W84417  38.911  40.713   1.812
18009W        W84418   0.849  40.490  13.847
18010W        W84419  13.161   0.572  14.480
18011W        W84420  19.192  38.095  12.397
18012W        W84421  39.849   9.376  14.284
18013W        W84422  28.729  23.017   5.015
18014W        W84423  22.771  31.019  10.919
18015W        W84424  42.904  26.006  12.794
18016W        W84425  12.924   7.287  12.940
18017W        W84426  17.020  30.531   1.704
18018W        W84427  42.420  28.747  14.834
18019W        W84428   6.229   7.232   4.039
18020W        W84429  31.432  20.291  12.581
18021W        W84430   8.207  33.891   0.834
18022W        W84431  44.770  36.347  13.390
18023W        W84432  23.685  41.626  14.367
18024W        W84433  17.827  36.922   3.233
18025W        W84434  34.900  35.442  12.925
18026W        W84435  31.816  29.098  14.520
18027W        W84436  17.624  16.819  14.785
18028W        W84437   2.907  21.220   0.842
18029W        W84438  22.883  38.912  14.055
18030W        W84439  35.597  19.399   2.821
18031W        W84440   0.914  40.523   0.457
18032W        W84441  40.882   4.126   2.226
18033W        W84442  13.383  24.978   2.234
18034W        W84443   7.193  11.866  13.715
18035W        W84444  41.325   5.382  13.448
18036W        W84445  15.780  27.202  14.300
18037W        W84446   1.947  35.276   4.134
18038W        W84447  27.074   4.597  13.396
18039W        W84448  22.971   5.704  11.612
18040W        W84449  10.832  24.623  12.150
18041W        W84450   6.309  10.419  13.999
18042W        W84451   9.066  12.897  13.922
18043W        W84452  44.451  24.161   1.741
18044W        W84453  43.076  15.309   2.693
18045W        W84454   8.951  31.254   1.997
18046W        W84455  26.506   5.360  13.510
18047W        W84456  29.884  17.908  14.053
18048W        W84457   1.743  11.386  13.027
18049W        W84458  22.700   1.905   1.958
18050W        W84459  41.906  13.646  14.378
18051W        W84460  12.822  22.946   1.404
18052W        W84461   3.125  25.455  13.302
18053W        W84462   5.121   5.298  13.888
18054W        W84463  12.863  27.412   4.159
18055W        W84464  23.751  16.193  10.719
18056W        W84465   4.077  32.356  11.027
18057W        W84466  12.585  36.512  13.929
18058W        W84467   1.956   5.751  11.965
18059W        W84468   6.386   3.598   3.590
18060W        W84469  28.148  26.016   3.640
18061W        W84470  20.645  19.828  11.208
18062W        W84471  20.699  44.611  14.303
18063W        W84472  31.555  11.882  12.302
18064W        W84473  30.414  11.941  14.285
18065W        W84474  34.342  30.592  12.550
18066W        W84475   7.881  31.150   3.194
18067W        W84476  33.693  44.712   2.455
18068W        W84477  36.470  32.079  12.677
18069W        W84478  33.101  34.360  12.063
18070W        W84479  27.005  42.724  12.203
18071W        W84480  23.300  23.694   0.419
18072W        W84481  27.911   7.648  10.078
18073W        W84482  27.210  41.351  14.870
18074W        W84483  27.510  39.493  10.573
18075W        W84484  36.003  25.136  10.918
18076W        W84485   7.897  20.767   0.037
18077W        W84486   3.715  11.886   1.653
18078W        W84487  37.748  37.010  10.930
18079W        W84488   0.026   4.278   3.599
18080W        W84489  14.081  21.789   2.751
18081W        W84490  44.363  33.103   2.135
18082W        W84491  24.096  18.486   0.484
18083W        W84492  38.028  22.721   1.660
18084W        W84493   5.054  18.747  12.556
18085W        W84494  17.373  12.572   2.949
18086W        W84495  15.082  10.627  13.904
18087W        W84496  34.408  26.634   0.814
18088W        W84497  19.339  41.567  11.293
18089W        W84498   8.229  38.355   0.891
18090W        W84499   5.823  32.136  13.579
18091W        W84500  12.669  44.288   3.010
18092W        W84501  33.500   0.881  14.692
18093W        W84502  29.999  29.348   4.042
18094W        W84503  35.418  44.777   4.703
18095W        W84504  38.576  19.025   4.443
18096W        W84505   2.761  42.976   4.074
18097W        W84506  16.597   9.400   2.623
18098W        W84507  44.793  15.543  14.817
18099W        W84508   1.394   5.413   0.785
18100W        W84509  35.653  19.786  12.496
18101W        W84510  17.556  25.209  14.725
18102W        W84511  36.011  15.979  10.635
18103W        W84512   3.258  26.253  11.886
18104W        W84513  20.586  24.233  13.404
18105W        W84514  19.832  40.888  11.659
18106W        W84515  25.680  22.352  10.786
18107W        W84516  11.294  38.079   3.625
18108W        W84517  11.396  16.084   4.673
18109W        W84518   4.353   5.893   1.684
18110W        W84519  39.837  32.990  12.525
18111W        W84520  19.389   1.961  11.101
18112W        W84521   2.267  30.339   0.614
18113W        W84522  44.546  38.926  12.063
18114W        W84523  35.553  15.393   2.269
18115W        W84524  29.386  31.490  14.377
18116W        W84525  10.723  15.513   2.227
18117W        W84526  36.898   2.517   0.293
18118W        W84527  16.214  41.516   2.858
18119W        W84528  10.798  14.807   1.649
18120W        W84529  17.421  26.533  11.386
18121W        W84530  37.153  24.360   4.661
18122W        W84531  32.474   1.916  14.679
18123W        W84532  37.692  16.508  12.348
18124W        W84533  33.883  20.268  12.008
18125W        W84534  15.020  36.267  13.067
18126W        W84535  15.695  34.585  10.206
18127W        W84536  42.981  37.837  11.496
18128W        W84537  14.116  14.065   4.080
18129W        W84538  42.713  38.057   1.304
18130W        W84539  20.143  25.721   1.057
18131W        W84540  17.300  26.671  13.980
18132W        W84541  30.430   3.775   3.575
18133W        W84542  32.982   5.580   4.579
18134W        W84543  16.375  25.430  12.951
18135W        W84544  16.381  39.164  13.882
18136W        W84545  17.510  28.358  13.263
18137W        W84546  22.525  28.508   5.132
18138W        W84547  23.196   5.710   0.247
18139W        W84548  17.002  41.928   3.299
18140W        W84549  16.724  32.491  12.596
18141W        W84550   8.555   8.743  13.252
18142W        W84551  12.503  38.354   3.203
18143W        W84552   3.250  30.314  10.046
18144W        W84553  39.475  34.946   2.882
18145W        W84554  43.531  10.067   3.552
18146W        W84555  28.905  13.105  11.086
18147W        W84556   0.087  32.656   0.704
18148W        W84557  19.197   5.798   0.650
18149W        W84558  40.307  26.075  10.553
18150W        W84559  27.638  32.364   4.157
18151W        W84560   1.986   0.732   1.942
18152W        W84561   2.814  28.160   3.140
18153W        W84562  17.700  20.237   4.565
18154W        W84563  12.177  19.981   1.417
18155W        W84564   3.165   4.780  13.023
18156W        W84565  10.549  43.271   1.729
18157W        W84566  18.552  17.768  10.687
18158W        W84567  22.546  43.883  11.502
18159W        W84568   8.716   3.113  10.565
18160W        W84569  12.597  12.730  13.269
18161W        W84570  30.899  30.187   5.122
18162W        W84571  34.030  21.048   4.788
18163W        W84572  17.263  11.459   4.954
18164W        W84573  42.638  22.189   0.367
18165W        W84574   8.343  27.567  12.177
18166W        W84575   4.327  34.641  12.897
18167W        W84576  18.008  26.764   3.812
18168W        W84577  35.266  15.581   4.510
18169W        W84578   5.979  38.976   1.362
18170W        W84579  38.806  27.038  10.841
18171W        W84580   3.579  25.168  12.861
18172W        W84581  20.844  22.565   4.491
18173W        W84582  16.641  28.070  13.156
18174W        W84583  12.952  37.895   2.401
18175W        W84584  19.623  27.699  12.515
18176W        W84585   6.359  13.516   3.246
18177W        W84586  16.515  16.638   4.421
18178W        W84587  13.168   0.192  11.551
18179W        W84588   1.794  32.953  11.536
18180W        W84589  37.335  25.648  10.815
18181W        W84590   6.362  38.913   1.750
18182W        W84591  30.246  11.753  12.568
18183W        W84592  24.131  25.457   1.924
18184W        W84593  38.360  14.410  12.874
18185W        W84594  22.670  43.471  14.562
18186W        W84595  24.121  16.291   3.887
18187W        W84596   4.244  33.840  12.560
18188W        W84597  44.201  39.709   0.371
18189W        W84598  21.497  31.206   0.968
18190W        W84599  22.490  19.658  13.943
18191W        W84600  28.613  39.062  13.056
18192W        W84601  14.595   0.839  14.418
18193W        W84602  44.263  21.682   0.813
18194W        W84603  38.415  17.174  13.397
18195W        W84604  29.472  25.932  10.656
18196W        W84605  28.933   6.265  14.757
18197W        W84606  20.092  31.969   4.240
18198W        W84607  21.846  24.564   3.576
18199W        W84608  16.251  21.348   3.082
18200W        W84609   6.550  30.759  12.126
18201W        W84610  24.651   8.224   2.696
18202W        W84611  16.107  18.756  14.396
18203W        W84612  16.890  21.474   2.039
18204W        W84613  39.729  33.647  10.840
18205W        W84614  20.475  33.274  13.376
18206W        W84615   7.273  24.243  12.041
18207W        W84616  12.498   9.069   4.469
18208W        W84617  35.938  21.074   0.348
18209W        W84618   2.548  28.400   0.267
18210W        W84619  39.386  14.701  11.138
18211W        W84620  26.749  30.137  11.134
18212W        W84621   5.266  41.527   1.767
18213W        W84622  22.763   2.426  13.420
18214W        W84623  44.683  38.387   1.427
18215W        W84624   8.924  24.540   3.846
18216W        W84625  24.125  37.357   2.789
18217W        W84626   9.477  19.646   0.753
18218W        W84627  38.422   3.698  11.042
18219W        W84628  26.999   9.175  13.008
18220W        W84629  40.368  15.779   3.123
18221W        W84630   1.988  35.475  13.096
18222W        W84631  22.715  20.068   1.668
18223W        W84632  21.540   3.265  12.059
18224W        W84633  17.650  23.701  13.905
18225W        W84634  30.923  36.851   2.861
18226W        W84635  22.029   1.371  11.168
18227W        W84636  15.042  14.406   3.720
18228W        W84637  34.601  14.623  13.900
18229W        W84638  32.084   9.334   4.246
18230W        W84639   2.409  12.161  14.510
18231W        W84640  26.053  26.321   4.463
18232W        W84641  42.490  11.175   2.671
18233W        W84642  15.365  11.298  11.275
18234W        W84643  24.275   0.258   2.347
18235W        W84644  21.964  31.882   1.460
18236W        W84645   0.257  36.511  13.276
18237W        W84646  31.963  19.703  14.313
18238W        W84647  13.766   2.321   4.476
18239W        W84648  24.485  25.248   4.095
18240W        W84649  24.752  19.318   4.703
18241W        W84650  22.807   3.787  12.161
18242W        W84651   0.664  31.186   3.587
18243W        W84652  20.698   3.379  13.665
18244W        W84653   6.346  36.380   0.413
18245W        W84654  37.871   8.849   4.971
18246W        W84655  17.744  29.906   4.343
18247W        W84656  30.979   6.697  12.081
18248W        W84657   4.161  26.457   2.275
18249W        W84658   6.457  43.281   1.188
18250W        W84659  25.071  34.947   4.482
18251W        W84660  39.657  18.745  13.564
18252W        W84661  28.935  26.169  13.466
18253W        W84662  41.485  29.484   0.232
18254W        W84663  27.404  17.754  11.108
18255W        W84664  31.914   7.003   4.991
18256W        W84665  31.929  44.729  14.493
18257W        W84666  39.826  13.838   2.759
18258W        W84667  43.653  21.125  10.789
18259W        W84668   3.145  23.670  11.990
18260W        W84669  10.821  12.528   3.246
18261W        W84670  21.237   9.133   3.231
18262W        W84671  39.102  23.717   4.997
18263W        W84672  40.056  38.733  11.535
18264W        W84673   8.653   7.366  13.483
18265W        W84674  29.671  18.724  12.744
18266W        W84675  36.108  27.464   3.298
18267W        W84676   7.898  14.250  10.858
18268W        W84677   0.479  34.394  11.437
18269W        W84678   3.038  28.641   3.241
18270W        W84679   0.388  32.501   3.417
18271W        W84680  37.034   9.303  14.426
18272W        W84681  10.947  18.209   2.378
18273W        W84682  24.468   5.526   2.611
18274W        W84683  31.910  41.084  10.832
18275W        W84684  17.446  12.123   3.200
18276W        W84685  30.485   1.689   3.694
18277W        W84686  32.185  35.756  12.922
18278W        W84687  42.773  35.931   1.156
18279W        W84688  19.325  37.645   0.727
18280W        W84689   0.451   8.726   3.639
18281W        W84690  36.638  20.264  10.793
18282W        W84691   8.322  36.487   0.209
18283W        W84692  11.376  28.398  13.882
18284W        W84693  24.741  43.661   1.817
18285W        W84694  21.466   2.639  14.885
18286W        W84695  38.820  24.198   0.358
18287W        W84696   4.454   0.115  13.033
18288W        W84697  37.406  42.673  10.592
18289W        W84698  38.815  39.989   0.017
18290W        W84699   1.919   7.884   2.657
18291W        W84700   8.964   5.419   0.922
18292W        W84701  34.473  12.897   0.273
18293W        W84702  21.628   8.714  14.272
18294W        W84703  36.223  19.633  10.253
18295W        W84704  18.240  26.707  12.985
18296W        W84705   5.811   0.774  13.569
18297W        W84706  16.020  23.682   1.820
18298W        W84707  35.622   5.923   3.282
18299W        W84708  13.338  23.238  13.943
18300W        W84709  42.191  20.157  11.608
18301W        W84710   9.757  40.814   2.353
18302W        W84711  14.759  13.313  12.656
18303W        W84712   2.830   8.755  11.510
18304W        W84713  19.430  38.942   3.269
18305W        W84714  20.593  20.798  11.937
18306W        W84715  36.595  11.857  14.993
18307W        W84716  24.023   6.505  10.812
18308W        W84717  27.222  10.530   1.712
18309W        W84718   5.901   9.910   1.375
18310W        W84719  18.267  24.114   1.387
18311W        W84720  16.599   6.356   3.368
18312W        W84721  16.348   1.795  11.657
18313W        W84722  13.293  39.065   0.466
18314W        W84723  31.847  42.060   1.760
18315W        W84724  18.367  24.079   2.891
18316W        W84725  19.816  24.606   1.874
18317W        W84726   0.985   8.959  10.713
18318W        W84727  21.597  24.550   3.141
18319W        W84728  33.094  32.540  10.898
18320W        W84729  10.250   3.523   1.811
18321W        W84730  19.284  27.692   1.321
18322W        W84731  10.770  41.067   4.562
18323W        W84732  17.621  24.788  12.033
18324W        W84733  37.854  36.482   1.817
18325W        W84734  13.469  12.634   1.326
18326W        W84735  10.117  42.234  11.944
18327W        W84736  39.620  30.905  12.151
18328W        W84737  21.268  26.185   3.207
18329W        W84738  44.209  37.318   1.811
18330W        W84739  36.062  39.082   0.311
18331W        W84740   1.760   3.165   1.788
18332W        W84741  36.399  31.745   4.198
18333W        W84742  10.163  31.680  13.109
18334W        W84743  25.693  18.695   1.753
18335W        W84744  22.659  28.892   1.920
18336W        W84745  31.107   1.724  11.051
18337W        W84746  20.110   7.867   2.077
18338W        W84747  43.527   6.864   2.834
18339W        W84748   4.867  35.880  13.945
18340W        W84749   3.216  31.508   2.503
18341W        W84750  21.645  14.369   2.251
18342W        W84751   7.849  19.160   2.842
18343W        W84752  21.191   0.186  13.706
18344W        W84753  35.254  21.542   0.875
18345W        W84754  20.700  20.986   3.726
18346W        W84755  21.774  32.556  12.883
18347W        W84756   2.493  24.384   1.794
18348W        W84757  14.241   4.703  11.263
18349W        W84758  17.102  30.497   2.686
18350W        W84759   0.372  41.079   0.795
18351W        W84760  30.971  13.323   0.922
18352W        W84761  26.125  16.161   1.415
18353W        W84762  22.053  26.348   4.095
18354W        W84763  37.960   3.773   0.409
18355W        W84764  44.242  12.370  10.677
18356W        W84765  14.671  13.574   0.179
18357W        W84766  23.534  28.798   4.150
18358W        W84767  17.199  20.769   0.416
18359W        W84768  24.739  40.045   2.344
18360W        W84769  15.863  22.381  12.365
18361W        W84770  12.449  24.796  12.625
18362W        W84771  12.703   5.938   4.081
18363W        W84772  26.063   4.065   3.764
18364W        W84773  24.490  41.350  11.591
18365W        W84774  40.888  41.958  14.134
18366W        W84775  16.745   5.745  10.663
18367W        W84776  20.984   7.359  10.727
18368W        W84777  32.953  24.565   3.493
18369W        W84778  36.548  43.935  14.513
18370W        W84779  34.991   0.731   3.784
18371W        W84780   8.871  22.216   4.193
18372W        W84781  34.411  29.180  13.394
18373W        W84782  16.673   3.030   0.477
18374W        W84783  40.387   0.465   1.367
18375W        W84784  25.385  14.606  11.078
18376W        W84785  25.824  10.265   5.137
18377W        W84786  34.508   9.648   2.828
18378W        W84787  17.267  33.063   1.384
18379W        W84788  31.497  25.918  11.643
18380W        W84789  21.143  34.062   1.428
18381W        W84790  16.619  39.119  11.877
18382W        W84791   5.469  42.608   0.965
18383W        W84792  35.576  35.375  14.513
18384W        W84793  13.233  20.810   0.849
18385W        W84794  14.167  24.028   4.119
18386W        W84795   0.011  27.202  13.528
18387W        W84796  42.448  40.758   3.207
18388W        W84797  12.530  40.092  12.465
18389W        W84798  16.658   7.334  13.400
18390W        W84799   8.742  13.099   0.905
18391W        W84800  39.924   0.137   0.166
18392W        W84801  16.041  27.033  10.727
18393W        W84802  44.229  24.636   1.850
18394W        W84803   2.116  13.310  14.812
18395W        W84804  13.789  23.655   4.134
18396W        W84805  40.441  34.871   4.045
18397W        W84806  10.707  39.710   2.712
18398W        W84807  20.201  35.249   4.312
18399W        W84808   0.614   0.901   2.094
18400W        W84809  37.851  14.301  13.084
18401W        W84810  42.631   0.396   4.310
18402W        W84811   6.115  23.631   4.008
18403W        W84812   7.494  37.054  11.060
18404W        W84813  33.578  15.714  12.543
18405W        W84814  15.307   6.718  13.820
18406W        W84815   2.283   0.463   0.800
18407W        W84816  33.227   3.081  13.946
18408W        W84817  23.039   2.891   1.870
18409W        W84818   1.352  28.672  14.534
18410W        W84819  36.389  36.111   4.024
18411W        W84820  42.295  23.317   3.090
18412W        W84821  35.307  21.191   3.438
18413W        W84822  26.966   0.683   9.788
18414W        W84823  28.475  12.837   3.318
18415W        W84824  32.113  34.806   4.237
18416W        W84825  37.551  16.555  13.270
18417W        W84826   9.906  12.693   1.278
18418W        W84827  43.493  43.488  10.728
18419W        W84828   1.727  32.488   4.559
18420W        W84829  36.586  30.752   4.214
18421W        W84830  38.356  37.782   4.182
18422W        W84831  23.898  19.292   3.033
18423W        W84832  32.771  44.136  11.889
18424W        W84833   2.471   5.145  11.630
18425W        W84834  33.155  22.105  11.126
18426W        W84835  34.515  41.031   2.832
18427W        W84836  43.225  34.530   1.428
18428W        W84837  42.844   6.103  12.818
18429W        W84838  29.105  24.537  10.713
18430W        W84839  17.858  32.916   1.757
18431W        W84840  42.406   8.462   2.060
18432W        W84841  31.149  29.677  11.249
18433W        W84842   2.542   0.744  13.430
18434W        W84843  20.150  17.910  11.134
18435W        W84844   4.233  32.354   2.182
18436W        W84845  38.575  12.639  14.515
18437W        W84846   6.162   1.181  14.434
18438W        W84847   1.294  40.595   3.224
18439W        W84848  15.177  37.797  14.901
18440W        W84849  44.612  17.034  12.447
18441W        W84850   3.918  38.344   0.439
18442W        W84851  20.562  13.811  14.124
18443W        W84852  12.123  24.998   1.890
18444W        W84853  21.972  25.518   0.308
18445W        W84854   6.947  10.093  12.869
18446W        W84855  31.478  31.981  13.038
18447W        W84856   1.646  17.177   4.513
18448W        W84857  38.537   2.453   1.339
18449W        W84858  33.359  37.407   3.278
18450W        W84859  29.527  16.092  11.046
18451W        W84860  23.721   9.779   2.365
18452W        W84861  35.608  43.274  10.812
18453W        W84862  12.202   3.173   4.611
18454W        W84863  18.661   9.134   2.716
18455W        W84864  33.534  14.582   0.627
18456W        W84865  20.111  16.600  12.101
18457W        W84866  20.810   2.348   1.689
18458W        W84867   4.223   6.751  11.484
18459W        W84868  33.585   3.568   3.508
18460W        W84869  43.048   9.776   1.640
18461W        W84870  19.660  28.090  11.185
18462W        W84871   0.819   4.644   3.600
18463W        W84872  32.337  12.593  14.534
18464W        W84873  29.421  15.239   2.674
18465W        W84874  18.040   7.411   2.945
18466W        W84875   1.506  33.437  12.489
18467W        W84876  31.670  20.236  10.678
18468W        W84877  35.035  16.646   1.968
18469W        W84878  38.604  14.738  10.580
18470W        W84879  32.663  42.908  12.182
18471W        W84880  31.960  15.619  14.994
18472W        W84881   8.624  21.787   4.578
18473W        W84882  27.916  24.006  14.810
18474W        W84883   0.825  36.342  12.522
18475W        W84884  21.470  22.204   4.804
18476W        W84885   3.317   3.953   4.214
18477W        W84886  44.255  12.849  10.875
18478W        W84887   4.867   2.003  14.095
18479W        W84888  35.893  16.907   2.018
18480W        W84889  18.330  11.840   3.190
18481W        W84890   3.990  13.483  13.424
18482W        W84891  37.419   4.300  12.099
18483W        W84892  20.261  12.966  12.832
18484W        W84893  13.696  10.073  12.028
18485W        W84894  20.483  33.156   2.891
18486W        W84895  32.762  25.937   2.828
18487W        W84896  19.618   2.032  12.897
18488W        W84897  40.954   9.345  13.278
18489W        W84898   0.928  28.731  11.086
18490W        W84899  12.333  25.061  13.960
18491W        W84900  41.082  20.111  10.717
18492W        W84901  41.542  29.187  14.700
18493W        W84902  10.285  33.360   4.918
18494W        W84903   8.462  38.726  11.161
18495W        W84904   4.920  38.815  10.636
18496W        W84905   4.845  19.661   4.406
18497W        W84906  21.932  27.481   3.611
18498W        W84907  40.042  39.387  14.934
18499W        W84908  25.559  40.346   0.600
18500W        W84909  20.319  12.055  13.797
18501W        W84910  21.708  31.733   3.689
18502W        W84911  44.880   0.595   4.227
18503W        W84912   0.644   6.714  12.082
18504W        W84913  44.161  35.004  12.268
18505W        W84914   1.534  13.514   0.442
18506W        W84915  16.075   8.898  11.708
18507W        W84916  22.387   7.665   2.721
18508W        W84917  38.071   6.375  10.767
18509W        W84918  25.157  19.986  13.411
18510W        W84919  44.723  42.215   2.329
18511W        W84920  27.913  28.880  14.180
18512W        W84921  29.519   3.848   3.656
18513W        W84922  37.583  15.661  11.858
18514W        W84923  21.672  33.396  13.742
18515W        W84924  35.115  33.060   2.509
18516W        W84925   3.903  33.114   0.798
18517W        W84926  12.254  32.179   2.721
18518W        W84927   7.044   3.683   4.901
18519W        W84928  16.492   9.292   0.617
18520W        W84929  12.874  15.595   0.252
18521W        W84930   1.024  10.387  10.824
18522W        W84931  12.618  31.412  11.076
18523W        W84932  38.602  42.939   0.002
18524W        W84933  28.580  44.966   1.409
18525W        W84934  10.789   2.201   4.973
18526W        W84935   9.627  40.353  13.365
18527W        W84936  41.039  37.518   2.207
18528W        W84937   2.720  35.679  12.746
18529W        W84938  36.021  27.670   4.267
18530W        W84939  12.285  38.952  13.610
18531W        W84940   0.019  36.886   3.108
18532W        W84941  11.294  43.987   4.968
18533W        W84942  42.840  22.632   0.198
18534W        W84943  40.303  40.239  14.325
18535W        W84944  11.219  33.578   0.523
18536W        W84945   3.084  22.544   4.064
18537W        W84946  30.442  44.726   4.767
18538W        W84947  42.721   5.621  12.034
18539W        W84948  33.053  39.780   1.166
18540W        W84949  32.498   1.857  10.345
18541W        W84950  14.431  44.016  14.922
18542W        W84951  38.697  38.136  10.693
18543W        W84952  24.868   0.745   4.507
18544W        W84953  21.457  33.100   3.334
18545W        W84954  24.962  37.434  11.626
18546W        W84955  19.291  19.019   3.579
18547W        W84956  28.569  11.119  14.405
18548W        W84957  14.185   8.478  12.415
18549W        W84958  19.328  23.088  11.002
18550W        W84959  13.003  42.017  13.460
18551W        W84960  40.910  16.549  14.181
18552W        W84961  42.889  17.842   2.593
18553W        W84962  14.328  32.032   3.682
18554W        W84963  31.580  22.711   2.728
18555W        W84964  23.182  12.799  14.411
18556W        W84965  15.472  13.527   2.825
18557W        W84966  41.999  33.162   3.648
18558W        W84967  43.848  30.438   0.429
18559W        W84968   8.390  32.959  12.086
18560W        W84969  12.283   7.498  12.375
18561W        W84970  13.295  34.885  11.186
18562W        W84971  35.110   5.701  13.110
18563W        W84972  22.751  20.830  10.169
18564W        W84973  30.573  32.539  11.253
18565W        W84974  30.535  28.562   3.979
18566W        W84975  34.567  21.584   4.637
18567W        W84976  17.407  38.500   4.631
18568W        W84977  28.246  18.545  13.698
18569W        W84978  17.210  10.234   0.367
18570W        W84979  29.030  15.851   0.324
18571W        W84980  16.941  36.405  14.215
18572W        W84981   9.616  23.445  12.895
18573W        W84982  17.777  19.185  13.763
18574W        W84983   7.270  21.397  12.450
18575W        W84984  32.437  33.025   3.016
18576W        W84985  28.403  36.503  11.619
18577W        W84986  16.007  29.699   0.872
18578W        W84987  39.106  27.662   4.102
18579W        W84988   3.246  44.536   0.336
18580W        W84989   5.189  20.490  12.500
18581W        W84990  34.248  25.582   1.584
18582W        W84991  28.590  24.772   1.440
18583W        W84992  28.373   3.416   4.492
18584W        W84993   0.260   3.803   0.112
18585W        W84994  23.578  21.673   3.716
18586W        W84995  34.894   5.977   4.976
18587W        W84996  25.690  19.160  12.596
18588W        W84997  29.023  11.154  12.403
18589W        W84998  14.373  29.045  14.060
18590W        W84999  25.618   6.409   5.063
18591W        W85000  20.234  39.315  13.304
18592W        W85001  17.844  30.590  10.679
18593W        W85002  18.850   2.062  11.052
18594W        W85003  40.023   8.276  13.820
18595W        W85004  34.625  32.481  12.181
18596W        W85005   3.953  36.134  14.713
18597W        W85006   6.452  29.127   4.455
18598W        W85007   2.744  39.271  14.778
18599W        W85008  10.693  36.567  14.746
18600W        W85009  21.145  22.148  12.466
18601W        W85010  17.843  39.254   2.725
18602W        W85011   9.324  38.287  13.819
18603W        W85012  35.431  31.697  11.667
18604W        W85013  21.141   5.733  13.520
18605W        W85014  44.337  21.452  13.507
18606W        W85015  32.051  30.781   1.298
18607W        W85016  11.215  22.077   2.909
18608W        W85017  12.543   6.129   2.784
18609W        W85018  17.438   7.642  12.950
18610W        W85019  33.278  28.714  12.869
18611W        W85020  10.696  41.074   2.275
18612W        W85021   7.276   1.711  13.670
18613W        W85022  22.513  34.966   2.614
18614W        W85023  40.981  12.757  14.336
18615W        W85024  16.106  10.448   1.863
18616W        W85025  13.801   7.833  13.065
18617W        W85026  42.143  12.676   4.798
18618W        W85027  19.211  21.207   2.491
18619W        W85028  42.824  39.422   2.387
18620W        W85029   7.395   2.213   2.304
18621W        W85030  25.193   1.338   1.327
18622W        W85031  41.668  33.489  10.289
18623W        W85032  34.110   7.350   1.386
18624W        W85033  14.857  29.733   0.480
18625W        W85034  33.895  37.933  14.581
18626W        W85035  31.605  22.454   0.286
18627W        W85036  25.856   9.557   1.392
18628W        W85037  25.696  12.349  10.245
18629W        W85038  14.946  29.935  12.060
18630W        W85039  38.557  37.083   1.687
18631W        W85040   7.023  10.739  10.560
18632W        W85041   7.284  12.601  12.425
18633W        W85042  24.506  40.483   2.193
18634W        W85043  22.785  44.462   4.590
18635W        W85044   2.376  15.905  11.747
18636W        W85045   2.337   2.216   1.432
18637W        W85046  26.093  35.384   0.223
18638W        W85047  19.609  23.949   1.309
18639W        W85048  39.040  33.558   3.182
18640W        W85049  41.022  17.229   1.166
18641W        W85050  12.798   5.354  13.480
18642W        W85051  24.487  18.817  13.487
18643W        W85052  10.639  40.100   1.284
18644W        W85053   5.692  26.443  12.875
18645W        W85054  38.162  15.232   5.334
18646W        W85055  18.516  21.913   1.407
18647W        W85056  18.252  24.996  11.723
18648W        W85057   5.207  36.086   2.856
18649W        W85058  27.216  17.694  12.465
18650W        W85059  17.261  11.079   3.708
18651W        W85060  30.600  33.017  10.705
18652W        W85061  11.144  29.682  14.323
18653W        W85062  11.723  24.076  13.930
18654W        W85063  10.346  36.379  11.887
18655W        W85064   3.728  20.767  10.342
18656W        W85065  10.895   9.895  11.593
18657W        W85066  12.333  24.712   3.597
18658W        W85067  20.185   6.583   0.961
18659W        W85068  28.303  13.291  12.453
18660W        W85069   4.085  23.208   2.028
18661W        W85070  41.857  23.711  13.289
18662W        W85071  35.807  31.365  11.492
18663W        W85072   5.157  22.619   0.732
18664W        W85073   4.423  33.794   1.443
18665W        W85074  38.934   8.905   4.682
18666W        W85075  27.850  39.040   2.275
18667W        W85076   9.829  12.137  12.564
18668W        W85077  32.938   7.305  14.250
18669W        W85078   6.452  32.527   1.830
18670W        W85079   2.500  28.136   1.960
18671W        W85080  42.479  21.695   0.379
18672W        W85081  43.800  43.037   4.843
18673W        W85082   4.430  32.890   1.028
18674W        W85083   7.945  10.221  14.312
18675W        W85084  36.418   5.255   1.427
18676W        W85085  39.417  17.504  12.299
18677W        W85086   7.660  34.076   1.635
18678W        W85087  16.620  37.109   2.513
18679W        W85088   0.046  27.020  14.825
18680W        W85089   3.174   9.084  11.218
18681W        W85090  10.309  25.256  11.062
18682W        W85091  34.039   1.062   0.878
18683W        W85092  36.885  12.958  10.809
18684W        W85093  34.007  17.906   3.563
18685W        W85094  26.618   8.422  11.944
18686W        W85095   2.849   7.931  12.601
18687W        W85096  12.651  31.546   3.538
18688W        W85097  21.931   8.978  11.140
18689W        W85098  17.762  22.219   3.469
18690W        W85099  39.006  30.836  14.257
18691W        W85100   2.195   8.901   3.943
18692W        W85101  11.803  13.354   3.654
18693W        W85102   7.690   3.195   0.442
18694W        W85103   1.953  21.556  13.542
18695W        W85104  22.733  38.888  11.063
18696W        W85105  32.941  30.069  13.488
18697W        W85106  17.086   8.677   1.906
18698W        W85107  40.001   2.371   1.201
18699W        W85108  14.681  27.719   4.500
18700W        W85109  13.585  18.465   3.142
18701W        W85110  36.123  10.794  12.427
18702W        W85111  22.688  15.545  14.383
18703W        W85112   0.968  16.187   1.696
18704W        W85113  26.239   0.603  11.038
18705W        W85114  28.526   5.854   0.904
18706W        W85115  38.502   7.919   1.729
18707W        W85116  39.311  38.576   3.704
18708W        W85117   7.966  19.192   1.875
18709W        W85118  15.509  24.522  13.492
18710W        W85119   5.956   6.073  11.373
18711W        W85120  27.327  40.536   3.060
18712W        W85121  41.152  32.903  11.975
18713W        W85122  26.665  12.190   2.013
18714W        W85123   6.464   4.378  11.211
18715W        W85124  33.883  30.674  13.356
18716W        W85125   2.659   5.905  12.597
18717W        W85126  26.404  27.099  12.591
18718W        W85127   4.695  28.026  14.034
18719W        W85128  20.018   3.797   0.865
18720W        W85129  17.137   2.888   3.412
18721W        W85130  38.044  36.554  11.612
18722W        W85131  11.570  35.986   4.093
18723W        W85132   0.375  19.936   3.247
18724W        W85133   5.799  11.891   4.597
18725W        W85134  38.811  33.006  12.569
18726W        W85135  14.918  16.638  11.461
18727W        W85136  32.094  31.424  10.661
18728W        W85137  28.662  14.262  11.508
18729W        W85138  38.398  42.962   2.420
18730W        W85139  42.890  25.413  12.128
18731W        W85140  19.083  36.931  11.565
18732W        W85141  20.053  28.658   2.614
18733W        W85142  42.464   5.623  12.476
18734W        W85143   0.437  29.022   4.154
18735W        W85144  12.169  32.247  11.048
18736W        W85145  40.501  24.210  13.070
18737W        W85146  40.888  29.458   4.827
18738W        W85147  23.121  35.624  14.100
18739W        W85148  30.603  32.102   3.587
18740W        W85149  29.491  32.024  14.387
18741W        W85150  17.752  19.041   0.442
18742W        W85151  22.137  22.515  12.677
18743W        W85152  18.436  20.294  12.494
18744W        W85153  20.235  27.429  13.480
18745W        W85154  40.621  27.539   0.421
18746W        W85155  16.766  31.188   3.828
18747W        W85156  35.494  16.548  13.361
18748W        W85157  14.276  21.967   2.243
18749W        W85158  13.631  27.428   4.003
18750W        W85159  23.931  16.740  12.526
18751W        W85160  24.411  25.592   2.391
18752W        W85161  43.824  24.509  13.391
18753W        W85162  37.995  12.060  11.661
18754W        W85163  16.494  18.769   0.957
18755W        W85164   8.340  23.982  12.499
18756W        W85165  26.738  35.934   0.259
18757W        W85166   9.282   7.332   1.867
18758W        W85167   8.787  40.786  14.527
18759W        W85168  39.434   6.524  13.974
18760W        W85169  25.204   3.782  12.164
18761W        W85170  10.815  31.226   2.245
18762W        W85171  40.948  15.667  11.664
18763W        W85172   6.579  14.879   4.209
18764W        W85173  17.388  19.320   3.702
18765W        W85174  10.077   8.057  14.578
18766W        W85175  27.875  42.761   0.386
18767W        W85176   8.091  33.858   1.836
18768W        W85177   0.915  30.653   2.711
18769W        W85178   1.066  23.668  10.849
18770W        W85179  40.386  21.948  13.366
18771W        W85180  14.604  22.738  11.970
18772W        W85181   8.038  12.536   3.259
18773W        W85182  20.189   1.934  11.593
18774W        W85183  19.896  34.580   1.138
18775W        W85184  20.139   5.199  14.640
18776W        W85185  15.129  28.652   0.610
18777W        W85186  29.091  39.113   1.817
18778W        W85187  25.584   3.924  13.033
18779W        W85188   4.689   4.576   0.096
18780W        W85189   8.405   4.209   0.462
18781W        W85190  26.919  40.031   2.302
18782W        W85191   1.832  19.324   0.267
18783W        W85192  34.372  18.297   1.385
18784W        W85193   2.748  14.057  11.647
18785W        W85194  18.636  20.279   1.786
18786W        W85195   1.355  30.373  11.683
18787W        W85196   5.739   9.630   0.426
18788W        W85197   6.316  37.042  13.306
18789W        W85198  40.553  22.779   3.689
18790W        W85199  38.288  11.260   2.352
18791W        W85200   9.660  40.339   0.205
18792W        W85201  10.138  41.874   4.406
18793W        W85202   6.828  30.669  11.698
18794W        W85203  36.049  11.855   4.220
18795W        W85204  32.654   8.248  11.466
18796W        W85205  26.656  37.470   1.856
18797W        W85206   7.374  28.438   3.224
18798W        W85207  13.594  10.066  12.580
18799W        W85208  23.135  34.422   3.659
18800W        W85209  29.527  44.445   1.212
18801W        W85210   8.793  11.361   1.725
18802W        W85211  22.703  44.703  11.182
18803W        W85212  19.362   4.939  12.097
18804W        W85213   1.027  12.065   2.458
18805W        W85214  13.635   8.929   1.821
18806W        W85215  17.873  38.676  14.184
18807W        W85216   9.735  15.848  12.338
18808W        W85217  24.150  12.970   0.555
18809W        W85218  21.826  24.285  11.167
18810W        W85219  25.766  24.122   1.201
18811W        W85220  12.522   4.811  10.490
18812W        W85221  42.814   7.228   4.651
18813W        W85222  39.082  24.158  11.595
18814W        W85223  14.424  21.149   1.917
18815W        W85224  30.879  40.072  10.824
18816W        W85225  10.391   6.357  12.059
18817W        W85226  23.626  15.845   3.343
18818W        W85227  24.189  16.870  12.093
18819W        W85228  15.816  24.180   1.769
18820W        W85229  15.257  36.067   5.406
18821W        W85230   6.953  24.968  12.477
18822W        W85231   3.904  14.513   2.676
18823W        W85232   5.952  38.552   0.247
18824W        W85233  17.490   8.230   3.682
18825W        W85234  21.802  12.839   3.838
18826W        W85235  10.144  43.361   0.310
18827W        W85236  36.862  34.488   4.311
18828W        W85237   6.225  38.783   0.737
18829W        W85238  24.597  39.808   3.715
18830W        W85239  21.384  16.689  13.810
18831W        W85240  40.006  25.105  12.982
18832W        W85241  18.122   4.426  11.106
18833W        W85242  38.781  34.488   2.924
18834W        W85243  17.645  35.132   1.272
18835W        W85244  21.057  28.622   4.834
18836W        W85245  20.658  40.359  11.094
18837W        W85246   5.854  28.455   1.331
18838W        W85247  15.864   2.926  10.661
18839W        W85248  43.774  33.596   3.773
18840W        W85249  30.932   7.718   0.542
18841W        W85250   2.387  13.520   5.029
18842W        W85251  22.268   1.767  10.439
18843W        W85252   2.460  33.643   2.861
18844W        W85253  21.646   5.601   1.543
18845W        W85254   1.879   6.254  12.710
18846W        W85255   8.309   9.369  14.265
18847W        W85256  16.527   0.907   1.983
18848W        W85257  17.240  29.918  12.571
18849W        W85258  34.035  18.367  12.544
18850W        W85259  23.186  24.124   1.320
18851W        W85260  14.550  41.464  14.822
18852W        W85261  42.842  29.914  11.611
18853W        W85262  33.358  31.680  13.348
18854W        W85263   8.916   9.871  13.356
18855W        W85264  35.323  30.020  11.956
18856W        W85265  10.399  17.349  14.352
18857W        W85266  25.636  11.169   3.865
18858W        W85267  36.060  33.494  13.160
18859W        W85268  22.586  26.625   4.526
18860W        W85269  21.986   6.066  14.403
18861W        W85270  13.533  24.180  13.274
18862W        W85271  38.337  11.320   4.598
18863W        W85272  13.556  21.153  13.247
18864W        W85273   2.926  43.319  11.677
18865W        W85274  22.440  24.917  10.287
18866W        W85275   9.592  33.390  12.499
18867W        W85276  27.472  10.392  11.006
18868W        W85277  38.881  42.842  13.916
18869W        W85278  34.154  16.533   0.495
18870W        W85279  43.367  16.363   0.421
18871W        W85280  30.470  21.133   3.683
18872W        W85281  19.220  25.725  14.514
18873W        W85282  19.090   1.656   0.884
18874W        W85283  44.452  19.009   4.730
18875W        W85284  17.711  37.126  11.548
18876W        W85285  40.278   9.042   3.822
18877W        W85286  43.601  30.708   1.307
18878W        W85287  40.573  39.183   4.233
18879W        W85288  21.807  12.951  10.054
18880W        W85289  31.159  35.148  13.329
18881W        W85290  40.134  15.203  10.881
18882W        W85291   6.371  18.782  12.183
18883W        W85292   6.575  44.235  13.863
18884W        W85293  44.175  42.907   0.550
18885W        W85294   7.815  22.091  12.529
18886W        W85295  22.632  39.000   3.415
18887W        W85296  21.587  41.216  10.571
18888W        W85297  11.753  27.368   2.804
18889W        W85298  12.607  30.681  14.857
18890W        W85299  33.508  20.768  14.345
18891W        W85300  30.406  32.035  11.952
18892W        W85301   7.809  42.723  12.859
18893W        W85302   7.902  36.518   0.505
18894W        W85303  25.680   8.359  14.432
18895W        W85304  25.268  13.743  12.929
18896W        W85305  30.905  31.169  14.567
18897W        W85306  42.701  34.993   2.686
18898W        W85307   8.319  23.473  12.460
18899W        W85308  28.431  22.125   0.670
18900W        W85309  31.412   6.967  13.085
18901W        W85310   0.150  11.127  13.671
18902W        W85311  35.195  14.743   2.749
18903W        W85312  19.150  12.933   3.108
18904W        W85313  26.473  32.000   3.159
18905W        W85314  24.048  19.704   2.304
18906W        W85315  38.499  19.680   1.253
18907W        W85316  16.326   7.384   1.359
18908W        W85317  32.443  13.955  11.045
18909W        W85318  17.224  39.346  14.840
18910W        W85319  17.068  32.480  11.732
18911W        W85320  13.438   2.542   2.414
18912W        W85321  35.086  33.264  14.699
18913W        W85322  27.668   2.929  14.573
18914W        W85323  25.264  19.678  11.901
18915W        W85324  24.195   8.859  12.057
18916W        W85325   7.364  12.104   0.688
18917W        W85326  14.560  29.076   1.900
18918W        W85327   0.500  28.607  14.934
18919W        W85328  26.622  44.360  10.784
18920W        W85329  19.543  11.708  13.897
18921W        W85330  18.007  25.413   0.975
18922W        W85331  13.638  44.687  13.087
18923W        W85332  15.684  28.529  12.938
18924W        W85333  14.046  41.522   4.569
18925W        W85334  30.105  35.436   1.670
18926W        W85335  41.423  28.649   3.917
18927W        W85336  41.121  41.430  13.470
18928W        W85337   2.816   1.104  10.510
18929W        W85338  10.948  28.399  14.899
18930W        W85339  38.762   7.568   0.455
18931W        W85340  15.728  28.101   1.638
18932W        W85341  17.860  13.856   2.742
18933W        W85342  44.456   3.490  14.251
18934W        W85343  35.434  40.966  10.724
18935W        W85344   7.771  25.625   1.878
18936W        W85345  43.918  37.660  10.292
18937W        W85346  13.171  26.916  12.959
18938W        W85347   4.454   1.816  10.784
18939W        W85348  24.795  14.167   2.183
18940W        W85349  30.615  44.633  13.799
18941W        W85350  39.879  21.854   3.610
18942W        W85351  36.010  27.146  13.617
18943W        W85352  41.824  35.584   4.152
18944W        W85353  30.899  37.470  12.470
18945W        W85354  20.788   8.298  12.872
18946W        W85355  37.389  24.986   9.863
18947W        W85356   7.643  18.683  14.371
18948W        W85357   1.606  39.050  13.520
18949W        W85358  22.199  12.584  11.059
18950W        W85359  34.742  13.610   0.976
18951W        W85360  43.356   2.286  11.211
18952W        W85361  30.902  26.499   0.877
18953W        W85362  16.754   8.993   4.545
18954W        W85363  44.210  37.910  13.809
18955W        W85364  15.898   7.947   2.450
18956W        W85365   1.974  19.781   1.654
18957W        W85366  37.816  20.720  14.412
18958W        W85367   7.915  15.280   3.208
18959W        W85368   4.443   7.280   4.345
18960W        W85369  20.972  12.050   3.085
18961W        W85370  22.190  41.081   2.778
18962W        W85371  44.097  42.647  11.626
18963W        W85372  12.337  39.577  11.665
18964W        W85373  16.157  10.359  14.520
18965W        W85374  35.026  34.192  13.487
18966W        W85375  31.138  36.840  14.928
18967W        W85376  21.576  39.829   2.825
18968W        W85377  44.424  33.768  12.189
18969W        W85378  15.316  32.434   1.272
18970W        W85379  10.721  41.653   1.440
18971W        W85380  30.556  24.738   1.899
18972W        W85381  21.308  24.080  11.715
18973W        W85382  14.250  43.425   1.776
18974W        W85383  30.386  36.975  13.892
18975W        W85384  16.187  11.476  11.518
18976W        W85385  44.849  38.747   3.169
18977W        W85386  39.227  37.318  13.296
18978W        W85387   5.956  36.010  12.857
18979W        W85388  42.115  12.773   1.883
18980W        W85389  13.655  31.901  10.195
18981W        W85390  28.035   5.261   0.238
18982W        W85391  33.955  25.087  14.352
18983W        W85392  24.455   8.323   0.541
18984W        W85393   6.794   6.622   3.255
18985W        W85394   4.051  14.217  14.154
18986W        W85395  14.931  26.527   3.059
18987W        W85396  15.081  42.920   0.068
18988W        W85397   3.904  21.431  11.930
18989W        W85398  34.513  24.602   1.688
18990W        W85399  22.002  34.387  12.003
18991W        W85400   1.367  26.160  10.770
18992W        W85401  30.566  24.268   2.783
18993W        W85402  24.801  28.092  11.120
18994W        W85403  37.113  31.193   1.846
18995W        W85404  41.742  21.342  13.889
18996W        W85405   6.380  43.030   2.981
18997W        W85406  26.734  27.206   3.626
18998W        W85407  21.050  11.117   3.806
18999W        W85408  19.500  38.518  12.240
19000W        W85409  39.520  18.102   1.150
19001W        W85410  35.264  36.126  14.837
19002W        W85411   4.502  38.318   1.348
19003W        W85412  15.824  37.021   0.414
19004W        W85413  18.048   5.770   1.655
19005W        W85414  17.745  37.361  11.996
19006W        W85415   7.818  42.965   0.670
19007W        W85416   8.792  27.993  14.848
19008W        W85417  15.747   2.643   1.541
19009W        W85418  12.803   6.439  14.499
19010W        W85419  20.462  14.111   0.774
19011W        W85420  11.642  27.049  14.773
19012W        W85421  42.533  21.669  14.015
19013W        W85422  21.000  20.250   4.487
19014W        W85423  38.076   9.207   1.333
19015W        W85424  33.603  12.155   4.500
19016W        W85425  25.856  37.980  10.717
19017W        W85426  17.662  14.392  13.004
19018W        W85427  10.354   9.861  11.660
19019W        W85428   1.543  29.112  12.784
19020W        W85429  18.220  22.976  10.875
19021W        W85430  19.965   1.988  14.632
19022W        W85431  18.023  22.161  14.762
19023W        W85432   9.571  36.540  13.504
19024W        W85433  10.821   7.330  11.536
19025W        W85434  12.261  35.866   0.872
19026W        W85435  14.865   1.055  13.109
19027W        W85436  15.348  17.160  12.997
19028W        W85437   3.690  31.867  13.021
19029W        W85438  39.218  32.917  10.816
19030W        W85439  23.508  30.452   1.220
19031W        W85440  27.058  35.913   1.806
19032W        W85441  22.977  17.505  11.672
19033W        W85442  17.089  34.098   4.750
19034W        W85443   8.298  34.088   3.796
19035W        W85444  12.686   0.621   3.320
19036W        W85445  24.529  39.556   4.167
19037W        W85446  38.961  38.410  11.169
19038W        W85447   8.774   1.792   5.008
19039W        W85448   1.644  20.281  13.636
19040W        W85449  35.957  24.470  14.706
19041W        W85450  17.086  12.797   1.966
19042W        W85451  18.372  37.808  13.037
19043W        W85452  17.300  26.596  10.907
19044W        W85453   0.740  14.717  14.278
19045W        W85454  40.878   7.675   1.355
19046W        W85455  31.939  10.647   3.337
19047W        W85456  30.183  23.708  11.524
19048W        W85457  21.650   1.753   3.584
19049W        W85458   6.853  26.747   2.835
19050W        W85459  39.338  16.568   4.519
19051W        W85460  33.512  34.977  11.652
19052W        W85461  21.545  10.729   1.214
19053W        W85462   6.680  18.141   4.816
19054W        W85463  24.730  11.190  12.116
19055W        W85464   2.906  27.276   3.359
19056W        W85465  19.185   1.234   0.014
19057W        W85466  36.456   1.401  11.193
19058W        W85467  20.576  33.880  13.323
19059W        W85468  32.757   4.841  11.540
19060W        W85469  41.573   8.174   4.737
19061W        W85470  11.600  31.137   0.200
19062W        W85471  20.328  44.465  11.151
19063W        W85472  35.316   1.091   2.889
19064W        W85473  13.376  31.034  11.438
19065W        W85474  34.148  31.595  11.217
19066W        W85475  34.939  14.366  14.451
19067W        W85476  17.837  27.619  12.575
19068W        W85477   9.877  28.132   0.009
19069W        W85478  25.148   7.421   3.643
19070W        W85479  21.206  23.491  10.608
19071W        W85480  24.467  41.525   1.383
19072W        W85481  30.479  13.386   0.459
19073W        W85482   1.083   3.261  13.572
19074W        W85483  23.505  12.823  13.466
19075W        W85484  17.176  28.051   1.763
19076W        W85485   2.216   5.375  13.809
19077W        W85486  44.514  32.982  13.478
19078W        W85487  43.248  32.647  11.518
19079W        W85488  16.093   2.520  14.982
19080W        W85489  22.893   4.358   1.286
19081W        W85490  10.263  34.273  10.651
19082W        W85491  13.525   1.183   1.323
19083W        W85492  16.233   5.838   3.890
19084W        W85493  33.635   4.380   1.300
19085W        W85494  26.067  35.966   2.522
19086W        W85495   9.087  43.270  14.435
19087W        W85496  27.647  42.860  13.174
19088W        W85497  32.321  15.821   3.558
19089W        W85498  18.613   7.445   1.800
19090W        W85499  27.657  25.601   1.266
19091W        W85500  37.691  30.120  13.952
19092W        W85501  40.502   9.718  14.421
19093W        W85502   6.718  23.464   1.861
19094W        W85503  16.707   4.241  13.719
19095W        W85504  35.921  18.881  14.509
19096W        W85505   4.998  15.224   4.002
19097W        W85506   2.770  40.546   0.755
19098W        W85507  30.454  15.755   0.456
19099W        W85508  25.998  17.860  10.789
19100W        W85509  30.332  33.018   0.473
19101W        W85510  17.203  13.677   0.284
19102W        W85511  25.040   4.585   5.143
19103W        W85512  22.299   2.471  12.001
19104W        W85513   0.761   8.274  11.934
19105W        W85514   1.925  31.112   2.497
19106W        W85515  40.079   4.793   2.302
19107W        W85516  27.226   9.870  10.398
19108W        W85517  27.946  24.520  13.384
19109W        W85518  38.476  36.305   3.320
19110W        W85519  22.555  39.947   2.840
19111W        W85520  36.677  18.558  12.222
19112W        W85521  15.843  35.890  10.216
19113W        W85522  29.934  12.064  13.924
19114W        W85523  28.894  37.736   3.185
19115W        W85524  31.597  34.681   0.475
19116W        W85525  34.339  20.033   1.818
19117W        W85526   8.303   3.863   3.171
19118W        W85527  28.849   0.134  13.275
19119W        W85528  26.620   2.860   0.773
19120W        W85529  20.572   7.006  13.365
19121W        W85530  43.588  19.185   1.212
19122W        W85531  25.440  18.318  10.274
19123W        W85532  34.138   9.706  10.504
19124W        W85533   0.659   8.672   2.265
19125W        W85534  16.137   5.942  13.443
19126W        W85535  13.508   8.139  10.675
19127W        W85536  32.905   0.897  13.558
19128W        W85537  25.766  28.111   2.829
19129W        W85538  27.984  39.855   3.501
19130W        W85539  38.505  15.084  13.775
19131W        W85540  14.317  41.371   3.163
19132W        W85541  44.862  28.674  11.947
19133W        W85542  21.346  34.550   1.434
19134W        W85543  35.072  12.319   1.332
19135W        W85544   2.773   8.154   1.570
19136W        W85545  33.932  31.881   3.248
19137W        W85546   1.250   5.819   3.348
19138W        W85547  26.492  43.408  11.274
19139W        W85548  27.537  39.254   0.057
19140W        W85549  35.986  18.651   0.380
19141W        W85550  36.442   8.675  12.946
19142W        W85551  14.198   8.840  10.652
19143W        W85552  34.063  29.509   4.608
19144W        W85553  29.890  16.736   0.865
19145W        W85554  20.655  33.359  10.706
19146W        W85555  25.152  22.580   3.644
19147W        W85556  36.383  10.829  14.178
19148W        W85557  42.332  19.704   4.408
19149W        W85558  30.416  13.893   1.351
19150W        W85559  30.647   5.799  10.680
19151W        W85560  39.797  40.223  12.698
19152W        W85561  20.449   2.188  11.965
19153W        W85562  13.883  42.753  12.184
19154W        W85563  25.790  26.991   4.982
19155W        W85564   6.370  19.442  14.014
19156W        W85565  14.680  10.391   0.650
19157W        W85566  41.404  18.341   0.138
19158W        W85567  36.637  23.894   0.264
19159W        W85568   0.991   2.019  11.598
19160W        W85569  18.569  12.467  13.605
19161W        W85570   2.454   4.923   4.579
19162W        W85571   0.765  27.971  13.431
19163W        W85572  33.650  27.854   1.769
19164W        W85573  41.628  37.325  13.518
19165W        W85574  22.152  23.801  12.862
19166W        W85575  34.601  16.105   3.901
19167W        W85576  43.659  39.680   0.262
19168W        W85577  43.526   3.259  10.515
19169W        W85578   5.828  29.946   4.552
19170W        W85579  32.104  44.679   0.687
19171W        W85580  14.357   3.186  14.320
19172W        W85581  11.257   0.997   2.291
19173W        W85582   3.801  13.672   0.647
19174W        W85583  30.189   0.405  12.088
19175W        W85584  44.264   7.220   2.938
19176W        W85585  39.864   3.253   4.806
19177W        W85586  29.519  15.606  11.204
19178W        W85587   2.904   5.677   2.699
19179W        W85588  44.473  38.862  14.105
19180W        W85589  35.847  40.373  12.954
19181W        W85590  30.528   1.910  12.067
19182W        W85591  13.691  19.301  14.354
19183W        W85592  22.221  38.302   2.950
19184W        W85593  35.095   7.714  12.631
19185W        W85594   9.617  29.315  13.719
19186W        W85595  42.403  18.689  14.262
19187W        W85596  23.432   1.176   3.894
19188W        W85597  36.850  17.140  13.855
19189W        W85598  24.503  40.519   1.329
19190W        W85599   4.959  21.421   1.703
19191W        W85600  10.766  18.174  14.296
19192W        W85601   1.802  40.280   0.911
19193W        W85602   5.338   2.682  10.430
19194W        W85603  21.560  17.043   3.053
19195W        W85604  32.304   4.880  12.453
19196W        W85605  35.618  12.825  11.979
19197W        W85606  42.559  20.609   1.004
19198W        W85607  16.012   0.901  10.543
19199W        W85608  24.992  15.553   3.676
19200W        W85609  32.129  14.265  14.552
19201W        W85610  29.693  19.094   3.285
19202W        W85611  39.975  11.308  13.997
19203W        W85612  16.128  11.738   4.901
19204W        W85613  44.821  11.655   2.846
19205W        W85614  12.289  10.603  12.110
19206W        W85615  37.504  18.686  11.240
19207W        W85616  25.981  41.871  14.791
19208W        W85617  36.020   2.476   3.895
19209W        W85618   6.488  40.687   1.847
19210W        W85619  30.704  35.746  14.481
19211W        W85620  42.958  27.548   3.303
19212W        W85621  26.119  22.455   2.687
19213W        W85622   2.272   8.930  14.778
19214W        W85623   3.205  35.813   1.840
19215W        W85624  33.559  29.542  13.124
19216W        W85625  29.844  42.999  12.363
19217W        W85626  30.176  13.244  10.833
19218W        W85627  32.812   0.296   2.769
19219W        W85628  27.050   9.958  14.771
19220W        W85629  27.088  15.778  11.573
19221W        W85630   5.410   8.703  11.498
19222W        W85631  30.189   5.797   4.103
19223W        W85632  21.602  12.909   2.190
19224W        W85633  43.563  34.609   2.727
19225W        W85634  42.790  43.255  11.255
19226W        W85635   2.292  33.439   4.799
19227W        W85636   9.358  24.822   3.150
19228W        W85637  21.660  32.022   1.032
19229W        W85638   4.829  29.217  12.342
19230W        W85639  44.579   9.119   0.055
19231W        W85640  16.812  15.781  12.505
19232W        W85641  42.942  14.154   1.835
19233W        W85642   0.626  16.072  14.775
19234W        W85643  15.181   9.369  12.644
19235W        W85644  17.573  33.266  12.966
19236W        W85645  20.696   9.204  13.577
19237W        W85646  39.356  41.976  11.574
19238W        W85647   4.537   7.116   4.862
19239W        W85648   7.729  44.696   0.508
19240W        W85649  32.331  24.629  12.132
19241W        W85650  19.484  44.352  14.985
19242W        W85651  36.817  26.204  12.047
19243W        W85652   7.936  35.605  14.311
19244W        W85653  20.818  30.992   2.960
19245W        W85654  18.250  11.888  11.371
19246W        W85655  43.219   1.432   0.454
19247W        W85656  44.229   6.775   2.175
19248W        W85657  29.538  36.866   3.358
19249W        W85658  38.849  33.979  14.893
19250W        W85659   3.964   9.605   2.436
19251W        W85660  39.797  10.572   4.706
19252W        W85661  34.069  34.307  13.089
19253W        W85662   8.094  26.505   1.263
19254W        W85663  29.851  27.156  11.133
19255W        W85664  27.666  24.542  14.852
19256W        W85665  37.433  29.237  12.482
19257W        W85666  29.734  19.610   3.446
19258W        W85667   0.792  30.321   3.075
19259W        W85668  10.820  34.404  12.433
19260W        W85669  38.669  14.582   3.173
19261W        W85670  44.943   6.658   2.949
19262W        W85671  26.947  23.515   0.925
19263W        W85672  37.010   1.831  13.631
19264W        W85673  17.192  24.721  12.856
19265W        W85674  14.895  37.786  13.384
19266W        W85675  38.517   1.003   2.342
19267W        W85676  34.611   5.266  12.417
19268W        W85677   8.222  43.124  10.928
19269W        W85678  13.005  10.913  13.873
19270W        W85679  26.086  16.030   4.363
19271W        W85680  16.812   6.208   0.419
19272W        W85681  33.066   4.810  12.818
19273W        W85682  33.959  40.506   2.110
19274W        W85683  26.506  44.011  10.424
19275W        W85684  27.391  39.808  13.266
19276W        W85685  19.957   6.811  11.808
19277W        W85686   4.950  24.201  14.275
19278W        W85687   9.451  17.298   0.547
19279W        W85688  21.615  23.532  10.936
19280W        W85689  29.487   6.893   2.674
19281W        W85690  28.771  29.883   2.242
19282W        W85691  21.091  13.719  12.460
19283W        W85692  36.673   0.965  12.083
19284W        W85693  29.087  38.897  10.365
19285W        W85694  33.542   0.695   4.511
19286W        W85695  33.296  21.640  11.432
19287W        W85696  41.392  35.608  14.905
19288W        W85697  39.336  31.849   3.234
19289W        W85698  17.670   5.994   4.375
19290W        W85699  40.320  20.184  13.088
19291W        W85700  20.090   9.358  14.350
19292W        W85701  20.241  29.928   0.834
19293W        W85702  37.100  36.131   0.116
19294W        W85703   1.250  16.045   4.506
19295W        W85704  26.569  37.679  14.005
19296W        W85705  15.024  21.704  14.361
19297W        W85706  15.093  24.433   0.439
19298W        W85707  12.762   0.320  12.378
19299W        W85708  23.096  41.094   2.683
19300W        W85709  22.277  29.070  12.102
19301W        W85710  28.928  22.118  10.483
19302W        W85711  29.133   4.926  13.096
19303W        W85712  40.322  10.029   3.605
19304W        W85713  15.334  16.469   1.212
19305W        W85714  43.816  32.024   1.654
19306W        W85715  42.593  39.407   4.603
19307W        W85716  41.447   6.685   4.302
19308W        W85717  28.324  33.563   2.853
19309W        W85718  28.074  36.345   1.427
19310W        W85719  44.935  22.588   0.712
19311W        W85720   4.983  38.320   1.145
19312W        W85721   1.681  37.482   1.842
19313W        W85722  18.204   8.659  14.169
19314W        W85723  35.406  40.601  11.108
19315W        W85724   6.702  32.848  12.631
19316W        W85725   8.074  21.914  12.113
19317W        W85726  42.852  38.421  13.979
19318W        W85727   5.640   8.790  13.387
19319W        W85728  32.605  30.420   4.021
19320W        W85729  27.198  44.727   1.458
19321W        W85730   8.898   0.688   1.377
19322W        W85731   4.626  31.296  11.258
19323W        W85732   7.772  36.009   2.162
19324W        W85733  10.360  40.471  13.782
19325W        W85734  19.257   7.648   0.278
19326W        W85735  34.629  38.965  13.511
19327W        W85736  11.127  30.466   1.784
19328W        W85737  34.077  12.649  13.578
19329W        W85738  26.662   6.905   5.363
19330W        W85739  18.373   2.543   2.616
19331W        W85740  11.807  40.742   1.735
19332W        W85741  28.034  22.894  11.528
19333W        W85742  27.750  37.133   1.186
19334W        W85743  19.505  38.984   0.371
19335W        W85744  20.676  41.763  11.695
19336W        W85745  22.715  25.778   2.845
19337W        W85746   9.603  39.940   1.955
19338W        W85747   5.201   9.815  12.122
19339W        W85748  18.228  17.661   1.903
19340W        W85749  41.220  21.518   4.253
19341W        W85750   4.597   5.073   0.069
19342W        W85751  11.353  30.008   1.926
19343W        W85752  31.573  12.762   4.038
19344W        W85753  16.940  30.980   2.872
19345W        W85754  34.878  17.085   1.716
19346W        W85755  19.488  43.019   3.567
19347W        W85756  10.811  34.503   5.596
19348W        W85757   8.318  31.952  14.411
19349W        W85758  20.245   6.588  11.451
19350W        W85759  15.798  35.528  10.943
19351W        W85760  13.088  30.656   1.916
19352W        W85761  21.613  36.997  11.612
19353W        W85762  41.634  33.067  11.927
19354W        W85763  17.899  41.849   2.139
19355W        W85764   4.979   0.447   3.253
19356W        W85765  31.514   0.075  11.763
19357W        W85766  16.193  41.532  13.823
19358W        W85767  31.123  13.749   3.100
19359W        W85768  11.754  20.736   2.340
19360W        W85769  36.419  18.991  12.484
19361W        W85770  27.559   0.811  13.432
19362W        W85771  11.781  37.107   3.390
19363W        W85772  22.252   5.440   0.201
19364W        W85773  19.718  10.780   0.914
19365W        W85774  15.667  21.959   1.909
19366W        W85775  30.180   7.716   2.372
19367W        W85776  43.273  12.361   1.382
19368W        W85777  11.906  27.705  11.983
19369W        W85778  25.682  16.594  12.440
19370W        W85779  30.593  11.222  14.722
19371W        W85780   6.839  21.007   1.893
19372W        W85781  24.779  15.786   4.380
19373W        W85782  17.270  32.034  10.520
19374W        W85783   9.740  44.056  14.006
19375W        W85784  39.984  15.661  12.234
19376W        W85785  25.204   0.841   3.598
19377W        W85786  29.275  24.201   1.737
19378W        W85787  39.465  14.791  13.593
19379W        W85788  17.167   5.420  10.578
19380W        W85789  19.238  40.855   3.441
19381W        W85790   0.841  35.579  11.107
19382W        W85791   4.380  36.453  10.675
19383W        W85792  19.087  34.550  11.978
19384W        W85793   9.918   2.358  12.091
19385W        W85794   4.713   3.317   3.314
19386W        W85795  41.779  18.081  12.575
19387W        W85796  26.125  12.029  14.914
19388W        W85797  44.296  30.062  11.667
19389W        W85798  25.010  43.314   3.169
19390W        W85799  39.632   4.760   0.207
19391W        W85800  24.490  23.535   2.401
19392W        W85801  31.582  10.379  11.534
19393W        W85802   1.811  26.307   3.587
19394W        W85803  24.694  35.386   1.197
19395W        W85804  35.890   3.451   1.347
19396W        W85805  23.663   0.662   0.198
19397W        W85806  11.767  37.422   4.456
19398W        W85807  14.796  29.597  12.433
19399W        W85808  19.509   3.205   2.262
19400W        W85809  12.379  41.374   1.277
19401W        W85810  31.957  38.713  10.585
19402W        W85811  28.467  12.658  11.696
19403W        W85812  21.573  22.004   0.966
19404W        W85813   0.391  39.910   2.251
19405W        W85814   3.366  42.428  11.440
19406W        W85815  26.668  24.785  13.000
19407W        W85816  19.812   4.764  12.974
19408W        W85817  23.535   3.025   3.269
19409W        W85818  20.688   0.394  11.670
19410W        W85819  35.358  15.411  12.674
19411W        W85820  15.815   9.445  12.390
19412W        W85821   7.373  11.018  11.208
19413W        W85822  14.861  23.709  13.310
19414W        W85823   8.675  44.026  11.013
19415W        W85824  40.109   6.717  10.538
19416W        W85825  32.725  44.377   3.848
19417W        W85826  21.092   2.310   1.243
19418W        W85827  42.657  41.540   1.364
19419W        W85828  29.777  34.498  14.429
19420W        W85829  20.399  10.106  11.663
19421W        W85830  21.185  12.638   4.665
19422W        W85831   0.105  18.626   1.933
19423W        W85832  44.357  33.172  11.127
19424W        W85833   4.004  33.434   4.115
19425W        W85834  31.238   8.426  14.601
19426W        W85835   0.775  44.405   4.375
19427W        W85836  17.205   6.730  12.845
19428W        W85837   2.309  41.898   1.410
19429W        W85838   7.785  28.149  10.130
19430W        W85839  24.111   6.488   4.633
19431W        W85840  24.283  28.056  11.133
19432W        W85841  11.423  14.299   0.015
19433W        W85842  14.336  35.352  10.773
19434W        W85843   1.462  32.560   0.309
19435W        W85844   0.469  21.965  12.542
19436W        W85845  35.419  37.496  10.634
19437W        W85846  19.001  19.272  12.416
19438W        W85847  17.372   9.994  14.925
19439W        W85848   2.645  42.518  14.311
19440W        W85849  42.878  28.050   3.205
19441W        W85850  26.616  40.295   2.884
19442W        W85851  18.981  23.146   0.263
19443W        W85852  42.333  20.815  11.944
19444W        W85853   5.069  37.349  14.450
19445W        W85854  28.099  38.114   2.526
19446W        W85855  39.903  38.528   1.452
19447W        W85856  15.394  30.784   2.322
19448W        W85857  20.729  14.946  12.109
19449W        W85858  10.897  38.801  11.152
19450W        W85859  21.749  43.374  14.632
19451W        W85860  29.957  27.920   0.062
19452W        W85861  31.398  14.853  14.958
19453W        W85862  25.554  39.993  14.146
19454W        W85863   5.663   0.546  10.590
19455W        W85864  22.433  41.830  13.923
19456W        W85865   2.413   7.746   2.577
19457W        W85866  38.279  15.693   1.445
19458W        W85867  18.141  15.830   4.149
19459W        W85868   8.119  32.903  14.254
19460W        W85869   4.675  10.170   3.022
19461W        W85870  27.169  35.874  12.111
19462W        W85871  22.914  21.619   9.696
19463W        W85872   3.486  31.077   0.267
19464W        W85873  38.160  36.251   2.175
19465W        W85874  10.417  30.885   2.330
19466W        W85875  20.130  11.600   4.538
19467W        W85876  22.114  20.783  14.829
19468W        W85877  17.666   4.112  13.978
19469W        W85878  16.230  27.062   3.134
19470W        W85879   9.166  22.748  10.839
19471W        W85880  20.530  33.390   3.435
19472W        W85881   0.004  38.664  11.202
19473W        W85882  30.305  38.067  14.043
19474W        W85883  21.428  19.425  14.814
19475W        W85884  19.232  37.865   4.096
19476W        W85885  36.810   1.781   2.959
19477W        W85886  12.149  34.136  12.468
19478W        W85887  43.059  18.271   1.884
19479W        W85888   4.142  31.016  14.074
19480W        W85889   8.696  28.118  11.669
19481W        W85890  19.840   3.036   4.586
19482W        W85891  35.218   3.349   2.088
19483W        W85892  33.821  42.534   0.075
19484W        W85893  23.889  25.757   3.279
19485W        W85894  35.881  38.071  14.099
19486W        W85895   3.899  12.687  10.856
19487W        W85896  12.895  11.156   0.586
19488W        W85897  30.214  36.350   0.022
19489W        W85898  32.958  16.691   2.429
19490W        W85899  26.240  30.203  11.101
19491W        W85900  41.983  40.196   1.307
19492W        W85901   6.400  31.096  12.613
19493W        W85902  25.903  34.491  11.010
19494W        W85903  41.252  21.629   3.345
19495W        W85904  31.431  15.394  10.377
19496W        W85905  13.451   2.028   2.583
19497W        W85906  43.469  36.683  13.101
19498W        W85907  29.425  42.585  11.585
19499W        W85908   4.296   9.122   3.702
19500W        W85909  17.943  39.861   9.887
19501W        W85910   5.239   7.789   1.667
19502W        W85911  20.907  40.422   2.470
19503W        W85912  16.879  17.082   3.393
19504W        W85913   4.605  21.013  14.264
19505W        W85914  34.575   4.964  14.768
19506W        W85915   3.473  14.844   2.649
19507W        W85916  40.066   7.820   1.725
19508W        W85917  23.957  21.649  14.505
19509W        W85918  27.875  11.232  13.876
19510W        W85919  17.687  14.524  12.039
19511W        W85920  16.499  35.660   0.454
19512W        W85921  44.991   9.665   1.662
19513W        W85922  39.700   4.289  11.080
19514W        W85923   6.275   4.956   2.582
19515W        W85924  22.008  31.412   3.983
19516W        W85925  43.781  34.402   1.030
19517W        W85926  18.535  24.157  14.515
19518W        W85927  11.605  23.128  11.206
19519W        W85928  40.821   8.412   2.625
19520W        W85929  41.974  38.350   3.182
19521W        W85930  38.084   1.847   1.915
19522W        W85931   5.936  22.540   1.245
19523W        W85932  26.657  15.759  13.480
19524W        W85933   6.271  38.336   1.020
19525W        W85934  18.178  27.179  13.774
19526W        W85935  10.681  26.923  10.706
19527W        W85936  42.375  25.719   2.358
19528W        W85937  20.254  33.767  11.677
19529W        W85938   9.985  33.506  12.176
19530W        W85939  25.643  24.968   1.098
19531W        W85940  20.311   9.158   3.253
19532W        W85941   8.220  19.212  13.904
19533W        W85942  35.553   2.332   3.159
19534W        W85943  23.637  16.928  11.338
19535W        W85944  27.561  31.652  10.836
19536W        W85945  31.187   2.456   3.652
19537W        W85946  16.825  33.066   2.651
19538W        W85947   3.999   8.062  11.592
19539W        W85948  27.889  20.411  14.008
19540W        W85949   5.244   0.422   0.807
19541W        W85950  24.006  12.989   3.328
19542W        W85951  34.367  20.777  14.291
19543W        W85952  44.138  36.424  12.074
19544W        W85953  26.992  38.567   3.210
19545W        W85954  18.988  19.591   1.533
19546W        W85955  22.029  34.314  11.151
19547W        W85956  22.631  37.182  10.042
19548W        W85957   5.178  24.714   0.719
19549W        W85958   7.647  18.817  12.508
19550W        W85959  43.146  13.069  11.268
19551W        W85960  25.260   3.747   1.705
19552W        W85961   5.369  42.491  13.058
19553W        W85962  32.818  27.905   4.481
19554W        W85963  13.372  35.043  10.695
19555W        W85964  14.152  36.809  11.648
19556W        W85965   0.331  22.498  13.472
19557W        W85966  11.091  20.359   3.237
19558W        W85967  41.751  23.719   0.420
19559W        W85968  26.565  38.902   1.852
19560W        W85969  27.070  43.434   3.727
19561W        W85970  40.765   2.676  13.690
19562W        W85971  33.252  12.488   1.463
19563W        W85972  23.086   9.418  14.337
19564W        W85973   0.131  16.556  12.901
19565W        W85974   7.148   7.378   4.009
19566W        W85975  26.431  42.785   1.153
19567W        W85976  20.313  18.473  13.723
19568W        W85977   2.265   3.398   2.845
19569W        W85978   4.440  44.804  12.602
19570W        W85979  29.499  32.794   0.997
19571W        W85980  41.115  44.399  12.576
19572W        W85981   7.178  27.968   1.413
19573W        W85982  35.029  16.036  12.075
19574W        W85983  29.696  32.549   0.100
19575W        W85984   7.384  36.852   4.662
19576W        W85985  19.427   9.610  10.344
19577W        W85986   9.718  18.608   4.598
19578W        W85987  12.466  30.593   3.195
19579W        W85988  19.063  21.822  11.486
19580W        W85989   9.277  34.604   1.348
19581W        W85990   1.238  39.702  13.020
19582W        W85991  16.825  43.721   2.717
19583W        W85992  16.836  40.982  12.906
19584W        W85993   9.136  40.366  13.209
19585W        W85994   7.774  23.495  10.402
19586W        W85995  43.614  34.409  11.557
19587W        W85996  20.805  18.489  14.427
19588W        W85997  17.692   2.336   4.812
19589W        W85998  44.073  42.437   2.770
19590W        W85999  14.757  25.155  14.283
19591W        W86000  29.530  20.164   4.789
19592W        W86001  10.801  33.902   1.274
19593W        W86002  14.601  15.749  10.223
19594W        W86003  38.104   2.227   1.162
19595W        W86004  34.189  17.088   0.733
19596W        W86005  32.122  30.411   2.309
19597W        W86006  28.549  28.654   0.189
19598W        W86007   6.402   6.448  13.835
19599W        W86008  19.161   9.388  11.354
19600W        W86009   7.646  28.810  10.658
19601W        W86010  20.051  16.896   3.593
19602W        W86011   3.492  27.632  14.296
19603W        W86012  28.506  27.318   2.133
19604W        W86013   5.989  36.982   4.695
19605W        W86014  36.968  32.834  11.206
19606W        W86015  10.168  34.822   2.770
19607W        W86016   8.457  20.943   1.434
19608W        W86017  37.044  12.709  13.543
19609W        W86018   5.640   0.291  13.547
19610W        W86019  43.050  16.099  14.251
19611W        W86020  11.104  21.091   2.722
19612W        W86021  18.727  32.423   1.751
19613W        W86022   0.703  37.784   4.105
19614W        W86023   2.351  12.198   1.766
19615W        W86024  11.057  23.295   1.338
19616W        W86025  14.353  39.876   0.364
19617W        W86026  39.058   5.771  11.022
19618W        W86027  23.495   3.797  14.760
19619W        W86028  40.301  18.610  13.929
19620W        W86029  40.919  33.994   3.756
19621W        W86030   1.366   6.170  14.513
19622W        W86031  17.943  33.319  11.656
19623W        W86032  39.704  40.734  12.889
19624W        W86033   5.775  20.319   0.210
19625W        W86034  16.731  44.235  10.899
19626W        W86035  19.332  43.418   4.169
19627W        W86036  36.069  10.276  14.336
19628W        W86037  21.068  42.283   4.747
19629W        W86038  14.696  41.826  11.499
19630W        W86039  27.941  33.483  12.824
19631W        W86040  19.043  33.511  14.373
19632W        W86041  34.911  43.348   1.919
19633W        W86042   3.364  24.495  14.364
19634W        W86043  43.060  40.879   3.729
19635W        W86044  12.772  33.731  13.854
19636W        W86045  37.441  40.791   2.649
19637W        W86046  28.873   5.427   2.587
19638W        W86047  42.726  44.809  11.579
19639W        W86048   3.493  18.791   2.897
19640W        W86049  22.742  10.877  12.365
19641W        W86050  40.586   0.546   0.836
19642W        W86051   8.736  32.322  12.009
19643W        W86052  42.225  14.244   3.137
19644W        W86053  40.136   2.846   3.971
19645W        W86054  33.134  24.759   1.430
19646W        W86055  14.463  28.103  13.420
19647W        W86056  43.810  14.588  14.550
19648W        W86057  35.536  20.224   4.253
19649W        W86058  23.720  14.563  14.248
19650W        W86059  24.068  10.612  13.366
19651W        W86060  16.310   1.456  14.834
19652W        W86061  36.793  25.972  12.935
19653W        W86062  25.422  19.136   2.010
19654W        W86063  26.488   1.213   2.229
19655W        W86064  38.472  16.568   9.874
19656W        W86065  19.331  11.099  11.579
19657W        W86066  19.805  11.704   3.208
19658W        W86067  19.492  15.395  12.267
19659W        W86068  43.127  30.542  11.210
19660W        W86069  14.632  24.097  12.462
19661W        W86070  24.051   2.375  14.054
19662W        W86071  19.138  29.492  12.651
19663W        W86072  31.586  14.406  12.003
19664W        W86073  36.497  17.184   9.850
19665W        W86074  33.461   2.532   2.788
19666W        W86075  18.390  24.353  12.852
19667W        W86076   2.786  29.698   2.480
19668W        W86077  24.816  21.511  11.560
19669W        W86078   4.254   1.146  12.995
19670W        W86079  26.705  20.081   2.709
19671W        W86080  11.519   2.659   1.683
19672W        W86081  28.861  44.329  12.628
19673W        W86082   2.881  21.495   2.598
19674W        W86083  36.699  17.695   1.272
19675W        W86084  43.730  38.064   4.226
19676W        W86085  22.716  44.475   0.563
19677W        W86086  34.341  27.406   2.286
19678W        W86087  30.647  12.285   2.332
19679W        W86088  25.702   0.579   0.422
19680W        W86089  38.364  19.907   4.128
19681W        W86090  41.753  30.244   3.603
19682W        W86091   1.604   9.736   2.413
19683W        W86092   8.275   5.323  14.235
19684W        W86093  24.491   4.370   0.729
19685W        W86094  27.565   3.818  13.895
19686W        W86095  24.295  13.276   0.933
19687W        W86096  26.398  30.706  11.154
19688W        W86097  17.745   1.380   0.935
19689W        W86098  29.401  18.279  11.937
19690W        W86099  23.437  30.315   2.611
19691W        W86100  19.724  23.757  10.704
19692W        W86101  23.381  19.812   9.422
19693W        W86102  23.460  38.964   0.895
19694W        W86103   3.937  25.805  10.959
19695W        W86104  28.709  40.943   3.098
19696W        W86105   8.152  15.115   2.791
19697W        W86106   3.377  20.982   3.815
19698W        W86107  15.682  25.547   2.725
19699W        W86108  11.635  33.115  14.376
19700W        W86109  44.320  21.017   1.774
19701W        W86110  22.268  19.962   0.774
19702W        W86111   0.442  28.245   3.306
19703W        W86112  22.100  40.325   0.908
19704W        W86113  14.185   3.502   4.982
19705W        W86114  24.705   1.401   3.991
19706W        W86115  33.093  33.244  14.290
19707W        W86116   0.832  22.480  13.834
19708W        W86117  20.250  20.688   2.731
19709W        W86118  14.194  17.525   3.635
19710W        W86119  37.090   2.090   4.148
19711W        W86120  12.780  30.185   3.230
19712W        W86121  23.612  12.816  14.982
19713W        W86122  34.828  40.454  11.728
19714W        W86123  37.035   5.859   1.760
19715W        W86124  22.015  27.665   1.237
19716W        W86125  42.425  36.558   3.388
19717W        W86126   5.794  16.079   2.749
19718W        W86127  32.399  39.552   4.610
19719W        W86128  36.073  21.383   3.641
19720W        W86129  36.144  10.087  11.051
19721W        W86130  43.388   8.169   2.233
19722W        W86131  12.429  31.115  10.720
19723W        W86132  31.963  16.380  14.295
19724W        W86133  25.758  39.106  14.362
19725W        W86134  25.689  13.222   1.706
19726W        W86135  36.085  17.253  11.958
19727W        W86136   1.915  20.065   2.586
19728W        W86137  21.842  21.237  11.286
19729W        W86138  11.252   3.916   4.169
19730W        W86139  29.529  29.617   4.150
19731W        W86140  41.531  18.042  12.074
19732W        W86141  27.112  33.954   1.832
19733W        W86142  32.128  41.667   3.660
19734W        W86143  37.785  35.982   1.960
19735W        W86144  29.130  13.489   3.217
19736W        W86145  39.831   1.206  14.992
19737W        W86146   3.605  33.015  12.592
19738W        W86147  44.885   1.002  13.460
19739W        W86148  20.508  36.859  14.338
19740W        W86149  33.433  41.932  10.926
19741W        W86150  10.924  44.292  12.213
19742W        W86151  41.100   5.017   3.709
19743W        W86152  15.209  20.106  14.995
19744W        W86153  31.611  19.181   4.175
19745W        W86154  18.585   5.160  10.543
19746W        W86155   0.894  18.679  13.119
19747W        W86156   1.207  27.945  14.338
19748W        W86157   3.514  15.159  11.392
19749W        W86158  12.305  18.225   2.813
19750W        W86159  28.756  27.230  10.682
19751W        W86160   6.420  27.376   0.755
19752W        W86161   2.322  31.028   4.153
19753W        W86162  38.933  39.549  10.764
19754W        W86163  33.450  21.787   0.021
19755W        W86164  12.700  14.707  11.652
19756W        W86165  11.351  37.385   4.738
19757W        W86166  30.785  26.584  10.676
19758W        W86167  12.767  34.225  14.055
19759W        W86168  11.262  30.573   4.990
19760W        W86169   1.683   2.336  11.146
19761W        W86170  17.634   6.745  13.118
19762W        W86171  11.779  37.089  11.444
19763W        W86172   3.430  35.367  13.987
19764W        W86173   4.994  34.539   4.984
19765W        W86174   3.916  13.616  14.757
19766W        W86175  18.651   2.347   3.421
19767W        W86176  23.508  34.713  11.959
19768W        W86177  29.490   3.731   3.121
19769W        W86178  23.064  13.292  14.573
19770W        W86179   7.726  36.626  12.551
19771W        W86180  33.572   9.316  11.574
19772W        W86181  33.125   9.480   1.828
19773W        W86182  41.550  18.534  12.485
19774W        W86183   0.979  37.967  14.406
19775W        W86184  38.801  42.854   1.780
19776W        W86185  12.125  32.903   0.852
19777W        W86186   8.006  33.735   4.066
19778W        W86187  28.016   1.031   1.864
19779W        W86188  36.995  27.618  13.944
19780W        W86189  26.679   3.394  13.025
19781W        W86190  26.951  41.894  12.502
19782W        W86191   0.071  22.055  13.464
19783W        W86192  17.000  36.761   5.053
19784W        W86193  32.962  17.008  11.939
19785W        W86194  29.304  43.054  12.483
19786W        W86195  24.553  39.940   4.510
19787W        W86196  20.696   9.943   1.415
19788W        W86197  39.633  25.126  12.170
19789W        W86198  10.684  38.962   3.329
19790W        W86199  39.078  39.832   3.266
19791W        W86200   2.742  14.752  12.007
19792W        W86201  21.121   3.831  13.867
19793W        W86202  24.083  44.223  13.373
19794W        W86203  43.291   0.233   1.805
19795W        W86204   7.982  13.875   0.084
19796W        W86205   6.038  18.624  11.798
19797W        W86206  16.044  28.292   0.907
19798W        W86207   7.318  37.138   4.210
19799W        W86208  22.302  43.831  13.477
19800W        W86209  34.238  28.792  13.870
19801W        W86210  24.050   9.041  14.423
19802W        W86211  43.916   1.076   3.154
19803W        W86212  35.544  20.639  14.431
19804W        W86213  23.566  30.489   3.462
19805W        W86214  38.450  20.836   5.381
19806W        W86215  32.692   7.809  11.757
19807W        W86216  21.402   4.660  12.194
19808W        W86217  33.832  11.845  13.176
19809W        W86218  42.845   1.869  13.361
19810W        W86219  36.592  21.245   9.886
19811W        W86220   5.468   5.986   1.392
19812W        W86221  38.511  29.667   1.729
19813W        W86222  31.084  33.693  11.743
19814W        W86223  12.790  13.675  12.823
19815W        W86224   5.862  20.834   2.959
19816W        W86225   3.847  12.194   1.281
19817W        W86226  41.891  14.185  11.696
19818W        W86227  11.128  35.740  11.295
19819W        W86228  24.767  37.564  14.858
19820W        W86229  31.403  13.615  12.504
19821W        W86230  24.392  33.444   5.026
19822W        W86231  21.715  18.852   1.392
19823W        W86232  31.980  11.645  14.735
19824W        W86233  20.060  13.231  12.442
19825W        W86234  26.007   5.475   4.241
19826W        W86235  38.466   7.130  12.519
19827W        W86236  29.201   6.820   3.535
19828W        W86237  26.441  16.660   5.034
19829W        W86238  32.610  22.270   3.781
19830W        W86239   3.931   2.521   2.672
19831W        W86240   9.022  38.776  13.946
19832W        W86241   4.865   7.938  11.141
19833W        W86242  33.933  20.592  14.657
19834W        W86243   8.267   8.646  14.038
19835W        W86244  29.666  19.327   2.419
19836W        W86245   9.916  20.980  13.719
19837W        W86246  33.841   3.095  12.958
19838W        W86247  12.467  38.762  11.182
19839W        W86248  12.615  37.362  10.603
19840W        W86249  29.658   4.136  13.579
19841W        W86250  40.860  29.509   0.867
19842W        W86251  41.057  11.098  13.868
19843W        W86252  40.049   9.690  13.459
19844W        W86253  34.932  20.638   1.383
19845W        W86254  19.557  27.901  14.803
19846W        W86255  24.978   5.185  10.640
19847W        W86256  15.078   3.908   0.036
19848W        W86257  10.036  39.379  11.126
19849W        W86258  31.862  32.941  12.318
19850W        W86259  41.449   0.719   0.299
19851W        W86260  42.360  33.928   4.220
19852W        W86261  38.375  20.774  11.056
19853W        W86262  43.610  42.117   4.506
19854W        W86263   3.926  29.950  14.420
19855W        W86264  25.339   6.637   1.233
19856W        W86265  28.885   7.068  10.790
19857W        W86266   1.214  32.183   2.915
19858W        W86267  16.098  26.588   3.379
19859W        W86268  34.896   0.276   1.270
19860W        W86269  12.107  26.572   0.680
19861W        W86270  44.347  41.259  13.030
19862W        W86271  22.417  10.701  11.413
19863W        W86272  17.269  15.049  14.037
19864W        W86273  20.562  11.602  13.963
19865W        W86274   9.542  10.669  13.306
19866W        W86275   5.224  14.372  14.664
19867W        W86276  11.882  15.156   0.179
19868W        W86277   4.062  27.264   4.630
19869W        W86278  25.008  38.880   4.714
19870W        W86279  36.565  26.897  13.898
19871W        W86280  38.877  24.628   0.822
19872W        W86281  42.813  39.661   4.190
19873W        W86282  22.089  14.569  12.191
19874W        W86283  11.361  29.605  13.608
19875W        W86284   9.821  35.110   3.684
19876W        W86285  40.991   0.244   2.309
19877W        W86286   2.416  40.955   2.665
19878W        W86287   8.422  40.305   0.750
19879W        W86288  21.193  19.314   0.303
19880W        W86289   2.862  12.604  12.018
19881W        W86290   7.932  23.031   0.472
19882W        W86291   7.853   6.263  10.679
19883W        W86292  39.846  21.536   2.149
19884W        W86293   1.371  23.142  10.602
19885W        W86294  23.101  31.939   0.819
19886W        W86295  23.516   8.633  10.067
19887W        W86296  44.539   6.689  14.037
19888W        W86297  25.839   8.787   0.763
19889W        W86298  16.282  24.752  11.592
19890W        W86299  25.616   7.590  11.522
19891W        W86300  20.292  19.601  12.565
19892W        W86301   0.601  29.630  11.191
19893W        W86302  27.704  30.939  12.090
19894W        W86303  17.183  17.143   4.229
19895W        W86304   1.399  10.775   2.004
19896W        W86305   5.849   3.427   4.896
19897W        W86306  31.003  12.144   4.002
19898W        W86307  41.909  12.249   4.569
19899W        W86308  24.195  27.860  14.344
19900W        W86309  17.170  20.397  13.916
19901W        W86310  22.631  22.899  10.559
19902W        W86311  43.232   4.258  13.391
19903W        W86312  30.348   6.415   0.428
19904W        W86313   1.541  14.167   4.202
19905W        W86314  35.558   5.016  11.132
19906W        W86315  32.830  33.219   0.247
19907W        W86316  23.286  16.616   4.882
19908W        W86317  22.721  31.951   2.305
19909W        W86318  30.137  11.426   2.307
19910W        W86319   5.366  28.222  14.516
19911W        W86320  42.579  17.406   1.857
19912W        W86321  42.483  38.913  13.374
19913W        W86322  14.032  23.024  11.100
19914W        W86323  15.308  21.233   2.600
19915W        W86324  19.730  31.654  14.788
19916W        W86325  33.031  43.960  12.432
19917W        W86326  32.211  20.163   4.115
19918W        W86327   1.944   8.993   2.094
19919W        W86328  21.479  36.540  11.871
19920W        W86329  11.647   4.550  12.039
19921W        W86330  14.811   9.440   0.799
19922W        W86331  36.562   2.880   1.918
19923W        W86332  26.692  20.134   1.900
19924W        W86333  31.206   7.557   1.164
19925W        W86334  38.555  24.110  12.466
19926W        W86335  37.654  29.358  13.370
19927W        W86336  30.591  17.265  12.369
19928W        W86337  34.323  28.228   4.126
19929W        W86338  22.629  18.195   4.803
19930W        W86339  32.164   4.795   0.723
19931W        W86340  16.277  44.766  11.537
19932W        W86341  30.885   8.308  13.139
19933W        W86342  13.222   9.820   3.388
19934W        W86343  14.933  40.561   5.055
19935W        W86344  19.289  21.711  14.791
19936W        W86345  42.054  22.203   4.258
19937W        W86346   0.431  25.013  13.789
19938W        W86347  41.351  44.934  13.970
19939W        W86348  13.116  35.893   1.859
19940W        W86349  27.128  33.615  13.489
19941W        W86350  21.390  20.407   0.279
19942W        W86351  13.757   8.388   0.789
19943W        W86352  19.606  23.459   1.127
19944W        W86353  23.690  43.827  11.005
19945W        W86354  13.803  31.794  10.688
19946W        W86355  30.350  40.947   4.931
19947W        W86356  35.458  32.368   4.095
19948W        W86357  27.588  27.646  11.937
19949W        W86358  41.443  23.997  11.100
19950W        W86359  30.516  19.936   4.652
19951W        W86360  41.464  17.271   3.130
19952W        W86361  20.162  27.633   1.721
19953W        W86362  26.192   4.219  12.061
19954W        W86363  22.295  41.575   1.800
19955W        W86364  18.014   6.760  13.465
19956W        W86365  11.103  13.816   1.584
19957W        W86366  11.172  22.970  12.381
19958W        W86367  12.628  24.988   1.130
19959W        W86368  36.103  34.461  11.707
19960W        W86369  11.602   3.458  13.135
19961W        W86370   4.510   2.505  10.496
19962W        W86371  20.553  19.945  14.704
19963W        W86372  44.858  34.118  14.770
19964W        W86373  35.053  11.872  12.086
19965W        W86374  33.663  21.172   9.999
19966W        W86375  39.390  30.538  11.453
19967W        W86376  43.970  40.246  14.461
19968W        W86377  29.397   7.630   0.360
19969W        W86378  34.638   9.819  10.464
19970W        W86379  20.249  17.732   1.833
19971W        W86380  21.761  12.681  11.347
19972W        W86381  13.583  41.003   4.087
19973W        W86382  26.718  24.965   4.578
19974W        W86383   4.814   5.715  11.219
19975W        W86384  30.844  24.603  11.610
19976W        W86385  14.158   0.703  10.593
19977W        W86386  36.649  22.174   2.713
19978W        W86387  39.621  37.516  11.451
19979W        W86388  13.536   9.659  13.835
19980W        W86389  36.303  36.465  13.842
19981W        W86390  18.540  16.298   1.483
19982W        W86391  11.796   3.169  14.898
19983W        W86392  20.279  29.323  13.423
19984W        W86393   6.641   3.211   2.400
19985W        W86394  13.891   2.330   2.617
19986W        W86395  10.391  31.269   1.056
19987W        W86396  34.453  21.917   0.637
19988W        W86397  16.146  37.392  11.770
19989W        W86398  12.598   6.774  13.950
19990W        W86399  40.273  35.759   4.585
19991W        W86400  29.684  35.993  11.120
19992W        W86401  19.785   9.098   4.119
19993W        W86402  11.215  16.194  13.341
19994W        W86403  32.586  37.784  13.869
19995W        W86404  40.346   8.112   2.640
19996W        W86405  18.742   8.353   1.495
19997W        W86406   6.422  43.547  11.202
19998W        W86407  17.161  39.804   2.216
19999W        W86408   5.312  31.875   2.634
20000W        W86409  17.266  20.834   4.668
20001W        W86410  36.258   1.258   0.907
20002W        W86411  34.579   2.468  13.036
20003W        W86412   4.996   3.264   0.065
20004W        W86413  19.416  10.189  12.473
20005W        W86414  10.664  34.326   4.281
20006W        W86415   8.262  23.059   4.573
20007W        W86416  36.071  31.620  11.101
20008W        W86417  20.162  10.076   1.924
20009W        W86418  38.027  29.905  12.015
20010W        W86419  36.125  31.816  12.386
20011W        W86420  22.410  38.031  12.639
20012W        W86421  21.769  35.023   0.259
20013W        W86422  17.765  33.702  14.258
20014W        W86423  35.460   2.700  11.756
20015W        W86424  44.129  19.714  13.846
20016W        W86425  25.078   2.647   4.654
20017W        W86426  16.193  27.212   1.630
20018W        W86427  37.585  20.955  13.940
20019W        W86428   2.220   7.703   2.104
20020W        W86429  29.010  41.644  12.860
20021W        W86430  10.799  18.305   3.678
20022W        W86431  28.175   6.784   3.575
20023W        W86432  30.178  31.731  11.562
20024W        W86433  17.297  37.372   1.803
20025W        W86434  31.702  30.889  14.974
20026W        W86435  22.659  11.084   1.042
20027W        W86436  19.749  40.538  13.384
20028W        W86437  38.184  15.625   0.028
20029W        W86438  23.077  39.300  12.534
20030W        W86439   7.449  37.228  13.946
20031W        W86440  44.254  17.692   4.195
20032W        W86441  10.224  22.562   2.688
20033W        W86442  20.727  41.538  12.994
20034W        W86443  35.477  13.397   2.733
20035W        W86444  40.725  42.776  10.994
20036W        W86445  15.847   2.352   1.121
20037W        W86446  34.890  39.317   2.260
20038W        W86447  12.888  28.777   0.505
20039W        W86448  44.829   6.348  13.617
20040W        W86449  32.129  27.580  10.483
20041W        W86450   6.105   7.375  12.787
20042W        W86451   3.188  21.298  12.941
20043W        W86452  38.557   3.193  12.362
20044W        W86453   8.165   4.429   0.059
20045W        W86454  36.824  14.612  12.004
20046W        W86455  22.735   2.903   0.365
20047W        W86456  23.659   2.340  13.047
20048W        W86457  12.701  14.696   4.343
20049W        W86458  24.244  16.192   3.371
20050W        W86459  26.262   6.631  13.263
20051W        W86460  30.834  15.601  12.148
20052W        W86461  20.415  44.802  13.314
20053W        W86462  25.011  39.197  11.657
20054W        W86463  44.480   5.766   4.125
20055W        W86464  13.889  41.002   3.661
20056W        W86465  36.665  35.063  10.737
20057W        W86466   9.823   3.804   0.729
20058W        W86467   4.735  38.508   3.952
20059W        W86468   6.251  42.426  10.351
20060W        W86469  30.164  44.837   2.234
20061W        W86470  19.669  39.226   4.576
20062W        W86471   5.453  40.335   2.978
20063W        W86472  43.706  12.721   2.430
20064W        W86473  11.769  17.017  14.925
20065W        W86474   0.377   2.194   2.680
20066W        W86475  15.343  38.480   2.519
20067W        W86476  13.728  24.980   0.934
20068W        W86477  24.009   1.249  14.863
20069W        W86478  14.356  44.032   3.677
20070W        W86479  31.859   8.256  12.130
20071W        W86480  24.570   7.552  14.896
20072W        W86481  13.376  13.190  14.344
20073W        W86482  40.596  24.063  10.064
20074W        W86483   5.715   3.374   4.096
20075W        W86484  19.281  17.700   0.439
20076W        W86485  18.320  15.231  11.244
20077W        W86486  35.807  10.886   1.828
20078W        W86487  37.028  36.732   4.253
20079W        W86488  41.282   7.705   2.393
20080W        W86489  26.559  17.837  12.850
20081W        W86490  29.585   8.185  13.508
20082W        W86491  31.511   8.168  10.654
20083W        W86492  41.924  22.530   0.645
20084W        W86493  20.687   0.826  11.350
20085W        W86494  14.703   0.431  12.864
20086W        W86495  18.157  30.773   4.563
20087W        W86496  36.812  16.398  14.373
20088W        W86497   7.609  18.362   1.694
20089W        W86498  37.286   8.866   1.532
20090W        W86499   6.813  26.206  12.997
20091W        W86500  19.816  29.017   3.592
20092W        W86501   1.284  24.604   3.436
20093W        W86502  20.009  28.254  10.614
20094W        W86503  11.707   3.991  10.960
20095W        W86504  44.642  25.573   1.385
20096W        W86505   6.885  20.733  13.965
20097W        W86506   7.897   8.360   1.253
20098W        W86507   4.284  35.675   0.943
20099W        W86508  25.520  27.644  10.774
20100W        W86509  44.599  17.657  11.150
20101W        W86510  21.202   2.031   3.615
20102W        W86511   4.208  26.590  13.827
20103W        W86512  27.985  22.709  13.417
20104W        W86513  37.491  17.681  12.606
20105W        W86514  34.791  44.966  14.152
20106W        W86515  25.174  31.341  13.366
20107W        W86516  10.825  17.767  13.077
20108W        W86517  36.209  22.421  10.742
20109W        W86518  31.595  32.540   0.131
20110W        W86519  38.380   8.306   2.765
20111W        W86520  30.820  40.328  11.315
20112W        W86521  34.078  40.355   0.718
20113W        W86522  31.449  19.028   2.796
20114W        W86523  32.592  26.297  11.231
20115W        W86524  40.075  11.844  13.818
20116W        W86525   4.223  16.608   0.368
20117W        W86526  26.929  23.148   1.373
20118W        W86527  41.291  14.644  12.000
20119W        W86528  23.722  24.915  10.671
20120W        W86529  12.814  18.486   0.528
20121W        W86530  40.261  20.644   1.144
20122W        W86531  40.941  13.171  12.358
20123W        W86532  27.428  25.324   3.075
20124W        W86533  37.849  36.106   1.286
20125W        W86534  44.199  40.620  11.191
20126W        W86535   4.782  41.310  14.902
20127W        W86536  37.037   1.846  10.456
20128W        W86537  22.458  43.932  13.977
20129W        W86538  16.498  11.692   0.365
20130W        W86539  35.934  16.025   3.253
20131W        W86540  28.860  18.074  11.127
20132W        W86541  44.472  20.758   1.352
20133W        W86542  15.740  22.628   0.182
20134W        W86543   4.762  20.306   3.671
20135W        W86544  44.522  17.574  13.385
20136W        W86545   5.214  16.766   1.236
20137W        W86546  10.874   6.088   2.268
20138W        W86547  34.628  11.313   4.970
20139W        W86548  31.309  29.649  13.439
20140W        W86549  14.174  16.886  14.359
20141W        W86550  21.076   4.840   4.048
20142W        W86551  33.446  30.691   4.891
20143W        W86552  34.477  15.888   1.263
20144W        W86553  31.363   3.385  14.822
20145W        W86554   1.209  31.705   2.743
20146W        W86555  28.581  26.512  10.774
20147W        W86556  40.822  13.875   1.854
20148W        W86557  14.429  43.931  12.207
20149W        W86558  35.921  13.409   0.316
20150W        W86559   6.617   0.861   1.704
20151W        W86560   4.080  10.120  10.931
20152W        W86561  40.055  26.091  13.024
20153W        W86562  34.427   4.376   1.911
20154W        W86563   6.434  15.265   4.524
20155W        W86564  23.998   6.701  14.435
20156W        W86565   7.599  22.536   2.263
20157W        W86566  20.588  31.067  11.979
20158W        W86567  16.785  44.886   0.346
20159W        W86568  42.690  26.602  14.994
20160W        W86569  11.652  13.451  13.138
20161W        W86570   1.379   3.934   3.116
20162W        W86571   9.290  26.668   0.934
20163W        W86572  23.964  14.906   0.166
20164W        W86573   6.247  21.638   2.439
20165W        W86574  16.725  10.409  10.238
20166W        W86575  30.461  31.509   2.342
20167W        W86576  31.863  42.456   4.305
20168W        W86577  27.184  21.644  12.900
20169W        W86578  10.981  24.129   4.517
20170W        W86579  27.426   6.292   1.675
20171W        W86580   4.104  12.810  14.484
20172W        W86581  13.328  39.027  12.058
20173W        W86582  36.136   5.977   3.249
20174W        W86583   2.193  12.354  12.064
20175W        W86584   0.503  10.621  12.012
20176W        W86585  44.908   7.021  14.342
20177W        W86586   0.942  36.879   4.089
20178W        W86587   5.964  15.604   0.554
20179W        W86588   2.250  26.618  13.862
20180W        W86589  23.938  39.975  11.730
20181W        W86590   6.708  23.062   2.215
20182W        W86591  23.590  26.314   2.794
20183W        W86592  35.993  17.236   1.160
20184W        W86593  29.561  27.974  13.254
20185W        W86594  40.264  36.407  11.129
20186W        W86595  43.373  36.852   4.340
20187W        W86596   4.624  17.164   4.935
20188W        W86597  34.569  39.593  12.876
20189W        W86598  12.764  36.644  14.452
20190W        W86599  26.191  27.470  13.322
20191W        W86600  14.504  38.424   1.234
20192W        W86601   0.780  18.066  10.590
20193W        W86602   7.037  25.055  13.538
20194W        W86603  22.588  44.193   1.903
20195W        W86604  18.362   9.922  12.601
20196W        W86605  26.681  33.263  13.834
20197W        W86606  28.805  35.330  11.657
20198W        W86607  35.300   4.789   3.344
20199W        W86608  33.180  39.487  11.915
20200W        W86609   9.862  13.725   4.160
20201W        W86610  22.157  25.020   3.639
20202W        W86611  40.207  33.047  11.583
20203W        W86612  24.898   3.312  13.798
20204W        W86613  26.096  10.451  12.964
20205W        W86614   9.216   0.046   2.687
20206W        W86615  11.672  44.190   9.570
20207W        W86616  40.134  36.031  14.032
20208W        W86617   3.286  26.110   5.183
20209W        W86618  42.427  11.593  13.938
20210W        W86619  16.804  26.434  12.491
20211W        W86620  19.372  11.640   4.105
20212W        W86621  39.975  25.698   3.652
20213W        W86622  26.536  36.402   0.426
20214W        W86623  36.988  40.438  10.837
20215W        W86624  19.142  24.128   0.581
20216W        W86625   4.304  38.627   3.494
20217W        W86626   0.271  26.109  10.793
20218W        W86627  12.289  14.555   1.689
20219W        W86628  14.540  12.415   1.899
20220W        W86629  11.292  20.472  12.854
20221W        W86630  14.977   6.331  14.091
20222W        W86631  27.535  39.907   0.907
20223W        W86632   0.824   2.482   4.484
20224W        W86633  22.599  38.573  13.110
20225W        W86634  12.217  14.618   3.426
20226W        W86635  30.295  32.476  14.507
20227W        W86636  24.717  30.546   3.733
20228W        W86637  23.149  41.000   3.708
20229W        W86638  43.425  44.335  11.212
20230W        W86639   6.340   5.816   4.768
20231W        W86640  33.907   4.355   1.947
20232W        W86641  29.240  40.803  14.481
20233W        W86642   8.168  42.518   1.461
20234W        W86643  31.625  16.074  12.789
20235W        W86644   8.846  28.553   0.541
20236W        W86645  32.136  43.759   2.211
20237W        W86646  42.780  30.150  13.415
20238W        W86647  10.760  16.656  11.444
20239W        W86648   5.357  41.907  14.489
20240W        W86649   2.720   4.660  14.035
20241W        W86650   0.395   2.760  10.890
20242W        W86651  25.368  40.266   4.847
20243W        W86652  37.872  39.990   0.984
20244W        W86653  17.635   0.689  13.979
20245W        W86654  28.110   2.933  10.841
20246W        W86655  12.363  25.578  11.116
20247W        W86656  13.389   8.373  13.650
20248W        W86657   1.057   2.841  11.982
20249W        W86658   9.599   6.841  14.272
20250W        W86659  11.883  30.183   4.116
20251W        W86660   4.849   7.913  12.829
20252W        W86661  41.494   4.271  11.201
20253W        W86662  16.802   8.680   0.384
20254W        W86663  27.087   0.269   0.334
20255W        W86664  34.297   9.191  10.546
20256W        W86665  16.523  33.486   2.680
20257W        W86666   9.457  23.173  14.393
20258W        W86667   9.064  25.129   1.494
20259W        W86668  27.509  23.687   3.047
20260W        W86669   6.321  29.604  11.206
20261W        W86670  29.016  21.478   1.749
20262W        W86671  39.930   4.590  12.088
20263W        W86672  32.406  26.898   4.472
20264W        W86673  38.832  19.699  14.881
20265W        W86674  12.394   0.804  11.156
20266W        W86675  31.181  34.554  11.368
20267W        W86676  22.621  11.789  13.124
20268W        W86677  12.616  19.331  10.715
20269W        W86678  34.489  24.383   2.160
20270W        W86679   2.678  41.910  13.941
20271W        W86680   8.123   2.353   4.146
20272W        W86681  11.686  17.169   0.811
20273W        W86682  27.457  11.971  11.861
20274W        W86683   5.366  29.273  10.243
20275W        W86684  13.734  10.940  10.582
20276W        W86685  10.013  20.082  11.601
20277W        W86686  30.969  22.681  13.341
20278W        W86687  22.861   9.480  13.447
20279W        W86688  36.536  44.033   4.089
20280W        W86689  10.185   7.136  12.333
20281W        W86690  26.472  39.915   0.295
20282W        W86691  44.491  35.489  13.036
20283W        W86692  17.769  28.967  10.716
20284W        W86693  17.662   9.307  10.706
20285W        W86694  23.938  32.454  12.011
20286W        W86695  22.630  41.570  11.668
20287W        W86696   7.983  42.051  11.794
20288W        W86697  18.918   8.427   2.119
20289W        W86698   3.376   7.978   3.768
20290W        W86699  20.077  34.576   3.845
20291W        W86700   5.817  16.375  11.994
20292W        W86701  39.083  36.051   0.345
20293W        W86702  36.385  22.938   2.354
20294W        W86703  10.432  20.169   2.778
20295W        W86704  17.000  41.290   4.592
20296W        W86705  17.062  31.448   0.687
20297W        W86706  19.794   1.658   0.532
20298W        W86707   5.500  19.273   2.113
20299W        W86708  29.568  15.133  11.038
20300W        W86709  12.425  30.943   4.069
20301W        W86710  10.083  32.481  14.918
20302W        W86711   0.235   4.226   2.613
20303W        W86712  11.385  12.045  14.349
20304W        W86713   0.804  30.576  13.135
20305W        W86714  24.708  19.472  14.854
20306W        W86715  13.716  42.273  12.977
20307W        W86716   0.053  41.802  11.087
20308W        W86717  18.786  21.093  11.946
20309W        W86718  24.605  20.150  11.536
20310W        W86719  43.905  35.982  11.904
20311W        W86720   0.536  26.978   3.688
20312W        W86721  18.044  20.097  14.432
20313W        W86722  39.043  33.816   1.734
20314W        W86723  30.406  30.444   3.398
20315W        W86724   0.835  11.451   5.032
20316W        W86725  29.423  10.298  12.090
20317W        W86726  10.644  17.720   4.552
20318W        W86727  21.608  40.966  13.536
20319W        W86728  35.444  32.084  13.982
20320W        W86729  34.441   6.790   4.001
20321W        W86730  27.079  18.522  13.890
20322W        W86731   4.425  21.509  14.979
20323W        W86732  20.213  17.380   2.224
20324W        W86733  33.642  22.698   1.234
20325W        W86734   1.360  25.347   4.922
20326W        W86735   5.934  21.287  10.650
20327W        W86736  11.294  32.349  13.284
20328W        W86737  35.148   5.103  11.549
20329W        W86738  41.327  34.041   1.309
20330W        W86739  18.199  10.218  14.473
20331W        W86740  25.486   6.746   2.528
20332W        W86741  19.163  42.015  12.886
20333W        W86742  17.231   4.412   2.219
20334W        W86743  44.305   7.254   0.466
20335W        W86744   1.005  10.815  11.112
20336W        W86745   7.122  37.382  13.102
20337W        W86746   0.293   4.724  12.005
20338W        W86747  34.651  32.441  11.638
20339W        W86748   6.846  27.614   1.642
20340W        W86749   7.922   5.694  12.792
20341W        W86750  22.960  41.470   4.944
20342W        W86751  27.312  27.106   3.536
20343W        W86752   4.345  43.880  13.629
20344W        W86753  19.161  37.503   3.206
20345W        W86754  33.610   9.343   1.737
20346W        W86755  33.084  34.137   3.469
20347W        W86756  18.637  30.439   0.573
20348W        W86757  38.047  33.123  13.870
20349W        W86758  43.780  36.333  10.463
20350W        W86759  40.017  32.257   2.127
20351W        W86760  11.955  39.057  12.374
20352W        W86761  26.975  23.538  14.978
20353W        W86762   4.862  32.429  12.156
20354W        W86763   2.864   2.804   1.377
20355W        W86764  29.152   2.534   1.732
20356W        W86765  15.294   2.327  11.713
20357W        W86766   8.717  10.979  13.814
20358W        W86767   6.451  27.163  13.830
20359W        W86768  21.373  38.715   4.168
20360W        W86769   1.969  38.898   0.345
20361W        W86770  10.458  11.800   3.498
20362W        W86771  12.897   4.607   5.528
20363W        W86772   6.477  17.014   0.828
20364W        W86773  15.082  35.334  14.181
20365W        W86774  12.450  12.130  14.020
20366W        W86775  22.283  43.876  11.943
20367W        W86776   7.946   3.556   2.893
20368W        W86777   2.860  31.367  11.690
20369W        W86778  40.860  23.262  13.321
20370W        W86779  11.814  42.587   5.378
20371W        W86780  28.098   7.422   4.160
20372W        W86781   2.240  29.521  11.217
20373W        W86782   6.149   0.839   0.878
20374W        W86783  24.217  11.863  10.727
20375W        W86784  24.744  11.568   1.360
20376W        W86785   9.112   8.143   3.299
20377W        W86786   0.053  30.652  12.030
20378W        W86787  11.962  40.399  10.675
20379W        W86788  17.736  17.583   3.517
20380W        W86789  15.902  38.478  11.853
20381W        W86790  25.233  11.724   1.327
20382W        W86791  27.600  34.892   1.377
20383W        W86792   0.356  16.695   2.156
20384W        W86793  24.992  28.569  11.199
20385W        W86794  26.759  23.166   4.023
20386W        W86795  33.620  29.839   9.980
20387W        W86796  33.702  21.238  11.023
20388W        W86797  27.957  24.440  11.581
20389W        W86798   8.147   5.832  10.677
20390W        W86799   3.422  22.653   1.425
20391W        W86800  15.814  43.296  14.841
20392W        W86801  12.602  33.888  12.382
20393W        W86802  14.176  28.100  14.946
20394W        W86803  15.725  19.521  10.061
20395W        W86804  30.185  19.175  11.578
20396W        W86805   3.143  22.689  14.225
20397W        W86806  30.493   6.680  12.841
20398W        W86807  26.269  11.072  12.349
20399W        W86808  27.870   2.315  11.558
20400W        W86809  42.343  10.131  14.771
20401W        W86810  28.466   1.403   2.310
20402W        W86811  21.323   6.469  14.031
20403W        W86812  21.741  23.611  14.243
20404W        W86813  41.718  41.897   3.215
20405W        W86814  33.845  32.679  10.393
20406W        W86815  16.003  12.947  11.498
20407W        W86816  40.816  19.098  12.429
20408W        W86817  33.395  18.672  10.271
20409W        W86818  23.576   2.669  14.395
20410W        W86819  32.860  39.135  14.968
20411W        W86820  18.752  38.900  11.917
20412W        W86821  25.575  11.136   2.330
20413W        W86822  13.610   8.618  11.704
20414W        W86823  27.165  37.950   2.911
20415W        W86824  14.219   8.364   2.511
20416W        W86825  23.126   0.855  11.899
20417W        W86826  16.188   5.326   0.447
20418W        W86827   8.384  26.438   2.825
20419W        W86828   6.877  22.493   3.823
20420W        W86829  41.889  25.783   3.676
20421W        W86830  38.121  17.660  12.635
20422W        W86831   3.873   3.814   0.773
20423W        W86832   3.546  40.463   0.275
20424W        W86833  40.290  35.478  11.066
20425W        W86834  36.306   7.427   0.716
20426W        W86835  23.556   0.800  13.013
20427W        W86836  39.456  14.038  14.526
20428W        W86837  28.656   3.264   0.854
20429W        W86838  17.652  14.346   2.845
20430W        W86839  23.498  31.476   4.538
20431W        W86840  38.482   3.329  13.337
20432W        W86841  33.022  28.930   2.726
20433W        W86842  14.722  44.736   3.816
20434W        W86843  19.072  15.526   3.733
20435W        W86844  16.390  34.442  12.082
20436W        W86845   6.612  35.984   1.751
20437W        W86846   4.822  41.293  13.916
20438W        W86847  40.509   8.098   3.965
20439W        W86848  29.962  28.151   3.223
20440W        W86849  40.869  17.346   0.697
20441W        W86850  13.546  23.296  11.132
20442W        W86851   3.995  16.015  11.302
20443W        W86852   4.733  33.607   0.076
20444W        W86853   0.263  13.187   0.300
20445W        W86854  42.372  36.487  14.443
20446W        W86855  12.659  19.864  10.698
20447W        W86856  26.607  38.876  13.398
20448W        W86857  32.820  12.164   2.820
20449W        W86858  29.934  22.121  10.724
20450W        W86859  33.504  30.660  11.642
20451W        W86860  41.884  44.404  14.327
20452W        W86861  31.284  12.880  14.330
20453W        W86862  21.537  39.161  13.480
20454W        W86863  31.619  44.867   4.112
20455W        W86864  24.464  22.410  14.778
20456W        W86865  38.024  17.850   0.712
20457W        W86866  24.722  25.748   3.621
20458W        W86867  28.806  43.305   4.112
20459W        W86868  36.799  21.821   1.054
20460W        W86869   8.771  41.534  13.758
20461W        W86870   5.850  21.353   2.864
20462W        W86871  27.646  36.808   3.240
20463W        W86872  21.750  17.149   1.731
20464W        W86873  32.463   1.757   9.846
20465W        W86874  21.231   1.242   0.395
20466W        W86875  16.773  37.977   3.482
20467W        W86876  41.453   2.254  11.122
20468W        W86877  32.536  12.184   1.972
20469W        W86878  13.224  26.552   2.859
20470W        W86879   1.682  11.926   3.705
20471W        W86880  41.381   8.391   1.783
20472W        W86881  25.604  42.310  12.074
20473W        W86882  32.146  39.432   3.162
20474W        W86883  21.521  36.902  12.609
20475W        W86884  15.487   0.475   1.888
20476W        W86885  42.786  12.249  11.738
20477W        W86886  30.188   8.724  12.098
20478W        W86887  37.017  22.524   0.029
20479W        W86888  38.010  24.655  12.827
20480W        W86889   0.834  24.700   4.850
20481W        W86890   6.934   9.917  12.262
20482W        W86891  42.660  40.986   0.451
20483W        W86892   0.945  15.689  12.408
20484W        W86893   3.220  26.930  14.821
20485W        W86894  10.889   0.857  14.302
20486W        W86895  26.173  36.892  11.181
20487W        W86896  20.803  39.424  14.715
20488W        W86897  25.283  35.255  12.386
20489W        W86898  29.696  19.698   4.943
20490W        W86899   6.766   2.771  12.247
20491W        W86900   4.424  28.223  13.645
20492W        W86901  27.149   9.802   2.437
20493W        W86902  33.658   8.461  12.597
20494W        W86903  41.137   3.175   4.257
20495W        W86904  32.202   6.732   9.877
20496W        W86905  12.474  20.529   1.767
20497W        W86906  30.041   6.806  14.505
20498W        W86907  25.256  10.611   2.818
20499W        W86908  37.831  10.642  12.002
20500W        W86909  18.305  13.368   1.654
20501W        W86910  43.211   3.474  14.039
20502W        W86911  15.810   3.471   4.090
20503W        W86912  38.509   0.537  11.062
20504W        W86913   7.456  31.507   3.128
20505W        W86914  40.078   5.641  13.786
20506W        W86915  19.674  17.609   0.103
20507W        W86916  10.905  24.135  11.819
20508W        W86917  15.858  16.618  12.355
20509W        W86918   3.171  19.379  12.752
20510W        W86919  19.605  28.935   4.059
20511W        W86920  21.433  23.459   3.641
20512W        W86921  30.288  15.134   4.290
20513W        W86922  30.840   5.134   1.015
20514W        W86923  19.722   6.334   1.727
20515W        W86924   0.247  11.443   2.614
20516W        W86925  35.914  25.047   2.837
20517W        W86926  42.113  32.323   0.826
20518W        W86927  27.960  25.450  12.484
20519W        W86928  13.429  13.024  13.374
20520W        W86929  37.017   5.206  14.129
20521W        W86930   3.727   2.270   3.700
20522W        W86931  25.751  34.298   2.644
20523W        W86932  21.181  14.679  12.042
20524W        W86933  36.589  13.103   1.449
20525W        W86934  41.671   9.177  11.547
20526W        W86935  37.094  34.271  12.954
20527W        W86936  30.996   0.722  14.000
20528W        W86937  36.794   6.715  12.050
20529W        W86938  42.345  40.369  10.348
20530W        W86939  13.800  44.377   2.222
20531W        W86940  16.764  43.381   1.779
20532W        W86941  39.803   1.255  14.457
20533W        W86942  37.273  19.485  14.549
20534W        W86943   2.264  40.567  14.854
20535W        W86944  23.977  12.071  12.946
20536W        W86945  37.925   5.633   0.921
20537W        W86946   0.442  43.444   3.597
20538W        W86947   8.981   1.980  11.517
20539W        W86948  18.274  19.283  13.760
20540W        W86949  30.698   2.438   2.802
20541W        W86950  42.626  21.859   2.206
20542W        W86951   7.599  38.024   4.531
20543W        W86952   7.781  17.081   3.554
20544W        W86953  10.899  17.857   2.761
20545W        W86954  18.340  17.288  12.198
20546W        W86955  44.548  19.211   9.990
20547W        W86956  12.377  19.206  14.885
20548W        W86957   0.354  34.720   2.248
20549W        W86958  23.505  21.506   4.518
20550W        W86959  20.043  41.627   0.306
20551W        W86960  31.258   5.747   2.937
20552W        W86961   5.135  17.966   2.329
20553W        W86962  23.203  34.081   3.280
20554W        W86963  25.400  25.277   4.357
20555W        W86964  33.034   0.721   0.480
20556W        W86965  27.552   8.268   0.339
20557W        W86966  41.573  18.156  13.435
20558W        W86967  31.179  15.706   4.868
20559W        W86968  21.486  40.425  12.111
20560W        W86969  33.369  29.012  11.639
20561W        W86970  34.991  22.468   2.226
20562W        W86971  17.175   9.692  12.117
20563W        W86972  38.495  36.972   2.266
20564W        W86973  16.191  13.199  12.048
20565W        W86974  14.817   4.343   2.368
20566W        W86975  15.525  17.260   2.159
20567W        W86976   0.796  25.462  11.277
20568W        W86977  16.480  10.199   4.884
20569W        W86978  20.314  11.812  13.342
20570W        W86979   6.393  28.170  12.160
20571W        W86980  43.725   9.039  12.882
20572W        W86981  24.657   1.729   0.245
20573W        W86982  40.421   5.225   1.465
20574W        W86983  16.777  25.686   0.382
20575W        W86984  41.506  18.270   1.782
20576W        W86985  26.562   1.004  10.494
20577W        W86986  14.339  23.458   3.429
20578W        W86987  26.627  41.757   4.784
20579W        W86988  15.356  36.150  14.431
20580W        W86989  25.976   1.931   1.683
20581W        W86990  41.500  31.635  14.234
20582W        W86991  21.102   6.375   0.451
20583W        W86992  17.099  12.739  10.680
20584W        W86993  33.288  12.232   2.120
20585W        W86994  42.980   5.044   1.907
20586W        W86995  43.478   6.679   5.385
20587W        W86996   6.463  42.491   0.726
20588W        W86997  35.865   1.542   3.935
20589W        W86998   4.739   5.364   4.713
20590W        W86999   7.380  18.733  12.931
20591W        W87000  16.121  29.288  12.923
20592W        W87001   1.518  19.946   1.843
20593W        W87002  15.686   0.193  10.991
20594W        W87003   2.742  23.323  11.880
20595W        W87004  41.273  40.461  14.470
20596W        W87005   3.246  25.753   0.341
20597W        W87006  22.191  24.976   1.749
20598W        W87007  32.528  27.219  14.856
20599W        W87008  16.762  17.751   2.338
20600W        W87009   2.654  10.808   4.545
20601W        W87010   5.362  29.259  14.486
20602W        W87011  29.154  21.669  10.850
20603W        W87012  35.733   2.941   4.366
20604W        W87013  16.838  35.986  13.939
20605W        W87014   4.809  15.337  13.821
20606W        W87015  30.632  21.504  11.126
20607W        W87016  21.117  44.474   0.743
20608W        W87017  12.498  28.424  11.622
20609W        W87018  25.113  38.689   0.512
20610W        W87019  25.490  21.180   3.609
20611W        W87020  39.089  27.147   1.673
20612W        W87021  25.866  27.492   1.300
20613W        W87022   2.494  37.472  13.154
20614W        W87023  26.087  30.569  14.491
20615W        W87024  39.951  28.658  11.015
20616W        W87025   7.381  38.862  14.785
20617W        W87026  27.791  32.596   4.597
20618W        W87027  22.761  39.186   0.442
20619W        W87028  16.299   9.820   2.721
20620W        W87029  43.988  22.030   2.326
20621W        W87030  24.682  27.280  13.004
20622W        W87031  21.083  32.862   3.608
20623W        W87032  38.826   4.469   2.229
20624W        W87033  15.300  20.530  13.526
20625W        W87034  41.414  19.383   3.781
20626W        W87035  23.468  39.156   1.836
20627W        W87036   4.853  22.078  12.830
20628W        W87037  29.515   2.840   5.206
20629W        W87038  26.118  12.056  12.119
20630W        W87039  26.188  40.429   2.644
20631W        W87040   8.161  18.702   2.734
20632W        W87041  17.161   2.094  14.823
20633W        W87042  30.705  37.586  14.958
20634W        W87043  17.350  20.796   1.401
20635W        W87044   3.957  22.211   2.224
20636W        W87045  11.755  12.064   4.497
20637W        W87046   7.052   5.536  12.872
20638W        W87047  27.092  26.226   3.432
20639W        W87048  31.561   5.164   1.556
20640W        W87049  32.294  23.132  14.993
20641W        W87050  41.069   9.744   1.240
20642W        W87051  18.684  14.888  11.079
20643W        W87052  40.065  13.808   3.742
20644W        W87053  38.014  35.434  10.686
20645W        W87054  21.723  44.196   2.788
20646W        W87055  35.339  38.333   2.333
20647W        W87056   6.803  18.124  12.369
20648W        W87057   9.910   6.796  10.961
20649W        W87058  11.736  10.908   0.459
20650W        W87059   5.838  20.061  12.876
20651W        W87060   6.223  38.805  10.819
20652W        W87061  42.839  30.988  11.205
20653W        W87062   7.149  34.505   1.268
20654W        W87063  17.039  44.566  10.615
20655W        W87064  27.698  20.767  10.533
20656W        W87065  30.657   3.740  11.584
20657W        W87066  20.548  11.270   1.622
20658W        W87067   7.235  36.017  14.550
20659W        W87068  14.144   2.715  12.487
20660W        W87069   0.604   2.867   3.329
20661W        W87070  16.971  11.816   0.549
20662W        W87071  16.361  16.689  12.454
20663W        W87072   8.095  31.956   4.424
20664W        W87073  12.078  11.770   0.984
20665W        W87074  43.801  14.780   0.838
20666W        W87075  17.864  43.529  10.913
20667W        W87076  43.133   0.336   4.384
20668W        W87077  22.995  38.788   2.754
20669W        W87078   0.221  33.040   2.738
20670W        W87079  21.751  43.850  12.808
20671W        W87080  43.456  18.051   1.238
20672W        W87081   5.267  17.199   4.698
20673W        W87082   1.754  29.915   3.718
20674W        W87083   4.710  25.905  11.251
20675W        W87084  40.254   6.414  13.825
20676W        W87085   4.539  20.568   1.461
20677W        W87086   7.332  35.329  10.904
20678W        W87087  34.305  27.575  11.971
20679W        W87088  16.047   1.857  13.407
20680W        W87089   7.612   3.315   4.096
20681W        W87090  35.459   5.455  12.556
20682W        W87091   9.106   8.696   4.204
20683W        W87092  21.299  33.136  11.266
20684W        W87093   5.258   6.147   4.228
20685W        W87094   1.896   8.498   0.697
20686W        W87095  40.298  26.374   4.213
20687W        W87096  29.218  40.012  13.687
20688W        W87097  37.971  24.778  11.888
20689W        W87098  14.220  20.523   2.502
20690W        W87099  26.107  41.692   3.134
20691W        W87100  24.775  43.816  13.090
20692W        W87101  14.579  29.161  11.214
20693W        W87102  34.148   6.363   3.858
20694W        W87103  24.303  13.174  12.030
20695W        W87104   1.405  29.785   4.617
20696W        W87105  37.429  34.324  10.858
20697W        W87106  16.017   5.670   0.798
20698W        W87107   6.015   5.011  10.768
20699W        W87108  10.800  39.859  13.466
20700W        W87109   8.406  31.566  11.051
20701W        W87110  32.946  24.675   1.947
20702W        W87111  43.553  33.618  13.042
20703W        W87112  19.576   3.269   4.169
20704W        W87113  32.879   2.221  13.289
20705W        W87114  42.619   1.910  11.605
20706W        W87115  26.738   5.321  11.047
20707W        W87116   8.833  24.417  12.203
20708W        W87117   2.023  30.411   4.733
20709W        W87118   6.951   8.249   0.703
20710W        W87119  19.613  26.058  14.449
20711W        W87120  34.953   7.848   4.686
20712W        W87121   0.709  27.912  11.525
20713W        W87122   8.693  19.340  11.897
20714W        W87123  16.018   2.849   3.362
20715W        W87124  23.840  44.622  11.754
20716W        W87125  41.240  22.258  12.910
20717W        W87126  11.071  18.203  11.890
20718W        W87127  18.635  25.560   2.201
20719W        W87128  20.151  17.294   3.977
20720W        W87129  34.808  34.905   3.577
20721W        W87130   2.852  36.577   4.643
20722W        W87131  24.909  30.015  14.173
20723W        W87132  44.267  39.037  11.410
20724W        W87133  35.709  43.959  12.400
20725W        W87134  35.867  43.562  12.086
20726W        W87135  41.973  18.199   3.283
20727W        W87136  13.328  26.793  13.903
20728W        W87137   9.089  21.172   0.622
20729W        W87138   4.245  17.884  14.209
20730W        W87139  13.218  14.683   4.767
20731W        W87140   1.393  42.364   1.671
20732W        W87141  31.972  36.124   3.754
20733W        W87142  39.517  28.652  10.695
20734W        W87143  10.262  25.764  11.125
20735W        W87144  34.956  22.989  12.987
20736W        W87145   0.363  39.225  10.505
20737W        W87146  38.017  42.426  13.969
20738W        W87147  17.324  27.222  13.108
20739W        W87148  16.424  17.901   2.741
20740W        W87149  28.387  36.364   1.906
20741W        W87150   5.387  17.272   3.342
20742W        W87151  24.171  26.946  12.132
20743W        W87152  20.762  27.813   4.695
20744W        W87153   0.797   9.817   1.389
20745W        W87154  35.929   8.439  14.074
20746W        W87155  28.879   4.221   4.493
20747W        W87156  10.735  26.499  13.045
20748W        W87157  34.569  25.240  11.939
20749W        W87158  43.938  32.681   3.438
20750W        W87159  40.825   5.483   1.691
20751W        W87160  13.131  24.159  11.159
20752W        W87161  41.306  36.390  11.238
20753W        W87162  43.939  26.008  13.798
20754W        W87163  17.454  32.914  14.882
20755W        W87164  40.995  35.994   1.916
20756W        W87165  23.418  33.560  13.842
20757W        W87166  36.225  42.407  13.381
20758W        W87167  18.609  12.267  12.603
20759W        W87168  25.241  21.044   4.974
20760W        W87169  21.568  39.352   1.851
20761W        W87170  33.032  20.265  12.593
20762W        W87171  36.122   5.862   4.232
20763W        W87172  42.740  27.076   3.363
20764W        W87173  19.056  41.909  14.667
20765W        W87174  30.580  37.955  12.499
20766W        W87175  13.638  11.111  14.769
20767W        W87176  38.582   4.966   4.845
20768W        W87177   0.052  15.635   0.302
20769W        W87178  38.167  23.912   1.101
20770W        W87179  39.885  18.213  10.940
20771W        W87180  44.928  26.538  14.973
20772W        W87181  34.370  37.848  14.438
20773W        W87182  43.907  40.045   3.374
20774W        W87183  41.245  37.591  14.472
20775W        W87184  13.429  22.086  11.718
20776W        W87185  21.951   3.217   4.244
20777W        W87186  13.689  16.607   0.996
20778W        W87187  12.444  44.376  12.308
20779W        W87188  31.818  34.952  12.527
20780W        W87189  36.808  18.237   1.880
20781W        W87190   8.088  41.762   3.141
20782W        W87191  12.748   8.941  13.948
20783W        W87192  39.602  16.697   1.324
20784W        W87193   6.644   0.926  12.068
20785W        W87194   9.339  27.818  11.161
20786W        W87195  43.822  43.284  11.128
20787W        W87196  41.812   4.726  12.036
20788W        W87197  17.405   0.564  13.307
20789W        W87198  25.945  27.674   2.647
20790W        W87199  42.472  10.890   0.257
20791W        W87200   2.781  12.821  14.565
20792W        W87201  41.199  30.601   2.327
20793W        W87202   6.451  31.613   3.312
20794W        W87203  32.474  21.889   2.285
20795W        W87204  16.632  25.457   4.599
20796W        W87205  26.466  44.405   0.452
20797W        W87206  35.287  13.721  14.864
20798W        W87207  10.638  20.671   4.918
20799W        W87208  39.343  21.261  11.179
20800W        W87209  12.655   3.790   3.638
20801W        W87210  38.946  40.065  13.131
20802W        W87211  14.252  27.197   2.197
20803W        W87212   2.981  18.969   4.181
20804W        W87213  37.773  23.295   3.846
20805W        W87214  35.606  16.150   0.326
20806W        W87215  28.156  28.962   1.179
20807W        W87216  25.347  24.030  11.188
20808W        W87217  25.969   8.882  13.933
20809W        W87218  41.355   9.660  13.939
20810W        W87219  28.499  31.110   2.616
20811W        W87220  32.382  16.699  10.637
20812W        W87221   5.944  33.412  10.625
20813W        W87222   4.558  38.447  10.751
20814W        W87223  37.074   9.687  10.493
20815W        W87224  31.643   5.973  12.740
20816W        W87225  38.396  42.807   4.801
20817W        W87226   5.321  20.752   3.191
20818W        W87227  27.916  12.401  12.297
20819W        W87228  10.942  41.424  13.876
20820W        W87229  41.178  18.655   5.160
20821W        W87230  43.454  37.901  10.647
20822W        W87231   4.436  38.860  11.379
20823W        W87232  39.262   3.442  10.847
20824W        W87233  22.071  38.902  14.716
20825W        W87234  34.952  27.462   1.769
20826W        W87235   4.400  16.840  14.913
20827W        W87236  16.036  35.544   3.482
20828W        W87237  12.760  15.949  11.520
20829W        W87238  18.791  17.787   3.919
20830W        W87239  10.462  11.281  12.491
20831W        W87240  44.389  17.474  12.489
20832W        W87241  36.820  40.248   4.177
20833W        W87242  17.477  24.691   0.915
20834W        W87243  33.033  32.087  10.625
20835W        W87244  23.114  26.724   3.794
20836W        W87245   3.808  43.905   4.159
20837W        W87246  35.090  13.221   0.769
20838W        W87247   8.120  36.037   0.445
20839W        W87248   2.926  29.185   4.773
20840W        W87249  32.508  11.167   4.545
20841W        W87250   3.340   0.074   3.533
20842W        W87251  39.401  22.477   3.046
20843W        W87252  29.539  15.780   3.771
20844W        W87253   2.299  22.949  12.800
20845W        W87254  23.254   4.422   3.375
20846W        W87255   5.411  12.702   0.770
20847W        W87256  35.183   1.164  11.947
20848W        W87257  28.631   5.761   2.233
20849W        W87258  41.802   3.055   0.881
20850W        W87259  29.384  25.934   3.252
20851W        W87260  12.355   7.634  14.719
20852W        W87261  36.971   5.476  12.164
20853W        W87262   2.130   2.501  12.120
20854W        W87263  18.308  29.473   1.077
20855W        W87264  41.094  21.166   4.675
20856W        W87265  23.114  44.235   3.281
20857W        W87266   5.748   1.930  14.414
20858W        W87267  16.315   2.496   3.725
20859W        W87268  18.334  13.631  12.951
20860W        W87269  15.405   2.259   0.843
20861W        W87270  33.078  28.091  12.178
20862W        W87271  27.089  20.183  10.304
20863W        W87272   1.239  14.063  12.168
20864W        W87273   2.308   6.803   3.781
20865W        W87274   7.096   4.544   2.100
20866W        W87275  44.753  20.154   0.745
20867W        W87276  36.326  12.584   2.340
20868W        W87277   0.153   9.818  10.030
20869W        W87278  24.657  33.810   2.490
20870W        W87279   8.128  23.522   3.797
20871W        W87280  27.385  29.468   3.250
20872W        W87281   3.219  24.756   4.605
20873W        W87282  20.686  29.507  11.485
20874W        W87283  21.062   6.634   3.748
20875W        W87284   6.478  25.964   2.675
20876W        W87285  35.946  21.141  12.056
20877W        W87286  35.338  15.027  14.900
20878W        W87287  37.878   9.232  12.944
20879W        W87288  37.634  39.035  12.370
20880W        W87289  36.820  17.592   9.959
20881W        W87290  13.218  13.874   2.792
20882W        W87291  36.462  13.690  12.306
20883W        W87292   4.413  10.910   0.309
20884W        W87293  34.667  33.467   3.715
20885W        W87294  34.321  18.257   4.471
20886W        W87295  29.608   1.954  13.590
20887W        W87296  14.289  17.126  14.781
20888W        W87297  24.211   6.513   1.896
20889W        W87298  17.290   3.752  14.511
20890W        W87299   7.847  26.529   1.895
20891W        W87300  19.765  21.954   0.525
20892W        W87301  26.266  23.924   1.321
20893W        W87302  29.209  18.576  12.920
20894W        W87303  38.122  20.204   3.741
20895W        W87304  27.144   8.998  11.239
20896W        W87305  24.058  36.495   3.131
20897W        W87306  10.445  16.160  10.740
20898W        W87307   2.420  11.298  13.582
20899W        W87308  25.553  43.210   0.810
20900W        W87309  37.095  33.758   2.352
20901W        W87310   8.690   6.202  14.620
20902W        W87311   4.419  41.917  14.462
20903W        W87312  38.264  22.345   1.944
20904W        W87313  14.147  22.525  11.077
20905W        W87314  23.670  31.966   4.598
20906W        W87315  13.508  13.013  10.152
20907W        W87316   5.184  12.305  12.982
20908W        W87317  21.442   1.404   0.917
20909W        W87318  11.864  32.829  13.993
20910W        W87319  24.144   6.193  11.229
20911W        W87320  35.158  44.976   2.284
20912W        W87321  29.697  38.923   4.108
20913W        W87322   5.785   7.018  12.944
20914W        W87323  25.109  40.499  14.797
20915W        W87324  17.713   5.836   0.225
20916W        W87325  10.442  28.813   2.163
20917W        W87326  17.466   9.234   0.348
20918W        W87327  28.486   4.837   1.553
20919W        W87328  19.261  40.538  14.091
20920W        W87329  39.226  15.797   1.360
20921W        W87330  21.133  32.359   1.769
20922W        W87331  18.200  17.618   2.797
20923W        W87332  15.554  17.705  12.912
20924W        W87333  39.370  21.094   3.227
20925W        W87334  40.529   3.385  10.757
20926W        W87335  22.522  22.610  12.285
20927W        W87336  41.068  33.924  13.119
20928W        W87337  33.535  16.022   4.975
20929W        W87338  28.040  40.972  12.183
20930W        W87339  15.732   6.773  11.141
20931W        W87340   6.677  40.252   2.831
20932W        W87341  40.606  31.364   4.380
20933W        W87342   8.252  10.439  10.417
20934W        W87343   8.829  19.827   3.314
20935W        W87344  34.584  34.789   1.721
20936W        W87345  24.594   3.995   4.535
20937W        W87346   4.227  12.299  12.036
20938W        W87347   0.681  40.745  14.272
20939W        W87348  43.018  12.204  10.800
20940W        W87349  32.228  17.676   4.681
20941W        W87350  16.621  29.846   2.815
20942W        W87351  17.384  36.415  11.881
20943W        W87352  20.233  40.778  14.911
20944W        W87353  42.293  22.111   3.741
20945W        W87354  36.396   0.779  14.760
20946W        W87355  12.242  11.157   2.171
20947W        W87356  28.761  23.919   4.499
20948W        W87357  43.809  18.737   1.739
20949W        W87358  18.215  35.520  14.948
20950W        W87359  18.891  21.605   3.605
20951W        W87360  44.017  11.816   5.041
20952W        W87361  34.499   0.472  11.595
20953W        W87362  23.701  10.878  11.201
20954W        W87363  37.834  27.690  12.976
20955W        W87364  21.165  34.587   0.443
20956W        W87365  31.082  32.065  13.580
20957W        W87366  21.325   2.410   1.701
20958W        W87367  43.516  39.806   4.565
20959W        W87368   6.602   5.806  12.132
20960W        W87369  15.743   2.065  14.222
20961W        W87370  19.175  39.852   2.430
20962W        W87371  10.768  40.608  10.829
20963W        W87372  25.503  40.150  14.622
20964W        W87373   8.943  34.378  12.089
20965W        W87374  40.875   1.229  13.530
20966W        W87375  32.443  10.803  13.832
20967W        W87376   1.475  36.124   0.355
20968W        W87377   1.704  40.553  11.574
20969W        W87378  38.107   1.002  10.292
20970W        W87379   8.928  11.109   3.333
20971W        W87380  44.662   7.755   0.808
20972W        W87381  33.194  36.778  14.764
20973W        W87382  26.269  26.126   1.804
20974W        W87383   3.884  36.063   3.356
20975W        W87384  18.298  37.077   4.989
20976W        W87385  17.187  25.555   1.990
20977W        W87386   3.386   9.366   4.030
20978W        W87387  23.460   4.843  11.412
20979W        W87388   0.342  22.187   3.611
20980W        W87389  12.901  37.766   5.371
20981W        W87390  34.375  14.080  12.956
20982W        W87391  30.044  24.472   4.782
20983W        W87392   1.931   6.282   4.646
20984W        W87393  23.293  39.069   4.220
20985W        W87394  32.992  13.097   1.931
20986W        W87395  44.909  15.810  13.452
20987W        W87396  23.266  28.075  14.879
20988W        W87397  42.336   2.408  13.844
20989W        W87398  41.807   2.879   3.939
20990W        W87399   6.405  43.238  12.056
20991W        W87400  33.556  40.003   2.284
20992W        W87401  31.152  13.266   2.358
20993W        W87402  16.090  18.617   1.282
20994W        W87403  43.556  38.517   0.796
20995W        W87404  38.597  31.604  12.501
20996W        W87405  36.315  36.022  14.953
20997W        W87406  44.138  36.383  10.037
20998W        W87407  42.830  18.636   4.959
20999W        W87408  33.467  36.633   0.304
21000W        W87409   6.244   6.497   0.565
21001W        W87410  15.259   7.728   3.146
21002W        W87411  29.999  28.133   4.657
21003W        W87412   2.959  18.557   1.790
21004W        W87413  21.773  14.689   3.729
21005W        W87414  17.324   1.819   0.248
21006W        W87415   5.914  42.739   2.248
21007W        W87416  23.043  32.114   0.337
21008W        W87417   8.781   0.361   5.060
21009W        W87418  22.246  37.575   3.813
21010W        W87419  17.209  42.934   3.767
21011W        W87420  27.534  31.369  13.425
21012W        W87421   3.004  24.245   3.785
21013W        W87422  37.785   4.911   1.120
21014W        W87423  34.074   8.336   1.431
21015W        W87424  15.913   8.268   1.633
21016W        W87425  11.218  31.628   0.252
21017W        W87426  17.098  37.396  13.469
21018W        W87427   0.368  20.749  14.689
21019W        W87428  19.996  25.785   4.166
21020W        W87429  33.577  31.098  12.612
21021W        W87430   7.935  28.348   2.642
21022W        W87431  32.245  28.285  14.868
21023W        W87432  33.844  15.524   4.351
21024W        W87433  28.035   8.734   3.386
21025W        W87434   1.718  33.499   1.863
21026W        W87435  14.102  29.393   4.423
21027W        W87436  17.965  37.989  11.095
21028W        W87437   2.231  35.673   4.224
21029W        W87438  12.062  21.286   3.864
21030W        W87439  39.590  11.938   3.288
21031W        W87440  36.171   6.269   4.899
21032W        W87441   8.224  16.619  12.131
21033W        W87442  18.000  43.821   4.598
21034W        W87443  39.963  42.838   4.882
21035W        W87444  38.974  43.992   1.516
21036W        W87445  41.109   7.250  11.509
21037W        W87446  44.253  40.038  14.967
21038W        W87447   8.311  19.067   1.464
21039W        W87448  33.860  12.932   2.730
21040W        W87449  38.941  41.219   3.138
21041W        W87450   3.270  42.339  10.941
21042W        W87451  15.928   7.568   4.063
21043W        W87452   9.244  24.609   2.683
21044W        W87453  34.638  31.134   1.381
21045W        W87454  41.638  18.783  11.672
21046W        W87455  27.458  34.073   2.886
21047W        W87456  15.676  42.099   2.750
21048W        W87457  12.690  38.995  14.255
21049W        W87458  42.027  36.980  14.339
21050W        W87459  31.964  35.451  12.437
21051W        W87460  11.265  27.107  13.529
21052W        W87461  22.089  44.008   1.288
21053W        W87462  16.948  11.390   0.287
21054W        W87463  33.656  24.529  12.392
21055W        W87464   9.773  30.938   0.433
21056W        W87465  36.556  33.163   1.919
21057W        W87466  12.367  22.946   3.120
21058W        W87467  43.485  37.602  13.299
21059W        W87468  17.297  20.416   2.285
21060W        W87469  39.289  16.737  11.785
21061W        W87470  16.243  18.575  13.468
21062W        W87471   6.814  14.570  12.404
21063W        W87472   1.378  10.751   4.190
21064W        W87473  18.160  21.489  13.015
21065W        W87474  32.090  19.613  12.280
21066W        W87475  34.054  39.514  14.980
21067W        W87476  36.554  23.299  13.882
21068W        W87477  19.106  36.492   2.309
21069W        W87478   9.917  34.486   3.750
21070W        W87479  33.574  28.174   2.179
21071W        W87480  12.914  19.464   4.993
21072W        W87481   0.961   1.875  12.108
21073W        W87482  19.574  28.240   1.851
21074W        W87483  19.816  25.478   3.697
21075W        W87484  34.898   6.276   4.553
21076W        W87485  25.919  24.728   0.410
21077W        W87486  21.092  44.335   5.018
21078W        W87487   8.543  20.504   3.702
21079W        W87488  43.922  22.962  11.714
21080W        W87489  39.613  44.934   3.229
21081W        W87490  40.909  17.757  13.395
21082W        W87491  19.262  20.558  11.568
21083W        W87492  10.715  21.223   5.010
21084W        W87493   2.468   0.999   4.587
21085W        W87494  17.282  15.649  14.710
21086W        W87495  37.350  23.049  10.902
21087W        W87496  34.261  29.039   4.733
21088W        W87497  38.909  22.919  13.951
21089W        W87498   6.614  29.032   3.955
21090W        W87499   8.705   8.202   0.907
21091W        W87500  10.259  36.925   9.780
21092W        W87501  36.590  35.534  13.486
21093W        W87502  34.673  37.994  14.818
21094W        W87503  10.143  42.625  13.516
21095W        W87504  39.022  25.575  14.344
21096W        W87505  12.569  39.832   0.728
21097W        W87506   2.682  39.970   1.357
21098W        W87507  36.814   4.906   2.688
21099W        W87508  36.336  14.331   3.302
21100W        W87509  25.783  22.453  11.610
21101W        W87510  16.280  34.616  13.091
21102W        W87511  31.308  29.987  13.045
21103W        W87512  31.010  28.771  14.552
21104W        W87513  39.619  44.738  11.943
21105W        W87514   8.562  18.089   1.734
21106W        W87515  27.930  26.076  14.461
21107W        W87516  16.358   8.459  11.076
21108W        W87517  11.068  37.942   1.758
21109W        W87518  24.084  15.280   3.820
21110W        W87519   1.231   1.842  13.033
21111W        W87520  36.294   1.444   4.663
21112W        W87521  38.878  10.848  13.745
21113W        W87522  43.747  42.347   4.036
21114W        W87523  15.014  17.716   3.189
21115W        W87524  21.156   7.700  13.453
21116W        W87525  16.378  15.893  12.039
21117W        W87526  30.183  11.924  10.670
21118W        W87527  13.853   9.191   2.302
21119W        W87528  22.867  11.042   2.280
21120W        W87529   9.025  31.304  12.134
21121W        W87530  24.201  20.506  11.455
21122W        W87531   4.738  44.822   2.749
21123W        W87532  20.083  36.406   2.060
21124W        W87533  18.068  23.712  12.114
21125W        W87534  37.704  10.266   3.263
21126W        W87535   4.864  37.901   3.888
21127W        W87536   2.927   5.772   4.244
21128W        W87537  31.020  25.440   3.562
21129W        W87538  21.304  31.782  11.630
21130W        W87539  29.024  17.331   0.217
21131W        W87540   7.773  38.056   4.026
21132W        W87541  24.169   2.849  12.362
21133W        W87542  31.583  21.705   3.737
21134W        W87543  27.048  39.269   0.754
21135W        W87544  28.471  23.782   2.231
21136W        W87545  25.703  11.723  11.984
21137W        W87546  19.805   7.722   4.941
21138W        W87547  44.365  11.348   2.688
21139W        W87548  13.177  41.384  14.645
21140W        W87549  25.190  15.317  13.926
21141W        W87550  22.922   2.755   2.351
21142W        W87551  30.474  24.225   1.892
21143W        W87552  41.054  23.065   4.415
21144W        W87553   7.440   3.445  11.958
21145W        W87554  37.296  24.455   0.840
21146W        W87555   0.441  16.810  12.569
21147W        W87556  30.058  24.642  14.906
21148W        W87557  32.461  18.944  14.085
21149W        W87558  16.365  12.285  12.400
21150W        W87559  43.273  40.561  12.484
21151W        W87560  40.244  26.502   1.653
21152W        W87561   5.453  31.708  14.983
21153W        W87562  30.124   9.410  10.305
21154W        W87563  16.240  37.773  12.122
21155W        W87564  41.505  21.326  13.439
21156W        W87565   8.072   5.217   0.552
21157W        W87566  38.748   8.876  13.808
21158W        W87567  39.421  12.383  13.534
21159W        W87568  38.934  37.067  14.571
21160W        W87569  37.430   7.524  12.918
21161W        W87570  31.498  19.768  14.067
21162W        W87571  38.269  11.914  13.427
21163W        W87572  10.113  32.695   2.928
21164W        W87573  15.630  21.754   1.412
21165W        W87574  30.062  34.049   4.255
21166W        W87575  10.416  30.937   3.134
21167W        W87576   9.362  11.717   2.030
21168W        W87577  12.130  25.110   4.539
21169W        W87578  16.619  23.626  13.066
21170W        W87579  27.712  40.458   2.231
21171W        W87580  42.849  32.901  12.423
21172W        W87581  34.983  20.684   1.893
21173W        W87582  18.289   4.368   2.354
21174W        W87583  10.195   0.871   0.887
21175W        W87584   6.193  41.285   3.586
21176W        W87585  10.794   7.794  11.251
21177W        W87586  44.621  20.573   3.628
21178W        W87587  35.723   1.708   9.757
21179W        W87588   8.819  38.077   4.937
21180W        W87589  13.288  42.842  11.973
21181W        W87590   9.401  14.027  14.791
21182W        W87591  15.013  12.809  12.012
21183W        W87592  10.416  13.790  12.447
21184W        W87593   5.255  34.653  11.229
21185W        W87594  35.384  19.112   4.405
21186W        W87595  38.131  30.534   0.391
21187W        W87596  29.846  34.426   2.703
21188W        W87597   3.680  21.646   0.408
21189W        W87598  22.930   5.305   1.146
21190W        W87599  29.133  17.762  12.405
21191W        W87600  16.167  35.512  12.621
21192W        W87601  14.673   7.799  10.722
21193W        W87602  44.301  41.121   2.845
21194W        W87603  39.363  27.689  14.971
21195W        W87604  15.591   6.234   1.664
21196W        W87605  35.709  38.070  12.360
21197W        W87606  20.611  31.476   3.107
21198W        W87607  31.247  40.074   3.888
21199W        W87608   0.144   5.355  14.434
21200W        W87609  42.892  10.248   0.924
21201W        W87610  14.152  44.185  11.614
21202W        W87611   9.607   9.582   0.253
21203W        W87612  31.484  26.772  14.513
21204W        W87613  25.641  30.149  13.343
21205W        W87614  37.584  29.424   4.738
21206W        W87615  13.192  27.752   3.372
21207W        W87616  30.879  41.934   1.942
21208W        W87617  38.329   9.393   3.024
21209W        W87618  23.379  12.337   4.744
21210W        W87619  18.182  38.065  12.108
21211W        W87620   5.363  41.318   4.155
21212W        W87621   6.331  21.062   4.117
21213W        W87622   4.836  20.520   4.957
21214W        W87623   5.701  32.296   3.365
21215W        W87624  43.185  23.000   3.037
21216W        W87625  27.149  30.927   1.936
21217W        W87626  28.484  22.142   2.639
21218W        W87627  16.775  25.980   2.701
21219W        W87628  18.125  16.097  14.745
21220W        W87629  43.797   8.886  13.370
21221W        W87630  10.780  31.889  11.034
21222W        W87631  33.879  28.205   0.301
21223W        W87632  11.600  15.960   1.422
21224W        W87633  35.534  38.963  11.869
21225W        W87634  37.100   3.502   3.147
21226W        W87635  33.998  15.774   3.927
21227W        W87636   2.967  16.344  12.422
21228W        W87637  31.009  23.561   2.876
21229W        W87638  44.476  30.099  14.838
21230W        W87639  21.643  41.267  11.577
21231W        W87640   2.027  43.938  14.777
21232W        W87641   1.534  32.495  12.206
21233W        W87642  31.409  12.317  13.487
21234W        W87643   0.756  13.646  11.438
21235W        W87644   9.977   4.039  11.093
21236W        W87645  38.850   6.885  12.122
21237W        W87646   9.351  40.025  10.657
21238W        W87647  29.610  22.511  11.249
21239W        W87648  14.887   9.189  12.015
21240W        W87649  37.388  20.030  11.292
21241W        W87650  32.319   2.063  12.074
21242W        W87651  39.133  17.168  12.022
21243W        W87652  43.575  37.310   2.370
21244W        W87653  35.522  23.084  10.674
21245W        W87654  10.777  18.880   2.869
21246W        W87655  29.193   5.443  13.144
21247W        W87656  41.824  17.786   2.718
21248W        W87657  29.216  15.072  14.870
21249W        W87658   0.319  30.610   1.685
21250W        W87659  18.824   2.524  13.386
21251W        W87660  43.532   7.969  13.778
21252W        W87661   9.321   4.676   2.294
21253W        W87662  10.742   8.454   2.305
21254W        W87663   6.761  11.307   0.046
21255W        W87664  38.574  16.008  13.723
21256W        W87665  32.345  33.418   9.904
21257W        W87666  14.307  29.995   3.679
21258W        W87667  12.675  19.622   4.549
21259W        W87668  39.018  42.244  14.336
21260W        W87669   2.500  39.083  12.453
21261W        W87670  23.959   4.943  11.494
21262W        W87671  17.412  19.948   2.056
21263W        W87672  20.575   8.397   3.175
21264W        W87673  24.964  21.187   3.583
21265W        W87674  30.140   8.888  13.517
21266W        W87675   6.033  13.720   0.756
21267W        W87676  42.852  11.631   0.463
21268W        W87677  22.133   1.650   2.712
21269W        W87678  39.010  14.305   3.649
21270W        W87679   9.914  43.044  13.773
21271W        W87680   5.288   4.939  10.255
21272W        W87681   3.415   2.197   5.181
21273W        W87682  13.592  18.180  13.560
21274W        W87683  25.208   8.924   2.848
21275W        W87684  22.101  25.838   4.114
21276W        W87685  21.492  11.346  14.409
21277W        W87686   6.231  28.617   2.271
21278W        W87687  20.799  25.943   1.787
21279W        W87688  14.249  13.423   3.298
21280W        W87689  12.025  20.711   0.516
21281W        W87690   7.172  12.379  11.535
21282W        W87691   6.261  24.157   2.827
21283W        W87692  14.717  19.234  12.450
21284W        W87693  22.301   9.433   4.486
21285W        W87694  37.627   7.846  12.548
21286W        W87695  15.520  27.863  11.097
21287W        W87696  20.004   0.046  13.107
21288W        W87697  22.142   6.159  12.266
21289W        W87698  23.550  14.539  12.019
21290W        W87699   7.207   0.925  12.830
21291W        W87700   7.937  42.769   2.799
21292W        W87701  43.584  25.384  10.628
21293W        W87702   0.038  40.058   0.697
21294W        W87703  42.720  37.498  14.515
21295W        W87704  13.902  19.988   4.128
21296W        W87705  42.256   6.526  12.181
21297W        W87706  41.327  20.496   4.197
21298W        W87707  30.640  16.329  12.813
21299W        W87708  18.524  32.132  11.252
21300W        W87709   7.900  42.869   1.167
21301W        W87710  40.416  20.929   5.371
21302W        W87711  32.894   9.571  14.231
21303W        W87712  43.800  34.750   0.021
21304W        W87713   7.431  19.295  12.355
21305W        W87714  34.650  21.271  11.966
21306W        W87715  18.652   7.362   1.180
21307W        W87716  28.163   6.439   4.563
21308W        W87717  30.093   9.354   3.883
21309W        W87718   3.422  37.867  12.424
21310W        W87719  21.674  38.057  13.291
21311W        W87720  27.231  32.144  14.278
21312W        W87721  19.270  23.010   1.740
21313W        W87722   4.135  21.514   4.255
21314W        W87723   7.069  11.877   4.328
21315W        W87724  20.951  42.781  13.975
21316W        W87725  19.575  18.289  13.285
21317W        W87726  29.304  37.008   2.812
21318W        W87727   7.488   0.411   2.427
21319W        W87728   4.876   7.137   0.475
21320W        W87729  43.409   9.815   3.118
21321W        W87730  24.119  33.749  11.337
21322W        W87731  15.220  32.901  12.131
21323W        W87732  13.208  42.482  13.544
21324W        W87733  34.399  10.733   1.612
21325W        W87734  41.467  16.279  12.960
21326W        W87735  10.060  12.458   1.730
21327W        W87736  35.164  43.902  11.626
21328W        W87737   5.724  21.700  13.478
21329W        W87738  14.079   9.190   1.845
21330W        W87739  40.527  10.638   2.178
21331W        W87740  27.629  35.949   4.197
21332W        W87741  36.418  33.014  12.085
21333W        W87742   1.323   3.466   1.781
21334W        W87743  35.079  25.592  13.117
21335W        W87744  19.272  26.714   1.698
21336W        W87745  42.355  26.337   0.305
21337W        W87746   4.532   3.955  14.314
21338W        W87747  29.686  16.324  14.902
21339W        W87748  38.651  23.171   3.727
21340W        W87749  16.574  29.393  14.382
21341W        W87750  22.490  16.800  11.941
21342W        W87751  10.263  40.957   1.160
21343W        W87752   1.681   7.007  14.446
21344W        W87753  37.257  26.036  14.352
21345W        W87754  31.285  27.317  13.090
21346W        W87755  29.945   9.345   1.678
21347W        W87756  32.575   8.164  10.491
21348W        W87757  38.094  25.894   1.553
21349W        W87758  25.719  39.896   3.716
21350W        W87759  12.931  34.345   4.720
21351W        W87760  33.461  35.463  12.868
21352W        W87761  40.292  40.022   0.455
21353W        W87762  31.499  17.788   0.972
21354W        W87763  17.329  17.054  13.001
21355W        W87764  22.719  35.120   3.594
21356W        W87765  37.878  25.053  14.114
21357W        W87766  29.011  29.415  14.514
21358W        W87767  36.918  19.493  12.082
21359W        W87768   7.180  18.322  11.030
21360W        W87769  18.749  39.319   2.860
21361W        W87770  25.196  30.873  13.614
21362W        W87771  38.760  27.565  11.043
21363W        W87772  28.402  44.479  12.817
21364W        W87773  35.691  37.819   0.694
21365W        W87774  22.783  31.035  13.761
21366W        W87775  12.407   6.351  14.855
21367W        W87776  13.191  28.491  14.525
21368W        W87777  42.013  35.563  10.569
21369W        W87778   9.636   4.401  11.177
21370W        W87779  18.996  18.863  12.081
21371W        W87780  35.814   8.842   3.178
21372W        W87781   2.754  36.377  14.353
21373W        W87782  22.266  23.060   4.304
21374W        W87783  41.498  17.742   4.499
21375W        W87784  41.953  10.079   3.112
21376W        W87785   5.684  30.891   3.370
21377W        W87786  44.264  23.572   1.392
21378W        W87787  30.984  30.829   4.006
21379W        W87788   0.671  21.005  12.006
21380W        W87789  33.670  38.605   0.371
21381W        W87790  12.502  36.855  10.671
21382W        W87791  17.675  11.361   3.847
21383W        W87792  12.669  26.984   4.378
21384W        W87793  27.131  10.680  12.972
21385W        W87794  34.331  36.136   1.979
21386W        W87795  12.477  42.380   2.648
21387W        W87796  15.294   7.011   3.586
21388W        W87797  25.210  19.403  10.203
21389W        W87798  17.258   5.861   3.713
21390W        W87799  36.135  15.061  12.945
21391W        W87800  28.929  22.526   4.809
21392W        W87801   2.323  32.372   0.763
21393W        W87802  38.916  37.053   0.065
21394W        W87803  37.697  26.422   0.968
21395W        W87804  43.254  33.207  13.026
21396W        W87805  23.259   4.662   0.121
21397W        W87806  31.568  28.610  10.710
21398W        W87807  11.540  28.061   3.878
21399W        W87808  39.973  37.010   4.606
21400W        W87809   4.925   9.503  13.939
21401W        W87810   1.001  35.968   1.331
21402W        W87811  32.470  31.190  14.367
21403W        W87812  34.591  24.089   4.168
21404W        W87813  18.239  38.402  10.155
21405W        W87814   1.780  12.892  14.922
21406W        W87815   3.836  30.582  13.864
21407W        W87816   1.883  43.435   4.605
21408W        W87817  31.063  39.952  14.047
21409W        W87818  40.904  40.704   0.690
21410W        W87819  36.079   9.737  14.384
21411W        W87820  12.014  10.456  13.444
21412W        W87821  38.852   8.359  13.782
21413W        W87822  43.452  28.970  10.493
21414W        W87823   1.222  27.079  14.197
21415W        W87824  10.733  26.025   0.797
21416W        W87825  10.596  25.977   4.639
21417W        W87826  25.564  41.665   4.497
21418W        W87827  23.372  16.122   2.060
21419W        W87828  32.161  43.614   0.447
21420W        W87829   1.365  15.222  11.593
21421W        W87830  35.749  26.670  12.454
21422W        W87831  39.938  11.670  13.326
21423W        W87832  21.349  44.226  13.589
21424W        W87833  27.445   0.531  13.001
21425W        W87834  34.119  10.162   1.742
21426W        W87835  24.007  20.472  11.938
21427W        W87836  27.733  42.672   2.925
21428W        W87837  21.658  21.696  13.000
21429W        W87838  34.423  41.262   2.384
21430W        W87839  42.512  25.742  13.019
21431W        W87840  37.357  25.679  13.411
21432W        W87841  17.190  23.996   0.198
21433W        W87842  43.540  21.575  13.908
21434W        W87843  15.023  30.753  12.367
21435W        W87844  21.012  13.753  11.732
21436W        W87845  19.500  37.559  11.898
21437W        W87846  41.037  11.820  14.293
21438W        W87847  42.857  25.126  13.884
21439W        W87848  41.326  39.601  12.427
21440W        W87849   5.347   3.707  14.585
21441W        W87850  11.592  10.876   0.956
21442W        W87851  16.023  27.567   2.449
21443W        W87852   3.697  19.731  10.695
21444W        W87853  12.164  24.432  11.735
21445W        W87854  29.970  15.810   1.997
21446W        W87855   2.162  37.492   4.229
21447W        W87856  36.137   7.135  12.867
21448W        W87857  12.303   8.808   2.741
21449W        W87858   4.449  33.006  14.416
21450W        W87859   3.459  34.189   0.474
21451W        W87860  21.846  17.344   0.611
21452W        W87861  12.729  21.685   0.940
21453W        W87862   5.189  36.062   1.792
21454W        W87863  24.535  13.308  12.464
21455W        W87864   0.126  24.718   4.859
21456W        W87865  19.533  21.999   2.280
21457W        W87866  32.061  31.475   0.784
21458W        W87867  13.527  33.606   0.390
21459W        W87868   3.586  17.735  10.958
21460W        W87869  15.821  13.860  10.787
21461W        W87870  12.130  35.508   0.425
21462W        W87871  39.573  36.579  14.439
21463W        W87872  38.401  26.592  12.423
21464W        W87873   0.477  35.403   3.484
21465W        W87874   0.385  13.310   3.396
21466W        W87875   5.972  34.563   3.755
21467W        W87876  21.522  35.816  14.041
21468W        W87877  11.157   4.859  11.766
21469W        W87878  37.070  26.481  14.564
21470W        W87879  18.250  20.609   1.147
21471W        W87880   4.189  27.989   1.071
21472W        W87881  25.114   2.252  11.680
21473W        W87882  44.025   1.510   3.472
21474W        W87883  26.841  37.252  11.588
21475W        W87884  36.846  35.319  13.077
21476W        W87885  44.907  31.509  13.353
21477W        W87886  20.474  16.815   2.812
21478W        W87887   6.183  21.554  11.889
21479W        W87888   2.860  25.926  14.075
21480W        W87889  27.229   7.583   5.387
21481W        W87890   6.940  10.632   1.814
21482W        W87891   3.696  42.582  11.035
21483W        W87892  16.199  13.090   3.311
21484W        W87893  38.078   2.950   2.465
21485W        W87894  31.594  44.829   1.875
21486W        W87895  16.317  29.473   3.557
21487W        W87896  29.496  30.917  12.315
21488W        W87897  16.179  32.169  13.789
21489W        W87898  25.174  37.940  14.935
21490W        W87899  11.356   8.423   3.277
21491W        W87900   7.377  10.161  12.314
21492W        W87901  16.039  23.520   5.450
21493W        W87902  10.174  12.758   3.179
21494W        W87903  40.664  44.759  14.966
21495W        W87904  19.708   4.259  12.928
21496W        W87905  36.211   7.927  14.798
21497W        W87906   0.893  31.221   1.409
21498W        W87907   4.693  16.970   0.379
21499W        W87908   9.290  25.808  10.471
21500W        W87909  29.671  25.915   2.816
21501W        W87910  26.489  14.187   1.598
21502W        W87911  19.938  33.249   4.093
21503W        W87912  23.569  27.486   0.739
21504W        W87913  31.016   4.567  10.147
21505W        W87914  30.355  41.824   1.886
21506W        W87915  28.451  42.810  14.514
21507W        W87916  38.287  30.480   0.909
21508W        W87917  35.171   7.373  10.272
21509W        W87918  33.546  13.382   2.662
21510W        W87919  37.674  32.203   5.015
21511W        W87920  27.009  37.256   0.186
21512W        W87921   9.287  20.692   0.540
21513W        W87922  11.332  23.565   4.075
21514W        W87923  10.942  35.615   3.837
21515W        W87924  18.518   6.254   0.799
21516W        W87925  10.131  42.348   0.282
21517W        W87926  20.647  10.816   0.888
21518W        W87927  23.010  24.396   0.883
21519W        W87928  29.172  32.161  11.130
21520W        W87929  41.557  19.254  11.886
21521W        W87930   9.811   9.004   4.062
21522W        W87931  34.130   4.387   1.476
21523W        W87932  37.282  39.058  11.095
21524W        W87933   1.233  20.607  10.840
21525W        W87934  33.565   7.777   4.642
21526W        W87935   5.036   4.024  14.306
21527W        W87936  35.924  43.111   3.130
21528W        W87937  10.239   0.149  11.055
21529W        W87938  10.697  29.409   1.430
21530W        W87939  29.027  18.460   2.681
21531W        W87940   9.276  37.397   4.779
21532W        W87941   7.215  30.529  14.303
21533W        W87942  14.160  14.804   0.973
21534W        W87943   8.093   8.344   3.339
21535W        W87944   2.435  43.930  13.425
21536W        W87945  18.442  37.369  13.293
21537W        W87946   5.182  23.607  12.411
21538W        W87947  28.056  24.242  13.812
21539W        W87948  31.413  41.118   0.242
21540W        W87949  34.638   1.503  14.830
21541W        W87950  36.539   8.701  14.952
21542W        W87951   5.218  17.875  14.379
21543W        W87952  39.148  25.464   0.912
21544W        W87953   5.101  14.013  14.308
21545W        W87954  40.036  18.243   0.326
21546W        W87955   1.254  34.567   1.237
21547W        W87956  44.856  42.862  13.622
21548W        W87957   2.784   6.573   2.202
21549W        W87958   2.159  44.911   0.556
21550W        W87959  26.413   4.912   1.882
21551W        W87960  21.529  16.592   2.829
21552W        W87961  23.541  27.660   2.624
21553W        W87962  18.189  16.014   0.729
21554W        W87963   7.289  40.088  12.878
21555W        W87964  33.493  24.249   0.749
21556W        W87965  20.931  28.583  12.028
21557W        W87966  44.440  19.351   3.384
21558W        W87967  35.002  33.440  13.033
21559W        W87968   4.728  16.731   2.231
21560W        W87969  34.633  34.761  14.203
21561W        W87970   3.220  28.578   4.541
21562W        W87971  33.731   4.852  10.755
21563W        W87972  32.036  36.256  10.523
21564W        W87973  11.650  28.155  14.358
21565W        W87974  22.664  18.568   4.051
21566W        W87975  35.856  30.698  14.789
21567W        W87976  16.225   7.341   3.686
21568W        W87977  38.556  36.601   2.894
21569W        W87978   4.253  25.913   2.198
21570W        W87979  31.631  25.543  13.854
21571W        W87980   4.981  19.552   0.338
21572W        W87981  33.138  41.505   3.718
21573W        W87982  27.652  23.619   3.817
21574W        W87983  32.829   3.274  12.532
21575W        W87984  19.008  40.474  12.504
21576W        W87985  44.878  38.015  12.408
21577W        W87986  15.865   7.172   1.879
21578W        W87987  42.515   6.484   1.417
21579W        W87988   4.810   3.709   0.261
21580W        W87989  18.243   1.387   0.393
21581W        W87990  35.836  21.665  14.058
21582W        W87991  33.136  41.494  13.876
21583W        W87992  14.713   3.971  11.557
21584W        W87993  38.031  40.739  11.095
21585W        W87994  38.059   7.851   3.658
21586W        W87995  16.306  24.244  13.883
21587W        W87996  25.701   6.175  10.664
21588W        W87997  15.831  37.557   0.437
21589W        W87998   6.366  18.901   2.782
21590W        W87999  27.877  14.673  13.992
21591W        W88000  32.079   0.998   1.731
21592W        W88001   5.846   6.513  13.008
21593W        W88002   9.327  34.926  11.479
21594W        W88003  35.164  44.300   2.682
21595W        W88004  19.683  29.965   3.783
21596W        W88005  31.282  38.328  14.056
21597W        W88006  41.207  29.868   4.756
21598W        W88007  37.082  18.770  14.694
21599W        W88008  34.218  44.511  14.952
21600W        W88009  32.939   6.364  12.103
21601W        W88010  33.050  18.730   4.759
21602W        W88011  28.100  23.273  11.170
21603W        W88012  23.116  29.002   4.688
21604W        W88013  17.755   8.818   0.243
21605W        W88014  35.217   9.204  13.456
21606W        W88015  14.303  32.084   0.271
21607W        W88016  20.722  42.099  14.916
21608W        W88017  42.081  36.043  13.239
21609W        W88018  42.051  31.081  12.043
21610W        W88019  27.666  11.619   1.330
21611W        W88020   1.221  36.129   0.824
21612W        W88021  20.189   6.444   2.385
21613W        W88022  44.302   7.833   4.560
21614W        W88023  31.101  22.218   3.281
21615W        W88024  36.535   5.802  12.183
21616W        W88025   6.133  40.340  11.875
21617W        W88026   1.352  35.844   2.655
21618W        W88027  17.615  33.832  12.908
21619W        W88028  24.564  25.300   2.801
21620W        W88029   8.399  37.004   2.883
21621W        W88030  26.685  29.575  11.721
21622W        W88031  30.586  25.686   3.441
21623W        W88032  10.133   5.736   2.443
21624W        W88033  28.372  43.484  12.325
21625W        W88034  43.290  32.434  14.422
21626W        W88035  27.007  38.035   3.404
21627W        W88036  11.681  31.455  11.118
21628W        W88037  22.069   3.200  11.097
21629W        W88038   2.795  37.686   0.898
21630W        W88039  32.838  29.647   1.513
21631W        W88040   3.817  13.232   0.329
21632W        W88041   8.723  42.888  10.745
21633W        W88042   6.805   1.936  12.482
21634W        W88043  41.465  13.568   0.518
21635W        W88044  35.564  32.919  12.985
21636W        W88045   7.415  27.983   0.962
21637W        W88046  17.735  34.650  12.551
21638W        W88047   5.724  13.317  13.773
21639W        W88048  28.208  37.613   4.519
21640W        W88049  23.706  40.955  11.252
21641W        W88050  30.140  27.154  12.857
21642W        W88051  12.396  24.099   2.731
21643W        W88052  42.827  14.044  11.343
21644W        W88053  34.811  25.572   0.439
21645W        W88054  16.671  22.574   1.242
21646W        W88055  29.390  24.333   2.669
21647W        W88056  27.376   8.204  12.519
21648W        W88057  12.573   3.002   2.008
21649W        W88058   4.211  24.853   4.625
21650W        W88059  39.789  33.135   2.131
21651W        W88060   5.753  40.596   1.837
21652W        W88061  34.321  35.039  13.832
21653W        W88062   4.873  33.900  10.985
21654W        W88063  16.517  11.744   4.550
21655W        W88064   7.825   2.550   2.878
21656W        W88065  43.602  29.132   4.648
21657W        W88066  10.167  28.536  11.592
21658W        W88067  16.320  36.043  13.859
21659W        W88068  42.847  11.754   3.275
21660W        W88069  17.794  16.206   4.281
21661W        W88070  26.646  43.770   3.657
21662W        W88071  40.095   2.941   2.527
21663W        W88072  11.258  32.822   1.039
21664W        W88073  37.889   5.965  12.259
21665W        W88074  43.007  31.798   1.745
21666W        W88075   3.411  42.895  13.740
21667W        W88076   6.826  34.243  14.553
21668W        W88077   7.490  30.093  13.500
21669W        W88078  12.592  36.033   1.792
21670W        W88079  22.220  37.372   2.476
21671W        W88080  12.527   2.934  11.673
21672W        W88081  18.171  24.706  12.125
21673W        W88082   7.311  32.431  14.567
21674W        W88083  31.376  26.389  12.955
21675W        W88084  20.241  21.301   4.531
21676W        W88085  35.522  39.370   4.365
21677W        W88086   7.410  40.420  11.568
21678W        W88087  43.791  43.331   3.145
21679W        W88088  20.706   5.860  14.834
21680W        W88089   6.868  15.586   3.708
21681W        W88090  17.811  37.855  13.912
21682W        W88091   6.821   3.223   4.959
21683W        W88092   8.224   8.897   0.508
21684W        W88093  35.456  23.697  11.422
21685W        W88094  25.970  33.297   1.467
21686W        W88095  18.313   0.165  14.953
21687W        W88096  14.616  21.865   3.529
21688W        W88097  28.602  41.450   3.199
21689W        W88098  27.984  23.940   1.459
21690W        W88099   3.372  39.563   1.793
21691W        W88100  30.042  29.496   2.178
21692W        W88101  16.720   1.716  12.150
21693W        W88102  33.982  19.063   4.650
21694W        W88103  17.800  13.563  13.016
21695W        W88104  16.812  11.133   2.854
21696W        W88105  27.475   1.391  11.118
21697W        W88106   4.709  26.459   2.328
21698W        W88107  26.062   4.274   1.493
21699W        W88108   9.857  17.783  10.980
21700W        W88109  32.949  39.913   2.118
21701W        W88110  30.622  29.099  12.445
21702W        W88111  37.988   3.264   0.910
21703W        W88112  35.573  28.148   2.887
21704W        W88113  14.903   5.836   1.286
21705W        W88114  28.032  33.381   0.479
21706W        W88115  39.762  22.525  10.717
21707W        W88116  30.762   2.692   1.479
21708W        W88117   8.631  15.037   3.666
21709W        W88118  39.615  18.156   0.626
21710W        W88119  11.281   2.994  14.897
21711W        W88120  39.403  22.282   0.869
21712W        W88121  43.342  24.050  10.522
21713W        W88122   0.941  40.615   3.645
21714W        W88123  14.447  18.761  11.668
21715W        W88124  43.183   4.347   1.765
21716W        W88125  41.166  11.794   1.195
21717W        W88126  15.565  36.289   5.026
21718W        W88127  19.053  23.617   4.352
21719W        W88128  12.585  10.606   3.684
21720W        W88129  18.314  29.142  11.896
21721W        W88130  39.271  20.519  11.543
21722W        W88131  21.248  40.574  10.489
21723W        W88132   4.449  37.984  11.989
21724W        W88133  14.751  43.238   3.929
21725W        W88134  43.525   9.169   2.637
21726W        W88135  15.627  11.679   0.898
21727W        W88136   7.342  25.205   3.744
21728W        W88137   9.808  34.594   0.501
21729W        W88138  14.743  26.650   3.708
21730W        W88139  25.448  26.596   3.646
21731W        W88140  34.609  40.774   3.829
21732W        W88141  16.624  33.349  12.820
21733W        W88142   0.593   9.587   3.245
21734W        W88143  30.185  35.913   2.372
21735W        W88144  15.731  43.300  11.367
21736W        W88145  16.141  40.512   1.126
21737W        W88146  20.279  22.757   3.638
21738W        W88147   4.048  22.477  10.926
21739W        W88148  14.158  23.641   0.048
21740W        W88149   4.532  18.705   1.229
21741W        W88150  11.091   7.867   4.445
21742W        W88151  22.129   5.439   0.708
21743W        W88152  35.708  43.720   1.263
21744W        W88153  26.485  22.069  12.479
21745W        W88154  27.509  42.531   1.701
21746W        W88155  10.382   1.739  14.246
21747W        W88156  14.076   0.387   1.946
21748W        W88157  38.463  31.720   4.523
21749W        W88158   7.437  15.021   4.816
21750W        W88159   9.296  12.400   3.375
21751W        W88160  42.085  41.111   3.116
21752W        W88161  37.069   9.145   2.563
21753W        W88162  33.966   6.310  12.814
21754W        W88163  17.276  42.428   3.665
21755W        W88164  20.754  42.089  10.774
21756W        W88165  33.020  28.576   3.130
21757W        W88166  11.411   3.981   3.357
21758W        W88167  35.517  31.916  13.048
21759W        W88168  19.270  18.943  11.196
21760W        W88169  37.915  13.832   4.047
21761W        W88170  42.072  18.511  12.567
21762W        W88171   5.179   2.145  13.007
21763W        W88172  41.153   5.767  11.690
21764W        W88173  44.322  24.201   3.223
21765W        W88174   4.764  13.135   3.258
21766W        W88175  17.184   9.229  11.884
21767W        W88176  17.557  19.165   3.226
21768W        W88177  34.156  41.856  14.826
21769W        W88178  27.961  20.599  14.477
21770W        W88179  32.133  16.901  13.429
21771W        W88180  11.879  19.049   2.640
21772W        W88181   3.851  33.788  13.800
21773W        W88182   2.909  28.111  12.870
21774W        W88183   6.103  24.695   2.723
21775W        W88184  26.324  23.785   4.185
21776W        W88185   3.257   9.631   1.759
21777W        W88186  25.630  39.831  13.662
21778W        W88187  35.109  40.525   0.725
21779W        W88188  38.307  42.538   2.769
21780W        W88189  29.019  42.465   3.672
21781W        W88190  42.501   6.896   0.193
21782W        W88191   9.890   8.976  13.982
21783W        W88192  33.193  15.169  10.942
21784W        W88193  41.645  37.005   0.742
21785W        W88194  13.515  44.775   2.400
21786W        W88195  31.893  21.260   2.880
21787W        W88196  36.407  24.554  12.028
21788W        W88197   5.668  43.214   2.416
21789W        W88198  27.589  19.090   0.923
21790W        W88199  15.292  22.181   1.598
21791W        W88200  16.068  27.159   4.843
21792W        W88201   8.237  33.237   4.035
21793W        W88202  28.173   5.564  12.250
21794W        W88203   5.411  38.382   2.862
21795W        W88204  25.022  27.389  12.122
21796W        W88205   8.164  29.222   0.552
21797W        W88206  30.739  22.261   4.627
21798W        W88207   9.840  22.935  12.928
21799W        W88208  40.729  10.056  11.086
21800W        W88209  35.392   2.272  13.462
21801W        W88210  34.941  41.564  13.565
21802W        W88211  41.745  14.843   1.755
21803W        W88212   6.225   2.501  13.070
21804W        W88213  29.219  36.160  10.998
21805W        W88214  37.903  10.441  14.597
21806W        W88215   0.416  17.324  12.524
21807W        W88216   1.483  39.086  12.145
21808W        W88217  14.744  27.508   3.041
21809W        W88218  43.505  36.173   2.255
21810W        W88219  39.147  18.660  13.621
21811W        W88220  44.854  34.401   4.478
21812W        W88221  41.578  31.157  11.880
21813W        W88222  37.960  21.579   3.618
21814W        W88223  35.643  23.518  12.968
21815W        W88224  29.250   9.822  10.688
21816W        W88225  25.041  10.465   0.714
21817W        W88226   6.132  18.058  12.961
21818W        W88227  43.695  17.355  11.279
21819W        W88228   9.784  15.453   3.275
21820W        W88229  13.282  28.456  11.140
21821W        W88230   6.298  16.863  14.001
21822W        W88231  28.400  10.822   3.695
21823W        W88232   4.282  34.694   1.822
21824W        W88233  43.635  24.237   1.292
21825W        W88234   3.270   7.252  10.641
21826W        W88235  25.678  20.473  10.768
21827W        W88236  37.900  23.279   0.592
21828W        W88237   7.654  40.038   0.493
21829W        W88238  27.532   6.181  10.631
21830W        W88239  12.506  34.407  14.564
21831W        W88240   7.780   4.802   1.254
21832W        W88241   0.676  43.998   4.852
21833W        W88242  22.746  13.118   0.949
21834W        W88243   2.806  19.961  12.834
21835W        W88244  35.329  22.606  10.704
21836W        W88245   2.409  28.087  13.185
21837W        W88246  25.061  31.348   3.879
21838W        W88247  13.768  12.370   2.716
21839W        W88248   3.521   8.218  11.480
21840W        W88249  40.421  10.587   3.595
21841W        W88250   0.175  24.994  12.353
21842W        W88251  28.674  44.186   3.744
21843W        W88252  38.546   8.313   1.421
21844W        W88253  39.669   2.706   3.704
21845W        W88254  10.111  33.045  14.751
21846W        W88255  44.451  41.668   4.092
21847W        W88256  24.684  30.324   0.309
21848W        W88257  20.988  15.212   4.539
21849W        W88258  21.133   3.981  14.823
21850W        W88259  41.390  40.251  12.685
21851W        W88260  16.895   0.494  13.389
21852W        W88261  18.084  38.351   2.383
21853W        W88262  38.419  32.467   3.738
21854W        W88263  16.076  20.598  14.798
21855W        W88264  13.274   2.631  14.269
21856W        W88265  35.302  24.119   1.453
21857W        W88266  13.803  44.241  12.824
21858W        W88267  21.330   8.944   2.409
21859W        W88268  18.122  19.295   2.253
21860W        W88269   4.954  42.414  10.829
21861W        W88270  44.534  28.672  14.347
21862W        W88271  37.560  44.780  11.986
21863W        W88272  44.346   0.475   4.881
21864W        W88273  23.495  37.364   4.076
21865W        W88274  23.978   8.396  12.050
21866W        W88275  23.750  27.399  11.542
21867W        W88276  24.024  19.229  10.718
21868W        W88277  24.498  30.600   3.258
21869W        W88278  24.029  20.942   0.810
21870W        W88279   0.737   3.780  12.008
21871W        W88280   7.674   5.811  13.775
21872W        W88281  30.961  36.860  12.107
21873W        W88282   4.826  21.211   0.873
21874W        W88283  32.436  12.162  13.094
21875W        W88284  13.255  35.854  11.884
21876W        W88285  24.800  28.441   1.463
21877W        W88286   4.427  34.411   2.279
21878W        W88287  39.805  40.178   1.798
21879W        W88288  44.610   9.051   2.258
21880W        W88289  34.444  14.358   4.552
21881W        W88290  40.935   8.323  14.030
21882W        W88291  11.742  11.680   1.378
21883W        W88292   0.676  34.887  12.849
21884W        W88293  11.683  29.627   1.393
21885W        W88294   7.207   7.726  13.122
21886W        W88295   0.313   2.397  13.884
21887W        W88296  25.155  40.498  11.562
21888W        W88297  27.942   0.307  14.918
21889W        W88298   6.830  25.162   4.482
21890W        W88299  20.256  18.296   1.533
21891W        W88300  11.766  27.339   4.803
21892W        W88301  42.872  31.463  11.979
21893W        W88302  26.616  43.821   4.536
21894W        W88303  25.881  15.643   2.865
21895W        W88304   2.303  34.574  14.312
21896W        W88305  37.838  25.226  12.095
21897W        W88306  23.467  14.232  11.604
21898W        W88307  40.848  38.845  11.298
21899W        W88308   7.886  43.805  11.638
21900W        W88309  30.433  36.659   3.908
21901W        W88310  35.943  44.018  12.859
21902W        W88311  20.498   9.600   1.061
21903W        W88312  37.487   9.893   1.844
21904W        W88313  43.334   4.136  14.850
21905W        W88314  12.360  44.902   1.340
21906W        W88315   9.760  37.988   4.920
21907W        W88316   4.433  40.326   2.337
21908W        W88317  28.971  18.941   2.861
21909W        W88318  20.394  18.637  12.777
21910W        W88319  35.517  39.482   3.435
21911W        W88320  28.194   3.215  11.919
21912W        W88321  18.596   4.192  11.686
21913W        W88322  15.792  16.733   0.212
21914W        W88323   6.162  28.854   4.107
21915W        W88324  19.662  31.138  12.159
21916W        W88325   2.252  28.006   3.870
21917W        W88326  13.492  38.563   0.494
21918W        W88327  40.291   6.813  14.569
21919W        W88328   0.257  32.092  11.894
21920W        W88329  42.370  44.958  13.601
21921W        W88330   5.121  10.255  10.734
21922W        W88331  33.478  15.230   4.591
21923W        W88332   6.724   0.358   4.743
21924W        W88333  36.435  12.828  13.485
21925W        W88334   5.826  22.213   3.623
21926W        W88335   2.002  22.725   4.147
21927W        W88336  24.356  36.780  14.526
21928W        W88337  30.794  34.986   4.727
21929W        W88338  30.519  12.462   4.602
21930W        W88339  39.921  40.474   4.200
21931W        W88340  11.181  15.672   4.435
21932W        W88341  29.228   8.208   3.547
21933W        W88342  41.241   0.221  10.830
21934W        W88343   1.463  35.763  11.984
21935W        W88344  39.146   6.870   0.672
21936W        W88345  42.571  10.381  11.229
21937W        W88346  32.085  10.158   5.088
21938W        W88347  36.164   7.640   4.104
21939W        W88348  33.131   1.562   4.573
21940W        W88349  32.907  22.817   2.198
21941W        W88350  13.762  32.462   3.228
21942W        W88351  10.331  24.466   3.779
21943W        W88352  27.505   4.752  12.092
21944W        W88353  44.019   2.867  13.488
21945W        W88354   0.870  19.395   5.268
21946W        W88355  31.009  38.869   3.403
21947W        W88356  35.046  22.754   2.655
21948W        W88357  31.533  30.523  14.612
21949W        W88358  33.991   0.761  11.434
21950W        W88359  28.256  10.631  11.568
21951W        W88360   6.049   1.393  12.465
21952W        W88361  21.565  18.628   4.852
21953W        W88362  25.979  21.966   1.242
21954W        W88363   6.817  42.995   4.482
21955W        W88364   9.544   9.218  12.450
21956W        W88365  24.269  44.370  11.967
21957W        W88366  43.318  22.125  13.078
21958W        W88367  15.342  32.540   3.392
21959W        W88368  34.667  32.410   3.781
21960W        W88369  14.185  28.605   3.807
21961W        W88370  35.495   4.731  11.540
21962W        W88371  24.228  34.603  12.902
21963W        W88372  36.086   1.837  12.427
21964W        W88373  25.111  41.740   4.139
21965W        W88374  10.140   5.583   1.219
21966W        W88375  44.700  38.257   3.195
21967W        W88376   4.175  18.910   0.895
21968W        W88377   9.103   0.535   2.571
21969W        W88378  21.609  44.686  13.127
21970W        W88379  32.826  33.076   2.659
21971W        W88380   8.059  32.029   2.882
21972W        W88381  35.111  29.674   3.592
21973W        W88382   7.755  11.024   1.841
21974W        W88383   8.391  12.923   3.296
21975W        W88384  38.104  23.497   4.479
21976W        W88385  43.424  35.370   4.162
21977W        W88386   5.820   2.704  10.811
21978W        W88387  40.456   6.334   0.954
21979W        W88388  35.975  28.619   4.119
21980W        W88389  41.993   0.712  10.010
21981W        W88390   6.272   7.522   3.166
21982W        W88391   7.157  27.446  10.523
21983W        W88392  15.281  40.796   4.205
21984W        W88393  12.883   5.463   4.251
21985W        W88394  37.225  24.811  13.906
21986W        W88395  25.940  39.559  10.723
21987W        W88396  27.131  18.318   0.725
21988W        W88397  20.187  28.176  11.108
21989W        W88398  35.586   6.261  14.058
21990W        W88399  22.998   6.630  11.838
21991W        W88400  13.152  24.962  14.296
21992W        W88401  28.409  32.581   3.732
21993W        W88402   5.231  43.053  13.889
21994W        W88403   4.412  28.858   3.675
21995W        W88404  19.112  30.372   4.842
21996W        W88405  21.540  26.991  12.389
21997W        W88406  41.783   6.141   1.015
21998W        W88407  10.146  16.107  13.446
21999W        W88408  42.885  30.331  14.959
22000W        W88409   8.587  10.221   3.468
22001W        W88410  35.607  26.669  11.114
22002W        W88411  18.089  42.995  12.287
22003W        W88412  30.209  38.441   2.402
22004W        W88413  34.574   3.072   0.283
22005W        W88414  40.271  14.133   0.486
22006W        W88415  43.754   6.091   4.093
22007W        W88416  25.784   2.931   1.403
22008W        W88417   3.233  41.715   3.344
22009W        W88418   8.294  27.954  14.573
22010W        W88419  35.058  34.500  13.918
22011W        W88420  18.001  19.942  13.045
22012W        W88421  42.286  39.127  12.561
22013W        W88422  12.847  28.753  12.159
22014W        W88423   4.292  13.283   2.217
22015W        W88424  12.620  28.713   4.156
22016W        W88425  35.155  25.530   2.831
22017W        W88426  29.594  17.681   1.514
22018W        W88427  31.809  30.871   2.230
22019W        W88428  39.806  37.593  12.254
22020W        W88429  38.060  12.739   3.345
22021W        W88430  43.938   1.953   0.892
22022W        W88431  17.609  43.459   4.757
22023W        W88432   2.217  23.135  11.377
22024W        W88433  29.371  12.514  11.624
22025W        W88434   8.447  27.575   2.372
22026W        W88435  40.993  34.231   0.922
22027W        W88436  36.359  42.370   1.499
22028W        W88437   8.617  40.851   4.115
22029W        W88438  43.543   7.389   3.676
22030W        W88439  15.129  32.055  14.798
22031W        W88440  42.065  26.626   4.629
22032W        W88441  37.374  32.443  10.311
22033W        W88442  13.755  28.457   2.482
22034W        W88443   0.297  29.720   0.685
22035W        W88444  15.822  30.958  12.552
22036W        W88445  40.895  12.380   4.678
22037W        W88446  41.488  26.944   1.760
22038W        W88447   3.822  14.025   4.693
22039W        W88448  12.023  32.519  11.530
22040W        W88449  34.729   7.501  12.367
22041W        W88450  37.649  29.880  13.433
22042W        W88451  38.792  38.542  13.384
22043W        W88452  28.873  35.031  12.985
22044W        W88453  31.708   9.219   0.253
22045W        W88454   9.881  14.751   2.120
22046W        W88455  30.102  40.244  12.514
22047W        W88456  28.011  36.677   2.809
22048W        W88457   5.200   1.938   4.361
22049W        W88458   7.455   4.127  11.197
22050W        W88459  26.483  26.553   0.072
22051W        W88460  32.571  33.626   2.885
22052W        W88461  12.064   8.181  12.277
22053W        W88462  42.580  34.502   3.882
22054W        W88463  40.140   8.615  11.954
22055W        W88464   0.798  36.927   0.755
22056W        W88465  35.712   8.139  11.101
22057W        W88466  29.565  23.681  12.049
22058W        W88467  39.808  23.646   1.389
22059W        W88468  43.041   8.467   2.828
22060W        W88469  39.016  37.792   1.006
22061W        W88470  19.298  26.213  11.145
22062W        W88471   7.803  29.942  14.932
22063W        W88472  25.321   3.204   4.689
22064W        W88473  32.579  13.799   3.080
22065W        W88474  19.268   6.776   3.076
22066W        W88475  37.933  16.303  10.573
22067W        W88476  24.183  36.024   2.283
22068W        W88477  18.231  21.549  10.943
22069W        W88478  40.926  42.358   2.054
22070W        W88479  28.601  21.725  12.179
22071W        W88480  17.333  25.631  12.452
22072W        W88481  29.150  30.922  12.667
22073W        W88482  17.280   5.704   4.588
22074W        W88483  35.731  10.638   2.306
22075W        W88484   9.899  38.012  14.500
22076W        W88485   1.184  15.745  13.189
22077W        W88486  26.592  10.745   1.153
22078W        W88487  17.409   9.806  10.756
22079W        W88488  39.378  12.821  13.258
22080W        W88489  39.574  27.248  13.306
22081W        W88490  16.054  18.520  14.874
22082W        W88491  35.362   0.302  13.848
22083W        W88492  30.656  37.439   1.238
22084W        W88493  27.153  28.991   3.939
22085W        W88494   5.619   9.170   2.803
22086W        W88495  22.423   4.831  12.457
22087W        W88496   3.889  40.463   1.207
22088W        W88497  34.522  40.022   4.565
22089W        W88498   7.768  42.350   1.136
22090W        W88499  17.614  21.273   1.577
22091W        W88500   7.266   7.377  11.428
22092W        W88501  25.526  29.742  12.277
22093W        W88502  18.833   5.734   1.483
22094W        W88503  15.748  30.138   4.511
22095W        W88504  31.120  11.661   2.101
22096W        W88505  13.723  17.088  11.574
22097W        W88506   0.772   9.426  10.726
22098W        W88507   4.824   1.752  14.561
22099W        W88508  10.780  39.383   4.510
22100W        W88509  29.933  30.567  14.475
22101W        W88510  36.352  43.511  13.378
22102W        W88511   4.918  11.964   4.614
22103W        W88512  36.136  38.327  12.101
22104W        W88513  26.483  29.143   1.251
22105W        W88514   7.935   2.079   3.723
22106W        W88515  24.222  23.350   4.152
22107W        W88516  16.758  21.069   1.301
22108W        W88517  42.836  28.509  10.736
22109W        W88518   3.878  18.091   2.264
22110W        W88519  33.687   5.761  13.933
22111W        W88520  16.924  19.065  14.309
22112W        W88521  23.965  42.434   4.746
22113W        W88522  39.990  22.736  13.118
22114W        W88523  17.896  24.687  10.705
22115W        W88524  15.701  24.629   4.574
22116W        W88525  16.875  15.527  12.065
22117W        W88526  40.926  28.097  13.024
22118W        W88527  36.874  18.984  11.942
22119W        W88528  36.516  35.775  12.314
22120W        W88529   0.232  14.108   0.042
22121W        W88530  18.761  11.690  11.363
22122W        W88531  40.608   8.347  11.992
22123W        W88532  29.773  26.368  10.649
22124W        W88533  11.767  22.771  13.820
22125W        W88534  23.586  24.874  11.564
22126W        W88535  15.183  16.184  14.826
22127W        W88536  42.971  20.047  10.927
22128W        W88537  14.786  33.122   4.471
22129W        W88538  21.101   2.499   3.014
22130W        W88539   7.076  24.584   1.687
22131W        W88540  30.464  24.135  11.531
22132W        W88541  35.646  32.558   3.648
22133W        W88542   1.688  18.060   3.653
22134W        W88543  20.629  28.162  13.947
22135W        W88544  36.519  17.365  13.006
22136W        W88545  17.495  43.458   0.830
22137W        W88546   7.180  34.482  13.112
22138W        W88547  18.242  17.674  11.155
22139W        W88548  41.286  22.988  13.382
22140W        W88549  12.550  35.934   2.722
22141W        W88550  17.522  38.617  12.391
22142W        W88551  16.160  34.548  14.463
22143W        W88552  36.944  24.166   2.414
22144W        W88553   8.960  13.653  12.573
22145W        W88554   9.838  28.217  13.752
22146W        W88555   8.885  31.393  10.365
22147W        W88556  31.416  24.176  14.565
22148W        W88557  29.953  35.245  13.012
22149W        W88558  34.103  22.558  14.330
22150W        W88559   0.199  23.703  11.135
22151W        W88560  38.263   1.686  13.502
22152W        W88561  21.309  44.257   0.293
22153W        W88562  15.342  24.997  11.107
22154W        W88563  39.366   2.624   4.163
22155W        W88564  30.193  39.878  14.070
22156W        W88565  24.511  28.214  12.856
22157W        W88566   1.545  43.871   4.716
22158W        W88567   7.745   0.305   1.297
22159W        W88568  25.178  32.628   2.863
22160W        W88569   3.429  14.270   3.397
22161W        W88570   3.472  25.668   1.398
22162W        W88571  42.695  42.339  13.389
22163W        W88572  28.543  37.260   0.887
22164W        W88573  35.335  35.901  11.139
22165W        W88574  34.535   5.203  12.941
22166W        W88575  13.728  13.751   4.547
22167W        W88576  26.289  28.685  14.308
22168W        W88577  12.935  17.996   0.359
22169W        W88578   2.966  39.420  11.998
22170W        W88579  25.219   7.148   1.246
22171W        W88580  28.041  26.044   2.217
22172W        W88581  13.096  23.587  10.485
22173W        W88582  26.998   7.395   1.782
22174W        W88583  11.047  19.008  14.459
22175W        W88584  38.837   2.137  14.008
22176W        W88585  29.080  43.340  13.614
22177W        W88586   1.134  17.233   4.565
22178W        W88587  40.600  39.144  10.235
22179W        W88588  24.966  10.647  13.370
22180W        W88589  33.924  36.618   0.024
22181W        W88590  34.029  19.845  11.141
22182W        W88591  42.282   1.807   0.380
22183W        W88592  39.583   3.355  10.443
22184W        W88593  11.928  34.232  12.015
22185W        W88594   3.071   3.683  12.510
22186W        W88595  14.377  24.384   4.483
22187W        W88596  40.006  22.976  14.780
22188W        W88597   1.508  33.559   0.283
22189W        W88598  21.106  32.608  14.048
22190W        W88599  26.167  18.106  11.472
22191W        W88600  10.277  40.781  12.898
22192W        W88601   4.273  10.323  11.413
22193W        W88602  40.900  12.926  13.313
22194W        W88603  12.534  38.320  12.049
22195W        W88604   7.806  24.632   0.966
22196W        W88605  39.378  21.044  10.608
22197W        W88606  15.769  10.075  10.526
22198W        W88607  18.664   1.524  12.484
22199W        W88608  39.575  20.954  13.436
22200W        W88609  25.479  14.269  10.708
22201W        W88610  21.526   7.192   4.514
22202W        W88611   0.487  38.579   1.214
22203W        W88612  22.637   4.792   1.911
22204W        W88613  16.975  25.155  13.038
22205W        W88614  41.540  31.608  12.437
22206W        W88615  10.400  39.297  11.913
22207W        W88616  10.458  37.613  14.688
22208W        W88617   4.304  35.497   2.903
22209W        W88618  26.128  24.517  11.910
22210W        W88619  23.953  15.411  11.084
22211W        W88620  23.527  21.514   5.442
22212W        W88621  20.002  12.677   2.233
22213W        W88622  12.723  11.620   1.333
22214W        W88623  22.554  33.084  12.099
22215W        W88624   3.843   8.572  11.731
22216W        W88625  16.902  23.241   0.704
22217W        W88626   8.147  27.606   3.705
22218W        W88627  34.973   3.023  13.569
22219W        W88628  43.007  21.274   5.010
22220W        W88629  13.035   7.773   1.489
22221W        W88630  21.329  20.423  10.717
22222W        W88631  44.027  11.627   1.394
22223W        W88632  16.028  42.335  11.707
22224W        W88633   6.612   5.302   1.625
22225W        W88634  43.291  44.388   2.829
22226W        W88635  10.172  20.090   2.321
22227W        W88636  44.912  25.165  14.559
22228W        W88637  27.931  43.717  14.398
22229W        W88638  19.057  30.205   2.383
22230W        W88639   9.278  27.184   0.927
22231W        W88640  42.885   8.831   2.235
22232W        W88641  14.538  13.933   4.796
22233W        W88642   7.455  30.600  11.724
22234W        W88643  30.623  41.799  11.236
22235W        W88644  30.333  43.096  13.298
22236W        W88645  10.163   8.702   0.411
22237W        W88646  17.768   4.268   3.733
22238W        W88647   8.673   9.124   2.546
22239W        W88648  29.010  33.391   0.400
22240W        W88649  24.231  19.179  13.027
22241W        W88650  21.026  31.145   4.743
22242W        W88651  37.042  30.922  12.141
22243W        W88652  44.933  30.936  14.962
22244W        W88653  14.650  36.930   0.981
22245W        W88654   2.971  24.396  10.681
22246W        W88655  31.217  43.653   2.236
22247W        W88656  27.712  23.710   2.562
22248W        W88657  12.927   3.894   4.567
22249W        W88658  29.957  12.278  12.579
22250W        W88659  38.269  38.525   0.768
22251W        W88660  17.544  14.764  11.597
22252W        W88661  23.189  42.222   1.653
22253W        W88662   4.242  42.304  13.615
22254W        W88663  15.861   4.323   3.521
22255W        W88664  22.943  40.359  12.410
22256W        W88665  14.658  39.905   0.838
22257W        W88666  29.264  43.940   0.778
22258W        W88667   4.102   8.756   2.801
22259W        W88668  11.802   6.318  13.849
22260W        W88669  10.803  41.598   2.322
22261W        W88670  41.061  21.381   3.764
22262W        W88671  25.399  42.063   2.306
22263W        W88672  10.957   4.828  10.452
22264W        W88673  12.234  40.073   4.013
22265W        W88674  31.018  44.046   3.634
22266W        W88675  33.009  28.559   2.144
22267W        W88676  39.261  24.963  10.684
22268W        W88677   1.363  43.226   2.365
22269W        W88678  12.673  21.854  11.043
22270W        W88679   3.071  24.728   9.883
22271W        W88680  19.657  37.212   3.352
22272W        W88681  42.049   4.873  13.405
22273W        W88682  31.572  26.515  11.131
22274W        W88683  27.099  23.266   4.425
22275W        W88684  17.694  25.662   3.809
22276W        W88685  14.319  33.584   0.077
22277W        W88686  18.702  27.106  10.663
22278W        W88687  10.383  26.501  10.634
22279W        W88688   9.622  10.164  11.599
22280W        W88689  38.904  29.888   4.770
22281W        W88690  13.258  18.025  12.950
22282W        W88691  16.721   9.404  11.142
22283W        W88692   1.192  13.577  12.864
22284W        W88693   7.484  29.586   1.767
22285W        W88694   4.112  33.508  10.800
22286W        W88695  26.534  16.180   4.191
22287W        W88696  33.153  11.013  13.327
22288W        W88697   2.381  16.968  14.974
22289W        W88698  32.413  44.583  14.471
22290W        W88699  34.644  12.055  14.664
22291W        W88700  28.392  10.334  14.037
22292W        W88701   2.038  35.414   3.334
22293W        W88702  33.426  28.960  11.114
22294W        W88703  32.357  35.278  14.636
22295W        W88704   6.352  39.246   0.489
22296W        W88705  29.802   9.572   0.653
22297W        W88706  24.198  25.094   5.042
22298W        W88707  23.141   5.964   3.873
22299W        W88708  41.715  40.317  13.097
22300W        W88709   9.393   6.167   3.269
22301W        W88710  36.929  27.120   0.871
22302W        W88711  29.001  17.948   2.691
22303W        W88712  10.885  10.848   4.185
22304W        W88713  24.110  25.008   2.767
22305W        W88714  44.984  32.749  14.399
22306W        W88715  35.966  21.512   1.291
22307W        W88716  13.395  16.039   0.363
22308W        W88717  24.126   6.422   3.729
22309W        W88718  33.093  23.368  14.894
22310W        W88719  12.068  20.229   2.412
22311W        W88720  33.140   8.362  11.345
22312W        W88721   3.472   8.909   5.062
22313W        W88722  14.365  11.992  14.022
22314W        W88723  20.651  17.202   2.435
22315W        W88724  34.986   5.763   4.520
22316W        W88725   1.684  14.188   0.928
22317W        W88726  43.357   2.973   1.398
22318W        W88727  40.521  13.736  10.506
22319W        W88728  39.531  15.789   0.914
22320W        W88729  35.964   9.914   0.866
22321W        W88730  28.511   0.670   4.922
22322W        W88731  38.619  18.782   0.914
22323W        W88732  21.300  27.717  11.160
22324W        W88733  13.759   1.657   0.068
22325W        W88734   0.703  25.822  10.920
22326W        W88735  43.885  41.103   4.565
22327W        W88736   6.469  44.074  11.152
22328W        W88737  26.375  27.425   0.540
22329W        W88738  37.261  27.454  14.404
22330W        W88739  10.811   4.488   4.896
22331W        W88740   4.278  36.600   0.621
22332W        W88741  11.236  26.062   0.975
22333W        W88742  11.135  29.539   3.908
22334W        W88743  33.881   2.557   0.677
22335W        W88744  44.956  32.874   0.271
22336W        W88745  44.756   2.734  13.107
22337W        W88746  18.198  43.538   2.684
22338W        W88747   8.636   7.451   4.148
22339W        W88748  12.855  37.598  11.033
22340W        W88749  34.164  44.958   3.298
22341W        W88750   1.310  36.912   0.926
22342W        W88751  44.838  37.043  14.677
22343W        W88752  43.890   8.641  14.517
22344W        W88753  11.151  32.650  13.872
22345W        W88754   3.335  34.105   4.222
22346W        W88755  33.828  31.998  11.112
22347W        W88756  33.503  32.208   3.268
22348W        W88757   8.844  29.501  12.917
22349W        W88758  34.097  23.179  10.760
22350W        W88759  18.802  28.218  14.442
22351W        W88760   3.685  29.962  12.862
22352W        W88761   4.739   4.801  14.636
22353W        W88762  13.931  31.556   1.286
22354W        W88763  23.200   3.094   0.835
22355W        W88764  37.628  15.473   2.809
22356W        W88765   7.821  19.763  14.329
22357W        W88766   0.571  44.862   4.329
22358W        W88767  34.529  36.517   1.384
22359W        W88768  32.009  20.644  10.733
22360W        W88769  44.311   9.834  12.881
22361W        W88770  21.746  27.177  11.590
22362W        W88771   1.089  24.431  13.855
22363W        W88772  15.659  11.686   5.230
22364W        W88773  43.800   8.654  11.592
22365W        W88774  16.577  20.820   2.794
22366W        W88775  31.476   6.874  10.930
22367W        W88776  14.261  27.133  14.362
22368W        W88777  30.592  16.888  14.810
22369W        W88778  22.651  12.432  12.018
22370W        W88779  19.514   4.759  13.401
22371W        W88780  13.356   7.406   2.794
22372W        W88781  42.807  39.818   0.039
22373W        W88782   3.800  43.163  13.963
22374W        W88783  35.964  14.236   4.724
22375W        W88784  29.226   3.595  12.430
22376W        W88785  30.544   2.934   0.626
22377W        W88786   0.547  14.555  10.642
22378W        W88787   8.941   6.325  11.968
22379W        W88788  17.725  21.695   9.809
22380W        W88789   9.953  16.851  12.709
22381W        W88790  17.160  39.636  13.280
22382W        W88791  12.283  40.519   0.570
22383W        W88792   0.821  27.103  13.870
22384W        W88793  19.260  34.205  13.971
22385W        W88794  27.804  36.471  14.904
22386W        W88795  30.916  35.587  10.698
22387W        W88796  31.574  35.828   3.584
22388W        W88797  27.257  30.189  11.155
22389W        W88798  36.018  43.314   4.692
22390W        W88799  32.752   8.986  14.067
22391W        W88800  44.228   7.831  14.498
22392W        W88801   2.421  22.832   9.974
22393W        W88802   0.030  21.806  13.009
22394W        W88803   1.780  26.459  10.774
22395W        W88804  29.694  33.610  10.722
22396W        W88805   5.658  38.419   2.375
22397W        W88806  39.974   7.072  12.015
22398W        W88807  31.111  30.923  10.696
22399W        W88808  41.341  16.628   3.631
22400W        W88809  35.630  15.097   1.839
22401W        W88810  37.479  36.177   3.232
22402W        W88811  34.006   8.356  11.347
22403W        W88812  39.491  23.081  14.727
22404W        W88813  30.200  15.005  12.984
22405W        W88814  25.038   6.112   3.246
22406W        W88815  36.138  41.045  14.286
22407W        W88816   5.196   7.220   2.823
22408W        W88817   1.218  12.676   2.286
22409W        W88818  11.657  38.331  11.149
22410W        W88819  23.304  38.395  10.703
22411W        W88820  39.037  38.296  13.819
22412W        W88821  10.018  15.223   4.216
22413W        W88822   6.248  19.809   2.256
22414W        W88823  28.214  15.796  10.655
22415W        W88824  19.930   1.253  11.053
22416W        W88825   7.387  44.879   0.161
22417W        W88826  27.609   2.439  14.345
22418W        W88827   5.422   4.382   1.854
22419W        W88828  26.080  31.533   2.332
22420W        W88829   5.701   4.939   3.168
22421W        W88830  12.693  35.815   0.491
22422W        W88831  11.899  32.350  12.075
22423W        W88832  36.835   5.632   3.712
22424W        W88833   1.674  16.690  14.286
22425W        W88834  44.431  22.555   4.631
22426W        W88835  11.833  24.697   0.191
22427W        W88836  22.347   7.576  14.433
22428W        W88837  16.262  23.265   2.621
22429W        W88838  40.109  31.561  11.181
22430W        W88839  15.826   8.600   0.772
22431W        W88840  10.454  42.781   4.074
22432W        W88841  41.505  30.512   1.921
22433W        W88842  40.516  11.783  14.113
22434W        W88843  16.254  41.868   0.295
22435W        W88844  34.556   6.117   2.622
22436W        W88845  17.195  39.192   4.035
22437W        W88846   5.187  27.578   2.151
22438W        W88847   5.662  30.017  14.770
22439W        W88848  23.654  11.313  12.449
22440W        W88849  34.415  23.860   5.113
22441W        W88850  11.126   9.599   0.405
22442W        W88851  42.822  26.992   0.340
22443W        W88852  31.013   6.735   3.651
22444W        W88853  38.499  38.596   4.595
22445W        W88854  44.593  32.411  14.462
22446W        W88855  19.606  16.589   4.919
22447W        W88856  13.565   9.321   2.717
22448W        W88857  22.214  29.978   0.964
22449W        W88858  14.465  32.524  12.014
22450W        W88859  32.961   7.281  12.312
22451W        W88860  19.184  22.628  10.790
22452W        W88861  37.337  33.372  10.650
22453W        W88862  25.275   8.284   1.844
22454W        W88863  35.418  17.422   5.058
22455W        W88864  24.677  21.454   2.489
22456W        W88865  32.715   6.114  11.110
22457W        W88866  19.286  14.331  14.456
22458W        W88867  30.795  15.846  11.692
22459W        W88868  26.161  38.194  11.085
22460W        W88869   1.657   1.277   4.717
22461W        W88870  12.287  33.006  11.614
22462W        W88871  26.151  35.048  11.627
22463W        W88872   8.838  36.652  14.386
22464W        W88873  30.431  23.236   3.683
22465W        W88874   4.980  31.132   1.223
22466W        W88875  36.639  34.772  14.268
22467W        W88876  27.050   7.907   1.705
22468W        W88877  26.463  16.287   1.002
22469W        W88878  35.788  41.566  13.371
22470W        W88879  44.484   0.848   4.537
22471W        W88880  38.776  10.732   0.629
22472W        W88881  35.638  33.012   2.332
22473W        W88882  27.591   4.316   3.106
22474W        W88883  30.308  35.609  14.787
22475W        W88884  25.914  43.885   1.477
22476W        W88885  37.815  28.681   4.095
22477W        W88886  38.452  33.618  13.391
22478W        W88887  35.396  32.430  13.066
22479W        W88888  35.403  11.301  10.958
22480W        W88889   2.756  24.626   4.467
22481W        W88890  34.519  13.612  13.426
22482W        W88891   1.216  11.290   0.439
22483W        W88892   6.762  26.958   0.856
22484W        W88893   4.728  10.134  11.600
22485W        W88894   0.490  40.059  14.192
22486W        W88895  11.223  20.983  12.975
22487W        W88896  38.773  23.662   3.596
22488W        W88897   3.268  30.419  10.588
22489W        W88898  32.991  42.250  11.049
22490W        W88899  16.737   6.707   0.337
22491W        W88900   5.004  13.597   3.292
22492W        W88901   3.381  25.890  13.368
22493W        W88902  31.406  42.126   2.697
22494W        W88903   7.248  11.078   1.732
22495W        W88904   0.820  29.898  11.545
22496W        W88905  33.878  33.166   1.888
22497W        W88906  17.424  15.103  14.542
22498W        W88907  10.325  24.086   0.647
22499W        W88908  15.432  12.203  12.556
22500W        W88909  18.519   5.439   2.824
22501W        W88910  24.067  36.302  11.085
22502W        W88911  25.491  21.106  14.906
22503W        W88912  17.668  44.501  11.674
22504W        W88913   5.211   0.413   0.009
22505W        W88914  13.133  19.721  11.999
22506W        W88915  21.063  39.917   2.385
22507W        W88916  26.104   9.695  12.076
22508W        W88917   3.193  23.985   2.395
22509W        W88918  33.162  15.701  10.786
22510W        W88919  29.521  43.526  13.405
22511W        W88920  38.928  43.029   4.687
22512W        W88921   1.474   3.141   1.175
22513W        W88922   1.816  25.260   2.347
22514W        W88923  38.990  13.860  14.389
22515W        W88924  38.315  38.086  11.671
22516W        W88925  24.473  44.279   3.177
22517W        W88926  12.243  30.966  12.028
22518W        W88927  29.554  30.426   0.759
22519W        W88928   6.113  33.475  11.117
22520W        W88929  36.005  26.717  11.502
22521W        W88930  28.484  19.132   2.753
22522W        W88931  31.495  33.539  11.060
22523W        W88932  33.179  21.233  11.075
22524W        W88933  32.382  43.777  12.192
22525W        W88934  10.272  32.479  13.010
22526W        W88935  27.537  11.083   9.850
22527W        W88936  13.682  17.216   1.669
22528W        W88937   4.665  40.546  14.502
22529W        W88938   5.654   6.820   2.188
22530W        W88939  26.966   8.096   4.563
22531W        W88940  10.926  31.390  11.260
22532W        W88941  25.945  16.796  11.609
22533W        W88942  43.615   1.138  11.068
22534W        W88943  17.222  19.820  14.660
22535W        W88944  18.413  18.226   3.730
22536W        W88945  36.905  25.118  13.134
22537W        W88946   6.895  44.537  10.896
22538W        W88947  31.926  33.782   4.494
22539W        W88948  40.252  21.288  10.684
22540W        W88949   5.901  44.277  12.672
22541W        W88950  24.974   5.271  11.623
22542W        W88951  28.015  24.942  14.936
22543W        W88952  19.738  37.545  14.415
22544W        W88953  35.392  25.043   2.684
22545W        W88954  10.035  26.220  11.552
22546W        W88955  25.405   0.686   4.135
22547W        W88956   7.256   5.141  13.152
22548W        W88957  35.759  35.920  12.438
22549W        W88958  26.520  27.070   0.177
22550W        W88959  36.396  25.675   3.219
22551W        W88960  15.994  42.343  14.548
22552W        W88961  23.667  13.259  13.767
22553W        W88962   1.860  18.223  14.107
22554W        W88963  38.099  35.944  12.778
22555W        W88964  17.476  17.861   0.518
22556W        W88965  39.862  43.342  11.135
22557W        W88966  42.559  27.468  10.738
22558W        W88967  40.639   4.879   0.213
22559W        W88968  44.006  13.791   3.193
22560W        W88969  10.741   9.347  13.567
22561W        W88970  28.353  33.300   3.650
22562W        W88971  19.648  10.447  13.376
22563W        W88972  28.974  23.539  13.968
22564W        W88973  16.907  29.763   2.186
22565W        W88974  29.671   7.622  10.607
22566W        W88975  20.980  34.120   4.088
22567W        W88976  27.424  21.189  13.416
22568W        W88977  38.065  32.367  14.248
22569W        W88978  12.537   1.483   3.167
22570W        W88979  42.499  19.501   4.910
22571W        W88980  10.332   0.244   0.294
22572W        W88981  30.564  44.235  10.118
22573W        W88982  40.040   8.231  14.698
22574W        W88983  16.195  14.718  11.358
22575W        W88984  24.955  12.639  11.196
22576W        W88985  20.192   1.307  13.340
22577W        W88986  24.407  25.172  12.912
22578W        W88987  15.208   2.694  13.952
22579W        W88988  25.152  14.089   0.707
22580W        W88989  21.542   3.825   1.821
22581W        W88990  13.581   8.665   2.268
22582W        W88991  24.715   7.082   1.185
22583W        W88992  31.147  34.381  14.850
22584W        W88993  13.849   1.380   3.557
22585W        W88994  13.727   9.091  11.873
22586W        W88995   6.232   5.458   0.319
22587W        W88996  33.227  32.193   5.013
22588W        W88997  12.169  27.669  13.825
22589W        W88998  41.272   1.467  10.715
22590W        W88999  24.688   4.897  10.983
22591W        W89000  13.277  19.560   0.480
22592W        W89001  32.122  40.253   3.803
22593W        W89002  33.939  13.662  14.104
22594W        W89003  14.681  16.151  12.801
22595W        W89004   6.285  32.055   4.263
22596W        W89005  39.543  10.438  13.369
22597W        W89006  39.809  17.765   2.799
22598W        W89007   2.172  43.646  13.819
22599W        W89008  13.864  20.244   0.821
22600W        W89009  38.564  35.042   4.557
22601W        W89010  37.874  13.262   0.554
22602W        W89011  14.063  32.338  11.717
22603W        W89012  28.321  29.644   2.333
22604W        W89013  40.471  14.647   2.222
22605W        W89014  29.801  33.119  11.092
22606W        W89015   6.448  38.361  13.907
22607W        W89016  31.127  38.338   1.580
22608W        W89017   1.355  17.180  12.098
22609W        W89018  32.898  20.068  13.091
22610W        W89019  37.956  29.176   1.968
22611W        W89020  37.511  37.902  12.116
22612W        W89021  40.528  14.214  13.924
22613W        W89022  13.876  25.163  11.533
22614W        W89023  34.061  28.005   2.055
22615W        W89024  37.845  20.205   3.296
22616W        W89025  37.077  12.292   2.584
22617W        W89026  31.537   7.179   4.655
22618W        W89027   7.386  33.021   1.501
22619W        W89028  13.102   0.963   2.808
22620W        W89029  18.345   8.979   3.725
22621W        W89030  28.066  40.517  13.863
22622W        W89031  43.511   6.589   3.277
22623W        W89032  15.483  23.707   9.932
22624W        W89033  18.582  29.038   2.358
22625W        W89034   3.749  28.652   4.526
22626W        W89035  28.203  35.000   4.501
22627W        W89036   9.761  29.940  10.368
22628W        W89037   4.857   9.773  13.017
22629W        W89038  22.222  23.248   0.695
22630W        W89039  20.951  32.601   2.203
22631W        W89040  37.235  18.923   0.966
22632W        W89041  10.696   3.728  13.391
22633W        W89042  36.467   6.379  12.441
22634W        W89043  20.892   3.608   1.250
22635W        W89044  34.504  19.371   3.682
22636W        W89045  44.880  36.033   5.021
22637W        W89046  20.278   9.792  12.251
22638W        W89047   6.241   2.248  14.326
22639W        W89048  35.104  29.676  11.603
22640W        W89049  30.372  25.119  13.401
22641W        W89050  12.049   1.347   3.087
22642W        W89051  20.307   0.872  10.743
22643W        W89052  19.405  39.988  11.505
22644W        W89053  27.152  23.474  11.593
22645W        W89054  40.039  31.124   3.330
22646W        W89055  28.236  28.161   5.034
22647W        W89056  20.381  31.774   5.175
22648W        W89057  38.840   8.814   2.152
22649W        W89058  29.485  31.674  13.883
22650W        W89059  39.416   4.298   3.582
22651W        W89060  29.246  28.666  12.954
22652W        W89061  42.120   1.354   1.127
22653W        W89062  27.178   4.257  12.005
22654W        W89063  35.782  10.581   0.370
22655W        W89064  14.415  36.525   0.715
22656W        W89065  34.205   2.411  12.659
22657W        W89066   1.445  38.423   4.261
22658W        W89067  44.885  44.939   1.275
22659W        W89068   5.810   3.186  11.001
22660W        W89069  14.200  36.424   4.648
22661W        W89070  16.731  24.488   3.245
22662W        W89071  20.150  11.811  14.258
22663W        W89072  21.445  42.822   2.778
22664W        W89073   7.268  33.942  11.400
22665W        W89074  14.588  31.004   0.897
22666W        W89075  37.719  29.481  12.865
22667W        W89076  34.905   8.286   2.363
22668W        W89077  10.077   7.602  12.536
22669W        W89078   8.525  41.874  14.067
22670W        W89079   4.683   4.220   4.297
22671W        W89080  34.368  41.516  14.487
22672W        W89081  33.694  32.449   3.674
22673W        W89082  13.269   4.926  14.851
22674W        W89083  41.453  21.188   0.370
22675W        W89084  36.517  12.133  11.664
22676W        W89085  19.463   8.402   2.361
22677W        W89086  13.712  24.012   0.752
22678W        W89087  34.314  38.477   3.974
22679W        W89088  17.373  19.181  10.719
22680W        W89089   8.096  31.065  10.518
22681W        W89090  44.658  12.188  11.554
22682W        W89091  23.502  31.623   0.855
22683W        W89092   6.437  11.942  13.896
22684W        W89093  31.093  23.167  14.264
22685W        W89094  30.412  40.581   1.878
22686W        W89095  36.853  21.684   2.724
22687W        W89096  21.789  18.838  12.053
22688W        W89097  30.538  21.261  12.396
22689W        W89098  27.789  25.179   1.615
22690W        W89099  40.290  38.773   4.379
22691W        W89100   1.827  31.749   3.561
22692W        W89101   1.307   2.456  14.790
22693W        W89102   7.669   9.140   2.257
22694W        W89103  20.208  35.929   1.828
22695W        W89104   0.772   5.436  12.542
22696W        W89105  44.532   6.750   2.609
22697W        W89106  21.786  16.905  13.501
22698W        W89107   4.657  24.120   5.143
22699W        W89108  33.626  12.096   0.525
22700W        W89109  41.950  29.572  14.426
22701W        W89110  39.457   0.042   4.239
22702W        W89111   9.655  39.991   2.893
22703W        W89112  40.012   5.743  10.703
22704W        W89113  20.658  27.507   0.959
22705W        W89114  12.645  16.762  14.632
22706W        W89115   5.648  18.967  11.784
22707W        W89116  25.253  28.010   0.877
22708W        W89117  25.791  11.828  12.485
22709W        W89118  26.210   2.432   4.287
22710W        W89119   9.914   9.609  12.451
22711W        W89120  11.624  23.962  11.300
22712W        W89121   6.698  44.063  13.019
22713W        W89122  44.476  28.642  12.830
22714W        W89123   9.609  37.514   3.218
22715W        W89124   7.328  22.108  12.896
22716W        W89125   5.916  23.626   1.201
22717W        W89126   5.265  18.443  13.714
22718W        W89127  27.406   5.396  13.315
22719W        W89128  30.357  37.164   1.586
22720W        W89129  14.804  32.716  12.402
22721W        W89130  39.806  18.651  11.767
22722W        W89131  35.023  27.422   2.770
22723W        W89132  32.508  39.787  14.443
22724W        W89133  29.105  32.265  13.491
22725W        W89134  20.840  29.105   0.929
22726W        W89135  40.559  21.013   1.347
22727W        W89136  34.139  14.595   2.729
22728W        W89137   5.422  32.363   1.863
22729W        W89138  13.188  42.146  13.961
22730W        W89139  27.876  39.164  10.755
22731W        W89140  35.528  41.260  13.021
22732W        W89141  25.985  15.338  11.533
22733W        W89142  42.416   7.250  14.834
22734W        W89143  25.551  27.982   4.165
22735W        W89144   0.239  24.235   3.261
22736W        W89145  12.970  11.961   5.125
22737W        W89146  11.286  22.721   1.030
22738W        W89147  37.395   8.777  12.428
22739W        W89148  34.348  39.942  13.443
22740W        W89149  21.046  12.147   4.534
22741W        W89150   3.927  23.040  12.429
22742W        W89151  13.745  37.085   1.690
22743W        W89152  24.687   4.772   1.274
22744W        W89153   2.759  20.514  10.773
22745W        W89154   6.234   4.494   2.350
22746W        W89155   6.949  32.590   1.649
22747W        W89156  19.227  37.512  10.723
22748W        W89157   9.985  38.629   2.741
22749W        W89158  33.605  44.420   1.351
22750W        W89159  22.205   6.721  14.954
22751W        W89160  27.259  43.041  10.312
22752W        W89161   6.953  25.591   3.586
22753W        W89162  42.201   5.698  12.974
22754W        W89163  14.628   8.189  12.485
22755W        W89164  20.998  14.770  12.959
22756W        W89165  24.602  26.443  10.652
22757W        W89166  10.285  12.182  12.925
22758W        W89167  16.046   6.349   3.367
22759W        W89168  33.882  33.763  11.412
22760W        W89169  31.913   9.713  12.461
22761W        W89170  44.666  13.229   2.679
22762W        W89171  43.813  25.491   1.683
22763W        W89172  41.198   9.697   0.622
22764W        W89173  16.273  26.170   0.849
22765W        W89174  28.535   9.779   2.236
22766W        W89175  42.067  22.739  12.472
22767W        W89176  33.798  10.254   1.328
22768W        W89177  29.068  24.986   1.330
22769W        W89178  31.105  17.132  12.405
22770W        W89179  24.250  22.803  12.985
22771W        W89180  37.314  17.078  14.790
22772W        W89181  38.358  29.128   0.324
22773W        W89182  21.205  13.676   3.370
22774W        W89183  36.861   1.846   2.432
22775W        W89184  18.085  41.774  10.745
22776W        W89185  28.697  36.489   2.335
22777W        W89186   1.470   1.926   2.216
22778W        W89187  22.898   9.367   4.009
22779W        W89188  20.999   0.846   4.731
22780W        W89189  39.579  21.134   4.539
22781W        W89190   0.398  36.951  12.043
22782W        W89191  22.158   8.872  11.591
22783W        W89192  26.517  31.506  14.634
22784W        W89193  13.558  27.034   1.194
22785W        W89194  25.708  42.773   3.550
22786W        W89195  32.326  37.881   1.862
22787W        W89196  39.286   7.672  13.297
22788W        W89197  37.911  43.006   3.724
22789W        W89198  17.694   0.271  10.710
22790W        W89199  43.222  13.249   3.173
22791W        W89200  27.805  34.040  12.400
22792W        W89201  23.378  26.627  11.083
22793W        W89202  16.182   9.856  10.770
22794W        W89203   7.576  25.143  13.506
22795W        W89204  44.811  25.292   2.990
22796W        W89205  29.277   5.112  14.973
22797W        W89206  41.808  15.668  10.784
22798W        W89207  15.997  19.036  11.177
22799W        W89208  29.420  35.801  12.393
22800W        W89209  41.354   0.459   4.339
22801W        W89210  43.325  22.630   3.414
22802W        W89211  33.655   7.101   1.233
22803W        W89212   5.240  20.240   4.762
22804W        W89213  44.409   2.426   3.598
22805W        W89214  13.679  31.706   1.860
22806W        W89215  39.941  23.227   3.155
22807W        W89216  21.975  31.422  12.047
22808W        W89217  18.651  24.664  13.167
22809W        W89218  20.172  17.799   3.986
22810W        W89219  37.131   9.198  13.422
22811W        W89220  43.897  15.874   3.683
22812W        W89221  10.834   5.795  10.322
22813W        W89222  37.874  36.042   2.856
22814W        W89223  44.452   0.364   4.382
22815W        W89224  12.205  26.595   5.035
22816W        W89225   7.789  14.650   4.679
22817W        W89226   4.358  30.225  14.383
22818W        W89227  36.045  21.703   1.784
22819W        W89228  23.108  36.675   4.208
22820W        W89229  13.565  30.530   1.134
22821W        W89230  27.727  22.670   2.518
22822W        W89231  33.989  23.530  12.824
22823W        W89232  20.285  22.040   0.514
22824W        W89233   1.923   1.696   1.374
22825W        W89234   8.758  24.783  14.240
22826W        W89235  39.521  25.151   5.065
22827W        W89236  20.015  41.453   4.479
22828W        W89237  17.461  42.294  10.634
22829W        W89238   9.922  16.132  13.914
22830W        W89239   1.729  24.624  14.970
22831W        W89240  20.264  14.269   1.420
22832W        W89241  14.811  29.261   4.630
22833W        W89242   7.212  38.570   1.058
22834W        W89243  13.075  21.065   5.070
22835W        W89244   1.249  42.727  12.992
22836W        W89245   1.282   3.906   0.838
22837W        W89246  25.794  37.502   4.592
22838W        W89247  44.540  38.990   5.018
22839W        W89248  12.808  12.284  13.106
22840W        W89249  42.098  17.167   1.802
22841W        W89250  22.492  35.832  14.875
22842W        W89251  17.090  27.538   4.259
22843W        W89252  29.617   9.378  11.349
22844W        W89253  12.043   9.155   3.669
22845W        W89254  31.919  18.916   3.613
22846W        W89255  16.638   6.226  12.385
22847W        W89256   6.841  10.390   4.129
22848W        W89257  16.298   9.060  14.001
22849W        W89258  12.181  27.941   1.634
22850W        W89259  20.660  30.518   1.316
22851W        W89260  25.167  23.281  10.141
22852W        W89261  21.925  43.516   1.392
22853W        W89262   5.459  17.525  10.760
22854W        W89263  31.935  29.398  11.724
22855W        W89264  37.643  31.858   0.505
22856W        W89265  34.079  20.823   0.450
22857W        W89266  10.119   5.414  11.772
22858W        W89267   7.987  29.501  13.098
22859W        W89268  39.070  42.933  10.619
22860W        W89269  43.023   8.277  12.490
22861W        W89270  40.207   4.763  13.524
22862W        W89271  30.565  41.466  10.829
22863W        W89272  18.140  10.716   3.381
22864W        W89273  22.300   4.931   3.643
22865W        W89274  12.644  11.498   4.661
22866W        W89275  15.263  17.466  12.528
22867W        W89276  13.576  32.143   4.159
22868W        W89277  13.710  43.926  11.579
22869W        W89278  27.846   3.411   3.268
22870W        W89279  32.834  42.817  14.444
22871W        W89280   3.373  20.213   2.534
22872W        W89281  23.285  13.213   4.588
22873W        W89282  12.008   1.663  10.802
22874W        W89283  25.619  23.260  13.458
22875W        W89284  19.744  27.425   1.449
22876W        W89285  25.343  16.236  11.686
22877W        W89286  35.974  23.688  11.162
22878W        W89287  13.495  34.394  11.940
22879W        W89288  34.090  42.328  12.911
22880W        W89289  28.803  15.277   3.405
22881W        W89290  33.532  36.378  12.764
22882W        W89291   3.992   0.611   3.104
22883W        W89292  17.624   9.348  12.156
22884W        W89293  15.728   0.308  14.869
22885W        W89294   8.969  43.298   3.280
22886W        W89295  33.562  38.083  13.530
22887W        W89296  13.385   5.849   0.334
22888W        W89297  13.670   9.661   3.104
22889W        W89298  37.902  29.490   2.936
22890W        W89299  38.328  28.900  11.855
22891W        W89300  29.870  42.015  14.328
22892W        W89301   7.217  26.576   0.906
22893W        W89302  24.957  41.674   2.827
22894W        W89303  10.781   7.318   0.553
22895W        W89304  18.645   0.574   2.445
22896W        W89305  35.555  18.896   0.529
22897W        W89306  25.697  41.994   3.158
22898W        W89307   3.418  24.407  11.554
22899W        W89308  21.253  29.108  13.973
22900W        W89309  20.728   9.733   3.787
22901W        W89310  21.087  31.988  12.052
22902W        W89311  39.305  30.961   2.283
22903W        W89312  27.648  36.580   2.317
22904W        W89313   9.048  22.069  13.932
22905W        W89314  12.123   2.211  13.487
22906W        W89315   7.117  41.545  11.664
22907W        W89316  18.481  38.525  10.624
22908W        W89317  11.400  17.403  11.928
22909W        W89318  41.928  19.639  10.590
22910W        W89319  26.374  15.633   3.013
22911W        W89320  43.880  14.680  13.580
22912W        W89321  21.893   4.631   1.202
22913W        W89322  42.986  18.265   1.371
22914W        W89323  24.617  21.623   3.448
22915W        W89324   7.425  18.150  10.613
22916W        W89325  28.519  23.291  13.102
22917W        W89326  26.367  41.583  14.599
22918W        W89327   3.374  28.281  13.080
22919W        W89328  22.543   0.268   3.548
22920W        W89329  32.934  25.520   3.670
22921W        W89330   4.997  31.397  10.304
22922W        W89331  22.173  40.192   4.519
22923W        W89332  33.583  44.375  10.625
22924W        W89333  33.344  41.969   3.146
22925W        W89334   0.883  34.773  12.390
22926W        W89335  19.753   1.599  12.611
22927W        W89336  27.193  10.730  10.717
22928W        W89337   7.628  17.657   3.889
22929W        W89338   9.413  24.641  11.940
22930W        W89339   0.563   5.153  12.047
22931W        W89340  44.402  21.007   3.787
22932W        W89341  35.987  12.416   0.075
22933W        W89342  43.259  14.258   3.147
22934W        W89343   3.538  38.038  14.321
22935W        W89344   5.985   4.206  12.956
22936W        W89345  39.309  26.157  12.542
22937W        W89346  23.457   3.660  13.430
22938W        W89347  36.168  24.091   3.183
22939W        W89348   9.579  21.142   0.370
22940W        W89349  20.053   1.205  11.882
22941W        W89350  40.004  40.962   4.045
22942W        W89351  19.490  40.474   3.183
22943W        W89352   9.433   3.840   5.002
22944W        W89353  14.322   0.946   5.346
22945W        W89354   6.676  34.134   4.438
22946W        W89355   4.050   4.883  10.672
22947W        W89356  40.545   6.330  12.509
22948W        W89357  29.888  37.621   0.863
22949W        W89358  26.029  31.489  14.390
22950W        W89359  15.871  17.297  11.094
22951W        W89360  44.367  34.497   4.292
22952W        W89361  36.426  31.227   4.317
22953W        W89362  25.520  41.417   4.060
22954W        W89363  18.766  41.380  14.000
22955W        W89364  35.585  32.206  13.501
22956W        W89365   0.374  19.330   0.374
22957W        W89366  18.778  29.399   1.259
22958W        W89367  15.742   3.804  10.912
22959W        W89368  23.698  10.154   0.381
22960W        W89369  41.405  19.613  10.651
22961W        W89370  15.208  28.635   4.156
22962W        W89371  18.648  35.664  13.495
22963W        W89372   8.880   1.230   3.319
22964W        W89373  20.278  34.307   0.888
22965W        W89374   2.245   6.688   0.294
22966W        W89375  26.194  14.549   4.324
22967W        W89376  28.190  40.461   4.626
22968W        W89377  44.285  22.693   3.284
22969W        W89378  42.223  13.415   2.220
22970W        W89379  16.734   9.219  10.659
22971W        W89380   4.656  24.835  12.062
22972W        W89381  40.867   3.221  11.698
22973W        W89382   6.889  10.712   4.607
22974W        W89383  33.426  37.800   1.293
22975W        W89384  22.170  25.583  13.075
22976W        W89385  22.027  42.341   0.083
22977W        W89386  17.802  42.708   1.175
22978W        W89387   2.825   8.633   1.363
22979W        W89388  42.463  27.038  12.612
22980W        W89389   9.712   7.841  14.267
22981W        W89390   9.763  13.541   0.214
22982W        W89391  28.969   5.864  14.416
22983W        W89392   5.753  17.835   4.434
22984W        W89393  14.830  36.403   5.454
22985W        W89394  41.617  12.655   4.758
22986W        W89395  28.150   6.024   1.232
22987W        W89396  16.366  38.256  12.031
22988W        W89397  42.299  28.871   0.611
22989W        W89398   8.689  15.328   1.397
22990W        W89399   0.428  44.946   1.254
22991W        W89400  30.063  30.927   1.604
22992W        W89401  34.395  20.984   2.947
22993W        W89402  40.443  23.089   2.706
22994W        W89403  26.714  34.988   1.087
22995W        W89404  17.779  16.381   0.040
22996W        W89405  34.336  43.505  11.187
22997W        W89406  43.191  40.893   0.452
22998W        W89407  13.587  32.149  11.530
22999W        W89408   8.326  14.524  11.683
23000W        W89409  13.111   2.417  13.393
23001W        W89410  31.315  13.198  13.915
23002W        W89411  29.959  42.608   3.038
23003W        W89412  38.808  27.521   1.411
23004W        W89413  42.501  33.650  13.996
23005W        W89414  36.077  39.829  14.828
23006W        W89415  37.582  26.164  13.425
23007W        W89416   7.654  30.241  10.716
23008W        W89417  43.347  43.956  11.601
23009W        W89418  15.077   2.723  11.961
23010W        W89419   4.055  19.417   1.000
23011W        W89420  15.669  35.504   3.863
23012W        W89421  24.196  14.374  11.720
23013W        W89422  14.064  19.636  13.471
23014W        W89423  39.419  27.729  13.432
23015W        W89424   4.196  41.774  11.035
23016W        W89425  33.058  17.441   4.094
23017W        W89426   5.771  35.288   3.201
23018W        W89427  24.496  23.322   3.708
23019W        W89428  38.705   5.819  12.407
23020W        W89429   2.766  23.697   2.656
23021W        W89430  25.300   3.751   0.143
23022W        W89431  24.296  19.190   4.134
23023W        W89432  34.079  35.967  14.268
23024W        W89433  22.754   8.628   0.184
23025W        W89434  25.190  10.405  12.927
23026W        W89435  42.751   1.685  13.844
23027W        W89436  34.610   6.651   2.646
23028W        W89437  31.472  10.726   2.441
23029W        W89438  39.098  37.729  10.583
23030W        W89439  29.194  34.869   2.298
23031W        W89440  16.506  22.517  14.730
23032W        W89441  34.002  14.194  14.815
23033W        W89442  13.340  12.631  13.722
23034W        W89443   5.766  19.696   1.975
23035W        W89444  16.922   5.273   3.882
23036W        W89445  27.518  25.008  10.844
23037W        W89446  30.247   6.820  11.548
23038W        W89447  21.945  29.662   4.156
23039W        W89448   9.104  36.715  11.498
23040W        W89449   8.401   6.363  13.337
23041W        W89450  29.653  27.155  12.452
23042W        W89451  34.417   2.430   0.673
23043W        W89452  19.789   0.790  10.761
23044W        W89453  21.261  16.688   2.383
23045W        W89454  34.504  37.296   2.911
23046W        W89455  32.618  20.134  13.520
23047W        W89456   4.134  23.317   2.698
23048W        W89457  34.639  13.112   1.084
23049W        W89458  36.492  34.981   1.251
23050W        W89459  22.408  41.045  12.303
23051W        W89460  43.341  36.079  12.550
23052W        W89461   2.891  31.006   4.887
23053W        W89462  23.932  35.852  13.458
23054W        W89463  39.365   9.675  11.865
23055W        W89464   0.090  27.496  13.092
23056W        W89465  35.599  19.326  12.738
23057W        W89466  25.134  39.775  14.435
23058W        W89467   4.360   7.176   0.395
23059W        W89468  37.298  24.274  13.983
23060W        W89469   9.169  20.198  14.563
23061W        W89470  34.391  14.546   5.040
23062W        W89471  37.463   7.333  13.423
23063W        W89472  10.927  19.587   4.805
23064W        W89473  11.576  15.535   4.927
23065W        W89474   0.042   5.784  10.562
23066W        W89475   9.315  35.062  13.362
23067W        W89476  33.888  27.170   3.419
23068W        W89477   1.562  39.188   0.582
23069W        W89478  25.778  40.769  13.889
23070W        W89479  36.070  20.755   1.975
23071W        W89480  17.714   1.055   4.017
23072W        W89481  41.261  16.192  14.414
23073W        W89482  39.432  40.229   4.314
23074W        W89483  22.901  44.298  12.378
23075W        W89484  32.766  34.809   0.841
23076W        W89485  40.986  42.560   1.441
23077W        W89486   1.906  16.025   1.866
23078W        W89487   3.894   5.678  12.140
23079W        W89488  12.209  21.925  11.782
23080W        W89489  43.908  44.206  12.988
23081W        W89490  37.213  36.097   1.124
23082W        W89491   5.418  29.098  12.393
23083W        W89492  34.685  24.492  14.493
23084W        W89493  44.867  40.583   3.584
23085W        W89494  15.680  42.331  10.375
23086W        W89495  35.885   0.506   0.402
23087W        W89496  23.807   0.433  13.377
23088W        W89497  22.239  27.138  14.064
23089W        W89498   8.684   2.386   4.187
23090W        W89499  13.411  41.062   0.298
23091W        W89500   8.306   3.244  13.481
23092W        W89501  31.280  10.948   3.750
23093W        W89502   2.061  25.442  12.390
23094W        W89503  22.062   3.682  13.457
23095W        W89504  36.115  24.173   4.521
23096W        W89505  36.469  18.140   1.478
23097W        W89506  28.864  25.589  10.970
23098W        W89507  13.550  36.900   4.746
23099W        W89508  42.917  22.214   1.836
23100W        W89509  40.393  34.082  14.373
23101W        W89510  13.022  11.906   3.704
23102W        W89511  26.571  41.897  13.027
23103W        W89512  28.157  22.749   1.389
23104W        W89513  30.101  39.257   4.076
23105W        W89514   7.959   7.708   4.858
23106W        W89515  24.013  13.473   0.491
23107W        W89516   0.278   9.860   0.361
23108W        W89517  42.397  26.682  13.531
23109W        W89518   5.826   9.003  12.022
23110W        W89519  25.278  30.069   3.187
23111W        W89520  22.530  38.972   1.892
23112W        W89521  14.196  22.583   0.596
23113W        W89522  25.097  38.578  14.994
23114W        W89523  44.699  38.820   0.095
23115W        W89524  35.020  11.815  14.412
23116W        W89525  22.250   3.297   2.495
23117W        W89526  10.106  10.104  13.905
23118W        W89527  39.580  42.429   1.892
23119W        W89528  38.843   1.418   1.776
23120W        W89529  37.886   6.694  12.950
23121W        W89530  23.575  28.598   2.695
23122W        W89531  33.268  33.972  14.885
23123W        W89532  11.664  35.066   3.156
23124W        W89533  13.752  25.602  13.309
23125W        W89534  29.743  39.796   2.956
23126W        W89535  31.712   7.235  10.458
23127W        W89536  43.814  27.380   4.609
23128W        W89537  27.974  17.155   3.288
23129W        W89538  27.929  40.820   3.639
23130W        W89539   8.524  34.874   2.015
23131W        W89540  43.483  44.450   9.756
23132W        W89541  20.635  36.993  11.917
23133W        W89542  31.121  14.158  10.204
23134W        W89543  43.796  33.908  11.443
23135W        W89544   0.231  38.084  13.880
23136W        W89545   6.404   5.092  13.470
23137W        W89546  21.913  36.858  12.928
23138W        W89547   7.447  41.291  13.423
23139W        W89548  21.010   1.239  11.103
23140W        W89549   1.610  17.854   2.396
23141W        W89550  15.050  35.901   0.822
23142W        W89551   8.218  12.688  14.163
23143W        W89552  13.436  16.100  12.480
23144W        W89553  43.795  11.096  14.327
23145W        W89554  37.358  23.802   2.345
23146W        W89555  13.795   2.619  13.974
23147W        W89556  33.461  31.649   3.245
23148W        W89557  12.719  42.768   1.866
23149W        W89558  28.708  12.303  14.646
23150W        W89559  44.200  17.311   0.740
23151W        W89560   6.341  43.360   0.709
23152W        W89561   4.316  24.865  13.282
23153W        W89562   5.378  18.280   2.003
23154W        W89563  26.070  25.704  12.664
23155W        W89564  43.513  34.878   1.642
23156W        W89565   4.849  16.700   4.082
23157W        W89566  26.250   2.724  12.409
23158W        W89567   1.399  20.610  12.821
23159W        W89568  10.389  30.952  14.349
23160W        W89569   6.151   5.392  13.856
23161W        W89570  19.013  36.436  13.636
23162W        W89571  28.639  37.992   2.736
23163W        W89572   3.752  35.084  14.961
23164W        W89573  14.452  39.521  13.803
23165W        W89574  36.085  44.944  13.420
23166W        W89575  19.484  43.984   2.607
23167W        W89576  19.496  32.879   2.784
23168W        W89577   3.753  19.205  12.020
23169W        W89578  43.301  39.169  12.451
23170W        W89579  37.270  30.473  11.121
23171W        W89580  35.633  43.603   2.216
23172W        W89581  27.205  23.598   1.384
23173W        W89582  34.616  23.675  13.943
23174W        W89583  11.368  14.904   0.750
23175W        W89584  40.356   7.092   4.100
23176W        W89585  27.577  27.991  12.571
23177W        W89586  15.597  24.980   3.603
23178W        W89587  33.479  10.657  12.141
23179W        W89588   5.803  21.137   1.908
23180W        W89589   9.592   8.294  11.614
23181W        W89590  42.698   4.864  11.503
23182W        W89591  35.971  17.365   9.837
23183W        W89592  34.926  31.037  12.960
23184W        W89593  38.639  22.662   0.995
23185W        W89594  29.196  18.628  14.072
23186W        W89595  44.748  24.645   0.906
23187W        W89596  44.991   7.059   4.135
23188W        W89597   6.460  17.026   1.614
23189W        W89598  28.657  21.611  11.042
23190W        W89599   2.778  13.148  11.986
23191W        W89600  21.982  40.258   0.377
23192W        W89601  20.169  31.353   0.328
23193W        W89602  33.806  30.527  12.593
23194W        W89603  21.090  37.005  14.877
23195W        W89604  15.335  43.442   4.932
23196W        W89605   5.241   9.112  13.312
23197W        W89606  44.712   0.538   2.311
23198W        W89607  26.463   0.491   1.548
23199W        W89608  42.934  24.155  13.325
23200W        W89609  32.948  40.941  11.608
23201W        W89610   3.746  35.130  12.077
23202W        W89611  16.095  33.187   4.432
23203W        W89612  39.426  14.588  14.503
23204W        W89613  42.928  40.296  11.483
23205W        W89614  43.379   7.391   0.275
23206W        W89615  44.443  13.302   3.174
23207W        W89616  26.017  23.793   2.250
23208W        W89617  21.916   0.740  11.962
23209W        W89618   5.792  21.837   2.741
23210W        W89619  40.869  19.200   4.543
23211W        W89620  42.318  10.605  13.861
23212W        W89621  21.771   8.002  12.259
23213W        W89622  14.859  39.690   5.003
23214W        W89623  31.371   1.741   5.021
23215W        W89624   2.465  20.865  13.854
23216W        W89625  33.911  22.550  14.879
23217W        W89626  10.734   4.716  13.585
23218W        W89627  11.110   7.350   4.480
23219W        W89628  15.794  31.548  14.374
23220W        W89629  18.332  37.638   1.951
23221W        W89630   2.471  25.072   4.126
23222W        W89631  37.058  34.985   4.115
23223W        W89632  14.791  44.280   0.958
23224W        W89633  19.760   5.392  11.094
23225W        W89634  11.113  14.308  13.480
23226W        W89635  35.016  18.849   2.365
23227W        W89636  35.845  42.473  14.792
23228W        W89637  38.306  41.351  14.040
23229W        W89638   1.064  29.986  14.938
23230W        W89639   9.982  16.531  14.209
23231W        W89640  15.799   7.643   2.857
23232W        W89641  23.186  21.120  10.259
23233W        W89642  31.073  22.024  12.598
23234W        W89643   2.747   1.669  11.389
23235W        W89644  41.871  41.179  11.085
23236W        W89645  43.245  24.992  12.984
23237W        W89646  36.462   9.177   1.740
23238W        W89647  41.722  18.948   0.401
23239W        W89648  19.754  25.619  12.170
23240W        W89649  33.465  16.038   0.437
23241W        W89650   2.056  35.682   1.933
23242W        W89651  44.719  18.081   0.677
23243W        W89652   5.097   2.648   2.282
23244W        W89653   9.255  18.036  14.889
23245W        W89654  25.450   3.385   3.394
23246W        W89655  37.464  18.607   0.023
23247W        W89656  19.099   9.167  12.850
23248W        W89657   2.616  38.786  14.745
23249W        W89658   3.473  22.225  11.985
23250W        W89659  10.671  43.523  11.148
23251W        W89660   2.383  28.422   2.397
23252W        W89661  12.710  23.541   4.107
23253W        W89662   4.427  33.337  12.625
23254W        W89663   7.647  30.919   0.001
23255W        W89664  38.501  14.685   1.471
23256W        W89665  33.466  27.349  14.764
23257W        W89666  29.491  39.824  11.182
23258W        W89667  40.095  41.128   0.759
23259W        W89668  36.904  22.203  11.885
23260W        W89669  21.646  37.482   5.095
23261W        W89670  15.619   4.851   4.095
23262W        W89671  13.400  36.026  12.795
23263W        W89672  29.703   5.330  14.766
23264W        W89673  33.187   4.996  10.685
23265W        W89674  41.559  39.872   1.339
23266W        W89675  43.789  11.880  14.594
23267W        W89676  42.028  41.800  12.825
23268W        W89677  19.016  23.628   0.882
23269W        W89678  38.258  14.011   2.432
23270W        W89679   0.975  17.671  14.402
23271W        W89680  24.253   7.652   2.668
23272W        W89681  15.060  41.032   0.935
23273W        W89682  38.464  10.782  14.903
23274W        W89683  26.003  40.319   3.638
23275W        W89684   8.100  31.994  10.248
23276W        W89685  25.093   1.293   4.837
23277W        W89686  35.268  38.624   3.775
23278W        W89687  17.810  34.402  12.128
23279W        W89688  41.439   1.334   3.825
23280W        W89689   9.307  26.407   1.842
23281W        W89690  36.517  11.546  10.104
23282W        W89691  31.044   3.152   0.513
23283W        W89692  40.079   6.126  14.397
23284W        W89693  40.744  14.641   0.373
23285W        W89694  27.510  26.605   4.976
23286W        W89695  18.428   4.156   3.130
23287W        W89696   7.080   5.719  11.915
23288W        W89697  16.089   1.441   2.772
23289W        W89698  27.941   0.410   4.353
23290W        W89699  35.325  36.552   3.616
23291W        W89700   3.689  33.450  12.122
23292W        W89701  38.579  17.387   1.831
23293W        W89702  31.442  16.516  12.992
23294W        W89703  40.997  22.639  14.291
23295W        W89704  23.678  33.109  13.877
23296W        W89705  35.870  15.081   1.127
23297W        W89706  43.057  10.745   2.317
23298W        W89707  39.287   8.478  13.512
23299W        W89708   8.987  24.636   0.300
23300W        W89709  36.437  11.215  13.021
23301W        W89710   8.741  13.196   0.294
23302W        W89711   3.926  40.909   3.131
23303W        W89712  20.972  17.982  14.956
23304W        W89713  43.500  34.829   2.187
23305W        W89714  12.063  27.220   1.504
23306W        W89715  13.111  43.797  11.098
23307W        W89716  39.023  26.971  14.801
23308W        W89717  15.777  24.123   9.888
23309W        W89718   0.715  43.243  11.185
23310W        W89719  29.223  13.818   3.635
23311W        W89720  44.958  16.194   1.900
23312W        W89721   4.466  17.734  11.338
23313W        W89722  20.816  38.414   3.150
23314W        W89723  12.281  36.431   3.404
23315W        W89724   4.906   1.780   4.753
23316W        W89725  41.962  33.883  10.485
23317W        W89726   6.688   4.813   2.857
23318W        W89727  17.527  13.170  14.404
23319W        W89728  10.931   3.348   1.302
23320W        W89729   8.226  25.786   3.710
23321W        W89730   5.580  26.898  13.141
23322W        W89731  20.466  18.816   0.690
23323W        W89732   0.499  27.720  10.185
23324W        W89733  10.762   3.026   0.440
23325W        W89734  33.463  43.502   1.335
23326W        W89735  41.421  44.808  12.578
23327W        W89736  23.019  28.431   0.805
23328W        W89737  30.727  35.728   4.346
23329W        W89738  41.795  23.031   1.428
23330W        W89739   2.357   6.204   9.608
23331W        W89740  11.941  27.293  10.676
23332W        W89741   3.430  27.473   4.002
23333W        W89742  22.503   2.269   0.997
23334W        W89743  39.433  25.073   0.228
23335W        W89744  36.752  39.388   1.254
23336W        W89745  20.614  40.851  13.907
23337W        W89746  11.247   9.554   3.711
23338W        W89747   7.569   2.379  13.998
23339W        W89748  38.777  23.149   0.894
23340W        W89749  29.691   9.135  13.614
23341W        W89750   1.854  17.278   4.053
23342W        W89751  27.027  38.588   0.132
23343W        W89752   6.281  26.849  10.706
23344W        W89753  17.626  20.459   2.699
23345W        W89754  19.421   3.972  14.983
23346W        W89755   4.975  26.887  11.200
23347W        W89756  21.699  23.579   2.144
23348W        W89757  34.103  42.086  11.506
23349W        W89758  15.144  29.500  14.301
23350W        W89759  29.701  17.021   2.343
23351W        W89760  26.061  12.587  13.948
23352W        W89761  13.538  32.920  14.427
23353W        W89762  38.667  11.368  13.065
23354W        W89763  38.385  31.119  12.490
23355W        W89764  35.632  40.529  13.418
23356W        W89765  17.740  41.208  10.243
23357W        W89766  32.677   6.821  14.254
23358W        W89767  44.055  26.413  14.959
23359W        W89768   9.738  35.310  13.950
23360W        W89769  37.835   1.752   0.472
23361W        W89770  27.934  30.420   5.030
23362W        W89771  28.164  25.602   4.655
23363W        W89772  32.216  42.469  12.797
23364W        W89773  39.884  21.577   4.086
23365W        W89774   2.483   3.437  10.871
23366W        W89775  32.119  14.653   5.364
23367W        W89776  15.569  36.359   3.634
23368W        W89777  32.914  42.483  12.719
23369W        W89778   1.870  40.342  12.045
23370W        W89779   1.840  33.343   5.019
23371W        W89780  38.342   8.731  13.499
23372W        W89781  44.894  30.229   2.404
23373W        W89782  41.746  28.644   3.511
23374W        W89783  19.195  38.274   1.750
23375W        W89784   8.176  12.955  13.131
23376W        W89785  41.356  19.503  12.272
23377W        W89786   3.740   5.157   4.197
23378W        W89787   3.260   0.859   4.153
23379W        W89788  13.691   1.779  11.952
23380W        W89789  30.524  13.027  11.148
23381W        W89790  25.186   3.520   3.846
23382W        W89791   1.917  19.616   3.696
23383W        W89792  22.469  12.676   1.820
23384W        W89793  42.937  14.669  11.894
23385W        W89794   7.947  14.678  14.450
23386W        W89795   0.959  32.082  13.891
23387W        W89796  43.485  33.951   2.182
23388W        W89797  26.596   6.933  12.106
23389W        W89798  44.845  31.905  13.810
23390W        W89799   8.781  10.787  11.054
23391W        W89800  11.296   6.171   0.650
23392W        W89801  39.133   2.101   0.415
23393W        W89802  10.339  34.896   1.874
23394W        W89803  28.627  20.759  12.141
23395W        W89804   7.207  33.889  10.848
23396W        W89805   7.247  26.965   2.157
23397W        W89806  26.043  32.486   0.978
23398W        W89807  24.737  14.707   2.105
23399W        W89808  22.669  12.609   2.698
23400W        W89809  31.113   9.758  12.005
23401W        W89810   3.513   0.381   2.284
23402W        W89811  32.397  26.611   0.551
23403W        W89812  28.149  21.637   9.391
23404W        W89813  27.976   2.999   2.926
23405W        W89814   6.113  20.575   4.132
23406W        W89815  14.814  37.019   3.555
23407W        W89816  33.565  42.537   4.719
23408W        W89817  20.147   7.814   0.357
23409W        W89818  25.801  44.329   1.201
23410W        W89819  32.916  38.645   2.905
23411W        W89820  30.666  36.481  12.548
23412W        W89821   6.353  16.210  14.396
23413W        W89822  20.969  44.920   4.940
23414W        W89823  22.034  25.504   4.509
23415W        W89824   0.825  17.289  12.869
23416W        W89825  22.551  18.997  14.390
23417W        W89826  42.157  42.969  14.313
23418W        W89827  28.950  21.621   2.285
23419W        W89828   9.088  15.242   1.742
23420W        W89829  21.102  24.103  14.659
23421W        W89830   6.988  36.969   4.983
23422W        W89831  40.779  37.378   2.619
23423W        W89832  38.005   8.415  11.657
23424W        W89833  39.530  41.838  12.051
23425W        W89834  39.510   1.518  11.078
23426W        W89835  21.991  43.412   3.157
23427W        W89836  19.980  41.015  10.805
23428W        W89837  15.046  41.431   3.906
23429W        W89838  30.672  42.304   2.733
23430W        W89839   6.787  29.983   0.017
23431W        W89840   6.208  37.971  10.554
23432W        W89841  25.602   9.215   0.622
23433W        W89842  17.334  19.524  12.050
23434W        W89843   3.005  34.660  11.220
23435W        W89844   6.723  30.564  11.164
23436W        W89845  35.586  12.644  11.129
23437W        W89846   9.000  35.115  10.671
23438W        W89847  12.135  38.523  13.336
23439W        W89848   4.225   8.426  14.063
23440W        W89849  19.590  23.204   2.099
23441W        W89850  16.023   1.218  14.451
23442W        W89851  36.065   4.431  10.660
23443W        W89852   8.483   4.885  11.415
23444W        W89853  22.691  37.892   0.785
23445W        W89854  41.384  20.015  13.609
23446W        W89855  44.479  13.724   2.754
23447W        W89856  21.053  39.876   0.216
23448W        W89857  35.138   9.687   4.109
23449W        W89858  12.697   8.652  14.995
23450W        W89859  17.051  38.412  12.177
23451W        W89860  19.025  29.047   3.279
23452W        W89861  28.007  30.877  10.177
23453W        W89862  22.208  38.485   4.769
23454W        W89863  12.729  10.665  14.961
23455W        W89864   6.313   4.687  10.485
23456W        W89865  29.438  34.788  13.743
23457W        W89866  43.935  10.892  12.483
23458W        W89867  10.357  40.915  11.638
23459W        W89868  44.062  32.204   1.229
23460W        W89869  27.621  12.340  11.519
23461W        W89870   0.424   7.636   4.785
23462W        W89871  44.217  41.365  11.258
23463W        W89872   9.871   9.992  10.978
23464W        W89873  26.204   4.926   3.033
23465W        W89874  37.391   6.353  14.801
23466W        W89875  24.889  33.084  14.916
23467W        W89876  37.854  37.531  12.089
23468W        W89877  14.224  23.055   4.722
23469W        W89878  44.539  41.401  12.225
23470W        W89879  16.853  44.964  13.438
23471W        W89880  14.142  42.905  13.417
23472W        W89881  10.584  12.127   4.175
23473W        W89882   2.293  26.040  14.615
23474W        W89883   9.987   0.306  12.460
23475W        W89884   4.442  12.702   2.229
23476W        W89885  37.631  34.997   4.182
23477W        W89886   4.374  43.105   1.727
23478W        W89887  40.930  41.741   0.657
23479W        W89888   8.015   7.112  13.054
23480W        W89889  28.779   3.500   1.853
23481W        W89890   1.742   7.860   0.779
23482W        W89891   7.622  30.623  12.624
23483W        W89892   6.947   7.841   3.793
23484W        W89893  40.988   2.782   1.405
23485W        W89894   3.569   4.197  11.268
23486W        W89895  20.986  14.612   3.298
23487W        W89896  13.598   0.959   2.713
23488W        W89897  18.255  27.693   3.583
23489W        W89898  11.544   9.191   4.955
23490W        W89899  29.564  34.454  14.904
23491W        W89900  15.296  37.333  13.025
23492W        W89901  23.991  12.649  10.346
23493W        W89902  11.164  30.842   2.832
23494W        W89903  20.024  21.800  11.032
23495W        W89904  29.343  44.967   1.793
23496W        W89905  27.875  25.086   3.161
23497W        W89906  18.410  39.052   4.216
23498W        W89907   8.309  13.645   3.658
23499W        W89908  31.055  37.528   3.735
23500W        W89909  20.742  18.779  14.847
23501W        W89910   9.659   5.324   4.560
23502W        W89911   9.701  38.446   4.131
23503W        W89912  21.153   7.640   2.272
23504W        W89913  14.059   7.319   2.315
23505W        W89914  22.571  22.020   9.618
23506W        W89915  32.426  15.058   2.882
23507W        W89916  30.679  13.713  14.330
23508W        W89917  33.894  30.615   2.637
23509W        W89918  27.871  23.733   0.728
23510W        W89919   7.189  21.002  11.103
23511W        W89920   5.300  44.500  10.633
23512W        W89921  22.956  32.974  10.744
23513W        W89922   0.350  19.739   0.693
23514W        W89923  40.571  17.348   1.942
23515W        W89924  39.748  30.191  11.579
23516W        W89925   1.317  13.671   2.390
23517W        W89926  44.254  14.634  13.946
23518W        W89927  22.266  21.186  13.434
23519W        W89928  44.569  32.872   1.284
23520W        W89929   7.490   7.100   1.739
23521W        W89930   2.473  39.858   3.659
23522W        W89931  25.078  28.637   2.689
23523W        W89932  15.668  27.661   2.830
23524W        W89933  44.823  20.624  11.129
23525W        W89934  10.761   9.551   0.866
23526W        W89935  37.143  30.759  14.512
23527W        W89936  20.529  30.917   0.845
23528W        W89937  14.794   6.529   2.097
23529W        W89938  32.231   4.056  10.852
23530W        W89939  30.448   3.871   4.084
23531W        W89940  18.076  32.235   1.706
23532W        W89941   6.789  23.144  11.237
23533W        W89942  43.593  21.948   4.106
23534W        W89943  16.675  32.155  13.971
23535W        W89944  22.274   5.008   2.661
23536W        W89945  40.328  12.273  13.474
23537W        W89946  23.762  42.984   1.213
23538W        W89947  14.828  24.103   2.116
23539W        W89948  29.025   3.612  14.755
23540W        W89949   9.931  17.510   2.814
23541W        W89950  12.856  43.885   3.284
23542W        W89951  38.823   0.541   4.907
23543W        W89952  13.192  11.538   2.235
23544W        W89953  34.582  37.923   3.199
23545W        W89954  41.512  37.383  10.561
23546W        W89955  18.185  23.091   2.887
23547W        W89956   2.132  34.842  10.052
23548W        W89957  18.973  11.268   4.156
23549W        W89958  13.881  14.094   3.212
23550W        W89959  23.201  26.471  13.328
23551W        W89960  42.986  32.904  14.863
23552W        W89961  24.164  23.221  12.010
23553W        W89962  30.119  18.804  12.512
23554W        W89963   6.964   1.844   3.605
23555W        W89964  37.870  41.963  12.714
23556W        W89965  10.057  39.365  12.309
23557W        W89966  16.216  16.587  11.547
23558W        W89967  31.559   8.158   4.210
23559W        W89968  14.169  32.021   0.788
23560W        W89969  37.410   1.930   2.543
23561W        W89970   2.922  31.859   2.217
23562W        W89971   1.677  26.900   0.890
23563W        W89972  26.735  37.915  12.568
23564W        W89973   9.840  24.154   0.490
23565W        W89974   1.963  11.723  11.552
23566W        W89975  17.311   7.153  13.117
23567W        W89976  17.543  36.581   2.357
23568W        W89977  23.344  29.048   2.771
23569W        W89978  17.966  34.872   4.152
23570W        W89979  26.442   8.513   3.386
23571W        W89980  27.108  13.669  12.944
23572W        W89981  13.846  31.906   0.138
23573W        W89982   9.945  21.074  11.835
23574W        W89983  15.094  36.494  11.270
23575W        W89984  28.001  43.330   1.769
23576W        W89985  34.566  22.822  14.319
23577W        W89986  30.981  36.920   0.916
23578W        W89987   4.745  28.158   1.865
23579W        W89988  11.447  18.200  12.418
23580W        W89989  26.983  33.081   4.555
23581W        W89990   0.290   6.397  11.290
23582W        W89991  36.643  18.207   4.186
23583W        W89992  29.679   7.391  11.059
23584W        W89993  10.867  13.116   0.372
23585W        W89994  35.866  44.188  14.026
23586W        W89995   6.927  24.516   1.189
23587W        W89996  20.002  23.047  14.464
23588W        W89997  18.543  39.201   3.340
23589W        W89998  20.560  29.100  14.990
23590W        W89999   5.206   1.567   3.979
23591W        W90000  14.624  32.331  14.945
23592W        W90001  15.285  22.455  14.056
23593W        W90002  29.639   4.280  14.998
23594W        W90003  19.192  32.777   4.888
23595W        W90004  14.268  35.075   5.097
23596W        W90005  40.354  36.797   0.464
23597W        W90006  19.795  29.095  13.553
23598W        W90007   5.063  33.540   4.097
23599W        W90008  28.237  38.083   1.532
23600W        W90009  34.365   4.197  12.915
23601W        W90010  30.252  22.116   1.788
23602W        W90011   5.345  23.065   2.418
23603W        W90012  32.718  38.175   4.077
23604W        W90013  25.436   6.640  10.676
23605W        W90014  24.783  21.546   3.927
23606W        W90015  17.711  40.388  14.682
23607W        W90016  27.720  25.115  14.352
23608W        W90017   8.015  12.351  11.951
23609W        W90018  21.830  13.802  12.402
23610W        W90019  19.807  17.816  12.007
23611W        W90020  37.031  10.080  11.293
23612W        W90021  44.417   6.167  12.406
23613W        W90022  24.047   2.465  12.714
23614W        W90023   6.229  39.245   0.993
23615W        W90024   8.633   3.521  14.428
23616W        W90025  12.507  30.387   3.949
23617W        W90026  10.605  13.847   1.727
23618W        W90027  12.274   5.382   4.637
23619W        W90028  36.618  23.165   1.911
23620W        W90029   9.594   3.882  11.567
23621W        W90030   1.104  44.518   2.785
23622W        W90031  23.475  33.219   1.116
23623W        W90032   1.343  17.193   3.534
23624W        W90033  11.296  34.906   2.181
23625W        W90034   2.754  28.108  14.317
23626W        W90035   7.876   0.461   2.794
23627W        W90036  19.549  40.524   2.254
23628W        W90037  13.655  10.574  12.575
23629W        W90038  38.585  12.480   0.893
23630W        W90039  33.654  39.929   1.385
23631W        W90040  11.653  38.365  14.910
23632W        W90041  21.492   5.688  11.613
23633W        W90042  32.662  29.270  10.110
23634W        W90043  27.117  35.906   4.427
23635W        W90044   4.495   5.797   4.545
23636W        W90045  20.694  37.485   4.281
23637W        W90046  28.616   4.846   4.855
23638W        W90047  44.119  24.043   1.247
23639W        W90048  20.127  37.963  13.495
23640W        W90049  41.294  15.707   4.475
23641W        W90050  29.667  33.874  13.804
23642W        W90051  31.400  34.059  12.857
23643W        W90052  28.182  39.775  13.367
23644W        W90053  16.082  22.628   0.885
23645W        W90054  28.040   6.639  11.124
23646W        W90055  23.379  37.996   4.815
23647W        W90056   5.981  28.208  13.410
23648W        W90057  31.445  41.479   0.999
23649W        W90058  34.402  24.513  14.966
23650W        W90059  42.816  10.288  14.953
23651W        W90060  28.167  27.051   2.405
23652W        W90061  27.909  14.041   9.978
23653W        W90062  25.092  11.664   1.830
23654W        W90063  18.574  38.558   0.481
23655W        W90064  29.700  39.975   1.785
23656W        W90065  14.019  17.912   3.256
23657W        W90066  33.394  14.084  12.854
23658W        W90067   9.300  20.176  12.414
23659W        W90068  17.536  17.294   3.891
23660W        W90069  44.018   8.471  12.086
23661W        W90070  37.827  32.756   5.034
23662W        W90071   2.627  41.318  14.771
23663W        W90072   5.925  35.395  12.055
23664W        W90073  27.201   9.921   4.988
23665W        W90074  34.833  11.301   4.501
23666W        W90075  10.839  35.126  14.380
23667W        W90076  32.589  41.375   0.233
23668W        W90077  30.862  16.555  14.523
23669W        W90078   6.833  28.122   4.035
23670W        W90079  23.763  27.970  14.982
23671W        W90080  30.866   1.884  12.960
23672W        W90081  34.872  30.126  14.931
23673W        W90082  25.048  39.045   0.880
23674W        W90083  34.331  30.218  11.236
23675W        W90084  26.637   4.721   0.491
23676W        W90085  17.483  21.549  14.396
23677W        W90086  43.435  30.594  13.954
23678W        W90087  25.025  20.193  14.730
23679W        W90088  27.645  14.907  11.589
23680W        W90089  28.175  39.946  13.895
23681W        W90090  28.642  21.474  13.031
23682W        W90091   8.783  35.124   3.003
23683W        W90092  27.957  12.739  10.312
23684W        W90093  41.755  38.508  14.420
23685W        W90094  20.449  39.012  11.356
23686W        W90095  39.100  39.111  13.414
23687W        W90096  14.064  42.542   2.054
23688W        W90097  43.869  22.991   4.188
23689W        W90098  43.693  13.766   3.625
23690W        W90099  34.759   6.547  12.848
23691W        W90100  31.277   5.938   1.279
23692W        W90101  36.537  13.101   4.117
23693W        W90102  17.448  27.917  14.613
23694W        W90103   0.293  22.293  12.182
23695W        W90104  30.322  34.463  14.393
23696W        W90105   4.739  31.973   3.278
23697W        W90106   4.467  24.387  13.371
23698W        W90107  16.652  17.227   2.344
23699W        W90108  16.312  14.583   4.330
23700W        W90109  12.975  38.493   0.622
23701W        W90110  26.527  21.650  11.140
23702W        W90111   1.139   0.072   1.289
23703W        W90112  41.395   5.199   0.923
23704W        W90113  43.916   3.535  10.742
23705W        W90114  44.069   7.278   1.414
23706W        W90115  27.087  16.788   3.182
23707W        W90116  16.207  12.404  14.855
23708W        W90117  44.086  38.489   0.703
23709W        W90118  27.743  34.935   2.272
23710W        W90119   5.865  13.809  13.898
23711W        W90120  37.084  11.205  11.437
23712W        W90121  19.292   7.834   2.664
23713W        W90122  24.566  21.761   2.096
23714W        W90123  33.912   8.191   2.358
23715W        W90124  32.905  28.999  11.088
23716W        W90125  38.402  43.818  13.924
23717W        W90126  36.828  36.503  13.805
23718W        W90127  43.738  27.768   3.805
23719W        W90128  27.432  16.139   3.283
23720W        W90129  39.145  11.658  13.770
23721W        W90130  12.330  25.481  13.303
23722W        W90131  27.159  37.114   3.949
23723W        W90132  26.116   3.728  12.213
23724W        W90133   8.350  19.265  12.817
23725W        W90134   8.368  40.368   4.125
23726W        W90135   2.572   8.814   4.263
23727W        W90136  25.212  38.753   4.266
23728W        W90137  39.418  20.035   0.241
23729W        W90138  16.591  30.958  13.339
23730W        W90139  30.026  15.160   3.389
23731W        W90140  25.009   5.179   1.432
23732W        W90141   5.338  30.154  11.473
23733W        W90142  41.069  35.798  13.944
23734W        W90143  31.230   5.002   3.163
23735W        W90144  38.165  42.106   0.833
23736W        W90145  20.653  35.616   1.670
23737W        W90146  40.417   7.852  13.065
23738W        W90147  30.471  14.804   3.703
23739W        W90148  41.915  15.699   0.733
23740W        W90149  27.956  40.046  12.035
23741W        W90150   4.162  26.973   3.051
23742W        W90151  39.024  20.480  13.743
23743W        W90152  41.548  33.110   1.170
23744W        W90153  20.802  22.124   4.177
23745W        W90154  36.476  23.679   1.860
23746W        W90155  15.398   6.580  13.305
23747W        W90156  33.373   0.777  10.537
23748W        W90157  13.049  23.231  12.213
23749W        W90158  39.406  20.095  13.758
23750W        W90159  33.300  17.583   1.011
23751W        W90160  41.482   2.450   0.266
23752W        W90161  19.824   4.363  13.407
23753W        W90162  26.098  41.797  10.979
23754W        W90163  30.207  40.055   3.138
23755W        W90164  22.044   0.986   3.681
23756W        W90165   7.043  39.584  11.575
23757W        W90166  35.828  39.570  14.423
23758W        W90167   2.802   9.342  14.997
23759W        W90168  12.969  42.407   0.540
23760W        W90169  42.462  35.211   3.222
23761W        W90170  15.804  11.169   1.695
23762W        W90171  20.640  26.167  11.609
23763W        W90172  37.605  21.602  12.853
23764W        W90173  19.563  43.119  14.450
23765W        W90174  30.208  44.961   3.131
23766W        W90175  11.669   8.092  10.483
23767W        W90176  12.601  32.921  12.073
23768W        W90177  44.480  15.775  13.115
23769W        W90178   2.430   0.003  11.854
23770W        W90179  29.304  23.074   0.793
23771W        W90180  35.372  38.220   0.570
23772W        W90181  28.936  20.408  12.394
23773W        W90182   0.548  42.960   1.074
23774W        W90183  16.265  12.685   1.951
23775W        W90184  29.395  19.707   1.772
23776W        W90185  18.213  30.717   0.702
23777W        W90186  31.570  30.640   4.696
23778W        W90187   9.840  38.066   0.331
23779W        W90188  11.185  35.085   1.321
23780W        W90189   2.623  24.427   1.282
23781W        W90190  11.732  11.389  13.053
23782W        W90191  14.194  35.655  14.683
23783W        W90192  32.324  24.267  11.572
23784W        W90193  35.596  30.341   0.481
23785W        W90194  32.029   8.130   3.660
23786W        W90195  22.500  23.026  13.430
23787W        W90196  20.615  24.171  14.817
23788W        W90197  40.553  25.646   2.672
23789W        W90198  34.148  15.165   4.141
23790W        W90199  21.566  44.458   3.196
23791W        W90200  21.480  25.643  11.144
23792W        W90201  44.094  29.251  12.170
23793W        W90202  19.150  40.370   3.592
23794W        W90203  19.978  14.752  11.106
23795W        W90204  27.429  27.482   1.317
23796W        W90205  24.361  40.344  14.499
23797W        W90206  24.745  41.264  13.901
23798W        W90207   2.218  37.103   0.909
23799W        W90208  18.951  28.628  12.750
23800W        W90209  22.058  33.308   2.248
23801W        W90210  21.975   1.417   0.910
23802W        W90211  37.442  10.794   4.564
23803W        W90212  11.466  16.040   0.096
23804W        W90213  30.371  14.348  12.957
23805W        W90214  25.153  36.322  11.635
23806W        W90215  28.460  29.528   0.138
23807W        W90216   2.447   6.766   4.305
23808W        W90217  44.073  39.650   3.665
23809W        W90218  24.694   6.925   0.403
23810W        W90219  34.924  38.432  10.796
23811W        W90220  14.166  36.523  12.075
23812W        W90221  40.980  41.344  12.957
23813W        W90222  24.749  43.906  12.042
23814W        W90223  22.226  16.377   4.377
23815W        W90224  12.238   4.897  10.008
23816W        W90225  21.544   9.426  13.033
23817W        W90226  18.792  14.068   3.692
23818W        W90227  32.437   5.236   4.351
23819W        W90228  24.055   7.335  12.020
23820W        W90229  42.386  28.696   2.787
23821W        W90230  26.673  14.734  11.629
23822W        W90231  17.680  40.509  11.998
23823W        W90232  28.043  36.063   9.900
23824W        W90233  37.873   7.412  11.648
23825W        W90234  37.715  19.266  10.649
23826W        W90235  24.505   5.663   3.820
23827W        W90236  26.104  44.429  11.002
23828W        W90237   5.266  40.127   0.673
23829W        W90238  15.022  11.187  10.930
23830W        W90239  40.886  27.164  11.513
23831W        W90240  32.901  43.926   3.674
23832W        W90241   9.149  13.672   2.439
23833W        W90242   6.863   0.765   0.343
23834W        W90243  21.857   2.835  12.032
23835W        W90244  19.344  44.598   3.725
23836W        W90245  20.533  24.899   3.839
23837W        W90246  16.010  40.077   1.855
23838W        W90247   1.289  24.384  14.373
23839W        W90248  15.145  24.650  10.750
23840W        W90249  20.108  23.593   2.681
23841W        W90250  11.917  38.743  11.283
23842W        W90251  36.682  10.024  12.416
23843W        W90252   2.367  11.765   0.970
23844W        W90253  34.049  25.192  11.942
23845W        W90254  28.444  42.315  11.651
23846W        W90255   9.842  17.256  11.143
23847W        W90256  25.016  37.431   3.160
23848W        W90257  11.631  20.293   1.415
23849W        W90258  22.841  36.328   0.416
23850W        W90259   9.086  41.587   2.913
23851W        W90260  13.805  42.970   3.327
23852W        W90261  29.468   9.005  12.369
23853W        W90262  21.357   0.426   2.074
23854W        W90263  21.311   6.736  12.400
23855W        W90264  41.926  41.228  13.324
23856W        W90265   7.789  32.928   1.140
23857W        W90266  19.943  35.388  12.136
23858W        W90267  20.211  36.202  12.380
23859W        W90268  34.204  37.182   4.208
23860W        W90269  44.519  30.222  13.026
23861W        W90270   0.444  11.566  13.523
23862W        W90271  23.051  36.931   0.830
23863W        W90272  36.078  20.660  14.585
23864W        W90273  22.535  37.091  11.502
23865W        W90274   2.329  14.871  11.742
23866W        W90275  28.712   6.567  10.818
23867W        W90276   3.306  20.990   4.746
23868W        W90277  33.842   7.651  12.649
23869W        W90278   9.692  22.813  13.417
23870W        W90279  44.440   3.959   3.639
23871W        W90280  40.864   9.174   9.654
23872W        W90281   6.730  24.199   1.614
23873W        W90282   3.014   9.366  13.170
23874W        W90283  15.980  18.627  10.841
23875W        W90284   9.556  41.009  14.007
23876W        W90285  41.303  43.481   1.262
23877W        W90286  12.709  42.383  10.808
23878W        W90287   4.895  19.174  14.853
23879W        W90288  41.964  34.884  13.925
23880W        W90289   5.903  42.905   4.652
23881W        W90290  24.596   7.246   1.681
23882W        W90291  11.130  41.957   1.254
23883W        W90292   2.937   8.935   2.261
23884W        W90293  21.695  12.782  14.751
23885W        W90294  24.166  31.861   4.702
23886W        W90295   3.849   1.525   4.120
23887W        W90296  36.873   6.273  14.770
23888W        W90297  16.807   2.673   3.728
23889W        W90298   8.722  23.375   2.258
23890W        W90299  32.463   6.327  11.883
23891W        W90300  44.891  21.260   4.549
23892W        W90301  32.473  34.922  14.133
23893W        W90302  33.434  42.412   2.870
23894W        W90303   0.943  15.521  11.516
23895W        W90304  17.276  26.468   1.195
23896W        W90305  44.641  17.624   3.833
23897W        W90306  34.002  14.469   3.264
23898W        W90307  13.316  34.826   0.164
23899W        W90308  38.107  33.621  13.009
23900W        W90309  23.907  35.343  12.517
23901W        W90310   7.987  24.007  13.530
23902W        W90311  41.297   4.743  12.952
23903W        W90312  11.151   8.897   3.237
23904W        W90313  13.787  30.628   4.376
23905W        W90314  37.552  28.701  10.771
23906W        W90315   2.570  36.514  12.061
23907W        W90316  40.961   7.415   2.709
23908W        W90317  21.907  33.832   4.893
23909W        W90318   0.534   5.130   2.305
23910W        W90319  42.966   3.872  12.606
23911W        W90320  10.932  20.037  10.720
23912W        W90321  18.620  37.798  13.523
23913W        W90322   9.351  25.325   3.242
23914W        W90323  25.607  19.155  12.069
23915W        W90324   3.626  23.889  11.985
23916W        W90325  41.284   2.720  14.867
23917W        W90326  38.368  43.852   4.599
23918W        W90327  29.839   3.333   2.225
23919W        W90328   5.980   7.368  14.937
23920W        W90329  31.842   7.275  12.931
23921W        W90330   8.042  22.651   0.844
23922W        W90331   7.075  44.975   4.576
23923W        W90332  44.997  36.525   1.851
23924W        W90333  42.506  14.174  12.085
23925W        W90334  10.150  14.962   3.803
23926W        W90335  19.678   5.287   4.947
23927W        W90336  40.904  37.842  12.119
23928W        W90337   4.852   8.665  11.415
23929W        W90338  33.491  21.779  13.417
23930W        W90339   1.645  36.865  11.342
23931W        W90340  34.908  34.605   1.353
23932W        W90341  13.521  22.268  13.415
23933W        W90342  20.176  14.632  11.974
23934W        W90343  36.706  38.607   4.682
23935W        W90344  33.971  22.242   4.144
23936W        W90345   4.479  42.648  14.923
23937W        W90346   2.518  41.578  10.771
23938W        W90347  32.082   5.249  11.779
23939W        W90348  24.422  20.948   4.528
23940W        W90349  30.110  20.265   0.054
23941W        W90350  33.515   0.796   0.212
23942W        W90351  13.131  23.953   2.197
23943W        W90352  11.695  35.024   1.384
23944W        W90353  32.170  13.084   2.180
23945W        W90354   6.198  42.022   0.038
23946W        W90355   3.264  29.958  14.518
23947W        W90356  36.766  15.135   3.063
23948W        W90357  22.309  16.041   3.962
23949W        W90358  39.106  44.931  10.184
23950W        W90359  27.014  25.253  12.137
23951W        W90360  17.617  32.024  12.329
23952W        W90361  31.150   7.485   4.521
23953W        W90362  11.398   4.950  12.230
23954W        W90363  36.270  10.695   0.492
23955W        W90364  41.649  18.848   5.140
23956W        W90365  43.599  17.148  12.537
23957W        W90366   5.973  25.283   1.860
23958W        W90367  26.883  22.270   1.246
23959W        W90368   4.728  36.167  12.041
23960W        W90369  37.015  32.516  11.627
23961W        W90370  24.458  36.020  11.259
23962W        W90371   6.892  15.152  12.817
23963W        W90372  14.363   8.252  14.870
23964W        W90373  20.131  36.452  10.925
23965W        W90374  18.788  20.163   0.643
23966W        W90375   8.585   9.171   0.816
23967W        W90376  16.142  12.809   0.897
23968W        W90377  38.274  42.447  13.403
23969W        W90378  10.573  27.130   0.711
23970W        W90379  36.543   3.854  10.690
23971W        W90380   1.962   2.368   3.566
23972W        W90381   5.328  28.232   0.526
23973W        W90382  23.647  15.569  11.872
23974W        W90383  38.010  42.988   0.885
23975W        W90384   5.489  19.488   2.580
23976W        W90385  30.532  34.593   4.472
23977W        W90386  12.537  44.396  14.848
23978W        W90387  32.405  32.819   1.637
23979W        W90388  44.669  39.079   0.893
23980W        W90389  17.278  28.170   0.438
23981W        W90390  21.710  42.990   3.273
23982W        W90391   3.180  15.810  10.842
23983W        W90392   4.338   4.063  10.738
23984W        W90393  31.280  38.391   0.790
23985W        W90394  24.084  25.527   2.827
23986W        W90395  13.668  41.032   3.163
23987W        W90396  12.932   8.573  12.381
23988W        W90397  19.653  18.240   3.337
23989W        W90398   9.273  29.236  11.139
23990W        W90399  29.148   7.775   0.833
23991W        W90400  38.576   8.314   4.576
23992W        W90401  13.656  11.796  11.205
23993W        W90402  24.792  32.877  12.338
23994W        W90403  28.951  21.132   3.357
23995W        W90404  26.070   0.871  12.885
23996W        W90405   8.279   6.842   3.108
23997W        W90406  32.924   4.386  13.080
23998W        W90407  13.858   9.299   0.894
23999W        W90408   9.801  25.781  11.438
24000W        W90409  32.658  22.042  12.048
24001W        W90410  16.373  24.639  14.300
24002W        W90411   2.047   5.256   3.502
24003W        W90412   3.747  29.705   3.270
24004W        W90413  44.427  10.052  12.418
24005W        W90414   8.957  33.395   0.855
24006W        W90415   7.681  35.065   0.178
24007W        W90416   5.683  12.340  10.425
24008W        W90417   1.774  17.804   3.193
24009W        W90418  35.124  18.122   0.603
24010W        W90419  42.054  25.968   1.123
24011W        W90420   4.996  34.451  11.605
24012W        W90421   3.092  10.641  13.159
24013W        W90422  15.040  17.584  13.013
24014W        W90423   8.051  33.953   4.594
24015W        W90424   0.720  20.607  10.953
24016W        W90425   9.865  33.938   1.608
24017W        W90426   4.789  25.551   3.655
24018W        W90427  32.452  40.486  11.899
24019W        W90428  40.064  38.830   4.983
24020W        W90429   7.531  28.062  13.895
24021W        W90430  35.289  30.641   4.465
24022W        W90431  15.583  15.750   4.990
24023W        W90432  13.405   8.922   3.630
24024W        W90433   0.321   4.751   0.460
24025W        W90434  17.895  27.001  11.929
24026W        W90435  31.572  23.277   4.520
24027W        W90436  23.985  23.705  12.009
24028W        W90437   5.953   1.409   0.244
24029W        W90438   0.219  42.693  12.439
24030W        W90439  20.045  40.576   0.387
24031W        W90440  37.904  39.496   4.522
24032W        W90441   2.334   7.938  11.402
24033W        W90442   6.569  26.472   0.718
24034W        W90443  25.613  24.352  10.209
24035W        W90444  16.757  32.284   0.502
24036W        W90445  38.099  33.728  11.087
24037W        W90446  15.039  39.859   1.783
24038W        W90447  33.594  25.673   4.671
24039W        W90448  27.584  40.972   1.103
24040W        W90449  32.435  24.197   3.884
24041W        W90450  32.205   9.266   0.227
24042W        W90451   8.156  33.478   3.589
24043W        W90452  16.567  25.569  11.258
24044W        W90453  29.522  44.032  11.055
24045W        W90454   2.436  30.485   4.101
24046W        W90455   3.997  13.600   4.932
24047W        W90456   5.892  25.011  14.392
24048W        W90457  18.842  43.980   1.817
24049W        W90458  29.501  26.641  12.845
24050W        W90459  33.934  31.467  11.671
24051W        W90460  25.987  23.181  11.695
24052W        W90461   6.807  39.407  12.453
24053W        W90462  27.707   3.982   4.718
24054W        W90463  33.652  39.611  12.795
24055W        W90464  40.501  22.093  14.781
24056W        W90465  43.547  30.857  13.527
24057W        W90466   8.727  21.260  10.529
24058W        W90467   6.081  27.166  13.019
24059W        W90468  34.189  12.183  14.902
24060W        W90469  40.369  44.751  14.041
24061W        W90470  30.076  28.481  12.450
24062W        W90471   5.428   1.669   3.531
24063W        W90472   0.947  33.927  12.116
24064W        W90473  17.722  44.457  11.170
24065W        W90474  12.757  21.264  11.151
24066W        W90475  32.658  35.041  10.776
24067W        W90476  34.992   5.195   0.793
24068W        W90477  25.459  10.139   2.923
24069W        W90478  20.989   0.464  14.606
24070W        W90479  22.302  44.462  13.941
24071W        W90480  26.854  36.320   4.007
24072W        W90481   0.472  35.667   0.813
24073W        W90482  18.347  14.217  12.013
24074W        W90483  41.545  33.600   4.018
24075W        W90484   2.412  24.387  12.882
24076W        W90485  40.602  18.738   1.807
24077W        W90486  32.157   5.922  11.945
24078W        W90487  38.575  35.417   3.172
24079W        W90488  28.868  37.088   5.044
24080W        W90489  38.770  42.567   2.549
24081W        W90490  31.536  33.218  10.602
24082W        W90491  22.044  21.417  12.557
24083W        W90492  28.409  24.245  14.575
24084W        W90493  21.694   6.223   3.434
24085W        W90494  43.247   4.408  11.458
24086W        W90495   2.547  30.355  14.532
24087W        W90496  13.318  29.137  10.565
24088W        W90497   6.769  28.612   4.185
24089W        W90498  18.989   6.342  13.050
24090W        W90499  37.047  16.022  13.042
24091W        W90500  20.420   2.003  13.062
24092W        W90501  30.142  12.864  13.429
24093W        W90502  19.539   1.244  11.994
24094W        W90503  34.052  11.172  10.637
24095W        W90504  35.477  37.906   0.177
24096W        W90505  11.651   6.377   1.741
24097W        W90506  15.658   1.559  14.316
24098W        W90507  19.731  37.696   3.425
24099W        W90508  29.150  29.628   4.569
24100W        W90509  27.131   8.270   3.599
24101W        W90510  30.616  36.076  14.057
24102W        W90511  38.043  24.516  12.333
24103W        W90512  16.127  20.161  13.274
24104W        W90513  25.243  31.011   2.109
24105W        W90514  40.612   1.668  11.476
24106W        W90515  23.555  37.077   0.945
24107W        W90516  35.809  22.803   4.623
24108W        W90517  23.729  11.080   1.761
24109W        W90518  14.999   3.268   5.044
24110W        W90519  18.150   9.871  13.507
24111W        W90520  42.214  14.944   0.795
24112W        W90521  39.993   9.032   5.507
24113W        W90522   9.262  29.638   1.362
24114W        W90523  15.219  17.227  13.484
24115W        W90524  31.108  16.017   0.337
24116W        W90525   4.885  33.116   1.357
24117W        W90526  44.672  25.245  10.611
24118W        W90527   6.461  18.580  13.940
24119W        W90528   2.778   0.519   1.727
24120W        W90529  30.021   1.699   0.421
24121W        W90530   7.253  40.101  11.155
24122W        W90531  25.625  31.138  11.862
24123W        W90532  10.698  24.172  12.325
24124W        W90533   3.754  29.050  13.044
24125W        W90534  26.687  28.968  13.900
24126W        W90535   7.626  30.623   4.120
24127W        W90536  43.074  20.415  10.553
24128W        W90537  10.227   9.283  13.453
24129W        W90538  37.574   1.778  11.742
24130W        W90539  13.143   7.819   0.536
24131W        W90540   8.410  37.573  10.729
24132W        W90541  41.605  32.945  13.371
24133W        W90542   1.861   0.102  12.636
24134W        W90543  23.535  44.515  13.352
24135W        W90544  22.103   5.523  10.530
24136W        W90545  10.705   6.746   0.532
24137W        W90546  28.231  39.255  13.358
24138W        W90547  34.611  30.056   1.500
24139W        W90548  30.645   9.287   3.282
24140W        W90549   0.412   6.894   3.133
24141W        W90550   8.216  22.593   3.328
24142W        W90551  33.611   0.214   2.409
24143W        W90552  17.758  41.762  12.874
24144W        W90553  44.552  16.754  12.876
24145W        W90554   0.805  14.188   4.944
24146W        W90555   0.811  22.844   1.804
24147W        W90556  32.549  14.355   1.835
24148W        W90557  21.189  15.261  13.987
24149W        W90558  22.076  28.788  11.172
24150W        W90559  23.065  44.013   1.874
24151W        W90560  13.265   3.322  11.565
24152W        W90561  13.443  40.947  12.034
24153W        W90562  21.368  11.768  10.729
24154W        W90563   7.335  20.467  13.590
24155W        W90564   3.405  25.467  12.398
24156W        W90565  14.162  37.784   2.326
24157W        W90566  19.659  38.463   3.217
24158W        W90567  44.008  11.202  11.645
24159W        W90568   2.674   9.208  11.266
24160W        W90569   7.667  23.311  11.236
24161W        W90570   3.493  32.351  13.054
24162W        W90571  11.208   9.431   4.614
24163W        W90572  28.119  36.807   3.555
24164W        W90573  11.913  44.296  12.385
24165W        W90574  24.470  33.127   1.354
24166W        W90575  31.613  11.498   3.122
24167W        W90576  13.291  38.620   3.637
24168W        W90577  44.138  27.500   3.611
24169W        W90578  40.047  34.953   4.873
24170W        W90579  41.255  11.721  12.369
24171W        W90580   4.194  24.949   1.086
24172W        W90581  24.860  15.871   4.918
24173W        W90582  17.072  14.527  11.439
24174W        W90583  44.405  30.630  13.653
24175W        W90584  19.776  22.687   0.681
24176W        W90585   3.051  36.125  11.364
24177W        W90586  16.262  21.136   1.578
24178W        W90587  34.065  29.565  13.350
24179W        W90588   0.704  27.605  13.985
24180W        W90589  32.704  30.651   1.942
24181W        W90590  22.526  13.201   0.495
24182W        W90591  17.334  36.512  14.519
24183W        W90592  25.961   0.871  11.866
24184W        W90593   1.739  19.567  12.613
24185W        W90594  37.728  13.755  14.784
24186W        W90595   0.885  29.373   1.738
24187W        W90596  39.768  43.906   0.771
24188W        W90597  29.683  10.718   0.229
24189W        W90598  29.484  25.167  13.862
24190W        W90599  19.141   1.745   1.781
24191W        W90600  39.708  30.354  14.404
24192W        W90601  21.772  19.678   1.807
24193W        W90602  16.370  38.832   5.373
24194W        W90603   4.735  36.136  13.493
24195W        W90604  42.433  34.778  12.069
24196W        W90605  33.325   8.815  11.474
24197W        W90606   8.868  18.526  14.424
24198W        W90607  43.781  36.829  14.945
24199W        W90608  22.798   8.645   1.455
24200W        W90609  18.641  32.188   2.249
24201W        W90610   0.462  40.963  12.333
24202W        W90611  41.015  31.436  12.383
24203W        W90612  27.582  14.810   3.567
24204W        W90613  26.191  10.544   4.182
24205W        W90614  38.110  19.782  12.503
24206W        W90615  21.620   0.266   3.771
24207W        W90616   2.807   8.481   1.995
24208W        W90617  15.755   9.643   0.010
24209W        W90618   7.778  22.393  12.073
24210W        W90619  44.771   9.584   2.122
24211W        W90620  30.551  32.734   2.785
24212W        W90621  19.654  19.280  12.925
24213W        W90622  27.673  10.956   4.221
24214W        W90623  40.018   3.814  13.343
24215W        W90624  12.481  15.946  10.314
24216W        W90625  12.834   5.832   1.825
24217W        W90626   9.556   4.823  12.528
24218W        W90627  20.173   1.549   3.187
24219W        W90628   2.335   8.728  11.619
24220W        W90629  42.185   8.316  13.737
24221W        W90630  37.557  30.365  11.579
24222W        W90631  14.816  32.655   3.407
24223W        W90632  15.012  35.991  14.935
24224W        W90633   2.029  18.237   3.301
24225W        W90634  40.865   4.964   1.609
24226W        W90635  38.773  12.137   2.349
24227W        W90636  21.772  43.838  10.699
24228W        W90637   9.765  43.921  14.505
24229W        W90638  29.051  34.340  14.913
24230W        W90639  26.459  28.504  13.839
24231W        W90640  41.878  13.126  13.293
24232W        W90641  44.747  35.066  14.729
24233W        W90642  28.908  38.339  12.049
24234W        W90643  17.540  23.815   4.662
24235W        W90644  34.385  13.292   4.835
24236W        W90645  44.752  42.984   4.525
24237W        W90646   6.011  30.209  13.832
24238W        W90647  17.102  29.208   1.095
24239W        W90648  16.781  37.847  12.069
24240W        W90649   6.118  26.537   3.266
24241W        W90650  27.526  34.490   3.183
24242W        W90651  33.467  20.756   3.008
24243W        W90652  17.371  15.596   1.273
24244W        W90653   1.547  35.422   3.817
24245W        W90654  42.467   2.087  12.514
24246W        W90655   4.282  15.837  14.875
24247W        W90656  19.216  32.884  14.998
24248W        W90657  14.036   7.678   1.396
24249W        W90658  32.991  23.666  11.381
24250W        W90659  40.505  17.860  11.678
24251W        W90660  44.909  29.186   4.074
24252W        W90661  34.699  34.423   3.772
24253W        W90662  23.511  26.055   2.251
24254W        W90663   5.411  43.038   2.836
24255W        W90664   5.975  22.710   3.674
24256W        W90665  25.633  33.548  12.748
24257W        W90666   8.860  24.083  13.676
24258W        W90667  41.066   6.307  11.409
24259W        W90668  38.558   5.960   3.252
24260W        W90669  44.315   6.720  11.601
24261W        W90670  36.937  28.324  14.459
24262W        W90671   5.050  34.894  14.661
24263W        W90672   7.121  30.699   4.108
24264W        W90673  43.518  21.475   0.025
24265W        W90674  15.367  14.265   2.626
24266W        W90675   1.262  35.556  11.529
24267W        W90676  38.624  23.839  13.304
24268W        W90677  32.549  33.874  13.621
24269W        W90678  33.942  26.383  12.856
24270W        W90679  26.577  39.748   1.483
24271W        W90680  42.706  33.966   0.499
24272W        W90681  34.404  35.738   2.954
24273W        W90682  44.951  35.938   3.602
24274W        W90683  27.599  36.835   3.757
24275W        W90684  26.914  44.622  12.023
24276W        W90685   1.160  37.517   1.845
24277W        W90686  31.539  33.393   3.719
24278W        W90687  42.700   8.924  13.057
24279W        W90688  37.846  38.595  12.477
24280W        W90689  19.128   1.375  11.709
24281W        W90690  43.238  26.644   2.861
24282W        W90691  33.018   8.220  11.841
24283W        W90692  43.447  11.108  12.535
24284W        W90693  12.196   8.597  14.844
24285W        W90694  23.620   0.001   0.775
24286W        W90695  19.351  25.574   2.733
24287W        W90696  29.401   3.197  11.213
24288W        W90697   3.487  16.821   0.873
24289W        W90698  22.865  16.226   2.127
24290W        W90699  39.021  44.725  13.010
24291W        W90700  37.719  26.851   1.295
24292W        W90701   3.871  27.799  12.614
24293W        W90702  44.813  16.693  13.299
24294W        W90703   8.331  28.581   0.405
24295W        W90704  15.220  33.606   1.527
24296W        W90705   2.406  36.846   3.707
24297W        W90706  24.472  34.865  12.081
24298W        W90707  21.744  15.785  12.279
24299W        W90708  12.141  25.112   0.153
24300W        W90709  28.995  19.453   2.741
24301W        W90710  25.995   5.224  13.531
24302W        W90711  44.232  33.817   2.893
24303W        W90712   1.784  42.258  11.538
24304W        W90713  17.251  28.563  10.942
24305W        W90714  29.876  33.127   1.100
24306W        W90715  10.348  38.024  12.376
24307W        W90716   4.262  20.233  12.105
24308W        W90717  28.342   5.178   3.999
24309W        W90718  19.248  27.004   3.587
24310W        W90719  30.333  11.321   1.450
24311W        W90720  41.313  37.411  12.130
24312W        W90721  39.960  28.411  12.430
24313W        W90722  26.315  26.636  12.854
24314W        W90723  27.997  18.890   1.153
24315W        W90724   5.280  11.998  11.232
24316W        W90725  17.678  15.989   1.449
24317W        W90726  26.515  33.615  14.165
24318W        W90727  13.565  11.764  12.947
24319W        W90728  13.302   7.424  13.788
24320W        W90729  24.005  25.173  11.713
24321W        W90730  30.440  43.342   0.144
24322W        W90731   5.011  20.030   3.299
24323W        W90732   0.806  43.395   3.240
24324W        W90733  10.428  28.276  14.934
24325W        W90734  26.593  37.196  12.963
24326W        W90735  28.118  37.075  10.671
24327W        W90736  12.575  19.080  13.315
24328W        W90737   3.821  20.409   3.279
24329W        W90738  38.084  36.744  14.414
24330W        W90739  23.607   2.462  10.491
24331W        W90740  20.124   8.732  13.054
24332W        W90741   5.371  32.379  13.547
24333W        W90742  40.710  35.497   1.821
24334W        W90743  22.860   6.871  12.606
24335W        W90744  37.300  40.430   4.102
24336W        W90745  25.733  14.749   4.195
24337W        W90746  37.884  33.237  11.746
24338W        W90747   6.297  22.665  11.620
24339W        W90748  32.389   9.289   1.149
24340W        W90749  15.694   6.903   2.344
24341W        W90750   3.942  33.114  13.012
24342W        W90751  31.960  36.171   1.851
24343W        W90752  24.557  10.265   0.575
24344W        W90753   9.803  31.337   4.645
24345W        W90754  24.947   0.916   2.593
24346W        W90755   8.130  29.779  12.422
24347W        W90756  34.837   6.517  11.086
24348W        W90757  34.410   5.142   3.719
24349W        W90758  26.533  13.115   0.448
24350W        W90759  24.430  36.423   4.064
24351W        W90760  14.164   5.929  10.660
24352W        W90761   5.021  35.217  12.980
24353W        W90762   3.471  19.774   4.131
24354W        W90763  23.730  44.056   4.068
24355W        W90764  34.303   5.391   4.151
24356W        W90765  11.933  23.982  10.306
24357W        W90766   5.147  24.858   1.668
24358W        W90767  43.545  11.880  11.074
24359W        W90768  29.059  38.914  11.056
24360W        W90769  36.302  35.293  13.858
24361W        W90770  26.988   9.342   3.138
24362W        W90771   5.220  34.658  13.418
24363W        W90772  24.074  17.504   0.237
24364W        W90773  27.161   7.939   0.873
24365W        W90774  28.127  29.382   1.510
24366W        W90775  41.741  41.615   5.018
24367W        W90776  24.512  11.329   2.223
24368W        W90777  28.234   2.026  13.337
24369W        W90778   1.962  28.481   0.872
24370W        W90779  15.839  40.142  12.944
24371W        W90780  20.045  30.586  13.312
24372W        W90781  25.687   6.866  14.120
24373W        W90782   9.631  19.283   2.304
24374W        W90783   0.242  20.561  12.039
24375W        W90784  17.138   3.765   3.551
24376W        W90785   3.445  23.762  13.549
24377W        W90786  26.350   9.198  14.048
24378W        W90787  41.347  37.798   0.454
24379W        W90788   0.453  24.222  11.967
24380W        W90789  39.118   3.517  12.669
24381W        W90790  14.257  24.563  13.549
24382W        W90791  15.302   0.925  13.861
24383W        W90792  22.659  34.362  11.618
24384W        W90793  17.083   2.698  14.000
24385W        W90794  37.741  40.334  11.151
24386W        W90795  35.630  13.426  12.357
24387W        W90796  38.278  34.836  14.124
24388W        W90797  23.362  33.478   0.121
24389W        W90798  13.774  30.192  11.540
24390W        W90799  41.797  12.298  13.983
24391W        W90800  30.143  18.096   4.486
24392W        W90801  16.661  20.943   1.877
24393W        W90802  22.526  25.511   3.237
24394W        W90803  14.740  31.204  11.267
24395W        W90804  13.376  23.148  13.078
24396W        W90805  22.178  16.537  13.518
24397W        W90806  40.304  36.944   2.766
24398W        W90807  29.935  12.817  11.035
24399W        W90808  10.853   4.232  14.441
24400W        W90809  25.233  17.611   2.170
24401W        W90810  33.959   5.391   2.071
24402W        W90811  14.408  22.673   4.092
24403W        W90812  41.503   5.380   1.904
24404W        W90813   8.767  24.852  14.872
24405W        W90814  32.861  23.501   4.818
24406W        W90815  15.117  18.577   2.660
24407W        W90816  34.812  39.979   4.148
24408W        W90817   1.958  37.652  13.442
24409W        W90818  16.119  13.773  13.384
24410W        W90819  16.277  12.318   2.687
24411W        W90820   4.955  12.779   4.601
24412W        W90821   7.388  36.199  13.896
24413W        W90822  11.227  22.703  10.596
24414W        W90823  41.377   4.322   1.884
24415W        W90824   9.102  17.275  12.860
24416W        W90825  19.054  43.779   2.837
24417W        W90826   6.218  42.894   0.937
24418W        W90827  42.402  22.303  12.993
24419W        W90828  18.836  24.530  14.206
24420W        W90829   9.410   6.430   2.417
24421W        W90830   8.785  42.958  10.192
24422W        W90831   9.786   9.269   4.524
24423W        W90832   4.644   2.715   3.786
24424W        W90833  42.480  34.870   1.816
24425W        W90834   3.474   3.929  13.927
24426W        W90835  30.817  43.135   1.349
24427W        W90836  15.486   5.702  12.917
24428W        W90837  17.129   5.190  11.167
24429W        W90838  37.493  31.927  11.163
24430W        W90839  43.591  16.346  12.083
24431W        W90840  39.324  25.536   1.382
24432W        W90841  33.660   3.769   0.834
24433W        W90842  18.562   0.239  14.109
24434W        W90843  20.521  26.170   2.749
24435W        W90844  14.092  11.074  11.250
24436W        W90845  40.931  17.691  12.496
24437W        W90846  13.390  10.147   3.751
24438W        W90847   8.194  13.153  12.633
24439W        W90848  33.534   1.183   2.270
24440W        W90849  30.608  20.805  13.541
24441W        W90850   9.814  25.116   3.127
24442W        W90851  18.096  12.711   2.231
24443W        W90852  25.566  15.903   1.428
24444W        W90853  37.035  37.521  12.533
24445W        W90854  18.182   8.890   1.990
24446W        W90855  33.501  16.260  14.969
24447W        W90856  33.956   2.077   5.194
24448W        W90857  27.890  19.471   0.696
24449W        W90858  43.150  22.394   3.848
24450W        W90859  33.061  41.278   2.746
24451W        W90860  22.082  27.076  13.247
24452W        W90861  26.239  29.638  14.447
24453W        W90862  42.330  17.117   0.496
24454W        W90863  18.762  20.040  13.813
24455W        W90864  19.747  36.032   2.117
24456W        W90865  44.697  26.171  11.462
24457W        W90866  40.700  38.372   1.879
24458W        W90867  35.119   9.967   2.694
24459W        W90868   2.352  43.747  12.584
24460W        W90869  31.517  10.776  11.862
24461W        W90870  33.882  33.993   3.819
24462W        W90871  38.791  31.811   3.223
24463W        W90872  31.199  18.472   1.491
24464W        W90873  33.348  36.563   2.162
24465W        W90874  13.722  36.685  10.202
24466W        W90875  17.975  35.669   1.632
24467W        W90876  15.192  41.592  11.535
24468W        W90877  40.927  42.227  11.987
24469W        W90878  41.536  12.762   0.792
24470W        W90879  18.908   1.309   2.633
24471W        W90880  14.784  17.835   1.170
24472W        W90881   6.838  12.747  14.886
24473W        W90882  26.227   4.172  14.352
24474W        W90883  24.659  23.078   0.958
24475W        W90884  10.188  27.291  14.657
24476W        W90885  36.733  16.743  10.067
24477W        W90886   5.468  15.430   0.976
24478W        W90887  32.553   5.568   2.914
24479W        W90888   0.784  40.767   0.913
24480W        W90889  23.631  40.381  11.852
24481W        W90890   2.427  13.085   1.187
24482W        W90891  13.989  39.895  11.443
24483W        W90892  27.707  40.856   3.179
24484W        W90893   1.006   5.363   0.386
24485W        W90894  35.567  35.618   0.358
24486W        W90895  39.038  32.019  13.054
24487W        W90896   6.851  21.097  11.630
24488W        W90897  11.765  43.242  12.142
24489W        W90898   6.209  12.591   2.773
24490W        W90899  13.283  33.456  12.806
24491W        W90900  12.706  21.510  10.669
24492W        W90901   3.438   4.196   4.695
24493W        W90902  37.334  13.542  13.953
24494W        W90903  33.135  38.392  11.834
24495W        W90904  34.804  11.921  12.549
24496W        W90905  24.737  14.462   4.547
24497W        W90906  14.816  15.517   0.034
24498W        W90907   2.664  43.472  13.587
24499W        W90908  22.079  31.059   4.489
24500W        W90909  31.110  35.311   0.023
24501W        W90910  29.163   7.615   3.125
24502W        W90911  27.106   7.113  14.467
24503W        W90912   0.334  43.782   1.716
24504W        W90913  34.572  13.963  13.845
24505W        W90914  13.621   2.109  14.836
24506W        W90915   1.246  26.520   4.500
24507W        W90916  23.842  17.211  12.299
24508W        W90917   8.135  26.654  11.926
24509W        W90918  34.650  27.620   3.043
24510W        W90919  19.837  23.528   3.107
24511W        W90920   0.989  36.776   3.289
24512W        W90921  19.825  36.280  14.558
24513W        W90922  19.273  14.625   0.846
24514W        W90923  15.741  22.233  11.740
24515W        W90924   9.373  41.701   3.341
24516W        W90925  44.550   9.913   1.721
24517W        W90926   4.036  22.175  13.321
24518W        W90927  37.874  42.187   4.513
24519W        W90928  16.690  32.321  12.104
24520W        W90929  42.220  43.066  12.565
24521W        W90930  12.668  30.704  13.478
24522W        W90931  18.000  33.930   1.080
24523W        W90932   8.492  30.267   5.111
24524W        W90933  19.111  41.987  11.564
24525W        W90934  22.040  15.712  13.092
24526W        W90935  25.095   4.135  13.000
24527W        W90936  11.512  44.751   2.637
24528W        W90937  22.044  26.728   2.256
24529W        W90938  23.517  13.726   2.339
24530W        W90939  30.524   2.551   4.074
24531W        W90940  24.508  37.258  14.523
24532W        W90941  10.320   8.126   3.229
24533W        W90942  32.892  13.111  11.633
24534W        W90943  33.420  31.540   0.372
24535W        W90944  34.093   6.847   3.195
24536W        W90945  35.093  17.029   9.826
24537W        W90946  33.592  36.489  11.299
24538W        W90947  24.695   1.274  11.510
24539W        W90948  20.098   1.986   2.895
24540W        W90949   1.366  35.875   3.666
24541W        W90950   1.824   8.572  12.318
24542W        W90951  15.792   6.042   0.404
24543W        W90952  28.548   3.215  11.532
24544W        W90953  26.684  32.557   3.870
24545W        W90954  19.660  24.419  14.292
24546W        W90955   3.152  31.613   3.841
24547W        W90956  31.572  23.104  13.922
24548W        W90957   5.724  30.472  13.054
24549W        W90958   0.914   9.447   5.028
24550W        W90959  19.323  31.039  13.038
24551W        W90960  31.685  35.012   1.369
24552W        W90961   8.867  27.153  14.532
24553W        W90962  30.485  41.809   2.731
24554W        W90963  33.924   8.117  10.409
24555W        W90964   4.394   9.336  11.359
24556W        W90965   0.475  34.210   4.113
24557W        W90966  14.754  16.552  10.583
24558W        W90967  24.040   4.757   4.135
24559W        W90968  10.982  42.318   0.885
24560W        W90969  27.257  17.733   2.389
24561W        W90970   7.825   4.493  13.872
24562W        W90971  16.682  44.222   2.783
24563W        W90972  22.134  23.002  10.650
24564W        W90973  12.381  19.968  11.138
24565W        W90974   3.757  37.572  14.301
24566W        W90975  25.658  27.043   0.163
24567W        W90976  44.929  19.259  12.604
24568W        W90977  17.160  27.120   0.315
24569W        W90978  15.323   8.307   4.408
24570W        W90979  15.747  12.682   1.231
24571W        W90980  13.260  35.038   3.369
24572W        W90981  22.812   0.246  12.112
24573W        W90982   0.458  41.462  13.801
24574W        W90983  22.039  14.292  14.878
24575W        W90984  36.057  14.357  11.273
24576W        W90985  41.654  38.716  11.606
24577W        W90986  35.508  17.355   2.284
24578W        W90987  34.360  25.378  13.570
24579W        W90988  37.068   7.175  12.182
24580W        W90989  11.352  17.028   3.784
24581W        W90990  11.954  31.586  13.471
24582W        W90991  12.672  24.016  13.939
24583W        W90992  24.684  21.575   0.792
24584W        W90993  29.032  22.003  13.913
24585W        W90994   7.333  37.352   4.709
24586W        W90995  12.523  26.062  11.223
24587W        W90996  26.448  36.865  11.618
24588W        W90997   3.081  18.647   5.261
24589W        W90998  31.479  26.736   2.667
24590W        W90999   9.824  12.203  14.416
24591W        W91000  15.078  30.398   2.175
24592W        W91001  36.564  18.775   3.243
24593W        W91002   3.737  18.025  10.560
24594W        W91003  14.187  36.765   1.437
24595W        W91004  23.744   6.777   4.066
24596W        W91005  35.846   0.783  12.416
24597W        W91006  29.778  34.510  11.245
24598W        W91007  10.845   1.180  13.887
24599W        W91008  23.880  27.250  12.435
24600W        W91009  30.013  12.307  10.946
24601W        W91010  35.038  44.753   1.369
24602W        W91011  40.546  37.446   4.534
24603W        W91012   0.966  21.023   2.401
24604W        W91013  24.276  27.917  14.852
24605W        W91014  23.430   7.431   0.727
24606W        W91015  24.562  44.225  10.044
24607W        W91016  22.261  33.397   3.130
24608W        W91017  19.122  38.010   3.610
24609W        W91018   1.741   0.854  13.791
24610W        W91019  20.143  17.009  14.348
24611W        W91020  16.367  19.092   3.745
24612W        W91021  26.239  27.309  14.366
24613W        W91022   0.475  36.520   0.222
24614W        W91023  41.617  42.551  12.947
24615W        W91024  40.953  34.897  12.863
24616W        W91025  38.090  23.676  12.063
24617W        W91026  31.266  42.336   3.582
24618W        W91027  18.678  11.122   2.785
24619W        W91028  15.369  21.921   3.116
24620W        W91029  21.221  39.989   1.338
24621W        W91030  15.274   9.601   2.104
24622W        W91031  13.908  12.094  13.880
24623W        W91032  39.500  36.395   0.935
24624W        W91033  12.752  36.523  10.321
24625W        W91034  23.262  18.006  12.480
24626W        W91035  40.340  12.141  11.588
24627W        W91036  32.509   3.802   2.202
24628W        W91037  44.517  33.134   0.005
24629W        W91038  31.572  40.372  13.865
24630W        W91039  37.819  16.517   2.618
24631W        W91040   4.849   4.285  10.423
24632W        W91041  17.480  24.515   1.415
24633W        W91042  25.951  36.194  10.200
24634W        W91043  29.389  22.279   4.732
24635W        W91044   1.682   6.814  13.436
24636W        W91045  26.067  10.335  11.586
24637W        W91046  23.707  35.840  12.592
24638W        W91047  22.381  20.585   1.927
24639W        W91048  43.093  28.900   4.148
24640W        W91049  40.350  33.454   0.107
24641W        W91050  39.701   9.722  11.450
24642W        W91051  24.170  34.461   3.139
24643W        W91052  17.633  33.209  12.056
24644W        W91053  44.327  29.067  13.587
24645W        W91054  25.169  24.228   4.567
24646W        W91055  20.259  13.716  12.383
24647W        W91056   3.445  16.201   2.226
24648W        W91057   5.888  26.728   2.862
24649W        W91058  28.956  32.631  10.579
24650W        W91059  16.044  35.993  10.800
24651W        W91060  18.634   8.755   4.926
24652W        W91061  22.001  31.937  11.199
24653W        W91062   1.337   2.805   3.830
24654W        W91063   3.487  15.897  10.432
24655W        W91064  29.404  36.974   4.339
24656W        W91065   8.649  40.002  13.973
24657W        W91066   8.127  39.963  13.968
24658W        W91067  33.531  38.346  12.156
24659W        W91068  28.871  38.527   2.702
24660W        W91069  26.978  43.331   3.222
24661W        W91070   0.090   9.026   9.905
24662W        W91071  12.644  30.604  12.014
24663W        W91072  41.333  23.970   0.228
24664W        W91073  26.601  24.625   1.982
24665W        W91074  38.525  28.377   0.890
24666W        W91075  22.827   8.852   4.060
24667W        W91076  11.959  40.017   4.496
24668W        W91077  18.378  35.898   0.278
24669W        W91078  42.543  31.152  13.514
24670W        W91079   8.365  27.446  14.659
24671W        W91080  42.223  13.675   3.797
24672W        W91081  28.851  14.689  10.753
24673W        W91082   0.813   7.163   2.255
24674W        W91083  21.641  37.633   0.226
24675W        W91084  26.638  28.748  13.393
24676W        W91085  38.493   7.909  11.317
24677W        W91086  11.820  27.181  14.298
24678W        W91087   6.285  32.733  13.480
24679W        W91088   5.890  23.168   0.492
24680W        W91089  30.267  41.263  14.748
24681W        W91090   4.272   1.011   1.388
24682W        W91091  22.737  37.983  12.122
24683W        W91092  14.156  19.487   2.045
24684W        W91093  29.653   7.816   4.549
24685W        W91094  34.405  26.044   4.487
24686W        W91095  24.268  11.143   1.779
24687W        W91096  36.323  42.066  11.225
24688W        W91097   1.068  19.047  12.300
24689W        W91098  12.665  22.007  13.095
24690W        W91099  43.423  31.618   2.883
24691W        W91100  30.662   0.894   3.183
24692W        W91101  41.530  30.322   4.602
24693W        W91102   0.186   3.249  12.557
24694W        W91103  24.454  38.362  12.115
24695W        W91104  41.855   0.071   3.546
24696W        W91105  41.245   4.442   2.421
24697W        W91106  13.654  24.677  11.787
24698W        W91107  16.896  30.950   4.427
24699W        W91108  41.459   5.472   0.423
24700W        W91109   5.453  34.847   1.238
24701W        W91110  21.015  11.770  14.495
24702W        W91111   1.575  21.496   3.687
24703W        W91112  28.865  17.320   2.368
24704W        W91113  35.100  39.935   1.623
24705W        W91114  16.619  35.755  12.447
24706W        W91115  32.457  43.558   3.595
24707W        W91116  28.135  28.420  14.408
24708W        W91117  34.605  24.434  13.454
24709W        W91118   9.867  13.083  12.964
24710W        W91119  28.859  11.273  14.917
24711W        W91120   3.907  12.110  14.431
24712W        W91121  35.072  15.803   0.789
24713W        W91122   2.315  32.076   4.128
24714W        W91123   6.347  32.219  11.249
24715W        W91124  44.685  32.461  13.624
24716W        W91125   1.473  42.299  13.898
24717W        W91126  32.492   6.583   1.717
24718W        W91127   2.679  17.479   0.936
24719W        W91128  35.769   9.962  14.035
24720W        W91129  23.628  19.998  14.948
24721W        W91130   8.167  37.290   3.268
24722W        W91131   0.867  24.479  12.109
24723W        W91132   8.274  37.140   2.008
24724W        W91133   1.854  29.031   1.749
24725W        W91134  29.064   8.759  12.939
24726W        W91135  24.157  33.407   4.530
24727W        W91136  20.816  28.129  11.090
24728W        W91137  12.211  40.209  12.872
24729W        W91138  26.176  21.209  11.235
24730W        W91139  20.857  44.144   3.854
24731W        W91140  23.514  21.127   1.324
24732W        W91141  37.794  23.732  11.167
24733W        W91142  36.864  28.560   4.098
24734W        W91143  33.335  30.611  11.150
24735W        W91144   1.244  41.010  10.845
24736W        W91145  37.076  21.220   2.812
24737W        W91146  28.691   6.837   3.612
24738W        W91147   0.421  38.861   3.822
24739W        W91148  32.859   9.247   1.437
24740W        W91149  32.302   5.291   0.656
24741W        W91150  15.663   9.147  10.949
24742W        W91151   8.301   3.648   0.290
24743W        W91152  23.511  24.396  13.118
24744W        W91153  37.095  34.809   1.961
24745W        W91154  31.618  14.348  11.194
24746W        W91155   2.189  43.722  11.008
24747W        W91156   9.243  34.988   4.517
24748W        W91157  34.437   0.916  10.638
24749W        W91158   5.848  12.190   2.795
24750W        W91159  12.371  11.088   0.681
24751W        W91160  40.230  17.912  14.433
24752W        W91161  22.154  32.127   0.830
24753W        W91162  11.232   6.961  12.660
24754W        W91163  39.697  35.014  13.066
24755W        W91164  39.980  40.935  13.856
24756W        W91165  43.195  42.050   2.814
24757W        W91166  33.192   6.281  11.170
24758W        W91167   2.664   9.415   4.555
24759W        W91168   2.672  23.217   3.922
24760W        W91169   1.505   3.474  12.448
24761W        W91170  12.051  28.689  11.611
24762W        W91171  25.549   6.914  13.609
24763W        W91172  15.804  25.194  11.209
24764W        W91173  43.824   6.939   1.800
24765W        W91174  34.988  11.414   2.820
24766W        W91175   7.695  32.719   2.342
24767W        W91176  33.718  11.907   2.733
24768W        W91177   4.368  21.784  10.691
24769W        W91178  31.481  12.521   2.752
24770W        W91179   1.584  32.933   4.741
24771W        W91180  31.564   5.355   2.943
24772W        W91181  41.542   9.410   0.270
24773W        W91182  22.296   1.341  10.722
24774W        W91183  33.118  19.255  14.618
24775W        W91184  15.651  22.634   1.164
24776W        W91185  16.321  38.051   0.156
24777W        W91186  27.824   7.077  14.072
24778W        W91187  37.400  13.172  14.315
24779W        W91188  29.136   3.945   4.895
24780W        W91189   5.652  11.749   1.378
24781W        W91190  39.409  44.508  11.137
24782W        W91191   6.408   6.327   3.017
24783W        W91192  10.791  42.106  14.078
24784W        W91193  30.705  44.955   3.276
24785W        W91194   7.859   7.161  13.992
24786W        W91195   8.060  40.260   4.543
24787W        W91196  27.485  11.433  10.213
24788W        W91197  15.194  43.455   0.911
24789W        W91198  19.854  27.907  12.997
24790W        W91199  23.773  12.303  14.998
24791W        W91200  15.053  14.165  13.081
24792W        W91201  18.873  19.979   4.380
24793W        W91202  15.202   3.023   0.284
24794W        W91203  22.067  19.151  12.380
24795W        W91204  42.890  17.595  12.468
24796W        W91205  10.820  16.171  12.245
24797W        W91206   0.241  41.483   2.268
24798W        W91207  18.168  20.463   1.636
24799W        W91208  23.740   2.371   2.415
24800W        W91209  24.795   3.973  13.405
24801W        W91210  35.393  42.264  13.866
24802W        W91211  13.901  20.013   2.853
24803W        W91212  38.909   2.024  10.694
24804W        W91213  14.540   4.202  12.525
24805W        W91214   4.482  37.489  11.417
24806W        W91215  15.336  13.138   0.614
24807W        W91216  36.526  22.251   1.304
24808W        W91217  16.146  44.393  10.718
24809W        W91218  13.567  11.691  13.843
24810W        W91219  35.776  20.821   4.622
24811W        W91220   7.425  22.243   4.123
24812W        W91221   2.507  29.633  11.626
24813W        W91222  16.539  30.824   3.175
24814W        W91223  42.302   0.477   2.850
24815W        W91224  22.132  16.023  13.506
24816W        W91225  28.046  21.722  13.904
24817W        W91226  11.676   7.881  11.356
24818W        W91227   5.747  36.046   0.473
24819W        W91228  24.555  37.333  12.426
24820W        W91229  29.603  15.140  13.872
24821W        W91230  24.759  24.358   0.329
24822W        W91231  39.980  27.559   3.554
24823W        W91232  35.992  28.580  14.325
24824W        W91233  35.073   4.421   2.751
24825W        W91234  33.657  22.785  12.035
24826W        W91235  17.626  31.141   2.318
24827W        W91236  38.732  38.632  10.139
24828W        W91237  27.609  22.505  14.032
24829W        W91238  25.152   2.224   3.788
24830W        W91239   7.947  40.747  12.989
24831W        W91240  38.669  16.450  14.036
24832W        W91241   7.860  37.148   4.144
24833W        W91242   7.335   0.461  12.146
24834W        W91243  32.665  22.318   1.316
24835W        W91244  19.958  19.115  10.650
24836W        W91245  13.508  28.735   4.142
24837W        W91246  19.056  42.547  12.902
24838W        W91247  26.894  26.315   2.601
24839W        W91248  32.878  21.060  13.564
24840W        W91249  40.208  32.561   1.078
24841W        W91250  15.086  22.737  11.181
24842W        W91251  16.135   3.527  11.967
24843W        W91252   9.713  23.137   0.062
24844W        W91253  19.745   8.220   2.804
24845W        W91254  27.157  24.565  14.799
24846W        W91255   1.978  38.337  11.231
24847W        W91256   2.163  33.563   3.740
24848W        W91257  31.601  15.871  10.608
24849W        W91258  38.178  12.833   2.388
24850W        W91259  20.079  11.211   1.353
24851W        W91260  42.541  28.928   3.236
24852W        W91261   8.401  19.386   4.518
24853W        W91262   1.670  21.132  13.438
24854W        W91263  24.054   8.373   2.308
24855W        W91264  23.376  33.942   3.742
24856W        W91265  18.877  16.264  12.115
24857W        W91266  27.007  39.986   1.332
24858W        W91267  28.409  30.730  13.957
24859W        W91268  24.092  37.092  12.502
24860W        W91269  19.692  38.794  12.634
24861W        W91270   7.865   3.030  12.897
24862W        W91271  18.597   5.350   3.729
24863W        W91272  19.107  11.510  12.945
24864W        W91273  39.465  16.399  13.938
24865W        W91274  22.792   9.405  14.841
24866W        W91275  40.431  38.196   2.331
24867W        W91276  17.702   8.557  11.463
24868W        W91277   8.857  17.899  12.218
24869W        W91278  32.694  21.058  13.098
24870W        W91279   5.978  13.071   2.901
24871W        W91280  16.398  43.673  14.550
24872W        W91281  38.796  42.424  13.469
24873W        W91282   5.911   4.314   0.040
24874W        W91283  23.019  23.084   3.185
24875W        W91284  36.737  17.077   5.424
24876W        W91285  20.728  43.301   3.712
24877W        W91286  26.501  44.500   5.155
24878W        W91287  12.897  25.627   4.566
24879W        W91288   5.600   1.369  10.783
24880W        W91289  10.391   3.025  14.716
24881W        W91290  33.411  13.310   1.722
24882W        W91291  38.737  12.072  12.545
24883W        W91292  32.951  16.474   2.887
24884W        W91293  15.228  36.436   9.869
24885W        W91294   8.634  42.292   1.306
24886W        W91295  40.379  42.005  13.438
24887W        W91296  20.899  26.208  12.048
24888W        W91297   5.906  29.236  12.439
24889W        W91298   9.167  17.559  12.445
24890W        W91299  24.691  23.982   2.252
24891W        W91300  28.085  28.918  14.686
24892W        W91301  28.463  33.348  12.167
24893W        W91302  30.172  38.752   3.968
24894W        W91303  36.188  38.429  13.888
24895W        W91304   7.396  17.253  12.186
24896W        W91305  23.069  28.582   4.243
24897W        W91306  27.572  39.228   3.164
24898W        W91307  37.826  35.141   1.720
24899W        W91308  20.232   2.485   2.772
24900W        W91309  37.159   6.165   2.732
24901W        W91310   6.306  33.357  12.088
24902W        W91311  41.379   5.208  13.954
24903W        W91312  24.291  44.832  13.975
24904W        W91313  13.818   8.359  14.455
24905W        W91314  15.421  24.675  11.627
24906W        W91315  17.313   8.796  14.079
24907W        W91316  23.063  36.681  10.830
24908W        W91317  42.863  21.712  10.605
24909W        W91318   5.414  33.139   3.144
24910W        W91319  20.255  41.003   1.342
24911W        W91320   7.868  33.431  10.578
24912W        W91321   4.968  28.170  13.626
24913W        W91322  39.193  26.051  13.434
24914W        W91323   7.866  32.047   0.886
24915W        W91324  35.121  21.034  13.841
24916W        W91325  15.296  24.525  14.511
24917W        W91326   5.743  29.426   2.236
24918W        W91327   1.383  41.780  13.886
24919W        W91328  40.944  25.236   0.343
24920W        W91329  18.172   0.571   1.248
24921W        W91330  12.752  26.651   5.002
24922W        W91331  26.612  41.360   1.690
24923W        W91332  22.505  42.676   4.292
24924W        W91333  37.724   2.231   0.764
24925W        W91334   9.358  38.857   1.343
24926W        W91335  39.540  28.939   2.270
24927W        W91336   8.744   3.707  14.950
24928W        W91337  11.144  37.715  11.847
24929W        W91338  32.350   8.970   5.028
24930W        W91339  13.593   6.554   1.731
24931W        W91340   9.918  33.173   2.803
24932W        W91341  19.196  36.932   3.933
24933W        W91342  20.011   4.192   3.713
24934W        W91343  26.879  16.275  10.737
24935W        W91344   5.485   2.332  11.604
24936W        W91345  26.703  26.545  11.400
24937W        W91346  31.706  14.630   3.142
24938W        W91347  13.795  13.613   1.333
24939W        W91348  33.948  43.985  13.831
24940W        W91349  10.676  38.752   3.811
24941W        W91350  28.084  13.195   3.176
24942W        W91351  24.944  26.995   0.174
24943W        W91352  17.283  11.293  14.339
24944W        W91353  23.617   4.672   1.913
24945W        W91354   7.432  25.083   2.851
24946W        W91355  38.337  13.118   0.368
24947W        W91356  40.412  30.653   1.397
24948W        W91357  20.669  23.654   1.846
24949W        W91358  35.618  11.768  14.906
24950W        W91359   4.200  21.031   0.852
24951W        W91360  23.212  30.439   4.962
24952W        W91361   2.759   7.861   0.770
24953W        W91362  37.509  31.560   1.767
24954W        W91363   2.485   5.214   2.382
24955W        W91364  23.684  43.019   0.713
24956W        W91365  18.788  39.501   2.353
24957W        W91366  18.947  26.114  13.111
24958W        W91367  15.034   5.640  12.118
24959W        W91368  40.889  36.905  14.722
24960W        W91369  13.206   8.312  13.160
24961W        W91370  42.480  26.175  13.664
24962W        W91371  39.362  43.245   2.376
24963W        W91372   6.924  28.838   1.125
24964W        W91373  12.109  41.603  14.719
24965W        W91374  34.977  37.982  10.549
24966W        W91375  29.090  10.676  11.645
24967W        W91376  31.582  20.806   2.795
24968W        W91377   6.209  38.421  11.337
24969W        W91378  32.058  41.788   4.903
24970W        W91379   8.726  35.304  13.913
24971W        W91380  35.579   9.325  14.792
24972W        W91381  14.679  32.521  11.558
24973W        W91382   4.543  41.463   0.335
24974W        W91383  40.290  43.646  11.152
24975W        W91384  11.864  44.368   4.025
24976W        W91385  32.357  31.935   4.480
24977W        W91386  16.162  18.240  14.457
24978W        W91387  21.098   6.388   2.668
24979W        W91388  32.275  38.358   1.661
24980W        W91389  30.525   3.899  12.465
24981W        W91390  11.690  20.044   1.864
24982W        W91391  21.258   6.419   3.201
24983W        W91392  26.447  23.209   1.150
24984W        W91393  18.476  27.606  13.656
24985W        W91394   2.132   5.881   1.424
24986W        W91395   3.744  22.255   3.328
24987W        W91396   3.213   8.293   1.314
24988W        W91397   4.435  27.253  10.615
24989W        W91398  29.988   2.375   1.900
24990W        W91399  15.265  43.796   1.746
24991W        W91400  42.553  44.401  10.771
24992W        W91401  13.720   4.825   4.185
24993W        W91402  24.897  35.601  13.827
24994W        W91403  15.291   1.912   2.637
24995W        W91404   3.160   4.909  13.909
24996W        W91405  26.232  18.927  13.296
24997W        W91406  28.601  41.839  13.988
24998W        W91407  37.990   9.610   4.980
24999W        W91408  25.797  40.758   1.778
25000W        W91409  31.644   9.269   4.554
25001W        W91410  10.364  44.265  10.777
25002W        W91411  33.907  25.125  10.962
25003W        W91412   6.339  24.503   2.315
25004W        W91413  32.843  18.650  11.133
25005W        W91414  11.370  33.455  11.995
25006W        W91415   2.259  38.612  12.546
25007W        W91416  15.985   4.736  11.567
25008W        W91417  30.001  37.296  13.680
25009W        W91418   9.721  39.068  14.473
25010W        W91419  36.985  31.038   2.757
25011W        W91420   8.765  39.106   3.372
25012W        W91421  19.061   7.267  14.933
25013W        W91422  14.829  39.313  11.611
25014W        W91423   2.741  37.227   3.704
25015W        W91424  26.508  38.862  10.790
25016W        W91425   9.140  11.555   1.320
25017W        W91426  32.113  44.819   4.302
25018W        W91427  41.253  11.518   4.881
25019W        W91428  21.583   3.894   0.070
25020W        W91429   1.696  33.555  10.703
25021W        W91430  29.057  35.204   1.912
25022W        W91431  18.195  22.400   5.015
25023W        W91432  10.159   0.907   3.613
25024W        W91433  20.670  32.641   3.861
25025W        W91434  39.101  31.438   1.952
25026W        W91435  39.253  16.268   4.079
25027W        W91436  10.413  31.664   1.416
25028W        W91437  22.578  35.972  13.558
25029W        W91438  11.212  31.576   4.116
25030W        W91439  36.151   0.916   0.238
25031W        W91440   0.905  38.280   4.153
25032W        W91441  24.200  37.825  11.045
25033W        W91442  19.384  29.458  13.647
25034W        W91443  42.870  14.061  13.347
25035W        W91444  37.967  16.223  11.654
25036W        W91445  22.286  28.134   1.340
25037W        W91446  23.977  11.564  11.122
25038W        W91447  36.240  12.637  13.042
25039W        W91448   6.070  20.566  11.425
25040W        W91449   1.797   6.742   3.889
25041W        W91450  28.120  33.181   4.135
25042W        W91451   6.426  30.601  14.758
25043W        W91452  27.201  33.615  11.622
25044W        W91453  28.099  35.911   3.249
25045W        W91454   7.909  13.795   0.597
25046W        W91455  44.703  25.137   1.060
25047W        W91456  27.895  31.554   0.320
25048W        W91457  39.000  40.055  12.095
25049W        W91458  20.486   7.119  13.860
25050W        W91459  43.108  42.786   3.763
25051W        W91460  21.587  10.155  11.174
25052W        W91461   3.959  14.436   5.140
25053W        W91462  37.318  43.508   1.170
25054W        W91463  13.265  13.829  11.438
25055W        W91464   1.432   7.739  12.292
25056W        W91465  29.596  16.462   1.979
25057W        W91466   4.781  22.013  11.820
25058W        W91467  18.765  33.918  10.679
25059W        W91468  35.436  37.673   4.720
25060W        W91469  37.699   3.430   5.372
25061W        W91470  30.465  12.204  12.407
25062W        W91471  13.307  40.223   3.252
25063W        W91472  23.124  43.698  14.412
25064W        W91473  25.166  22.522   1.364
25065W        W91474  32.695  40.995  14.389
25066W        W91475  32.036   1.559   1.771
25067W        W91476  21.674  24.230  10.312
25068W        W91477  33.852   9.169  14.359
25069W        W91478   3.747  13.917   1.564
25070W        W91479   1.924   1.786   2.785
25071W        W91480  31.474   5.416  14.074
25072W        W91481  10.760  22.524   1.788
25073W        W91482   0.222  11.254   4.313
25074W        W91483  39.459  34.553   3.752
25075W        W91484   7.593  21.528  14.261
25076W        W91485   9.248  13.856   0.756
25077W        W91486  43.672  32.554   1.505
25078W        W91487  36.974  36.454  12.438
25079W        W91488  25.109  32.635  13.507
25080W        W91489  24.713  24.664  13.043
25081W        W91490  25.463  23.025  13.958
25082W        W91491  16.618  10.342  12.886
25083W        W91492  25.979  23.842   0.802
25084W        W91493  34.287  40.569  12.992
25085W        W91494  21.658  43.500   4.531
25086W        W91495  25.112  20.176   1.112
25087W        W91496  38.442   8.229  13.463
25088W        W91497  11.329  13.507   3.186
25089W        W91498   8.959  27.693   2.357
25090W        W91499   1.286   8.673  14.706
25091W        W91500  44.810  28.927  13.863
25092W        W91501  21.115  20.247   2.575
25093W        W91502  32.282  21.066  10.804
25094W        W91503  29.721  13.013   0.790
25095W        W91504  10.816   1.114   2.692
25096W        W91505  29.395  21.774   4.634
25097W        W91506   1.811  22.829  11.496
25098W        W91507   7.620  33.555  11.486
25099W        W91508   5.932  35.193   2.412
25100W        W91509  15.869  37.998  12.871
25101W        W91510  13.508  43.377   2.279
25102W        W91511  25.667  15.612   1.847
25103W        W91512  30.991  10.604  14.053
25104W        W91513  27.146   7.640   9.957
25105W        W91514   7.759  13.225  12.915
25106W        W91515  10.279  18.811   2.685
25107W        W91516  13.937  15.802  10.787
25108W        W91517  41.637  18.679   4.141
25109W        W91518  37.156  27.489  13.465
25110W        W91519  25.422  11.219   1.400
25111W        W91520  19.903  40.823   4.909
25112W        W91521  23.670  35.938  11.690
25113W        W91522  23.147   1.948  13.949
25114W        W91523  31.706  35.905  13.100
25115W        W91524  17.814   9.775   4.675
25116W        W91525  13.279  44.698   5.387
25117W        W91526  23.254  30.052  10.578
25118W        W91527  25.149  39.674  13.023
25119W        W91528  10.961  38.286   4.428
25120W        W91529  35.872  25.057  14.056
25121W        W91530  18.308  24.989  13.410
25122W        W91531  17.650  31.136   3.608
25123W        W91532  42.008  16.628   3.257
25124W        W91533  42.446  31.674  13.400
25125W        W91534  16.939  17.573   3.270
25126W        W91535  31.008  26.430  11.118
25127W        W91536   5.162  19.226   0.704
25128W        W91537  26.292  11.841  12.586
25129W        W91538  16.548  14.750   3.741
25130W        W91539   2.325  44.607   4.569
25131W        W91540  28.795  29.318  13.714
25132W        W91541  20.253  26.262  11.115
25133W        W91542   6.008  20.017   1.568
25134W        W91543  44.481  30.058   2.137
25135W        W91544  31.683   0.716   4.077
25136W        W91545   0.958  35.883  13.066
25137W        W91546  35.623  15.568   3.277
25138W        W91547  26.969   9.445  14.763
25139W        W91548  31.969  30.936  13.458
25140W        W91549  17.567  42.214   4.502
25141W        W91550   9.694  14.377  14.508
25142W        W91551  14.961  42.150   4.562
25143W        W91552  32.638  35.469   2.792
25144W        W91553  42.864   7.793   1.890
25145W        W91554  21.622  18.517  14.204
25146W        W91555  34.825  22.482  12.944
25147W        W91556  25.879  22.115  14.894
25148W        W91557  21.076  39.419  12.368
25149W        W91558   0.025   8.266  11.171
25150W        W91559  16.595  42.362  13.132
25151W        W91560   1.158  22.777   4.571
25152W        W91561  15.382  13.510   1.016
25153W        W91562  23.926  41.712   1.468
25154W        W91563  44.900  28.449  14.026
25155W        W91564  12.132   2.299   4.575
25156W        W91565  21.566   6.624  11.516
25157W        W91566  11.225  30.037  13.377
25158W        W91567  40.252  10.659   0.896
25159W        W91568   1.993  37.249  14.771
25160W        W91569  33.863  15.259   0.736
25161W        W91570   3.522  30.575  11.547
25162W        W91571  41.000  14.004  14.070
25163W        W91572  29.449  22.238   3.681
25164W        W91573  16.654  12.753  11.272
25165W        W91574  19.071  28.099  13.999
25166W        W91575  43.022  29.188  12.104
25167W        W91576  35.618  24.105  14.385
25168W        W91577  22.397  24.171   0.173
25169W        W91578  39.742  28.487   3.227
25170W        W91579  12.907  42.073   2.710
25171W        W91580  21.624  23.714  12.938
25172W        W91581  37.081  31.044  11.273
25173W        W91582  12.559  39.821  13.891
25174W        W91583   7.205  13.823  14.441
25175W        W91584   3.315  38.324  14.716
25176W        W91585  22.804  12.266   3.969
25177W        W91586  37.872  19.033   2.162
25178W        W91587   9.116  24.150   5.220
25179W        W91588  17.195  21.692  14.994
25180W        W91589  10.862  10.099  10.946
25181W        W91590  17.729  33.050  13.446
25182W        W91591  20.193  28.908   0.307
25183W        W91592  41.868   2.409   3.043
25184W        W91593  16.155  18.115   0.478
25185W        W91594  20.628  16.706  12.060
25186W        W91595  21.993  19.700  14.838
25187W        W91596  10.748  32.547   1.808
25188W        W91597  12.739  40.020   3.662
25189W        W91598  19.304  13.299  12.971
25190W        W91599  19.187  31.096  14.052
25191W        W91600  23.628  10.872  13.462
25192W        W91601  37.549  35.972  12.184
25193W        W91602   5.317  37.367  11.958
25194W        W91603  33.269  36.026  10.087
25195W        W91604  43.922   3.724   0.387
25196W        W91605  23.337  34.823  14.315
25197W        W91606  14.367   7.389   2.818
25198W        W91607  15.156  44.576  11.489
25199W        W91608  23.274   6.495   1.841
25200W        W91609  30.893  11.151   4.891
25201W        W91610  26.718  38.830   0.495
25202W        W91611  24.507  42.357  11.552
25203W        W91612  40.318  40.813   2.923
25204W        W91613  12.204   9.432  14.363
25205W        W91614  34.255   3.944  13.987
25206W        W91615   0.012   4.237  12.947
25207W        W91616  40.925  23.963   0.938
25208W        W91617   3.494  24.213   1.381
25209W        W91618   6.348  10.617  11.724
25210W        W91619  20.134  25.850   2.408
25211W        W91620  14.156   6.292   3.765
25212W        W91621  17.792  15.301  10.714
25213W        W91622  25.962  26.628   0.043
25214W        W91623  38.849  16.436   1.713
25215W        W91624  41.495  21.603   0.707
25216W        W91625  17.697  19.697  14.412
25217W        W91626  36.812  32.463  13.059
25218W        W91627  14.996  38.107   4.401
25219W        W91628   3.737  16.335   0.402
25220W        W91629  21.991  38.921  14.201
25221W        W91630   8.605  43.861   1.068
25222W        W91631  36.552  42.805   5.044
25223W        W91632  19.918   0.400   0.853
25224W        W91633  34.055  29.831  11.561
25225W        W91634  28.464  34.873   0.385
25226W        W91635  40.520  20.542  14.011
25227W        W91636  11.683  30.566  13.341
25228W        W91637   5.896   1.922   3.644
25229W        W91638  14.075  22.695   3.663
25230W        W91639  42.873  12.788  13.020
25231W        W91640  26.379  14.121  10.770
25232W        W91641  33.912  41.006   3.175
25233W        W91642  31.470  36.944  10.720
25234W        W91643  38.298   0.521  13.932
25235W        W91644  39.488   2.681  13.128
25236W        W91645  18.056  36.577   3.585
25237W        W91646  34.594  22.210   1.434
25238W        W91647  16.192  39.287   4.043
25239W        W91648  35.970  21.460  14.518
25240W        W91649  40.906  13.837   4.518
25241W        W91650   4.703  30.673   1.375
25242W        W91651  30.481  37.950   3.202
25243W        W91652  22.734  17.656   3.142
25244W        W91653  23.996  24.143   4.501
25245W        W91654  16.913  27.512  12.362
25246W        W91655  33.775  27.606  12.104
25247W        W91656   5.860  42.410  13.937
25248W        W91657   5.247  14.290   3.706
25249W        W91658  16.806  30.885  10.576
25250W        W91659  29.896   7.014  10.740
25251W        W91660   8.140   7.201   5.017
25252W        W91661  23.719  35.893  10.738
25253W        W91662  36.862   2.602  12.961
25254W        W91663  30.416  23.739  13.947
25255W        W91664  20.530  31.140  14.924
25256W        W91665  11.244   7.609  11.405
25257W        W91666  36.466  24.753   4.902
25258W        W91667  29.287  33.172   0.757
25259W        W91668   7.114  43.436  11.528
25260W        W91669  28.480  18.557   1.814
25261W        W91670  29.431  38.360  12.074
25262W        W91671   7.094   5.063   1.900
25263W        W91672   9.714  28.139  11.399
25264W        W91673  37.678  29.447  11.247
25265W        W91674   4.797  17.533   4.564
25266W        W91675  34.003  25.017  12.834
25267W        W91676  17.289  23.715   1.461
25268W        W91677  16.100  40.784  10.703
25269W        W91678  14.070  20.107   3.368
25270W        W91679  19.919  39.915  12.857
25271W        W91680  13.365  21.046   5.498
25272W        W91681  20.771  28.977  14.543
25273W        W91682   5.354  15.139  12.818
25274W        W91683  12.539   5.800   4.542
25275W        W91684  28.356  38.975   1.355
25276W        W91685   5.353  44.411  14.411
25277W        W91686  39.806  21.129  14.403
25278W        W91687   8.577  26.833   4.610
25279W        W91688   5.030  19.724  12.194
25280W        W91689  32.077  24.095   4.887
25281W        W91690  14.313  26.624  12.810
25282W        W91691  30.656   3.319   2.949
25283W        W91692  42.119  32.837  11.918
25284W        W91693  14.293  34.024   2.600
25285W        W91694  21.066  24.023   3.654
25286W        W91695  30.752  28.205  13.399
25287W        W91696   9.824  37.016   5.356
25288W        W91697  39.828   8.772   3.671
25289W        W91698  26.460  16.248  13.464
25290W        W91699  36.719   0.953  11.191
25291W        W91700  39.401  40.287  14.978
25292W        W91701   1.333   1.975  10.387
25293W        W91702  35.452  44.394  11.458
25294W        W91703  27.939  29.454   4.119
25295W        W91704  30.984  44.483   1.312
25296W        W91705  17.478  29.006   4.040
25297W        W91706   2.773   9.392   2.502
25298W        W91707  38.298  43.850   1.818
25299W        W91708   8.809  26.298  12.434
25300W        W91709  34.366  40.532   4.664
25301W        W91710  26.506   3.243  14.538
25302W        W91711  16.670  27.952   1.738
25303W        W91712  38.417  26.071  12.547
25304W        W91713  31.353   4.799   3.620
25305W        W91714  11.683  34.454   3.822
25306W        W91715  23.427  40.697  12.536
25307W        W91716   0.800  43.454  11.647
25308W        W91717  27.464  18.309   2.748
25309W        W91718  32.089   2.905   0.272
25310W        W91719  42.275   7.335   1.450
25311W        W91720   8.441  10.599  12.447
25312W        W91721  14.061   8.826   0.715
25313W        W91722  22.533  17.635   3.660
25314W        W91723  12.790   1.808  11.928
25315W        W91724   3.167  16.490   4.773
25316W        W91725  17.728  10.305  12.971
25317W        W91726  10.491  32.390   0.247
25318W        W91727  41.277  22.863   1.181
25319W        W91728  33.042  42.146   1.775
25320W        W91729  40.512  36.597   3.609
25321W        W91730  16.103  20.271   2.922
25322W        W91731  36.018  42.255  11.659
25323W        W91732  36.980  42.269   2.928
25324W        W91733  18.857  35.033   3.244
25325W        W91734   9.272  18.863   4.569
25326W        W91735  16.843  15.599  10.362
25327W        W91736  15.201  23.834   1.255
25328W        W91737  21.662  41.006   0.471
25329W        W91738  18.776  19.283  12.885
25330W        W91739  29.596  18.024  13.267
25331W        W91740   8.427  39.789  12.987
25332W        W91741  27.431  10.165   0.059
25333W        W91742  37.537  42.988   0.201
25334W        W91743  34.190  30.454   0.627
25335W        W91744  29.593  23.268   1.893
25336W        W91745  41.333  14.042   3.718
25337W        W91746  34.886  20.563  10.985
25338W        W91747  15.176   0.305   2.838
25339W        W91748  12.840  23.536   4.611
25340W        W91749  30.442  20.045  14.249
25341W        W91750   7.494   2.842   0.022
25342W        W91751  10.236  30.121  10.223
25343W        W91752   2.798  13.401  10.997
25344W        W91753  31.187  37.872  11.950
25345W        W91754  18.052  32.836  11.091
25346W        W91755   1.289  37.082  13.437
25347W        W91756   9.245  16.102  11.383
25348W        W91757  36.526  14.288   1.466
25349W        W91758  43.734  29.684   3.115
25350W        W91759  29.195  13.123  11.509
25351W        W91760   3.369   5.990  10.984
25352W        W91761  26.999  35.894  10.879
25353W        W91762  33.661   5.926   4.064
25354W        W91763  43.629   2.450  12.382
25355W        W91764  24.625  32.825  14.508
25356W        W91765  19.530  44.973  13.338
25357W        W91766  11.812  13.691   4.625
25358W        W91767  40.528  26.900   5.090
25359W        W91768  20.547  11.837   3.316
25360W        W91769  26.025  10.014   1.520
25361W        W91770  22.024   6.300   4.799
25362W        W91771  24.743  37.779   0.705
25363W        W91772  28.225  25.114  14.443
25364W        W91773  14.334  13.268  12.346
25365W        W91774  22.103   3.964   4.640
25366W        W91775  14.026  21.181   2.258
25367W        W91776  35.488  33.567   4.840
25368W        W91777   0.792  13.395  12.577
25369W        W91778  21.812  26.257   3.212
25370W        W91779  44.649  42.210   0.900
25371W        W91780  30.841  20.650  11.468
25372W        W91781  27.886  44.573   0.883
25373W        W91782  40.271  26.589  12.520
25374W        W91783  27.931   5.291   4.370
25375W        W91784  42.541  17.094  11.448
25376W        W91785  15.874  16.011  13.516
25377W        W91786  14.814  11.325  12.648
25378W        W91787  16.485  11.200   2.430
25379W        W91788  18.932  12.612   1.728
25380W        W91789  26.613  41.264  12.023
25381W        W91790  38.747  29.979   2.650
25382W        W91791   0.587  18.758  13.552
25383W        W91792  16.438  17.640   0.310
25384W        W91793  25.250   0.422   0.150
25385W        W91794  41.322  36.636  14.928
25386W        W91795  20.556  20.222   0.672
25387W        W91796   5.172  38.295   3.739
25388W        W91797  22.544  36.189  11.197
25389W        W91798  38.353   8.785  10.773
25390W        W91799  17.707  15.606  13.486
25391W        W91800  26.754   4.449  11.108
25392W        W91801  44.719  22.238  14.468
25393W        W91802  20.388  36.363  14.458
25394W        W91803   3.385   5.300   3.820
25395W        W91804  26.798  34.040  13.459
25396W        W91805   8.745  23.387   1.029
25397W        W91806  18.788  13.566   0.428
25398W        W91807  34.942  34.926  12.873
25399W        W91808  31.487  21.583  10.995
25400W        W91809  10.025  15.225  13.450
25401W        W91810  44.215  12.088   1.213
25402W        W91811  18.103   3.773  12.471
25403W        W91812  41.900  32.636   4.208
25404W        W91813  23.074   8.610  14.021
25405W        W91814  38.900   7.789  10.579
25406W        W91815  38.999  27.178  14.070
25407W        W91816  27.446  37.751   3.312
25408W        W91817   3.937   5.489   3.294
25409W        W91818  23.763   9.941   0.857
25410W        W91819  15.655  15.513   3.293
25411W        W91820  25.491  13.277   2.349
25412W        W91821  14.405  31.656  13.492
25413W        W91822  23.930  44.379  12.406
25414W        W91823  29.045  43.984   2.255
25415W        W91824  36.136  11.166  12.007
25416W        W91825  18.071   9.652  12.247
25417W        W91826   7.662  44.986  13.440
25418W        W91827   4.233  37.945  11.522
25419W        W91828  24.420  22.213   2.300
25420W        W91829  12.853  42.473  12.324
25421W        W91830   1.406  16.721   3.849
25422W        W91831  25.174  26.999   4.245
25423W        W91832  29.078  21.689  11.387
25424W        W91833   2.342   6.129  11.954
25425W        W91834   6.358   5.215   3.571
25426W        W91835  24.120  14.130  12.706
25427W        W91836   3.446   8.283   3.260
25428W        W91837   9.927  21.547  13.111
25429W        W91838  12.203   2.838  12.070
25430W        W91839   9.527  23.973  12.977
25431W        W91840  28.668   7.020   4.817
25432W        W91841  35.674   4.459  12.227
25433W        W91842  20.760  36.049  11.512
25434W        W91843  24.677  16.257  11.547
25435W        W91844  30.659  16.863   2.679
25436W        W91845   9.536  22.670  14.304
25437W        W91846   7.632  14.691  14.884
25438W        W91847  24.922  37.689  11.056
25439W        W91848  31.540  31.998   4.104
25440W        W91849  29.200  34.313   1.317
25441W        W91850  20.583  21.097  13.592
25442W        W91851  38.458   9.210   5.233
25443W        W91852  40.963   2.696  11.732
25444W        W91853   2.697   6.656  14.293
25445W        W91854  43.760  25.083   2.390
25446W        W91855  15.072  20.325  14.503
25447W        W91856  21.147  40.500   0.538
25448W        W91857  16.757  11.230   3.768
25449W        W91858   0.983  34.567   3.644
25450W        W91859  24.534   4.030   2.733
25451W        W91860   1.513  36.009  11.523
25452W        W91861  41.714  29.766   1.484
25453W        W91862   3.915  40.291  14.664
25454W        W91863   9.282  26.381  12.617
25455W        W91864  40.539  10.833  13.452
25456W        W91865   7.097  18.779  14.318
25457W        W91866  39.335  27.620  12.437
25458W        W91867  21.442  33.280  12.400
25459W        W91868  38.377  36.095  10.646
25460W        W91869   3.273  42.533   2.860
25461W        W91870  38.914   6.246  14.880
25462W        W91871  21.616  28.161  10.653
25463W        W91872  43.965  16.161  12.371
25464W        W91873  10.161  10.309  12.795
25465W        W91874  41.880   9.180   1.355
25466W        W91875   9.132  28.096   4.720
25467W        W91876  30.327   9.975  12.533
25468W        W91877  35.848   3.323  10.585
25469W        W91878  23.212   2.881  12.856
25470W        W91879   3.286  38.718   1.003
25471W        W91880  22.072  38.235   2.419
25472W        W91881  43.060   4.997   4.651
25473W        W91882  18.753  38.290  12.693
25474W        W91883   6.220  27.217   3.660
25475W        W91884  44.843   6.147  13.131
25476W        W91885  22.143  19.239  13.591
25477W        W91886  28.132  28.166   4.513
25478W        W91887  24.039  18.410   1.007
25479W        W91888  36.282   4.656  12.968
25480W        W91889   6.868  29.639   0.419
25481W        W91890  36.335  44.230   4.539
25482W        W91891  37.383  33.615   1.529
25483W        W91892  20.277   4.261   3.257
25484W        W91893  23.580  41.884  14.877
25485W        W91894  40.604  28.911   2.282
25486W        W91895  34.912  43.414   3.353
25487W        W91896  24.260   4.753   4.628
25488W        W91897  40.537  38.064   0.979
25489W        W91898  32.720   3.900  11.739
25490W        W91899  21.066   5.266   2.837
25491W        W91900  37.381  31.054  14.878
25492W        W91901  11.725   6.191   4.202
25493W        W91902  19.586  19.723  14.988
25494W        W91903   5.204  25.730  11.103
25495W        W91904  44.532  30.628  10.797
25496W        W91905   2.992  35.021  13.128
25497W        W91906  12.983   5.938  11.068
25498W        W91907   7.926  27.474   2.280
25499W        W91908  17.881  29.955  12.783
25500W        W91909  14.770  29.368  12.941
25501W        W91910  43.734  15.815   0.890
25502W        W91911  14.050  40.579   4.640
25503W        W91912   4.641  13.130  12.093
25504W        W91913   8.193  22.563   3.869
25505W        W91914   1.285  17.350  10.653
25506W        W91915  41.511  37.627   1.986
25507W        W91916   3.421  32.635  13.479
25508W        W91917  15.132  18.374   0.325
25509W        W91918   7.915  37.301   0.020
25510W        W91919  33.098  28.422   1.268
25511W        W91920  44.774  23.584  11.415
25512W        W91921  40.755  22.092   2.813
25513W        W91922  32.835  36.894  11.196
25514W        W91923  17.610  20.189  10.687
25515W        W91924  13.598  10.644   3.511
25516W        W91925  33.567   2.224   0.435
25517W        W91926  43.139  32.643   2.816
25518W        W91927  19.024  11.326   1.226
25519W        W91928  16.174  24.948   4.136
25520W        W91929  34.405   3.245   3.800
25521W        W91930  33.335  19.523  11.614
25522W        W91931   9.158  31.036  10.105
25523W        W91932  32.197  27.064  11.150
25524W        W91933  31.252   1.466   5.445
25525W        W91934  32.584  42.258  13.117
25526W        W91935  31.348  17.759   2.205
25527W        W91936  21.082   2.550   3.507
25528W        W91937  31.407  17.679   1.598
25529W        W91938  39.809  41.487   1.943
25530W        W91939   4.776  10.408  10.375
25531W        W91940   7.388   7.122  10.694
25532W        W91941  33.472  34.620  14.748
25533W        W91942  40.741  16.565   3.333
25534W        W91943  14.082  33.386   3.803
25535W        W91944  35.658   0.706  11.133
25536W        W91945  27.060  30.663  14.447
25537W        W91946   4.132  22.078   3.015
25538W        W91947   8.749  43.173   3.720
25539W        W91948  29.641  16.968   5.104
25540W        W91949  28.061  23.697  12.113
25541W        W91950   3.864   3.048   2.611
25542W        W91951  19.778  29.227   0.256
25543W        W91952  29.484  32.510  14.617
25544W        W91953  43.779  39.557   3.235
25545W        W91954  28.121   4.099   0.911
25546W        W91955   4.729  44.989  11.942
25547W        W91956  37.851  15.725  13.331
25548W        W91957  29.942  16.119  14.294
25549W        W91958   1.606   0.012   4.226
25550W        W91959  29.966  20.457   4.300
25551W        W91960  25.938  23.572  14.750
25552W        W91961  34.180   2.668  13.844
25553W        W91962  39.559  10.454  12.463
25554W        W91963  23.001  34.530  14.015
25555W        W91964  20.621   7.831  14.319
25556W        W91965  16.316  44.019  11.989
25557W        W91966  25.896  39.833  11.644
25558W        W91967  13.263  12.128  11.227
25559W        W91968  19.026   0.671  11.245
25560W        W91969  41.574  40.064   3.658
25561W        W91970  29.042  35.422  14.094
25562W        W91971  38.506   8.851   0.875
25563W        W91972  18.320  37.033   2.232
25564W        W91973  26.461  18.817  13.796
25565W        W91974  11.707  29.680   2.715
25566W        W91975  17.784  22.410   0.320
25567W        W91976   7.960  31.024   4.057
25568W        W91977  21.882  11.785  10.828
25569W        W91978  24.148  14.019  14.652
25570W        W91979  35.954  19.769   2.953
25571W        W91980  10.054  38.125   2.496
25572W        W91981  22.724  24.740   2.741
25573W        W91982  10.835   9.239   3.857
25574W        W91983  41.909   9.113   2.284
25575W        W91984  36.823  13.577   3.247
25576W        W91985  31.809   6.931   3.133
25577W        W91986  40.115  16.075   4.814
25578W        W91987  35.214   2.975  11.364
25579W        W91988  22.245  19.750   2.742
25580W        W91989  33.893  11.360  12.374
25581W        W91990   1.341  36.635  14.469
25582W        W91991  36.115  28.486  14.821
25583W        W91992  12.304  33.137   2.727
25584W        W91993   8.651  44.427  13.454
25585W        W91994  32.672   9.397   4.202
25586W        W91995  30.370   5.340   0.874
25587W        W91996  12.684  36.601  11.075
25588W        W91997  24.477   3.493   4.529
25589W        W91998  30.660  33.957  13.475
25590W        W91999   0.700  22.491   2.766
25591W        W92000   3.674  12.912   1.788
25592W        W92001   6.090  23.175   1.902
25593W        W92002  25.656  35.050  14.393
25594W        W92003   1.794  16.237   2.309
25595W        W92004  15.390  25.962   4.229
25596W        W92005  34.964   6.136   3.261
25597W        W92006  31.617  16.719   3.151
25598W        W92007  15.594  12.429   2.436
25599W        W92008  18.311  18.949   1.915
25600W        W92009  18.292  39.564   3.670
25601W        W92010  12.898  42.792  11.070
25602W        W92011   7.298  26.446  13.327
25603W        W92012   5.810  15.689  13.892
25604W        W92013  21.729  37.542  13.308
25605W        W92014  39.403  36.430  13.390
25606W        W92015  44.431  24.253   4.195
25607W        W92016  13.656  34.322   3.716
25608W        W92017  42.867  35.855  12.508
25609W        W92018  36.310  42.341  12.471
25610W        W92019  23.545  34.529  13.741
25611W        W92020  34.584   9.020   4.793
25612W        W92021  40.930   2.351   4.198
25613W        W92022  16.561  42.822  10.609
25614W        W92023  39.291  31.332   3.173
25615W        W92024  37.513   2.973  14.230
25616W        W92025   8.762  26.989  13.056
25617W        W92026  12.662  36.348   4.118
25618W        W92027  39.989  44.836   4.756
25619W        W92028  22.717  17.876  12.615
25620W        W92029   6.298  34.993   3.739
25621W        W92030   3.318  27.956  12.562
25622W        W92031   0.941  39.272   2.438
25623W        W92032  41.762  33.993  14.447
25624W        W92033  39.073  18.381  10.645
25625W        W92034  41.175  38.265   0.358
25626W        W92035  22.094  31.930  14.767
25627W        W92036  13.321  33.484  14.940
25628W        W92037  28.208  17.996   3.809
25629W        W92038  31.790  16.844  14.457
25630W        W92039  18.821   7.379  10.283
25631W        W92040   3.708  42.811   2.243
25632W        W92041  15.008  41.198   4.364
25633W        W92042   0.479  38.979  12.539
25634W        W92043  11.130  24.589  14.941
25635W        W92044  34.308  20.122   0.378
25636W        W92045  17.516   7.435   3.079
25637W        W92046  12.292  30.758   0.265
25638W        W92047  16.551   3.395  11.070
25639W        W92048  41.715  10.334   3.489
25640W        W92049  27.459  35.078  11.688
25641W        W92050  36.279  27.190   2.368
25642W        W92051  20.168  41.923   4.340
25643W        W92052   8.565  33.650   1.746
25644W        W92053  26.484  29.911  10.746
25645W        W92054  18.731   7.619  12.468
25646W        W92055   0.466  43.415  12.031
25647W        W92056  17.621  29.452   3.255
25648W        W92057  12.401  13.739   1.615
25649W        W92058  13.065  34.993   4.229
25650W        W92059  41.131  12.039   5.044
25651W        W92060   2.416  31.932   2.240
25652W        W92061  11.852   0.183  10.695
25653W        W92062  32.475  21.227   3.699
25654W        W92063  17.240  28.596  10.437
25655W        W92064  40.874  23.539  12.168
25656W        W92065  36.908   9.149  11.675
25657W        W92066   7.480  33.561   4.059
25658W        W92067  13.379  19.157   2.820
25659W        W92068   3.535   2.771  14.961
25660W        W92069   3.776  16.764   2.686
25661W        W92070  36.326   3.149  14.804
25662W        W92071   6.089   0.427  12.581
25663W        W92072  21.368  23.343  10.146
25664W        W92073  38.145  38.968  12.368
25665W        W92074  11.491  17.941  11.755
25666W        W92075  42.178  19.583  14.896
25667W        W92076  39.823  36.006   0.984
25668W        W92077   8.704  11.295  11.374
25669W        W92078   5.294  19.484   4.173
25670W        W92079  36.903  11.595  13.866
25671W        W92080  25.071  13.174  12.909
25672W        W92081  35.899   8.913  14.880
25673W        W92082  14.717  43.801  10.720
25674W        W92083  35.590  15.767  10.896
25675W        W92084  15.745   3.232  13.547
25676W        W92085  25.670  24.336   4.643
25677W        W92086  26.941  10.852  14.276
25678W        W92087   0.520  43.473   0.329
25679W        W92088  20.125   5.376   1.442
25680W        W92089  42.946  20.135  11.432
25681W        W92090   6.275  16.435   2.871
25682W        W92091  20.023  16.685  11.582
25683W        W92092   8.277   0.393  11.630
25684W        W92093   2.746  44.515   1.748
25685W        W92094  19.448   7.775  12.967
25686W        W92095   0.422  20.973  10.590
25687W        W92096   3.393   7.317   4.523
25688W        W92097  22.232  11.121   1.848
25689W        W92098  14.188  30.779   2.631
25690W        W92099  36.203   4.287  13.546
25691W        W92100  10.303  40.014  13.505
25692W        W92101  27.509  40.006  11.725
25693W        W92102   2.130   8.272  14.452
25694W        W92103  30.117  19.398   4.204
25695W        W92104  25.077  11.136  14.414
25696W        W92105   3.799  21.607  12.806
25697W        W92106  22.554  30.119   0.370
25698W        W92107  32.213  31.795   3.559
25699W        W92108  22.502  30.645   0.413
25700W        W92109  44.520   7.637   1.308
25701W        W92110   2.198  40.109   1.207
25702W        W92111  10.612  14.089  13.366
25703W        W92112   2.727  32.049   0.829
25704W        W92113  17.724  37.861  11.948
25705W        W92114  42.944  35.381   2.442
25706W        W92115   8.859  26.100  10.536
25707W        W92116  21.098  34.946  13.049
25708W        W92117  34.839  43.943   4.470
25709W        W92118  27.060  20.319  14.526
25710W        W92119   1.389   8.369  12.984
25711W        W92120  28.907  25.121   3.231
25712W        W92121  14.090  15.266   0.703
25713W        W92122  33.415  10.530  10.447
25714W        W92123  34.247  10.299  14.455
25715W        W92124  22.538  39.350  10.928
25716W        W92125  29.479   0.183   0.872
25717W        W92126  26.130  32.524  13.378
25718W        W92127  42.415  34.529   1.433
25719W        W92128  43.919  18.594   2.598
25720W        W92129  30.430  19.966  11.908
25721W        W92130  15.923   2.422   4.603
25722W        W92131  38.852   4.887  13.353
25723W        W92132  11.489  37.351   1.285
25724W        W92133   6.021   3.665  12.935
25725W        W92134   3.811  14.222   0.525
25726W        W92135  20.508   7.414   1.760
25727W        W92136   1.008  20.446   3.657
25728W        W92137  23.859  43.892  10.520
25729W        W92138  17.790  18.543  12.331
25730W        W92139  16.454  32.502   4.238
25731W        W92140  39.446  10.861   1.721
25732W        W92141  27.706   7.077   2.255
25733W        W92142  15.187  24.217  11.068
25734W        W92143  31.016  14.229  14.854
25735W        W92144  43.685  32.549  14.776
25736W        W92145  42.913  40.845  11.457
25737W        W92146  13.108  40.086   1.876
25738W        W92147  34.606   2.979  13.944
25739W        W92148   5.635  18.362   3.195
25740W        W92149  17.183   2.925  10.679
25741W        W92150  18.088  43.861   2.264
25742W        W92151  11.901   0.751  14.260
25743W        W92152  13.209  15.953   3.881
25744W        W92153  25.222  33.360   0.764
25745W        W92154  12.537  40.337  13.270
25746W        W92155  39.125  20.218  10.298
25747W        W92156  16.736  24.178   1.252
25748W        W92157  13.342   3.125  14.581
25749W        W92158  26.930  15.328  13.700
25750W        W92159  12.203   4.394  10.480
25751W        W92160  13.282  41.869  14.805
25752W        W92161   6.434  32.266  11.950
25753W        W92162  10.754  18.496  10.650
25754W        W92163   5.628  26.542  11.983
25755W        W92164  26.008  41.413   0.043
25756W        W92165   6.929  42.439  13.122
25757W        W92166  43.274  33.421  13.502
25758W        W92167  18.060  16.180  11.620
25759W        W92168  18.836  15.338   0.330
25760W        W92169   8.573  44.837  10.836
25761W        W92170  41.862  39.898   1.776
25762W        W92171  27.985   1.896   1.811
25763W        W92172  35.513   2.157  11.916
25764W        W92173  39.391  26.963  14.336
25765W        W92174  11.839  21.257  14.869
25766W        W92175  18.620  38.572   4.138
25767W        W92176   9.237  29.233  13.146
25768W        W92177   6.660  12.009   2.191
25769W        W92178  14.096  18.289  10.259
25770W        W92179  25.077  38.939  10.356
25771W        W92180  36.803  44.262   3.631
25772W        W92181  20.319  16.248  11.748
25773W        W92182  42.923  41.438   3.627
25774W        W92183  13.860  27.882   0.329
25775W        W92184  29.488  18.249   2.835
25776W        W92185  24.267  42.876   3.464
25777W        W92186  35.909  10.649   1.382
25778W        W92187  41.432  24.941   1.851
25779W        W92188  39.740   4.714  11.573
25780W        W92189  41.571  34.908  13.528
25781W        W92190   4.623   0.311   1.930
25782W        W92191  14.743  17.296  10.314
25783W        W92192  11.300  36.969  13.132
25784W        W92193  39.923  34.203   0.252
25785W        W92194  20.123  39.074  12.788
25786W        W92195  20.810  18.082   2.878
25787W        W92196  42.893  14.685   3.036
25788W        W92197  20.508   5.399  13.949
25789W        W92198   8.800   9.072  12.943
25790W        W92199  17.076   0.971  11.076
25791W        W92200   7.451   9.115  14.946
25792W        W92201  27.271  24.349   2.040
25793W        W92202  30.614  41.730   3.709
25794W        W92203  39.615  35.917   2.335
25795W        W92204  34.696   5.938  10.634
25796W        W92205  39.567  37.485  10.573
25797W        W92206  16.396  30.490  13.481
25798W        W92207  16.226  31.881   0.660
25799W        W92208  36.252  17.804  13.364
25800W        W92209  16.588  21.210  14.317
25801W        W92210   2.834  41.346   4.412
25802W        W92211  44.154  33.312  10.662
25803W        W92212  25.416  39.673   9.903
25804W        W92213  25.174   8.255  13.787
25805W        W92214   2.370  29.489   2.242
25806W        W92215  34.571   0.886  10.132
25807W        W92216  17.820   5.601  13.841
25808W        W92217  12.533  22.732  10.025
25809W        W92218  10.468  10.544   5.130
25810W        W92219  42.989  34.636  11.945
25811W        W92220  37.350  11.076  13.010
25812W        W92221  41.058   7.278  14.496
25813W        W92222   1.202  32.499   4.551
25814W        W92223  44.692   4.705  14.914
25815W        W92224  35.450  20.528  14.946
25816W        W92225  21.177  35.032   4.537
25817W        W92226  33.492  36.426   4.681
25818W        W92227  37.115  44.519  12.838
25819W        W92228   8.269  11.156   1.706
25820W        W92229  21.732  16.220   3.594
25821W        W92230  40.706  30.316   2.330
25822W        W92231  23.622  23.513  14.133
25823W        W92232   3.832  13.048   1.296
25824W        W92233   3.431  30.691   0.986
25825W        W92234  16.910  38.814   3.815
25826W        W92235  13.250  15.806  14.922
25827W        W92236  41.699  32.148  11.095
25828W        W92237  19.175  39.433  13.749
25829W        W92238  29.958  43.287   1.776
25830W        W92239  24.093  29.725   2.751
25831W        W92240  23.556  27.235   4.244
25832W        W92241   2.962   1.481   3.141
25833W        W92242  13.616  39.095   2.201
25834W        W92243   5.365  22.075  14.241
25835W        W92244   5.850  29.214  13.395
25836W        W92245  30.652  40.288  13.172
25837W        W92246   5.124   2.983   9.930
25838W        W92247  38.940  26.086   1.630
25839W        W92248   0.463  19.170   4.350
25840W        W92249  42.035  18.250  12.115
25841W        W92250  29.600   1.806   2.338
25842W        W92251  19.732  42.690   2.221
25843W        W92252  12.777   4.382   4.783
25844W        W92253  21.580  29.996  13.037
25845W        W92254  24.992   6.651   3.219
25846W        W92255  39.806  33.093   2.638
25847W        W92256   6.359  39.059   2.275
25848W        W92257  11.244   2.593   2.136
25849W        W92258  37.443  17.716   2.239
25850W        W92259  22.344  31.497   1.389
25851W        W92260  19.297  22.226  12.448
25852W        W92261  10.126  33.979  14.449
25853W        W92262  26.260   5.849   0.363
25854W        W92263  16.310   6.452   4.350
25855W        W92264  43.054   9.827  12.933
25856W        W92265  38.970   3.414   0.002
25857W        W92266  19.253  16.571  11.082
25858W        W92267  43.982   4.810   1.735
25859W        W92268  39.872  22.629  11.213
25860W        W92269   6.341  37.825   3.730
25861W        W92270  18.673  37.269   1.402
25862W        W92271  14.423  20.451  14.450
25863W        W92272  11.240  11.880  13.335
25864W        W92273  15.260   3.841   2.779
25865W        W92274  44.777  37.921   0.214
25866W        W92275  10.695  12.246   3.678
25867W        W92276  34.735  19.043   1.831
25868W        W92277   4.256   8.232   4.532
25869W        W92278  22.781  12.086  14.771
25870W        W92279  30.219  24.047   3.118
25871W        W92280  44.162  11.820  14.949
25872W        W92281  26.039  24.745   2.276
25873W        W92282   2.807  31.721  13.599
25874W        W92283   9.662  25.127  13.887
25875W        W92284  24.011  11.289  14.142
25876W        W92285  20.873  20.627  10.868
25877W        W92286  39.681  30.957  13.132
25878W        W92287  28.701  37.991  13.385
25879W        W92288  33.021  25.922   3.283
25880W        W92289  22.082  44.833  13.359
25881W        W92290  12.247  18.442  12.242
25882W        W92291  14.148  41.021   1.754
25883W        W92292  41.305  41.371   1.411
25884W        W92293  30.286  14.126   2.206
25885W        W92294  35.046  23.004   3.103
25886W        W92295   5.977   9.691  12.380
25887W        W92296   0.869  28.171  11.930
25888W        W92297  19.895  29.367  13.079
25889W        W92298  28.727  36.090  10.963
25890W        W92299   1.842   3.674   2.923
25891W        W92300   9.211  36.484  14.078
25892W        W92301   6.335  16.974  11.724
25893W        W92302   8.435  42.725  11.156
25894W        W92303  17.987  28.638   0.344
25895W        W92304  10.881  39.792  14.966
25896W        W92305  33.502  35.413  12.353
25897W        W92306  38.392   3.397  13.846
25898W        W92307  27.110  41.667  10.362
25899W        W92308  26.489  40.816  13.110
25900W        W92309   0.768   5.327  10.780
25901W        W92310   9.680   2.637  14.061
25902W        W92311  38.103  26.522  13.081
25903W        W92312   8.793   9.315  14.485
25904W        W92313  23.673  14.847  14.687
25905W        W92314   3.766  11.408   0.281
25906W        W92315  43.555  43.247   3.584
25907W        W92316  25.143  17.337   0.899
25908W        W92317   1.644  16.365  12.115
25909W        W92318  12.945  25.538  10.416
25910W        W92319  11.733  14.900   2.292
25911W        W92320   4.613  41.876  10.669
25912W        W92321  43.449  11.409   2.621
25913W        W92322  44.482  31.390   1.971
25914W        W92323  43.122  39.444   4.591
25915W        W92324  38.457  32.604   0.324
25916W        W92325  18.806  31.651   0.710
25917W        W92326  42.609   8.785   2.836
25918W        W92327  37.381  41.576   2.291
25919W        W92328   2.500  26.272  12.034
25920W        W92329   1.670  26.227  11.224
25921W        W92330  16.557  29.181  13.922
25922W        W92331   5.244   7.678  12.534
25923W        W92332  24.020  42.550   1.242
25924W        W92333  11.325  26.652  14.738
25925W        W92334  40.011   1.952  12.516
25926W        W92335   7.734  32.526  12.286
25927W        W92336   2.963  32.067   3.631
25928W        W92337   8.723   3.170   1.195
25929W        W92338   4.152  15.398   3.789
25930W        W92339  19.805   2.778   2.331
25931W        W92340  36.772  13.203   4.589
25932W        W92341  32.833  11.127  12.483
25933W        W92342  19.303  24.259   2.109
25934W        W92343   3.949  40.416  12.127
25935W        W92344   8.345  19.427   0.480
25936W        W92345  12.523  44.043  13.068
25937W        W92346  39.986  40.812  13.324
25938W        W92347  12.746  15.328   1.859
25939W        W92348  23.506  21.964   0.375
25940W        W92349  29.864  12.343   0.308
25941W        W92350  28.073  21.461   4.192
25942W        W92351  35.047  20.613   0.704
25943W        W92352  43.219  38.664  12.439
25944W        W92353   8.384  32.968  13.807
25945W        W92354  40.744  28.002  13.487
25946W        W92355  34.513  37.436   0.912
25947W        W92356  15.799  25.134   0.902
25948W        W92357  18.073  31.661  13.930
25949W        W92358  27.142  13.110  14.814
25950W        W92359  42.710  13.717   0.961
25951W        W92360   2.843  42.985   0.017
25952W        W92361  21.924  42.434   1.754
25953W        W92362  39.320   6.254   4.120
25954W        W92363  11.725   5.095  10.066
25955W        W92364   2.413  30.388  14.018
25956W        W92365  19.565  33.444  11.482
25957W        W92366   3.388  27.091   4.852
25958W        W92367  38.552  10.344   1.807
25959W        W92368  28.547  24.168   3.125
25960W        W92369   9.681  19.977  11.970
25961W        W92370  27.015  16.335   4.116
25962W        W92371  10.098  18.944   0.729
25963W        W92372   5.181  42.754  13.464
25964W        W92373   0.006  17.289   1.839
25965W        W92374  14.074  14.395   1.836
25966W        W92375  13.054  34.138  11.862
25967W        W92376   8.692  30.942   2.358
25968W        W92377   5.821  35.511  14.943
25969W        W92378   6.378  30.873   0.624
25970W        W92379  32.425   5.711   3.690
25971W        W92380  42.319  35.112  14.778
25972W        W92381   1.835  13.503  14.432
25973W        W92382   8.397  24.528  12.530
25974W        W92383   2.513  43.804  11.614
25975W        W92384  22.034  14.161   1.772
25976W        W92385   6.903  19.063   4.636
25977W        W92386  44.891  16.000  14.469
25978W        W92387   6.863   8.612   3.177
25979W        W92388   5.686  35.490   0.843
25980W        W92389  31.201   0.831   3.192
25981W        W92390  10.115   2.880  14.246
25982W        W92391  27.558  15.874  11.405
25983W        W92392  38.401   9.702  11.549
25984W        W92393  14.282  35.273   2.315
25985W        W92394  11.878   6.389  13.048
25986W        W92395  14.821  44.921   2.810
25987W        W92396   4.273  38.340  12.550
25988W        W92397  36.632  15.678   4.067
25989W        W92398  35.281  32.217  10.205
25990W        W92399  39.508   1.304   1.947
25991W        W92400  19.402  35.888   4.085
25992W        W92401  38.535  15.702  10.210
25993W        W92402  35.056  39.445   4.151
25994W        W92403   2.394  41.477   2.697
25995W        W92404   1.996  17.310  11.033
25996W        W92405  33.669  20.053   2.541
25997W        W92406  25.877   3.579  12.748
25998W        W92407  41.458  43.197  14.357
25999W        W92408  17.714  39.045   4.077
26000W        W92409  36.858  23.134   1.299
26001W        W92410  34.559  33.606  12.817
26002W        W92411  41.947   5.502   0.238
26003W        W92412  21.955  41.839  13.743
26004W        W92413  15.552  29.617  14.012
26005W        W92414  17.043  36.442   3.263
26006W        W92415  11.844  41.866   3.778
26007W        W92416  21.688  37.362  14.785
26008W        W92417  38.840  16.250   9.673
26009W        W92418   9.014  39.561  12.313
26010W        W92419  28.230  19.733  12.505
26011W        W92420  22.062  27.615  11.892
26012W        W92421  20.534   9.740   4.266
26013W        W92422  35.676  34.375   3.860
26014W        W92423  23.170  18.753  12.100
26015W        W92424  20.695  32.872  14.212
26016W        W92425  33.644  44.377   2.831
26017W        W92426   5.672  44.326  13.652
26018W        W92427  12.461  38.094   9.920
26019W        W92428  42.364  19.787  12.928
26020W        W92429   6.650   3.764   0.229
26021W        W92430   8.651   1.296   4.897
26022W        W92431   1.444  28.686   1.733
26023W        W92432  10.027  27.663  13.557
26024W        W92433  24.211  30.976   4.176
26025W        W92434   6.780  12.800   4.305
26026W        W92435  22.324  14.600   9.978
26027W        W92436   2.470  19.103  10.614
26028W        W92437  43.258   7.800   3.626
26029W        W92438  35.941  13.532  11.050
26030W        W92439   5.944  23.533  12.904
26031W        W92440  27.842  15.988  13.736
26032W        W92441  42.267  41.181   4.130
26033W        W92442  38.343   6.622  12.599
26034W        W92443  23.607  15.526   2.369
26035W        W92444   9.130  17.680  11.492
26036W        W92445  32.112   8.946   2.290
26037W        W92446  37.610  12.216   1.263
26038W        W92447  29.669  15.619  12.605
26039W        W92448  41.687  42.763  13.408
26040W        W92449  24.619  42.341   0.754
26041W        W92450  31.569  38.224  12.689
26042W        W92451   9.122   6.441  14.822
26043W        W92452  25.927  31.786   2.785
26044W        W92453  33.262  15.391  12.787
26045W        W92454  22.682  41.915   3.311
26046W        W92455  21.176  19.449   0.886
26047W        W92456  17.821   0.420  13.567
26048W        W92457   1.471  41.482  11.144
26049W        W92458   9.147  19.758   0.347
26050W        W92459  33.078  32.613   4.698
26051W        W92460   3.637  43.453   2.851
26052W        W92461  33.969   6.487   0.835
26053W        W92462   3.923  14.448   0.008
26054W        W92463  18.021  14.350  11.640
26055W        W92464  41.117  32.934  13.239
26056W        W92465  39.101  16.419   3.339
26057W        W92466  25.047  18.342  13.883
26058W        W92467  43.489   2.580  11.597
26059W        W92468  40.329  38.929  14.078
26060W        W92469  19.353  17.019  12.617
26061W        W92470  36.330  34.545   4.341
26062W        W92471  40.868  20.850   2.380
26063W        W92472  42.744  34.426   2.335
26064W        W92473  21.277  13.676  13.621
26065W        W92474  42.384  27.577   2.535
26066W        W92475  20.972  36.376  11.937
26067W        W92476  18.490  16.826  10.574
26068W        W92477  42.976  22.748  12.570
26069W        W92478  11.108  30.657   0.949
26070W        W92479  37.951  31.024   3.635
26071W        W92480  10.864  40.480  13.853
26072W        W92481  32.765  27.690   0.780
26073W        W92482  32.720  31.692  10.851
26074W        W92483  42.768  43.430   0.339
26075W        W92484   3.152   8.435   3.664
26076W        W92485  36.220  16.727   5.148
26077W        W92486  28.508   6.954   2.697
26078W        W92487  34.848  42.081  13.464
26079W        W92488  35.873  22.769   0.691
26080W        W92489  34.363  34.416   3.180
26081W        W92490  33.904  28.527   3.288
26082W        W92491  33.380  14.019  10.920
26083W        W92492  18.570  20.255   3.138
26084W        W92493  43.550  43.409  12.447
26085W        W92494  44.605  29.161   4.501
26086W        W92495  25.427   0.849  11.406
26087W        W92496  14.149   5.934   0.811
26088W        W92497  36.311  22.625   3.897
26089W        W92498  21.094  12.116  12.474
26090W        W92499  18.226  20.040  10.209
26091W        W92500  39.497  30.476  10.929
26092W        W92501  32.527  28.093  13.401
26093W        W92502  12.368  20.053  13.757
26094W        W92503  28.160  43.295   0.320
26095W        W92504   6.996   6.735   0.034
26096W        W92505  23.616  13.208  11.548
26097W        W92506  19.609  19.284   3.265
26098W        W92507  12.504  18.722  14.002
26099W        W92508  22.660  35.889  11.609
26100W        W92509  25.462  29.173  14.427
26101W        W92510  20.478   7.245   3.584
26102W        W92511  10.572  16.849   3.634
26103W        W92512  36.469   1.445  12.470
26104W        W92513  39.018   7.322  11.884
26105W        W92514  22.220  20.102   2.115
26106W        W92515  25.664  10.169  12.967
26107W        W92516  42.639  22.483   3.676
26108W        W92517  35.062  26.119  13.690
26109W        W92518  32.215  28.729   0.278
26110W        W92519  28.197  16.487   3.695
26111W        W92520  36.601  43.942  13.507
26112W        W92521  29.654   3.257   3.225
26113W        W92522  40.122   8.387  10.226
26114W        W92523  19.125  36.538  12.886
26115W        W92524  24.019  41.085   3.250
26116W        W92525  12.100  12.255   4.129
26117W        W92526  20.336   2.800   2.360
26118W        W92527  30.917  23.966   4.634
26119W        W92528  33.981  19.762   1.205
26120W        W92529   5.459  16.764  11.250
26121W        W92530   4.230  26.220  14.716
26122W        W92531  14.386  28.803  12.932
26123W        W92532  28.609  32.132  14.270
26124W        W92533  42.150   8.195  10.253
26125W        W92534  22.691  13.703  11.529
26126W        W92535  36.646  26.746  14.393
26127W        W92536  17.284   4.688  11.179
26128W        W92537  25.767  27.498  14.492
26129W        W92538  33.490  19.729   1.319
26130W        W92539  28.571   4.483   3.414
26131W        W92540   2.354  10.943  11.125
26132W        W92541  23.037  10.013  11.934
26133W        W92542  36.371  20.126  11.966
26134W        W92543  20.729  29.861   3.615
26135W        W92544  44.380   7.681   3.241
26136W        W92545   4.764  33.829   4.572
26137W        W92546   1.877  38.825   1.777
26138W        W92547  41.925   6.231   3.345
26139W        W92548  33.037  43.206   1.348
26140W        W92549  44.203  14.902  14.392
26141W        W92550  39.496   9.951  12.275
26142W        W92551  31.565   5.703  10.480
26143W        W92552  29.636  28.806  14.053
26144W        W92553  24.195  32.212   3.723
26145W        W92554  30.385  24.614  10.740
26146W        W92555  27.921  43.643   2.201
26147W        W92556  20.500  11.236   2.640
26148W        W92557  33.528  23.654   2.910
26149W        W92558  14.311  32.642   0.262
26150W        W92559   1.302  31.140   4.435
26151W        W92560  43.363   4.728  14.734
26152W        W92561  14.390  20.024   2.568
26153W        W92562  23.307  38.013   1.430
26154W        W92563  27.219  38.879  11.942
26155W        W92564  30.403  14.786   1.895
26156W        W92565   2.267  20.205  11.968
26157W        W92566   4.102  13.644   0.252
26158W        W92567  20.022   7.401  14.925
26159W        W92568  18.644  41.341  13.426
26160W        W92569  36.331  44.375  11.223
26161W        W92570  30.938  12.851  13.939
26162W        W92571  41.049  40.102   1.350
26163W        W92572  43.965  31.505  11.357
26164W        W92573  32.256  12.563  13.409
26165W        W92574   5.189  21.321   1.236
26166W        W92575  17.764  20.751   4.647
26167W        W92576  31.588  38.304   2.917
26168W        W92577  26.794  18.959   0.650
26169W        W92578   7.222   8.385   2.314
26170W        W92579  41.875  25.035  13.859
26171W        W92580  35.107  17.855   2.360
26172W        W92581  37.040  44.456  11.148
26173W        W92582  15.691  42.111  12.157
26174W        W92583  39.319  21.504  14.060
26175W        W92584  35.049  44.401  14.249
26176W        W92585   4.877  12.339  11.188
26177W        W92586   1.928   2.864  13.363
26178W        W92587   7.175   4.714  11.559
26179W        W92588  34.846   0.413   0.296
26180W        W92589  30.307  32.746  14.970
26181W        W92590  30.454  32.982   4.156
26182W        W92591  33.315  13.967   4.124
26183W        W92592   0.880   0.721  12.565
26184W        W92593  23.612   3.941  11.484
26185W        W92594  44.076   7.664   2.218
26186W        W92595   8.302  32.842   5.422
26187W        W92596   6.861  21.633  10.927
26188W        W92597  14.856  28.148   1.739
26189W        W92598  41.995   5.248  12.814
26190W        W92599  20.205  10.297   1.451
26191W        W92600  41.108  31.798  13.943
26192W        W92601  27.125  17.088  11.138
26193W        W92602  37.104  28.466  11.967
26194W        W92603  29.461  18.741   2.592
26195W        W92604  36.474  40.435  11.729
26196W        W92605  19.278  44.512  14.535
26197W        W92606  24.035  40.561   3.460
26198W        W92607  22.062  35.334   3.821
26199W        W92608   3.044  37.328   0.380
26200W        W92609  16.206  42.053   2.826
26201W        W92610   1.803   2.366   0.657
26202W        W92611  23.573  15.637  11.370
26203W        W92612  34.996  12.074   4.132
26204W        W92613  28.834  31.365  11.415
26205W        W92614  33.936   4.256   0.859
26206W        W92615  25.352  27.094  12.431
26207W        W92616  35.757   6.851   4.526
26208W        W92617  40.252  39.589   2.346
26209W        W92618   2.329  23.441   3.575
26210W        W92619  28.397   9.726   0.349
26211W        W92620   5.215  38.174  11.416
26212W        W92621  23.910  18.584  12.386
26213W        W92622  34.203  37.937   0.695
26214W        W92623  37.660   3.852  13.298
26215W        W92624  25.106  38.778  11.380
26216W        W92625  37.440   4.351   4.573
26217W        W92626   1.753  42.523  11.977
26218W        W92627   3.217  29.637  11.252
26219W        W92628  25.572  24.801   0.034
26220W        W92629  36.187  29.118  11.821
26221W        W92630  12.575  25.113  12.167
26222W        W92631  14.746  43.760   1.836
26223W        W92632  32.857  27.557  12.227
26224W        W92633  19.498  19.285  11.523
26225W        W92634  26.890  13.746  13.424
26226W        W92635  36.556  15.540   1.602
26227W        W92636   5.207   0.924   0.726
26228W        W92637  12.232  31.030   1.521
26229W        W92638  32.582  44.374  10.544
26230W        W92639  31.413  21.595   1.233
26231W        W92640  31.986  17.737   0.809
26232W        W92641  16.507   7.167   2.226
26233W        W92642   9.912  10.042   0.292
26234W        W92643  29.121   4.868  12.590
26235W        W92644   8.660   2.419   1.897
26236W        W92645   0.056  10.577   1.928
26237W        W92646  16.428  10.775   2.118
26238W        W92647  43.198  26.611   1.899
26239W        W92648  17.895  39.941   4.112
26240W        W92649   7.380  14.117   1.152
26241W        W92650  31.087  38.860   3.959
26242W        W92651  40.632  41.879  10.780
26243W        W92652   6.755  14.318   3.080
26244W        W92653   9.968  29.042   0.296
26245W        W92654   7.404   6.061   3.134
26246W        W92655  19.536   3.443   3.130
26247W        W92656  35.413  23.253  13.609
26248W        W92657  22.523   6.196  13.017
26249W        W92658   3.892   4.590   0.620
26250W        W92659  30.062  42.310  12.441
26251W        W92660  11.772  38.630   4.959
26252W        W92661  23.375  43.763   0.352
26253W        W92662  16.079  35.838   1.315
26254W        W92663   9.216  13.608   1.924
26255W        W92664  16.931  27.756   4.693
26256W        W92665  39.524  15.084   5.587
26257W        W92666  15.311  19.171   0.807
26258W        W92667  14.195  14.701   5.169
26259W        W92668  38.465  26.773   2.849
26260W        W92669   1.878  15.686  10.714
26261W        W92670  39.001  10.871   0.119
26262W        W92671  43.869  38.681  10.378
26263W        W92672  13.806   3.791  10.549
26264W        W92673  13.571  18.600  12.612
26265W        W92674  36.141   2.344   0.082
26266W        W92675   4.316  21.505   2.238
26267W        W92676  22.993   1.796  11.351
26268W        W92677  32.449  28.182  11.471
26269W        W92678   5.782  14.221  12.021
26270W        W92679  27.505   4.692   2.699
26271W        W92680  41.874  35.572  11.059
26272W        W92681  38.961  13.531  13.415
26273W        W92682  12.193   6.647  10.576
26274W        W92683  10.822  35.943   0.402
26275W        W92684  44.335  16.646  14.916
26276W        W92685  34.955  35.464  13.857
26277W        W92686  42.049  31.691   4.627
26278W        W92687  39.379  38.689   4.902
26279W        W92688  37.323   7.317  14.452
26280W        W92689  17.021   7.466   3.193
26281W        W92690  18.793  34.488   0.845
26282W        W92691   7.924  25.182   0.229
26283W        W92692  33.018  15.350   4.376
26284W        W92693  22.635   5.965   4.570
26285W        W92694   9.240  28.470  12.787
26286W        W92695  38.447  15.572  14.000
26287W        W92696  40.168  42.990  14.676
26288W        W92697  29.981  29.904  10.607
26289W        W92698  16.174  28.530   4.223
26290W        W92699   0.161  30.908  10.841
26291W        W92700  24.978  21.011   4.494
26292W        W92701  35.024  22.313  13.420
26293W        W92702  31.283  28.059   0.096
26294W        W92703  19.664  36.216  11.780
26295W        W92704  28.708   7.225   0.240
26296W        W92705  32.044  42.947   1.443
26297W        W92706  39.714  12.881  10.810
26298W        W92707   0.976   9.134   5.495
26299W        W92708  10.654  36.873   1.397
26300W        W92709  30.377  36.749  12.883
26301W        W92710  30.545  42.341  13.012
26302W        W92711   1.708  10.216  14.772
26303W        W92712  19.236  23.943  10.870
26304W        W92713  33.571  18.275   2.866
26305W        W92714   6.154  17.315  13.821
26306W        W92715  38.918  40.496   0.024
26307W        W92716  41.096  35.679   0.955
26308W        W92717   8.723  23.274   4.762
26309W        W92718  31.182  24.955  10.076
26310W        W92719   7.671  24.286   2.255
26311W        W92720   0.492  19.551  12.021
26312W        W92721  43.003  17.045  10.585
26313W        W92722  44.535  21.095  11.267
26314W        W92723  27.980   8.457   3.826
26315W        W92724  40.482  33.605  12.184
26316W        W92725  18.088  10.160  12.162
26317W        W92726  27.963  28.068  11.571
26318W        W92727  27.131   5.709   4.103
26319W        W92728   4.997  29.720  10.399
26320W        W92729  37.470   9.145  10.759
26321W        W92730  15.719  40.274  14.236
26322W        W92731  42.007  30.609   4.647
26323W        W92732   0.345  44.677  11.467
26324W        W92733   0.830  10.356  14.909
26325W        W92734  25.617  10.369   1.522
26326W        W92735  42.280   3.177  11.202
26327W        W92736  11.300  39.348   4.554
26328W        W92737  41.948  12.169   1.256
26329W        W92738  27.516  24.529   0.834
26330W        W92739   0.286   6.121   4.500
26331W        W92740  37.057  13.735   3.697
26332W        W92741  42.606  34.638  12.908
26333W        W92742  40.354  15.303  13.298
26334W        W92743  38.108  38.997  11.417
26335W        W92744  38.265  12.930   1.396
26336W        W92745  30.608  11.223  10.736
26337W        W92746   3.891  18.366   4.468
26338W        W92747  31.610  32.417   3.681
26339W        W92748  30.427  37.932   1.294
26340W        W92749  30.866  27.403  11.084
26341W        W92750   1.570  10.263   4.311
26342W        W92751  41.771  23.213   0.479
26343W        W92752  25.955  29.600  12.746
26344W        W92753  18.022  17.112  14.908
26345W        W92754  38.927  27.982  12.549
26346W        W92755  40.977   0.767   4.540
26347W        W92756  15.324   7.747  12.031
26348W        W92757  19.593  38.253   2.751
26349W        W92758  44.518   9.706  12.000
26350W        W92759   9.442  41.694  11.645
26351W        W92760  38.785  35.322   0.893
26352W        W92761  21.472  38.899  12.127
26353W        W92762  43.141  18.975   1.361
26354W        W92763  21.916   9.764   4.829
26355W        W92764  31.431   0.370   2.566
26356W        W92765  27.248  27.197   0.890
26357W        W92766   7.935  39.888  10.727
26358W        W92767  31.105   4.785   2.691
26359W        W92768  11.280   6.060  11.079
26360W        W92769  27.199  28.049   3.445
26361W        W92770  39.413  20.184   1.315
26362W        W92771  23.989  41.955  13.879
26363W        W92772  41.470   1.479  11.627
26364W        W92773   5.225   3.633   2.293
26365W        W92774  13.991   4.795  13.441
26366W        W92775  36.023  23.304   2.427
26367W        W92776  17.236  31.857  13.618
26368W        W92777  21.742  42.794   0.048
26369W        W92778  35.447  43.253   0.362
26370W        W92779  15.451  26.173   1.593
26371W        W92780  31.172  20.319  10.740
26372W        W92781  36.018  17.630  12.377
26373W        W92782  22.785  27.542   3.920
26374W        W92783  38.022  36.918   1.594
26375W        W92784  39.975  38.859   3.494
26376W        W92785  33.120  18.176  11.550
26377W        W92786  19.770   0.969   3.720
26378W        W92787   4.725   7.460  10.978
26379W        W92788  12.896   7.133   1.022
26380W        W92789  17.185   8.307  11.770
26381W        W92790  18.097  19.489   1.248
26382W        W92791  28.539  23.011  10.076
26383W        W92792  15.615  24.092  13.276
26384W        W92793   5.509  36.578  11.857
26385W        W92794  15.764   5.290  11.985
26386W        W92795  31.123   2.448  11.637
26387W        W92796  40.416   6.883  11.873
26388W        W92797  14.716  20.364   2.322
26389W        W92798  37.857   7.246   3.645
26390W        W92799  15.821  34.387  13.050
26391W        W92800  15.235  27.935   2.917
26392W        W92801  41.233  27.511   0.021
26393W        W92802  16.961  37.984   1.228
26394W        W92803  24.689  23.992   4.518
26395W        W92804  29.639  43.735   3.614
26396W        W92805  41.031  18.857   1.550
26397W        W92806   7.127  44.237  13.556
26398W        W92807   4.787   4.430  11.436
26399W        W92808   0.691  28.502   2.919
26400W        W92809   4.469   4.559  10.673
26401W        W92810  27.502  40.341   4.052
26402W        W92811   7.078  14.313  14.487
26403W        W92812  15.410  20.229   0.465
26404W        W92813  22.013  24.572   0.856
26405W        W92814   3.214   8.945   3.802
26406W        W92815  20.731  31.309   4.075
26407W        W92816  21.608  36.977  11.071
26408W        W92817  42.747  32.556   3.219
26409W        W92818  38.570  31.878   4.987
26410W        W92819  23.078   7.637  13.465
26411W        W92820   4.773  44.535  11.688
26412W        W92821  24.017   4.196   0.508
26413W        W92822   4.966   0.976  14.967
26414W        W92823  14.325  21.261  13.886
26415W        W92824  20.695  15.996  12.089
26416W        W92825  23.162  44.872   4.657
26417W        W92826  34.068  30.994  14.198
26418W        W92827  10.777   6.375   3.838
26419W        W92828  34.414   8.271  10.616
26420W        W92829  42.376  17.390   0.046
26421W        W92830  13.503  11.126   2.186
26422W        W92831  35.354  14.175   0.997
26423W        W92832   0.257  29.380   1.091
26424W        W92833  15.758   3.227  11.724
26425W        W92834  34.637  18.753   1.396
26426W        W92835  43.020  19.375  14.286
26427W        W92836   0.955  10.934  13.479
26428W        W92837  25.757  31.446  12.781
26429W        W92838  12.397  19.321   0.406
26430W        W92839  10.769  21.297  12.088
26431W        W92840  37.005  26.989  11.672
26432W        W92841   9.844  29.984  14.277
26433W        W92842   8.874   4.476  14.347
26434W        W92843   5.407   8.324  12.627
26435W        W92844  22.676  38.520  12.477
26436W        W92845  28.417  19.990  13.497
26437W        W92846  25.195  25.196  12.454
26438W        W92847  23.075   4.623   4.420
26439W        W92848  17.118  21.145   1.699
26440W        W92849   1.463  29.183   1.059
26441W        W92850   1.121  30.493  12.280
26442W        W92851  41.440  44.173  14.464
26443W        W92852  37.890  19.336  14.125
26444W        W92853  35.868   1.951  12.872
26445W        W92854  33.487  42.808   2.188
26446W        W92855  39.527  15.256   4.153
26447W        W92856  11.833  32.480  14.961
26448W        W92857  23.488   1.697  11.432
26449W        W92858  37.483  19.684  14.112
26450W        W92859  12.688  31.604  14.815
26451W        W92860  30.240   8.186  14.291
26452W        W92861  21.146   9.440   2.341
26453W        W92862  10.665  25.551  13.069
26454W        W92863  13.321  35.655  12.410
26455W        W92864  16.550  21.037  13.797
26456W        W92865  34.234  18.014   4.009
26457W        W92866   0.503  31.918  12.945
26458W        W92867  41.359  40.066   2.779
26459W        W92868  14.953  34.360   3.999
26460W        W92869  24.129  40.954   3.763
26461W        W92870  33.291  37.726  12.928
26462W        W92871  37.494  33.461  13.456
26463W        W92872   0.221  21.149  13.582
26464W        W92873  39.317   8.349   2.781
26465W        W92874  16.093  30.908  13.473
26466W        W92875  23.939   5.457  10.743
26467W        W92876  25.730  22.292  13.556
26468W        W92877  34.965  18.288   4.075
26469W        W92878  23.552  12.644  10.659
26470W        W92879  28.528   9.237   2.848
26471W        W92880  26.563  33.251   2.298
26472W        W92881  11.790  19.385  13.063
26473W        W92882  23.518   1.125  12.081
26474W        W92883   7.916   0.334  12.454
26475W        W92884  28.754   8.335   2.135
26476W        W92885  19.816  18.135   1.336
26477W        W92886  30.359  35.560  12.961
26478W        W92887   3.235  39.305  12.405
26479W        W92888  40.927   5.385  13.793
26480W        W92889  22.242   1.136   1.258
26481W        W92890  14.137  31.345  12.094
26482W        W92891   0.893  43.452   4.833
26483W        W92892  37.346  29.948   3.574
26484W        W92893  29.034  21.444  12.608
26485W        W92894  31.424   6.326   2.381
26486W        W92895  21.780   8.263  14.046
26487W        W92896  25.154  26.051  10.730
26488W        W92897  43.528  20.048  12.589
26489W        W92898  34.084  13.642   1.114
26490W        W92899  28.568  41.246   1.307
26491W        W92900  29.139  27.579   0.216
26492W        W92901  18.198  44.223   1.802
26493W        W92902  33.559  25.745  10.982
26494W        W92903  13.702  19.307  11.940
26495W        W92904  34.529  12.097  10.617
26496W        W92905  32.177  16.131  11.294
26497W        W92906   5.363  14.211   4.552
26498W        W92907  22.962  40.172   2.636
26499W        W92908  27.494  26.326   3.069
26500W        W92909  29.476  10.817   1.382
26501W        W92910   8.852  38.343   3.660
26502W        W92911  20.544  12.172  12.445
26503W        W92912  21.271  19.390  14.308
26504W        W92913  11.302  24.598   1.477
26505W        W92914   7.367  14.555  12.094
26506W        W92915  28.846  36.722  13.737
26507W        W92916  31.325   4.261   1.936
26508W        W92917  44.396  15.004   4.836
26509W        W92918  21.357  23.136   4.228
26510W        W92919  14.951  23.665  12.415
26511W        W92920  44.247  18.251   2.837
26512W        W92921  40.870  17.026  11.707
26513W        W92922  39.136  34.703  13.602
26514W        W92923   2.874  11.486   3.668
26515W        W92924  40.753   7.233   4.396
26516W        W92925  21.455   4.306   0.348
26517W        W92926  28.474  31.382  12.104
26518W        W92927  12.690  36.473   2.055
26519W        W92928  17.781  25.676  11.911
26520W        W92929  11.161  18.085  13.403
26521W        W92930   2.521  35.074   0.224
26522W        W92931  12.987  23.306   1.762
26523W        W92932  43.864  44.731  11.538
26524W        W92933  33.139  27.579  12.683
26525W        W92934   0.232  12.080  10.716
26526W        W92935  25.506  19.614  13.297
26527W        W92936  21.498  16.799  14.314
26528W        W92937   6.416  41.928   2.433
26529W        W92938   0.874  19.986   3.387
26530W        W92939  41.450  12.910  14.523
26531W        W92940   6.641  38.415   1.392
26532W        W92941  24.175  42.390  12.094
26533W        W92942  44.284   2.497  13.194
26534W        W92943  40.055  40.321   1.347
26535W        W92944   0.160   4.219  14.082
26536W        W92945  12.364  44.761  11.152
26537W        W92946  29.225   3.237  12.073
26538W        W92947  40.555   8.371   4.411
26539W        W92948   7.249  22.263  14.296
26540W        W92949  38.808  36.026   3.637
26541W        W92950  37.764  30.580  13.734
26542W        W92951   5.466  31.059  12.190
26543W        W92952  23.085  34.093  11.544
26544W        W92953  39.161  22.188   1.789
26545W        W92954  36.548   1.146  13.811
26546W        W92955   0.610  15.616   0.524
26547W        W92956  18.382   2.294  11.011
26548W        W92957  12.501  29.060   0.302
26549W        W92958  14.505  20.056   4.937
26550W        W92959  23.666  31.025   0.315
26551W        W92960   7.139   6.055   0.368
26552W        W92961  18.908   7.683  11.150
26553W        W92962  35.965   2.443  10.869
26554W        W92963  32.039  44.171  11.997
26555W        W92964  22.478   5.834  14.399
26556W        W92965   7.166  16.756   0.298
26557W        W92966  30.083  23.925   3.943
26558W        W92967  27.896   7.003   1.190
26559W        W92968  11.742   0.057  14.812
26560W        W92969  12.581  12.369   4.321
26561W        W92970  13.760  32.832   1.018
26562W        W92971   4.338  20.704   0.177
26563W        W92972  23.626  30.973   1.176
26564W        W92973   2.707  15.640   3.241
26565W        W92974  38.955  36.036  13.263
26566W        W92975  25.074   9.694  11.154
26567W        W92976  39.608  23.975  10.729
26568W        W92977  23.181  32.378   3.182
26569W        W92978  41.555  40.292  14.854
26570W        W92979  24.249   0.975  12.348
26571W        W92980  36.899  43.431   1.964
26572W        W92981   5.216  30.684  11.970
26573W        W92982  21.207  23.007   3.754
26574W        W92983  21.991  15.360  14.936
26575W        W92984   4.173  20.201   1.422
26576W        W92985  18.040  21.858   0.234
26577W        W92986  25.589  41.968  11.675
26578W        W92987  19.010  14.858  11.485
26579W        W92988  31.152  21.351   4.471
26580W        W92989   5.330  18.916  14.694
26581W        W92990  22.173  33.087  14.940
26582W        W92991   9.190  19.237   0.586
26583W        W92992  16.292  27.126   2.623
26584W        W92993  35.733  42.441  13.497
26585W        W92994   2.809  14.759   3.918
26586W        W92995  17.293  28.533   1.596
26587W        W92996  31.513  23.937  12.138
26588W        W92997  15.350  35.589  11.823
26589W        W92998  33.449  38.701   5.045
26590W        W92999  43.904   7.374   0.007
26591W        W93000  30.661  13.050  12.534
26592W        W93001  41.567  20.812  14.883
26593W        W93002  35.593  14.089   1.902
26594W        W93003  40.222  19.506  13.725
26595W        W93004  23.473  11.276  14.387
26596W        W93005  34.193  40.741  12.042
26597W        W93006  43.947  22.860   1.927
26598W        W93007  16.713  37.812  13.948
26599W        W93008  39.275  10.347  12.943
26600W        W93009   5.225   1.413   4.538
26601W        W93010  34.922  36.419  11.476
26602W        W93011  22.584   8.603   0.668
26603W        W93012  33.593  29.162  10.668
26604W        W93013  41.792  26.752  11.148
26605W        W93014  43.753  23.022   4.884
26606W        W93015  37.408  44.813   1.714
26607W        W93016  26.135   9.876   1.022
26608W        W93017  35.904  31.160   4.097
26609W        W93018  27.442  23.123  10.683
26610W        W93019  39.323  32.688   1.352
26611W        W93020  17.786  25.145  11.618
26612W        W93021  12.147  38.351   1.680
26613W        W93022  38.576  21.205  11.221
26614W        W93023   1.096  14.138   3.544
26615W        W93024  35.785  27.497   0.398
26616W        W93025  30.917  13.747  11.008
26617W        W93026  27.485  27.029   1.730
26618W        W93027  34.141   7.307   2.421
26619W        W93028  30.056  41.495   2.729
26620W        W93029  21.535  40.516  13.781
26621W        W93030   4.884  26.851  12.472
26622W        W93031   5.483  20.237   3.148
26623W        W93032  17.525  38.320  11.962
26624W        W93033  22.843  30.505   4.588
26625W        W93034  14.792   0.888  13.931
26626W        W93035  11.486  16.649  13.358
26627W        W93036   1.988  10.750  11.914
26628W        W93037  12.932  36.449  14.940
26629W        W93038   0.485  32.607   2.890
26630W        W93039  14.230  30.323  12.115
26631W        W93040  41.886   3.808  10.741
26632W        W93041  27.011  10.246  14.128
26633W        W93042  42.450  37.631   2.212
26634W        W93043  44.028  22.555  12.032
26635W        W93044  29.711  10.868   2.797
26636W        W93045  32.854  29.907   2.176
26637W        W93046  27.984   3.301   1.877
26638W        W93047  38.827  26.020   4.272
26639W        W93048  28.426  20.969  13.421
26640W        W93049   5.114  36.263  10.564
26641W        W93050  36.060  24.037   0.822
26642W        W93051  42.984   7.296  10.791
26643W        W93052  21.576  16.529  11.071
26644W        W93053  10.449   7.710  11.619
26645W        W93054   7.784  42.599   2.326
26646W        W93055  24.127  21.755   1.217
26647W        W93056  44.303  41.845   1.155
26648W        W93057  41.461  12.630  14.951
26649W        W93058   8.881  42.412   3.225
26650W        W93059  14.820  32.941  13.086
26651W        W93060  24.757  18.059   2.331
26652W        W93061  40.444  31.187   0.239
26653W        W93062  11.707  30.083   1.157
26654W        W93063  32.644   2.446   1.881
26655W        W93064  26.692  18.667   0.228
26656W        W93065   7.554  39.487  14.670
26657W        W93066  27.430   9.158  14.792
26658W        W93067  11.734  28.511   2.115
26659W        W93068   7.234   9.381   2.102
26660W        W93069   2.794   7.659   1.433
26661W        W93070  25.205  33.493   4.552
26662W        W93071  39.490   7.308  12.526
26663W        W93072  39.596  33.368   0.420
26664W        W93073  10.381  12.383   0.747
26665W        W93074   7.405   3.914   3.589
26666W        W93075   4.316  27.100  13.824
26667W        W93076  28.719  15.022  14.973
26668W        W93077  44.798  19.442  13.483
26669W        W93078   1.667  24.635   1.467
26670W        W93079  13.066  16.684  12.035
26671W        W93080  38.213  13.208   3.300
26672W        W93081  30.532  14.398   0.385
26673W        W93082  30.413   7.319   0.847
26674W        W93083  23.099  11.602  11.225
26675W        W93084  32.094  19.284   0.836
26676W        W93085  19.320  15.210  11.123
26677W        W93086   0.919  31.757   4.098
26678W        W93087   9.024  24.930  12.198
26679W        W93088  10.326  18.985   1.707
26680W        W93089   3.866  29.707  12.445
26681W        W93090   9.307  36.321   1.913
26682W        W93091  16.702   5.284  10.881
26683W        W93092  31.044   7.735   3.667
26684W        W93093   8.020  13.788  10.642
26685W        W93094  34.828  18.561   3.668
26686W        W93095  22.785  10.565   3.004
26687W        W93096  13.576  16.170  11.984
26688W        W93097  24.937   8.803   4.296
26689W        W93098  21.937  24.662  12.019
26690W        W93099  39.327  40.181   4.856
26691W        W93100   8.445  18.098   1.210
26692W        W93101  41.480  18.265   4.983
26693W        W93102  40.902  26.953   0.009
26694W        W93103  41.046   1.431  13.077
26695W        W93104   3.217  22.720  10.660
26696W        W93105  12.224  36.056   0.401
26697W        W93106  35.221  21.062   1.491
26698W        W93107  34.606  17.323  11.643
26699W        W93108   4.132  34.419   3.240
26700W        W93109  25.662  43.861  12.178
26701W        W93110   8.785  20.177   4.314
26702W        W93111  37.319  28.008   1.164
26703W        W93112  17.728  38.549  14.658
26704W        W93113  44.621  35.407   2.798
26705W        W93114  23.676  36.376  11.396
26706W        W93115  38.254  24.425  11.618
26707W        W93116   4.752  22.486  13.491
26708W        W93117  13.705  31.934   2.326
26709W        W93118  43.290  12.449   0.265
26710W        W93119  12.737  24.640   0.252
26711W        W93120  31.841  37.925   2.052
26712W        W93121  29.376   2.275  10.342
26713W        W93122  28.475   2.134   4.436
26714W        W93123  39.209  22.134   9.903
26715W        W93124  33.603  12.069  11.993
26716W        W93125  42.301   0.261   3.341
26717W        W93126  25.983  19.235  11.214
26718W        W93127   7.025  37.703  12.383
26719W        W93128  26.559  17.611  11.460
26720W        W93129  36.830  30.208   2.117
26721W        W93130  20.806  33.096  11.140
26722W        W93131  11.674   2.034  12.523
26723W        W93132   0.270  33.340   1.910
26724W        W93133  14.640  30.748   0.384
26725W        W93134   2.898   5.736   0.387
26726W        W93135   8.158   8.895  13.587
26727W        W93136  18.021  39.625  14.359
26728W        W93137  29.585   0.349  13.851
26729W        W93138  13.289  18.424   3.574
26730W        W93139  10.941  13.868  13.061
26731W        W93140  18.654  26.197   0.303
26732W        W93141  25.513  32.540   1.194
26733W        W93142  23.749  42.299   0.409
26734W        W93143  19.045   4.356  11.462
26735W        W93144  40.095  28.596  14.883
26736W        W93145  38.072  14.669   4.068
26737W        W93146   9.008  42.037  14.122
26738W        W93147  13.403  29.042  14.408
26739W        W93148  42.425  26.390   4.073
26740W        W93149  26.035  32.795  13.806
26741W        W93150  24.658   6.270   2.147
26742W        W93151  23.227  13.640  12.290
26743W        W93152  41.947  38.145   3.853
26744W        W93153  34.767  28.260  10.322
26745W        W93154  22.028   3.848  14.809
26746W        W93155  30.103   4.043   2.182
26747W        W93156   8.297   1.381   1.264
26748W        W93157   9.133   4.166  13.978
26749W        W93158   3.033  12.585   1.351
26750W        W93159   0.073  32.542  14.890
26751W        W93160  43.832  14.183   2.339
26752W        W93161  20.887  29.684  12.825
26753W        W93162  18.566   5.658  10.600
26754W        W93163  11.535  42.342  13.189
26755W        W93164  24.432  26.166   0.250
26756W        W93165  16.041  21.413  11.986
26757W        W93166  39.618  15.731  11.503
26758W        W93167   7.304  32.845   5.152
26759W        W93168   8.115  12.191  10.711
26760W        W93169  44.267  14.807   1.764
26761W        W93170  16.991  15.641   3.000
26762W        W93171  37.584   3.345  12.625
26763W        W93172   8.872  41.803  12.491
26764W        W93173  23.949   8.721  12.882
26765W        W93174  31.944  40.274  12.623
26766W        W93175  10.479   4.010  14.724
26767W        W93176  37.336  15.718  13.340
26768W        W93177  17.661   2.741  11.144
26769W        W93178   3.553  39.112   3.197
26770W        W93179   8.453  35.463   2.798
26771W        W93180   0.693  22.179   3.214
26772W        W93181   9.686  41.081  11.188
26773W        W93182  30.426  42.734   3.791
26774W        W93183  16.624  16.280  11.608
26775W        W93184  17.739   6.730  14.822
26776W        W93185   8.304  42.592   4.562
26777W        W93186  15.090  32.255  10.848
26778W        W93187  35.708  30.580  12.911
26779W        W93188   8.781  10.478  13.660
26780W        W93189  21.080   6.466  11.456
26781W        W93190  37.427  27.493   0.304
26782W        W93191   1.997  37.529   3.713
26783W        W93192   9.668  25.582   2.871
26784W        W93193   7.833  22.861  13.864
26785W        W93194  27.195  26.167  12.010
26786W        W93195   9.057  36.479  13.528
26787W        W93196  26.158  27.295   2.370
26788W        W93197  18.188  27.496   0.914
26789W        W93198  38.046  13.777   5.004
26790W        W93199  19.804  29.066  14.358
26791W        W93200  29.882  10.266   4.853
26792W        W93201  43.534   1.444   3.179
26793W        W93202   2.946  15.624   2.783
26794W        W93203  22.281   3.325   1.958
26795W        W93204   2.452  35.783  10.190
26796W        W93205  12.174  19.039  11.255
26797W        W93206  21.660  33.495  12.844
26798W        W93207  24.152  19.332   3.669
26799W        W93208  22.373  33.435   2.631
26800W        W93209  25.211  13.718  14.946
26801W        W93210  34.095  23.410   1.302
26802W        W93211  42.349  17.173   2.253
26803W        W93212   5.897  44.955   3.154
26804W        W93213   7.110  14.147   2.132
26805W        W93214  32.993  43.534   1.774
26806W        W93215  17.646  20.651   1.799
26807W        W93216  30.733  33.195   5.049
26808W        W93217  12.645  27.648  13.561
26809W        W93218  34.059  19.667   0.290
26810W        W93219  15.440  26.443   4.515
26811W        W93220  43.825  20.240  10.370
26812W        W93221   2.019  15.035  14.783
26813W        W93222  15.566  18.928   4.614
26814W        W93223   3.416   6.414  13.286
26815W        W93224  34.418  43.061   4.475
26816W        W93225  23.697   6.206  12.515
26817W        W93226  21.218  19.887  14.161
26818W        W93227  35.766  21.071   5.112
26819W        W93228  25.642  21.580   3.917
26820W        W93229  25.455   7.819   3.745
26821W        W93230   2.763   9.833   1.754
26822W        W93231  29.439  19.794  11.114
26823W        W93232  13.299  11.041   3.934
26824W        W93233  30.172  22.807  12.812
26825W        W93234  33.148  31.587   1.801
26826W        W93235  25.829  20.714  10.349
26827W        W93236  38.896   2.857  14.930
26828W        W93237  41.800  32.121  10.522
26829W        W93238   7.356   6.384  14.849
26830W        W93239  25.754  23.588  11.950
26831W        W93240  31.832  28.221   2.816
26832W        W93241  30.582   8.515   5.080
26833W        W93242  12.406  31.692   2.819
26834W        W93243  38.558  43.557  12.467
26835W        W93244   5.341  16.321   2.808
26836W        W93245   8.689  41.088  12.004
26837W        W93246   7.911   2.717   0.330
26838W        W93247  16.561  17.170  12.427
26839W        W93248  22.482   6.434   4.466
26840W        W93249  11.574   4.360   4.192
26841W        W93250   7.471  16.663  14.887
26842W        W93251   8.286  35.116  14.946
26843W        W93252  20.602   0.900   2.358
26844W        W93253   6.290  16.103  12.980
26845W        W93254  27.795  31.140  14.499
26846W        W93255  16.354  27.495   3.400
26847W        W93256   4.696  14.106   2.465
26848W        W93257  10.104  39.457   2.140
26849W        W93258  41.922  21.487   4.916
26850W        W93259  19.452  13.742   0.843
26851W        W93260   5.309  10.592  11.089
26852W        W93261   0.837   6.101   2.142
26853W        W93262   8.765   7.833   0.529
26854W        W93263  11.368   5.447   2.778
26855W        W93264  37.167   3.311  11.763
26856W        W93265  23.660   8.918  12.020
26857W        W93266  15.141  20.869  12.037
26858W        W93267  27.166  30.474   4.613
26859W        W93268  24.265  31.622  10.762
26860W        W93269  16.069  41.038  13.839
26861W        W93270  29.456  26.825   2.837
26862W        W93271  34.263  25.466  14.987
26863W        W93272  42.978  33.952   2.320
26864W        W93273  11.549  23.849   3.722
26865W        W93274  44.382  43.039  12.483
26866W        W93275   1.284  20.972   1.055
26867W        W93276  43.262  28.665   1.193
26868W        W93277   6.970  12.407   2.185
26869W        W93278   3.380  36.078  12.176
26870W        W93279  24.477  25.731  14.540
26871W        W93280  25.076   8.723  10.992
26872W        W93281  42.983  15.666  14.523
26873W        W93282  33.464  25.888  12.361
26874W        W93283  36.831   5.173  10.621
26875W        W93284  18.569  34.653   1.318
26876W        W93285  27.318  14.220  11.150
26877W        W93286  28.925   6.344  14.219
26878W        W93287  37.432  40.881  13.801
26879W        W93288  18.599  11.961  13.660
26880W        W93289   9.923  25.226  13.342
26881W        W93290  21.579  37.270   1.648
26882W        W93291  16.462  23.924  11.957
26883W        W93292  34.426  43.731   0.740
26884W        W93293   1.438  28.290  12.852
26885W        W93294  27.182  19.162   3.571
26886W        W93295  13.653  19.672   1.753
26887W        W93296  11.311  27.920   1.219
26888W        W93297  38.744  16.043  11.112
26889W        W93298  38.594  37.676  11.447
26890W        W93299  23.544  11.863  11.104
26891W        W93300  11.089  20.891   4.805
26892W        W93301  27.074  20.282  13.650
26893W        W93302   1.026  35.391  10.646
26894W        W93303  36.813   3.852  14.356
26895W        W93304  10.770  24.604   4.432
26896W        W93305   4.456  14.048  11.727
26897W        W93306  22.208  43.598  14.799
26898W        W93307  26.072  43.750  11.748
26899W        W93308  25.553  29.836   2.808
26900W        W93309   2.376  14.564  10.753
26901W        W93310   4.246  32.585  10.556
26902W        W93311  21.982  36.592   0.071
26903W        W93312  27.336   3.515   3.388
26904W        W93313  10.238  33.369   1.857
26905W        W93314   4.992  17.947   1.783
26906W        W93315  20.754  24.445   3.685
26907W        W93316  39.539  16.856  13.642
26908W        W93317  44.987  23.507   3.126
26909W        W93318   4.231  24.978   2.311
26910W        W93319  19.134  18.578   1.709
26911W        W93320  34.640  19.055   3.216
26912W        W93321  13.085  30.152  11.165
26913W        W93322   7.057  27.736   3.729
26914W        W93323  36.251  44.112  14.922
26915W        W93324  34.336  24.900  10.783
26916W        W93325  16.419   8.948   2.807
26917W        W93326  23.557  27.564   4.645
26918W        W93327  26.426   2.962  13.276
26919W        W93328   7.688  33.977   0.788
26920W        W93329  38.143  38.569   3.149
26921W        W93330   0.372  40.601   4.267
26922W        W93331  37.311  22.053  12.712
26923W        W93332   1.942   2.890   3.784
26924W        W93333  31.738  33.943   4.044
26925W        W93334  23.573  23.733   0.874
26926W        W93335   0.995  12.641   0.406
26927W        W93336  35.899  43.428  14.527
26928W        W93337  39.716  15.619   1.380
26929W        W93338  41.126   6.723  13.960
26930W        W93339  41.730  39.385   0.757
26931W        W93340  19.216  42.285  14.289
26932W        W93341  27.797  26.104   1.758
26933W        W93342  15.105   1.824   3.140
26934W        W93343   1.977  13.543  11.538
26935W        W93344  26.959   4.710  10.276
26936W        W93345   2.535  20.596   0.485
26937W        W93346  13.160   4.003   0.094
26938W        W93347  23.148  31.220   2.373
26939W        W93348   9.311  21.068   1.135
26940W        W93349   1.342  33.090  10.640
26941W        W93350  25.646  26.006  10.578
26942W        W93351   4.882  26.425  14.323
26943W        W93352  10.865  15.125   0.354
26944W        W93353   8.702   6.630   4.534
26945W        W93354   3.983   6.124  13.863
26946W        W93355  43.619   7.245  14.309
26947W        W93356  11.671  43.515   3.735
26948W        W93357  21.648   8.791  11.557
26949W        W93358  41.978   1.752  12.895
26950W        W93359  35.578  41.790   2.732
26951W        W93360  15.809  30.381  12.875
26952W        W93361  29.542  18.139  13.748
26953W        W93362   5.082  26.589   3.338
26954W        W93363  35.547  30.422   2.404
26955W        W93364  13.461  33.571   3.293
26956W        W93365  35.431  28.931   0.260
26957W        W93366  24.318  25.994  11.896
26958W        W93367  19.794  10.327   3.532
26959W        W93368  42.095  10.128  13.832
26960W        W93369   5.751  32.629   3.746
26961W        W93370  24.942  11.869   4.088
26962W        W93371   5.553  10.124  14.676
26963W        W93372  14.427  17.982  14.830
26964W        W93373  32.752   7.843   2.725
26965W        W93374  23.196  37.634  14.504
26966W        W93375  34.075  40.006  11.697
26967W        W93376  21.105  44.464  12.601
26968W        W93377  10.295  42.932  12.808
26969W        W93378  14.381  43.263   4.773
26970W        W93379  32.611  28.552  10.564
26971W        W93380  42.506  40.503   2.712
26972W        W93381  13.003  30.866   0.855
26973W        W93382  32.967   2.750   3.524
26974W        W93383  37.339  39.743  14.497
26975W        W93384  39.464   0.318  14.923
26976W        W93385   1.438  19.341  11.082
26977W        W93386   0.994   5.614   2.681
26978W        W93387  11.718  31.956   2.074
26979W        W93388  30.884  41.333  11.204
26980W        W93389  20.834  41.491   4.140
26981W        W93390   1.037  23.706  12.657
26982W        W93391   9.822  23.756   1.682
26983W        W93392   4.525  31.957   0.380
26984W        W93393   5.671   6.268  10.965
26985W        W93394  10.151  35.544  11.112
26986W        W93395   4.056  21.273   3.108
26987W        W93396   2.540  27.129  11.731
26988W        W93397  18.617   7.634  10.719
26989W        W93398  32.761  23.785   2.183
26990W        W93399  13.698  32.744   5.046
26991W        W93400  39.448   4.964  13.859
26992W        W93401  12.829  32.450  10.302
26993W        W93402  30.955   8.777   2.354
26994W        W93403  26.417  38.667   2.334
26995W        W93404  20.801  16.772  13.360
26996W        W93405  13.325  31.770  13.092
26997W        W93406  14.358  21.966  11.926
26998W        W93407   0.938  13.849   3.134
26999W        W93408  39.301  24.865  13.836
27000W        W93409  32.979  17.768   0.609
27001W        W93410  39.596  15.186   2.817
27002W        W93411  17.294  37.886   3.405
27003W        W93412   1.352   1.897   1.706
27004W        W93413   3.262  37.874   1.471
27005W        W93414  14.163   2.404  14.958
27006W        W93415  13.799   5.928  11.560
27007W        W93416  24.284  23.051   2.425
27008W        W93417   3.177  43.323  13.573
27009W        W93418   2.461  39.396  12.018
27010W        W93419  24.643   2.132   3.701
27011W        W93420   4.356  31.670   3.152
27012W        W93421  37.714  25.030   5.105
27013W        W93422   6.586  38.609  10.480
27014W        W93423  41.849  37.875   4.875
27015W        W93424  29.640  14.470   4.173
27016W        W93425  38.887   1.453  13.391
27017W        W93426  23.570  17.023   2.311
27018W        W93427  38.308  26.458   0.562
27019W        W93428  27.284  25.149   1.755
27020W        W93429  15.911  44.683   0.773
27021W        W93430  21.598  44.352  12.714
27022W        W93431   2.944  11.917  14.522
27023W        W93432  18.998  24.944   0.750
27024W        W93433   7.833  44.947  12.040
27025W        W93434   4.987  10.289   2.118
27026W        W93435   3.350  24.980   5.033
27027W        W93436  36.505  33.856  14.759
27028W        W93437  13.777  33.077  11.605
27029W        W93438  14.798  31.018   4.414
27030W        W93439   3.754  33.271  13.884
27031W        W93440  31.139  15.290   1.698
27032W        W93441  25.515  26.160   4.930
27033W        W93442  15.323   2.903  10.589
27034W        W93443  26.487  30.941  10.708
27035W        W93444   8.119  36.470   4.319
27036W        W93445  36.028  27.555  10.450
27037W        W93446   9.239   8.803  12.700
27038W        W93447  18.960   2.406  11.898
27039W        W93448  27.269  14.414  12.419
27040W        W93449  32.634  19.279  13.116
27041W        W93450   9.552  36.323  10.270
27042W        W93451   1.917   0.901   3.714
27043W        W93452  23.996  24.534  14.831
27044W        W93453   0.971   8.598   3.598
27045W        W93454  28.141   3.664  13.898
27046W        W93455  39.938  37.241  13.915
27047W        W93456  36.629   9.610  10.758
27048W        W93457   0.255   3.820   2.266
27049W        W93458   5.500  10.231   4.004
27050W        W93459  22.011  27.126  12.017
27051W        W93460  26.708   3.143   2.282
27052W        W93461  18.347  21.114  10.185
27053W        W93462  18.686   1.837  14.882
27054W        W93463  19.361  13.558   3.926
27055W        W93464  22.188  12.940  11.412
27056W        W93465   5.394  44.576   1.964
27057W        W93466  42.912   5.255   2.926
27058W        W93467  19.697  38.059  14.404
27059W        W93468  35.913  37.530   4.495
27060W        W93469  35.635   0.316   0.809
27061W        W93470   9.504  33.006   1.833
27062W        W93471  40.409  14.314   3.224
27063W        W93472  26.669  16.580   2.293
27064W        W93473  37.798  16.293  11.105
27065W        W93474  23.685  33.920  12.934
27066W        W93475   9.393  17.707  14.295
27067W        W93476  31.121   6.014  10.541
27068W        W93477  15.114  24.755   3.494
27069W        W93478  29.683  33.120   2.909
27070W        W93479   2.654  30.461   1.286
27071W        W93480  31.614  32.179   2.370
27072W        W93481  43.420  14.668   3.810
27073W        W93482  36.492   4.468   0.975
27074W        W93483  18.676   7.703  14.288
27075W        W93484  22.053  20.696   2.315
27076W        W93485  37.964  11.385   1.478
27077W        W93486   6.669  44.445  14.922
27078W        W93487  11.707   5.740   0.559
27079W        W93488  15.961  40.531   0.138
27080W        W93489  18.241  21.678  10.451
27081W        W93490  40.078  25.153  12.475
27082W        W93491  29.588  17.524  12.604
27083W        W93492  17.628  13.738  11.684
27084W        W93493  28.091   6.548  10.184
27085W        W93494  18.328  17.645   0.354
27086W        W93495  17.199   8.474  13.674
27087W        W93496   3.842  26.160  12.625
27088W        W93497   5.953  18.357  12.196
27089W        W93498  33.437   9.714  12.433
27090W        W93499  36.473  21.993   3.163
27091W        W93500  23.576   6.851   0.415
27092W        W93501  35.581  34.007   2.344
27093W        W93502  40.506  41.067   4.870
27094W        W93503   7.473   4.879   2.177
27095W        W93504  18.595  10.415   0.419
27096W        W93505  44.031  43.425   0.235
27097W        W93506  43.935  20.413  12.614
27098W        W93507  15.255  26.470  12.478
27099W        W93508  40.829  13.650   2.740
27100W        W93509   7.198   2.959  10.773
27101W        W93510  19.702  10.184  12.921
27102W        W93511  27.861  40.202  12.551
27103W        W93512  25.765  25.224  10.246
27104W        W93513  23.600  24.681   1.735
27105W        W93514  35.321  35.392   3.119
27106W        W93515  36.511  24.727   1.191
27107W        W93516  32.893   7.120   4.488
27108W        W93517  25.512  11.170   4.371
27109W        W93518  21.698  34.966  13.908
27110W        W93519   6.424  23.233   0.329
27111W        W93520  28.909  31.044   4.368
27112W        W93521  20.089  36.913   0.729
27113W        W93522  17.803  15.509  11.193
27114W        W93523  34.912  35.981  13.829
27115W        W93524   1.442  17.120  13.042
27116W        W93525  28.557  36.864   2.852
27117W        W93526  31.616  27.631  13.359
27118W        W93527   7.852  37.487  14.193
27119W        W93528  24.228  27.032   0.777
27120W        W93529  13.069  16.569  12.893
27121W        W93530  26.905  14.654  13.942
27122W        W93531  13.890   3.299   0.442
27123W        W93532   1.879  42.437   3.389
27124W        W93533  12.984   4.906  12.574
27125W        W93534  11.735  29.131   0.947
27126W        W93535   7.435  35.651  14.094
27127W        W93536   9.773  39.505   1.733
27128W        W93537  28.776  22.296  13.434
27129W        W93538  26.957  15.671   4.768
27130W        W93539  28.932  28.257  10.611
27131W        W93540  31.277  17.497   3.782
27132W        W93541   8.732  12.318   1.273
27133W        W93542   1.688   4.907   3.190
27134W        W93543  43.514  27.513   2.410
27135W        W93544   0.495  15.806   2.238
27136W        W93545  35.830  17.770   4.173
27137W        W93546  28.628  27.145  13.460
27138W        W93547  42.295   0.404   4.693
27139W        W93548  13.307  32.585   1.031
27140W        W93549   7.422  43.502  11.126
27141W        W93550  38.776  32.291  11.258
27142W        W93551  30.575   6.365   0.905
27143W        W93552  17.643  23.053   1.210
27144W        W93553   0.451  11.867   2.413
27145W        W93554  40.027  41.033   0.240
27146W        W93555   6.200  16.386  11.637
27147W        W93556  34.534   1.146   4.540
27148W        W93557   5.942  12.004   3.763
27149W        W93558   5.360   3.914  11.922
27150W        W93559  43.557  11.294  12.028
27151W        W93560  15.200  31.710  10.650
27152W        W93561  40.422  19.635   1.842
27153W        W93562  42.430  19.106   2.587
27154W        W93563  44.856  33.466   4.676
27155W        W93564  25.760  33.024  12.884
27156W        W93565  11.236  43.790   0.779
27157W        W93566  20.502  11.333   3.653
27158W        W93567  24.085  24.672  11.572
27159W        W93568  40.305   8.920  14.031
27160W        W93569  34.693  41.599   2.719
27161W        W93570  11.713  27.982  13.857
27162W        W93571   8.335   9.304  11.069
27163W        W93572  21.737  31.489   1.809
27164W        W93573  23.495  27.787   3.306
27165W        W93574  27.163  13.323  13.488
27166W        W93575  32.116  29.629   0.231
27167W        W93576   7.437   1.458  11.065
27168W        W93577  34.959  36.549  10.975
27169W        W93578  37.956  24.606   0.322
27170W        W93579  28.440  18.727   4.442
27171W        W93580  10.880   3.344  10.978
27172W        W93581  19.255  44.470   0.450
27173W        W93582  16.484  13.269   1.653
27174W        W93583  20.659   0.706  14.306
27175W        W93584  30.926  32.375   2.747
27176W        W93585  25.808  10.961  10.786
27177W        W93586  35.201  39.977   5.147
27178W        W93587   5.702   0.987  11.502
27179W        W93588  22.611  23.468   3.286
27180W        W93589  34.890  23.215  13.468
27181W        W93590  33.154  32.742  13.762
27182W        W93591  11.405  19.017   2.814
27183W        W93592  25.439  35.515  14.410
27184W        W93593  41.414  16.234   2.818
27185W        W93594   4.287  11.293   4.524
27186W        W93595   9.770   0.327   4.944
27187W        W93596   3.409  20.745  12.419
27188W        W93597  18.860  18.379   0.246
27189W        W93598  41.366  13.972  11.593
27190W        W93599  44.883  17.738  11.600
27191W        W93600  10.565  11.226  11.463
27192W        W93601   0.920   6.406   1.735
27193W        W93602  32.110  41.447  10.533
27194W        W93603  19.497   7.243   1.851
27195W        W93604  12.752   3.805  10.661
27196W        W93605  29.694  11.707  10.817
27197W        W93606  11.112   9.808   3.275
27198W        W93607  37.366  34.968   3.718
27199W        W93608   8.581  14.507  13.806
27200W        W93609  43.384  27.677  11.073
27201W        W93610  38.567  16.208   0.255
27202W        W93611   5.950  33.725  12.101
27203W        W93612  34.612  15.999  13.323
27204W        W93613  30.538  38.121  13.149
27205W        W93614   4.346  20.292  11.058
27206W        W93615  26.400  15.517  13.012
27207W        W93616  30.393  31.473  14.541
27208W        W93617  22.473  21.546  11.405
27209W        W93618  22.105  44.162   4.096
27210W        W93619  31.598  30.652  10.781
27211W        W93620   9.650  29.128  10.756
27212W        W93621  35.457  34.513   2.075
27213W        W93622   2.208  41.410  14.479
27214W        W93623   6.672   4.653  11.590
27215W        W93624  20.570  15.324  14.942
27216W        W93625  31.841  19.746  10.558
27217W        W93626   1.484  20.725   0.240
27218W        W93627  15.705   4.690  12.878
27219W        W93628  35.074  30.233   0.386
27220W        W93629  16.459  14.382   3.350
27221W        W93630   8.701  25.934  12.097
27222W        W93631  24.182  31.062  11.598
27223W        W93632  28.201  26.061  14.026
27224W        W93633  18.616  15.329  14.733
27225W        W93634  31.248  40.947  13.389
27226W        W93635   9.271  24.163  14.350
27227W        W93636  27.716   5.903   1.453
27228W        W93637  26.494  23.334   4.423
27229W        W93638  41.990   3.894  11.588
27230W        W93639  33.138  29.218  13.107
27231W        W93640  11.362  16.393  12.880
27232W        W93641  31.440  15.060   3.221
27233W        W93642   3.721  15.613   4.136
27234W        W93643  35.679  37.936   3.218
27235W        W93644  41.321  31.095   2.399
27236W        W93645   1.339   9.237   0.910
27237W        W93646  38.424  10.456  11.022
27238W        W93647  30.495  15.626  13.514
27239W        W93648  32.520  21.747   3.750
27240W        W93649  27.481   5.747   3.674
27241W        W93650  28.276  31.244  10.493
27242W        W93651   8.135  25.434  11.455
27243W        W93652  10.120  31.267  14.662
27244W        W93653  35.479  38.604  14.597
27245W        W93654  15.321   0.486   3.797
27246W        W93655  42.876  35.702  10.786
27247W        W93656  18.452   4.723  12.516
27248W        W93657  26.864  35.965  12.513
27249W        W93658  27.056   2.757  14.734
27250W        W93659  35.158  10.567  11.540
27251W        W93660  39.552  44.067  13.413
27252W        W93661  16.968  28.047   4.244
27253W        W93662  36.952  33.768   0.717
27254W        W93663  24.611  22.119   0.192
27255W        W93664  30.419  24.528   3.258
27256W        W93665   1.680  13.462  12.685
27257W        W93666  16.532  18.437   4.116
27258W        W93667   9.700  26.615  11.947
27259W        W93668  15.414   0.576  14.561
27260W        W93669  26.502  17.563  14.247
27261W        W93670  27.441  34.982   1.856
27262W        W93671  24.521  27.859  10.724
27263W        W93672   8.408  34.482  13.863
27264W        W93673  18.091  31.452  10.757
27265W        W93674  21.690  32.118   4.986
27266W        W93675   6.924  27.652   4.965
27267W        W93676  25.724  17.191   4.268
27268W        W93677  15.825  41.440  14.759
27269W        W93678  13.461  21.707  12.094
27270W        W93679   5.694  27.038  12.656
27271W        W93680  36.480  22.095   4.538
27272W        W93681  29.561  27.633   3.959
27273W        W93682  24.685  28.110  12.374
27274W        W93683  12.631  40.293   1.963
27275W        W93684  30.505  43.557   4.553
27276W        W93685  15.637  27.663   4.186
27277W        W93686  38.243  39.341  13.015
27278W        W93687   0.917  27.411   0.332
27279W        W93688   3.767  18.846  12.629
27280W        W93689  11.773  43.157   3.349
27281W        W93690  27.180  34.097   2.369
27282W        W93691  16.363  12.834  13.951
27283W        W93692   3.282  21.487   3.807
27284W        W93693  22.301  28.086  11.980
27285W        W93694  31.058   1.489  13.293
27286W        W93695   5.399   3.437   1.782
27287W        W93696  10.615   4.084   9.805
27288W        W93697  41.572  24.286   1.165
27289W        W93698   8.955  37.596  11.184
27290W        W93699  43.929   1.307  11.785
27291W        W93700  25.177   8.448   2.664
27292W        W93701   0.318  23.942   0.854
27293W        W93702  28.582  25.929  12.056
27294W        W93703  13.347  30.931   3.132
27295W        W93704  36.796  28.036   4.113
27296W        W93705  15.532  17.629  14.967
27297W        W93706  14.469   0.729   4.900
27298W        W93707  31.169   2.014  14.897
27299W        W93708   1.322  12.886  12.120
27300W        W93709  36.882   0.598  14.608
27301W        W93710  32.360  16.808  11.518
27302W        W93711   3.864  33.507  11.275
27303W        W93712  33.532  10.735   3.313
27304W        W93713  21.572  23.961  13.496
27305W        W93714  35.064   7.924  12.183
27306W        W93715  42.492  37.875  14.208
27307W        W93716   9.007   2.340  12.444
27308W        W93717  22.644  33.528   1.632
27309W        W93718  35.161  26.554  13.410
27310W        W93719  30.753  38.323  14.064
27311W        W93720  27.518  12.083  12.403
27312W        W93721  34.908  29.341   3.225
27313W        W93722   1.896  24.379   1.859
27314W        W93723  33.699  39.792  13.994
27315W        W93724  20.121   7.830   3.745
27316W        W93725   7.794  44.061  11.180
27317W        W93726  28.197  13.785  12.315
27318W        W93727  30.576  23.955   1.446
27319W        W93728  34.888  38.958  10.732
27320W        W93729  22.385  30.773  13.294
27321W        W93730  18.724   8.391   0.321
27322W        W93731   3.397  29.396  14.924
27323W        W93732  26.801  35.298  10.704
27324W        W93733  36.650  16.141   0.255
27325W        W93734   5.352  42.531  13.895
27326W        W93735   6.225  14.566   1.810
27327W        W93736   2.050   8.317   2.881
27328W        W93737  16.014   1.538  12.472
27329W        W93738  16.575  28.107  10.937
27330W        W93739  37.542  28.024   0.157
27331W        W93740   1.340  33.549  12.975
27332W        W93741  30.642  39.515  12.971
27333W        W93742  12.632   3.263   4.302
27334W        W93743   1.020  34.467   3.122
27335W        W93744  44.737  23.033  14.913
27336W        W93745  36.401  39.230  10.410
27337W        W93746   7.954  29.278   3.732
27338W        W93747   7.376  28.865   4.666
27339W        W93748  19.807  20.130   3.821
27340W        W93749  38.620  17.715   1.427
27341W        W93750   2.996  38.416   2.724
27342W        W93751   6.202  22.764   0.378
27343W        W93752   2.714  35.408   4.100
27344W        W93753   2.826  24.713   2.825
27345W        W93754  40.427  38.568   3.434
27346W        W93755  42.302   9.235  12.906
27347W        W93756  35.370  13.909   3.221
27348W        W93757   8.476  17.123  14.299
27349W        W93758  11.795  23.375   1.521
27350W        W93759  29.634  28.171   0.367
27351W        W93760  14.750  44.568   1.415
27352W        W93761  17.761   5.770  12.193
27353W        W93762  26.791  10.283   1.863
27354W        W93763  20.172   4.897  12.405
27355W        W93764  11.811   7.752  14.761
27356W        W93765  40.502  28.407   4.177
27357W        W93766  39.996  42.204   2.882
27358W        W93767  25.462  32.912   3.297
27359W        W93768  14.517  25.236   4.604
27360W        W93769  30.134  27.387  12.415
27361W        W93770   6.308  37.877   2.885
27362W        W93771  41.956  18.498   4.927
27363W        W93772  35.165  20.883  14.711
27364W        W93773   3.715  13.959   0.087
27365W        W93774  34.004  10.168  12.603
27366W        W93775  13.095  18.277   3.090
27367W        W93776   9.706  20.100   1.096
27368W        W93777  21.941  33.881  11.990
27369W        W93778  16.928  21.542   3.968
27370W        W93779   5.647   1.896  13.047
27371W        W93780   5.712  41.477   3.363
27372W        W93781  13.734  32.290  10.530
27373W        W93782  34.707   3.851   4.501
27374W        W93783  14.961  33.947  14.420
27375W        W93784  14.281   9.813   4.600
27376W        W93785  21.348  40.889  10.892
27377W        W93786   4.138  44.007   0.503
27378W        W93787  38.325  18.708   1.324
27379W        W93788  26.267  10.588   1.897
27380W        W93789  20.809   4.825   2.700
27381W        W93790   7.159  41.304   1.622
27382W        W93791   8.699   4.940  10.547
27383W        W93792  14.489  20.977   2.411
27384W        W93793   6.627  21.013   0.885
27385W        W93794  16.163  19.546  11.012
27386W        W93795  32.115  29.435  14.270
27387W        W93796  10.940  21.618   0.397
27388W        W93797   3.618   9.793   3.318
27389W        W93798  20.302  11.350  11.536
27390W        W93799  19.518  36.553  13.624
27391W        W93800   3.314  21.509   4.644
27392W        W93801  13.338  27.530   1.292
27393W        W93802  23.213   5.480  12.455
27394W        W93803   1.475  40.300  11.185
27395W        W93804  24.575  24.780   2.632
27396W        W93805   9.327  10.098   2.343
27397W        W93806  12.615  40.367  11.955
27398W        W93807  23.492  42.999  14.173
27399W        W93808   0.023   0.786   1.210
27400W        W93809   0.832   0.761   1.659
27401W        W93810  15.618  37.282   0.830
27402W        W93811  15.041  13.872  14.518
27403W        W93812  38.467  26.615   4.129
27404W        W93813  39.594  34.098  11.044
27405W        W93814  17.439  31.001   2.781
27406W        W93815  15.579  16.738   2.182
27407W        W93816  25.672  42.657  14.963
27408W        W93817  31.406   0.974   5.406
27409W        W93818  11.709  37.487  14.835
27410W        W93819   7.703  39.772   3.739
27411W        W93820  20.308   9.590   1.958
27412W        W93821  16.082   0.466   2.710
27413W        W93822   1.199   6.603  12.652
27414W        W93823  20.544  21.961   2.227
27415W        W93824  35.758  30.234  14.991
27416W        W93825  34.481  11.467   0.398
27417W        W93826  41.345  34.630  13.014
27418W        W93827   2.303  18.044   0.345
27419W        W93828  43.227   8.933  14.974
27420W        W93829   9.278  41.758  10.723
27421W        W93830  12.311  43.264  14.424
27422W        W93831  44.673  38.360  13.435
27423W        W93832  18.264   1.259   0.892
27424W        W93833   7.211  15.870  11.557
27425W        W93834  35.057  24.770  11.490
27426W        W93835  36.755  34.646   0.410
27427W        W93836  28.203  29.063   3.161
27428W        W93837   3.565  29.636  11.644
27429W        W93838  39.790  17.722   0.933
27430W        W93839   3.225  39.836  12.163
27431W        W93840  37.736  24.399  11.637
27432W        W93841  35.714   9.740   0.218
27433W        W93842  30.355  30.994   2.201
27434W        W93843   3.838  23.425  10.721
27435W        W93844  35.513  36.140   0.323
27436W        W93845  17.981   0.375   2.770
27437W        W93846   4.315   0.866  12.563
27438W        W93847  13.772  41.014  11.223
27439W        W93848  41.514  32.172  12.940
27440W        W93849   6.950   8.358  12.427
27441W        W93850  11.607  14.147  10.190
27442W        W93851  41.794  36.966  14.824
27443W        W93852   2.577  13.146   0.684
27444W        W93853  44.853  24.122   0.967
27445W        W93854  38.053  38.863  10.598
27446W        W93855   9.221  33.830   0.802
27447W        W93856  39.253  19.273   2.299
27448W        W93857  42.715  32.305   5.126
27449W        W93858  16.211   9.387  14.402
27450W        W93859  10.368  27.740  13.139
27451W        W93860   2.281  33.862  13.910
27452W        W93861  36.134  40.760  11.991
27453W        W93862   4.545  37.426   1.439
27454W        W93863  40.794  24.488  12.177
27455W        W93864   4.910  36.913  13.153
27456W        W93865  23.964  43.236  10.000
27457W        W93866   5.130  40.297   3.358
27458W        W93867   0.848  35.127   4.461
27459W        W93868  24.808  41.001   4.532
27460W        W93869  43.926  40.161   1.272
27461W        W93870  43.334  32.180   1.623
27462W        W93871   6.736  32.413   3.086
27463W        W93872  17.662  44.468  14.412
27464W        W93873  23.979  37.167  14.530
27465W        W93874   9.092   8.392  14.361
27466W        W93875  26.695  11.315   1.845
27467W        W93876  31.705  38.422   1.716
27468W        W93877  19.323   9.609  13.534
27469W        W93878  14.840  11.431   5.061
27470W        W93879  34.670  15.071   2.254
27471W        W93880   9.666  32.432  13.952
27472W        W93881  16.619  11.616  10.786
27473W        W93882  41.722  22.712  13.441
27474W        W93883  34.910   1.115  10.689
27475W        W93884  40.083  11.256   4.156
27476W        W93885  14.651  43.256  10.562
27477W        W93886  21.334  38.271   3.067
27478W        W93887  30.817  21.692   4.678
27479W        W93888   2.963  24.672  12.427
27480W        W93889  19.246  40.324  11.996
27481W        W93890  20.052  36.871   3.343
27482W        W93891  34.249  31.937   2.386
27483W        W93892   6.897  44.754   0.275
27484W        W93893  31.668   2.619   1.171
27485W        W93894  33.908  25.206   0.304
27486W        W93895  15.266  39.916  10.200
27487W        W93896  16.245   7.006  10.336
27488W        W93897  13.239  11.510  11.239
27489W        W93898  25.425   7.113  12.365
27490W        W93899  12.035   9.126   4.732
27491W        W93900  33.962  10.383  12.115
27492W        W93901  11.286  26.377  13.062
27493W        W93902  29.979   3.859   4.295
27494W        W93903  16.238   9.915  14.806
27495W        W93904   6.834  42.935   1.682
27496W        W93905  12.003  24.691  13.829
27497W        W93906   3.004  37.848  14.794
27498W        W93907   6.067  24.640   0.527
27499W        W93908  31.096  28.629  11.298
27500W        W93909  23.549   1.474  10.358
27501W        W93910  35.208  32.974   1.454
27502W        W93911  43.564   0.631   4.423
27503W        W93912  10.064   1.162  14.879
27504W        W93913  30.092  42.433   0.301
27505W        W93914   3.493  21.924   3.633
27506W        W93915  16.539  10.672   0.659
27507W        W93916  22.702  31.521   1.822
27508W        W93917  42.140  20.340  10.090
27509W        W93918  35.366  16.371  12.870
27510W        W93919  12.757   3.872   3.153
27511W        W93920  35.577  26.414  11.573
27512W        W93921  25.563  14.845   0.850
27513W        W93922  30.176  38.791  11.634
27514W        W93923  34.109   0.923   4.188
27515W        W93924  12.143  14.701   0.197
27516W        W93925  20.355  13.336  13.858
27517W        W93926  32.530  13.376   1.949
27518W        W93927  13.070  34.791   2.348
27519W        W93928  36.480  33.361  13.948
27520W        W93929  10.166  18.434   0.742
27521W        W93930  43.042  36.917  12.552
27522W        W93931  37.424  43.833   3.230
27523W        W93932  29.125  22.587  12.161
27524W        W93933  36.958   0.742  11.605
27525W        W93934  17.522  42.089  14.426
27526W        W93935  11.835  27.673   1.364
27527W        W93936  24.669   4.520  10.494
27528W        W93937  20.805  11.715  12.338
27529W        W93938  24.552   1.031   1.830
27530W        W93939  27.580  27.800  10.944
27531W        W93940  38.122  13.407  12.852
27532W        W93941  33.677  32.182   0.647
27533W        W93942  30.923  34.483   4.828
27534W        W93943  39.498  35.845   1.831
27535W        W93944  42.269  34.642   2.232
27536W        W93945   7.761   0.977  13.729
27537W        W93946  25.430  31.391   1.795
27538W        W93947  32.523  41.757  10.590
27539W        W93948  40.971   9.339   5.547
27540W        W93949  19.136   5.343  11.872
27541W        W93950  15.054  18.992   4.604
27542W        W93951   6.474  35.962  12.884
27543W        W93952  29.112  26.145  11.659
27544W        W93953  26.081  28.975  12.104
27545W        W93954  18.598  42.797  11.127
27546W        W93955  15.274  26.893  11.156
27547W        W93956   1.863  44.824   4.671
27548W        W93957  18.793  40.435  10.596
27549W        W93958  31.519  38.324   3.445
27550W        W93959   0.688  38.332  13.218
27551W        W93960  17.962  35.628  12.403
27552W        W93961  18.598  23.636  12.974
27553W        W93962  11.251  25.052  14.649
27554W        W93963  16.318  37.276  12.261
27555W        W93964  35.924  23.092   3.372
27556W        W93965  15.086  31.156   3.195
27557W        W93966  13.746   2.180   2.132
27558W        W93967  22.190  34.166   0.855
27559W        W93968  20.855   0.854   0.379
27560W        W93969   8.030  37.161  11.118
27561W        W93970  36.590   5.675  10.725
27562W        W93971  11.562   1.926   0.442
27563W        W93972  23.742  39.706  12.109
27564W        W93973  40.925  29.891   1.900
27565W        W93974  27.942  38.314  10.736
27566W        W93975  29.195  40.062   0.942
27567W        W93976  18.719   8.187  12.805
27568W        W93977  10.612   2.606  14.502
27569W        W93978  18.561  31.300   4.228
27570W        W93979  42.027  42.962   0.197
27571W        W93980  30.531  42.099  11.682
27572W        W93981  41.451   7.245   2.769
27573W        W93982   8.944  20.831  12.796
27574W        W93983  27.962  23.078   4.599
27575W        W93984   7.934  17.505  11.998
27576W        W93985   8.418   0.738   5.057
27577W        W93986   8.061  44.419  12.016
27578W        W93987  22.722   6.596  14.894
27579W        W93988  34.544   5.692  14.391
27580W        W93989  33.016  26.643   0.759
27581W        W93990  25.999  40.890  13.002
27582W        W93991  44.394  10.871   5.107
27583W        W93992  32.560  20.554  11.903
27584W        W93993  18.664  16.380  12.980
27585W        W93994  25.659   3.864  12.382
27586W        W93995   5.583  35.882  10.606
27587W        W93996  19.171  11.307  13.861
27588W        W93997   0.436  34.296  13.890
27589W        W93998  16.645   8.917  12.934
27590W        W93999  21.771  13.282  12.543
27591W        W94000  44.824  26.645  11.114
27592W        W94001  14.703  16.068   1.010
27593W        W94002   0.600   8.406   4.429
27594W        W94003   1.731  34.999   1.796
27595W        W94004  23.498  24.006   2.279
27596W        W94005  25.850  30.474  12.546
27597W        W94006  17.282  28.429   3.423
27598W        W94007  28.950  14.441  13.038
27599W        W94008  40.053  19.755   2.729
27600W        W94009  10.126  24.004   4.300
27601W        W94010  14.845   3.135  14.507
27602W        W94011  38.086   7.496   1.752
27603W        W94012  44.031  35.964  12.860
27604W        W94013  39.162   4.532  13.586
27605W        W94014  37.921  34.265   4.086
27606W        W94015  44.624  27.427   4.334
27607W        W94016   6.886  12.175  14.007
27608W        W94017   1.783  20.816  14.821
27609W        W94018  13.774  16.167  13.901
27610W        W94019  19.534  19.751   4.569
27611W        W94020  14.086   5.911   2.403
27612W        W94021  29.220  28.495   2.897
27613W        W94022  23.408  18.215   3.438
27614W        W94023  13.545  15.783   2.811
27615W        W94024   9.231   7.830   2.802
27616W        W94025   7.029  34.770  12.712
27617W        W94026   3.296  34.718   2.836
27618W        W94027   2.070  26.926  11.678
27619W        W94028  12.262  13.744   0.672
27620W        W94029   3.804  27.519  12.176
27621W        W94030  33.176  18.657   2.456
27622W        W94031  22.911   0.493   0.404
27623W        W94032  33.489  33.874  10.566
27624W        W94033  34.372  21.944  12.478
27625W        W94034  11.205  44.934   2.209
27626W        W94035  37.721  27.494  10.670
27627W        W94036   8.524  32.037  11.199
27628W        W94037   6.826   8.455   1.193
27629W        W94038   4.195   4.355   1.710
27630W        W94039  11.201   4.700  11.265
27631W        W94040  33.583  16.669  13.617
27632W        W94041  28.094   3.642  13.356
27633W        W94042  20.584  12.285   0.694
27634W        W94043   8.761  13.929   2.656
27635W        W94044  33.371  39.131   3.713
27636W        W94045  23.026  15.960   4.943
27637W        W94046  11.275  20.187  14.250
27638W        W94047  42.939  26.231   0.716
27639W        W94048  40.358  33.946   2.248
27640W        W94049  31.213  15.679   3.133
27641W        W94050  12.199  16.764  12.864
27642W        W94051  44.028  37.112   2.773
27643W        W94052  10.718  14.026   1.238
27644W        W94053  19.008   5.940  10.763
27645W        W94054  37.914   1.251   4.127
27646W        W94055   7.771   0.485  11.463
27647W        W94056   7.578  40.938   3.261
27648W        W94057   6.574  44.009   2.829
27649W        W94058  43.221  36.107   3.639
27650W        W94059  31.333   4.935   4.499
27651W        W94060   9.071  26.651   1.428
27652W        W94061  10.639  11.163  13.102
27653W        W94062  34.622  39.640  10.143
27654W        W94063  36.894  41.666  14.066
27655W        W94064  35.489  13.245  13.125
27656W        W94065  17.004  34.333  10.755
27657W        W94066   1.962  28.180  14.066
27658W        W94067   8.899   5.938   3.731
27659W        W94068   3.367   5.794   0.615
27660W        W94069   6.759   7.667   3.337
27661W        W94070  20.021  17.633  11.581
27662W        W94071  39.093  35.973  12.213
27663W        W94072   5.372   1.044   1.661
27664W        W94073  19.068   9.085   1.267
27665W        W94074  22.622  43.431  14.028
27666W        W94075  33.095  28.496  10.359
27667W        W94076  11.839  18.540   0.707
27668W        W94077  11.389  12.269   0.718
27669W        W94078   7.251  44.504   3.247
27670W        W94079  41.764  19.107  14.494
27671W        W94080  21.620  13.841   3.634
27672W        W94081  32.610  13.855   2.579
27673W        W94082  36.901  43.761  10.796
27674W        W94083   2.051  32.235   3.624
27675W        W94084  33.880  16.294  11.154
27676W        W94085  43.800  33.971   4.585
27677W        W94086   8.567  18.379  11.085
27678W        W94087   9.041  18.611  13.934
27679W        W94088  28.386  38.881   2.238
27680W        W94089  19.679  44.575   4.110
27681W        W94090  12.133  27.035   4.545
27682W        W94091  26.838  25.913  11.728
27683W        W94092  24.086   2.639  14.519
27684W        W94093  37.079  24.675   2.091
27685W        W94094   3.949  44.999   4.230
27686W        W94095   3.441  31.158   3.065
27687W        W94096  13.056   5.171  13.034
27688W        W94097   2.925  30.683   0.862
27689W        W94098  16.935   7.461  12.915
27690W        W94099  28.094  12.525   5.115
27691W        W94100  31.525   1.365   0.570
27692W        W94101  37.040  35.832   1.813
27693W        W94102  17.035  29.625  10.889
27694W        W94103  29.446  21.732   3.764
27695W        W94104  17.768  43.051   4.475
27696W        W94105  21.063  37.369   1.879
27697W        W94106   9.702   0.290   3.253
27698W        W94107  23.245  14.270   0.867
27699W        W94108   3.978  13.636   1.923
27700W        W94109  30.729  39.282   2.320
27701W        W94110  19.593   6.882  13.100
27702W        W94111  11.604  14.341  12.103
27703W        W94112   4.367  26.373  14.258
27704W        W94113  14.776  20.120   0.366
27705W        W94114  36.018   2.146  11.747
27706W        W94115   4.760  35.265   0.751
27707W        W94116  28.104  13.046  11.629
27708W        W94117  22.451   4.448  13.226
27709W        W94118  40.433   8.011  10.447
27710W        W94119   1.031  42.969   4.667
27711W        W94120  10.357  34.597   2.332
27712W        W94121  35.563  24.153   4.292
27713W        W94122   7.328  26.032   0.028
27714W        W94123  41.377   1.810   4.613
27715W        W94124  34.996  31.597   2.731
27716W        W94125  20.535  17.598  13.225
27717W        W94126   4.373  14.854   4.458
27718W        W94127  36.176  41.447   2.783
27719W        W94128  22.626  23.964  14.316
27720W        W94129  13.687   6.151   3.555
27721W        W94130   0.306  14.035  13.097
27722W        W94131  40.308  29.665  14.487
27723W        W94132  10.293  34.190  12.943
27724W        W94133  25.130  26.458   2.279
27725W        W94134  13.394  25.395   1.008
27726W        W94135   8.758  32.967  14.897
27727W        W94136   9.233   3.506   0.185
27728W        W94137  42.578  41.792   3.431
27729W        W94138  41.334  34.307  12.578
27730W        W94139  20.237   8.153  10.643
27731W        W94140   3.336   2.559   4.640
27732W        W94141   0.791  30.119   2.231
27733W        W94142  11.075  21.190  12.507
27734W        W94143  19.276  36.712  11.150
27735W        W94144  16.094  39.951  11.660
27736W        W94145   3.246  38.400  11.548
27737W        W94146  21.326  23.101  10.920
27738W        W94147  13.104   6.725   1.678
27739W        W94148  20.494  20.885  11.104
27740W        W94149  30.847  27.170   0.450
27741W        W94150  19.680   2.207  13.798
27742W        W94151  33.033  33.562  12.518
27743W        W94152  22.180  13.872  11.522
27744W        W94153  19.754  23.556  13.472
27745W        W94154  13.286   1.948  13.518
27746W        W94155  22.558  41.868  11.203
27747W        W94156  36.313  18.142  14.757
27748W        W94157   1.756  13.098  11.564
27749W        W94158  28.130  21.260  13.104
27750W        W94159  39.447  11.380  13.209
27751W        W94160  35.957  33.919  13.441
27752W        W94161  42.413  11.895   0.330
27753W        W94162  33.410  37.896   4.654
27754W        W94163  42.657   8.158  10.323
27755W        W94164  25.966   4.603  14.346
27756W        W94165  41.159  16.285   3.289
27757W        W94166  35.863  29.993   2.202
27758W        W94167  43.502  10.201   0.694
27759W        W94168  19.472  31.001   2.690
27760W        W94169  22.737  19.136   4.762
27761W        W94170   7.337  23.348  10.654
27762W        W94171  19.536  11.283   2.239
27763W        W94172  21.785  44.218   0.532
27764W        W94173  33.227  23.483  10.520
27765W        W94174  12.124  30.972  10.331
27766W        W94175  32.365  15.447   3.200
27767W        W94176  19.556  26.596  14.332
27768W        W94177  33.410   4.219   0.869
27769W        W94178  36.905  43.549  14.494
27770W        W94179  43.012  27.480  14.723
27771W        W94180   9.886  40.406   3.140
27772W        W94181  34.795  40.023   2.834
27773W        W94182  41.274  34.196   3.215
27774W        W94183  34.625  38.688  12.837
27775W        W94184  18.861  23.080  10.790
27776W        W94185   1.061  24.184  12.494
27777W        W94186  21.332   6.191   3.815
27778W        W94187   5.887  38.368   4.890
27779W        W94188  25.930   0.017   1.694
27780W        W94189  23.029  39.482  11.085
27781W        W94190  20.532  12.225  11.518
27782W        W94191  25.441   7.280  12.846
27783W        W94192  13.697  14.191   0.428
27784W        W94193  26.996   5.207   3.851
27785W        W94194   3.026   0.988  13.512
27786W        W94195  22.736  12.573   3.548
27787W        W94196  11.284   6.237   3.591
27788W        W94197  35.694  29.184   0.939
27789W        W94198  25.899   0.515  13.802
27790W        W94199  37.896   7.022   4.145
27791W        W94200  30.407  25.652  11.686
27792W        W94201  33.014  37.821   4.300
27793W        W94202  11.739   3.973  10.425
27794W        W94203   0.922   2.530  10.687
27795W        W94204  19.110  34.766   0.024
27796W        W94205  34.690  30.655   3.377
27797W        W94206   6.257  31.702   4.661
27798W        W94207   4.260   7.097   1.418
27799W        W94208   6.180  37.003  10.500
27800W        W94209  24.701  41.049  11.138
27801W        W94210  37.795  12.859  12.998
27802W        W94211  15.720   5.340  11.470
27803W        W94212  22.530   4.253  12.219
27804W        W94213  40.467  43.556  11.960
27805W        W94214  19.536  23.568  11.127
27806W        W94215  37.740   4.344  11.147
27807W        W94216  38.805  33.589  10.682
27808W        W94217  25.172  36.833  10.866
27809W        W94218   7.700  37.898  10.468
27810W        W94219  25.622  32.208   0.828
27811W        W94220  36.498  33.768   4.053
27812W        W94221  42.928  36.786   0.908
27813W        W94222  15.615   7.723  12.548
27814W        W94223  12.223   4.968   4.949
27815W        W94224  24.119   3.344  14.295
27816W        W94225   7.524  24.681  11.970
27817W        W94226  27.426  29.373  13.474
27818W        W94227  37.933  26.490  12.607
27819W        W94228  14.152  40.074   0.788
27820W        W94229   1.542  25.080   1.702
27821W        W94230  35.354  21.704  14.990
27822W        W94231  26.018  22.623  14.852
27823W        W94232  11.764  24.088  12.957
27824W        W94233  23.056  12.096  11.123
27825W        W94234  11.711  26.690  14.390
27826W        W94235   7.930  19.836  12.478
27827W        W94236   8.612   4.170   4.302
27828W        W94237  40.905  19.631  14.833
27829W        W94238  16.829   5.705   1.170
27830W        W94239   5.581   5.150   4.032
27831W        W94240   0.408  28.305  11.662
27832W        W94241  22.151  28.450  11.641
27833W        W94242   8.616   5.713   3.276
27834W        W94243   0.888  10.206   3.655
27835W        W94244  15.042  10.575   1.363
27836W        W94245  36.895  41.442   1.729
27837W        W94246  14.433  28.223   0.994
27838W        W94247   0.754  36.454   2.408
27839W        W94248  22.605   3.392  11.883
27840W        W94249  13.572  17.492  13.502
27841W        W94250  29.633  17.891  11.688
27842W        W94251  36.357  38.642  14.898
27843W        W94252  23.868  43.236  12.333
27844W        W94253  17.610  14.857   2.801
27845W        W94254  39.485  28.572  11.193
27846W        W94255  41.084  24.022   4.107
27847W        W94256   3.449  35.988  14.782
27848W        W94257  21.588   5.492  13.432
27849W        W94258  25.448  42.052  13.935
27850W        W94259  23.020  21.322   4.543
27851W        W94260  24.176   5.345  14.514
27852W        W94261  33.325   7.681   0.426
27853W        W94262  10.535  15.234   0.891
27854W        W94263   9.782  12.613  12.313
27855W        W94264  44.417  40.096  12.069
27856W        W94265  41.443  20.505  13.746
27857W        W94266  20.000  42.751  14.422
27858W        W94267  41.730  20.520  10.320
27859W        W94268  28.140  41.980   4.285
27860W        W94269  33.609  21.249  12.927
27861W        W94270   2.687   2.848   3.330
27862W        W94271  43.046  24.224  13.854
27863W        W94272  31.316  25.666  10.841
27864W        W94273   9.115   1.448  13.383
27865W        W94274  28.892  10.638   3.638
27866W        W94275  17.538  19.304  13.337
27867W        W94276  25.969  42.277   0.152
27868W        W94277  36.896  19.821  10.738
27869W        W94278  23.467  23.736  12.371
27870W        W94279  13.974   6.215  14.104
27871W        W94280  33.699  25.594   1.257
27872W        W94281   3.600  18.378   4.047
27873W        W94282   2.936  25.491  12.116
27874W        W94283  12.173  44.044   2.692
27875W        W94284  16.629  40.603   0.895
27876W        W94285  23.259   2.865   0.336
27877W        W94286   7.096  36.142   1.805
27878W        W94287  17.596  14.786  14.945
27879W        W94288   4.574  13.608   5.036
27880W        W94289  44.327  40.227  14.031
27881W        W94290   1.718  37.838  13.883
27882W        W94291   8.343   4.896  10.895
27883W        W94292   6.193  23.634   2.718
27884W        W94293  28.625  16.522  12.861
27885W        W94294  11.222   0.438   1.300
27886W        W94295  36.864   9.418  12.121
27887W        W94296   5.845  31.144   2.405
27888W        W94297  24.743  29.602  13.274
27889W        W94298  17.873  39.941  14.923
27890W        W94299  22.669  25.508  12.981
27891W        W94300   1.687  12.307  12.743
27892W        W94301   6.229  35.499  12.630
27893W        W94302   7.473  39.352  14.181
27894W        W94303  36.614  18.167  13.550
27895W        W94304  17.698  34.783  11.182
27896W        W94305  31.806  14.998  14.050
27897W        W94306   7.678  11.359  10.981
27898W        W94307  18.136   9.280  10.926
27899W        W94308  12.679  15.348  14.328
27900W        W94309  24.380  26.365  10.203
27901W        W94310  31.146  19.659  11.208
27902W        W94311  35.995  44.722   2.799
27903W        W94312  15.361  38.508   3.026
27904W        W94313  40.465  33.841  13.879
27905W        W94314  31.653  40.748   0.710
27906W        W94315  14.235  24.080  14.782
27907W        W94316  44.215   8.944   1.927
27908W        W94317   3.282   3.026   2.278
27909W        W94318  37.991  29.202   2.474
27910W        W94319  20.321  36.297  13.496
27911W        W94320   5.138   7.662  11.611
27912W        W94321  19.154  34.718  13.949
27913W        W94322  17.872  35.459   4.758
27914W        W94323  20.555  41.235   1.776
27915W        W94324  16.593  14.270  11.595
27916W        W94325   9.090  37.055  10.564
27917W        W94326  19.392  31.586  14.345
27918W        W94327   3.018  44.486  12.031
27919W        W94328  19.839  35.024   0.667
27920W        W94329  34.529   0.713  14.403
27921W        W94330  19.454  29.868  10.990
27922W        W94331   4.798   5.673  12.215
27923W        W94332   9.237   3.049   4.517
27924W        W94333   7.799  40.766  11.556
27925W        W94334  43.905   9.481  12.042
27926W        W94335  28.096   3.464  10.634
27927W        W94336  15.555  42.462   2.306
27928W        W94337  30.585  37.538   3.478
27929W        W94338  15.058  41.283  14.778
27930W        W94339  29.950  21.065  13.556
27931W        W94340  26.668  33.018  11.436
27932W        W94341  32.130   4.322   4.599
27933W        W94342   8.352  34.998   3.382
27934W        W94343   8.716  44.475  14.869
27935W        W94344  26.455   7.181  15.000
27936W        W94345  32.113  32.515  10.731
27937W        W94346  31.897   6.488   5.217
27938W        W94347  13.132  12.174   1.999
27939W        W94348  43.166  31.676   3.606
27940W        W94349  39.731  44.751   2.308
27941W        W94350  10.302  14.686  11.917
27942W        W94351  40.229  30.695   0.848
27943W        W94352  34.391  41.086  14.089
27944W        W94353  29.221  36.242  12.562
27945W        W94354  32.028   9.941  13.855
27946W        W94355  42.050   4.873  10.732
27947W        W94356  20.134  32.638   2.143
27948W        W94357   1.521   7.633   2.835
27949W        W94358  24.401   7.351  13.829
27950W        W94359   8.259  30.411  14.309
27951W        W94360   7.901  38.313   0.491
27952W        W94361   9.696   4.247  13.470
27953W        W94362  17.204  35.741   1.849
27954W        W94363   5.085  29.673   0.533
27955W        W94364  20.331   5.993  12.065
27956W        W94365  20.501  16.110  11.216
27957W        W94366  33.330   2.490  12.987
27958W        W94367  42.000  19.329  12.969
27959W        W94368  22.923  23.791   3.564
27960W        W94369  11.590  42.351   0.416
27961W        W94370  30.627  38.877  12.501
27962W        W94371  27.242   4.276   1.294
27963W        W94372  24.119  23.744   3.287
27964W        W94373   1.812  34.070   3.258
27965W        W94374  32.253  10.694   1.166
27966W        W94375  27.417  23.443   2.155
27967W        W94376  12.031  32.851  12.021
27968W        W94377  15.157  39.565  12.585
27969W        W94378   8.656   7.053  11.121
27970W        W94379   6.196  33.005   1.077
27971W        W94380   8.173   9.196   2.454
27972W        W94381   9.314  12.612  14.257
27973W        W94382  11.620   4.446   3.247
27974W        W94383  17.738  24.122  11.152
27975W        W94384   5.617  39.310   1.596
27976W        W94385  25.521  15.792   3.673
27977W        W94386  41.790  22.212   3.800
27978W        W94387  37.068  24.293   0.361
27979W        W94388  12.865  32.576   0.729
27980W        W94389  12.914  32.876   1.181
27981W        W94390  32.649  24.090  11.187
27982W        W94391  25.927  30.720  14.961
27983W        W94392  35.601   4.671  10.738
27984W        W94393  17.630  41.817  14.896
27985W        W94394   0.451  31.511  14.357
27986W        W94395  29.570  31.050   3.562
27987W        W94396  21.692  11.954   1.815
27988W        W94397  39.336   4.228   2.728
27989W        W94398  40.491  27.122  13.751
27990W        W94399  16.310  32.297  10.085
27991W        W94400  31.431   4.566  12.870
27992W        W94401  24.526  23.065  14.028
27993W        W94402  15.126  19.516   4.630
27994W        W94403  23.581  12.307   3.137
27995W        W94404  28.549  44.843  11.018
27996W        W94405  12.593  17.213  14.319
27997W        W94406  32.727  35.073  12.724
27998W        W94407  10.038  31.753   5.419
27999W        W94408  40.731  26.614   1.430
28000W        W94409  12.223  25.815   3.239
28001W        W94410   1.541  21.265  13.932
28002W        W94411  35.107  38.512   2.773
28003W        W94412   7.404  43.860   4.023
28004W        W94413  39.363   4.355   0.338
28005W        W94414   3.489  34.847  11.157
28006W        W94415   1.397  36.031  13.320
28007W        W94416   0.945  21.476   2.132
28008W        W94417   7.335  40.865  11.833
28009W        W94418  26.671  37.421  14.829
28010W        W94419  44.067  32.654   2.931
28011W        W94420  13.369   7.583   1.852
28012W        W94421  32.695  15.841   3.221
28013W        W94422   7.332  44.189  10.531
28014W        W94423  25.194  22.556  14.450
28015W        W94424   8.205  23.752  12.030
28016W        W94425  36.255  41.461  12.509
28017W        W94426   7.647  21.667   2.605
28018W        W94427  35.805  44.878  12.362
28019W        W94428   5.851  35.023   0.664
28020W        W94429  10.908   3.981   5.005
28021W        W94430  20.554   0.391   0.900
28022W        W94431  35.037  15.505  13.995
28023W        W94432  41.446  28.179   4.281
28024W        W94433  31.642  29.035  12.970
28025W        W94434  37.870   4.301  12.400
28026W        W94435  13.311   8.105   0.940
28027W        W94436  26.035  19.594  13.346
28028W        W94437  42.744  14.065   4.525
28029W        W94438  26.958  43.576  11.119
28030W        W94439  20.218  16.209  14.031
28031W        W94440  33.868  39.408   4.597
28032W        W94441   6.004   3.266  12.577
28033W        W94442  40.687  33.522  12.638
28034W        W94443   0.034   7.605   4.077
28035W        W94444  24.778  15.867   2.095
28036W        W94445  30.082  40.097   0.905
28037W        W94446  17.367  38.276   3.748
28038W        W94447  12.836  14.728  10.808
28039W        W94448  37.398  30.749   2.805
28040W        W94449  19.568  37.781   1.173
28041W        W94450   1.183  18.115   3.675
28042W        W94451  43.392  43.043   4.518
28043W        W94452  12.775  26.499   2.605
28044W        W94453  22.953  19.512   3.292
28045W        W94454  29.200  22.530  13.645
28046W        W94455  28.441   5.292   4.486
28047W        W94456  17.701  12.659  13.498
28048W        W94457  27.160   9.447  13.927
28049W        W94458  14.289  24.126  12.003
28050W        W94459  20.122  18.627  10.705
28051W        W94460   0.064  30.985  13.338
28052W        W94461   5.603  28.154   3.128
28053W        W94462  40.574  11.734  12.934
28054W        W94463   4.905   4.799   1.514
28055W        W94464  29.949   1.272  13.530
28056W        W94465  26.160  42.503   3.788
28057W        W94466  35.307  13.761  12.069
28058W        W94467  42.370  36.292   4.343
28059W        W94468   9.302  28.694  14.748
28060W        W94469  33.678  29.755   3.644
28061W        W94470  28.856  30.328   2.577
28062W        W94471  15.750  10.249  13.580
28063W        W94472  13.907   4.431   1.385
28064W        W94473  35.636  14.603   1.037
28065W        W94474  27.564  21.809   0.751
28066W        W94475  13.299  23.595  14.980
28067W        W94476  22.307  16.706   3.306
28068W        W94477  12.336  24.406   3.166
28069W        W94478   4.701  30.436  11.094
28070W        W94479  22.779   4.566  14.932
28071W        W94480   7.362  21.432  13.347
28072W        W94481  44.132  35.951  10.369
28073W        W94482  22.294  30.500  12.885
28074W        W94483  17.591  25.558  13.346
28075W        W94484  35.278  30.665  10.406
28076W        W94485  22.639   8.488  13.494
28077W        W94486  26.989   6.895  13.624
28078W        W94487  22.339   6.440  14.086
28079W        W94488  31.536  21.506   4.787
28080W        W94489  29.975  32.315   1.352
28081W        W94490   4.226  15.424   5.084
28082W        W94491  12.198  16.276   0.953
28083W        W94492   0.263   9.906  14.411
28084W        W94493   5.428   3.960   3.722
28085W        W94494  40.229   8.935  10.750
28086W        W94495  24.237  11.007   3.235
28087W        W94496   6.671  39.201   4.787
28088W        W94497   0.998  20.200  11.598
28089W        W94498  16.088  35.076  13.906
28090W        W94499   2.455  34.345   4.344
28091W        W94500  34.456  21.323  14.789
28092W        W94501  40.754  13.532  12.679
28093W        W94502  41.941  21.350   3.692
28094W        W94503  12.985  20.925  10.294
28095W        W94504   3.771  38.444  10.704
28096W        W94505  37.414  16.930  11.670
28097W        W94506  28.487  35.606   4.159
28098W        W94507  30.520  31.147   1.699
28099W        W94508  25.074  40.388   0.302
28100W        W94509   6.453  40.289   0.291
28101W        W94510  40.523  39.350  11.087
28102W        W94511  34.243  29.690   0.878
28103W        W94512  28.563   5.622   4.875
28104W        W94513  29.862  30.437  10.694
28105W        W94514  42.195   8.181   0.631
28106W        W94515  22.815  25.936  11.917
28107W        W94516  40.487  23.765  10.690
28108W        W94517  28.225   0.751   0.076
28109W        W94518  26.211  24.443  14.470
28110W        W94519  12.391  17.644  11.676
28111W        W94520  12.610  39.030   1.241
28112W        W94521  42.339  44.962  14.107
28113W        W94522   6.872  19.576  13.850
28114W        W94523  22.420  40.979  13.827
28115W        W94524  18.063   2.421   2.210
28116W        W94525   1.152   1.336   3.804
28117W        W94526  15.601  18.453  10.057
28118W        W94527  24.725   8.835   2.695
28119W        W94528  29.336  37.103   4.835
28120W        W94529  34.494  17.578  13.500
28121W        W94530  10.764  11.758  10.728
28122W        W94531  22.969  35.962   0.783
28123W        W94532  38.489  13.406  11.562
28124W        W94533  16.828  34.157   3.744
28125W        W94534  13.635   1.671   2.243
28126W        W94535   2.879  22.713   0.230
28127W        W94536  13.798  35.010   0.831
28128W        W94537  17.282  30.464   3.610
28129W        W94538  37.052  42.725  12.543
28130W        W94539  16.303  40.766   3.866
28131W        W94540  11.332  23.736   1.266
28132W        W94541  39.212  16.660   0.807
28133W        W94542  20.488  17.658   2.726
28134W        W94543  23.966  39.475   1.538
28135W        W94544  36.051  43.088  12.027
28136W        W94545   4.688   4.229   9.567
28137W        W94546  42.841  22.655   3.201
28138W        W94547  17.942  41.460  11.530
28139W        W94548  20.552  40.411   4.971
28140W        W94549  27.497  11.216  12.492
28141W        W94550  23.567  19.862  11.169
28142W        W94551  33.614   3.259  13.421
28143W        W94552  15.291  27.917  12.975
28144W        W94553  39.571  30.109  13.418
28145W        W94554  10.205  31.924   0.449
28146W        W94555   1.977  18.166  11.957
28147W        W94556  17.283   0.074  13.137
28148W        W94557  41.821  39.479   2.242
28149W        W94558  41.660  27.600   0.309
28150W        W94559  13.240  35.875   4.748
28151W        W94560  35.192   0.282   3.008
28152W        W94561  44.985  44.840  12.994
28153W        W94562  26.267  18.828  11.167
28154W        W94563   4.429  29.012   4.725
28155W        W94564   2.474  38.116  12.761
28156W        W94565  27.914  10.223   3.628
28157W        W94566  30.087  31.180   0.743
28158W        W94567  20.103  18.428   2.531
28159W        W94568  40.907  38.485   3.667
28160W        W94569  26.422  31.137   3.770
28161W        W94570  40.203   6.146  11.602
28162W        W94571  39.800  35.339  11.039
28163W        W94572  32.480  35.806   2.108
28164W        W94573  10.225  18.696   2.142
28165W        W94574  39.882  38.730   3.990
28166W        W94575  37.489   1.383   0.361
28167W        W94576  10.860  14.336   0.763
28168W        W94577  36.623   3.550  12.513
28169W        W94578   0.198  35.602   3.930
28170W        W94579   3.733   5.160  11.435
28171W        W94580  18.779  10.497   3.260
28172W        W94581  22.928  31.016  14.265
28173W        W94582  23.191  27.231   3.827
28174W        W94583  43.866   4.831  11.904
28175W        W94584  34.387  29.995  12.771
28176W        W94585  30.568  11.255   3.259
28177W        W94586  43.945  16.700   0.920
28178W        W94587  26.686  41.851   1.885
28179W        W94588   5.869  18.870  12.239
28180W        W94589  11.818  20.452  10.647
28181W        W94590  41.819  14.173   1.196
28182W        W94591  22.354  31.744  11.518
28183W        W94592   5.544  15.713  14.331
28184W        W94593  39.311  40.272   3.366
28185W        W94594  24.367  43.035   0.100
28186W        W94595  33.534  11.398  14.774
28187W        W94596  16.398  31.670   4.647
28188W        W94597   3.773  32.502   0.399
28189W        W94598   5.244  22.161   0.931
28190W        W94599  36.918   5.324  13.631
28191W        W94600  33.872  15.260   1.753
28192W        W94601  36.494  19.021   1.303
28193W        W94602  42.895  21.458  14.331
28194W        W94603  32.370  19.276   0.350
28195W        W94604  24.933  18.807   4.514
28196W        W94605  39.686   6.369   2.795
28197W        W94606  19.320  36.046  14.376
28198W        W94607  18.358  16.488   0.898
28199W        W94608  24.313   5.839   3.368
28200W        W94609  33.776  30.156  14.057
28201W        W94610   7.180  26.113   3.254
28202W        W94611  22.336  34.306  10.303
28203W        W94612  32.763  24.053   4.347
28204W        W94613  21.059  34.014  14.513
28205W        W94614   6.421   0.453  12.147
28206W        W94615  37.475  36.091  11.007
28207W        W94616  14.547   0.255   1.045
28208W        W94617  24.265  26.346   1.712
28209W        W94618  21.628  25.494   2.290
28210W        W94619  38.620  15.799   3.734
28211W        W94620   8.025  29.309  11.529
28212W        W94621  27.998  38.065  13.846
28213W        W94622  26.074  36.678  14.525
28214W        W94623  24.618  43.993  14.569
28215W        W94624   3.640  17.849  12.170
28216W        W94625   8.478  13.825   4.114
28217W        W94626  41.033  43.940   3.856
28218W        W94627  42.874  38.604  10.269
28219W        W94628  40.468   0.767  13.080
28220W        W94629   2.339  27.396   2.482
28221W        W94630  43.103  19.536  14.775
28222W        W94631  27.037  27.968  14.328
28223W        W94632  38.890  12.179   4.085
28224W        W94633  32.781  40.847   2.906
28225W        W94634  23.314   7.897  13.049
28226W        W94635   6.521  24.539  12.014
28227W        W94636  44.087   5.871   2.668
28228W        W94637  34.946  16.593   1.441
28229W        W94638  40.060  25.355  12.005
28230W        W94639  32.423  38.921  12.764
28231W        W94640  42.386  26.372   5.114
28232W        W94641  41.450  12.191  12.148
28233W        W94642  15.352  37.836   0.400
28234W        W94643  41.061   8.550   5.138
28235W        W94644   9.062  19.786  10.340
28236W        W94645  37.948   2.696   4.536
28237W        W94646  19.358  31.951  10.692
28238W        W94647   1.694  44.958   0.340
28239W        W94648  24.010  23.009   2.878
28240W        W94649  17.677  30.902  11.622
28241W        W94650  21.997  28.967   2.398
28242W        W94651   5.430  41.136  11.175
28243W        W94652   9.262  26.983   3.262
28244W        W94653  28.989   0.358  14.955
28245W        W94654  37.380   7.325  11.530
28246W        W94655   1.261  27.780   3.480
28247W        W94656  44.868  34.122   0.895
28248W        W94657   6.164  35.614  13.130
28249W        W94658  36.818  17.260  14.728
28250W        W94659  43.563  43.061  14.060
28251W        W94660  17.777  32.965  10.675
28252W        W94661   6.821  30.316  12.121
28253W        W94662  32.213  31.545  14.790
28254W        W94663  18.238  13.083  14.891
28255W        W94664  41.606  40.969  13.828
28256W        W94665   1.926   4.177   3.055
28257W        W94666  24.190  31.580  11.634
28258W        W94667  34.320  33.879   2.874
28259W        W94668  20.821  31.025  11.533
28260W        W94669  42.874  27.668   1.701
28261W        W94670  11.067  24.955   1.829
28262W        W94671  32.529  35.835  13.875
28263W        W94672   8.933   1.503  14.738
28264W        W94673   9.933  41.981   3.914
28265W        W94674   6.731  41.247   2.753
28266W        W94675  20.968  27.704  14.028
28267W        W94676   2.670  38.972   2.220
28268W        W94677  12.166  31.613   3.326
28269W        W94678  44.981  13.627   0.428
28270W        W94679  29.442  28.752   1.201
28271W        W94680  20.268  10.287  13.983
28272W        W94681   4.421  10.405  13.539
28273W        W94682  24.806  35.440  13.326
28274W        W94683  18.754  18.270  12.888
28275W        W94684  30.561  28.664   1.956
28276W        W94685  30.167  31.370  11.917
28277W        W94686  24.569  35.035   1.983
28278W        W94687  24.955  25.422   3.961
28279W        W94688  31.380  13.406   3.448
28280W        W94689   8.571   3.614  12.578
28281W        W94690  12.375   1.718   2.743
28282W        W94691   5.279   6.264  10.583
28283W        W94692  37.414  14.701   0.036
28284W        W94693  25.259  32.868   0.893
28285W        W94694  18.053  14.054  12.943
28286W        W94695  11.974  43.640   3.314
28287W        W94696  29.483  25.425  14.313
28288W        W94697  31.119   6.870   4.569
28289W        W94698  12.896  35.630  11.332
28290W        W94699  24.106   2.825   3.740
28291W        W94700  21.561   3.177  13.959
28292W        W94701  42.565   2.355   1.179
28293W        W94702   6.701  24.246   3.112
28294W        W94703  11.120  39.283  11.194
28295W        W94704  43.954  33.393   2.252
28296W        W94705  12.855  36.997   2.794
28297W        W94706  30.585   4.493  13.316
28298W        W94707  35.074  31.598  14.990
28299W        W94708  34.418  33.004  10.952
28300W        W94709  36.963  36.902  14.468
28301W        W94710  21.688  11.186  14.890
28302W        W94711  41.007  24.802   2.624
28303W        W94712  13.859  25.135   3.575
28304W        W94713  28.210  41.285  13.375
28305W        W94714   8.131  28.545  10.596
28306W        W94715  21.921  14.113   4.680
28307W        W94716  27.055   2.726   3.905
28308W        W94717   0.485  40.868  12.825
28309W        W94718  26.797  34.395  11.980
28310W        W94719  37.692  17.315   1.476
28311W        W94720  32.992   1.453  11.536
28312W        W94721  24.742  11.542   9.943
28313W        W94722  28.506  11.250  13.080
28314W        W94723   0.615  44.250  13.633
28315W        W94724  39.373  21.448  12.858
28316W        W94725  18.022  13.556   3.798
28317W        W94726   6.893  36.912   4.478
28318W        W94727  32.575  24.647  12.586
28319W        W94728  31.803  14.633  14.727
28320W        W94729  16.570  35.407  11.514
28321W        W94730  40.564  13.110   4.045
28322W        W94731  42.791  41.087  12.160
28323W        W94732  44.429   0.870  14.326
28324W        W94733  11.840  35.955   4.537
28325W        W94734   1.925  20.500  12.851
28326W        W94735  41.500   7.469  11.739
28327W        W94736  22.336  31.222   3.623
28328W        W94737  12.509   3.758  13.830
28329W        W94738  18.359  36.531  10.115
28330W        W94739   8.143  26.670  14.940
28331W        W94740  44.032   1.207  12.565
28332W        W94741  21.177  33.567  13.791
28333W        W94742   1.748   5.517  14.581
28334W        W94743  11.864  30.436   0.251
28335W        W94744  44.706   1.488   2.313
28336W        W94745  37.948  12.713   0.685
28337W        W94746  16.290  10.244   1.410
28338W        W94747   7.311  39.276  13.714
28339W        W94748  40.285  26.665  13.852
28340W        W94749  15.139  13.699   2.455
28341W        W94750   6.521  22.536  11.179
28342W        W94751  44.909  27.970   4.252
28343W        W94752   4.207  27.073  14.762
28344W        W94753  38.390  10.663   3.961
28345W        W94754  21.637   9.513   1.769
28346W        W94755  43.874  26.488  11.835
28347W        W94756   2.322  18.740   3.675
28348W        W94757  40.427  37.791  11.128
28349W        W94758  36.840  14.772   4.513
28350W        W94759   4.761  39.330   4.624
28351W        W94760  29.765  20.008   0.480
28352W        W94761  18.071  41.430   3.027
28353W        W94762  25.469  41.513   1.334
28354W        W94763   2.961  39.429  13.957
28355W        W94764  32.982  24.770  10.540
28356W        W94765  18.278  21.576  13.934
28357W        W94766  28.078  37.944  11.190
28358W        W94767   5.958  41.577  12.923
28359W        W94768   0.137  14.028   3.719
28360W        W94769  37.451  26.911   0.830
28361W        W94770  23.055  17.222  13.354
28362W        W94771   3.182  26.595   1.859
28363W        W94772  17.073  19.096  11.172
28364W        W94773  28.626  26.472   1.834
28365W        W94774  18.250   2.781   4.860
28366W        W94775  39.690  36.875   0.957
28367W        W94776  36.979  43.791   4.193
28368W        W94777  32.316  38.334  14.486
28369W        W94778  12.370  12.827   2.232
28370W        W94779  14.000  23.895   4.582
28371W        W94780  44.716  40.443   0.851
28372W        W94781  31.521   5.355  11.608
28373W        W94782  19.518  19.707  12.138
28374W        W94783   3.509  11.571  11.319
28375W        W94784   0.429   2.015   3.150
28376W        W94785   9.276  32.911   0.256
28377W        W94786  37.309   7.646  12.175
28378W        W94787  11.284  37.958  12.825
28379W        W94788   4.240  39.221   1.472
28380W        W94789  18.272  16.688  11.028
28381W        W94790  38.888  25.238   3.680
28382W        W94791  10.239  24.396   0.253
28383W        W94792  29.014  19.080  12.803
28384W        W94793  26.074   7.799  10.524
28385W        W94794  11.727  24.754  11.967
28386W        W94795  12.372   1.793   3.565
28387W        W94796  17.219   7.854   2.850
28388W        W94797  41.415  26.532   4.499
28389W        W94798  19.767   0.161  11.982
28390W        W94799  43.396  33.090  11.271
28391W        W94800  24.329  24.574   1.296
28392W        W94801  44.669  38.657   3.639
28393W        W94802  20.551  38.770   2.875
28394W        W94803  17.716  27.996   2.761
28395W        W94804   2.915  22.164   1.398
28396W        W94805   5.900  42.871   2.755
28397W        W94806   4.400  21.245  12.046
28398W        W94807   9.378  14.767  14.391
28399W        W94808  25.175  15.690  10.472
28400W        W94809  39.405  40.049   0.836
28401W        W94810  39.378  14.251   0.958
28402W        W94811  33.944   0.202  10.587
28403W        W94812  24.455  23.001   0.457
28404W        W94813  42.637  19.578   3.274
28405W        W94814   6.738   3.053   1.369
28406W        W94815  35.288  24.751   2.246
28407W        W94816  18.617  35.933   4.125
28408W        W94817  16.731  44.422   1.781
28409W        W94818   8.875  16.871  11.084
28410W        W94819   2.515   0.245   0.386
28411W        W94820  37.975  43.435   2.912
28412W        W94821   3.237   0.324   1.841
28413W        W94822   2.666   5.729   3.258
28414W        W94823  19.083  14.419   0.431
28415W        W94824  15.200  32.085  12.686
28416W        W94825  22.707  11.690   0.411
28417W        W94826   0.998   8.295   4.915
28418W        W94827  23.425  20.521   4.153
28419W        W94828  18.784  33.749   2.391
28420W        W94829  32.377  36.905  13.481
28421W        W94830  39.339  22.884  14.249
28422W        W94831  38.553  32.512  14.315
28423W        W94832   4.450  22.847  11.669
28424W        W94833  19.784  15.777  13.118
28425W        W94834  24.958  34.615  14.493
28426W        W94835   1.806  13.680   3.675
28427W        W94836  27.426  31.224   1.169
28428W        W94837  32.664  44.415   4.362
28429W        W94838  13.902  38.834  11.220
28430W        W94839  13.414  33.107   0.303
28431W        W94840  33.522  36.604  11.790
28432W        W94841  41.745  29.650   0.992
28433W        W94842   8.387  38.895   0.989
28434W        W94843   1.014   9.773  10.134
28435W        W94844  12.611  41.832   3.108
28436W        W94845  43.469  39.218   0.419
28437W        W94846  16.514   5.372   1.374
28438W        W94847  43.456  39.065  11.432
28439W        W94848  10.622  32.734  12.174
28440W        W94849  39.005  33.028   2.815
28441W        W94850  33.572  12.338   1.054
28442W        W94851  25.411   8.089  14.812
28443W        W94852  26.068  33.906   0.826
28444W        W94853  13.342  14.836   2.808
28445W        W94854  22.980   3.508  12.556
28446W        W94855  33.945   7.939   0.733
28447W        W94856   6.604  13.110  13.972
28448W        W94857   1.823  36.106   2.650
28449W        W94858   5.138   1.870  11.542
28450W        W94859  42.060  28.915  10.802
28451W        W94860  21.501  28.656  14.847
28452W        W94861  38.818  20.092  12.100
28453W        W94862  30.630  24.929   0.163
28454W        W94863  26.088  33.389  14.951
28455W        W94864  13.518   7.683  11.380
28456W        W94865  34.636  39.375   3.324
28457W        W94866   2.532  28.924   3.689
28458W        W94867  36.716   6.662  13.482
28459W        W94868  40.969   9.204   1.593
28460W        W94869   8.403  11.728  10.932
28461W        W94870  10.672  36.075   3.795
28462W        W94871  41.424  29.513  14.257
28463W        W94872   4.537  10.109   2.312
28464W        W94873   9.695   2.959  13.065
28465W        W94874  32.955  25.232   1.208
28466W        W94875  18.676  38.830   1.477
28467W        W94876   9.856  17.589   1.875
28468W        W94877   5.294  32.916   3.594
28469W        W94878  41.467   2.207   1.919
28470W        W94879   7.038  24.863   4.070
28471W        W94880  25.436   2.297   0.785
28472W        W94881   3.767  31.745  14.996
28473W        W94882   5.255  33.638   4.603
28474W        W94883  15.226  16.784  14.361
28475W        W94884  24.617  31.490   4.163
28476W        W94885  42.293  43.414   4.431
28477W        W94886  42.878  17.621  10.694
28478W        W94887  37.120   1.227   3.808
28479W        W94888  21.565  27.155  14.828
28480W        W94889  40.479  33.499  11.264
28481W        W94890  24.075  28.182  10.693
28482W        W94891  39.532  18.539  12.666
28483W        W94892  11.644  28.810  10.610
28484W        W94893  14.011  40.483   3.806
28485W        W94894   5.282  28.111  12.999
28486W        W94895  18.651  10.483  13.207
28487W        W94896   2.008   5.411   2.491
28488W        W94897  20.276  19.093   3.810
28489W        W94898  19.590  12.713   4.308
28490W        W94899  31.363   2.000  13.055
28491W        W94900  38.913  23.168   1.399
28492W        W94901   9.907  37.009  10.177
28493W        W94902  24.719  26.593   0.427
28494W        W94903  28.124  19.002  11.972
28495W        W94904   2.381  10.774   0.813
28496W        W94905  22.759  41.329   1.786
28497W        W94906  17.556  20.209  14.511
28498W        W94907  44.395  43.378   4.557
28499W        W94908  11.691  19.620   4.842
28500W        W94909  14.070   2.862   0.807
28501W        W94910  29.185   4.125  14.776
28502W        W94911  25.998  40.502  10.553
28503W        W94912   3.948  44.262   1.440
28504W        W94913  36.614  34.620  11.021
28505W        W94914  43.555  33.417  14.415
28506W        W94915  33.859  24.530  14.940
28507W        W94916   8.938  15.126  13.657
28508W        W94917  39.411  10.864   2.603
28509W        W94918  30.929  40.009   0.836
28510W        W94919  14.046  22.242   4.903
28511W        W94920  44.186   4.870   4.972
28512W        W94921   7.298  27.270   4.928
28513W        W94922   2.407   9.064  12.857
28514W        W94923  10.422   3.312   1.384
28515W        W94924   4.160  21.874   2.559
28516W        W94925   4.287   5.479  10.625
28517W        W94926  11.889  41.748  11.925
28518W        W94927  16.657   8.166   3.652
28519W        W94928   3.269  35.085  11.568
28520W        W94929  44.916  18.795   4.584
28521W        W94930  27.048  12.511  10.450
28522W        W94931   7.906  41.577   0.289
28523W        W94932  15.738  32.750   1.260
28524W        W94933  11.888  28.743  13.388
28525W        W94934  17.841  41.324   4.077
28526W        W94935  15.005   0.304   1.839
28527W        W94936  21.146  38.058  11.106
28528W        W94937  39.089  41.966   0.917
28529W        W94938  28.749   6.818   3.118
28530W        W94939  28.231  35.677   3.717
28531W        W94940  30.632   5.629   1.883
28532W        W94941  25.215  39.114   2.239
28533W        W94942  11.200  30.530  14.629
28534W        W94943  28.839  22.006   0.384
28535W        W94944   6.646  19.601  10.646
28536W        W94945  19.591   5.456   0.754
28537W        W94946  11.291  22.290  11.600
28538W        W94947  17.028  24.621   0.600
28539W        W94948  34.289   7.249  11.368
28540W        W94949  41.033   6.898   2.748
28541W        W94950  19.580   4.491   2.831
28542W        W94951  15.682  20.211   1.397
28543W        W94952   7.952  39.973   3.314
28544W        W94953  26.530  18.295  12.057
28545W        W94954  11.244  12.181  12.907
28546W        W94955  22.655  14.780   2.704
28547W        W94956  34.351  44.363  11.961
28548W        W94957   2.563  12.127  10.782
28549W        W94958  39.480  10.541  11.548
28550W        W94959   1.003  41.130   3.574
28551W        W94960  44.877  17.625   0.870
28552W        W94961   0.926  37.776  12.034
28553W        W94962  20.636  21.179   1.894
28554W        W94963  10.325  12.609  11.491
28555W        W94964  14.189  26.336   0.961
28556W        W94965   2.667  21.484  10.660
28557W        W94966  28.903  40.743  13.125
28558W        W94967  18.549  23.524  12.088
28559W        W94968   2.976  16.238  11.059
28560W        W94969  38.072  23.267  12.945
28561W        W94970  25.361  11.916   3.697
28562W        W94971  28.630  27.738   3.305
28563W        W94972  33.295   9.102  13.374
28564W        W94973  17.279  25.591   0.467
28565W        W94974  33.091  18.103   0.234
28566W        W94975  36.331  29.412   1.660
28567W        W94976  20.008  43.933   2.719
28568W        W94977  34.205  13.703  12.644
28569W        W94978  19.062  42.991   4.341
28570W        W94979  23.138  29.551  14.967
28571W        W94980  31.539  30.196  11.693
28572W        W94981   2.987   7.317   1.785
28573W        W94982  29.120   8.313  13.307
28574W        W94983  34.195   1.772  10.344
28575W        W94984  11.419  19.945  12.783
28576W        W94985  43.058   4.688  10.589
28577W        W94986  18.500  44.214   2.227
28578W        W94987  41.231  13.694  12.078
28579W        W94988  35.892  39.897   0.891
28580W        W94989   5.899  18.577   2.768
28581W        W94990   4.760   9.130  11.635
28582W        W94991  15.870  32.119   3.659
28583W        W94992  37.000  20.471   2.321
28584W        W94993  29.492  35.576  14.292
28585W        W94994  25.649  16.814  14.903
28586W        W94995  39.612  39.162  14.266
28587W        W94996  19.563  42.364  12.894
28588W        W94997   5.958  33.100  13.230
28589W        W94998  36.866  13.157  10.316
28590W        W94999   4.900  16.705  12.649
28591W        W95000  25.169   0.641  13.325
28592W        W95001   1.963  30.640   4.274
28593W        W95002  40.378   5.366  10.733
28594W        W95003  20.682  39.389   3.153
28595W        W95004  36.976  26.582  14.036
28596W        W95005  42.738  35.896  14.741
28597W        W95006  33.463  19.024  12.477
28598W        W95007   0.716  23.586  14.002
28599W        W95008   4.426  29.407  11.213
28600W        W95009  13.049  19.471  11.563
28601W        W95010   9.250  16.600   0.216
28602W        W95011   5.422  38.290  11.910
28603W        W95012   4.401  34.028  13.856
28604W        W95013  26.200  14.417   3.321
28605W        W95014  15.127   0.453   3.328
28606W        W95015  19.116   3.402   4.383
28607W        W95016  37.931   4.547   4.402
28608W        W95017  43.367  14.464  11.104
28609W        W95018   2.813  16.295  13.482
28610W        W95019  11.699  44.282   2.732
28611W        W95020  11.148  15.741   3.660
28612W        W95021   6.692  25.869   1.338
28613W        W95022   7.190  28.481  11.981
28614W        W95023  36.270  25.998  12.925
28615W        W95024   4.814  17.187  12.505
28616W        W95025  15.566  31.639   2.769
28617W        W95026   4.230   6.487  13.025
28618W        W95027  40.318  34.065  13.419
28619W        W95028  26.962   8.744   2.324
28620W        W95029  22.963  23.293   1.706
28621W        W95030  20.706  18.538   3.144
28622W        W95031  11.734  11.090  14.970
28623W        W95032  27.826   4.975  11.741
28624W        W95033   0.244  22.728   0.254
28625W        W95034  29.967   8.111   2.622
28626W        W95035   7.620   7.662   4.367
28627W        W95036   2.359  22.910   3.649
28628W        W95037  27.524  28.426   3.760
28629W        W95038  32.017  28.889  10.843
28630W        W95039   5.811  38.535   1.143
28631W        W95040  34.063  27.507   1.657
28632W        W95041  43.542  28.663  12.627
28633W        W95042  33.181  40.376  10.752
28634W        W95043  32.313  39.134  14.930
28635W        W95044  13.040  21.374  10.010
28636W        W95045  24.092   4.336  14.393
28637W        W95046  24.312  44.706  13.122
28638W        W95047   7.224  42.264   1.150
28639W        W95048  31.142  34.561  11.874
28640W        W95049  22.091  44.868  12.044
28641W        W95050  31.455   5.376  13.433
28642W        W95051  27.148  23.691   4.719
28643W        W95052  15.835  28.478  13.488
28644W        W95053  25.537  12.815  13.069
28645W        W95054  36.152  20.727  13.166
28646W        W95055  20.730  31.838  13.366
28647W        W95056  15.834  37.321  13.031
28648W        W95057   5.683  22.176   4.647
28649W        W95058   5.778   0.795   1.409
28650W        W95059  34.021  43.947  12.013
28651W        W95060  15.057  23.534   1.751
28652W        W95061  32.624  28.011  12.390
28653W        W95062   5.217  22.039  14.738
28654W        W95063  38.500   8.385  11.085
28655W        W95064  34.421  19.670  13.264
28656W        W95065  21.107  18.382  13.164
28657W        W95066  40.480  33.023   0.974
28658W        W95067  39.092  30.483  12.812
28659W        W95068   3.695  35.889  10.729
28660W        W95069  32.276  14.315   5.021
28661W        W95070  43.213  22.564  12.151
28662W        W95071   6.916  25.742  13.874
28663W        W95072  18.987  21.243   4.955
28664W        W95073  42.255  32.412  10.481
28665W        W95074  18.128  25.914  12.706
28666W        W95075  22.243  20.256  14.802
28667W        W95076  39.989  38.892  14.477
28668W        W95077  31.907  17.682  11.541
28669W        W95078  35.606  40.775  14.992
28670W        W95079  18.768  21.453  13.945
28671W        W95080  29.766  17.170   4.150
28672W        W95081  22.790  41.238   4.226
28673W        W95082  29.937  27.025   1.285
28674W        W95083  34.599  24.768   1.187
28675W        W95084   9.927   1.646  11.529
28676W        W95085  12.114  27.207   2.395
28677W        W95086  33.765  15.564   4.862
28678W        W95087  34.084  41.360   4.682
28679W        W95088   4.013  39.405   2.378
28680W        W95089  28.149  38.860   2.684
28681W        W95090  19.678  21.202  13.147
28682W        W95091  36.933  25.469  14.858
28683W        W95092  29.451  10.844  14.415
28684W        W95093  13.098  36.934   0.955
28685W        W95094   7.939   8.148  12.520
28686W        W95095  33.057  40.582  13.497
28687W        W95096  18.214   5.963  12.463
28688W        W95097  43.922  36.024  10.852
28689W        W95098  19.570   4.256  12.431
28690W        W95099  41.360  41.602   3.752
28691W        W95100   5.778  24.125   2.106
28692W        W95101  27.447  27.720   2.908
28693W        W95102   7.090  42.476   2.840
28694W        W95103  10.067  32.883  12.779
28695W        W95104  24.006   0.664   3.228
28696W        W95105  24.537  30.942  10.689
28697W        W95106  12.703   4.240  14.940
28698W        W95107  23.696  34.983  11.585
28699W        W95108   9.904   8.192  12.019
28700W        W95109  26.155  37.851   2.840
28701W        W95110   4.947   4.976   1.990
28702W        W95111  14.926  38.980   4.227
28703W        W95112   1.022  10.680  12.015
28704W        W95113  44.065  22.134   3.970
28705W        W95114   9.268  12.285   4.384
28706W        W95115   0.761  17.165   0.833
28707W        W95116  10.233  37.964   4.646
28708W        W95117  28.998   7.417   2.115
28709W        W95118  17.704  31.099  10.693
28710W        W95119  24.563  42.268  14.791
28711W        W95120   9.818   2.786   0.378
28712W        W95121  23.025  41.973   2.594
28713W        W95122  22.813   0.755   4.706
28714W        W95123  21.659  38.478  12.387
28715W        W95124  11.157  36.960  12.617
28716W        W95125  17.749  15.766  11.630
28717W        W95126  12.788   4.749  14.855
28718W        W95127  21.578   5.160  11.669
28719W        W95128  20.281  37.453  12.976
28720W        W95129  44.655  37.768  11.974
28721W        W95130  29.633  36.898   0.881
28722W        W95131  43.427   3.360   4.515
28723W        W95132   9.822  24.542  11.575
28724W        W95133  10.207   9.358   4.804
28725W        W95134  14.360  28.517  12.054
28726W        W95135   3.386  23.390   1.802
28727W        W95136   7.329   7.280  13.375
28728W        W95137  11.866  37.594   3.555
28729W        W95138  36.427  28.886   2.902
28730W        W95139   6.270  38.065  11.931
28731W        W95140   3.299  23.499   3.503
28732W        W95141  26.036   1.751  12.537
28733W        W95142   2.045  12.592  10.476
28734W        W95143  17.774   0.240  13.066
28735W        W95144  19.318  31.431  12.484
28736W        W95145  16.730  14.137  13.887
28737W        W95146   5.220  41.741   2.258
28738W        W95147  18.205  11.815   0.889
28739W        W95148  29.858  35.481   0.043
28740W        W95149  29.657   9.177   3.503
28741W        W95150  23.176  16.358   1.221
28742W        W95151  21.335   6.121  11.198
28743W        W95152  23.856  24.544   0.451
28744W        W95153  19.296  13.231  10.784
28745W        W95154  25.925  31.299   3.656
28746W        W95155  38.920  30.179   2.197
28747W        W95156  31.460  39.939   1.860
28748W        W95157  22.751  43.946  12.840
28749W        W95158   0.710  35.084   1.942
28750W        W95159  18.954  40.939  14.296
28751W        W95160  38.341  14.282  10.631
28752W        W95161  18.452  35.127   4.113
28753W        W95162  39.984  39.187   0.407
28754W        W95163   7.208  21.985  11.113
28755W        W95164  22.048  27.875  10.631
28756W        W95165   1.380  21.937  12.491
28757W        W95166  43.264  31.408   0.259
28758W        W95167  18.991  36.841   1.425
28759W        W95168  38.597   7.211  14.443
28760W        W95169  27.795  26.157   4.014
28761W        W95170  11.945  12.158  14.007
28762W        W95171  43.042  44.093  12.006
28763W        W95172  27.244  30.052   0.010
28764W        W95173  44.312   2.335  10.492
28765W        W95174  15.484  19.696  13.884
28766W        W95175  21.969  18.582   2.368
28767W        W95176  26.438  31.111  11.557
28768W        W95177  12.861  33.518   1.825
28769W        W95178  33.141  16.731   1.389
28770W        W95179  34.898  36.568   1.016
28771W        W95180  17.784  34.466  11.594
28772W        W95181  16.780  26.751   4.191
28773W        W95182  38.485   5.028   3.211
28774W        W95183  19.908  34.445   4.696
28775W        W95184  42.284  29.726   0.955
28776W        W95185  32.862   3.286   3.544
28777W        W95186  28.550   0.640   2.839
28778W        W95187  16.497  40.895  12.511
28779W        W95188  18.993  26.728  14.332
28780W        W95189  24.684  29.485  12.764
28781W        W95190  24.053  29.925  11.215
28782W        W95191  39.004  28.181   4.048
28783W        W95192   9.350  15.623  14.866
28784W        W95193   5.962  28.969   1.315
28785W        W95194   5.275   5.476   0.273
28786W        W95195  21.398   2.714   1.203
28787W        W95196  17.313  13.164   1.222
28788W        W95197  42.345  18.836   4.937
28789W        W95198  18.278   4.770  13.959
28790W        W95199  34.127   9.568  14.598
28791W        W95200  42.569  38.575  11.666
28792W        W95201  27.602  36.167   1.264
28793W        W95202   6.781  44.290   3.206
28794W        W95203  25.095  19.199  12.051
28795W        W95204  31.351  38.038  13.146
28796W        W95205  23.279   3.878  12.983
28797W        W95206  29.567   8.532  13.128
28798W        W95207  15.861  15.585   0.888
28799W        W95208  36.511   4.675  14.833
28800W        W95209  29.695  21.906  13.443
28801W        W95210  13.423  18.327  10.974
28802W        W95211  35.360  23.044  12.160
28803W        W95212  41.776  11.850  12.402
28804W        W95213  10.159   3.741  14.373
28805W        W95214  39.091  33.052   0.037
28806W        W95215  42.413   9.881  13.459
28807W        W95216  15.728   9.340   3.392
28808W        W95217  36.653  42.250   0.219
28809W        W95218  40.961   6.916   1.890
28810W        W95219  43.782  38.292   3.466
28811W        W95220  33.038   3.798   2.877
28812W        W95221  19.279  24.268   4.955
28813W        W95222  23.843  30.906   5.087
28814W        W95223  32.603  27.149  13.919
28815W        W95224   6.283  38.337  12.354
28816W        W95225  41.852  20.790   2.898
28817W        W95226  42.854  27.097   4.725
28818W        W95227   9.574  12.184  13.951
28819W        W95228  15.774  42.950  12.115
28820W        W95229  30.785  29.695   4.944
28821W        W95230  26.681  20.945   1.327
28822W        W95231  22.204  29.087  14.956
28823W        W95232   6.258  25.566   2.977
28824W        W95233   0.415  30.823   0.789
28825W        W95234  34.438  18.770   4.536
28826W        W95235  11.627  44.691  12.235
28827W        W95236  16.225  28.968   3.662
28828W        W95237   9.134   5.708   3.279
28829W        W95238  36.391  18.304  14.020
28830W        W95239   9.703   7.176  10.634
28831W        W95240  39.534   1.215  11.529
28832W        W95241  14.168  17.330  14.092
28833W        W95242  13.164   3.636   4.068
28834W        W95243   5.731   3.476   1.029
28835W        W95244   2.348  31.950  13.703
28836W        W95245  34.391  12.559   4.311
28837W        W95246   6.787  24.942   0.930
28838W        W95247  25.464  28.486   3.934
28839W        W95248  11.577   7.262   2.185
28840W        W95249  25.780  34.573  12.144
28841W        W95250   6.754  12.776   1.884
28842W        W95251  33.009  39.693   4.868
28843W        W95252  16.969  25.578   5.008
28844W        W95253   3.883   9.440  12.221
28845W        W95254  35.296  40.351  13.058
28846W        W95255  29.639  39.341  11.131
28847W        W95256  22.734   3.199   2.161
28848W        W95257  25.353   4.907  11.601
28849W        W95258  15.991  18.824  13.064
28850W        W95259  30.345  42.508  13.969
28851W        W95260  16.247  28.270  12.329
28852W        W95261  28.119   2.759   2.028
28853W        W95262  22.469  15.852   2.119
28854W        W95263  25.548  23.561   0.940
28855W        W95264  10.040  19.132   1.211
28856W        W95265   9.489  18.261   2.626
28857W        W95266  38.801  40.893  11.012
28858W        W95267  42.493  39.074   0.520
28859W        W95268  11.751   0.270  13.367
28860W        W95269   1.555  20.988   3.593
28861W        W95270  35.093  34.068  10.792
28862W        W95271   4.899  44.437  11.207
28863W        W95272  32.061   7.443   0.180
28864W        W95273  23.047  38.884   1.810
28865W        W95274   6.415   9.945  11.120
28866W        W95275   7.714  38.551  14.544
28867W        W95276  16.162  24.647   1.949
28868W        W95277   4.661  23.917  11.012
28869W        W95278  10.847   3.344   0.019
28870W        W95279  21.393  19.143  11.909
28871W        W95280  17.587  40.912  10.666
28872W        W95281  17.421  16.573   4.354
28873W        W95282   4.585  23.369  14.019
28874W        W95283  28.646   9.275  13.459
28875W        W95284   6.008  27.069   4.883
28876W        W95285   0.230  22.985  10.779
28877W        W95286  14.309  31.444   0.908
28878W        W95287  25.678  37.818  12.095
28879W        W95288   7.131  20.024  13.468
28880W        W95289  38.351   2.474  10.643
28881W        W95290  27.276  29.647  14.406
28882W        W95291  37.882  44.805   1.935
28883W        W95292  26.614  15.037  10.717
28884W        W95293  43.365  17.983   2.746
28885W        W95294  30.980  31.947  12.600
28886W        W95295  35.926  21.252   0.828
28887W        W95296  21.984  36.404  12.035
28888W        W95297   2.634   5.872  13.429
28889W        W95298  20.811  41.522   2.640
28890W        W95299  17.656  41.454   1.814
28891W        W95300   3.745  38.923   1.156
28892W        W95301  21.599  21.627   0.616
28893W        W95302  21.083   9.611   1.824
28894W        W95303  40.660  13.602  13.935
28895W        W95304  38.135  17.331  13.006
28896W        W95305  10.411  36.418   1.172
28897W        W95306  39.264  14.707   4.890
28898W        W95307  33.165   9.908  12.053
28899W        W95308  12.521  19.978   1.005
28900W        W95309  24.715  40.209  12.742
28901W        W95310  27.253  16.577  14.022
28902W        W95311  31.647  43.819   1.351
28903W        W95312  30.636   7.249  11.142
28904W        W95313  26.958   5.768   5.008
28905W        W95314  15.654  42.292   0.933
28906W        W95315   7.905  33.200   3.211
28907W        W95316  43.749  18.410  13.037
28908W        W95317  18.636  31.110  14.899
28909W        W95318  20.204  37.072  11.621
28910W        W95319   4.273  40.587  14.881
28911W        W95320  33.142   0.706  12.907
28912W        W95321  24.565  14.580  10.693
28913W        W95322  12.915  34.259  10.551
28914W        W95323  30.271  32.405   3.097
28915W        W95324  16.662  36.447   1.918
28916W        W95325   2.915  22.206   2.239
28917W        W95326  30.034   6.999  13.034
28918W        W95327  34.355  24.884  11.625
28919W        W95328  36.615   4.319  14.437
28920W        W95329  38.308  26.143   2.259
28921W        W95330  36.956  32.162  13.455
28922W        W95331  37.712  31.001   3.161
28923W        W95332  38.567  44.388   2.193
28924W        W95333  10.030   2.427   2.583
28925W        W95334  23.576  41.912  11.676
28926W        W95335  15.218  43.868   1.223
28927W        W95336  33.680  42.895  14.729
28928W        W95337  37.934  24.702  14.497
28929W        W95338  30.562  25.274   2.636
28930W        W95339  42.017  21.718  14.098
28931W        W95340   5.545  22.033   3.199
28932W        W95341  42.055  23.235  14.024
28933W        W95342   0.747  13.459   1.214
28934W        W95343  23.700  31.163   4.163
28935W        W95344   4.739  32.019  12.987
28936W        W95345  34.535  32.603  13.208
28937W        W95346  25.168  16.357   2.499
28938W        W95347  11.818  34.581  12.429
28939W        W95348  30.497  42.163   1.205
28940W        W95349   0.474  35.839  13.850
28941W        W95350  27.408  43.491   2.410
28942W        W95351  27.420   6.348   3.311
28943W        W95352  34.393  15.702   2.645
28944W        W95353  44.335  20.837   5.158
28945W        W95354  36.957  22.015   0.187
28946W        W95355  29.591  28.854  14.793
28947W        W95356   1.203  37.797  13.943
28948W        W95357  13.770   8.875   4.121
28949W        W95358  43.215  38.497  13.498
28950W        W95359   2.237  20.992   1.466
28951W        W95360   2.846  35.993   2.152
28952W        W95361   5.384  24.085   2.809
28953W        W95362   0.449  31.959   2.170
28954W        W95363  16.913  33.380  14.132
28955W        W95364   0.410  36.569   0.745
28956W        W95365  31.425   8.331  12.426
28957W        W95366   6.351  23.552   4.494
28958W        W95367  22.670   5.685   0.854
28959W        W95368  36.384  26.491  13.158
28960W        W95369   0.822   4.668   0.859
28961W        W95370  36.592  33.758  10.046
28962W        W95371  11.719  21.159   1.617
28963W        W95372  38.599  29.588   0.408
28964W        W95373   1.172  36.038  12.308
28965W        W95374  19.311  24.557  11.118
28966W        W95375  39.010  13.292   3.557
28967W        W95376   8.245  42.568   3.197
28968W        W95377  28.483  17.141  13.455
28969W        W95378  11.808   5.284   3.722
28970W        W95379  34.325  26.009  11.856
28971W        W95380  24.943   2.443  13.952
28972W        W95381  30.919  29.893  10.838
28973W        W95382  25.196  40.813   0.580
28974W        W95383  32.401   3.935   3.207
28975W        W95384  31.523  18.258   4.294
28976W        W95385  33.870  22.096   0.846
28977W        W95386  41.834   4.369   3.641
28978W        W95387  10.994   6.518  13.478
28979W        W95388   2.664  27.473  12.115
28980W        W95389  28.038  43.891  12.404
28981W        W95390  21.188  42.800  13.470
28982W        W95391  33.549   3.521   1.803
28983W        W95392  11.112  27.662   0.243
28984W        W95393   8.884  40.631   3.241
28985W        W95394  22.136  10.511  12.702
28986W        W95395   3.456   0.033  12.435
28987W        W95396   2.232  11.846  13.453
28988W        W95397  41.850  23.840  12.312
28989W        W95398  31.140   7.138   4.101
28990W        W95399   9.608  34.157   0.727
28991W        W95400  32.007  26.238   0.456
28992W        W95401   2.691   8.532   3.839
28993W        W95402  14.078  27.118   2.682
28994W        W95403  36.423  36.942  13.531
28995W        W95404  42.069  28.125   2.213
28996W        W95405  20.015  36.731  14.396
28997W        W95406  44.456  25.622   0.388
28998W        W95407   1.425  21.996   3.708
28999W        W95408  28.512  41.009   3.586
29000W        W95409   0.594   7.239  10.374
29001W        W95410  13.875  13.648   3.578
29002W        W95411  44.854  13.828  13.261
29003W        W95412  32.551  35.050  12.233
29004W        W95413  15.917  40.301   3.739
29005W        W95414   5.315   8.857   0.680
29006W        W95415   2.484   9.231  10.774
29007W        W95416  19.486  23.540   1.666
29008W        W95417  14.767   5.124  14.331
29009W        W95418   6.139  32.395   2.261
29010W        W95419   1.560  14.542   0.472
29011W        W95420  28.314   6.661  12.122
29012W        W95421  20.064   0.792  11.201
29013W        W95422  18.787  21.655  14.870
29014W        W95423  22.088  34.369  14.505
29015W        W95424  40.498  39.455   3.791
29016W        W95425  36.941  12.323  11.993
29017W        W95426  38.575   4.339  11.740
29018W        W95427  17.172  13.845  13.916
29019W        W95428  39.036  15.421   1.818
29020W        W95429  43.832   9.998  14.411
29021W        W95430  35.529   4.884  14.512
29022W        W95431   9.718  37.532   0.380
29023W        W95432  13.805  33.596   2.895
29024W        W95433  32.404  16.374  13.963
29025W        W95434   0.286  28.025   0.746
29026W        W95435  18.082   6.338   4.284
29027W        W95436  28.403  41.228  14.430
29028W        W95437  44.494  28.896   4.074
29029W        W95438   4.472  13.860  11.194
29030W        W95439  25.517  39.883  12.146
29031W        W95440  34.881  39.922  14.323
29032W        W95441   1.972  41.609  10.715
29033W        W95442   2.360  14.705   4.242
29034W        W95443  38.135  13.951  12.837
29035W        W95444  34.866   7.309   1.762
29036W        W95445  12.376  12.113  11.140
29037W        W95446  18.737  34.169   2.067
29038W        W95447   6.707  11.729  11.242
29039W        W95448  26.442  10.339   0.345
29040W        W95449  44.903   8.248   0.816
29041W        W95450  13.807   1.419   2.670
29042W        W95451  23.675  13.527  12.024
29043W        W95452  41.820  44.326   4.288
29044W        W95453  36.442   3.245   4.534
29045W        W95454  11.091  16.133   4.218
29046W        W95455  14.547  37.380  13.411
29047W        W95456  35.043   8.232  11.785
29048W        W95457  44.273  13.167  13.917
29049W        W95458  35.389  31.757   0.460
29050W        W95459  24.519  15.593   3.410
29051W        W95460  27.175   4.631   3.106
29052W        W95461  37.266   8.569   0.503
29053W        W95462  25.402  34.919   4.893
29054W        W95463  32.389  40.570  12.441
29055W        W95464   5.416  31.934  13.255
29056W        W95465  31.029  23.908  12.890
29057W        W95466  10.871  24.462   1.834
29058W        W95467  21.232   0.909  13.145
29059W        W95468  38.874   0.255  12.080
29060W        W95469   3.292  14.948  14.607
29061W        W95470  28.682  41.079  13.446
29062W        W95471  38.926  39.120   0.818
29063W        W95472  33.889  13.610   2.974
29064W        W95473  31.763  39.571  12.345
29065W        W95474  43.969  33.531  11.089
29066W        W95475  35.909  16.525   4.780
29067W        W95476  35.963  22.287   4.502
29068W        W95477  42.098  42.222  13.103
29069W        W95478  17.184  25.984   0.833
29070W        W95479  24.773  44.890  13.284
29071W        W95480   8.083  17.775   3.129
29072W        W95481  27.156  21.745  13.946
29073W        W95482  41.746   4.443  13.342
29074W        W95483   4.111   5.627  13.851
29075W        W95484   4.248  42.767  12.031
29076W        W95485  25.602  26.613   4.647
29077W        W95486  10.908  15.223  11.254
29078W        W95487  32.151  34.074  11.600
29079W        W95488  26.117  13.294   2.651
29080W        W95489   7.706  12.419   0.385
29081W        W95490  27.568  21.037   1.363
29082W        W95491  40.582  26.113   1.458
29083W        W95492   5.418  17.636   2.602
29084W        W95493   2.253  28.614  13.907
29085W        W95494  30.056  43.564  14.537
29086W        W95495  35.574   5.362  13.977
29087W        W95496   8.399  42.152  13.299
29088W        W95497  18.299  29.201   3.703
29089W        W95498  43.004  39.310  10.268
29090W        W95499  29.456   0.495   1.268
29091W        W95500   4.867  38.914  13.078
29092W        W95501  41.754  43.383   1.472
29093W        W95502   0.470  16.229   1.951
29094W        W95503  28.359   5.716  13.687
29095W        W95504  28.773  11.883   3.681
29096W        W95505  33.549  35.045   4.494
29097W        W95506   7.443  13.495  12.544
29098W        W95507  40.554  37.696   2.286
29099W        W95508  34.140  40.689   2.787
29100W        W95509  24.929  12.698  13.112
29101W        W95510   2.610  12.561  12.494
29102W        W95511  15.063   7.263   3.203
29103W        W95512  24.451  26.188  14.216
29104W        W95513   4.353   9.599  13.097
29105W        W95514  12.783  27.177  12.076
29106W        W95515  10.159   0.707   1.794
29107W        W95516  30.012  12.547  12.133
29108W        W95517  16.830  21.810  13.086
29109W        W95518  17.745  43.453  13.418
29110W        W95519  31.379  41.802   1.836
29111W        W95520  28.100  33.434  14.181
29112W        W95521  18.236  33.479   4.555
29113W        W95522   0.768  40.124   5.065
29114W        W95523  31.000  15.891  13.410
29115W        W95524   9.864  40.371   2.616
29116W        W95525  37.110  11.294  11.969
29117W        W95526  24.068  19.288   1.982
29118W        W95527  35.501  35.561   3.550
29119W        W95528  28.143  25.057   2.234
29120W        W95529  10.198   0.184  13.379
29121W        W95530  24.533  19.207  10.806
29122W        W95531   3.872  37.781   2.779
29123W        W95532  13.579   5.422  11.144
29124W        W95533  25.339  44.905  11.460
29125W        W95534  21.616  21.736   2.593
29126W        W95535  11.723  40.007  12.917
29127W        W95536   4.954   1.504  14.996
29128W        W95537  42.201  38.854   0.879
29129W        W95538  42.631  15.796   0.344
29130W        W95539  38.065   7.241  12.091
29131W        W95540   1.266  30.057   0.820
29132W        W95541  31.042   1.947  11.543
29133W        W95542  26.187  25.488  11.157
29134W        W95543   5.694  36.048   2.521
29135W        W95544   2.981  44.847  12.459
29136W        W95545  26.221   5.325  13.977
29137W        W95546  18.999  27.588   4.329
29138W        W95547   2.039  23.176  14.350
29139W        W95548  41.277  42.279  14.339
29140W        W95549  16.360   5.142   3.895
29141W        W95550  32.830  40.573   0.340
29142W        W95551  14.238  27.107  11.125
29143W        W95552  16.136   8.396   3.811
29144W        W95553  37.733   8.794   0.420
29145W        W95554  33.450  21.088   0.731
29146W        W95555  44.372  33.112  12.620
29147W        W95556  38.551   4.849   3.685
29148W        W95557   6.790   0.971   3.444
29149W        W95558   5.444  40.386  10.705
29150W        W95559  42.430  34.456  11.127
29151W        W95560  43.909  16.479   3.443
29152W        W95561  14.825   7.680   2.822
29153W        W95562  18.752  14.488  13.369
29154W        W95563  11.758  18.937  11.524
29155W        W95564  11.678  26.033   0.213
29156W        W95565  35.733  31.374   0.531
29157W        W95566  35.669  10.472  11.530
29158W        W95567   2.481  30.487  13.059
29159W        W95568   2.932  19.680   3.674
29160W        W95569   4.800  22.982   2.303
29161W        W95570  39.887   2.166  12.049
29162W        W95571  13.772  27.242  14.501
29163W        W95572   6.370   5.774   2.852
29164W        W95573  38.407   3.637   4.128
29165W        W95574  30.850  10.307   4.542
29166W        W95575  30.530  31.049  14.225
29167W        W95576  41.855  12.965  10.754
29168W        W95577  32.911  28.187  11.219
29169W        W95578  38.068  29.629  11.579
29170W        W95579  11.474  10.181  14.197
29171W        W95580  20.350  32.065   3.790
29172W        W95581  40.479  26.728  13.360
29173W        W95582  18.933  36.933  10.837
29174W        W95583  14.270  38.497   1.723
29175W        W95584   9.155  17.579  13.285
29176W        W95585  23.919  10.360   1.192
29177W        W95586  35.892   8.607  11.192
29178W        W95587  33.391  38.874   2.895
29179W        W95588  32.921  36.924  14.350
29180W        W95589  39.989  42.967  11.459
29181W        W95590   6.810  14.082   3.539
29182W        W95591  30.684  37.722  12.059
29183W        W95592  16.044  16.245   3.660
29184W        W95593  11.564  13.367  10.673
29185W        W95594  43.719  18.071  10.807
29186W        W95595  12.307  23.845   4.034
29187W        W95596   3.027  40.852  13.936
29188W        W95597  16.339   5.136   1.786
29189W        W95598  10.223  21.566  13.540
29190W        W95599   9.994   8.411   2.736
29191W        W95600  37.587  21.809   2.266
29192W        W95601   5.459  36.039  12.524
29193W        W95602  39.604   8.356   0.050
29194W        W95603   9.446  19.297   2.929
29195W        W95604  23.591   6.288  10.590
29196W        W95605  33.995  17.541   3.940
29197W        W95606  42.785  17.973  11.655
29198W        W95607  16.548   1.798   3.237
29199W        W95608  25.933  11.546  14.921
29200W        W95609  10.476  43.779  11.617
29201W        W95610  35.375  12.616  10.665
29202W        W95611  21.618  29.749   0.921
29203W        W95612  14.087   2.819   2.616
29204W        W95613   3.728  42.097  11.309
29205W        W95614  37.796   9.814  13.945
29206W        W95615  28.116  14.749   0.318
29207W        W95616  44.540  43.323  13.774
29208W        W95617  14.222  10.044   4.096
29209W        W95618  38.783  12.888   0.470
29210W        W95619  39.648  15.832  14.908
29211W        W95620   8.823  23.134   3.406
29212W        W95621   4.632  43.817   1.931
29213W        W95622  38.057  40.904  12.111
29214W        W95623  41.974  34.426   0.725
29215W        W95624  12.877  27.590   4.645
29216W        W95625  16.163  29.935   1.306
29217W        W95626  25.546  44.328   2.149
29218W        W95627  43.276  37.201  12.919
29219W        W95628  30.575  27.505   3.207
29220W        W95629   8.473  29.202   3.797
29221W        W95630  20.660  37.323  14.168
29222W        W95631  11.351  37.369  12.160
29223W        W95632  26.207  21.683  14.889
29224W        W95633  35.419   7.860   3.773
29225W        W95634  17.806  31.434  14.421
29226W        W95635  41.818  18.000   0.304
29227W        W95636  12.696  14.443  12.144
29228W        W95637  32.256  37.980  14.863
29229W        W95638  26.617  13.788   4.432
29230W        W95639  38.737  20.840   1.097
29231W        W95640  25.220  16.169  12.561
29232W        W95641  14.071  30.387  12.580
29233W        W95642  27.949  11.313   2.661
29234W        W95643  42.690   5.834   3.154
29235W        W95644  16.647  18.059   1.292
29236W        W95645  18.654  36.192  11.754
29237W        W95646  43.693  39.013   0.894
29238W        W95647  27.867  33.407   3.732
29239W        W95648  32.027  28.605   3.117
29240W        W95649  29.732  16.085   2.386
29241W        W95650  37.787   5.189   1.909
29242W        W95651  42.890   8.569  14.854
29243W        W95652  35.064  17.175   3.229
29244W        W95653   7.401  36.495  14.360
29245W        W95654  18.709  35.017   4.550
29246W        W95655  17.519  17.563  12.514
29247W        W95656   7.113  24.155   2.833
29248W        W95657  35.916  41.488   1.919
29249W        W95658  42.256  18.104  10.233
29250W        W95659   1.412  17.099  14.071
29251W        W95660  33.894  21.216  12.507
29252W        W95661  26.026   5.904   2.797
29253W        W95662  41.408  43.201  13.460
29254W        W95663   7.598  18.578  11.204
29255W        W95664  31.036  17.827  13.406
29256W        W95665  12.627  27.737  14.458
29257W        W95666  24.507  39.258  12.384
29258W        W95667  28.196  11.668  11.513
29259W        W95668  11.898  26.861   2.775
29260W        W95669   0.177  24.700  14.514
29261W        W95670   0.556   5.387   4.892
29262W        W95671  13.194  37.803   1.077
29263W        W95672   2.358  17.830   1.750
29264W        W95673  16.999  38.490   1.355
29265W        W95674  27.443  16.451   1.901
29266W        W95675  14.855  10.157  13.839
29267W        W95676  11.712  28.485   3.636
29268W        W95677  16.668  16.106   1.391
29269W        W95678  17.864  13.643   1.326
29270W        W95679  37.543  30.371   4.372
29271W        W95680  43.992  26.721   2.348
29272W        W95681  19.993  13.331  14.836
29273W        W95682  33.227  34.459  13.911
29274W        W95683  27.235  41.775  14.571
29275W        W95684  24.090   2.780   0.811
29276W        W95685  25.194  40.240   4.325
29277W        W95686  44.208   5.997  11.623
29278W        W95687   0.773  14.508   2.651
29279W        W95688   0.880  36.992  13.733
29280W        W95689  41.816  43.351  12.394
29281W        W95690  22.981  30.380   2.295
29282W        W95691  13.099  40.775  13.994
29283W        W95692  19.639  41.873   0.538
29284W        W95693  29.734   2.085  12.309
29285W        W95694   1.844   4.267   3.611
29286W        W95695  33.998  13.145  13.375
29287W        W95696  26.516   8.620   2.874
29288W        W95697  19.212   9.884  14.464
29289W        W95698  30.658  19.533   1.254
29290W        W95699  37.488  17.423   2.797
29291W        W95700  42.242  33.280   3.198
29292W        W95701  10.586  44.950  13.052
29293W        W95702  11.682  31.891   4.059
29294W        W95703  27.927  38.336   0.542
29295W        W95704  42.792  20.120  11.924
29296W        W95705  31.832   9.656  11.503
29297W        W95706   3.757  10.822   0.862
29298W        W95707  19.048  40.779  12.085
29299W        W95708  26.016   5.386   0.310
29300W        W95709  19.599  10.870   3.737
29301W        W95710  11.573  41.604  11.555
29302W        W95711   4.322  32.469  14.344
29303W        W95712  20.005  10.433  11.576
29304W        W95713  22.132  18.506  14.358
29305W        W95714  33.879  26.251  13.359
29306W        W95715   0.755  35.395  14.368
29307W        W95716  29.537  29.575  12.619
29308W        W95717  29.907   0.725  13.472
29309W        W95718  24.645  14.219  11.991
29310W        W95719   6.124   3.511   2.338
29311W        W95720   6.929  10.046   3.742
29312W        W95721  22.460  11.968   4.998
29313W        W95722  44.218  36.328   4.556
29314W        W95723  37.249   2.737   1.170
29315W        W95724  44.238  36.829   4.661
29316W        W95725  37.787   2.971  11.034
29317W        W95726   7.137  25.513   2.981
29318W        W95727   2.757  41.493  12.555
29319W        W95728   0.273  11.181  11.148
29320W        W95729  10.431  16.546  13.424
29321W        W95730   0.319  32.711  13.871
29322W        W95731   2.292   2.926  11.585
29323W        W95732   3.464  40.584  13.081
29324W        W95733  24.584  19.038   3.662
29325W        W95734   5.188   3.129   2.441
29326W        W95735  12.835  33.378   1.246
29327W        W95736  27.677  13.151   4.521
29328W        W95737   1.531  18.668  14.843
29329W        W95738  33.846  26.936  10.610
29330W        W95739  40.315   0.256  13.988
29331W        W95740  40.838  20.541   4.047
29332W        W95741  40.408  19.765   0.940
29333W        W95742  17.114   2.550  13.002
29334W        W95743  32.422  30.023  13.500
29335W        W95744  27.547  32.125  12.906
29336W        W95745  22.499  15.633  13.329
29337W        W95746  37.899  20.881   1.311
29338W        W95747  38.332  39.341  12.100
29339W        W95748  44.358  22.015   2.661
29340W        W95749  11.723  14.768  14.857
29341W        W95750  24.393  41.435   9.678
29342W        W95751   2.315  34.907   4.097
29343W        W95752   1.691  35.729   4.216
29344W        W95753  41.000  17.377  12.082
29345W        W95754  24.746  38.198  13.096
29346W        W95755  20.527  39.929  11.944
29347W        W95756  41.091  10.819  13.435
29348W        W95757  26.266  36.461   2.590
29349W        W95758  29.141  30.456  13.514
29350W        W95759   2.992  19.867  11.511
29351W        W95760  33.239  23.632  12.459
29352W        W95761   9.004   2.361  11.157
29353W        W95762  39.398   9.221  12.989
29354W        W95763  25.497  27.529  11.655
29355W        W95764  38.865   8.312   0.906
29356W        W95765  34.952  37.406   3.191
29357W        W95766  31.531  25.205  12.088
29358W        W95767  33.640  26.632   0.331
29359W        W95768  17.135  23.520  13.023
29360W        W95769  21.648  27.429  14.380
29361W        W95770  22.310  13.745  11.044
29362W        W95771  11.730  22.192   4.113
29363W        W95772  14.092  19.777   0.784
29364W        W95773  18.476  18.164   2.599
29365W        W95774  22.856  17.618   4.490
29366W        W95775  30.317  23.108   0.419
29367W        W95776  17.816  39.801  12.503
29368W        W95777  34.015  38.734   2.955
29369W        W95778  35.079  43.416   2.878
29370W        W95779   7.190  34.048   1.954
29371W        W95780  38.861  22.504  11.154
29372W        W95781  24.093  24.424   4.060
29373W        W95782  18.338  15.217   0.214
29374W        W95783   7.179   7.921  10.600
29375W        W95784   8.087  34.799   4.202
29376W        W95785  19.145  16.651  11.921
29377W        W95786  17.760  35.040   2.349
29378W        W95787  32.683   7.435   4.094
29379W        W95788   4.333  13.863   4.637
29380W        W95789   6.220   4.793   3.144
29381W        W95790  31.580  30.066  14.064
29382W        W95791  22.945  22.755   0.371
29383W        W95792  34.468  28.925  14.318
29384W        W95793  44.248   1.693  14.738
29385W        W95794  29.394  31.682  11.256
29386W        W95795  38.044   7.483  12.556
29387W        W95796  34.791   7.690   2.993
29388W        W95797  21.390  36.652  14.295
29389W        W95798  42.793  25.443   1.196
29390W        W95799  31.807  12.165  11.676
29391W        W95800  14.810  17.875   4.153
29392W        W95801  30.090  20.777   0.111
29393W        W95802   9.011  32.735  14.404
29394W        W95803  42.247  35.377   3.663
29395W        W95804  36.586  21.191   1.448
29396W        W95805  44.955  12.640   1.349
29397W        W95806  34.605  29.483   3.632
29398W        W95807  35.480  25.771   0.982
29399W        W95808  44.479   4.887   4.535
29400W        W95809  11.775  23.914   1.472
29401W        W95810  31.048  42.667   1.288
29402W        W95811   0.225  22.126   1.937
29403W        W95812  31.927  42.998   2.871
29404W        W95813  13.745   5.148  14.913
29405W        W95814  42.944   8.817  13.966
29406W        W95815  42.998  20.384   0.381
29407W        W95816  10.955  36.508   3.805
29408W        W95817  20.855  16.637  13.892
29409W        W95818  21.715  22.074  14.614
29410W        W95819   7.385  12.720   2.186
29411W        W95820  39.096  38.073  14.996
29412W        W95821  18.677   3.418   3.679
29413W        W95822  15.480  36.831  11.178
29414W        W95823   1.857  44.330  11.659
29415W        W95824  21.507  12.651   4.238
29416W        W95825   8.601  19.765   4.085
29417W        W95826  41.438  15.157   0.496
29418W        W95827  29.229  20.172   1.371
29419W        W95828   6.850  21.512   1.722
29420W        W95829  40.430  32.720   3.700
29421W        W95830  41.117  32.919  14.805
29422W        W95831  19.739  12.773   4.807
29423W        W95832   2.480  38.396  11.218
29424W        W95833  30.123   9.934  11.773
29425W        W95834  19.537  15.199   2.676
29426W        W95835  31.004  30.941   2.618
29427W        W95836  20.286   8.242  12.953
29428W        W95837  25.561   6.169   3.666
29429W        W95838  44.333  23.525   4.558
29430W        W95839  39.737  27.951  12.282
29431W        W95840  38.311  20.145  12.170
29432W        W95841  36.434   1.193  12.932
29433W        W95842   7.304  26.989   4.486
29434W        W95843  18.811  21.476   1.385
29435W        W95844  37.534  32.950   2.068
29436W        W95845  14.063  24.027   2.799
29437W        W95846  16.169  12.632  12.798
29438W        W95847  39.413  20.737   4.144
29439W        W95848  24.562   4.764  13.233
29440W        W95849   7.773  31.368   3.652
29441W        W95850  40.539   9.146  12.573
29442W        W95851  31.043  44.357  10.299
29443W        W95852  18.443  23.785   5.099
29444W        W95853  14.920  36.577  14.269
29445W        W95854  26.205  21.934  13.078
29446W        W95855  28.768   2.125   2.781
29447W        W95856  24.457  11.016   2.774
29448W        W95857  18.081  27.218   2.337
29449W        W95858  11.359  19.955   4.614
29450W        W95859  30.743  33.568   2.219
29451W        W95860  12.074  32.643  13.364
29452W        W95861   7.245  28.897   3.424
29453W        W95862  21.759   4.736   0.371
29454W        W95863   3.074  11.379   0.856
29455W        W95864  21.016   8.424  13.546
29456W        W95865  12.951  35.085   9.776
29457W        W95866   9.794  22.339   0.790
29458W        W95867  11.173   1.725  12.649
29459W        W95868  23.845  21.481  13.117
29460W        W95869   2.458   5.429   3.787
29461W        W95870   2.954  25.182  12.521
29462W        W95871   8.653   4.923   4.979
29463W        W95872   5.157   0.905   4.705
29464W        W95873  34.912  43.863   1.686
29465W        W95874   0.524  42.973   3.311
29466W        W95875  39.624  14.770  14.076
29467W        W95876  21.495   7.080   1.084
29468W        W95877  28.440  22.172  10.245
29469W        W95878   2.694  26.044   0.023
29470W        W95879  43.274  37.170  11.325
29471W        W95880   0.685  38.478   1.721
29472W        W95881  39.548  43.394  14.112
29473W        W95882  16.244  30.232   2.635
29474W        W95883   3.438  29.006  13.567
29475W        W95884  13.917  17.090   3.674
29476W        W95885  35.948   9.223   4.102
29477W        W95886  20.701  14.375   2.189
29478W        W95887  25.928   0.487  14.933
29479W        W95888   5.645  22.709  12.407
29480W        W95889  43.654  23.044   3.253
29481W        W95890   3.407  10.374   3.023
29482W        W95891  19.889  34.418   1.863
29483W        W95892  43.760  40.198  11.666
29484W        W95893   1.449  16.201   0.213
29485W        W95894  29.431  33.838   1.392
29486W        W95895  14.061  44.449  14.903
29487W        W95896   0.422   1.285  11.645
29488W        W95897  28.023  25.547   2.382
29489W        W95898  43.316  30.991   2.146
29490W        W95899  39.871  22.386   3.644
29491W        W95900  10.456  31.360  11.084
29492W        W95901  24.274  16.093  10.641
29493W        W95902   3.819   6.566  12.463
29494W        W95903   0.447  42.147   0.820
29495W        W95904  11.836  24.442  10.592
29496W        W95905   5.837  35.949   1.010
29497W        W95906   0.407  18.005   3.349
29498W        W95907  34.429  42.518  12.432
29499W        W95908  27.155  39.583   2.261
29500W        W95909  35.508  37.277  11.960
29501W        W95910  29.157  10.727   1.797
29502W        W95911  39.871  15.099   3.249
29503W        W95912  32.101  41.554  13.778
29504W        W95913   8.746  38.035   2.287
29505W        W95914   6.619  18.097   2.392
29506W        W95915   3.359  37.799   0.950
29507W        W95916  38.497   8.737   3.092
29508W        W95917  22.513  41.945   2.770
29509W        W95918   8.203   5.815  11.958
29510W        W95919  21.667  16.018  11.070
29511W        W95920  29.236  15.450   3.175
29512W        W95921  33.664  30.471   3.087
29513W        W95922  18.526  15.828   2.004
29514W        W95923  42.430  18.324   5.096
29515W        W95924   6.277  13.784   3.705
29516W        W95925  19.825  13.737  14.517
29517W        W95926   2.639  39.816  13.910
29518W        W95927  44.977  44.498  10.645
29519W        W95928   1.025  33.179  13.378
29520W        W95929  18.118  43.356   2.190
29521W        W95930  13.489  23.805   3.130
29522W        W95931  24.782  39.879   1.458
29523W        W95932   5.905   4.825  14.891
29524W        W95933  15.561  44.427   2.938
29525W        W95934  37.118  18.278  13.533
29526W        W95935  32.939  18.762  14.502
29527W        W95936  35.501   1.558  10.210
29528W        W95937   5.084  22.972   3.697
29529W        W95938  40.360   0.301  12.879
29530W        W95939  30.481  32.376  13.653
29531W        W95940  19.625  29.342   4.363
29532W        W95941  42.347  31.421   0.287
29533W        W95942  39.295  33.130  13.769
29534W        W95943  34.071  44.186   1.386
29535W        W95944  37.066  42.474   3.792
29536W        W95945  27.757  31.287  10.442
29537W        W95946  44.686  37.225   3.782
29538W        W95947  33.400  38.167   0.427
29539W        W95948  20.539  29.630   4.395
29540W        W95949  31.405  16.478   4.458
29541W        W95950  13.938  17.788  13.711
29542W        W95951  40.574  14.833   2.717
29543W        W95952  37.568  18.484  10.258
29544W        W95953  23.696   1.401  13.517
29545W        W95954  44.743  44.825   2.655
29546W        W95955  26.974  33.426   0.374
29547W        W95956  18.127   1.908  13.621
29548W        W95957   2.273  20.127  14.342
29549W        W95958  19.100   5.426  10.443
29550W        W95959  33.138  28.759  13.370
29551W        W95960   4.974  29.133  11.059
29552W        W95961   1.498  41.418   2.725
29553W        W95962   2.600  19.507  11.561
29554W        W95963  43.916  25.065   3.928
29555W        W95964   3.994  18.607   1.295
29556W        W95965   4.881  11.784   4.145
29557W        W95966  10.274  11.392  10.160
29558W        W95967  10.072  42.723  11.782
29559W        W95968  12.349  19.476   1.411
29560W        W95969  42.378  16.681   2.330
29561W        W95970   0.947  40.261  11.121
29562W        W95971  24.050  10.706   1.992
29563W        W95972   6.012   2.480   2.328
29564W        W95973  20.963  34.463   4.806
29565W        W95974   6.484   8.727  10.715
29566W        W95975  31.047  24.657  12.434
29567W        W95976   5.628  14.320   4.082
29568W        W95977  44.353   8.238  14.205
29569W        W95978  41.899  15.266  10.452
29570W        W95979  26.863  10.202  13.566
29571W        W95980  16.299   0.425  14.761
29572W        W95981  41.777  21.221   1.779
29573W        W95982  22.497   8.733   3.678
29574W        W95983  39.383   0.008  11.108
29575W        W95984  36.563  38.872  11.574
29576W        W95985   8.481   2.649   0.336
29577W        W95986  33.193  41.844   4.117
29578W        W95987  27.770  43.923  13.923
29579W        W95988  30.313   2.493  13.999
29580W        W95989   0.180   5.097  11.650
29581W        W95990  36.023  37.257  11.238
29582W        W95991   1.904  37.281  12.027
29583W        W95992  11.086  17.743   0.430
29584W        W95993  38.515  26.472  14.523
29585W        W95994  41.258  20.377   3.640
29586W        W95995  20.128   4.467  12.051
29587W        W95996  18.313  23.067   1.915
29588W        W95997  15.106  40.330   1.995
29589W        W95998   9.143   4.700  13.886
29590W        W95999  26.351  40.983  12.621
29591W        W96000   1.431  37.881   0.848
29592W        W96001  30.629  42.465  14.412
29593W        W96002  43.434   0.882   2.408
29594W        W96003  40.569  34.089   1.793
29595W        W96004   0.910  36.060  13.550
29596W        W96005  27.911  13.830  13.607
29597W        W96006  40.449   5.234  13.618
29598W        W96007  17.571  13.313   0.312
29599W        W96008  39.228  13.142  11.066
29600W        W96009  39.565  37.504   0.450
29601W        W96010  13.632   9.439   1.721
29602W        W96011  21.719  41.568  12.872
29603W        W96012  17.976  18.043   3.531
29604W        W96013  25.360  39.025   0.184
29605W        W96014  30.958  38.506   4.661
29606W        W96015   5.387  31.905   0.605
29607W        W96016  19.287  38.520   3.552
29608W        W96017  42.541  41.962  13.051
29609W        W96018   1.282   6.017   2.822
29610W        W96019  38.825  21.270  13.397
29611W        W96020  11.421  33.573   2.649
29612W        W96021  18.257  11.087   0.103
29613W        W96022   4.390   3.696   0.801
29614W        W96023  19.142   6.379   4.330
29615W        W96024  32.539   2.128   2.905
29616W        W96025  26.688  17.672   1.491
29617W        W96026  24.429   6.785   1.493
29618W        W96027   5.434  27.468  13.737
29619W        W96028  20.360  39.921   4.519
29620W        W96029   5.129  22.689  12.273
29621W        W96030  21.839   8.915   2.570
29622W        W96031   2.740  13.193   4.405
29623W        W96032   6.370  22.083  14.059
29624W        W96033   0.735  15.437  13.317
29625W        W96034  22.303  11.503  10.715
29626W        W96035   4.461  40.368  11.933
29627W        W96036   7.045   8.943  11.549
29628W        W96037   3.409   3.195   2.927
29629W        W96038  43.908  41.739   2.325
29630W        W96039  42.203  28.517   3.245
29631W        W96040  34.032  29.586   3.270
29632W        W96041  10.704  38.735   4.341
29633W        W96042   5.175  41.478  14.266
29634W        W96043  26.650   7.727   0.803
29635W        W96044  31.024  36.817  13.444
29636W        W96045  34.327  21.677   2.300
29637W        W96046  18.603  31.450  10.695
29638W        W96047  16.806  18.726   0.057
29639W        W96048  23.506   9.896  14.983
29640W        W96049  14.674   2.515   3.189
29641W        W96050  27.884  11.073  10.249
29642W        W96051   7.906   4.316  12.374
29643W        W96052  41.515  44.415   3.502
29644W        W96053   1.758  44.806   1.875
29645W        W96054   7.828   1.426  14.890
29646W        W96055   4.501  22.657   5.689
29647W        W96056  31.808   6.568   4.717
29648W        W96057   7.655  34.034   2.149
29649W        W96058   0.439  30.610  14.444
29650W        W96059   1.896   5.625   1.850
29651W        W96060  21.064   2.693  12.468
29652W        W96061   2.632  34.134   0.902
29653W        W96062  18.514  28.295  12.780
29654W        W96063  41.416  24.954   3.440
29655W        W96064  34.451  10.184  12.883
29656W        W96065  33.572   7.879  11.677
29657W        W96066  42.576  27.400   2.971
29658W        W96067   8.655  15.049   0.957
29659W        W96068  34.970  21.036   1.026
29660W        W96069   0.067  29.617  14.421
29661W        W96070  30.080  44.974   1.333
29662W        W96071  27.949  26.464  13.791
29663W        W96072   2.465  25.028   0.031
29664W        W96073  20.161  21.555   0.706
29665W        W96074  42.435   0.839  13.483
29666W        W96075  22.756  37.018   3.175
29667W        W96076  28.349  11.849  10.062
29668W        W96077   6.391  42.713   4.513
29669W        W96078  27.998   6.281   1.677
29670W        W96079  20.963  36.859  10.490
29671W        W96080  43.382  24.240   1.767
29672W        W96081  17.286  20.254   1.514
29673W        W96082  41.568  22.534   1.482
29674W        W96083  29.824  10.172   3.378
29675W        W96084   3.729   1.750  13.584
29676W        W96085  11.727  16.500   0.057
29677W        W96086  30.161   0.279   1.956
29678W        W96087  18.498  36.127  11.229
29679W        W96088  24.901  30.520  12.990
29680W        W96089  22.250  14.319  11.040
29681W        W96090  28.047   4.616   0.805
29682W        W96091  36.228  17.582   2.651
29683W        W96092  21.329  15.789   2.602
29684W        W96093  33.427  43.975  12.952
29685W        W96094  30.571  44.507   0.380
29686W        W96095  30.591  20.146   0.799
29687W        W96096  36.461  16.051   4.388
29688W        W96097  37.033  22.635   4.617
29689W        W96098  17.550   3.778   1.364
29690W        W96099  39.066  22.958   2.934
29691W        W96100  32.843  15.667   4.750
29692W        W96101  10.229  29.074  13.658
29693W        W96102  27.556  36.388   2.929
29694W        W96103  25.913  14.783   2.927
29695W        W96104   3.692  11.373   1.614
29696W        W96105  42.255  28.938   1.250
29697W        W96106  38.492  26.344   0.068
29698W        W96107  19.269  33.894   2.703
29699W        W96108  29.079  13.941  14.927
29700W        W96109  27.507   5.214   3.663
29701W        W96110   2.731  23.947  11.884
29702W        W96111   8.158  21.587  14.056
29703W        W96112  21.917   7.302   0.882
29704W        W96113   5.362  12.808  11.638
29705W        W96114  27.496  13.014   2.491
29706W        W96115  39.240   6.965  11.159
29707W        W96116  13.776  42.571   0.952
29708W        W96117  22.996  13.352   4.100
29709W        W96118  39.994  29.706   0.788
29710W        W96119  13.473   9.880  11.586
29711W        W96120  26.248  22.417   1.234
29712W        W96121   7.429  32.805   2.791
29713W        W96122  35.052  18.643  11.261
29714W        W96123  24.927   7.188  14.988
29715W        W96124   7.830  11.117  11.405
29716W        W96125  40.137  13.315  14.949
29717W        W96126   0.403  18.548  13.066
29718W        W96127  44.917  35.552  11.251
29719W        W96128  16.746  36.004  14.463
29720W        W96129  38.106   6.385  14.319
29721W        W96130  35.630  34.474  11.385
29722W        W96131  24.123  14.237  10.024
29723W        W96132   1.394  25.639  10.747
29724W        W96133   6.615   4.140  11.677
29725W        W96134  15.837   6.559   0.393
29726W        W96135  11.889  27.692   2.411
29727W        W96136  30.159   0.520  13.035
29728W        W96137  28.545  20.294  11.389
29729W        W96138   9.792   8.720   4.510
29730W        W96139  20.517   8.767   1.927
29731W        W96140  19.455  12.064   0.378
29732W        W96141  42.036  20.670   0.938
29733W        W96142   7.745  16.744  13.983
29734W        W96143  32.056  16.981  12.331
29735W        W96144   6.483  36.497   1.883
29736W        W96145  37.881  33.849   1.306
29737W        W96146  30.633  42.057   0.648
29738W        W96147   7.140   7.139   2.377
29739W        W96148   8.810  41.552   5.181
29740W        W96149  32.188  16.299  12.951
29741W        W96150  27.169  14.937   2.755
29742W        W96151   1.336  34.236  11.830
29743W        W96152  33.961  35.312  12.897
29744W        W96153  12.367   9.685  14.778
29745W        W96154  28.958  25.331   0.898
29746W        W96155  29.918  15.119   2.334
29747W        W96156  44.357  30.965   0.827
29748W        W96157  11.463   3.139  14.433
29749W        W96158  41.444  31.361  13.232
29750W        W96159   3.640   6.877   3.221
29751W        W96160  31.910   0.635  14.841
29752W        W96161  40.731  11.158   3.452
29753W        W96162   7.122  31.818   9.842
29754W        W96163  36.003  24.989   4.332
29755W        W96164  26.496  41.158  11.541
29756W        W96165  25.681  32.693   0.663
29757W        W96166  27.917   1.287   4.345
29758W        W96167   9.084   4.005  11.637
29759W        W96168  16.841  24.316  11.147
29760W        W96169  20.660  24.561   0.172
29761W        W96170  27.725  22.618   0.430
29762W        W96171  19.945  10.649  13.763
29763W        W96172  40.223  23.496  14.401
29764W        W96173  26.419  11.696   2.093
29765W        W96174  34.896  40.045   0.744
29766W        W96175  28.190  28.442   0.473
29767W        W96176  44.708  40.981  14.286
29768W        W96177  44.558   7.112   1.446
29769W        W96178  40.392   7.202   0.503
29770W        W96179  32.934  37.923   0.400
29771W        W96180  39.630   6.520  10.620
29772W        W96181   0.076  44.057  12.491
29773W        W96182  26.063  40.078  13.328
29774W        W96183   3.291  30.524  13.467
29775W        W96184  19.060  34.028  11.859
29776W        W96185  43.371  34.069   1.241
29777W        W96186   0.681  20.980  13.736
29778W        W96187   8.382  29.122   4.676
29779W        W96188   8.366  11.873   3.691
29780W        W96189  13.997  13.557  12.619
29781W        W96190  38.103  37.726   2.021
29782W        W96191  43.368  27.933  11.925
29783W        W96192   2.322  19.042   3.243
29784W        W96193   2.000  38.873   1.277
29785W        W96194  44.462  42.794  12.933
29786W        W96195  31.541  44.278   1.682
29787W        W96196  18.553  26.867  11.087
29788W        W96197  44.984  11.128  11.980
29789W        W96198  30.402   8.584  11.640
29790W        W96199  11.026  33.695   2.308
29791W        W96200  17.150  11.728  14.098
29792W        W96201  43.545  16.137   3.051
29793W        W96202  15.217  17.183  14.830
29794W        W96203  10.159  30.951  11.170
29795W        W96204   0.823   6.638   2.262
29796W        W96205  36.588   6.547   0.912
29797W        W96206  35.810  43.755  11.602
29798W        W96207  30.922   9.668  13.829
29799W        W96208  11.124  13.916   0.912
29800W        W96209  10.744  31.661  14.816
29801W        W96210  17.421  44.941  11.219
29802W        W96211  23.681   6.331   1.535
29803W        W96212  32.254   8.272  12.525
29804W        W96213  27.368  41.976   1.059
29805W        W96214   3.912  18.929  11.621
29806W        W96215  44.858  41.601   3.733
29807W        W96216   3.153   3.436   0.427
29808W        W96217  26.094  26.259   2.289
29809W        W96218  36.867  25.430  10.742
29810W        W96219   6.764   1.824   3.124
29811W        W96220   7.933  38.101  14.435
29812W        W96221  29.165  24.730  11.181
29813W        W96222  34.274   4.164  11.208
29814W        W96223   8.647  14.305   1.858
29815W        W96224  44.468  32.069   0.917
29816W        W96225   6.674  22.488  10.474
29817W        W96226  33.662  31.595   1.912
29818W        W96227  39.154  19.355   4.946
29819W        W96228  12.100   4.726  11.402
29820W        W96229  19.313  19.246  13.824
29821W        W96230  23.721   2.288   1.325
29822W        W96231  35.842  42.360   2.192
29823W        W96232  19.876  28.730  10.437
29824W        W96233  19.735   5.855   1.919
29825W        W96234  16.462  26.887   0.299
29826W        W96235   9.335  35.355   2.827
29827W        W96236  30.113  28.455   4.266
29828W        W96237  37.860   6.227  13.873
29829W        W96238  27.144  37.044  13.782
29830W        W96239   5.880  39.503   3.738
29831W        W96240  36.285  39.281   3.365
29832W        W96241  34.532   8.036  12.527
29833W        W96242  12.066  34.916  14.137
29834W        W96243   7.359  18.965   1.372
29835W        W96244  35.787  29.921   0.801
29836W        W96245   8.159   2.771  11.041
29837W        W96246  16.692  10.691   1.676
29838W        W96247  30.943  43.384   4.906
29839W        W96248  10.459  24.080  10.520
29840W        W96249  23.546   7.829   5.005
29841W        W96250  24.936   8.065   1.417
29842W        W96251  15.858  41.464   1.167
29843W        W96252   2.370  42.262   3.285
29844W        W96253  14.098   1.100   0.327
29845W        W96254  35.623  35.823   3.117
29846W        W96255  33.856  31.651  13.475
29847W        W96256  35.333  44.786  12.584
29848W        W96257  21.001  13.990  13.933
29849W        W96258  25.175  14.251  13.805
29850W        W96259   1.352   0.958  12.418
29851W        W96260  39.456  23.986  14.900
29852W        W96261  32.492  14.789   2.449
29853W        W96262  11.576   1.845   3.196
29854W        W96263  22.642  28.392   1.843
29855W        W96264   8.175  10.527  13.379
29856W        W96265  11.108  38.972  11.607
29857W        W96266  43.895  25.927   4.523
29858W        W96267   1.738   5.462   3.852
29859W        W96268  43.366  25.939   0.835
29860W        W96269  26.121  33.349   3.411
29861W        W96270  26.264  32.944  12.995
29862W        W96271  29.898  41.835  10.634
29863W        W96272  10.178  14.984  10.436
29864W        W96273  13.087  44.654  10.257
29865W        W96274  32.636   4.885   1.863
29866W        W96275   6.652  11.786   1.263
29867W        W96276  11.781  19.792   2.317
29868W        W96277   2.386  31.918  10.792
29869W        W96278  34.158  31.577   2.032
29870W        W96279  40.315  39.797  14.056
29871W        W96280  13.306  28.114  11.842
29872W        W96281  42.748  36.915   3.590
29873W        W96282  11.170  37.763   1.252
29874W        W96283  20.674  17.360  10.845
29875W        W96284  38.031  19.950   2.277
29876W        W96285  28.635   3.874   4.175
29877W        W96286  27.829  11.336  14.704
29878W        W96287   5.551  25.245   1.518
29879W        W96288  33.911   9.733   1.946
29880W        W96289   2.730  37.328   1.857
29881W        W96290  31.264  18.759  12.610
29882W        W96291  43.865  40.689   1.213
29883W        W96292  14.294  25.037  13.358
29884W        W96293   3.428  18.608  13.528
29885W        W96294   7.119   5.691  13.789
29886W        W96295  20.747   0.243   3.742
29887W        W96296  43.765  22.723   1.453
29888W        W96297  41.312  12.729   2.956
29889W        W96298  27.892  24.784   4.241
29890W        W96299  44.063  28.944   0.906
29891W        W96300  16.093  31.420   4.315
29892W        W96301  37.984  15.706   5.221
29893W        W96302  20.013  23.131   2.396
29894W        W96303  32.393  20.221   3.623
29895W        W96304   6.092  43.207   2.136
29896W        W96305  36.417  32.148  12.161
29897W        W96306  25.229  32.436   3.342
29898W        W96307  20.255   3.339   1.737
29899W        W96308  16.919  32.084   3.460
29900W        W96309   2.794  27.958  13.779
29901W        W96310  30.876   2.447  14.927
29902W        W96311  44.007  25.975  14.697
29903W        W96312  27.917  43.865   1.734
29904W        W96313   2.944  21.446  13.386
29905W        W96314   7.215  39.970   3.688
29906W        W96315   8.707   2.469  13.460
29907W        W96316   7.377  36.517  11.082
29908W        W96317  14.157  10.902   1.819
29909W        W96318  29.775   6.143  10.431
29910W        W96319   7.647  43.409   0.400
29911W        W96320  33.548   3.787  12.504
29912W        W96321  30.648  11.476   1.062
29913W        W96322  41.569   0.013  13.056
29914W        W96323  39.384  34.916   0.014
29915W        W96324  41.328  42.232   1.738
29916W        W96325  37.306   1.936  14.489
29917W        W96326  24.753  16.057  11.059
29918W        W96327  35.296  10.756   1.832
29919W        W96328  11.833  33.915   0.768
29920W        W96329  43.673  35.281   2.396
29921W        W96330  20.507  14.151   0.228
29922W        W96331  13.791   3.330  11.532
29923W        W96332  32.351  21.670   4.613
29924W        W96333  36.217   4.490   0.256
29925W        W96334  12.308  18.602   4.190
29926W        W96335  26.089   6.664   1.699
29927W        W96336  23.868   1.390  13.997
29928W        W96337   4.452  30.391  11.541
29929W        W96338  35.159   4.029  13.289
29930W        W96339   4.249   4.456   2.615
29931W        W96340  17.144   0.992  13.403
29932W        W96341  30.918  26.914   1.233
29933W        W96342  27.138  20.848  10.516
29934W        W96343  36.090  23.927  13.472
29935W        W96344  27.172  19.003  11.993
29936W        W96345   3.307  35.211   2.619
29937W        W96346  44.676   6.554   4.891
29938W        W96347   9.262  32.357  12.891
29939W        W96348   3.883  14.139   3.651
29940W        W96349   9.527  39.318   0.304
29941W        W96350  41.382  30.662  12.549
29942W        W96351  33.258  29.471  10.380
29943W        W96352  32.941  28.572  12.388
29944W        W96353   1.757  30.202  12.940
29945W        W96354  31.576   7.231  13.996
29946W        W96355  41.843   6.173  13.045
29947W        W96356  39.735  10.599   0.261
29948W        W96357  22.239   7.234   3.157
29949W        W96358  31.944  42.834   4.643
29950W        W96359   2.693  38.269  14.751
29951W        W96360   6.693   1.267  11.534
29952W        W96361  10.713  13.822  14.793
29953W        W96362  28.425   4.277   2.840
29954W        W96363  10.255   5.474  13.396
29955W        W96364  24.761  16.271  10.581
29956W        W96365  21.528  35.479   1.950
29957W        W96366  32.927  19.968  11.148
29958W        W96367  13.585  37.519  13.752
29959W        W96368  26.017  11.955  10.123
29960W        W96369  42.981  42.489  10.616
29961W        W96370  20.160  44.387   4.083
29962W        W96371  25.604  26.543  14.018
29963W        W96372  29.396  37.486  12.764
29964W        W96373  19.219  22.091  13.860
29965W        W96374   4.282  23.030   4.601
29966W        W96375  19.729  12.581  14.302
29967W        W96376  43.906   3.531   2.699
29968W        W96377  38.874  16.321   2.391
29969W        W96378  15.111  24.959   0.503
29970W        W96379  37.271  44.257  14.910
29971W        W96380  39.547  29.560   2.777
29972W        W96381   4.883  42.709  14.113
29973W        W96382  24.133   4.983  12.484
29974W        W96383   6.196  14.090   2.395
29975W        W96384  28.992   8.481   1.313
29976W        W96385  12.542  37.908   4.053
29977W        W96386  14.290  32.689  14.210
29978W        W96387  40.255  30.371  11.502
29979W        W96388  38.865  33.755  11.933
29980W        W96389  42.054  42.884  12.087
29981W        W96390  20.759  31.600  14.822
29982W        W96391  37.822   7.678  12.106
29983W        W96392  14.808  32.464   1.952
29984W        W96393  37.039  35.487   2.753
29985W        W96394   7.791  17.232   0.492
29986W        W96395  11.827   5.925   1.953
29987W        W96396  32.443  39.872   0.289
29988W        W96397  14.795  39.830   3.746
29989W        W96398  36.823  11.660  11.615
29990W        W96399  25.709   0.261   4.131
29991W        W96400  37.132  19.603  11.149
29992W        W96401   2.271  29.693   3.258
29993W        W96402   5.694   3.919  12.633
29994W        W96403  14.647  36.525   2.359
29995W        W96404  25.812  23.645   2.749
29996W        W96405  13.588  12.616  11.454
29997W        W96406  36.280  21.547  13.412
29998W        W96407  28.042  27.922   1.860
29999W        W96408  16.716  23.043  12.552
30000W        W96409  26.841  35.499  11.186
30001W        W96410  16.328  34.350   1.409
30002W        W96411  11.001  39.004  13.531
30003W        W96412  32.150  19.881   1.446
30004W        W96413  32.954  25.554   0.571
30005W        W96414  30.880  41.842  10.625
30006W        W96415  37.587  20.237   2.409
30007W        W96416  18.761  40.003   4.073
30008W        W96417  13.407  20.567   3.424
30009W        W96418  40.470   0.024   4.677
30010W        W96419  17.276  33.820  13.478
30011W        W96420  28.479  39.282   3.121
30012W        W96421  40.921   7.911   0.802
30013W        W96422  14.216  10.127   1.447
30014W        W96423   1.907   9.638   1.455
30015W        W96424   5.718  14.842   2.273
30016W        W96425  39.300  37.848  14.161
30017W        W96426   9.325  11.815  10.701
30018W        W96427   2.240  36.838   1.372
30019W        W96428  35.304   6.368   0.320
30020W        W96429  44.574   8.423  12.821
30021W        W96430  37.001  13.804   2.476
30022W        W96431  40.941  20.732   1.603
30023W        W96432   7.981  41.502   1.510
30024W        W96433  43.779  36.325  14.831
30025W        W96434  15.289   6.835  14.332
30026W        W96435  36.297  21.640  14.885
30027W        W96436  38.091  37.752  12.529
30028W        W96437  10.818  38.120  12.623
30029W        W96438  14.896  25.067   2.318
30030W        W96439   3.957  42.367  14.969
30031W        W96440  22.827  24.316  10.859
30032W        W96441  41.094  23.475   1.805
30033W        W96442  30.689   4.941   0.547
30034W        W96443  39.764  25.240   4.607
30035W        W96444   5.878  27.693   4.516
30036W        W96445  37.539  32.140  10.706
30037W        W96446  38.368  20.009  13.020
30038W        W96447  33.823   9.286  10.346
30039W        W96448   6.825  29.043   1.580
30040W        W96449  30.658   1.948  14.931
30041W        W96450   7.562   1.946  10.790
30042W        W96451  14.695   6.270  13.654
30043W        W96452   3.601  39.117  11.072
30044W        W96453  10.129  25.787   2.813
30045W        W96454  27.797  21.146   2.766
30046W        W96455  26.629  38.171  14.071
30047W        W96456  18.642  18.334   0.740
30048W        W96457  23.686  42.519   2.971
30049W        W96458   2.898  33.389   2.856
30050W        W96459  41.023  11.841   1.777
30051W        W96460  21.925   8.915  12.053
30052W        W96461  24.190  38.944   2.651
30053W        W96462  29.617  14.483  12.321
30054W        W96463  39.508  19.237  14.822
30055W        W96464   5.717  23.181  12.095
30056W        W96465   0.500  41.502  14.332
30057W        W96466   0.461  12.147   0.697
30058W        W96467  29.618  21.162  12.446
30059W        W96468   0.743  19.462  14.877
30060W        W96469  18.109   1.523   3.298
30061W        W96470  12.383   5.166   2.227
30062W        W96471  41.435  26.246  12.087
30063W        W96472   7.896   5.300   1.061
30064W        W96473  15.333  41.908  11.119
30065W        W96474  25.634  36.683  13.003
30066W        W96475  21.085  33.518  11.007
30067W        W96476  18.208   5.819   0.784
30068W        W96477   4.518  12.296  11.571
30069W        W96478  17.609   8.340   4.652
30070W        W96479  39.432  35.994  13.028
30071W        W96480  24.182   5.893  14.084
30072W        W96481  16.360   4.170  12.393
30073W        W96482  14.046  36.338   3.635
30074W        W96483  13.139  33.024   0.729
30075W        W96484  34.662   7.223  11.025
30076W        W96485  27.655   9.129   1.899
30077W        W96486  40.987   6.768   4.527
30078W        W96487  21.605  28.961  12.607
30079W        W96488  32.539  11.287   1.782
30080W        W96489  28.675   7.650  11.605
30081W        W96490  21.280  10.377  13.378
30082W        W96491  18.665  43.587  14.701
30083W        W96492  20.036  15.151   2.718
30084W        W96493  35.104  37.868   2.306
30085W        W96494  33.852  41.593   0.182
30086W        W96495   2.439  34.346  13.857
30087W        W96496  32.473  11.162   0.447
30088W        W96497  24.841   9.211   3.539
30089W        W96498  28.512   0.367  11.099
30090W        W96499  44.864  39.376   2.616
30091W        W96500  15.056  27.512  14.492
30092W        W96501  32.597   5.633  14.048
30093W        W96502   3.259  26.669   4.574
30094W        W96503  15.426  16.327  13.408
30095W        W96504  44.340  16.031  12.687
30096W        W96505  13.700  17.099  12.446
30097W        W96506  11.409   2.145   3.595
30098W        W96507  23.100  13.613  12.779
30099W        W96508  29.692  13.295  12.436
30100W        W96509  21.111  38.278   3.534
30101W        W96510  10.350   9.431   3.694
30102W        W96511  27.360  32.174  10.787
30103W        W96512   2.930  10.178  13.430
30104W        W96513   3.794  22.967   1.219
30105W        W96514  31.983  18.808  13.258
30106W        W96515   0.469  34.662   3.673
30107W        W96516  30.150   1.713   4.109
30108W        W96517  27.991  21.294   1.209
30109W        W96518   6.862  35.961   4.632
30110W        W96519  33.371   2.231  14.401
30111W        W96520  35.350  38.171   4.687
30112W        W96521  34.010  26.002   4.837
30113W        W96522   9.822  39.889  12.141
30114W        W96523  42.454   7.409  12.042
30115W        W96524  22.968  12.323  14.328
30116W        W96525  33.769  44.231   1.832
30117W        W96526  27.554  20.066  11.467
30118W        W96527  16.187  40.554   9.786
30119W        W96528   7.855   4.926   0.167
30120W        W96529  23.878  34.015   3.699
30121W        W96530  38.563  42.887  13.499
30122W        W96531  33.191   8.710   0.025
30123W        W96532  34.362  35.596   2.005
30124W        W96533  26.997   5.952  13.808
30125W        W96534  38.503  36.190   0.920
30126W        W96535   8.463  30.753  11.682
30127W        W96536  29.591  18.285   2.322
30128W        W96537  40.819  11.773   4.104
30129W        W96538  33.882  36.863   3.789
30130W        W96539   8.140  26.099   3.254
30131W        W96540  10.133  10.862   3.721
30132W        W96541   9.228  28.600   4.608
30133W        W96542   3.424  31.857   2.165
30134W        W96543  27.460  37.472   4.176
30135W        W96544  21.586   6.479  13.556
30136W        W96545  16.207  25.205  10.178
30137W        W96546  16.766  27.237   3.952
30138W        W96547  14.325  15.603  11.203
30139W        W96548  28.518  30.543  12.167
30140W        W96549  10.845  29.599   0.960
30141W        W96550  29.807  32.976   0.605
30142W        W96551  31.002  41.919   3.464
30143W        W96552  35.989  24.975  14.596
30144W        W96553  36.429   6.515  14.617
30145W        W96554  23.243  20.041   4.203
30146W        W96555  22.498  40.271  10.996
30147W        W96556  42.206   3.749  14.066
30148W        W96557   7.132  10.330   3.344
30149W        W96558  40.811  21.018   0.895
30150W        W96559  10.393  15.056  13.071
30151W        W96560  12.292  22.805   4.082
30152W        W96561  10.595  41.881   4.143
30153W        W96562  27.164  12.870   3.773
30154W        W96563  16.685   4.894   2.650
30155W        W96564  30.453   8.738   4.627
30156W        W96565  39.640  24.246   3.648
30157W        W96566   7.864   6.652  12.749
30158W        W96567  12.587  43.332  11.845
30159W        W96568  44.667  25.275  11.536
30160W        W96569  30.405  36.728   2.973
30161W        W96570  20.595  27.294  12.651
30162W        W96571  39.496  38.899   2.323
30163W        W96572  11.289  12.587  14.332
30164W        W96573  24.519   7.717  10.685
30165W        W96574  15.062  36.367   0.515
30166W        W96575  42.870  38.156   0.489
30167W        W96576  17.344  36.855  12.823
30168W        W96577  25.250  34.711  12.247
30169W        W96578   8.873  38.287  14.065
30170W        W96579  27.633  18.534  10.684
30171W        W96580  26.067  36.135   0.991
30172W        W96581  44.823   4.935  12.005
30173W        W96582  12.639   4.406   1.832
30174W        W96583  13.841  42.821   4.159
30175W        W96584  22.229  32.171  12.495
30176W        W96585  11.824  29.772   4.758
30177W        W96586  20.460   5.205   0.101
30178W        W96587  44.060  40.578  12.117
30179W        W96588  15.187  44.279   3.263
30180W        W96589  31.618  15.536   2.385
30181W        W96590  15.600  26.929   4.982
30182W        W96591   2.758   7.153   1.350
30183W        W96592  17.017  17.352   1.521
30184W        W96593  18.023  23.846  10.393
30185W        W96594  19.039   4.939   4.204
30186W        W96595   6.710   7.704  10.724
30187W        W96596   5.856  33.154   2.340
30188W        W96597  35.561  14.939  14.426
30189W        W96598  39.356  28.908  12.003
30190W        W96599  14.990  30.535  10.474
30191W        W96600   4.272  16.544  13.142
30192W        W96601   2.237  15.578  13.036
30193W        W96602  22.655  14.237   3.930
30194W        W96603   4.135  13.109   4.233
30195W        W96604   9.988  32.959   1.650
30196W        W96605  41.468  17.196  10.830
30197W        W96606  25.568  43.025  11.664
30198W        W96607  26.011  34.877   1.833
30199W        W96608  24.790   5.818   2.360
30200W        W96609   5.764  12.334   0.632
30201W        W96610  22.783  20.210  14.768
30202W        W96611  29.840  18.070  11.097
30203W        W96612  25.120  24.615   3.309
30204W        W96613   1.781  29.406   3.681
30205W        W96614  22.660  12.269  11.521
30206W        W96615  18.107  34.890   1.491
30207W        W96616  13.572  10.787  11.412
30208W        W96617  36.080   3.136   2.665
30209W        W96618  39.436   4.749   1.470
30210W        W96619  44.961  30.901  11.589
30211W        W96620  41.177  43.956   0.924
30212W        W96621  15.732  36.419  10.990
30213W        W96622   0.857  16.039   4.875
30214W        W96623  15.744   2.598  14.328
30215W        W96624  42.116  24.096  14.164
30216W        W96625  18.283   7.925   4.532
30217W        W96626  10.364  42.587   2.773
30218W        W96627  13.063  12.304   4.530
30219W        W96628   5.870  30.446   3.556
30220W        W96629  25.658  27.037   1.184
30221W        W96630  36.769  20.918   4.925
30222W        W96631  28.572  19.137   4.170
30223W        W96632  32.723   9.294   0.172
30224W        W96633  11.673  30.112  13.049
30225W        W96634  20.179  40.539   2.732
30226W        W96635  41.952  26.438   0.891
30227W        W96636   1.801  21.960   2.588
30228W        W96637   2.851  15.642  14.894
30229W        W96638   6.784  21.718   3.136
30230W        W96639  23.828   5.767  11.250
30231W        W96640  29.839   5.341  12.969
30232W        W96641  34.870  20.743   2.870
30233W        W96642  37.405  39.394  14.108
30234W        W96643   2.823   6.126  12.130
30235W        W96644  17.646   4.361  10.913
30236W        W96645  34.857  42.851  10.830
30237W        W96646  16.250  17.106  11.550
30238W        W96647  15.866  35.756   1.794
30239W        W96648  27.679  18.897   0.459
30240W        W96649   3.232  34.540  10.781
30241W        W96650  14.891  28.586  12.054
30242W        W96651  44.228  13.060  12.570
30243W        W96652  20.031  15.660   3.990
30244W        W96653   0.537   4.928   1.788
30245W        W96654  39.008  17.515   1.166
30246W        W96655  30.709  21.337   2.276
30247W        W96656  16.252   8.288   4.313
30248W        W96657  30.427  21.265  13.641
30249W        W96658  28.204  42.929   3.416
30250W        W96659  44.420  26.614   0.755
30251W        W96660  24.926  16.083  11.980
30252W        W96661   8.596  42.377  14.209
30253W        W96662  37.499   3.564  11.027
30254W        W96663  31.984  44.728  13.085
30255W        W96664  38.501  16.703   1.399
30256W        W96665  17.350  11.157   2.907
30257W        W96666  18.732  24.980   2.522
30258W        W96667  37.599  37.894   0.949
30259W        W96668  20.655   4.826  14.792
30260W        W96669  27.056  36.323   0.392
30261W        W96670   5.702  37.755  10.187
30262W        W96671  27.480  22.700  14.519
30263W        W96672   1.722  41.607   4.540
30264W        W96673  14.872   7.071   5.079
30265W        W96674  15.736   5.177   2.809
30266W        W96675   2.896  37.290  14.864
30267W        W96676  35.858  22.680  13.102
30268W        W96677  28.440  35.777  12.902
30269W        W96678  11.488  26.367   1.426
30270W        W96679  23.934  39.834   4.485
30271W        W96680   1.490  21.823  13.939
30272W        W96681  10.738  24.170   3.105
30273W        W96682  43.916  41.454   2.755
30274W        W96683  25.875  13.788   2.818
30275W        W96684  16.111  16.729  10.655
30276W        W96685  28.667  22.231  12.294
30277W        W96686  43.750  28.203  12.447
30278W        W96687  13.244  44.995  10.633
30279W        W96688  32.508   8.801   1.329
30280W        W96689  22.900  42.406   3.436
30281W        W96690  22.215  28.281  12.479
30282W        W96691  13.680  24.389   2.874
30283W        W96692  18.163  20.554  11.094
30284W        W96693  29.722  34.739   0.349
30285W        W96694  39.846  21.659  12.814
30286W        W96695  43.933  31.894  14.813
30287W        W96696  21.689  24.605  12.473
30288W        W96697  15.110  21.846  11.979
30289W        W96698  17.186  15.146   2.962
30290W        W96699   1.976  21.730  14.983
30291W        W96700  18.186  23.970   0.878
30292W        W96701  41.685  36.735   4.980
30293W        W96702  34.829  38.479  13.428
30294W        W96703  35.844  35.462  12.675
30295W        W96704  36.186  29.102   4.261
30296W        W96705  24.733  41.052   0.664
30297W        W96706  23.798  18.028  14.506
30298W        W96707  21.580  11.211   0.946
30299W        W96708  31.300   0.196  13.939
30300W        W96709  42.572   6.780   3.142
30301W        W96710  23.711  29.070  14.907
30302W        W96711  34.373  27.022   3.333
30303W        W96712  42.696  37.021   1.826
30304W        W96713   7.732  26.111   1.295
30305W        W96714  28.909  32.516   3.792
30306W        W96715  22.031  39.032   2.752
30307W        W96716  27.977   0.486  13.476
30308W        W96717  22.404  31.471  13.817
30309W        W96718  39.298  43.608   1.521
30310W        W96719   3.898  18.749  13.632
30311W        W96720   5.871  43.449   4.700
30312W        W96721   6.685  44.103  12.152
30313W        W96722  19.702  39.173   3.658
30314W        W96723   1.033   5.331  10.313
30315W        W96724  37.059  23.272  13.956
30316W        W96725  28.955  30.145  10.634
30317W        W96726  37.649  40.709  14.299
30318W        W96727  10.553  42.471   4.661
30319W        W96728   9.650  22.591  12.579
30320W        W96729  11.415   8.784   1.842
30321W        W96730  36.071  17.047   3.041
30322W        W96731  39.598  23.772  11.817
30323W        W96732  43.068  19.198   4.297
30324W        W96733   1.393  42.825  11.602
30325W        W96734  14.149  24.496   3.208
30326W        W96735  13.915   9.143   4.545
30327W        W96736   5.744  41.082   4.661
30328W        W96737   6.455   4.505  12.090
30329W        W96738  12.032   9.910   0.310
30330W        W96739  39.910  34.518  13.588
30331W        W96740  33.619  32.223  11.518
30332W        W96741  42.241  16.356   5.153
30333W        W96742  31.591   7.724   0.841
30334W        W96743   5.006  40.995   1.241
30335W        W96744  40.757  32.497  12.007
30336W        W96745  28.914  13.874  10.396
30337W        W96746  36.379  21.243  12.328
30338W        W96747   4.815  15.761   3.203
30339W        W96748  25.311  41.384  10.611
30340W        W96749  15.176  18.522  12.121
30341W        W96750  15.698  22.576   3.613
30342W        W96751  15.559  24.922  13.807
30343W        W96752   1.011  35.339   3.110
30344W        W96753  31.627  15.858  12.297
30345W        W96754  34.989  12.349  10.332
30346W        W96755  30.918  23.061   2.672
30347W        W96756   8.209  19.216   0.967
30348W        W96757  25.231  15.857  14.198
30349W        W96758  36.826  12.060   0.924
30350W        W96759   1.740  11.133  10.738
30351W        W96760   4.746  14.477  13.443
30352W        W96761  39.939  44.037   0.127
30353W        W96762  29.043  41.772  10.745
30354W        W96763  30.976  19.034   4.500
30355W        W96764  12.015   3.885  13.874
30356W        W96765  28.313  37.868   5.065
30357W        W96766   5.710  32.712   0.862
30358W        W96767   0.223  19.652  12.433
30359W        W96768   4.155  29.934   1.684
30360W        W96769   6.743  13.566   3.619
30361W        W96770  40.766   3.730  11.633
30362W        W96771  23.617  41.940  10.753
30363W        W96772  40.879  29.927  14.011
30364W        W96773  29.993  13.563   1.375
30365W        W96774  28.777   4.137  14.409
30366W        W96775   4.756  18.017   4.773
30367W        W96776  41.536  11.792   3.850
30368W        W96777   0.476  28.521   0.753
30369W        W96778  40.911  18.141  11.511
30370W        W96779  15.338  13.739  12.917
30371W        W96780  43.549   4.675   0.780
30372W        W96781  39.359  21.008   4.972
30373W        W96782  24.633   1.978   3.198
30374W        W96783  28.924  16.629   2.053
30375W        W96784  39.485   7.841  14.199
30376W        W96785  44.036   9.879  14.885
30377W        W96786  20.509   9.221   3.745
30378W        W96787  11.806  35.598   3.080
30379W        W96788   0.438   6.465   1.929
30380W        W96789  34.708  44.962   0.008
30381W        W96790   1.940  14.014   1.409
30382W        W96791  41.051  23.521   2.931
30383W        W96792  20.559   0.384  10.756
30384W        W96793  18.261   3.200  10.962
30385W        W96794  33.406  28.196   2.723
30386W        W96795  18.721  38.803   2.820
30387W        W96796  27.465  43.896  10.695
30388W        W96797  23.493  23.718   1.411
30389W        W96798  21.475   8.934  12.888
30390W        W96799   2.406   4.470   2.848
30391W        W96800  27.659   7.594   2.316
30392W        W96801  19.674   8.157   1.914
30393W        W96802  39.476  21.034   1.457
30394W        W96803  30.846  33.106  11.149
30395W        W96804  16.246  19.323  13.013
30396W        W96805   1.966  33.476   0.497
30397W        W96806   5.437   2.931   4.135
30398W        W96807  40.951  24.501   1.764
30399W        W96808  24.693  41.070  12.044
30400W        W96809   5.826   8.852   2.409
30401W        W96810  12.235  18.481  14.360
30402W        W96811   2.407  23.640   4.059
30403W        W96812  38.819   8.709   1.265
30404W        W96813   4.740  20.122  13.332
30405W        W96814   1.414   8.272  12.396
30406W        W96815  34.644  30.489   0.257
30407W        W96816  43.387   5.844  10.013
30408W        W96817  29.627  11.394   4.012
30409W        W96818  29.834  27.126   0.466
30410W        W96819  22.583  31.839  14.986
30411W        W96820  23.115  35.119  10.722
30412W        W96821  23.752  35.901   0.308
30413W        W96822  18.285  33.319  12.399
30414W        W96823  25.412  35.516   2.021
30415W        W96824   9.145  24.773  10.469
30416W        W96825  43.387  42.905   3.227
30417W        W96826  41.439  28.150  12.864
30418W        W96827  19.230  12.124   4.305
30419W        W96828  12.142  39.216  12.830
30420W        W96829  41.780  18.384   5.394
30421W        W96830   7.978  34.455   0.849
30422W        W96831   5.689  30.444   3.078
30423W        W96832  16.266  21.841  11.703
30424W        W96833   6.251  16.257   0.280
30425W        W96834  18.370   8.759   2.930
30426W        W96835   9.765  13.235   2.623
30427W        W96836  18.743  38.234  10.960
30428W        W96837  38.985  19.174   2.758
30429W        W96838  39.865   7.600  14.460
30430W        W96839  15.843  14.222  13.289
30431W        W96840   6.891  10.682   0.295
30432W        W96841   1.729  12.729   2.219
30433W        W96842   8.664  12.051  14.769
30434W        W96843  26.244  25.761   2.264
30435W        W96844  25.542   6.979   0.881
30436W        W96845   9.010  43.072  12.541
30437W        W96846   6.623  35.417  12.937
30438W        W96847  29.900  34.981  13.896
30439W        W96848  36.892  43.646   1.484
30440W        W96849  18.142  35.418  14.263
30441W        W96850  44.267  19.119  10.419
30442W        W96851  32.317  36.726   2.844
30443W        W96852  14.726   2.695   3.926
30444W        W96853  17.635  22.900   0.319
30445W        W96854  39.029  23.788   0.110
30446W        W96855  18.742  28.670   1.012
30447W        W96856  40.517  25.255   0.967
30448W        W96857  12.337   4.842   1.832
30449W        W96858  28.589  16.188   2.806
30450W        W96859  14.321  31.057   4.595
30451W        W96860   4.392  24.490   1.292
30452W        W96861  18.708  23.139  13.620
30453W        W96862  17.245  39.512   4.488
30454W        W96863   9.843  41.889   0.314
30455W        W96864  25.698  12.784   0.783
30456W        W96865  44.531  41.768  12.975
30457W        W96866  20.396  17.914  12.821
30458W        W96867   0.693  41.533   3.649
30459W        W96868  15.344  16.636  13.830
30460W        W96869  28.484  30.399  14.375
30461W        W96870   7.907  10.689  11.683
30462W        W96871  41.842  15.314   3.726
30463W        W96872  28.756  11.062  10.766
30464W        W96873   4.220   0.407  13.425
30465W        W96874  31.497  13.284   3.940
30466W        W96875   5.977  26.167  12.489
30467W        W96876  10.166  31.465   3.131
30468W        W96877  35.659   8.647  14.459
30469W        W96878  30.409   4.707   2.055
30470W        W96879  29.562  23.442  14.407
30471W        W96880  32.525   6.346  10.695
30472W        W96881  17.103  41.509   2.698
30473W        W96882  14.662  37.957   4.030
30474W        W96883  36.911  38.896   1.357
30475W        W96884  34.982  27.429   0.784
30476W        W96885   7.643   7.819   2.807
30477W        W96886   8.883  10.839   0.179
30478W        W96887  30.868   6.162   4.103
30479W        W96888  10.163  25.652   4.637
30480W        W96889  28.519  15.553   1.804
30481W        W96890   3.924   0.206   3.377
30482W        W96891  14.124  14.576   2.342
30483W        W96892  32.363  25.573   3.010
30484W        W96893  24.911  25.525   3.194
30485W        W96894  31.726  43.298   1.208
30486W        W96895  21.058  33.540   0.674
30487W        W96896  29.192  25.249   4.197
30488W        W96897  33.858  41.986   3.276
30489W        W96898  16.810  11.747  14.511
30490W        W96899  13.105  29.133  13.444
30491W        W96900   8.833   0.966  14.750
30492W        W96901  36.052   0.276  11.640
30493W        W96902  20.297  23.953  11.416
30494W        W96903  31.096  18.913  11.775
30495W        W96904  14.711  25.665  13.438
30496W        W96905   0.530  26.632  14.116
30497W        W96906  44.995  10.193   1.595
30498W        W96907  11.758   5.942   2.466
30499W        W96908  28.576  16.184  10.631
30500W        W96909   6.913   1.465  11.116
30501W        W96910  36.906   2.769  11.163
30502W        W96911  17.521   6.817   2.105
30503W        W96912   1.428  26.496  14.751
30504W        W96913  40.563  17.129   4.016
30505W        W96914  40.037   5.452  11.130
30506W        W96915  38.734  19.591  10.213
30507W        W96916  12.949  40.465  14.404
30508W        W96917   4.612  40.171  10.423
30509W        W96918  32.577  28.600  11.150
30510W        W96919   4.767   4.852   5.622
30511W        W96920   8.893  41.127  13.449
30512W        W96921  17.513   0.175   2.603
30513W        W96922  11.056  16.677   1.269
30514W        W96923  23.523  17.547  14.392
30515W        W96924   3.771  34.829   2.658
30516W        W96925  27.966   4.156  13.752
30517W        W96926  25.241  28.146   2.794
30518W        W96927  15.889  42.130   4.083
30519W        W96928  18.651  16.226  14.997
30520W        W96929   2.099   3.344  13.372
30521W        W96930  41.903  42.271  12.622
30522W        W96931  37.504  33.855  11.707
30523W        W96932  20.026   0.439   2.626
30524W        W96933   4.372  27.943   0.563
30525W        W96934  17.599  25.993   0.461
30526W        W96935  14.110   0.880   2.121
30527W        W96936  16.106  22.794   2.423
30528W        W96937   8.198  32.542   2.790
30529W        W96938  35.160  11.424   4.903
30530W        W96939  24.654  38.114  11.683
30531W        W96940  32.127  31.299   1.289
30532W        W96941  44.973  27.604   4.657
30533W        W96942  33.313   9.622   1.173
30534W        W96943   3.230  39.282   0.942
30535W        W96944  28.146   4.527  12.926
30536W        W96945  26.530   7.330   1.974
30537W        W96946  13.866  16.123   2.204
30538W        W96947   5.264   3.741  12.388
30539W        W96948  17.667  20.565   3.210
30540W        W96949   5.036  26.740   1.489
30541W        W96950  29.236  33.665  13.373
30542W        W96951   9.892   2.228  12.594
30543W        W96952  12.416  25.531   2.763
30544W        W96953  43.133  29.994   2.018
30545W        W96954  25.180  24.968   4.014
30546W        W96955  42.530  12.741  11.158
30547W        W96956   3.231  38.111  13.869
30548W        W96957  15.016   8.192   2.715
30549W        W96958   6.931  44.377   2.707
30550W        W96959  34.475  44.510   1.347
30551W        W96960  40.887   4.310   0.029
30552W        W96961  16.622  35.900   0.912
30553W        W96962  27.241   6.001  12.818
30554W        W96963  41.154  36.957   0.888
30555W        W96964  35.878  23.288   2.908
30556W        W96965  23.702  44.195   5.012
30557W        W96966  42.850   1.886   1.243
30558W        W96967   9.910  20.493  13.146
30559W        W96968   8.956  35.682  11.638
30560W        W96969  44.214   3.647  11.188
30561W        W96970  15.619  36.352   0.501
30562W        W96971  30.912  34.893   5.244
30563W        W96972  21.826  30.623   2.923
30564W        W96973  38.628   7.834   3.144
30565W        W96974  18.215  15.118   2.155
30566W        W96975   4.402   8.132   2.334
30567W        W96976  24.966  32.641  11.399
30568W        W96977  35.553   9.601  14.338
30569W        W96978  25.366  10.895  11.622
30570W        W96979   3.751  30.111   3.715
30571W        W96980   7.821   6.219   1.836
30572W        W96981  36.150   3.273  13.026
30573W        W96982   4.607  44.021  11.219
30574W        W96983  44.959   4.262   2.176
30575W        W96984  15.582  29.391   0.905
30576W        W96985  10.779  17.763  11.194
30577W        W96986  32.515   5.482   4.776
30578W        W96987  23.457  35.426   4.404
30579W        W96988  34.496  36.499  10.744
30580W        W96989  28.523   5.007   3.486
30581W        W96990  15.869   6.147   2.911
30582W        W96991  25.475  15.144   1.812
30583W        W96992   4.154  31.989  14.446
30584W        W96993   3.333  26.444  11.418
30585W        W96994  21.504  44.633  11.028
30586W        W96995  15.550  17.583  10.043
30587W        W96996  18.522  26.500   1.813
30588W        W96997   5.181   1.746   3.083
30589W        W96998   9.815  41.071   1.398
30590W        W96999  17.707  15.915  13.079
30591W        W97000   8.820   7.698   4.587
30592W        W97001  15.337  40.911  10.104
30593W        W97002  36.234  26.910   1.901
30594W        W97003  20.366  23.492   2.246
30595W        W97004  19.204  37.033   3.440
30596W        W97005  37.227  11.148   3.201
30597W        W97006  29.382  33.974   3.402
30598W        W97007  15.285  31.632   3.240
30599W        W97008  33.613  30.206   0.421
30600W        W97009  14.664  36.763   1.897
30601W        W97010  14.987  27.029   2.857
30602W        W97011  15.069   1.548  13.182
30603W        W97012  18.490   4.210  13.901
30604W        W97013  44.940  30.681   4.180
30605W        W97014   9.375  39.304  14.164
30606W        W97015  19.180  38.093  12.910
30607W        W97016  32.959  44.463  11.512
30608W        W97017  20.817   6.239  10.682
30609W        W97018  38.311  11.282  14.872
30610W        W97019   4.373  15.239   3.204
30611W        W97020  15.599  17.043   2.622
30612W        W97021  17.634  40.417   0.672
30613W        W97022  21.965  31.102  10.777
30614W        W97023  16.314  18.223  10.192
30615W        W97024  33.002  42.983  11.495
30616W        W97025  28.175  29.888  14.884
30617W        W97026   8.678  30.711  14.443
30618W        W97027  21.679  11.403  10.501
30619W        W97028  18.574  11.890   2.735
30620W        W97029   6.574  29.567   2.679
30621W        W97030   0.793   1.639  13.974
30622W        W97031   1.076  10.967   1.627
30623W        W97032   4.855  10.888   4.040
30624W        W97033   6.206  36.349  13.896
30625W        W97034  10.907  17.007   4.030
30626W        W97035   7.787  16.175  12.814
30627W        W97036  28.747  29.652   0.948
30628W        W97037  10.208  23.052  14.107
30629W        W97038   4.238  26.739   1.748
30630W        W97039  44.944  16.108   3.312
30631W        W97040  32.944  41.409   1.289
30632W        W97041  28.940   5.573  10.566
30633W        W97042  15.633  33.901   4.993
30634W        W97043  19.533  14.286  11.526
30635W        W97044  22.667  29.045  12.430
30636W        W97045  35.323  20.875  11.112
30637W        W97046  33.328   0.333   2.831
30638W        W97047  23.430  23.997   0.030
30639W        W97048   3.864  10.127   1.460
30640W        W97049  42.709  23.881   2.612
30641W        W97050  16.982  42.440  11.625
30642W        W97051  18.081  35.503  12.875
30643W        W97052   0.202  41.692  14.911
30644W        W97053  42.060  31.367  11.586
30645W        W97054  18.700  21.932   2.718
30646W        W97055  21.474  14.386  13.037
30647W        W97056  37.482  16.030  10.692
30648W        W97057  42.656   7.357   4.189
30649W        W97058  12.264  12.793   4.455
30650W        W97059  40.802  27.507  13.600
30651W        W97060  28.995  28.493  14.936
30652W        W97061  33.895  26.176   3.199
30653W        W97062  29.272  18.628  10.678
30654W        W97063  20.952  29.674   4.056
30655W        W97064  39.617   8.180   3.206
30656W        W97065   0.346  31.626  12.459
30657W        W97066  22.979  12.666   0.906
30658W        W97067  40.519   5.861   1.194
30659W        W97068  44.140  25.791   1.364
30660W        W97069  18.806   5.014   2.663
30661W        W97070  10.937  36.593  10.515
30662W        W97071  27.370  38.413   2.718
30663W        W97072   2.946  38.917   4.391
30664W        W97073  35.060  33.413   0.215
30665W        W97074  30.150  10.474  12.523
30666W        W97075  41.152  34.509   4.347
30667W        W97076  27.549  35.115  13.483
30668W        W97077  34.010  19.060  10.754
30669W        W97078  12.886  29.687   3.273
30670W        W97079  42.746   0.169  11.216
30671W        W97080   6.843  44.814   3.231
30672W        W97081  44.328  16.275   2.658
30673W        W97082  43.517  27.428  12.025
30674W        W97083  22.005  24.721  12.970
30675W        W97084  38.156  41.914   4.175
30676W        W97085  39.288  33.356   1.959
30677W        W97086  31.830  29.845   4.112
30678W        W97087  18.279  33.787   1.487
30679W        W97088  28.761  19.199  13.624
30680W        W97089  37.474  32.980   0.707
30681W        W97090  27.750  13.783  11.129
30682W        W97091  40.273  23.750  12.963
30683W        W97092   9.349  26.309  11.677
30684W        W97093  13.861  42.584   3.678
30685W        W97094  32.123  13.245  12.507
30686W        W97095  38.942  11.986  11.706
30687W        W97096  39.843  44.282  12.073
30688W        W97097  22.510  35.118   1.124
30689W        W97098  29.018  32.893   2.140
30690W        W97099  15.457   1.498   5.086
30691W        W97100  14.296  31.111   2.227
30692W        W97101   3.372   1.065   4.596
30693W        W97102   2.532  40.263  11.013
30694W        W97103  15.735  12.434  11.670
30695W        W97104  15.451   4.646   3.627
30696W        W97105  13.072   8.770  13.422
30697W        W97106  27.700   0.944   2.296
30698W        W97107   0.571  36.259  12.963
30699W        W97108  16.148   5.184   3.285
30700W        W97109  39.302  12.802  12.754
30701W        W97110  39.567   0.358   2.287
30702W        W97111  33.540  36.438   9.902
30703W        W97112  19.009  43.477   1.979
30704W        W97113  28.188   3.933   5.005
30705W        W97114   5.523  38.410  10.529
30706W        W97115  31.456  30.115  13.550
30707W        W97116  35.783  39.564  12.662
30708W        W97117  23.959   1.387  12.226
30709W        W97118   9.230  27.592  14.719
30710W        W97119   1.942  39.273   0.933
30711W        W97120  41.611   7.996  10.969
30712W        W97121  32.970   5.089   0.187
30713W        W97122  33.691  24.542   4.208
30714W        W97123   7.866   4.346  11.352
30715W        W97124   9.867  23.234  10.666
30716W        W97125  35.183  44.862   3.288
30717W        W97126  11.466   7.786  11.819
30718W        W97127  24.821  39.809   3.250
30719W        W97128  17.098   4.183  13.347
30720W        W97129  27.599  25.591  14.519
30721W        W97130   7.217  17.816   2.588
30722W        W97131  35.017  31.234   2.306
30723W        W97132  22.089  21.492  14.368
30724W        W97133   7.148  22.092   3.156
30725W        W97134  38.088  29.644  13.206
30726W        W97135  43.867  42.998  12.338
30727W        W97136  33.108  23.657  11.882
30728W        W97137  22.545  17.276  14.102
30729W        W97138  27.193  10.167   4.185
30730W        W97139  33.493  24.321  12.842
30731W        W97140  15.327   6.908   4.913
30732W        W97141  41.965  15.226   0.417
30733W        W97142  42.595   4.406   4.127
30734W        W97143  11.809  24.249   3.952
30735W        W97144   2.131  27.700  12.942
30736W        W97145  36.073  15.639  11.071
30737W        W97146  23.108  22.340  12.555
30738W        W97147  40.941  35.188   0.879
30739W        W97148  16.808  10.044   1.413
30740W        W97149  41.860  12.597  14.430
30741W        W97150  20.888  23.674  14.879
30742W        W97151   0.357  33.573  14.323
30743W        W97152  27.406  17.107  13.177
30744W        W97153  34.468   5.307   2.939
30745W        W97154  23.122  28.638  13.048
30746W        W97155  24.946   4.643   0.822
30747W        W97156   8.802  14.262  11.107
30748W        W97157  29.988  11.635  14.326
30749W        W97158  42.370   6.726  11.197
30750W        W97159  44.894  44.205  11.094
30751W        W97160  21.755   0.480   2.386
30752W        W97161  40.117  20.173  11.650
30753W        W97162  16.520  38.294   1.203
30754W        W97163  32.569  26.185   2.362
30755W        W97164  12.379   5.933   5.010
30756W        W97165  19.564  30.242   4.637
30757W        W97166  24.242  31.852  11.208
30758W        W97167   3.929  23.628  11.176
30759W        W97168   1.712  22.189   4.311
30760W        W97169  20.816  23.084   0.795
30761W        W97170  23.596   1.221  11.595
30762W        W97171  21.128   7.428   1.304
30763W        W97172  40.847  14.556   3.112
30764W        W97173  10.266  13.538  14.994
30765W        W97174  23.619  34.552   3.711
30766W        W97175   1.254  12.618   4.182
30767W        W97176  21.478   7.760   3.195
30768W        W97177  44.532  30.393   1.150
30769W        W97178  15.134  42.790  13.301
30770W        W97179   7.742  36.899  14.243
30771W        W97180   4.946  17.846  11.480
30772W        W97181   9.536  15.006   4.149
30773W        W97182  11.129   6.176   4.632
30774W        W97183  37.762  43.500   1.453
30775W        W97184  34.596  36.817   4.199
30776W        W97185  37.258  30.453  12.918
30777W        W97186  21.547  36.824   1.888
30778W        W97187   9.795  12.618   2.157
30779W        W97188  25.650  35.984   5.126
30780W        W97189  20.203  35.965   3.376
30781W        W97190  19.002  43.778  11.235
30782W        W97191  14.722   2.795  13.788
30783W        W97192  17.097  16.574   1.010
30784W        W97193  19.042  18.332  11.149
30785W        W97194  44.337  16.315  13.105
30786W        W97195   8.897  35.319   2.547
30787W        W97196  24.921  30.978   0.000
30788W        W97197  12.828  35.138  12.144
30789W        W97198  23.810  17.052   0.843
30790W        W97199  18.032   9.414   3.701
30791W        W97200   0.893   7.324  14.850
30792W        W97201  11.682  32.861   3.089
30793W        W97202  24.716  42.876   2.184
30794W        W97203   6.840  33.865  12.212
30795W        W97204  37.128  44.249  10.699
30796W        W97205  13.952  37.530  14.139
30797W        W97206   9.213  17.307   2.852
30798W        W97207  33.821  20.003   1.637
30799W        W97208  13.669   1.256  11.959
30800W        W97209  44.306  22.498   2.810
30801W        W97210  17.489  36.063   2.161
30802W        W97211   2.272   7.273   2.380
30803W        W97212  28.030   5.643   0.913
30804W        W97213  15.101   2.851  11.049
30805W        W97214  19.114  23.645   0.361
30806W        W97215  41.011  10.249   1.429
30807W        W97216   1.890   8.764  11.865
30808W        W97217  22.232  29.429   2.474
30809W        W97218  32.480   1.746  13.114
30810W        W97219  32.436  11.002  11.545
30811W        W97220  10.616   2.911  13.556
30812W        W97221  11.363   9.182  12.162
30813W        W97222  34.347  17.209  14.405
30814W        W97223  39.406   1.028  11.038
30815W        W97224  22.547   8.144   0.222
30816W        W97225  16.045   4.705  10.778
30817W        W97226   4.292  12.640  14.007
30818W        W97227  44.561  31.092  13.415
30819W        W97228  44.846  32.396  13.140
30820W        W97229  18.107  37.193   1.781
30821W        W97230  11.551  22.060   1.674
30822W        W97231   8.094  34.389  13.435
30823W        W97232  17.653   0.122   3.260
30824W        W97233   7.463  20.193   2.724
30825W        W97234  12.071  27.136  13.790
30826W        W97235   3.368  25.813   3.390
30827W        W97236   2.469  33.559  11.644
30828W        W97237  43.925  12.243   2.689
30829W        W97238  21.559  16.081  14.907
30830W        W97239  40.407   2.553   2.440
30831W        W97240  21.549  14.332   1.731
30832W        W97241  36.066   7.225   0.266
30833W        W97242  13.939  11.723  13.346
30834W        W97243   9.334   1.014  14.880
30835W        W97244  34.168  20.219   1.334
30836W        W97245   9.449  25.624   1.436
30837W        W97246  10.264  42.448  13.046
30838W        W97247  37.025  31.852  10.993
30839W        W97248  36.595  14.116  14.913
30840W        W97249  23.204  39.398  14.711
30841W        W97250  37.136   0.218   0.035
30842W        W97251  35.124   8.389  14.806
30843W        W97252  23.134  21.109  11.785
30844W        W97253  19.057  44.009  13.831
30845W        W97254  39.549  26.944   3.785
30846W        W97255  38.819  44.481   3.283
30847W        W97256  35.819  39.523   0.232
30848W        W97257   9.929   9.890   1.192
30849W        W97258  11.822  23.770   4.182
30850W        W97259  21.032  17.050   0.751
30851W        W97260  33.300  42.720  12.968
30852W        W97261   7.338  13.203   1.968
30853W        W97262  28.958  31.709   1.308
30854W        W97263  37.750  15.614   1.389
30855W        W97264  23.775  19.676   3.635
30856W        W97265   3.817  22.578  14.941
30857W        W97266  30.657  44.393  11.713
30858W        W97267  31.869  38.798  14.974
30859W        W97268   2.527  11.761   2.015
30860W        W97269  36.126  27.701  12.428
30861W        W97270  36.741  16.648   0.325
30862W        W97271  44.247  28.144  12.571
30863W        W97272  34.897   3.510  12.515
30864W        W97273  26.269  26.489  14.073
30865W        W97274  27.324   4.276   2.119
30866W        W97275  26.984   0.993   1.681
30867W        W97276  36.230   7.935   5.107
30868W        W97277   3.184  29.665   0.408
30869W        W97278  35.596  29.506  14.031
30870W        W97279  36.005   2.012   4.116
30871W        W97280  19.510  43.885   0.550
30872W        W97281  39.290  21.698  11.507
30873W        W97282   6.960  40.247   1.481
30874W        W97283  34.169  13.084  11.088
30875W        W97284  19.195  41.570  13.784
30876W        W97285   5.777  25.428   3.143
30877W        W97286  22.523   0.892   2.518
30878W        W97287  16.586  17.874   0.755
30879W        W97288  44.006  33.738   0.276
30880W        W97289  17.128  33.904  11.564
30881W        W97290  19.543   5.114  14.210
30882W        W97291   1.971  27.019   4.651
30883W        W97292  29.232  36.613  13.398
30884W        W97293  34.371   5.471  11.840
30885W        W97294  13.897  19.745  14.487
30886W        W97295  31.539   2.172  14.381
30887W        W97296  37.232  40.202   4.992
30888W        W97297  22.654   6.347   1.448
30889W        W97298   3.675  10.650   4.510
30890W        W97299   6.512  23.515  10.342
30891W        W97300  10.677  28.502   0.350
30892W        W97301   0.076  33.597   1.160
30893W        W97302  34.014  21.022   0.941
30894W        W97303  28.355  42.711   1.397
30895W        W97304  38.877   8.585   4.242
30896W        W97305  20.209  25.719   0.032
30897W        W97306  42.517   9.454  12.445
30898W        W97307  31.976  25.748   0.284
30899W        W97308  25.226  18.317   3.265
30900W        W97309  12.711  39.370   0.063
30901W        W97310  31.480   0.136  10.396
30902W        W97311   3.930  22.534   1.493
30903W        W97312   6.967  40.774   1.660
30904W        W97313  30.162  11.754   2.731
30905W        W97314  10.420   6.000  10.572
30906W        W97315   8.802   5.751   1.325
30907W        W97316  16.153  39.538   2.161
30908W        W97317  22.511  11.760  11.607
30909W        W97318  19.819  31.426  13.288
30910W        W97319  32.226  13.206  10.528
30911W        W97320  39.104   0.744  13.932
30912W        W97321  20.737  42.315   4.362
30913W        W97322   8.646  20.060  12.984
30914W        W97323  24.291  43.815   3.320
30915W        W97324  15.218  33.691  11.463
30916W        W97325  17.367  18.345  11.278
30917W        W97326  30.242  37.883   3.678
30918W        W97327  20.197  25.950  11.532
30919W        W97328  33.308   6.895  12.237
30920W        W97329  11.283  14.689   2.417
30921W        W97330  30.514   4.477   0.366
30922W        W97331  14.365  16.045  10.987
30923W        W97332   9.955  20.145   0.225
30924W        W97333  11.706  24.007   0.457
30925W        W97334   1.764  22.023  10.601
30926W        W97335  15.012  41.365   4.850
30927W        W97336   4.734  16.475   0.285
30928W        W97337  37.795  16.646  11.872
30929W        W97338   5.892  42.442  13.026
30930W        W97339  42.369  12.062  13.035
30931W        W97340   6.993  44.834  11.634
30932W        W97341  15.845  40.523  14.653
30933W        W97342  34.160  15.229   2.198
30934W        W97343  42.706  27.175  12.162
30935W        W97344  30.469  40.582   4.098
30936W        W97345  15.235  25.877   3.704
30937W        W97346   5.129  41.639   0.941
30938W        W97347  26.472  24.292  12.185
30939W        W97348  33.961  40.329   4.379
30940W        W97349  12.147  27.723  12.453
30941W        W97350   5.213   2.218  11.159
30942W        W97351  12.202  34.370  13.067
30943W        W97352  30.831  10.414  13.519
30944W        W97353  31.414  35.289  11.545
30945W        W97354  18.560  30.765  11.173
30946W        W97355  33.312  35.537   1.026
30947W        W97356  34.474  42.498  14.376
30948W        W97357  30.861  26.691   0.249
30949W        W97358   2.127  16.168  12.109
30950W        W97359   6.060   3.872   0.292
30951W        W97360  22.605  30.764   3.718
30952W        W97361  37.565   0.405   3.820
30953W        W97362  18.263  27.192  10.390
30954W        W97363  16.867  34.403  13.962
30955W        W97364  20.143  19.876   4.129
30956W        W97365   4.913  21.091  12.418
30957W        W97366  22.131  39.419  12.457
30958W        W97367  23.006   7.176  11.835
30959W        W97368  28.721  25.471   4.128
30960W        W97369  40.683  20.585  12.062
30961W        W97370  39.881  31.439  13.048
30962W        W97371  22.519   7.990  13.523
30963W        W97372  23.660  11.303  14.925
30964W        W97373   6.345  34.814   4.234
30965W        W97374  13.304  19.008   0.520
30966W        W97375   3.251   1.269  12.980
30967W        W97376  23.139   7.227   4.454
30968W        W97377  41.439  24.303  10.696
30969W        W97378  42.545   8.408  11.101
30970W        W97379  18.365   1.934   4.808
30971W        W97380  23.354  31.857   1.297
30972W        W97381  30.170  14.704  12.558
30973W        W97382   5.337  38.062   3.303
30974W        W97383  35.563  11.773  10.738
30975W        W97384   8.239   6.455  12.448
30976W        W97385  35.061   6.202   2.340
30977W        W97386  34.494  42.564   2.251
30978W        W97387  33.005  39.277   1.325
30979W        W97388  40.019  36.572  14.721
30980W        W97389  28.489  40.220   1.428
30981W        W97390  22.315   5.463   2.364
30982W        W97391  40.958  14.611   4.014
30983W        W97392  26.467   5.904   3.645
30984W        W97393  42.214  42.307  13.943
30985W        W97394  34.536   9.003   4.274
30986W        W97395  22.725   6.329  10.662
30987W        W97396  34.248   1.986  10.818
30988W        W97397   2.360  30.825  14.301
30989W        W97398  34.112  39.789  12.697
30990W        W97399   6.247   5.407  12.088
30991W        W97400  11.494  30.014   4.440
30992W        W97401  35.055  33.094   3.026
30993W        W97402  18.104  10.241   4.124
30994W        W97403  18.740   1.787  13.838
30995W        W97404  39.888  14.756  14.872
30996W        W97405  38.957  20.197   0.565
30997W        W97406  26.864   8.376  12.567
30998W        W97407  22.805  28.223   1.312
30999W        W97408  42.469  14.087  10.732
31000W        W97409  27.713  39.204  12.734
31001W        W97410   7.419  27.160  11.576
31002W        W97411  19.732   7.376  11.214
31003W        W97412  44.601   6.151   0.318
31004W        W97413   1.116  35.340   4.076
31005W        W97414   6.318  28.179  13.026
31006W        W97415  16.858  33.677   2.036
31007W        W97416  44.638  28.329   2.787
31008W        W97417   1.242  14.153  11.185
31009W        W97418   7.085  33.967  13.997
31010W        W97419  38.588  18.536  12.643
31011W        W97420   6.692   5.371  11.863
31012W        W97421  35.984  33.155  11.200
31013W        W97422  15.223  26.942   4.642
31014W        W97423  33.874  35.055   3.270
31015W        W97424  15.823  43.612   2.686
31016W        W97425  44.587  11.941  11.087
31017W        W97426   4.922  29.069  14.748
31018W        W97427  10.297  36.099  10.988
31019W        W97428  10.161  22.078  11.164
31020W        W97429  15.416  42.199   4.323
31021W        W97430  10.084   9.103  12.365
31022W        W97431  18.170  23.745   4.635
31023W        W97432  23.766  16.358   3.326
31024W        W97433  34.709  17.650  14.914
31025W        W97434  33.344  31.502   2.312
31026W        W97435  15.422  19.753  12.537
31027W        W97436   3.924  19.660  12.933
31028W        W97437   8.847  18.410  12.063
31029W        W97438  13.358   6.145  12.621
31030W        W97439   5.408  44.747   3.224
31031W        W97440   1.291  22.672  13.586
31032W        W97441  15.202   0.344  13.641
31033W        W97442  30.951  26.728   2.823
31034W        W97443  22.659   0.658   2.947
31035W        W97444   7.944  38.779   0.755
31036W        W97445  19.632  29.095  10.730
31037W        W97446  36.871  42.786  10.493
31038W        W97447  35.301   6.731  10.846
31039W        W97448  28.451   9.323  14.986
31040W        W97449   9.071   7.371   1.406
31041W        W97450  25.680  16.172  13.585
31042W        W97451  41.887  43.280  10.987
31043W        W97452  41.914  16.031   4.246
31044W        W97453  23.106  41.910   2.081
31045W        W97454  37.181  21.504  13.133
31046W        W97455  26.562  19.677  11.617
31047W        W97456  41.065  37.421   0.255
31048W        W97457  35.810  12.242  10.813
31049W        W97458  14.324  10.651  13.077
31050W        W97459   4.357  24.589  12.843
31051W        W97460  28.086  43.587  10.197
31052W        W97461  31.639  15.099  14.524
31053W        W97462  10.486  34.832  12.368
31054W        W97463  12.812  11.620  11.569
31055W        W97464   3.823  20.458  11.703
31056W        W97465  42.244  42.931  10.794
31057W        W97466  13.041   5.914   4.487
31058W        W97467   5.543  13.289   1.619
31059W        W97468  17.979  17.397  13.486
31060W        W97469  38.446  43.719   3.697
31061W        W97470  21.240  27.419   4.158
31062W        W97471  40.955  23.985   1.689
31063W        W97472  33.962   8.400  10.848
31064W        W97473   1.224   2.913  13.936
31065W        W97474  37.344  42.877   4.592
31066W        W97475  17.219  41.122  10.123
31067W        W97476  23.067  28.120  10.600
31068W        W97477  34.819   6.853  10.697
31069W        W97478  40.469  20.145  14.953
31070W        W97479  19.379   6.811   0.714
31071W        W97480  41.429   3.205   3.832
31072W        W97481  25.995   6.904   2.826
31073W        W97482   1.443  17.489  11.708
31074W        W97483  38.070  40.292   2.731
31075W        W97484  24.642  43.960  10.748
31076W        W97485  40.601  30.937  14.808
31077W        W97486  17.335  42.400   1.258
31078W        W97487  25.630  34.841   1.270
31079W        W97488   6.461  21.048  13.910
31080W        W97489   0.934  15.684   2.476
31081W        W97490  27.951  39.751  11.611
31082W        W97491  30.543   6.300  13.810
31083W        W97492  34.381  16.310   3.127
31084W        W97493  16.203  16.042   1.613
31085W        W97494  25.312  43.192  12.182
31086W        W97495  14.384   3.056   4.097
31087W        W97496  19.579  26.106  13.071
31088W        W97497  31.851  17.180   3.194
31089W        W97498  27.580  19.825  11.021
31090W        W97499  19.216  20.609  13.549
31091W        W97500  10.414  37.084  13.086
31092W        W97501  19.975  19.064  14.494
31093W        W97502  33.136   5.199  12.461
31094W        W97503  15.977   3.856  11.441
31095W        W97504  16.846  25.228   3.242
31096W        W97505   6.346  39.897   4.444
31097W        W97506   0.298  43.041   2.223
31098W        W97507  16.345   6.275  13.052
31099W        W97508   7.620  35.545  12.623
31100W        W97509  25.502  36.645   4.870
31101W        W97510  11.924  38.893  14.773
31102W        W97511  37.762  15.578   3.317
31103W        W97512  23.583  39.985   0.870
31104W        W97513  27.478   1.905  12.048
31105W        W97514  20.981  29.115   2.323
31106W        W97515  20.810  18.555   2.638
31107W        W97516  41.663   4.965  11.576
31108W        W97517  31.951  10.607  12.658
31109W        W97518   5.595  15.350   2.361
31110W        W97519  10.082  16.649   1.196
31111W        W97520   7.913   0.768   3.248
31112W        W97521  27.701   8.713  14.618
31113W        W97522  29.492  36.384  13.012
31114W        W97523   4.476  32.682   3.033
31115W        W97524  17.147  10.804  13.624
31116W        W97525  43.785   6.406   1.770
31117W        W97526  42.441  28.668   4.780
31118W        W97527  16.781  32.708  10.930
31119W        W97528  35.559   1.980   4.383
31120W        W97529  22.589  44.869  13.311
31121W        W97530   6.728  40.247   3.782
31122W        W97531   3.906  24.584  11.541
31123W        W97532  10.543  39.298   2.406
31124W        W97533   6.088  11.330  11.898
31125W        W97534  23.094  22.753  13.960
31126W        W97535   2.763  25.502  13.670
31127W        W97536  16.228   3.785   4.558
31128W        W97537  10.567  43.882  13.673
31129W        W97538   5.723   7.226  14.483
31130W        W97539  37.507  35.041   2.659
31131W        W97540  33.012  40.728   4.732
31132W        W97541  29.436  29.346  14.855
31133W        W97542  22.598  19.457  11.618
31134W        W97543  34.960  29.688  12.877
31135W        W97544   7.434  27.381   2.432
31136W        W97545  19.663  28.229   3.368
31137W        W97546  39.015  10.142   1.923
31138W        W97547  34.461   8.602  11.253
31139W        W97548  20.534  16.653  11.560
31140W        W97549  15.400  32.863   2.694
31141W        W97550  40.048  26.076   0.065
31142W        W97551  18.036  35.145  11.016
31143W        W97552  14.534   7.752   1.258
31144W        W97553  33.005  44.752   0.283
31145W        W97554   5.589  30.990   4.577
31146W        W97555  15.413  26.736   2.833
31147W        W97556  18.087  42.985   2.562
31148W        W97557  20.256  44.858  14.086
31149W        W97558  39.424   1.712   2.743
31150W        W97559  18.196  36.886  11.624
31151W        W97560  15.703   4.426   2.259
31152W        W97561  14.954  26.136  11.630
31153W        W97562  18.584  21.574  14.411
31154W        W97563  21.708   7.454   4.060
31155W        W97564  38.201   2.044   0.668
31156W        W97565  37.241  24.969   0.803
31157W        W97566  34.691   9.359   2.350
31158W        W97567  35.284   6.873  10.365
31159W        W97568  20.159   5.881   1.502
31160W        W97569  23.977  27.677   2.908
31161W        W97570  11.045  44.728   1.239
31162W        W97571  32.243  42.459  14.063
31163W        W97572   3.754  19.916  12.512
31164W        W97573  24.100  34.550  10.818
31165W        W97574   8.793  27.947  11.191
31166W        W97575  33.603   0.386   1.015
31167W        W97576  11.880  18.651  14.742
31168W        W97577  42.269  19.078  14.586
31169W        W97578   1.942  16.233   3.153
31170W        W97579  41.962  29.612   3.772
31171W        W97580   5.311   0.413  12.673
31172W        W97581  43.552  10.680   1.431
31173W        W97582  20.513  29.383  11.015
31174W        W97583  36.939  34.636  13.849
31175W        W97584  10.441  32.086  13.844
31176W        W97585   6.841  40.801  12.050
31177W        W97586  25.396  43.532  12.660
31178W        W97587  29.584  24.724   1.199
31179W        W97588  41.541  22.184  11.686
31180W        W97589  15.142  25.887  14.668
31181W        W97590  30.558  20.917  11.983
31182W        W97591  43.077   9.754   0.749
31183W        W97592  12.143  37.616   4.738
31184W        W97593  33.090  21.058  14.475
31185W        W97594   1.751   4.908  13.878
31186W        W97595  42.735  24.536  11.145
31187W        W97596  36.021   7.875   4.557
31188W        W97597  29.482  21.029   3.233
31189W        W97598  25.648  28.398  12.434
31190W        W97599  25.752   0.480  10.818
31191W        W97600   6.755  12.298   4.412
31192W        W97601  35.527  42.779  13.100
31193W        W97602  29.258  21.274  11.150
31194W        W97603   6.838  26.567  14.514
31195W        W97604  10.007  37.448  14.490
31196W        W97605  36.795  30.442  14.980
31197W        W97606  41.889  36.459   2.159
31198W        W97607  42.913  36.395  12.578
31199W        W97608  42.985   5.188  11.814
31200W        W97609  33.482  25.145   2.492
31201W        W97610  36.893  25.998   0.808
31202W        W97611   4.789   4.819  12.704
31203W        W97612  38.007  42.748  14.371
31204W        W97613  20.139   3.525   0.416
31205W        W97614   9.404  34.569   2.222
31206W        W97615  26.730  31.039   4.986
31207W        W97616  23.280  17.090  14.473
31208W        W97617  40.843  24.448  11.089
31209W        W97618   2.605   9.145  11.776
31210W        W97619  24.008  41.877   0.228
31211W        W97620  43.772  22.287  12.855
31212W        W97621  25.875  43.571  13.473
31213W        W97622  41.352   0.024   4.655
31214W        W97623  15.196  37.619   4.470
31215W        W97624  38.571  33.866   0.872
31216W        W97625  12.719  28.451  13.967
31217W        W97626  30.437   7.688  14.357
31218W        W97627   6.194  35.923   0.159
31219W        W97628   7.937  25.020   2.910
31220W        W97629   7.208  33.002  10.512
31221W        W97630  40.954  23.012   1.999
31222W        W97631  34.599   0.200   4.593
31223W        W97632   6.278  39.549  12.353
31224W        W97633   5.379   2.727  14.486
31225W        W97634  25.525  20.638   0.255
31226W        W97635  22.061  32.393   1.329
31227W        W97636  18.108  37.570  12.450
31228W        W97637  16.910  20.559   1.328
31229W        W97638   0.026  28.586  11.474
31230W        W97639  27.559   7.896   9.791
31231W        W97640  12.861   5.436   0.726
31232W        W97641  17.705  26.982  13.923
31233W        W97642   0.839  26.694  12.061
31234W        W97643   5.337   2.066   3.883
31235W        W97644  30.030   2.856   0.783
31236W        W97645  23.404  18.500  12.479
31237W        W97646  26.571   7.503   3.351
31238W        W97647  19.705  21.525   2.391
31239W        W97648  32.953  11.024   1.939
31240W        W97649  29.831  34.929   0.980
31241W        W97650   3.927  44.450  10.761
31242W        W97651   3.290  18.138  13.425
31243W        W97652   0.673  22.881  11.058
31244W        W97653  40.547  14.667   3.587
31245W        W97654  19.759   7.485   0.371
31246W        W97655  36.865  33.004   4.374
31247W        W97656  36.411  17.612  14.690
31248W        W97657   4.288  39.528  13.497
31249W        W97658  27.208  22.250   1.695
31250W        W97659   4.468  25.774  11.695
31251W        W97660  41.782  34.886   1.013
31252W        W97661  21.514  32.489  13.310
31253W        W97662  16.201   8.388  11.562
31254W        W97663  33.592  10.281   2.672
31255W        W97664  23.680  43.581   0.746
31256W        W97665  28.263  14.558   4.898
31257W        W97666  40.214  20.325  10.434
31258W        W97667   1.910  10.645  10.962
31259W        W97668  42.843  12.170   0.451
31260W        W97669   1.624  41.931   2.576
31261W        W97670   9.617   8.861  13.549
31262W        W97671  33.004  25.752  13.891
31263W        W97672   6.325  29.980   1.032
31264W        W97673   2.595  16.781  10.421
31265W        W97674  31.964   5.761  12.414
31266W        W97675  18.892  37.358  13.538
31267W        W97676   6.090  24.422   4.008
31268W        W97677  39.746  11.812   4.180
31269W        W97678  43.782  17.090  13.906
31270W        W97679  10.663  38.081  14.522
31271W        W97680  15.677  22.748   1.660
31272W        W97681   9.400   7.900   4.497
31273W        W97682  23.652  32.603  12.448
31274W        W97683  20.191  29.655  13.971
31275W        W97684  14.184   7.588   3.238
31276W        W97685  40.862  10.698   3.285
31277W        W97686  26.110  37.458  14.012
31278W        W97687   5.997  34.447  14.944
31279W        W97688  22.557  36.497  10.758
31280W        W97689  41.153  38.944  13.882
31281W        W97690   9.915  23.395   3.105
31282W        W97691   0.467  24.737   3.218
31283W        W97692  22.207  31.556  10.755
31284W        W97693   3.361  19.168   3.348
31285W        W97694  40.476  43.261  14.004
31286W        W97695  40.123  44.716   1.916
31287W        W97696  12.867  20.568  12.455
31288W        W97697  23.908  17.611   1.207
31289W        W97698  44.043  32.386  12.331
31290W        W97699  11.535  15.277   4.439
31291W        W97700   8.477  39.520  11.521
31292W        W97701  41.543   4.868  10.674
31293W        W97702   5.592  42.673  12.057
31294W        W97703  16.252  15.262   3.690
31295W        W97704  22.722  10.437  13.331
31296W        W97705   4.848  18.173  11.111
31297W        W97706  16.350  19.011   3.202
31298W        W97707  34.544  40.261  10.977
31299W        W97708  28.367  32.551  14.004
31300W        W97709   7.425   9.776   2.340
31301W        W97710  30.661   8.841  12.005
31302W        W97711   8.349  26.735   0.847
31303W        W97712  23.500  34.333  14.253
31304W        W97713   4.394  41.826   4.146
31305W        W97714  24.141  31.137   1.263
31306W        W97715  28.752  12.740   3.751
31307W        W97716  35.767  12.651   3.689
31308W        W97717  15.326  36.641  14.579
31309W        W97718  26.092  11.081   3.174
31310W        W97719  41.372   9.014   2.381
31311W        W97720  17.547  39.572   4.060
31312W        W97721   7.023  43.848  11.830
31313W        W97722   9.811  17.770  10.454
31314W        W97723  43.683  38.000  12.917
31315W        W97724  15.664  31.940  10.646
31316W        W97725  15.662   0.101   2.792
31317W        W97726  39.710   0.878   1.770
31318W        W97727  23.221  41.270  10.787
31319W        W97728   4.330  41.240   3.723
31320W        W97729   9.508  29.044   4.577
31321W        W97730   2.414  12.761  13.795
31322W        W97731   9.659  38.174   1.685
31323W        W97732  36.710  24.004   1.555
31324W        W97733  13.288   1.093  14.541
31325W        W97734   5.679  39.974  12.560
31326W        W97735   6.370   8.887   0.538
31327W        W97736  13.681  18.710   2.707
31328W        W97737   4.670  26.304   3.159
31329W        W97738  19.316   2.881  11.143
31330W        W97739  42.732  44.436   4.123
31331W        W97740   3.824  41.692  12.177
31332W        W97741   8.974  13.823   4.516
31333W        W97742   6.597  14.406   2.172
31334W        W97743  21.395   8.838  12.005
31335W        W97744  15.354  11.092  13.958
31336W        W97745  38.070  39.393   2.732
31337W        W97746  16.784   4.255  10.904
31338W        W97747   8.617  42.014   4.818
31339W        W97748  38.451  14.232   1.736
31340W        W97749  43.870  30.442   4.744
31341W        W97750  13.555  13.830  12.615
31342W        W97751  32.730  28.994   2.291
31343W        W97752  39.799   8.155   2.710
31344W        W97753  32.337  31.478  11.120
31345W        W97754  23.222  19.892   1.935
31346W        W97755  34.108  10.756   4.935
31347W        W97756   8.345  10.646  13.918
31348W        W97757   7.750  43.273   2.883
31349W        W97758  31.935  20.749   0.923
31350W        W97759  18.548  29.735  13.852
31351W        W97760   7.654  41.385   2.904
31352W        W97761  42.664  12.696   4.708
31353W        W97762  23.732   0.904   3.597
31354W        W97763   1.853  27.384  12.499
31355W        W97764  18.893  32.601  14.718
31356W        W97765  19.095   4.383   0.863
31357W        W97766  40.679  21.497  13.961
31358W        W97767   7.628  16.776  11.569
31359W        W97768  43.226  27.191   0.932
31360W        W97769   0.810  38.933   4.936
31361W        W97770  19.633  40.240  11.122
31362W        W97771   2.350   1.740   4.230
31363W        W97772  18.468  27.601   5.008
31364W        W97773  19.723   3.889  13.566
31365W        W97774   3.385  18.832  14.816
31366W        W97775  18.807  35.873   2.752
31367W        W97776  42.485  33.972  10.987
31368W        W97777  10.117  10.089   3.032
31369W        W97778  22.587   1.840  11.645
31370W        W97779  26.390  28.411   3.943
31371W        W97780  35.814  21.715  11.464
31372W        W97781  35.610  10.841   4.371
31373W        W97782  29.501  20.222   2.662
31374W        W97783  32.922  26.952  13.512
31375W        W97784  16.547  39.411   1.679
31376W        W97785   4.383  35.984   2.751
31377W        W97786  42.368  19.374  10.544
31378W        W97787  25.728   7.166   4.647
31379W        W97788  37.216  35.741   3.162
31380W        W97789  35.033  27.183  14.882
31381W        W97790  36.010  10.945   0.061
31382W        W97791  44.217  17.648   2.501
31383W        W97792  31.580  27.125   2.316
31384W        W97793  37.427  24.327   2.342
31385W        W97794  13.964  31.577  11.119
31386W        W97795  26.321  23.585   2.840
31387W        W97796  44.799  29.411  14.033
31388W        W97797  14.875  34.514  10.446
31389W        W97798   3.883  18.858   1.759
31390W        W97799  15.836   4.232  14.438
31391W        W97800   2.366   2.803  11.064
31392W        W97801  42.863  14.575   4.562
31393W        W97802  14.614  41.540  13.932
31394W        W97803  39.914  21.690   3.124
31395W        W97804   2.754  40.976   1.431
31396W        W97805   6.441  16.135  13.532
31397W        W97806  17.434  34.774   0.905
31398W        W97807   8.107  26.508  12.792
31399W        W97808  26.922  43.517  13.076
31400W        W97809  22.095  29.650  10.952
31401W        W97810  12.238   9.658  13.072
31402W        W97811  37.997  33.367  13.431
31403W        W97812  12.931  13.161   1.963
31404W        W97813  12.627  24.162   0.515
31405W        W97814   1.028  34.559   1.723
31406W        W97815  28.647  33.980   0.719
31407W        W97816  37.109  21.731  12.002
31408W        W97817   6.213  13.237   4.593
31409W        W97818  23.306   6.744   4.563
31410W        W97819  42.928   5.286   0.348
31411W        W97820   5.915   8.763  11.564
31412W        W97821  32.548  16.190   4.805
31413W        W97822   9.990  20.562   3.331
31414W        W97823  27.470  13.145   0.215
31415W        W97824  32.009  20.113   2.635
31416W        W97825  44.818  32.902  11.948
31417W        W97826   4.370  33.264   1.407
31418W        W97827   7.828  43.912  13.542
31419W        W97828  27.072  35.389  12.253
31420W        W97829  10.891  25.642  10.917
31421W        W97830  40.279  36.941  13.177
31422W        W97831  26.544   0.774   1.966
31423W        W97832  18.158  38.521   0.911
31424W        W97833  33.972  20.582  13.617
31425W        W97834  27.445  10.039   3.763
31426W        W97835  15.828  37.974  12.381
31427W        W97836  31.020  11.822   3.605
31428W        W97837  18.808  26.876  12.011
31429W        W97838  11.639  28.990  11.527
31430W        W97839  21.214  17.410   3.120
31431W        W97840  18.247  13.121  10.701
31432W        W97841  17.059  33.713   3.948
31433W        W97842  31.865  42.926  10.745
31434W        W97843  39.928   1.638   2.216
31435W        W97844   6.407  33.222   4.031
31436W        W97845  10.567  12.147   2.449
31437W        W97846  41.843  34.489  14.708
31438W        W97847  24.776   7.655   0.857
31439W        W97848  12.341   7.383   4.142
31440W        W97849  23.461   8.048  11.242
31441W        W97850  25.422   8.195  10.724
31442W        W97851  32.912  38.588   3.851
31443W        W97852  42.006  31.593   2.765
31444W        W97853   9.450  29.592  10.589
31445W        W97854  29.121  33.378   2.274
31446W        W97855  23.469  34.988   1.640
31447W        W97856  32.584  35.838   4.571
31448W        W97857  32.765  42.580  13.994
31449W        W97858  17.736   0.981  14.402
31450W        W97859  28.906  37.856  14.485
31451W        W97860  10.748   6.166  12.426
31452W        W97861  36.817  20.248   2.792
31453W        W97862  23.908   2.337  14.909
31454W        W97863  20.429   0.091   3.357
31455W        W97864  33.572  41.221  13.874
31456W        W97865   5.406   5.974   0.420
31457W        W97866  26.056  22.867  10.252
31458W        W97867  27.096  24.122   4.439
31459W        W97868  29.519   1.061  13.317
31460W        W97869  19.005  16.720  14.249
31461W        W97870  40.264  19.336  11.576
31462W        W97871   2.205  18.662   2.163
31463W        W97872  26.929  12.109  11.620
31464W        W97873  40.404  28.579  10.783
31465W        W97874  25.428  11.373  10.665
31466W        W97875  11.665   4.870  10.952
31467W        W97876  19.419  14.671  14.838
31468W        W97877  26.019  20.702  11.239
31469W        W97878  39.366  13.924   1.960
31470W        W97879  14.173  28.063  12.200
31471W        W97880  12.094  23.529  12.916
31472W        W97881  40.159  17.137  12.888
31473W        W97882  22.121  36.429   4.515
31474W        W97883   7.620  27.362   2.909
31475W        W97884  21.759   1.311   2.460
31476W        W97885   0.792   9.944   5.111
31477W        W97886  43.478  33.735  11.792
31478W        W97887  42.960  30.804  14.026
31479W        W97888  17.025  44.036  10.529
31480W        W97889  44.445   0.291   2.735
31481W        W97890  38.966  17.768  13.020
31482W        W97891  35.233  12.795   0.035
31483W        W97892  12.596  33.831   0.323
31484W        W97893  20.610  14.043   4.974
31485W        W97894   8.168  39.418   4.054
31486W        W97895  32.542  15.576  11.899
31487W        W97896  36.476  27.624  14.016
31488W        W97897  37.128  25.016  11.598
31489W        W97898  16.243  31.028   0.915
31490W        W97899   0.685   2.253  11.202
31491W        W97900  19.808   4.213  11.106
31492W        W97901   4.415  33.986   3.787
31493W        W97902   5.679  41.495   2.307
31494W        W97903  23.638  39.420  13.881
31495W        W97904  21.054   9.226  12.007
31496W        W97905  13.135   1.453   2.293
31497W        W97906  17.013  15.192   0.867
31498W        W97907  39.248  44.784  11.571
31499W        W97908  32.085  31.122  12.463
31500W        W97909   8.407  37.544   3.711
31501W        W97910   4.387   8.191   2.850
31502W        W97911  27.473   8.285  14.819
31503W        W97912  44.401   8.168  11.861
31504W        W97913  33.484  10.921   4.198
31505W        W97914   1.406  26.447   2.711
31506W        W97915  21.210  39.257   3.324
31507W        W97916  12.430   6.366  12.895
31508W        W97917  31.453  30.054  11.139
31509W        W97918   3.430  42.884  14.288
31510W        W97919  16.263  10.945  13.358
31511W        W97920  18.370  19.174  10.745
31512W        W97921  28.504  16.728  11.490
31513W        W97922  10.477  31.069   9.842
31514W        W97923  36.317  17.818  11.514
31515W        W97924  33.309   4.532   2.747
31516W        W97925   2.057   8.585   4.340
31517W        W97926  28.510  36.081   1.297
31518W        W97927  22.176   9.638   1.696
31519W        W97928  20.669   7.548  12.046
31520W        W97929  21.481  37.301   2.143
31521W        W97930  18.166  15.566  13.833
31522W        W97931  21.137  32.261  11.564
31523W        W97932  34.740  42.806   1.601
31524W        W97933  39.485   5.736   3.680
31525W        W97934  44.816  18.488   1.463
31526W        W97935   0.460  33.026  14.268
31527W        W97936   3.174   6.164   1.328
31528W        W97937  17.350  26.015   2.235
31529W        W97938  17.993  25.623  11.460
31530W        W97939   5.511  36.606   3.745
31531W        W97940   2.490  42.019   4.439
31532W        W97941   4.266  38.552   4.586
31533W        W97942  37.344  23.897   1.461
31534W        W97943  41.852  39.159   2.665
31535W        W97944  17.619  34.648   1.459
31536W        W97945  44.965  28.481  12.470
31537W        W97946   1.026  32.125   1.232
31538W        W97947   9.238  43.921  12.256
31539W        W97948  22.281  32.250   3.660
31540W        W97949  21.748  15.248   2.404
31541W        W97950  10.379  43.752   0.538
31542W        W97951  35.069  12.832   4.322
31543W        W97952  36.550  29.403  11.525
31544W        W97953  26.865  38.364   2.755
31545W        W97954  11.398  30.136  14.347
31546W        W97955  44.575  30.371   3.967
31547W        W97956  24.926  27.003   3.310
31548W        W97957   2.188  15.300  13.488
31549W        W97958   8.128  41.414  10.797
31550W        W97959  19.413   4.924   1.854
31551W        W97960   6.213  22.158   2.654
31552W        W97961  29.564  33.551  11.213
31553W        W97962  16.204  28.457   3.707
31554W        W97963  23.218  34.020   2.397
31555W        W97964   7.267  37.866  13.999
31556W        W97965  25.237  25.593   1.374
31557W        W97966  23.483  36.134  13.572
31558W        W97967  10.300  23.704   3.374
31559W        W97968  27.607  16.655   2.369
31560W        W97969   4.234  13.097  10.318
31561W        W97970  29.963  38.146   1.057
31562W        W97971  31.625  18.747   2.403
31563W        W97972  39.972   4.323  13.234
31564W        W97973  25.233  11.509   2.656
31565W        W97974  28.001   4.995   3.668
31566W        W97975  32.644  31.938   5.014
31567W        W97976  15.392   8.811   2.735
31568W        W97977  34.009  42.821   2.317
31569W        W97978   0.279  41.333   1.270
31570W        W97979   1.367  28.433   2.178
31571W        W97980  33.421  11.974   1.424
31572W        W97981  13.689  16.268  14.414
31573W        W97982  22.316  25.546  12.565
31574W        W97983  28.419  16.465  14.416
31575W        W97984   7.406  40.335  10.725
31576W        W97985  36.947  29.224  11.250
31577W        W97986  12.138  28.996  13.798
31578W        W97987   4.433  35.482  12.456
31579W        W97988   7.309  43.999  11.009
31580W        W97989   5.403  34.739   2.506
31581W        W97990  15.841  20.300   0.165
31582W        W97991  30.032  17.726   1.760
31583W        W97992   6.343  14.836  11.621
31584W        W97993  43.582   6.331  10.298
31585W        W97994   0.745  38.037  13.937
31586W        W97995  25.104  39.881  13.925
31587W        W97996  39.010  23.750  14.235
31588W        W97997   9.120  25.649  13.408
31589W        W97998  35.826  38.063   4.498
31590W        W97999  22.199  23.800  14.036
31591W        W98000  24.632  39.052  11.324
31592W        W98001  34.683  37.476  11.148
31593W        W98002  10.148   9.089   3.344
31594W        W98003  22.193  19.051   0.961
31595W        W98004  36.930  42.214   1.237
31596W        W98005  18.046   4.992  10.839
31597W        W98006  32.189  28.098  12.139
31598W        W98007  29.746  32.689   3.672
31599W        W98008  11.819  17.103   2.227
31600W        W98009  24.144  36.537   2.216
31601W        W98010  21.583  23.100   4.884
31602W        W98011  31.623  10.259   2.598
31603W        W98012  20.012  42.535  11.971
31604W        W98013  24.091  10.054  13.381
31605W        W98014  38.528  30.015   0.815
31606W        W98015  12.103  12.768  12.805
31607W        W98016   1.504  24.948  11.945
31608W        W98017  25.679  14.474   1.243
31609W        W98018  21.547  35.415  11.298
31610W        W98019  19.758  38.282   1.869
31611W        W98020  37.962   2.380  13.900
31612W        W98021  32.048  11.947   1.775
31613W        W98022   2.510  41.232  11.214
31614W        W98023  16.157  42.574   4.173
31615W        W98024  21.504  13.799   4.662
31616W        W98025  28.741  16.679   3.124
31617W        W98026  10.269   0.475  12.049
31618W        W98027  29.508   1.239   3.725
31619W        W98028  10.436  18.188   1.182
31620W        W98029  38.589  40.232  11.463
31621W        W98030  13.834  20.791   3.584
31622W        W98031   1.879   8.017  14.036
31623W        W98032  31.400   7.784  13.509
31624W        W98033  42.722  41.095  11.021
31625W        W98034  37.432  41.426   1.762
31626W        W98035  31.315  30.550   2.728
31627W        W98036  16.966  32.786  14.764
31628W        W98037  21.481   9.359   1.263
31629W        W98038  30.468  16.634   1.793
31630W        W98039   8.727  33.861   0.990
31631W        W98040  40.008  16.396   3.713
31632W        W98041   7.333   6.656   2.438
31633W        W98042  40.073  16.881  14.387
31634W        W98043  31.856  42.739  10.241
31635W        W98044  36.346  41.394   5.353
31636W        W98045   1.863  37.040   1.652
31637W        W98046  19.781   6.543  10.619
31638W        W98047  27.534  25.793  13.548
31639W        W98048   6.719  16.153  14.027
31640W        W98049   7.802  14.868  14.006
31641W        W98050   3.329  10.562  11.027
31642W        W98051  11.265  21.475   4.220
31643W        W98052  31.788  12.918   4.851
31644W        W98053  39.285   3.469   0.445
31645W        W98054  10.627  35.329  12.310
31646W        W98055  34.754   2.778  11.163
31647W        W98056  14.290  12.945  11.925
31648W        W98057   2.945   6.334   2.860
31649W        W98058  10.859  43.283  10.715
31650W        W98059   7.970  19.048   0.456
31651W        W98060  20.359   1.035   0.434
31652W        W98061  33.558  42.081  14.366
31653W        W98062  12.820  38.908   0.317
31654W        W98063  34.668  44.812   2.417
31655W        W98064  13.484  41.865   0.299
31656W        W98065  36.978  42.224  12.530
31657W        W98066  10.410  32.997   2.624
31658W        W98067  28.607  10.718   3.201
31659W        W98068  42.491  20.848   2.051
31660W        W98069   5.468   0.699   0.342
31661W        W98070   2.386  15.931  14.835
31662W        W98071  27.103  17.191   4.647
31663W        W98072  22.233   2.424  12.854
31664W        W98073  41.830  39.069  12.050
31665W        W98074  24.433  37.080   3.723
31666W        W98075   5.185   8.622   3.522
31667W        W98076  30.487  27.338  12.005
31668W        W98077  32.079  10.657   0.316
31669W        W98078  38.741  35.075  12.022
31670W        W98079   0.802  40.688  10.805
31671W        W98080  25.528  12.338   4.562
31672W        W98081  18.067  37.389   3.226
31673W        W98082  41.224   4.426  13.355
31674W        W98083  23.810  19.365   0.775
31675W        W98084   9.797  18.606  14.436
31676W        W98085  32.010  11.382  14.256
31677W        W98086   7.019  24.897  10.752
31678W        W98087   8.822  43.086  12.033
31679W        W98088  28.164  30.386  10.035
31680W        W98089  18.391  14.907  12.490
31681W        W98090  37.074  24.455   3.630
31682W        W98091  10.338  42.909   0.455
31683W        W98092  12.863   1.526  12.400
31684W        W98093   7.719  37.538  11.272
31685W        W98094  39.061  38.018  12.632
31686W        W98095  37.323  16.245  14.563
31687W        W98096  38.917   6.221   1.168
31688W        W98097   5.201  28.899  11.469
31689W        W98098  19.591   8.239   1.369
31690W        W98099  26.848  25.709  13.064
31691W        W98100  19.304  40.593   1.795
31692W        W98101   4.383  35.050   4.680
31693W        W98102  39.126  30.109   0.723
31694W        W98103  31.182  15.775  12.522
31695W        W98104  35.654  25.060   4.719
31696W        W98105  34.082   2.887  12.451
31697W        W98106  39.218  34.459  10.783
31698W        W98107  16.858  36.511  12.015
31699W        W98108   4.407   6.780   4.496
31700W        W98109  11.293  10.865  12.429
31701W        W98110  18.653   1.772  12.925
31702W        W98111   9.851  34.725   1.942
31703W        W98112  26.033  13.323   0.387
31704W        W98113   8.061  40.870  14.795
31705W        W98114  43.956  30.872  14.806
31706W        W98115   0.079   8.219  13.562
31707W        W98116  11.357  15.212  13.195
31708W        W98117  10.438  36.439  14.309
31709W        W98118   9.108  11.893  12.037
31710W        W98119  28.540  13.707   1.900
31711W        W98120  18.551   3.847   0.294
31712W        W98121  36.284  27.719  14.489
31713W        W98122  29.528  23.252  13.074
31714W        W98123  39.764   8.533  12.312
31715W        W98124   2.816  33.224  11.759
31716W        W98125  11.603   7.293   1.280
31717W        W98126  18.142  21.307  14.359
31718W        W98127  37.483  31.373  12.108
31719W        W98128   3.545   7.658   1.016
31720W        W98129  20.073  11.225   4.178
31721W        W98130   8.723   2.978  13.333
31722W        W98131   4.283  40.431  13.508
31723W        W98132  30.707  32.179  10.482
31724W        W98133  36.364  31.955  11.672
31725W        W98134   4.186  35.716  14.518
31726W        W98135   9.813  29.408   4.846
31727W        W98136  27.988  24.211  12.947
31728W        W98137   3.931  12.822   2.279
31729W        W98138  10.324   9.177   1.184
31730W        W98139  12.810  24.878  13.923
31731W        W98140  35.985  40.646   3.153
31732W        W98141   6.399   7.191   4.523
31733W        W98142   2.510  11.627  11.571
31734W        W98143  30.381  23.272  11.678
31735W        W98144  42.285   2.363  12.104
31736W        W98145  29.645   3.820   2.113
31737W        W98146   1.681   9.648  13.511
31738W        W98147  12.045  44.175  14.805
31739W        W98148  32.535  38.573  13.601
31740W        W98149  30.475  14.712  10.571
31741W        W98150  19.637  36.894   1.632
31742W        W98151  26.541  34.087   3.532
31743W        W98152  11.234   3.032   3.020
31744W        W98153  13.316  10.804   4.808
31745W        W98154  18.213  23.617   1.261
31746W        W98155  39.351   8.680   1.243
31747W        W98156   2.618  34.382   4.941
31748W        W98157  18.298  19.072  12.879
31749W        W98158  34.819  28.613   1.714
31750W        W98159  41.794  34.001  13.445
31751W        W98160  36.669  31.057   3.163
31752W        W98161  19.616  19.149  13.430
31753W        W98162  28.385  10.872  11.099
31754W        W98163  18.189   5.480  12.287
31755W        W98164  16.991  10.741   1.277
31756W        W98165  20.598  38.956  11.856
31757W        W98166  40.516  24.560   3.650
31758W        W98167  21.656   1.934  12.480
31759W        W98168  19.967  33.112   2.817
31760W        W98169  16.303  14.106  12.023
31761W        W98170  35.251  22.081   4.197
31762W        W98171   6.893  21.262  14.132
31763W        W98172  37.899  27.641   4.621
31764W        W98173  41.976  14.049   2.730
31765W        W98174  41.851  19.291  13.965
31766W        W98175  40.267  39.862  14.971
31767W        W98176   2.927  19.947   2.522
31768W        W98177  44.286  19.609  10.228
31769W        W98178   3.973  16.309  14.507
31770W        W98179  15.827  11.097  11.211
31771W        W98180  14.224  23.813  10.958
31772W        W98181  39.335  26.137   2.970
31773W        W98182  22.184   4.029   0.706
31774W        W98183  31.529  40.946  11.594
31775W        W98184  21.987   9.053   4.250
31776W        W98185  24.711  19.836   0.322
31777W        W98186   0.259  38.046   0.364
31778W        W98187  37.107   8.272  11.709
31779W        W98188  41.013  12.167  12.459
31780W        W98189  12.177   0.212  13.957
31781W        W98190  23.739   9.838  13.048
31782W        W98191   0.885   6.256   2.624
31783W        W98192  12.136  20.259   0.817
31784W        W98193  31.284  18.176  11.255
31785W        W98194  44.726  37.107  11.168
31786W        W98195  33.847   7.365  11.105
31787W        W98196   3.416  20.078  13.539
31788W        W98197  29.158  40.053  14.931
31789W        W98198  26.520   0.543  11.576
31790W        W98199  41.961  17.688  14.918
31791W        W98200   8.541  15.807   4.288
31792W        W98201   5.624  23.307  10.336
31793W        W98202  15.285  30.094  10.463
31794W        W98203  37.511  43.337   3.107
31795W        W98204  40.886  21.721   1.909
31796W        W98205  43.719  33.492   0.836
31797W        W98206  19.631  25.059   3.465
31798W        W98207  26.914  27.663   1.352
31799W        W98208  41.832  22.782   0.217
31800W        W98209   4.491   7.247  13.403
31801W        W98210  42.506  23.451  13.395
31802W        W98211  41.853  29.874  13.399
31803W        W98212  23.497  28.579  14.838
31804W        W98213  36.331  21.726  11.571
31805W        W98214  29.676  38.973   2.695
31806W        W98215   4.784   9.320   3.687
31807W        W98216  40.646  23.666   4.759
31808W        W98217  28.294  19.596   2.199
31809W        W98218  43.359  36.427  10.748
31810W        W98219   3.298  40.778   2.820
31811W        W98220  38.888  17.285   2.290
31812W        W98221  16.511  24.945  13.060
31813W        W98222  28.696  12.614  12.167
31814W        W98223  12.837  34.230  13.551
31815W        W98224   0.759   2.673  13.819
31816W        W98225  30.624  18.744   2.350
31817W        W98226  23.580  20.616  14.457
31818W        W98227   1.131   6.672  11.270
31819W        W98228  42.640  12.744   2.036
31820W        W98229  40.894   6.377  12.889
31821W        W98230  23.427  34.193  11.902
31822W        W98231  19.819   1.475   3.556
31823W        W98232  14.199   2.210   1.743
31824W        W98233  26.272  43.735  12.638
31825W        W98234  22.808   0.234   4.549
31826W        W98235  21.763  21.853   5.078
31827W        W98236  29.701  14.847  12.699
31828W        W98237  38.395   6.951  14.015
31829W        W98238  28.092  26.556   2.321
31830W        W98239  10.693  42.184   1.430
31831W        W98240  42.043  26.163   3.165
31832W        W98241  22.213  32.158  13.759
31833W        W98242  17.680  33.908   3.119
31834W        W98243  22.873  41.985   1.238
31835W        W98244  18.074  40.496   3.066
31836W        W98245   0.140  17.431  13.513
31837W        W98246  23.965  10.729   2.817
31838W        W98247  12.122  42.829   3.904
31839W        W98248  30.075   4.569   1.316
31840W        W98249  27.954  16.074  14.251
31841W        W98250  11.060  43.397   1.713
31842W        W98251   4.732  22.625  14.465
31843W        W98252  35.617  29.065   2.589
31844W        W98253  11.991  37.799   5.189
31845W        W98254   5.113  34.101   0.958
31846W        W98255  13.699  17.658   3.603
31847W        W98256  28.189  33.962  12.731
31848W        W98257   7.958  11.220  14.425
31849W        W98258  22.957   6.928   9.974
31850W        W98259  41.021  27.222   3.718
31851W        W98260   0.278  43.750  14.943
31852W        W98261  32.628  14.076  13.017
31853W        W98262  36.409  42.231  13.836
31854W        W98263  23.052  17.529  12.433
31855W        W98264  32.422   1.831   1.149
31856W        W98265  41.971  20.480   1.419
31857W        W98266  32.373  42.465  14.915
31858W        W98267  39.930   7.805  13.436
31859W        W98268  17.616  22.576   0.819
31860W        W98269  39.740   9.682  14.691
31861W        W98270  11.440  20.285  14.730
31862W        W98271  11.687  30.939  11.211
31863W        W98272   3.612  18.707   3.390
31864W        W98273  12.906  35.646   3.572
31865W        W98274  34.639   4.384  12.492
31866W        W98275  10.112  14.880   4.816
31867W        W98276  43.403  38.461   3.061
31868W        W98277  32.677   2.223   4.854
31869W        W98278  13.777  20.468  13.628
31870W        W98279  26.491  22.929   1.608
31871W        W98280   9.377  41.254  13.574
31872W        W98281  44.525  44.196  13.651
31873W        W98282   6.178  30.551  12.414
31874W        W98283  41.419  23.151   3.614
31875W        W98284  15.186  27.082   0.799
31876W        W98285  22.937   2.792  14.883
31877W        W98286  24.239  23.538   1.565
31878W        W98287  12.916  38.561  14.446
31879W        W98288  21.189  38.291  13.292
31880W        W98289   3.005  36.909  12.607
31881W        W98290  15.143  24.415   3.873
31882W        W98291  19.556  30.044  14.950
31883W        W98292  37.465  30.608   1.192
31884W        W98293  38.894  23.904   4.027
31885W        W98294  42.455  44.061   1.867
31886W        W98295  41.929  40.932  12.482
31887W        W98296  44.365  11.631  11.446
31888W        W98297  19.492   9.140  13.688
31889W        W98298  20.732   1.489  11.445
31890W        W98299   8.938   6.293  10.680
31891W        W98300  43.433   3.208   3.085
31892W        W98301  18.914  19.158  10.795
31893W        W98302  12.733  13.353   1.531
31894W        W98303  12.404  22.279  14.306
31895W        W98304  37.263  39.492   3.156
31896W        W98305  29.462  12.364  14.410
31897W        W98306  22.177  33.395  14.507
31898W        W98307  38.449  15.057   2.335
31899W        W98308  13.772  32.051  13.034
31900W        W98309  26.208  26.457   0.533
31901W        W98310  36.020  36.417  11.640
31902W        W98311   7.576  27.551  10.850
31903W        W98312  17.790  39.904   5.118
31904W        W98313  11.440  43.275   4.219
31905W        W98314  28.016  20.104  10.219
31906W        W98315  42.393   7.877   0.248
31907W        W98316  27.735  32.543   2.500
31908W        W98317  30.615  26.668  11.545
31909W        W98318  40.890   8.830  13.880
31910W        W98319  42.367  12.643   2.740
31911W        W98320  15.584  12.658  10.369
31912W        W98321  43.387   8.534  14.642
31913W        W98322  39.807   5.900  13.414
31914W        W98323  32.217  21.152  14.049
31915W        W98324  28.968   5.590   0.805
31916W        W98325  17.320  19.963  14.149
31917W        W98326  27.935   2.248  14.801
31918W        W98327  33.883  22.029  14.917
31919W        W98328  44.638  29.552  11.396
31920W        W98329  36.888   7.760   2.049
31921W        W98330  27.042  44.289   0.340
31922W        W98331  17.735  44.564   3.376
31923W        W98332  21.894   8.616   4.490
31924W        W98333  41.875  14.392  10.371
31925W        W98334  18.563  14.121   2.328
31926W        W98335   0.411  25.921  11.562
31927W        W98336  14.542   8.945  11.704
31928W        W98337  31.940   8.077   0.969
31929W        W98338  19.792  30.338   1.033
31930W        W98339  33.785   1.287   0.442
31931W        W98340  28.010  20.043  12.114
31932W        W98341  43.187  23.671   2.687
31933W        W98342  13.718  18.681   3.589
31934W        W98343  29.197  13.748   0.454
31935W        W98344  43.376  31.963  12.935
31936W        W98345  40.878   0.489   4.094
31937W        W98346   6.272  11.170  14.891
31938W        W98347  19.322  27.063  10.694
31939W        W98348  34.086  40.614  14.314
31940W        W98349   1.258  24.932  14.450
31941W        W98350   3.448  13.697  12.047
31942W        W98351   1.565   0.052   2.328
31943W        W98352   5.450   1.051   2.673
31944W        W98353  26.012  44.494   0.781
31945W        W98354  32.818  24.582  11.966
31946W        W98355  14.043  16.289   1.752
31947W        W98356  39.128  22.612   1.163
31948W        W98357  13.372   7.821  13.364
31949W        W98358  24.006  29.010   0.361
31950W        W98359  26.370   7.500  13.573
31951W        W98360  23.734   3.170   0.839
31952W        W98361  25.712  24.380   2.048
31953W        W98362  24.069  32.948  11.918
31954W        W98363  17.137   6.969  10.369
31955W        W98364  38.602   8.897   3.933
31956W        W98365  13.675  33.863   1.284
31957W        W98366  30.630  34.486   0.757
31958W        W98367  18.830  41.722   0.959
31959W        W98368  20.714   2.232   3.637
31960W        W98369  36.150   9.846  11.548
31961W        W98370  32.689  35.399   3.797
31962W        W98371  44.762  43.605  14.915
31963W        W98372   1.919  27.764   5.064
31964W        W98373  33.618  13.164   3.132
31965W        W98374  12.587  39.423  13.460
31966W        W98375  13.830  21.509   1.230
31967W        W98376  32.682   1.855  13.933
31968W        W98377   6.378  38.392   1.946
31969W        W98378  23.737   8.749   4.973
31970W        W98379  38.898  22.512   3.134
31971W        W98380   6.179   5.961   3.283
31972W        W98381  15.851   8.900  12.234
31973W        W98382  30.546  33.197   1.923
31974W        W98383  12.482   0.076   4.090
31975W        W98384   9.164  39.332   4.233
31976W        W98385  23.596  40.461   1.175
31977W        W98386  24.014   4.954  14.010
31978W        W98387  32.946  42.060   0.455
31979W        W98388  29.222  41.536  11.177
31980W        W98389  30.733   7.676   1.019
31981W        W98390  19.724  13.857   0.364
31982W        W98391  40.062  10.239   0.478
31983W        W98392  32.357  12.729  12.422
31984W        W98393  30.497  26.591   4.240
31985W        W98394  32.408  13.624   0.603
31986W        W98395  28.710  28.693  11.568
31987W        W98396  16.721  19.562  12.805
31988W        W98397   1.530  42.877   4.726
31989W        W98398   2.446  42.014  13.145
31990W        W98399  42.021  13.260  11.951
31991W        W98400  29.964  38.019  11.154
31992W        W98401  39.243  11.684   4.174
31993W        W98402  36.064  42.728  13.808
31994W        W98403  23.797  25.644   1.460
31995W        W98404  11.626  16.481  11.113
31996W        W98405   4.705  17.784   2.759
31997W        W98406  40.532  22.593   2.839
31998W        W98407  11.978  34.592   1.457
31999W        W98408  24.628  31.215  11.103
32000W        W98409  11.318  16.591  14.780
32001W        W98410  12.291  34.589  12.201
32002W        W98411  31.991   4.236  14.521
32003W        W98412  37.741  28.500  11.214
32004W        W98413  20.551  38.835   4.627
32005W        W98414  16.289  14.038   4.239
32006W        W98415  24.219  23.942   2.798
32007W        W98416   2.306  23.502  13.986
32008W        W98417  26.047  18.591  11.958
32009W        W98418  42.034  33.064  13.608
32010W        W98419  26.479  15.255  13.482
32011W        W98420  24.412  14.364   0.426
32012W        W98421  24.451  14.626  11.212
32013W        W98422  22.010   7.282   2.678
32014W        W98423  27.789  13.066   2.017
32015W        W98424   7.146  44.931  11.152
32016W        W98425  22.674  22.798  11.826
32017W        W98426  41.387  10.903   3.807
32018W        W98427   7.471  17.355  14.385
32019W        W98428  29.695  42.442   4.361
32020W        W98429  15.049  19.088   3.356
32021W        W98430  40.522  36.522  13.996
32022W        W98431   4.159   0.276  11.604
32023W        W98432   7.311  21.265   0.408
32024W        W98433  31.028  21.545  11.571
32025W        W98434   8.592  32.627  12.429
32026W        W98435  41.932  36.559   0.724
32027W        W98436  37.078  19.587   0.331
32028W        W98437  30.829  25.481   1.960
32029W        W98438   8.787  28.675  12.502
32030W        W98439  33.145  30.698   3.700
32031W        W98440  15.550  32.193  11.086
32032W        W98441   7.091  33.463  11.480
32033W        W98442  14.113  39.716  12.826
32034W        W98443  33.784  29.456  10.298
32035W        W98444  18.751   7.561   3.704
32036W        W98445  16.851  27.070  13.310
32037W        W98446  39.749  38.621   2.701
32038W        W98447  14.799  20.789  14.357
32039W        W98448   8.852   6.846   1.356
32040W        W98449  43.399  20.553   1.639
32041W        W98450   5.245   1.716  13.309
32042W        W98451  18.996  22.172  13.391
32043W        W98452  40.933  43.008  12.386
32044W        W98453  23.500   4.997  14.022
32045W        W98454  28.876  15.374  14.567
32046W        W98455  25.958   9.828   3.167
32047W        W98456   7.050   2.401   0.434
32048W        W98457  35.395   7.323   3.897
32049W        W98458  24.753  41.449   0.296
32050W        W98459  24.554   9.401   9.858
32051W        W98460   0.701  43.937   2.137
32052W        W98461  28.933  40.438  13.725
32053W        W98462   1.657  29.423   2.781
32054W        W98463  37.778  35.791  14.357
32055W        W98464   3.202  28.177  14.036
32056W        W98465  39.842  23.521  10.911
32057W        W98466   0.810  22.776   2.338
32058W        W98467   9.005  23.530   2.696
32059W        W98468  21.240  11.563  10.251
32060W        W98469  34.185   3.674  12.874
32061W        W98470   3.179  23.063  11.197
32062W        W98471  15.579  17.137  13.857
32063W        W98472  24.951  10.179   2.858
32064W        W98473  33.017  32.139   2.425
32065W        W98474  10.823  21.290   4.067
32066W        W98475  25.548  39.457   2.971
32067W        W98476  24.006  44.710  13.554
32068W        W98477  16.212  40.545  12.923
32069W        W98478  30.355  17.128   3.371
32070W        W98479  27.761  36.458  12.401
32071W        W98480  38.026  15.674   1.890
32072W        W98481  22.282  18.949  13.146
32073W        W98482  18.915  23.333  10.302
32074W        W98483  37.116   7.113  12.667
32075W        W98484  11.688  39.273  11.140
32076W        W98485  41.890  35.987   2.399
32077W        W98486  14.788  39.508  10.735
32078W        W98487  27.200  33.136   3.242
32079W        W98488  13.297  32.939  12.844
32080W        W98489   5.637  31.241  10.666
32081W        W98490   5.666   7.698  11.616
32082W        W98491   4.880   4.356  10.942
32083W        W98492  39.090   4.399   3.150
32084W        W98493   7.736  12.681   4.667
32085W        W98494  15.695  30.086   1.147
32086W        W98495  40.090  40.288   3.739
32087W        W98496   7.463   0.834   2.130
32088W        W98497   4.161  41.483  14.312
32089W        W98498  10.713  38.931  12.033
32090W        W98499   3.666  42.545  11.840
32091W        W98500  18.149  26.686  13.998
32092W        W98501  42.264  39.350   3.275
32093W        W98502  21.584  40.556   0.203
32094W        W98503  17.899  34.568   0.494
32095W        W98504   1.143  39.260   0.859
32096W        W98505   1.701   6.598  11.508
32097W        W98506  39.385  37.557   1.319
32098W        W98507   0.728  28.480   1.395
32099W        W98508  15.710  42.220  14.070
32100W        W98509   3.506  34.316  11.173
32101W        W98510  39.805  24.339  12.085
32102W        W98511  25.083  18.164  13.406
32103W        W98512   6.816  26.161  11.689
32104W        W98513  10.119  25.208   1.706
32105W        W98514   6.865   1.297  12.846
32106W        W98515   5.139   5.932   3.352
32107W        W98516  13.328  37.382   3.270
32108W        W98517  22.072  32.076  10.709
32109W        W98518   4.901  30.576   5.065
32110W        W98519   1.512  19.079  12.557
32111W        W98520  26.636  36.468   3.446
32112W        W98521   4.803   9.632  11.481
32113W        W98522  35.708  41.925   1.556
32114W        W98523  31.466   4.770   1.866
32115W        W98524   4.902  36.417  11.044
32116W        W98525  23.254   6.813   3.271
32117W        W98526  19.294  33.560  11.914
32118W        W98527  42.489  38.503   4.698
32119W        W98528  44.378  44.718   1.308
32120W        W98529  25.183  35.037   3.296
32121W        W98530  40.257   7.727  11.393
32122W        W98531  10.323  15.445   5.175
32123W        W98532  31.148  39.223  14.469
32124W        W98533   2.886  11.336   0.347
32125W        W98534   4.709   7.552  13.814
32126W        W98535  13.433  24.888  10.668
32127W        W98536  31.485  33.560  12.987
32128W        W98537  25.513  34.163  10.990
32129W        W98538   8.613   4.857  11.938
32130W        W98539  27.939  30.228   1.806
32131W        W98540  24.847  12.376  12.433
32132W        W98541  25.866   1.256  12.194
32133W        W98542   5.442  36.787  13.073
32134W        W98543  18.300  22.237  12.358
32135W        W98544   9.266  40.887  13.160
32136W        W98545  31.873   6.362   4.242
32137W        W98546   4.926  33.611   1.435
32138W        W98547  12.347   6.695   2.791
32139W        W98548  13.540  42.320   0.558
32140W        W98549  12.840   7.347   4.353
32141W        W98550  32.507  22.213  12.987
32142W        W98551  20.930  10.858   1.347
32143W        W98552   1.708  21.715  11.545
32144W        W98553  40.410  37.417   3.523
32145W        W98554  10.642  21.799  12.035
32146W        W98555  16.997  35.589   0.352
32147W        W98556  27.840  30.536   0.740
32148W        W98557  42.779   1.957   4.147
32149W        W98558  15.313  42.120  12.520
32150W        W98559  12.316  31.696   0.312
32151W        W98560   3.105  25.031  12.991
32152W        W98561  38.519  27.207  12.457
32153W        W98562  27.473  34.996  11.190
32154W        W98563  13.116  33.504   2.379
32155W        W98564  20.332  24.913   0.510
32156W        W98565  37.656  41.278   2.657
32157W        W98566  30.740  26.488   1.990
32158W        W98567  32.573  28.134  12.883
32159W        W98568   5.551  32.606  12.885
32160W        W98569   1.246  12.194   0.272
32161W        W98570  28.343  34.442   1.916
32162W        W98571  18.140  34.565  14.920
32163W        W98572   3.539   3.382  13.302
32164W        W98573  14.253   2.356   2.247
32165W        W98574  39.989  29.949   1.794
32166W        W98575  40.941  31.905   3.331
32167W        W98576  17.907  37.723  10.072
32168W        W98577   1.531  13.246   0.894
32169W        W98578  38.266  26.353  11.346
32170W        W98579  19.131  41.615   1.758
32171W        W98580  41.904   4.652  11.161
32172W        W98581  39.878   4.228  10.592
32173W        W98582   1.569   5.342  11.215
32174W        W98583   8.098   0.792   4.592
32175W        W98584  23.611  42.151  14.427
32176W        W98585  10.272   0.375  11.538
32177W        W98586  13.893  32.431  14.436
32178W        W98587   9.870   0.242   0.011
32179W        W98588  28.235  12.827  13.022
32180W        W98589   5.303  44.007   0.026
32181W        W98590  27.128  36.584   3.181
32182W        W98591  44.233  42.867   4.590
32183W        W98592  19.750  39.757   1.437
32184W        W98593  29.097  23.060   2.634
32185W        W98594  12.419  10.869   4.133
32186W        W98595  21.941  18.178   4.961
32187W        W98596   2.447  28.908  10.522
32188W        W98597  10.380  33.931   4.050
32189W        W98598  30.080  21.713   4.294
32190W        W98599  25.477  13.753   3.149
32191W        W98600  42.420  22.959  13.249
32192W        W98601   2.342  43.037   3.728
32193W        W98602  10.673  21.862  13.447
32194W        W98603   2.812  42.764   2.716
32195W        W98604  26.135   8.108  14.382
32196W        W98605  36.825  36.963   0.865
32197W        W98606  37.354   0.435  14.352
32198W        W98607  18.754  34.992   2.171
32199W        W98608  32.609  25.974  10.783
32200W        W98609   1.779   3.745   0.912
32201W        W98610  19.537  16.088  13.862
32202W        W98611  30.573  44.788  14.281
32203W        W98612  11.768  20.897   3.667
32204W        W98613  39.168  20.308   3.674
32205W        W98614  14.878   6.257  12.633
32206W        W98615  37.453  19.637  11.599
32207W        W98616  18.187   3.090  10.478
32208W        W98617   7.556  27.220  14.427
32209W        W98618  40.044  44.673  12.866
32210W        W98619  15.324   7.737   1.897
32211W        W98620  38.590  24.945  14.833
32212W        W98621  30.100  37.581   3.266
32213W        W98622  34.674   1.233  14.387
32214W        W98623   9.710  23.172   3.879
32215W        W98624  22.097  36.314   3.573
32216W        W98625  21.670  41.782   3.253
32217W        W98626  35.258  39.968   2.644
32218W        W98627  28.969   3.272   0.444
32219W        W98628  24.033   7.700  10.451
32220W        W98629  19.472  40.975  10.778
32221W        W98630  41.883  24.412  14.508
32222W        W98631   1.740  19.212   4.950
32223W        W98632  33.891  19.274   2.145
32224W        W98633  24.699  14.704   3.319
32225W        W98634  29.170  13.729  12.351
32226W        W98635  10.827  16.526   2.375
32227W        W98636  40.062  37.886   0.859
32228W        W98637  23.965  18.088   2.705
32229W        W98638  30.966  25.030   3.843
32230W        W98639  13.759  37.813   2.695
32231W        W98640  35.492  44.216   4.840
32232W        W98641  21.514  21.694  11.200
32233W        W98642   3.589   7.700  11.505
32234W        W98643   5.823   0.497   4.232
32235W        W98644  38.305  44.835   0.387
32236W        W98645  44.028   0.841   2.129
32237W        W98646  43.708   3.424  13.850
32238W        W98647  27.188  35.793   1.298
32239W        W98648   0.654  12.401  11.585
32240W        W98649  28.455  41.965   1.015
32241W        W98650  13.223   1.003  12.086
32242W        W98651  12.934   4.297   2.367
32243W        W98652   4.209  19.092   1.386
32244W        W98653  31.507  11.929  11.258
32245W        W98654   3.786  36.003   0.184
32246W        W98655  35.894  40.584  14.270
32247W        W98656  43.787  28.514   3.146
32248W        W98657  30.974   5.931   4.566
32249W        W98658   2.998  15.791  13.498
32250W        W98659  16.141  11.256  12.890
32251W        W98660   3.778  39.746   0.452
32252W        W98661  16.285  17.215   4.155
32253W        W98662   9.986  16.276   0.403
32254W        W98663   8.263  15.549   1.592
32255W        W98664   6.578  43.261   2.324
32256W        W98665  25.507  13.054   1.206
32257W        W98666  22.784  38.293  14.936
32258W        W98667   7.160   3.188  14.818
32259W        W98668  31.477  41.896   4.176
32260W        W98669  14.750  33.115  10.902
32261W        W98670  23.148  12.198  12.447
32262W        W98671  30.582  10.382  14.412
32263W        W98672   0.367  13.125  10.879
32264W        W98673  44.712  35.373   2.233
32265W        W98674  21.136  26.090  12.482
32266W        W98675   7.687  22.571   0.434
32267W        W98676   3.586   8.187  13.110
32268W        W98677  36.913  19.710   1.900
32269W        W98678   1.346   6.218  11.436
32270W        W98679  29.916  44.417   2.415
32271W        W98680  18.993  33.048   0.448
32272W        W98681  39.577   7.332   4.581
32273W        W98682  13.367  19.843  11.109
32274W        W98683  29.698  12.168  13.045
32275W        W98684  31.079  42.708  10.976
32276W        W98685   4.746  22.280   0.980
32277W        W98686  38.357  44.021  12.478
32278W        W98687   6.243   3.711  12.423
32279W        W98688  29.388  30.026  13.351
32280W        W98689  29.295   9.887  12.639
32281W        W98690   7.700   2.708  14.483
32282W        W98691  22.140  11.662   2.564
32283W        W98692  35.600  11.843  13.010
32284W        W98693   7.617   0.577   1.714
32285W        W98694  27.868  43.931  11.140
32286W        W98695   3.873  18.507  10.696
32287W        W98696  14.840  21.296  13.770
32288W        W98697  16.283  20.128  14.864
32289W        W98698  33.993   1.260  11.513
32290W        W98699  41.333   7.751   0.530
32291W        W98700  44.877  16.212   4.843
32292W        W98701  23.422  35.542  11.424
32293W        W98702  17.720  27.708   3.698
32294W        W98703  31.467   3.658   2.291
32295W        W98704   8.268  33.549  13.636
32296W        W98705   5.532  30.012  11.012
32297W        W98706  21.221  19.154   2.264
32298W        W98707  27.941  11.196   3.145
32299W        W98708   2.633  28.731   4.573
32300W        W98709   9.873   3.049  10.366
32301W        W98710  15.757  38.280   3.294
32302W        W98711  15.812   0.226   3.710
32303W        W98712  26.198   0.657  13.378
32304W        W98713  36.151  13.308   1.210
32305W        W98714  18.284  12.186  10.946
32306W        W98715  36.361  23.692  14.823
32307W        W98716  27.989   8.399   0.589
32308W        W98717  21.815  37.344  12.839
32309W        W98718   4.981  18.030   1.215
32310W        W98719  44.431   3.521   3.273
32311W        W98720  42.796  35.615   4.718
32312W        W98721   7.201  13.620  11.981
32313W        W98722   2.777  43.504   4.063
32314W        W98723   0.054  38.119  11.938
32315W        W98724  35.835  25.742   4.090
32316W        W98725  43.788  17.879   4.090
32317W        W98726   2.877  27.552   1.815
32318W        W98727  16.097  28.235  14.823
32319W        W98728  30.999  15.149   2.989
32320W        W98729  13.584  35.402  13.953
32321W        W98730  36.809  34.742  12.162
32322W        W98731  31.360  31.354  13.582
32323W        W98732  41.481  19.546   4.674
32324W        W98733  11.061   2.395   4.561
32325W        W98734  20.642  35.885   3.626
32326W        W98735   6.910  18.395  11.451
32327W        W98736  30.102  36.743  11.727
32328W        W98737   5.041  30.910   4.650
32329W        W98738   5.901  38.387  10.930
32330W        W98739  33.727  15.086  13.846
32331W        W98740  17.745  43.728   3.774
32332W        W98741  39.977  37.929  11.323
32333W        W98742   7.815  20.808  10.670
32334W        W98743  23.120  36.360   3.751
32335W        W98744  29.732   7.419   1.244
32336W        W98745  42.385  14.692  13.850
32337W        W98746  20.708  43.768  11.493
32338W        W98747  37.100  35.441   3.757
32339W        W98748   2.315  33.848   2.411
32340W        W98749  30.370  40.040  10.904
32341W        W98750  26.638  24.017   0.492
32342W        W98751  19.452  29.035  13.946
32343W        W98752  31.700  14.620   1.381
32344W        W98753   0.629  14.191   3.688
32345W        W98754   6.135   1.023  12.842
32346W        W98755  35.518  42.486  10.423
32347W        W98756  33.612  16.716  12.644
32348W        W98757  39.993   9.855  12.585
32349W        W98758   3.478  13.276   0.787
32350W        W98759  32.945  11.597   1.892
32351W        W98760  26.038   0.459   3.789
32352W        W98761   2.667  17.661   0.449
32353W        W98762  15.102   0.450  10.546
32354W        W98763  35.481  44.826  14.649
32355W        W98764  39.108  32.385   1.728
32356W        W98765   9.308  15.709   4.578
32357W        W98766  28.849  44.867   1.871
32358W        W98767  38.542  13.814   0.925
32359W        W98768  42.891  33.395   1.772
32360W        W98769  37.922  12.031   2.811
32361W        W98770  16.570  30.606   4.876
32362W        W98771  13.559  34.611  12.437
32363W        W98772  18.176  43.471  12.163
32364W        W98773  42.939  13.421  14.820
32365W        W98774  23.679   2.792  11.484
32366W        W98775   9.886  32.937  13.888
32367W        W98776  13.576  26.352  14.043
32368W        W98777  26.250  24.011  10.829
32369W        W98778  34.673  14.164  13.382
32370W        W98779  39.231  42.044   1.944
32371W        W98780  23.651  21.998  13.900
32372W        W98781   0.894  27.467  12.488
32373W        W98782  30.018  26.517  12.803
32374W        W98783   3.818   3.745  14.879
32375W        W98784  12.441  42.265   1.230
32376W        W98785  24.562   6.174  12.180
32377W        W98786  34.477  28.780   0.944
32378W        W98787   3.474  39.217  12.836
32379W        W98788   7.308  28.174  11.497
32380W        W98789   6.790  39.812  11.206
32381W        W98790  22.750  16.791  10.985
32382W        W98791  14.381  37.501  12.039
32383W        W98792  29.184   3.475  12.930
32384W        W98793  41.416  38.340   3.846
32385W        W98794  22.086  26.382   1.313
32386W        W98795  13.081   2.280  13.926
32387W        W98796  44.834  19.330   1.222
32388W        W98797   4.005   0.513   4.176
32389W        W98798  36.397  36.885  11.230
32390W        W98799  41.935  29.418  12.524
32391W        W98800  11.088  12.927   4.613
32392W        W98801  31.344  40.934   4.146
32393W        W98802  42.832  26.362   3.735
32394W        W98803   9.001  22.624   4.994
32395W        W98804  43.099   7.126  12.223
32396W        W98805  16.594   0.701  13.793
32397W        W98806  17.179  22.403   4.082
32398W        W98807   0.694  43.423   1.269
32399W        W98808   1.393  10.052  13.360
32400W        W98809   2.778  27.034   2.515
32401W        W98810   3.935   5.827  12.923
32402W        W98811   8.392   8.842  11.277
32403W        W98812  33.009  22.520  10.496
32404W        W98813  14.351  30.446   1.774
32405W        W98814  39.285  28.453   1.294
32406W        W98815  13.773   4.200  11.601
32407W        W98816  35.467  23.005   2.782
32408W        W98817  21.244  28.390  12.815
32409W        W98818  33.768  23.227   3.545
32410W        W98819  44.568  16.253  11.749
32411W        W98820  43.546   0.432  10.595
32412W        W98821  24.782  22.351   1.075
32413W        W98822  14.401  15.621  10.691
32414W        W98823  22.120  30.105   4.350
32415W        W98824  43.723  34.146   3.729
32416W        W98825  21.584  10.442  13.850
32417W        W98826   1.519  11.007   5.726
32418W        W98827   4.694  25.993  14.893
32419W        W98828   4.328  25.082  11.145
32420W        W98829   1.823   6.406   0.377
32421W        W98830  19.129  25.745  12.368
32422W        W98831  11.460  40.782  11.975
32423W        W98832  42.009   8.176   1.369
32424W        W98833  41.993  34.938   0.545
32425W        W98834  27.515  28.677  10.877
32426W        W98835   8.240  17.079  11.075
32427W        W98836  28.787  10.252   1.116
32428W        W98837  42.254  37.450  12.421
32429W        W98838  36.430  38.539  14.346
32430W        W98839  25.780  21.172  10.807
32431W        W98840  14.665  12.386  14.245
32432W        W98841  16.882   5.999  13.930
32433W        W98842  27.434  34.171   3.916
32434W        W98843  39.680  34.546  14.829
32435W        W98844  42.559  27.251  11.220
32436W        W98845  31.952  29.101  11.303
32437W        W98846  44.524  40.638   4.565
32438W        W98847   5.550  42.812   4.222
32439W        W98848  20.753  13.008  12.133
32440W        W98849  13.364   6.679  10.697
32441W        W98850  14.683  33.988   4.952
32442W        W98851   4.701   4.644   2.806
32443W        W98852   1.519  39.075   1.187
32444W        W98853   0.358   7.318  13.206
32445W        W98854  22.885  40.110  12.903
32446W        W98855   5.703  27.444   2.191
32447W        W98856  10.172  16.470   4.100
32448W        W98857   6.383  38.383   2.839
32449W        W98858  44.338  38.236   2.434
32450W        W98859   2.526   1.849  13.249
32451W        W98860  15.147  30.641   3.127
32452W        W98861  17.755   8.827   2.900
32453W        W98862   3.799   7.312   1.322
32454W        W98863   8.896  20.123   3.778
32455W        W98864  40.892  17.952   1.780
32456W        W98865  16.295  28.477   0.238
32457W        W98866  10.330   9.114   0.139
32458W        W98867  22.049   1.464  13.084
32459W        W98868  15.740  11.722   4.098
32460W        W98869  12.969  33.375  10.605
32461W        W98870  31.036  11.328   2.476
32462W        W98871  40.909  35.633   4.203
32463W        W98872  20.834   4.643   4.489
32464W        W98873  38.378   7.884  13.047
32465W        W98874  13.610   5.315   1.896
32466W        W98875  20.080   3.997  12.241
32467W        W98876  35.808  26.146   0.897
32468W        W98877  15.298  44.830   2.546
32469W        W98878  15.395  43.134  12.405
32470W        W98879   5.778  43.290   4.214
32471W        W98880  38.312   5.224   1.911
32472W        W98881   2.757  39.034   4.866
32473W        W98882   8.632  39.036   0.276
32474W        W98883  21.096  17.656  10.387
32475W        W98884  18.874   5.366  14.326
32476W        W98885  25.601  13.913  13.930
32477W        W98886  44.065  24.774  12.782
32478W        W98887  30.836   2.501  14.033
32479W        W98888  18.612   0.753  12.069
32480W        W98889  38.836  20.596   3.993
32481W        W98890  12.495   5.969  11.737
32482W        W98891   4.525  35.120  12.821
32483W        W98892  31.255  12.836  13.437
32484W        W98893  35.999  43.956  14.482
32485W        W98894  10.331  13.427   1.791
32486W        W98895   0.112  25.739  13.450
32487W        W98896  40.036   4.876  12.615
32488W        W98897   2.911  24.122   0.966
32489W        W98898  12.327  32.314  14.308
32490W        W98899  19.808  41.918   1.023
32491W        W98900  34.172  12.642  10.810
32492W        W98901  26.363  28.771  11.224
32493W        W98902   1.810  19.764  13.463
32494W        W98903  37.985   4.729  13.909
32495W        W98904   6.297  21.104  12.090
32496W        W98905   1.968  43.440   1.913
32497W        W98906  10.238  26.002   4.264
32498W        W98907  41.095  24.896  11.158
32499W        W98908  35.617  22.072  13.010
32500W        W98909  13.254  32.992  10.978
32501W        W98910  25.939   6.717  10.547
32502W        W98911   8.066  28.514   0.857
32503W        W98912  39.907   0.959   2.674
32504W        W98913  44.042  23.995   3.923
32505W        W98914   2.806  42.100  13.493
32506W        W98915   0.869  34.905   2.825
32507W        W98916  34.842  36.353  14.599
32508W        W98917  32.919   3.845   3.378
32509W        W98918  31.928  36.902   4.242
32510W        W98919  31.434  10.938  14.800
32511W        W98920  35.284  16.325   0.735
32512W        W98921  35.957  23.677  14.355
32513W        W98922  20.227   3.957   2.675
32514W        W98923  30.658  37.001  12.527
32515W        W98924   1.460  30.153   3.333
32516W        W98925   2.758   4.645   1.250
32517W        W98926  43.400  21.704  12.346
32518W        W98927   6.065   3.163  10.005
32519W        W98928  29.073  34.232   3.080
32520W        W98929  38.349  22.639  10.889
32521W        W98930  17.693  21.264   4.638
32522W        W98931   8.324  40.269  11.974
32523W        W98932  38.073  36.050  12.256
32524W        W98933   7.138   8.627  11.157
32525W        W98934  44.270  21.695   3.054
32526W        W98935  32.173  28.132   2.416
32527W        W98936   6.639  25.647   4.376
32528W        W98937  20.665  37.020  12.420
32529W        W98938   3.309   2.529  13.462
32530W        W98939   5.872  36.543   0.281
32531W        W98940  18.981  22.902  14.336
32532W        W98941  23.894  34.669   4.133
32533W        W98942  13.164   8.200   4.065
32534W        W98943   8.162  19.589   1.389
32535W        W98944  24.160  16.814  12.989
32536W        W98945  20.041  10.679  12.032
32537W        W98946  14.599  10.718   3.682
32538W        W98947   5.251  11.767   2.379
32539W        W98948  35.847  14.839   0.639
32540W        W98949  39.321  21.239  14.702
32541W        W98950  15.110  10.187   0.355
32542W        W98951   7.397  31.851   0.833
32543W        W98952  36.963  19.383   3.630
32544W        W98953  17.517  23.759   3.317
32545W        W98954  41.746  23.414  12.012
32546W        W98955  42.106  31.484   0.733
32547W        W98956   6.876   5.910  12.565
32548W        W98957  43.844  14.254  13.874
32549W        W98958  41.037  22.582   0.804
32550W        W98959  43.885  31.384  13.935
32551W        W98960  10.011  35.069  10.108
32552W        W98961   9.195  36.040  13.834
32553W        W98962  19.306   9.720   1.810
32554W        W98963  33.020  14.333   1.218
32555W        W98964  29.507   1.305  12.810
32556W        W98965  19.814  38.608  13.571
32557W        W98966  40.457  32.110   0.947
32558W        W98967  21.662  26.002   0.289
32559W        W98968   5.260  39.179   2.320
32560W        W98969   4.091  40.999  10.667
32561W        W98970   7.924  43.785   4.656
32562W        W98971  35.413  38.360   3.200
32563W        W98972  31.053  36.641  10.731
32564W        W98973  35.449  23.645  14.559
32565W        W98974   4.327  39.429  14.040
32566W        W98975  12.350  33.651   2.707
32567W        W98976   2.566  25.588   4.224
32568W        W98977  41.847  42.950   1.237
32569W        W98978  10.656  24.608  12.631
32570W        W98979  30.871  38.323   1.134
32571W        W98980  16.660  26.735  14.549
32572W        W98981  15.589  20.157  13.308
32573W        W98982  37.600  22.501   3.637
32574W        W98983  27.776  29.948   4.217
32575W        W98984  44.539   7.717   4.119
32576W        W98985   6.902  24.091   0.256
32577W        W98986   8.795  41.884   0.950
32578W        W98987  11.857  34.888   3.614
32579W        W98988   5.477   7.411   0.023
32580W        W98989  24.434   1.472  12.436
32581W        W98990  24.294   7.545   2.123
32582W        W98991  12.724  14.241   4.077
32583W        W98992  44.887  23.422   4.287
32584W        W98993  23.494  27.350  12.807
32585W        W98994  11.440  25.312   2.673
32586W        W98995  33.910   1.858  14.398
32587W        W98996   3.272  23.393   4.996
32588W        W98997  44.281  27.976   0.027
32589W        W98998  24.242   3.321  10.282
32590W        W98999  41.863  44.899   0.498
32591W        W99000   6.614  25.744  12.211
32592W        W99001  36.911  35.333   3.243
32593W        W99002   6.642  38.267   3.805
32594W        W99003  29.231  39.889   4.032
32595W        W99004  20.269  22.718  14.801
32596W        W99005  23.220   9.940   4.549
32597W        W99006   7.343  18.454   1.259
32598W        W99007   7.245   8.938   0.420
32599W        W99008  25.837  18.228  12.639
32600W        W99009  18.899  17.674  12.787
32601W        W99010  35.038   8.339   0.305
32602W        W99011  38.936  35.027   0.347
32603W        W99012  32.511  13.074  11.296
32604W        W99013  15.065   2.333   5.056
32605W        W99014  28.487  14.379  13.293
32606W        W99015  10.799  27.098   3.636
32607W        W99016   8.210  36.059  12.134
32608W        W99017  34.064  11.225   4.694
32609W        W99018  15.621  11.538  13.928
32610W        W99019   1.212  35.485   2.235
32611W        W99020   0.821   9.839   4.107
32612W        W99021  13.808   4.310  10.619
32613W        W99022  16.803   9.658  12.483
32614W        W99023   7.290  23.430  12.433
32615W        W99024   5.046  19.211   4.540
32616W        W99025   7.280  14.212  13.504
32617W        W99026   0.910  18.138   3.251
32618W        W99027  33.048   6.328  10.688
32619W        W99028   0.520  13.810  12.053
32620W        W99029   1.018   6.261  14.930
32621W        W99030  24.951  15.525   2.494
32622W        W99031  10.327  34.970   4.413
32623W        W99032  41.473  22.743  12.968
32624W        W99033  44.250  35.656  11.653
32625W        W99034  36.622   1.801  13.287
32626W        W99035  39.958  20.028  14.535
32627W        W99036  21.060   6.028  14.464
32628W        W99037  19.100   0.392  12.868
32629W        W99038   6.898  21.137  12.668
32630W        W99039  25.657  35.125  13.417
32631W        W99040  19.604  42.782  14.072
32632W        W99041  42.857  26.984   2.817
32633W        W99042  15.837  20.618   2.251
32634W        W99043  20.064  13.726  14.065
32635W        W99044  21.591   1.209  14.413
32636W        W99045   1.851   2.672  11.734
32637W        W99046  10.044  11.754  14.576
32638W        W99047  35.056  35.069  14.206
32639W        W99048   6.330  41.578  13.313
32640W        W99049  17.214  33.036   3.224
32641W        W99050  22.622  31.874  12.332
32642W        W99051  35.869  40.834  13.820
32643W        W99052  17.774  36.194  14.481
32644W        W99053   9.447  14.048   2.215
32645W        W99054  39.499   8.872  14.870
32646W        W99055  43.169  17.685  13.467
32647W        W99056  37.743  24.694   0.809
32648W        W99057  37.540  26.466  14.289
32649W        W99058  40.552  39.838  12.195
32650W        W99059   6.265  37.876   1.869
32651W        W99060  44.783  13.703  14.753
32652W        W99061  39.888   4.050   2.808
32653W        W99062  32.841  20.403   2.415
32654W        W99063  34.032  28.594   0.743
32655W        W99064  14.734   4.728  11.144
32656W        W99065  43.534  38.852  14.454
32657W        W99066  20.207   0.006   2.918
32658W        W99067   9.345  35.016  10.246
32659W        W99068  31.694   2.988   1.548
32660W        W99069   1.115  44.329   0.949
32661W        W99070   2.481  27.609  14.553
32662W        W99071  29.117  18.749   0.438
32663W        W99072  19.575  36.389   0.907
32664W        W99073  37.910  37.030  11.439
32665W        W99074   4.932  10.909   0.335
32666W        W99075   1.577  24.161  11.820
32667W        W99076  37.030  12.328   4.509
32668W        W99077  32.049   4.731  14.328
32669W        W99078  31.694  19.540   3.569
32670W        W99079   2.788   1.756  14.103
32671W        W99080   3.331   2.770  14.453
32672W        W99081  35.820  16.870   4.412
32673W        W99082   9.683  41.489   1.674
32674W        W99083  33.342   3.019  13.020
32675W        W99084  34.765   4.205  10.294
32676W        W99085  31.135  19.314  10.829
32677W        W99086  41.520  17.567  11.208
32678W        W99087  44.377  31.453   3.318
32679W        W99088  29.647  31.483   0.851
32680W        W99089  20.492  44.567   3.223
32681W        W99090   4.713  28.040   3.393
32682W        W99091   3.800   7.732  11.960
32683W        W99092  11.779  15.453   1.475
32684W        W99093  37.859  43.972  12.543
32685W        W99094  14.333   9.244  13.937
32686W        W99095  36.244  39.896   0.507
32687W        W99096   2.437  32.448   2.648
32688W        W99097   6.542  37.554  14.371
32689W        W99098  38.207  36.504  14.884
32690W        W99099  37.623  12.727  14.523
32691W        W99100  21.086  14.947   4.126
32692W        W99101  30.053   3.443  11.474
32693W        W99102   8.748   6.628   1.825
32694W        W99103  42.306  27.007  10.837
32695W        W99104  22.734   9.661   2.763
32696W        W99105  12.289  35.595   1.836
32697W        W99106  27.451  15.699  13.082
32698W        W99107   6.910  31.135   3.255
32699W        W99108  26.710  32.975  12.767
32700W        W99109  38.959  37.732   1.537
32701W        W99110  38.691  10.443   0.213
32702W        W99111  14.113  11.258  14.438
32703W        W99112   1.396  10.750  10.724
32704W        W99113   4.751  18.846   1.963
32705W        W99114  43.769  44.821   1.027
32706W        W99115  40.988   9.702  11.305
32707W        W99116  43.461  31.632  14.839
32708W        W99117  22.136  39.867   4.082
32709W        W99118  31.861  17.728  12.912
32710W        W99119  34.415  21.708   1.410
32711W        W99120  35.069   1.839   4.866
32712W        W99121  41.351  25.984  10.774
32713W        W99122   9.225  29.087  12.627
32714W        W99123  15.806  20.457   0.952
32715W        W99124  30.450  16.645   4.257
32716W        W99125  39.574  23.266  11.956
32717W        W99126  21.836   9.422  12.140
32718W        W99127  33.757  25.141   4.727
32719W        W99128  31.061  44.575  13.503
32720W        W99129  24.550   5.210  11.952
32721W        W99130  39.371  23.433   1.423
32722W        W99131  15.825   3.965   4.278
32723W        W99132  19.996  20.567  13.614
32724W        W99133  27.651  35.082   0.866
32725W        W99134  29.032  40.312  11.925
32726W        W99135  36.328  19.692  13.344
32727W        W99136  34.517   8.780  14.714
32728W        W99137  18.235  33.360   2.925
32729W        W99138  13.672  42.403  10.772
32730W        W99139   9.598   9.341   2.617
32731W        W99140  21.680  28.243   2.744
32732W        W99141  44.077  16.737   0.399
32733W        W99142  34.994  41.201   4.591
32734W        W99143   4.504  38.093   1.968
32735W        W99144  29.006  36.795   3.204
32736W        W99145  24.223  21.163   0.376
32737W        W99146  44.179  28.241  14.561
32738W        W99147  21.601  44.278  14.583
32739W        W99148  12.691   1.777   4.956
32740W        W99149  13.320   9.626   3.869
32741W        W99150   1.006   7.464  12.419
32742W        W99151  28.566   4.802   4.326
32743W        W99152  26.749  40.711  14.012
32744W        W99153  41.356   1.229  11.166
32745W        W99154  15.705   6.225   4.755
32746W        W99155  43.019  24.776  14.503
32747W        W99156  14.917  38.331  11.640
32748W        W99157  28.709  27.973  11.102
32749W        W99158  23.122  27.586   2.324
32750W        W99159  13.592  15.561   0.838
32751W        W99160  41.224  18.248   4.518
32752W        W99161   5.521  19.786  12.075
32753W        W99162  10.700  28.214  13.257
32754W        W99163  38.465  22.333  11.989
32755W        W99164  37.502  26.603   4.174
32756W        W99165  25.625   1.640   1.406
32757W        W99166  35.070  36.680  13.389
32758W        W99167   1.402   1.910  11.885
32759W        W99168  10.213  18.333   4.503
32760W        W99169   4.311  43.064  13.978
32761W        W99170  28.158  23.589  14.406
32762W        W99171  35.560  18.873   1.147
32763W        W99172  39.360  33.232  13.259
32764W        W99173   3.718  21.177   4.501
32765W        W99174  34.465  11.266   2.749
32766W        W99175  21.111  40.816  13.753
32767W        W99176  15.253   0.251  12.905
32768W        W99177  44.792   3.271   1.884
32769W        W99178   8.445  17.343  14.792
32770W        W99179   7.633  40.819  13.848
32771W        W99180  31.364  10.248   4.633
32772W        W99181  31.362  17.802  10.908
32773W        W99182  15.740  41.569  12.169
32774W        W99183   9.779  34.335  12.528
32775W        W99184   0.183  34.514  13.281
32776W        W99185  19.763  19.599  10.696
32777W        W99186   2.956  40.369   2.855
32778W        W99187  33.806   4.680   4.096
32779W        W99188  33.246  37.258  13.390
32780W        W99189  42.892   9.673  12.117
32781W        W99190  40.680  41.971  11.581
32782W        W99191  14.053  34.392  12.514
32783W        W99192  31.058  10.061   1.688
32784W        W99193  27.765  32.035   1.499
32785W        W99194   5.353   8.146  13.489
32786W        W99195   1.780  23.670   0.030
32787W        W99196  15.693  23.534   0.425
32788W        W99197   9.080   4.772  12.741
32789W        W99198   3.059  17.112  13.455
32790W        W99199  37.910  35.869  13.478
32791W        W99200  32.578  25.011   4.803
32792W        W99201   7.752  44.839  12.543
32793W        W99202  41.508  22.452   0.958
32794W        W99203  38.667   9.139  13.356
32795W        W99204   6.296  33.478   4.538
32796W        W99205  36.208  12.564  12.530
32797W        W99206   5.196  35.550  11.371
32798W        W99207   6.890  20.706  13.427
32799W        W99208   8.704   6.115  12.410
32800W        W99209  33.486  10.133   4.744
32801W        W99210  28.609   7.364   2.432
32802W        W99211  10.155   7.859   1.824
32803W        W99212  11.955  15.261  14.672
32804W        W99213  32.758   7.590  13.023
32805W        W99214  42.582  30.187   0.894
32806W        W99215  17.218   8.378  11.278
32807W        W99216  39.890  42.976   0.708
32808W        W99217  13.823   7.990  11.648
32809W        W99218  39.828  36.504   4.387
32810W        W99219  19.221   7.330  12.749
32811W        W99220  11.248  19.495   4.430
32812W        W99221   8.104  43.494  10.584
32813W        W99222   9.478  35.095   4.084
32814W        W99223  14.574   4.186   3.233
32815W        W99224  14.725   2.828   0.450
32816W        W99225  21.563  31.594   4.220
32817W        W99226   9.144   5.409  14.567
32818W        W99227   3.726  10.289  11.734
32819W        W99228  31.423  42.370  13.037
32820W        W99229  34.143   3.202  13.800
32821W        W99230  21.022  29.892  14.960
32822W        W99231  15.174   8.859  12.930
32823W        W99232  10.801  37.949   0.494
32824W        W99233  30.964  16.273   3.341
32825W        W99234   5.664  26.046  12.096
32826W        W99235   9.903  39.957  14.900
32827W        W99236  21.548  26.892  11.171
32828W        W99237  24.941  24.731  10.297
32829W        W99238  13.150  35.047  10.244
32830W        W99239  44.335  12.370   4.190
32831W        W99240  33.925  40.766  12.506
32832W        W99241  13.326  16.967   0.379
32833W        W99242   0.401  19.513  11.150
32834W        W99243  36.043   8.695   2.303
32835W        W99244  35.847   2.884  12.869
32836W        W99245  15.321  22.611   5.004
32837W        W99246  27.193  24.941  14.408
32838W        W99247  40.922   3.519  12.099
32839W        W99248   3.100  38.775  14.556
32840W        W99249  26.098  27.934   1.451
32841W        W99250   7.121  44.282   4.147
32842W        W99251  18.574   0.386   0.977
32843W        W99252  11.187   3.019   1.833
32844W        W99253  13.850  36.425   2.762
32845W        W99254  42.788  43.911  10.718
32846W        W99255  10.135  13.275  12.165
32847W        W99256   9.808   9.700   4.883
32848W        W99257  28.715  41.901   3.568
32849W        W99258  26.951  33.337   2.833
32850W        W99259  12.211  38.146  10.539
32851W        W99260  34.154  15.618   0.496
32852W        W99261  32.109  20.240  13.488
32853W        W99262   0.707  32.404   4.425
32854W        W99263   4.947  35.085  11.184
32855W        W99264  11.142  43.727   5.453
32856W        W99265  28.307  21.545   3.344
32857W        W99266  37.540  24.575   2.850
32858W        W99267  14.145   2.027  11.929
32859W        W99268  19.803  20.099  13.796
32860W        W99269  36.302  41.649   3.264
32861W        W99270  34.581   9.841  11.900
32862W        W99271  38.285   3.403  10.473
32863W        W99272  29.391  32.387   3.925
32864W        W99273  28.445   8.406  13.933
32865W        W99274  31.748   1.406   2.625
32866W        W99275   7.317  18.690   0.787
32867W        W99276  16.593  34.856   4.213
32868W        W99277  10.598  42.499  14.369
32869W        W99278  28.292  12.653   1.404
32870W        W99279  35.134  15.086  13.041
32871W        W99280  16.779   2.002   2.811
32872W        W99281  20.130  39.382   3.272
32873W        W99282  37.354  10.559   4.082
32874W        W99283  28.012  23.749  13.922
32875W        W99284  36.044  28.631  12.911
32876W        W99285   8.743  24.779  11.279
32877W        W99286  34.413  39.310  14.662
32878W        W99287   3.957   9.336   3.352
32879W        W99288  43.469  30.451   3.391
32880W        W99289  44.238   2.215  12.138
32881W        W99290  13.798  10.675   2.140
32882W        W99291   4.698  18.211   3.086
32883W        W99292  18.665  11.854   0.017
32884W        W99293  21.696  37.410   2.589
32885W        W99294   2.751   6.276   4.179
32886W        W99295  17.023  36.976  14.549
32887W        W99296   7.756  35.588  13.453
32888W        W99297  20.024  41.406  12.530
32889W        W99298  36.118  40.469  13.536
32890W        W99299   5.139  29.666  14.197
32891W        W99300  38.137  44.347   2.507
32892W        W99301  27.953  42.917   3.866
32893W        W99302  41.966  27.864   2.650
32894W        W99303  37.547  24.568   1.865
32895W        W99304   5.955  29.338  11.478
32896W        W99305  18.769   8.688  12.862
32897W        W99306  43.615  23.862   4.214
32898W        W99307  38.530   6.593   4.093
32899W        W99308   2.479  14.232   2.302
32900W        W99309   5.534   6.297  12.645
32901W        W99310   3.363  10.118  10.776
32902W        W99311  17.436  36.129   1.100
32903W        W99312  14.978  23.603   9.924
32904W        W99313   5.409  33.056  14.249
32905W        W99314  27.612  36.506  13.449
32906W        W99315  25.542   8.227  12.430
32907W        W99316   7.887  15.715   0.787
32908W        W99317  29.363  39.887  12.016
32909W        W99318  27.940  43.531  14.918
32910W        W99319  22.429  31.052  14.136
32911W        W99320  26.557  42.330   2.122
32912W        W99321   9.752  18.478  12.187
32913W        W99322  33.033  25.270  12.927
32914W        W99323  12.260  22.087  12.761
32915W        W99324  30.668  17.206   2.253
32916W        W99325  32.971  28.354   0.290
32917W        W99326  27.406  36.975  11.526
32918W        W99327  20.982  11.389   1.336
32919W        W99328  27.373  13.727   3.230
32920W        W99329  22.809  16.045  14.544
32921W        W99330  18.112  23.079  13.313
32922W        W99331  17.630  12.196   0.804
32923W        W99332  28.164   5.760   1.700
32924W        W99333   0.938   4.232  12.882
32925W        W99334  19.846  10.997  12.407
32926W        W99335  20.939  42.898   2.708
32927W        W99336   0.995  36.658  11.112
32928W        W99337  34.969  42.563  13.834
32929W        W99338  15.405  19.477  10.505
32930W        W99339  39.595  13.316   2.859
32931W        W99340  14.227  22.289   2.653
32932W        W99341  30.139  30.854   4.622
32933W        W99342  41.489  12.061  10.673
32934W        W99343  35.815   2.230   0.452
32935W        W99344  38.506   0.214   1.877
32936W        W99345  36.212  44.997   3.176
32937W        W99346  33.900  31.342  14.539
32938W        W99347   1.541  37.942  12.438
32939W        W99348   3.146  27.984   2.766
32940W        W99349  41.389  30.099  11.177
32941W        W99350  42.977   5.723  12.477
32942W        W99351  32.857  30.003  14.055
32943W        W99352  33.622  10.913  10.715
32944W        W99353  14.119  31.393   1.791
32945W        W99354  23.431   0.347  14.383
32946W        W99355  18.381   6.190   1.688
32947W        W99356  39.863  18.837   4.865
32948W        W99357  36.171  38.085   2.336
32949W        W99358  27.125  11.840   0.186
32950W        W99359  31.109   4.440   4.526
32951W        W99360   9.319  34.468  12.949
32952W        W99361  13.101  24.241   4.168
32953W        W99362  28.876  12.777  14.790
32954W        W99363  14.762  37.823   0.678
32955W        W99364  11.281  35.618  12.871
32956W        W99365  35.104  13.307   3.508
32957W        W99366  21.535  29.004   1.480
32958W        W99367  15.159   8.110   0.438
32959W        W99368  38.859  26.007   0.275
32960W        W99369   7.210  42.238  12.391
32961W        W99370  24.239  26.115   0.731
32962W        W99371   0.732  15.617  14.548
32963W        W99372   8.681   4.271  11.918
32964W        W99373  29.953  19.981  11.131
32965W        W99374  17.531  43.922  14.124
32966W        W99375  29.938  39.045   0.713
32967W        W99376   6.896  41.073   1.238
32968W        W99377  13.801  18.327   2.344
32969W        W99378  15.444  39.505  14.946
32970W        W99379   6.337  12.763   3.675
32971W        W99380  41.991   6.359   0.025
32972W        W99381  36.902  26.271  11.114
32973W        W99382  14.319  34.494   1.346
32974W        W99383   6.847   4.859   3.858
32975W        W99384  26.505  23.372   1.873
32976W        W99385  21.140  33.653   2.266
32977W        W99386  27.578  12.419  11.005
32978W        W99387  22.155  16.348   1.216
32979W        W99388   5.345   0.488   4.432
32980W        W99389  22.044  40.082   2.807
32981W        W99390  34.169  35.123  13.316
32982W        W99391  20.531   9.253  12.630
32983W        W99392   3.529  15.609  11.135
32984W        W99393  41.326   7.190  12.139
32985W        W99394  35.986  27.626  13.858
32986W        W99395   5.959  16.609   3.624
32987W        W99396  32.115  13.173   3.115
32988W        W99397  15.608  27.582  13.279
32989W        W99398  33.468  12.253   3.093
32990W        W99399  30.083  27.644   3.232
32991W        W99400  41.559  44.386  13.902
32992W        W99401  19.095  40.110  11.113
32993W        W99402   3.358  25.850   2.895
32994W        W99403  14.835  31.144   1.391
32995W        W99404  34.655  16.099   4.398
32996W        W99405  35.937  14.513  13.982
32997W        W99406  12.825   5.703  13.865
32998W        W99407  38.407  41.452   4.383
32999W        W99408  13.917  22.224  11.759
33000W        W99409  16.753   8.573  11.443
33001W        W99410  21.680  22.182   2.908
33002W        W99411  44.500   7.730  12.102
33003W        W99412  37.683  29.968   3.135
33004W        W99413  30.193  25.142   0.428
33005W        W99414  44.303  32.986   3.250
33006W        W99415  27.023  25.260   3.627
33007W        W99416  39.109  17.752   0.270
33008W        W99417  25.508  34.167   2.220
33009W        W99418   3.201  22.347   0.975
33010W        W99419  34.346  44.414  13.591
33011W        W99420  43.883  31.989  12.650
33012W        W99421  33.014   9.492   2.777
33013W        W99422  18.255   7.683  14.589
33014W        W99423  21.500  12.657  10.379
33015W        W99424  27.166  18.248  12.416
33016W        W99425  16.307  38.974   4.437
33017W        W99426  10.854  33.446   3.554
33018W        W99427  14.900  28.605   3.492
33019W        W99428  41.024  36.038   1.388
33020W        W99429  18.556  42.439   2.108
33021W        W99430  11.847   5.131   2.103
33022W        W99431   6.896  16.346   1.714
33023W        W99432  19.489  41.700   2.267
33024W        W99433  25.164  31.126   2.607
33025W        W99434  29.894  39.823  10.759
33026W        W99435   3.697  26.530  12.953
33027W        W99436  29.033  30.844   1.889
33028W        W99437   8.748  31.244  10.832
33029W        W99438  24.527   9.650  10.315
33030W        W99439   9.220  36.412   3.365
33031W        W99440  24.019  27.443   4.396
33032W        W99441   9.170   3.475   1.263
33033W        W99442   1.282  31.369  11.392
33034W        W99443  33.558   9.350  12.087
33035W        W99444  10.282  15.796  11.069
33036W        W99445  32.474  38.897   2.763
33037W        W99446  42.443  37.192   0.282
33038W        W99447   3.909  19.778   4.413
33039W        W99448  36.644  13.670  13.254
33040W        W99449   6.749  20.371  13.042
33041W        W99450  16.552  41.349  11.416
33042W        W99451  43.246  22.539  13.379
33043W        W99452   3.610  13.144  14.761
33044W        W99453  26.072  41.995   3.563
33045W        W99454  41.568  16.536  11.982
33046W        W99455  16.770  38.629   0.877
33047W        W99456  42.491  41.210   1.752
33048W        W99457  41.554   7.458  14.794
33049W        W99458  38.464   5.207   0.112
33050W        W99459  12.402   2.362  12.948
33051W        W99460  39.565  32.148   3.628
33052W        W99461  30.568  16.650   3.310
33053W        W99462   0.011   8.026  10.691
33054W        W99463  15.614  38.283  14.932
33055W        W99464  30.035   6.561   1.406
33056W        W99465   9.303  23.717  13.385
33057W        W99466  15.777  21.198   2.869
33058W        W99467  23.760  21.654  12.633
33059W        W99468   6.734   3.141  11.880
33060W        W99469   7.298   8.898   3.191
33061W        W99470   6.341  34.114   0.433
33062W        W99471  32.942   6.804   1.870
33063W        W99472  21.562  28.181  11.533
33064W        W99473  41.534  39.143   1.982
33065W        W99474  17.157  40.492   0.848
33066W        W99475  40.181  26.479   3.103
33067W        W99476  22.072  12.676  10.567
33068W        W99477   5.332  17.965   4.185
33069W        W99478  38.924  37.620   3.528
33070W        W99479   4.170  22.548  12.623
33071W        W99480  18.762   7.878   0.276
33072W        W99481  13.817  37.484   2.064
33073W        W99482  18.555  42.002   0.381
33074W        W99483  22.135   1.772   1.750
33075W        W99484  23.540  33.620   1.466
33076W        W99485  32.299  37.529   0.117
33077W        W99486  42.313  37.669  12.909
33078W        W99487  37.914  35.655   1.544
33079W        W99488   3.678  12.145  12.910
33080W        W99489  12.728  36.857   0.291
33081W        W99490  37.962  44.978  10.594
33082W        W99491  21.231  34.506  14.515
33083W        W99492   2.892  21.831   2.982
33084W        W99493   5.316  29.636   3.322
33085W        W99494  38.818  19.546  13.859
33086W        W99495  12.310  26.592  12.911
33087W        W99496  27.008  26.466  13.570
33088W        W99497   5.101   7.013  11.935
33089W        W99498   4.977   7.654   1.209
33090W        W99499  40.699   4.359  12.532
33091W        W99500  18.115  21.301   0.244
33092W        W99501  20.376  21.329   5.064
33093W        W99502   8.682  20.165   0.890
33094W        W99503   0.767   4.418   1.754
33095W        W99504  34.356  36.639  13.189
33096W        W99505  37.594  32.734   3.414
33097W        W99506  18.114  23.133   1.449
33098W        W99507   9.168  12.253   3.865
33099W        W99508   2.291  24.765  11.142
33100W        W99509  23.700   5.141   3.671
33101W        W99510  13.517  20.138   5.208
33102W        W99511  13.768  19.265   3.606
33103W        W99512  11.311  36.112   0.262
33104W        W99513   5.688  37.516  14.844
33105W        W99514  19.145  44.891  12.793
33106W        W99515  27.048  29.812  10.864
33107W        W99516  42.766  41.295  13.509
33108W        W99517   3.192  31.696  14.489
33109W        W99518  35.977   5.298  11.218
33110W        W99519  20.624   5.786  14.321
33111W        W99520  41.333  15.886  11.198
33112W        W99521   1.807  25.025   4.579
33113W        W99522  44.012  31.381   0.822
33114W        W99523  15.621  14.699   2.717
33115W        W99524   2.547  29.874  14.721
33116W        W99525  27.068   4.779   0.801
33117W        W99526   6.700   3.279   0.013
33118W        W99527  12.255  21.568  10.971
33119W        W99528  28.902  20.735  13.420
33120W        W99529  33.448  32.625   9.998
33121W        W99530   9.920  36.532   3.797
33122W        W99531  44.576  43.702   0.450
33123W        W99532  33.196  21.694   3.031
33124W        W99533  44.879  32.649   1.625
33125W        W99534  17.049  22.686  14.498
33126W        W99535   1.987  37.759  11.356
33127W        W99536  16.671   5.340   2.404
33128W        W99537   2.258  34.553   0.927
33129W        W99538  16.327  18.630  11.226
33130W        W99539   4.343  42.213  12.630
33131W        W99540  25.883   0.024   2.637
33132W        W99541  36.433  30.495  13.748
33133W        W99542   6.154   0.801  11.863
33134W        W99543  35.963   3.827   2.469
33135W        W99544  33.363  20.714   4.690
33136W        W99545   1.514   5.902   0.903
33137W        W99546   9.205   4.903   2.759
33138W        W99547  37.328  15.081  10.759
33139W        W99548  12.298   2.938  14.875
33140W        W99549   2.193  35.549  12.642
33141W        W99550  12.188   3.219  12.460
33142W        W99551  39.544  15.776  10.572
33143W        W99552   3.039  41.264  12.164
33144W        W99553  34.532  17.555   3.931
33145W        W99554   2.374  26.232   0.633
33146W        W99555   5.502  11.220   1.228
33147W        W99556  41.378  39.338   0.078
33148W        W99557  22.590   6.976  13.445
33149W        W99558  18.814   8.102  12.315
33150W        W99559   8.871  38.932  14.842
33151W        W99560  16.825  36.092   0.484
33152W        W99561  23.230   4.812   0.641
33153W        W99562  23.431  30.495  12.101
33154W        W99563  43.444  40.945  13.360
33155W        W99564  42.224  19.165   1.614
33156W        W99565  37.261  26.575  13.418
33157W        W99566  14.757  16.305  14.575
33158W        W99567  18.245   0.074   1.428
33159W        W99568  23.655   6.635   3.585
33160W        W99569   7.119  17.255   4.010
33161W        W99570   0.264  15.628  11.967
33162W        W99571  26.768  44.204   3.355
33163W        W99572  19.324  19.269  14.938
33164W        W99573   7.234  32.055  10.289
33165W        W99574  36.804   7.125   3.756
33166W        W99575  37.808  35.011  13.861
33167W        W99576  11.511  32.304   3.748
33168W        W99577  41.274   3.722   0.794
33169W        W99578   4.165  25.074   3.707
33170W        W99579   3.402  13.524  12.927
33171W        W99580  32.636  25.539  13.537
33172W        W99581  24.690  39.471  12.888
33173W        W99582  28.176   7.599   2.304
33174W        W99583  39.783  37.734  13.975
33175W        W99584  13.992   4.465   2.258
33176W        W99585  17.374  20.768  10.171
33177W        W99586  15.106  39.082  14.357
33178W        W99587  42.916  44.237   0.548
33179W        W99588  37.652  15.268   9.815
33180W        W99589  28.876   8.769  13.454
33181W        W99590  41.221  40.461  13.134
33182W        W99591  39.908   4.873   2.846
33183W        W99592  16.338   6.805  11.868
33184W        W99593   2.495  32.898  10.856
33185W        W99594  36.298   7.709   3.584
33186W        W99595  14.715  18.702  11.239
33187W        W99596   1.356  12.301   2.829
33188W        W99597   6.783  27.653   2.619
33189W        W99598   1.926  13.643  13.938
33190W        W99599   7.623  20.730   1.402
33191W        W99600  20.089  35.455   3.306
33192W        W99601  25.557  22.224   1.185
33193W        W99602  11.414  33.107  13.868
33194W        W99603  44.833  27.434  13.945
33195W        W99604  25.022  16.417   4.297
33196W        W99605  17.564  13.806  14.909
33197W        W99606  41.538  42.247   1.249
33198W        W99607  20.811   8.553   0.302
33199W        W99608  16.124  39.271  13.411
33200W        W99609  39.864  33.642   4.471
33201W        W99610  16.611   1.869   0.672
33202W        W99611  41.404  19.712   1.209
33203W        W99612  44.421   5.337   3.747
33204W        W99613  14.997  35.767  13.022
33205W        W99614  35.107  38.331  14.864
33206W        W99615   0.768  30.478  14.874
33207W        W99616  28.201   1.808  10.730
33208W        W99617  16.789  17.580   1.120
33209W        W99618  28.216  29.009   4.131
33210W        W99619  17.319  23.611   3.766
33211W        W99620  39.529  23.507   0.061
33212W        W99621  10.570  11.828   0.668
33213W        W99622   2.266  13.364   4.555
33214W        W99623   9.572  22.952   1.228
33215W        W99624   8.842  19.425   1.998
33216W        W99625  20.992   5.901   0.279
33217W        W99626  34.524  41.360  13.280
33218W        W99627  29.718  18.684  12.157
33219W        W99628   1.366   8.166  13.467
33220W        W99629   7.301   3.724  12.894
33221W        W99630  28.100  14.113  11.465
33222W        W99631   3.601  33.485  10.844
33223W        W99632  10.585  38.589  12.750
33224W        W99633   4.892  26.928   1.961
33225W        W99634  41.966   5.782  10.718
33226W        W99635  16.238   6.517  10.574
33227W        W99636   9.329  36.931   4.032
33228W        W99637  40.500  19.663   2.398
33229W        W99638  43.863  18.084  12.399
33230W        W99639  20.202  17.450   0.285
33231W        W99640  39.121  20.781   1.762
33232W        W99641  17.826   9.089  14.804
33233W        W99642   0.946  26.279  14.784
33234W        W99643  27.302  34.119  13.462
33235W        W99644  43.854  29.506   4.334
33236W        W99645  38.851  29.207   0.134
33237W        W99646  31.435  20.789  12.544
33238W        W99647   9.787   9.171  10.621
33239W        W99648   7.947  24.887  12.538
33240W        W99649  21.471  15.762  13.908
33241W        W99650   5.799  38.312   1.881
33242W        W99651   0.838  38.777   2.400
33243W        W99652   2.199  16.760   1.932
33244W        W99653  15.873  15.827   2.348
33245W        W99654  40.467   7.579   2.625
33246W        W99655   6.655  39.210  11.501
33247W        W99656  20.320  13.062  10.524
33248W        W99657  28.680  39.441  14.539
33249W        W99658  41.780  20.443  14.560
33250W        W99659  43.833  16.666   1.449
33251W        W99660  22.083  13.062  12.059
33252W        W99661   1.857  25.329   4.150
33253W        W99662   5.197  32.358   0.846
33254W        W99663  29.243  26.192   4.145
33255W        W99664  10.934  36.045   1.024
33256W        W99665   6.571   2.111   0.367
33257W        W99666  24.280  38.002   2.746
33258W        W99667  40.863  33.003   1.382
33259W        W99668  18.232  27.874  12.402
33260W        W99669  25.937  38.554   2.617
33261W        W99670  14.679  16.577   0.987
33262W        W99671  44.094  24.871  10.187
33263W        W99672  32.007  44.304   2.243
33264W        W99673  24.779  22.546   0.435
33265W        W99674  36.444   4.938   0.375
33266W        W99675  13.332   9.346   0.896
33267W        W99676  37.869  21.690  11.072
33268W        W99677  11.166  40.842  13.211
33269W        W99678  10.246  15.474   2.059
33270W        W99679   7.378  29.309  14.481
33271W        W99680   5.730   2.380   3.159
33272W        W99681  29.321  38.387   4.651
33273W        W99682  40.181  13.822  13.862
33274W        W99683  17.673   8.883  11.861
33275W        W99684  29.838  16.125  12.472
33276W        W99685  14.250   5.439  12.286
33277W        W99686  17.754  29.085  11.212
33278W        W99687  33.430  37.727  14.485
33279W        W99688  37.841  13.133   4.576
33280W        W99689   1.471  37.542  12.105
33281W        W99690  22.515   5.306   1.904
33282W        W99691  28.967  31.444  12.505
33283W        W99692  25.114  36.366   4.615
33284W        W99693  12.624  10.565   1.453
33285W        W99694  19.591  24.639   4.650
33286W        W99695  44.283  28.161  14.062
33287W        W99696  16.253  14.956  11.825
33288W        W99697  38.445  25.658   2.218
33289W        W99698  33.851   3.799  13.589
33290W        W99699  38.217  11.594   2.770
33291W        W99700  37.302  15.280  11.619
33292W        W99701  23.252  33.387  12.003
33293W        W99702  28.872  13.522   0.860
33294W        W99703  35.855  23.932   3.571
33295W        W99704  29.485  11.851  14.446
33296W        W99705   2.750  29.397  11.248
33297W        W99706   8.711  31.453   2.398
33298W        W99707   5.821  18.969  12.980
33299W        W99708  14.581  25.847  11.026
33300W        W99709   1.148  23.085   4.144
33301W        W99710  11.701  38.681   1.479
33302W        W99711  36.584  39.017   2.123
33303W        W99712   3.992  35.906   4.191
33304W        W99713  30.202  36.830  14.802
33305W        W99714   6.356  39.398   2.777
33306W        W99715  18.610  43.385   3.694
33307W        W99716   9.302  33.658  14.923
33308W        W99717  14.337  41.433  10.321
33309W        W99718   5.187  21.201   2.414
33310W        W99719  11.790  43.728   2.834
33311W        W99720  26.511  40.960  14.405
33312W        W99721  28.229  35.888   5.224
33313W        W99722  38.832  42.422  14.778
33314W        W99723  24.791  33.408  10.610
33315W        W99724  17.750  28.577  10.325
33316W        W99725  17.471   6.364   1.022
33317W        W99726  33.418  17.766  10.353
33318W        W99727  17.761  38.393   1.739
33319W        W99728  26.925   4.294  12.499
33320W        W99729   0.847   2.987  14.467
33321W        W99730   5.369  16.160  12.140
33322W        W99731   7.226  21.847   4.457
33323W        W99732  22.361   9.345  13.475
33324W        W99733  37.661  21.663   3.138
33325W        W99734  19.028  35.368  13.250
33326W        W99735  24.980  17.230   1.913
33327W        W99736   7.984   1.825  11.704
33328W        W99737  25.582  35.348   1.206
33329W        W99738  35.818   0.487   1.254
33330W        W99739  24.822   3.284   1.521
33331W        W99740   1.869  24.557  11.979
33332W        W99741  18.239   0.524  11.805
33333W        W99742  38.161  17.042   1.777
33334W        W99743   9.294  28.519   0.791
33335W        W99744  41.884  13.541   2.612
33336W        W99745   4.244  10.714   0.989
33337W        W99746  12.862  41.531  14.254
33338W        W99747  37.368  13.553  12.555
33339W        W99748  41.029   1.981   3.859
33340W        W99749  18.848  42.360  11.205
33341W        W99750  28.481  33.074   2.843
33342W        W99751  32.862  31.515  13.315
33343W        W99752   8.281  21.772  13.019
33344W        W99753  12.237   7.522   3.164
33345W        W99754  13.313  41.273   2.351
33346W        W99755   0.652  17.230   2.956
33347W        W99756  32.666  16.268   2.470
33348W        W99757  18.554  28.669  12.433
33349W        W99758  23.719   7.752   2.901
33350W        W99759  27.479  41.060   4.548
33351W        W99760  35.863  34.511   1.722
33352W        W99761   9.915   6.424  11.641
33353W        W99762   1.862  15.463  13.876
33354W        W99763  24.962  38.852   1.836
33355W        W99764  26.153  37.964  14.213
33356W        W99765  13.056   8.015   1.933
33357W        W99766  11.763   9.733  11.158
33358W        W99767  31.505  29.134   1.938
33359W        W99768  40.190  40.910  10.770
33360W        W99769  27.305   8.772  11.684
33361W        W99770  11.221  41.584  12.550
33362W        W99771  26.947   1.825   3.767
33363W        W99772   8.932  27.014  13.996
33364W        W99773  21.730  37.523   3.933
33365W        W99774   4.467  34.513   3.650
33366W        W99775  30.213  33.464   0.878
33367W        W99776  40.826  12.156   1.324
33368W        W99777  27.951  23.115  10.688
33369W        W99778  31.609  43.342   3.134
33370W        W99779  44.884  38.405  14.809
33371W        W99780  35.761  35.819  11.944
33372W        W99781  28.464  14.068   2.782
33373W        W99782  22.476  38.999  14.373
33374W        W99783  17.803   1.526   4.267
33375W        W99784  14.117   6.261   3.247
33376W        W99785   0.437  29.663   3.374
33377W        W99786  13.156  36.817  11.208
33378W        W99787  28.659  13.206  14.960
33379W        W99788  33.250  41.365  11.658
33380W        W99789  10.612  23.361  14.074
33381W        W99790  16.869  18.730   0.568
33382W        W99791  40.099   5.494  11.976
33383W        W99792  28.755  19.739   3.927
33384W        W99793  20.472  14.815  12.829
33385W        W99794  13.334  39.898  13.478
33386W        W99795  11.777  43.544   2.339
33387W        W99796  37.837  20.634   3.605
33388W        W99797  17.060   0.737  12.028
33389W        W99798  40.962   4.368   4.100
33390W        W99799  16.681  26.294   3.148
33391W        W99800  20.645  39.579   2.264
33392W        W99801  35.395   1.250   0.643
33393W        W99802  41.574   1.440   1.199
33394W        W99803  13.724  13.064  12.027
33395W        W99804   5.058  38.622  12.042
33396W        W99805  32.164  10.177  12.446
33397W        W99806  16.612  42.199  14.970
33398W        W99807  31.351   4.851   1.201
33399W        W99808  20.976   0.109   4.204
33400W        W99809  28.479   4.423   0.206
33401W        W99810  17.524  26.637  11.876
33402W        W99811  17.145   7.674  12.436
33403W        W99812  36.291  17.087  12.577
33404W        W99813   0.408  11.480   4.738
33405W        W99814  16.261   0.955   2.793
33406W        W99815  17.321  29.452   2.816
33407W        W99816  40.950  43.839  10.968
33408W        W99817   9.137  14.151   1.808
33409W        W99818  19.747   9.947   2.246
33410W        W99819  26.721  12.837  11.196
33411W        W99820  21.584  36.377  10.884
33412W        W99821  36.680   4.457   0.504
33413W        W99822   7.153  40.400  11.998
33414W        W99823   8.302   2.547   2.255
33415W        W99824   5.184  26.528  12.941
33416W        W99825  40.025  11.053  12.027
33417W        W99826  17.037  40.874  14.320
33418W        W99827  30.564  36.144  11.282
33419W        W99828  35.479   3.171   0.106
33420W        W99829   2.598  31.506   1.241
33421W        W99830  38.963  29.280   3.604
33422W        W99831  16.284   8.103  11.986
33423W        W99832   6.391  14.203   4.642
33424W        W99833   4.022  14.331   1.384
33425W        W99834  13.526  27.016  10.927
33426W        W99835  14.712   5.387   4.510
33427W        W99836  40.301  28.084   1.953
33428W        W99837   5.153   7.925   4.600
33429W        W99838  41.607  22.038   0.372
33430W        W99839   2.898  42.939   5.294
33431W        W99840  43.333   9.908   3.999
33432W        W99841  21.784  13.261  14.931
33433W        W99842  33.957   6.766  12.137
33434W        W99843  31.337   6.994   3.340
33435W        W99844  26.094  16.694   0.634
33436W        W99845   8.322  26.963  13.433
33437W        W99846   2.898  22.040  14.324
33438W        W99847  11.315  35.465   2.345
33439W        W99848  34.195  14.943   3.290
33440W        W99849  31.905  22.807  13.467
33441W        W99850  10.354  10.652   1.408
33442W        W99851   0.737  32.349   1.909
33443W        W99852   0.930  17.727  12.618
33444W        W99853  19.864   4.902  11.996
33445W        W99854   2.772  13.860   3.841
33446W        W99855  25.641  41.413   9.861
33447W        W99856   4.839  15.123   4.489
33448W        W99857   7.109  22.526  13.822
33449W        W99858   7.599  36.535   4.314
33450W        W99859  37.869   1.795   1.010
33451W        W99860   6.419   1.249  13.188
33452W        W99861   1.529   7.798  10.083
33453W        W99862  31.783  30.521   3.640
33454W        W99863   3.219  24.437   4.208
33455W        W99864  15.343  42.327  13.382
33456W        W99865  27.976  14.885   2.732
33457W        W99866  28.385   6.178  10.937
33458W        W99867   9.724  26.063  11.951
33459W        W99868  27.727   0.693  13.910
33460W        W99869  22.116  37.474   0.094
33461W        W99870  23.736  20.688   3.779
33462W        W99871  43.642  22.257   3.673
33463W        W99872  19.433  21.159   1.163
33464W        W99873   3.918  32.793  13.435
33465W        W99874  20.305   6.451  12.509
33466W        W99875  21.955  30.247   3.270
33467W        W99876   0.176  28.600  13.608
33468W        W99877  44.780  19.949  10.719
33469W        W99878  32.909   4.228   2.632
33470W        W99879  20.409  11.371  13.006
33471W        W99880  35.529  23.744   3.234
33472W        W99881  21.728  16.606   4.591
33473W        W99882  17.263  15.877   1.735
33474W        W99883  41.234  10.485   3.554
33475W        W99884   7.072  27.926  14.121
33476W        W99885  21.412  10.836   0.207
33477W        W99886  36.784  14.095   3.371
33478W        W99887  26.324  37.337  11.416
33479W        W99888   0.177   5.742  14.785
33480W        W99889   7.869  28.544  11.969
33481W        W99890  23.912   1.959  11.568
33482W        W99891  39.013   0.016  14.358
33483W        W99892  42.743  21.648   4.168
33484W        W99893   3.753  43.457   3.924
33485W        W99894  25.625  35.635   4.595
33486W        W99895  43.803  21.261   2.682
33487W        W99896  33.621  30.883   1.389
33488W        W99897  26.438  16.705   2.737
33489W        W99898  19.105   8.080   1.227
33490W        W99899  24.933  29.652   3.348
33491W        W99900  19.075  41.549  12.452
33492W        W99901  33.999  19.355   4.232
33493W        W99902  39.480  14.445  14.980
33494W        W99903  36.949   7.468  11.796
33495W        W99904  12.295  23.226   1.458
33496W        W99905   7.333  26.510   1.940
33497W        W99906   6.762   4.810   0.952
33498W        W99907   8.602  27.306   3.663
33499W        W99908  11.074  14.697  10.723
33500W        W99909  19.890  38.740   2.074
33501W        W99910  28.886  32.408   0.395
33502W        W99911  34.135  10.266  14.948
33503W        W99912   7.200  32.319  14.080
33504W        W99913  43.385  41.058   2.433
33505W        W99914   5.471  20.764  14.477
33506W        W99915   4.292  16.538  12.150
33507W        W99916  13.243  43.487  12.425
33508W        W99917  22.279  13.390   0.065
33509W        W99918  13.707   6.696  14.917
33510W        W99919   9.213   4.515   1.494
33511W        W99920   7.280  15.324   3.834
33512W        W99921  35.482  35.049   4.131
33513W        W99922   8.633   2.476  14.488
33514W        W99923  21.235  36.594  10.126
33515W        W99924  10.943  18.094   1.291
33516W        W99925  13.606  18.065  14.512
33517W        W99926  33.683  34.244  11.296
33518W        W99927  28.224  34.952  13.754
33519W        W99928   6.101  43.882  11.496
33520W        W99929   5.180   6.271  13.036
33521W        W99930  28.370  36.061   2.360
33522W        W99931  43.988  12.407   3.730
33523W        W99932  30.433  38.227  11.192
33524W        W99933   8.421   2.247   3.733
33525W        W99934  25.307  40.889  12.516
33526W        W99935  23.770  16.590   4.665
33527W        W99936  18.298  34.686   2.803
33528W        W99937   1.954  43.159  13.868
33529W        W99938  42.984  16.435   3.586
33530W        W99939  34.851  36.142  11.986
33531W        W99940  31.859  31.523  12.698
33532W        W99941   7.740  40.539   0.295
33533W        W99942   3.225  25.332   3.590
33534W        W99943   4.293   3.033  14.642
33535W        W99944  34.562  14.390  14.845
33536W        W99945  16.980  24.462  13.442
33537W        W99946  23.899  38.023   4.578
33538W        W99947   4.019  30.664  11.569
33539W        W99948  44.073  16.314  10.386
33540W        W99949   0.034  42.943  10.378
33541W        W99950  34.071  14.267  10.822
33542W        W99951  40.584  28.699   1.383
33543W        W99952  20.264   0.907   4.051
33544W        W99953  22.302  18.166  10.458
33545W        W99954  27.268  38.956  12.829
33546W        W99955  28.861   1.606  14.909
33547W        W99956  44.964   3.324   3.846
33548W        W99957  13.045  37.443  13.883
33549W        W99958  37.604  13.642  10.663
33550W        W99959  15.104  39.226   5.028
33551W        W99960  15.856  19.784   1.121
33552W        W99961   2.272  13.525  10.749
33553W        W99962  36.667   0.414   0.033
33554W        W99963  36.730   3.242  12.088
33555W        W99964  20.296  43.813  11.956
33556W        W99965  18.643  43.712   0.209
33557W        W99966  29.946   7.388   2.054
33558W        W99967   8.707  23.771   1.415
33559W        W99968   3.391  38.243   4.138
33560W        W99969  40.645  43.278   1.760
33561W        W99970  27.197   5.602  10.756
33562W        W99971   0.742  22.052   4.235
33563W        W99972   0.704  16.092   0.740
33564W        W99973  23.113   2.224   3.049
33565W        W99974  14.891  25.493  12.956
33566W        W99975  27.347  16.091  13.852
33567W        W99976  36.462  22.876  10.939
33568W        W99977   8.002  16.156  11.848
33569W        W99978  21.613   6.641   3.758
33570W        W99979  30.901  37.788  14.522
33571W        W99980  41.968  44.045   2.766
33572W        W99981  39.427  44.576   1.912
33573W        W99982  32.738  43.290  14.292
33574W        W99983   7.827   3.298   4.568
33575W        W99984  36.091  24.250  12.530
33576W        W99985  12.351   3.689  14.334
33577W        W99986  15.956  27.013   0.322
33578W        W99987  35.970  19.691   9.792
33579W        W99988   8.883  44.285   2.387
33580W        W99989  33.344  15.727   4.575
33581W        W99990   9.241   6.911   3.725
33582W        W99991   1.515  13.364   1.717
33583W        W99992  21.256  18.794  13.439
33584W        W99993  16.808  17.042  11.148
33585W        W99994  32.448  43.600  14.578
33586W        W99995  28.184  29.047   0.241
33587W        W99996   9.739   1.820   4.108
33588W        W99997  42.500  40.771  10.627
33589W        W99998  22.542  32.871   0.787
33590W        W99999   3.220  23.713  14.491
33591W        W    0  19.664   1.996   4.415
33592W        W    1  29.103  17.061   3.793
33593W        W    2  23.170  11.875   4.608
33594W        W    3  17.316  38.797   3.126
33595W        W    4  25.068   0.449   2.753
33596W        W    5  22.787  44.334   3.694
33597W        W    6  10.221   1.252   1.933
33598W        W    7  23.443  11.209   1.280
33599W        W    8  26.737  34.659  13.940
33600W        W    9  44.524  32.959  14.511
33601W        W   10  35.885   0.854   4.552
33602W        W   11   5.934  30.825  10.804
33603W        W   12  17.272  43.726   4.108
33604W        W   13  31.682  21.579   0.761
33605W        W   14  30.636  27.864  12.020
33606W        W   15  25.031  42.408  14.581
33607W        W   16  42.044   9.717  13.102
33608W        W   17  43.778   5.711  14.389
33609W        W   18  23.662   9.177  12.521
33610W        W   19  18.639   7.246  11.096
33611W        W   20  13.683   4.457   1.856
33612W        W   21   7.241   7.630   4.758
33613W        W   22  36.822  31.582   3.210
33614W        W   23  41.544  21.332  14.865
33615W        W   24  14.231  31.636  12.990
33616W        W   25  42.257  41.510  11.860
33617W        W   26  38.176   1.174   3.690
33618W        W   27  39.343  34.974   2.378
33619W        W   28  31.152  12.722  10.352
33620W        W   29  28.711  12.137   0.808
33621W        W   30  18.802  20.794  14.894
33622W        W   31   2.839  23.689   3.737
33623W        W   32  32.363  16.735   3.715
33624W        W   33  10.713   6.154   1.377
33625W        W   34  16.706  42.839  12.596
33626W        W   35  35.203  37.843  10.987
33627W        W   36  18.166   3.071  13.044
33628W        W   37   6.789  20.082  10.804
33629W        W   38   7.671   5.427   0.161
33630W        W   39  44.268  40.882   4.946
33631W        W   40  35.005  14.259   2.679
33632W        W   41  42.744   8.050   2.778
33633W        W   42  39.821   5.751   2.972
33634W        W   43  30.559  44.273   3.754
33635W        W   44   6.289  34.365  14.052
33636W        W   45  30.638  36.025  14.941
33637W        W   46   4.658  20.143  12.847
33638W        W   47  19.050   2.149   3.718
33639W        W   48  29.042   3.763   0.267
33640W        W   49  17.225  40.444  14.867
33641W        W   50   0.028  27.084   3.680
33642W        W   51   9.780   7.876  13.731
33643W        W   52  38.034   7.953   1.985
33644W        W   53   0.285   1.829  11.936
33645W        W   54  14.570   7.486   2.361
33646W        W   55   6.029   9.195  14.600
33647W        W   56   4.507  24.045   0.842
33648W        W   57  28.444  23.029   5.461
33649W        W   58  23.506  43.100   1.679
33650W        W   59  42.093  23.390   0.887
33651W        W   60   3.040  29.468  11.704
33652W        W   61  13.387   8.833   2.719
33653W        W   62  13.718  23.724  10.878
33654W        W   63  12.132  28.809  14.995
33655W        W   64  12.277  22.919  11.640
33656W        W   65  11.651   5.850  14.533
33657W        W   66  17.623  17.917  12.925
33658W        W   67  43.994   6.864  14.569
33659W        W   68  29.514  38.319  11.114
33660W        W   69   1.098   8.312   3.163
33661W        W   70  40.002  34.056   4.192
33662W        W   71  23.190  34.584  11.570
33663W        W   72  41.131  30.786  10.685
33664W        W   73  11.609  43.837  11.147
33665W        W   74  19.234  32.526  13.651
33666W        W   75  20.460   2.369  14.797
33667W        W   76  27.725   9.268  13.372
33668W        W   77   0.224  20.009  11.995
33669W        W   78  44.643   2.439  11.940
33670W        W   79  17.633  11.867  13.911
33671W        W   80   1.307  36.495  10.709
33672W        W   81  31.594  30.609   1.832
33673W        W   82  42.899  16.743   2.223
33674W        W   83  37.021  19.920  11.661
33675W        W   84   3.786  32.520  12.430
33676W        W   85   3.222   0.500  11.365
33677W        W   86   8.442   5.388  13.731
33678W        W   87  15.093  38.010   3.757
33679W        W   88  19.183  23.194   2.912
33680W        W   89  20.524  27.890   3.274
33681W        W   90  14.192  44.199  13.965
33682W        W   91  35.397  23.036  12.676
33683W        W   92  39.858  26.853   1.899
33684W        W   93  25.592   5.247   3.841
33685W        W   94  41.269   5.388  12.038
33686W        W   95  21.214  27.481   0.824
33687W        W   96  31.913  27.948   0.088
33688W        W   97  40.384   9.032  14.950
33689W        W   98   2.872  44.694   0.870
33690W        W   99  37.481  29.174  11.662
33691W        W  100  29.206  37.603   1.878
33692W        W  101  44.688   8.551   0.430
33693W        W  102  43.580   5.786   3.671
33694W        W  103  17.501   7.912  13.413
33695W        W  104   0.949  24.304   1.852
33696W        W  105  36.643   7.421   3.356
33697W        W  106  27.912  28.605   0.896
33698W        W  107  29.550  13.551   0.823
33699W        W  108   9.244  36.282  10.691
33700W        W  109  40.066  30.033  13.261
33701W        W  110  27.004  23.509   3.095
33702W        W  111  22.996  19.786  11.411
33703W        W  112  22.591   6.763   0.877
33704W        W  113  21.068   6.348   1.334
33705W        W  114  34.042  38.174  10.856
33706W        W  115   7.366  44.449   0.951
33707W        W  116  38.038   8.199  14.813
33708W        W  117  38.609   5.193   1.492
33709W        W  118  44.219  26.302  13.458
33710W        W  119  35.084  27.176  11.637
33711W        W  120   3.740   1.956   1.934
33712W        W  121   1.481  31.015   3.962
33713W        W  122  10.254  13.104  11.690
33714W        W  123  27.202   3.477  12.992
33715W        W  124  22.043  21.814   0.757
33716W        W  125   4.098  32.942  12.470
33717W        W  126  14.460   6.898   4.592
33718W        W  127  19.158  39.060   1.458
33719W        W  128  42.664   6.984  13.872
33720W        W  129   3.977   3.357   0.569
33721W        W  130  42.492  33.127  11.157
33722W        W  131   8.108   9.968  10.604
33723W        W  132  44.014  41.744   3.172
33724W        W  133   8.424  18.818  13.031
33725W        W  134  14.429   9.853  12.405
33726W        W  135   7.745  19.080  12.004
33727W        W  136  33.518  40.005   4.835
33728W        W  137  15.228  32.029  12.168
33729W        W  138  11.977  43.797   9.843
33730W        W  139  41.329  43.037  14.829
33731W        W  140  28.876   2.899  14.040
33732W        W  141   8.122  34.100  12.995
33733W        W  142  41.757  22.950   0.924
33734W        W  143   7.152   9.446   3.134
33735W        W  144  10.219  41.800   1.760
33736W        W  145  11.891  44.287  13.669
33737W        W  146  36.021  44.928   1.038
33738W        W  147  35.918  23.952  14.793
33739W        W  148  31.259  26.423  14.856
33740W        W  149  39.877  42.264  11.206
33741W        W  150  33.709  33.916  14.399
33742W        W  151   2.804   8.879   0.918
33743W        W  152  41.745   0.958  12.435
33744W        W  153  38.596  26.472  12.874
33745W        W  154  41.055  37.771  13.523
33746W        W  155  32.525  11.797   1.644
33747W        W  156  36.586   9.879   0.462
33748W        W  157  25.695  23.045  14.859
33749W        W  158  38.942   2.701   3.336
33750W        W  159   7.707  15.066   0.963
33751W        W  160   5.135   5.802  10.374
33752W        W  161  25.158   7.144  10.267
33753W        W  162  21.908  15.026  13.438
33754W        W  163  36.496  23.478   2.329
33755W        W  164   3.418   1.406   3.397
33756W        W  165  38.594   2.155   0.331
33757W        W  166   5.317  15.797   1.333
33758W        W  167  44.373  44.020  13.174
33759W        W  168  42.525  24.477   2.903
33760W        W  169  43.106  33.951   1.810
33761W        W  170  36.121  20.225   2.273
33762W        W  171  42.990  25.514  13.074
33763W        W  172   2.919  32.438   2.855
33764W        W  173  30.536  12.096   2.804
33765W        W  174  19.632  26.658   4.553
33766W        W  175   7.403  12.277  13.342
33767W        W  176  27.191  25.963  14.857
33768W        W  177  40.796   7.722   2.235
33769W        W  178   6.273  39.896   2.879
33770W        W  179  11.739  13.874   3.727
33771W        W  180   0.518  44.265  12.285
33772W        W  181  37.424  32.837  12.031
33773W        W  182  13.334  18.848  11.053
33774W        W  183  14.623  36.757   3.167
33775W        W  184  20.534  33.551   0.692
33776W        W  185   7.014  35.658   0.496
33777W        W  186   6.703   5.723   0.441
33778W        W  187  15.649  21.694   3.585
33779W        W  188  33.454   5.336   0.337
33780W        W  189  17.086   1.365   2.930
33781W        W  190  30.769   6.945  11.532
33782W        W  191  22.946  38.464  12.011
33783W        W  192  40.607  14.300   2.731
33784W        W  193   4.210  21.272  12.932
33785W        W  194  36.536  39.987   4.516
33786W        W  195  25.072  20.152   5.323
33787W        W  196  27.181  34.360  14.873
33788W        W  197  25.044  44.606   2.757
33789W        W  198   4.171   6.118   1.035
33790W        W  199  33.499  38.014  11.630
33791W        W  200  16.225  28.448  11.054
33792W        W  201  16.675  44.711  13.007
33793W        W  202   1.361  35.578   1.339
33794W        W  203  15.123   8.346   3.924
33795W        W  204  21.804  34.500   1.148
33796W        W  205  44.853  20.124   3.075
33797W        W  206  24.833  35.027  12.415
33798W        W  207  21.703  42.993   4.652
33799W        W  208  41.463  40.888   1.505
33800W        W  209  29.221  16.652  14.079
33801W        W  210   9.946  43.290   2.330
33802W        W  211  10.814   8.580  14.271
33803W        W  212   7.787   2.049   2.827
33804W        W  213  14.696  21.650   0.363
33805W        W  214  28.483  31.294   4.157
33806W        W  215  17.331  13.083   2.780
33807W        W  216  36.139  11.941   2.746
33808W        W  217  27.367  39.396   1.828
33809W        W  218  25.023  21.513   1.246
33810W        W  219  38.551  12.231   1.339
33811W        W  220  15.694  44.359   4.681
33812W        W  221  30.767  26.279  14.947
33813W        W  222  31.646  25.878   2.796
33814W        W  223   7.911  33.594  14.440
33815W        W  224   1.974  40.555   0.442
33816W        W  225   1.013   0.860  14.459
33817W        W  226   7.818  43.080  11.989
33818W        W  227  13.657  12.393  10.533
33819W        W  228  39.329   0.343  11.490
33820W        W  229  36.508  44.153  13.026
33821W        W  230  27.504   2.006  14.959
33822W        W  231  35.784  13.437  13.500
33823W        W  232  38.454  24.248  13.877
33824W        W  233  17.778   5.322   3.354
33825W        W  234  27.081  10.847   1.297
33826W        W  235  43.945  14.269   0.876
33827W        W  236   3.339  41.284  14.027
33828W        W  237  18.326  32.137   1.238
33829W        W  238   0.991  26.064   1.731
33830W        W  239  14.177   6.949   0.961
33831W        W  240  27.318  21.563  11.889
33832W        W  241  29.884  38.980   3.620
33833W        W  242  13.255  30.084   4.632
33834W        W  243  24.650  28.943  14.083
33835W        W  244  36.026  32.144  13.790
33836W        W  245  25.653  39.811  14.984
33837W        W  246  25.956   2.417   0.910
33838W        W  247  20.715  28.007   2.803
33839W        W  248   0.355  33.003   3.228
33840W        W  249  32.072   0.426  14.344
33841W        W  250  13.243   0.419   1.704
33842W        W  251  34.648  12.001  11.478
33843W        W  252  37.968  38.879  13.933
33844W        W  253  28.065  23.935   3.789
33845W        W  254  25.106  39.336   2.721
33846W        W  255  28.594  38.828   0.894
33847W        W  256  18.072  15.331   0.695
33848W        W  257  44.390  25.138   0.155
33849W        W  258  13.253  12.808   4.610
33850W        W  259   9.899  12.666  10.730
33851W        W  260  37.616  38.511   4.320
33852W        W  261  11.244   1.731   2.795
33853W        W  262  16.634  31.902  12.985
33854W        W  263  15.397  10.840  11.068
33855W        W  264   0.421  44.007   1.260
33856W        W  265  20.756   3.309   3.627
33857W        W  266   5.483  30.550   1.792
33858W        W  267  27.564  14.411   0.816
33859W        W  268  22.246  13.149   1.846
33860W        W  269  43.549   0.957  10.572
33861W        W  270  13.405  11.152   0.519
33862W        W  271  19.645   1.274  11.493
33863W        W  272  42.540   6.207   4.661
33864W        W  273  18.490  25.662  11.439
33865W        W  274  20.035   7.273  12.533
33866W        W  275   2.425   9.103  12.248
33867W        W  276   7.662   4.497  14.963
33868W        W  277  37.598  15.924  11.424
33869W        W  278  30.425  32.504  10.772
33870W        W  279   0.022  20.024   4.416
33871W        W  280  34.919  29.397  13.345
33872W        W  281  29.657  20.917   0.455
33873W        W  282  38.569  11.173   4.168
33874W        W  283   7.863  18.926   3.797
33875W        W  284  21.261  25.127   2.856
33876W        W  285  31.623  43.549  10.730
33877W        W  286   4.040  37.546   4.297
33878W        W  287  23.715  18.744   0.723
33879W        W  288  15.083   4.998   0.947
33880W        W  289  22.782   0.186   3.105
33881W        W  290  10.579  13.745   2.755
33882W        W  291  23.897  44.274  11.147
33883W        W  292   7.844  30.731  14.527
33884W        W  293  17.977   6.667   0.316
33885W        W  294  38.511   7.750   2.623
33886W        W  295   2.061  18.301   3.978
33887W        W  296  15.190  40.801  12.932
33888W        W  297  42.003   0.570   3.668
33889W        W  298  31.895  29.839  10.981
33890W        W  299   9.657  33.099  12.976
33891W        W  300  15.721  32.970  10.556
33892W        W  301   7.478   1.750   1.132
33893W        W  302  21.499  31.463  11.274
33894W        W  303  16.325   2.212   0.354
33895W        W  304  14.091  37.327   0.336
33896W        W  305  10.989  41.502   3.438
33897W        W  306  40.598   3.363  12.471
33898W        W  307  42.347  11.751  10.757
33899W        W  308  37.104  16.536   3.840
33900W        W  309  15.810  30.049  10.552
33901W        W  310  21.804  11.439   1.736
33902W        W  311  27.453  42.317   2.178
33903W        W  312   0.058  20.321  14.545
33904W        W  313  13.721   7.643  12.605
33905W        W  314  24.719   9.273  13.784
33906W        W  315  32.017  38.827   0.458
33907W        W  316  40.770   3.239   0.074
33908W        W  317  44.285  30.014   3.715
33909W        W  318  43.269  36.511  14.908
33910W        W  319  17.766  28.737   2.044
33911W        W  320  38.256  18.436   2.654
33912W        W  321  18.596  17.860   1.007
33913W        W  322  32.827  42.028   3.218
33914W        W  323  44.122   0.652   1.097
33915W        W  324   8.771   1.051  12.911
33916W        W  325  43.523  16.991  13.017
33917W        W  326  41.618  24.766   0.048
33918W        W  327   2.471  35.721  10.747
33919W        W  328  13.534   4.258   0.374
33920W        W  329  32.464  25.140   1.416
33921W        W  330  37.592  12.627   3.187
33922W        W  331  19.739  37.339   1.392
33923W        W  332  20.905   1.779  11.045
33924W        W  333  21.070  35.014   1.939
33925W        W  334   2.983  34.456   1.734
33926W        W  335  12.117  39.217  14.411
33927W        W  336  35.372  35.343   0.759
33928W        W  337  37.183  39.898  11.992
33929W        W  338  19.620   3.465  12.352
33930W        W  339  24.199  41.878   4.205
33931W        W  340  12.707  10.794   0.987
33932W        W  341  33.224   9.302   2.328
33933W        W  342  22.228  13.697  12.779
33934W        W  343  13.781  37.424   3.031
33935W        W  344  12.259  42.314  11.526
33936W        W  345  15.220  42.074   0.664
33937W        W  346   5.741  40.399  14.554
33938W        W  347   9.334  24.234  13.396
33939W        W  348   5.748  22.823  10.207
33940W        W  349  35.856  42.742  11.696
33941W        W  350  37.036  39.791   1.553
33942W        W  351  32.911  38.376   3.386
33943W        W  352  28.966  20.607   0.368
33944W        W  353  15.349  36.785   0.385
33945W        W  354  29.575   5.577   3.088
33946W        W  355   2.919  28.224   0.730
33947W        W  356  23.449  13.155  12.328
33948W        W  357  31.939  24.642   1.676
33949W        W  358  35.659  19.580   3.775
33950W        W  359  34.648  41.788   4.078
33951W        W  360  10.846   0.409   0.912
33952W        W  361  12.228  12.239  14.466
33953W        W  362  10.214  18.182  14.046
33954W        W  363  36.937   1.569   3.420
33955W        W  364  19.642   5.421   1.266
33956W        W  365   5.661  12.165   4.155
33957W        W  366  22.389   4.713  14.601
33958W        W  367  20.251  27.703  12.111
33959W        W  368  43.506  43.687  11.206
33960W        W  369  28.096  21.135  11.629
33961W        W  370  17.805  21.346  11.180
33962W        W  371   7.230   8.310   1.559
33963W        W  372  19.271  22.224  11.230
33964W        W  373  22.998   1.898   3.428
33965W        W  374  35.199  22.791  13.470
33966W        W  375  12.322  23.547   4.484
33967W        W  376  16.395  24.169   4.357
33968W        W  377   8.702  22.689  10.623
33969W        W  378  35.344   6.828   3.603
33970W        W  379  30.336  27.427   1.917
33971W        W  380  33.076  20.466   1.947
33972W        W  381  10.207   6.774   3.340
33973W        W  382  44.803  14.638   3.639
33974W        W  383  39.767  19.318   2.417
33975W        W  384  26.468  38.612   3.150
33976W        W  385  13.188  37.580  11.975
33977W        W  386   6.773  38.838   2.528
33978W        W  387  16.314  42.879  12.989
33979W        W  388  44.194  24.926  13.292
33980W        W  389  14.866  32.944   2.128
33981W        W  390  25.721  32.561   0.163
33982W        W  391  38.605  17.655   0.367
33983W        W  392  15.448  14.002  14.196
33984W        W  393  15.805  37.435   2.744
33985W        W  394  43.513  44.366  12.709
33986W        W  395  44.542  42.799   1.473
33987W        W  396  14.566  12.230   3.384
33988W        W  397   0.354   3.897   0.808
33989W        W  398  32.651  21.258   0.426
33990W        W  399  39.655  21.164  12.537
33991W        W  400  40.517  34.947  14.815
33992W        W  401  25.758  40.445  14.275
33993W        W  402  43.316  18.944  11.998
33994W        W  403  32.940  26.700  13.042
33995W        W  404  23.487  44.246   0.195
33996W        W  405  20.278   3.251  14.484
33997W        W  406  39.587  25.795  12.829
33998W        W  407   2.004  31.637  11.628
33999W        W  408  26.207  27.810  14.470
34000W        W  409  15.342  43.966   2.837
34001W        W  410  25.177   3.153   4.193
34002W        W  411  40.653  24.261  10.639
34003W        W  412  25.059   8.659   1.602
34004W        W  413  39.161   8.986  13.387
34005W        W  414  33.140  38.089   3.785
34006W        W  415  35.643  28.939   1.664
34007W        W  416  40.029  39.113  11.868
34008W        W  417  39.555   2.144   4.417
34009W        W  418  34.454  37.454  12.605
34010W        W  419  16.996  10.828   4.103
34011W        W  420  12.588  26.237  13.595
34012W        W  421  15.815   0.467   4.585
34013W        W  422  18.653  43.205  13.357
34014W        W  423  15.060  14.363  14.364
34015W        W  424  26.559   7.190  10.310
34016W        W  425  25.698  19.306   4.170
34017W        W  426  17.473  10.432  13.794
34018W        W  427   8.023   4.095  10.913
34019W        W  428  12.246  33.076  14.828
34020W        W  429  33.490  22.505   4.843
34021W        W  430  41.105  14.122   2.708
34022W        W  431  25.000   3.368  14.972
34023W        W  432  31.937   8.568   0.871
34024W        W  433  37.905  24.489   2.227
34025W        W  434  31.377  31.631   3.395
34026W        W  435   4.777  40.029   0.437
34027W        W  436   9.534  11.384  12.441
34028W        W  437  42.309  35.348   2.745
34029W        W  438   5.887  13.234   0.663
34030W        W  439  16.698   7.807   1.706
34031W        W  440  17.973   7.592   0.745
34032W        W  441  25.660  18.595   4.174
34033W        W  442   6.886  23.697   1.430
34034W        W  443  17.634   5.326   4.515
34035W        W  444  35.749  11.256  13.467
34036W        W  445  28.450  44.345  11.772
34037W        W  446  19.056  20.658  12.047
34038W        W  447   3.111  35.725   4.178
34039W        W  448  14.166  26.848  13.421
34040W        W  449  16.095  19.625  13.916
34041W        W  450   2.367  15.575  10.828
34042W        W  451  30.974  30.196  11.250
34043W        W  452  22.208  38.934  10.904
34044W        W  453  30.296  10.787  13.465
34045W        W  454  17.782  11.782   2.312
34046W        W  455  31.076  20.091  14.784
34047W        W  456  14.567  29.369   3.221
34048W        W  457  24.940   2.402  12.677
34049W        W  458   9.758  41.901   1.378
34050W        W  459  42.196  29.925  12.119
34051W        W  460   2.668   2.257   0.574
34052W        W  461  23.542  12.117  10.643
34053W        W  462  41.004  42.347   0.058
34054W        W  463  35.316  27.133   1.966
34055W        W  464  35.792  17.366   4.528
34056W        W  465  41.755  33.467   3.218
34057W        W  466  28.272  21.144   2.606
34058W        W  467  12.675  10.225  10.711
34059W        W  468  31.601  15.092   3.732
34060W        W  469  14.223  39.348  14.362
34061W        W  470  16.239  40.318  14.321
34062W        W  471   3.190  20.123   3.863
34063W        W  472  34.401  14.018   0.977
34064W        W  473   8.618  37.489   4.186
34065W        W  474   2.874   0.726   2.861
34066W        W  475  33.926  24.456   3.075
34067W        W  476  27.536  30.574  12.872
34068W        W  477  31.036  31.481  12.256
34069W        W  478  38.904  34.886  11.183
34070W        W  479  41.026  23.331   4.848
34071W        W  480  25.908  35.101   3.811
34072W        W  481  30.914   6.890  10.860
34073W        W  482  34.364   7.175  13.274
34074W        W  483  38.329  35.176   1.798
34075W        W  484  30.979  12.424   1.685
34076W        W  485  17.806  30.096  14.648
34077W        W  486  15.831  35.419  10.450
34078W        W  487  39.650  14.824  13.112
34079W        W  488  23.270  40.897  14.674
34080W        W  489  28.897  29.702   3.213
34081W        W  490  17.137  43.738  13.334
34082W        W  491   5.340  42.961   0.535
34083W        W  492  12.118  13.245  14.539
34084W        W  493  30.180  44.449   2.914
34085W        W  494  19.691  35.806  14.676
34086W        W  495  42.221  23.486   0.381
34087W        W  496  32.708  22.245  14.470
34088W        W  497   9.423   8.184   2.445
34089W        W  498   2.711  31.957  14.520
34090W        W  499  10.707  29.881  14.101
34091W        W  500   8.277  30.279  11.644
34092W        W  501  33.006  36.368   0.054
34093W        W  502   6.653  16.100   2.807
34094W        W  503  16.721  39.589   4.459
34095W        W  504  22.519  42.420   4.771
34096W        W  505  11.897   3.398   2.398
34097W        W  506  28.448  37.237   4.813
34098W        W  507  42.327  33.416   1.831
34099W        W  508  16.966  16.449   4.651
34100W        W  509  26.160  10.534   3.238
34101W        W  510  38.338   1.356  14.894
34102W        W  511  29.520  38.301   3.325
34103W        W  512   0.693   9.359  12.412
34104W        W  513  25.733   8.169  13.945
34105W        W  514  41.903  15.248  13.071
34106W        W  515  14.418  11.653  14.394
34107W        W  516  15.064  12.715  10.287
34108W        W  517  26.525   2.810   3.019
34109W        W  518  17.213  13.723  13.416
34110W        W  519  27.387  29.070   4.502
34111W        W  520  41.776   8.800  13.059
34112W        W  521  30.259  24.378   2.351
34113W        W  522  19.520  38.278  14.850
34114W        W  523   7.464   0.425  13.954
34115W        W  524   3.944  32.846  14.378
34116W        W  525  15.063  20.997  13.374
34117W        W  526  42.229  44.981  10.759
34118W        W  527  24.154  26.256   3.717
34119W        W  528  39.462  41.996   4.626
34120W        W  529  36.382   6.686  12.951
34121W        W  530  16.737  41.191   0.033
34122W        W  531   6.899  37.976   1.236
34123W        W  532   0.844   9.187   4.535
34124W        W  533   0.918  30.729  11.883
34125W        W  534  32.584  42.952   1.326
34126W        W  535  26.020   9.370   0.935
34127W        W  536  37.832   8.784  10.736
34128W        W  537  30.998   1.649  11.979
34129W        W  538   8.633  15.313   2.758
34130W        W  539  14.355  44.952  11.141
34131W        W  540  28.507  25.771   1.154
34132W        W  541   3.238   2.391  14.778
34133W        W  542  34.426  33.862  10.889
34134W        W  543   6.264   0.830  10.709
34135W        W  544  39.843  43.413   0.404
34136W        W  545  15.063   9.202   2.837
34137W        W  546  27.242  11.326   0.890
34138W        W  547  21.905   2.892   2.479
34139W        W  548  11.185  43.489   1.210
34140W        W  549  24.790  29.192   2.929
34141W        W  550  37.443  22.661   4.304
34142W        W  551  23.010   7.026   0.706
34143W        W  552   0.770   0.432   0.031
34144W        W  553  40.042  22.759   2.806
34145W        W  554  32.878  19.790  12.497
34146W        W  555  36.722   9.400   2.246
34147W        W  556  27.588   7.292   5.657
34148W        W  557  17.707  35.923  12.085
34149W        W  558  13.080  10.153   2.311
34150W        W  559  34.878  28.905  13.507
34151W        W  560   8.279  15.742   1.121
34152W        W  561   3.384  20.536   3.593
34153W        W  562  26.146  32.503   0.477
34154W        W  563   8.334  21.748  13.559
34155W        W  564  25.788  34.190  12.920
34156W        W  565  14.823  17.928  13.895
34157W        W  566  15.092  39.563   9.862
34158W        W  567  10.649   9.016   1.555
34159W        W  568  10.256  31.456  10.107
34160W        W  569  25.627  38.998   3.600
34161W        W  570  22.630   6.291   0.636
34162W        W  571  44.818  24.749   2.920
34163W        W  572  15.644  16.572   3.376
34164W        W  573  34.335  41.361  11.551
34165W        W  574   8.685  13.368   4.537
34166W        W  575   3.895  22.282   4.691
34167W        W  576  43.778  41.836   4.043
34168W        W  577   1.560  39.250   1.801
34169W        W  578  25.205   4.740   3.147
34170W        W  579  18.972  38.025  11.376
34171W        W  580  15.485  28.929   1.767
34172W        W  581  22.529  43.371   3.127
34173W        W  582   5.512   1.214   0.428
34174W        W  583  33.522  26.841  14.885
34175W        W  584  38.643  43.308  13.824
34176W        W  585  36.581   8.928   2.448
34177W        W  586  28.062  21.029   1.686
34178W        W  587   3.225   3.703   2.895
34179W        W  588  14.347  31.822  12.522
34180W        W  589  20.465  20.711   1.775
34181W        W  590  27.401  44.374  11.368
34182W        W  591  29.452   1.765  12.005
34183W        W  592  12.046  13.791   0.192
34184W        W  593  44.440   7.232   3.982
34185W        W  594   1.784  20.821  14.194
34186W        W  595  21.044  41.954   3.859
34187W        W  596  24.505  27.468  14.965
34188W        W  597  11.304  20.746  12.416
34189W        W  598   2.214  10.395  13.906
34190W        W  599  15.699  33.619   1.299
34191W        W  600  30.878  18.585   1.908
34192W        W  601  20.335  15.637   3.212
34193W        W  602  40.586   5.950  12.152
34194W        W  603   9.217   7.932  11.072
34195W        W  604  14.315  12.410   0.900
34196W        W  605  28.270   6.061   2.550
34197W        W  606  11.644  15.258  11.491
34198W        W  607  39.909   9.246   4.702
34199W        W  608   7.836  33.454   5.263
34200W        W  609  19.556   1.924  13.389
34201W        W  610   4.653  24.619   0.830
34202W        W  611  33.115  11.849  13.880
34203W        W  612  27.037  11.693  12.009
34204W        W  613  11.225  29.429   1.272
34205W        W  614   5.592  17.336  12.937
34206W        W  615  26.895  44.364  13.019
34207W        W  616   2.982  35.179  11.149
34208W        W  617  19.271  17.146  11.688
34209W        W  618  31.328  36.001  12.538
34210W        W  619  13.290  35.971  11.378
34211W        W  620  20.575  38.121   3.534
34212W        W  621   0.882  30.405  11.494
34213W        W  622  14.362  36.360   1.717
34214W        W  623  33.840  41.116  13.402
34215W        W  624   3.646   9.582  14.972
34216W        W  625  30.908  27.484  14.104
34217W        W  626  14.337  29.418  12.238
34218W        W  627  31.058  26.196  11.597
34219W        W  628   9.591  22.752   2.016
34220W        W  629   3.783   7.464   0.030
34221W        W  630  25.864  30.222   0.847
34222W        W  631  33.626  26.913  11.482
34223W        W  632   1.432  21.044  14.479
34224W        W  633  13.496  27.012  10.409
34225W        W  634   1.034  15.361  12.020
34226W        W  635  19.204   8.270   1.718
34227W        W  636  14.888   7.448   1.944
34228W        W  637   1.416  16.686   0.430
34229W        W  638  16.818  14.616   0.639
34230W        W  639  18.789   1.682   4.599
34231W        W  640  43.032  37.026  14.093
34232W        W  641  20.165  44.723   1.453
34233W        W  642  39.729  16.626  14.930
34234W        W  643  40.978  39.401   9.984
34235W        W  644   4.349  13.203   0.335
34236W        W  645  41.995   7.345  11.642
34237W        W  646  34.502   7.707  11.483
34238W        W  647   5.516  15.288  13.749
34239W        W  648  10.137  14.133  13.159
34240W        W  649   4.221  19.690  14.861
34241W        W  650  17.153  32.100  12.107
34242W        W  651  29.036  28.804  11.188
34243W        W  652  38.499   8.722   4.940
34244W        W  653  24.424   1.180  13.045
34245W        W  654  23.564  40.953   0.083
34246W        W  655  16.304   1.420  12.039
34247W        W  656  20.223   2.418  10.751
34248W        W  657  15.759  20.015  10.273
34249W        W  658  28.579  38.355  14.784
34250W        W  659  38.210  38.430   2.651
34251W        W  660   8.652  39.399   4.260
34252W        W  661  38.754   1.712   3.120
34253W        W  662  38.593  34.487  11.457
34254W        W  663   9.982  35.589   5.512
34255W        W  664  13.406  31.499  10.522
34256W        W  665  17.156   7.476  10.169
34257W        W  666  13.319  11.816  12.486
34258W        W  667  27.416  22.684  12.342
34259W        W  668  32.150  41.970   1.338
34260W        W  669   8.103  43.464  12.633
34261W        W  670  37.927   5.477  10.431
34262W        W  671   4.957  12.969  13.417
34263W        W  672  44.248  37.287  10.435
34264W        W  673   7.207  30.527  13.416
34265W        W  674  25.974  37.368  12.094
34266W        W  675  34.450  26.437  10.761
34267W        W  676  35.818  28.593  11.062
34268W        W  677  35.127  15.723   3.149
34269W        W  678  36.581   5.342   2.843
34270W        W  679  24.530  33.158  11.968
34271W        W  680   5.841   7.257   0.980
34272W        W  681  11.963   1.752  11.561
34273W        W  682  37.754  14.357   3.287
34274W        W  683   1.876  21.303  14.354
34275W        W  684   0.535  10.256  10.731
34276W        W  685  12.297  23.617  11.969
34277W        W  686  26.669  28.464  12.514
34278W        W  687   5.418  25.163  11.650
34279W        W  688  15.235   0.940  12.323
34280W        W  689  23.731  15.617   0.038
34281W        W  690   0.991  32.645   2.805
34282W        W  691  18.203   5.791  11.434
34283W        W  692  24.751  25.438   1.427
34284W        W  693  33.331   6.008   5.087
34285W        W  694  27.601  21.982  13.990
34286W        W  695  15.315  20.727  14.326
34287W        W  696  39.668  13.931   0.649
34288W        W  697   5.099   4.472   1.165
34289W        W  698  11.883  25.511   4.775
34290W        W  699  23.442  40.511  11.352
34291W        W  700   9.921  10.466   2.098
34292W        W  701  15.188  44.585   0.163
34293W        W  702  25.416  24.094  13.923
34294W        W  703   7.330  27.743  12.385
34295W        W  704  39.398  19.421  12.531
34296W        W  705  41.263   6.101   3.778
34297W        W  706  35.291  18.113   3.693
34298W        W  707  22.993  20.787   0.086
34299W        W  708   3.866  31.246  14.995
34300W        W  709  23.294   5.447  12.976
34301W        W  710  11.887  19.196   4.335
34302W        W  711  31.543   9.005  13.070
34303W        W  712  24.373  14.764   2.904
34304W        W  713  22.903  33.576  13.888
34305W        W  714  39.918  38.416  14.621
34306W        W  715  35.103   2.727  13.968
34307W        W  716   3.699  42.871   4.707
34308W        W  717  19.841   6.889  11.315
34309W        W  718  39.797  11.883   2.418
34310W        W  719   1.856  42.994  10.419
34311W        W  720   8.790   6.398   1.039
34312W        W  721   3.259  23.921   4.383
34313W        W  722  40.673  25.527  13.473
34314W        W  723  44.141   0.315  14.325
34315W        W  724  37.238   6.623   0.241
34316W        W  725  31.452  23.862   1.903
34317W        W  726   0.328  33.274   3.680
34318W        W  727  34.721  33.394   2.701
34319W        W  728  43.859  23.239   1.422
34320W        W  729   6.057  43.524  13.473
34321W        W  730  25.774  13.901   2.116
34322W        W  731  41.258  39.567   0.540
34323W        W  732  16.384   0.946   3.314
34324W        W  733  33.019  39.404  13.889
34325W        W  734  12.299   5.250  13.481
34326W        W  735  12.841  34.149   3.462
34327W        W  736  12.276   1.682  14.403
34328W        W  737  40.197  23.550   4.997
34329W        W  738   7.114   7.807   4.296
34330W        W  739  44.456  37.404   4.989
34331W        W  740  39.070  30.619   1.974
34332W        W  741  32.649  25.565  12.349
34333W        W  742  38.170  27.587   0.687
34334W        W  743  10.257   1.838   1.917
34335W        W  744  43.383   2.332  14.361
34336W        W  745  31.731  22.169   1.842
34337W        W  746   5.420  24.558   1.346
34338W        W  747  42.608  33.504  10.840
34339W        W  748   1.418  38.876   3.674
34340W        W  749  26.547   2.744  11.058
34341W        W  750  30.022  18.202   4.988
34342W        W  751  20.833  19.590  13.419
34343W        W  752  36.369  27.983   0.844
34344W        W  753  39.242   5.900  13.370
34345W        W  754  10.740  13.807  10.694
34346W        W  755  23.103  23.583  14.925
34347W        W  756  25.800  34.590  11.603
34348W        W  757  19.501  22.460   4.725
34349W        W  758   3.031  26.286  10.076
34350W        W  759   3.934  15.112  14.055
34351W        W  760   3.528  14.066  11.091
34352W        W  761   4.353  26.444   4.576
34353W        W  762  22.507  37.454  13.983
34354W        W  763  42.882  20.565   1.872
34355W        W  764  31.727  14.865   0.929
34356W        W  765  42.893   5.574   1.231
34357W        W  766  41.050  15.651   4.004
34358W        W  767  33.898  21.498   0.037
34359W        W  768  36.101  14.683  11.704
34360W        W  769  24.085   9.424   2.224
34361W        W  770  35.154  17.697   1.454
34362W        W  771  44.280  43.732  13.581
34363W        W  772  24.562   5.766  12.514
34364W        W  773   9.756  38.531  14.418
34365W        W  774  14.884   7.877   1.635
34366W        W  775  24.637  33.351  14.508
34367W        W  776   4.489   1.026   1.864
34368W        W  777  27.257  34.552   2.070
34369W        W  778  21.931  22.092  13.239
34370W        W  779  13.879   0.773   1.160
34371W        W  780  42.279  33.001   4.051
34372W        W  781  34.450  35.142   3.857
34373W        W  782  41.739  27.224   3.151
34374W        W  783   1.443  41.381   3.766
34375W        W  784  22.166   0.375  13.897
34376W        W  785  39.915  13.308  12.537
34377W        W  786  17.049  12.904   0.871
34378W        W  787  35.161  19.611  12.674
34379W        W  788  43.108  43.490  11.586
34380W        W  789  31.500  27.134   3.932
34381W        W  790  10.744  34.449   1.324
34382W        W  791  29.612   9.933   1.139
34383W        W  792  15.117  44.057  13.731
34384W        W  793  14.135   6.998   4.006
34385W        W  794  43.179  28.928   1.703
34386W        W  795  30.177  18.013   0.348
34387W        W  796  12.731   7.198  11.113
34388W        W  797  36.798   4.443   1.395
34389W        W  798  37.833  23.185   0.096
34390W        W  799  20.257  15.126  12.037
34391W        W  800   4.144  15.985  13.983
34392W        W  801  27.333  42.932   3.179
34393W        W  802  14.917   0.542   0.720
34394W        W  803  28.597  14.846   3.231
34395W        W  804  13.558  10.096  14.730
34396W        W  805  38.484  21.200  10.701
34397W        W  806  13.633   4.127  14.872
34398W        W  807  25.777   6.887  12.979
34399W        W  808  36.116  12.117  13.066
34400W        W  809  32.821  20.876   2.251
34401W        W  810  36.698  43.750   3.664
34402W        W  811  11.205  27.149  11.739
34403W        W  812  28.399  42.840  11.670
34404W        W  813  32.805   8.716   4.186
34405W        W  814   3.882   0.434   0.803
34406W        W  815  25.678  25.946  13.954
34407W        W  816  39.551   7.712  12.848
34408W        W  817  16.610  25.124  14.372
34409W        W  818   8.155  37.510  11.594
34410W        W  819   6.312  29.757  14.977
34411W        W  820   7.494  22.689   4.824
34412W        W  821   0.514  32.560  11.985
34413W        W  822  30.605  16.248   0.521
34414W        W  823   2.908   9.402  12.143
34415W        W  824   0.872  21.213   4.582
34416W        W  825  37.546  13.520   4.805
34417W        W  826  11.051  15.121  14.498
34418W        W  827  42.206  26.745  14.991
34419W        W  828  44.244  42.498  14.796
34420W        W  829  34.120  10.798   4.416
34421W        W  830  39.302  14.239   4.070
34422W        W  831  17.026   0.437  12.868
34423W        W  832  28.073  29.428  13.030
34424W        W  833  14.523  30.175  14.549
34425W        W  834  31.341  42.487  11.642
34426W        W  835   0.341  40.803   1.253
34427W        W  836  27.338  11.912  14.407
34428W        W  837  26.396   1.497  10.679
34429W        W  838  15.770  17.551  12.429
34430W        W  839  43.278  44.651   0.910
34431W        W  840   0.372  10.215   0.814
34432W        W  841  36.651  41.753   3.616
34433W        W  842  41.656  16.202   3.306
34434W        W  843  44.253  32.379   4.581
34435W        W  844   4.390  10.967   3.120
34436W        W  845  22.617  14.275   0.233
34437W        W  846  11.866  17.901  12.986
34438W        W  847  15.223  15.281  11.519
34439W        W  848  25.573  30.659   2.317
34440W        W  849  21.754  26.760   2.686
34441W        W  850   8.650  15.215  14.075
34442W        W  851  13.125  15.680  12.403
34443W        W  852  29.475   6.120  13.572
34444W        W  853  26.493  40.502   3.616
34445W        W  854  22.501  21.650  13.379
34446W        W  855  15.033   6.028   0.822
34447W        W  856  29.137  14.612  12.119
34448W        W  857  17.228  25.541   4.020
34449W        W  858  41.774   7.126   1.332
34450W        W  859  33.850  14.024  13.052
34451W        W  860  17.583  19.524   1.417
34452W        W  861  38.152  25.786   2.619
34453W        W  862  43.907  21.603  12.600
34454W        W  863   6.826   2.406  11.345
34455W        W  864  20.021  12.364  11.586
34456W        W  865  43.559   9.858  12.160
34457W        W  866  23.324   0.605  13.441
34458W        W  867  18.703   9.256  14.595
34459W        W  868  10.706  10.232  13.473
34460W        W  869  37.032  21.111  11.195
34461W        W  870  20.111  13.871  14.944
34462W        W  871  22.613  11.342   3.565
34463W        W  872   3.668  32.756  14.818
34464W        W  873  19.410  11.875  12.048
34465W        W  874  12.245   0.483  11.533
34466W        W  875  22.928   1.796   2.853
34467W        W  876  37.019  22.186   0.699
34468W        W  877  33.872  19.569   2.561
34469W        W  878  26.491  31.229   2.452
34470W        W  879  23.505  29.017  11.518
34471W        W  880  30.382  36.812   1.225
34472W        W  881  32.519  11.428   1.271
34473W        W  882  10.302   6.946  13.597
34474W        W  883  11.261  29.702   0.297
34475W        W  884  23.282  32.822  11.135
34476W        W  885  10.642  37.920  10.622
34477W        W  886  25.964   4.739  10.873
34478W        W  887   7.892  26.770  10.750
34479W        W  888  19.335  36.542  14.579
34480W        W  889  40.681  22.663   1.505
34481W        W  890   7.391   9.637   4.415
34482W        W  891  38.606  42.814  12.010
34483W        W  892   0.999  14.371   2.196
34484W        W  893  38.405  24.016   2.846
34485W        W  894  34.448  32.147   3.283
34486W        W  895  23.038  11.126  11.050
34487W        W  896  24.948  36.169  11.193
34488W        W  897  36.550  34.557   3.537
34489W        W  898  20.766  14.881   3.724
34490W        W  899  42.308  39.151  13.815
34491W        W  900   1.778  28.629  12.061
34492W        W  901  17.545   2.473  13.851
34493W        W  902  27.983  12.165   3.290
34494W        W  903  16.240   7.413   2.801
34495W        W  904  13.238  28.991  12.405
34496W        W  905  35.350   2.722   2.350
34497W        W  906  20.619  42.406  13.826
34498W        W  907  33.949  33.696   2.029
34499W        W  908  30.186   9.214   0.777
34500W        W  909  19.295   2.958   0.442
34501W        W  910  19.653  25.022   1.377
34502W        W  911  30.828  35.359   2.831
34503W        W  912   7.377   2.059   4.606
34504W        W  913   2.885  37.341  12.874
34505W        W  914  27.430  28.210  10.678
34506W        W  915  22.653  34.402   0.503
34507W        W  916  42.716  15.254  14.933
34508W        W  917  16.334  43.218  14.786
34509W        W  918   6.276   6.087   0.883
34510W        W  919  33.585   8.417  11.621
34511W        W  920  23.580  29.526  14.695
34512W        W  921  33.627  31.963   2.845
34513W        W  922  25.880  32.073  14.998
34514W        W  923   4.191  13.838   1.337
34515W        W  924  44.045  33.166  14.425
34516W        W  925   8.418  36.264   2.302
34517W        W  926  18.171   9.736   4.271
34518W        W  927  24.223  39.845  10.806
34519W        W  928  15.907   8.177  11.147
34520W        W  929  27.623   2.403  12.000
34521W        W  930  29.889  17.501   2.364
34522W        W  931  37.962  30.646   1.952
34523W        W  932  41.943   4.176  14.202
34524W        W  933   6.529  30.144  13.973
34525W        W  934  14.024  30.481  13.378
34526W        W  935  26.279   3.301  10.998
34527W        W  936  37.892  24.282  14.769
34528W        W  937   2.283  21.767   1.868
34529W        W  938  35.283  27.690  14.375
34530W        W  939  29.201   8.824  14.981
34531W        W  940  24.980   8.450  10.568
34532W        W  941   7.221   2.350   4.174
34533W        W  942  11.224  27.720   3.643
34534W        W  943  18.185   9.767   0.244
34535W        W  944  36.476  41.472   4.035
34536W        W  945   9.187  14.311  10.770
34537W        W  946  11.000  25.162   4.947
34538W        W  947   3.047   9.386  11.622
34539W        W  948  32.999  14.158   5.103
34540W        W  949   3.941   9.664   2.958
34541W        W  950  15.618  10.677   0.932
34542W        W  951   1.422   1.954   2.727
34543W        W  952  44.810  12.892  10.989
34544W        W  953   5.657  19.106   1.247
34545W        W  954  17.401  23.537  13.456
34546W        W  955  14.320  31.908   1.831
34547W        W  956   7.928  30.147   2.344
34548W        W  957   4.403  18.653   2.695
34549W        W  958  39.886  26.080   4.302
34550W        W  959  43.347  20.990  12.387
34551W        W  960  41.216  35.043   0.397
34552W        W  961  43.387  37.263   4.037
34553W        W  962  11.811   2.303   3.102
34554W        W  963  40.493  29.897   0.874
34555W        W  964  27.725  25.945  14.912
34556W        W  965   2.494   8.439  11.219
34557W        W  966   8.328   1.269   4.015
34558W        W  967  41.879  38.158   2.707
34559W        W  968  19.631  37.064  13.513
34560W        W  969   3.460   1.256   2.893
34561W        W  970  15.294  44.095  12.347
34562W        W  971  26.497   0.479  12.096
34563W        W  972  40.516   7.577   0.846
34564W        W  973   8.783  30.675   4.906
34565W        W  974  10.718  40.866   1.784
34566W        W  975  42.594  39.920  10.677
34567W        W  976  16.272   2.450  14.116
34568W        W  977  34.449  38.932   1.036
34569W        W  978   0.497   7.833   3.904
34570W        W  979  16.659  20.527  13.979
34571W        W  980   8.432   1.869  13.145
34572W        W  981  31.499   0.373  13.464
34573W        W  982  24.039   3.279  10.764
34574W        W  983  15.734  29.204   4.589
34575W        W  984  19.538   1.804  14.402
34576W        W  985  25.588  14.292   3.115
34577W        W  986  36.544  42.858   1.855
34578W        W  987   9.547  42.823   1.105
34579W        W  988  10.736  40.638   1.287
34580W        W  989  31.981  40.823   1.136
34581W        W  990  14.629   1.707   4.057
34582W        W  991   3.683   8.187   1.138
34583W        W  992   3.033  34.902  14.493
34584W        W  993   7.372  36.592   0.291
34585W        W  994   1.870   5.998  14.498
34586W        W  995  25.716  42.980  11.160
34587W        W  996  20.874   6.408   4.987
34588W        W  997   6.993   4.351   0.823
34589W        W  998  24.659  26.019  10.920
34590W        W  999  13.826  33.149   2.098
34591W        W 1000  23.149   5.955  13.828
34592W        W 1001  18.749   5.773   0.931
34593W        W 1002  29.952  38.290   0.138
34594W        W 1003   1.984   8.088   4.174
34595W        W 1004  43.876  26.469  14.014
34596W        W 1005   5.899   4.656   2.751
34597W        W 1006  39.193  23.513  12.752
34598W        W 1007   0.352  26.985  10.541
34599W        W 1008  29.082   8.651  12.417
34600W        W 1009   4.334   5.304   3.886
34601W        W 1010  22.451  28.719   0.511
34602W        W 1011  22.771  34.328   2.415
34603W        W 1012   6.475  26.178  12.613
34604W        W 1013   1.506  37.095  14.341
34605W        W 1014   1.287  34.924   3.169
34606W        W 1015  17.294  24.414  14.252
34607W        W 1016  14.388   1.338  12.417
34608W        W 1017  32.581  37.688  12.038
34609W        W 1018  30.060  38.418  14.355
34610W        W 1019  43.126  33.543  10.716
34611W        W 1020  24.030  19.067   0.410
34612W        W 1021  33.904  35.281  10.381
34613W        W 1022  20.196  23.103  10.763
34614W        W 1023  34.082  13.796  10.553
34615W        W 1024  25.688  38.051   2.685
34616W        W 1025   5.757  16.860   3.186
34617W        W 1026  26.463   1.372  14.009
34618W        W 1027  25.675   5.893   2.242
34619W        W 1028   8.889  44.973  11.218
34620W        W 1029   4.302  11.765  13.178
34621W        W 1030  28.104  22.287   0.299
34622W        W 1031  31.358  14.645   3.541
34623W        W 1032  23.226  21.128  11.076
34624W        W 1033  28.428  30.044   2.656
34625W        W 1034  18.827   2.962   4.623
34626W        W 1035  10.164  17.139  10.744
34627W        W 1036   4.897   3.304   2.829
34628W        W 1037  16.357  29.047   2.722
34629W        W 1038  25.152  41.810   1.031
34630W        W 1039  17.179  39.916  14.147
34631W        W 1040   3.196  10.068   2.634
34632W        W 1041  25.442  27.562  14.093
34633W        W 1042  38.042   5.207   1.458
34634W        W 1043  29.504  33.058   2.034
34635W        W 1044  20.081  27.394  12.514
34636W        W 1045  36.598   3.522   0.414
34637W        W 1046   1.289  24.998  10.758
34638W        W 1047  20.504  36.966  12.919
34639W        W 1048  27.640  41.531  10.456
34640W        W 1049  14.307  33.478  14.590
34641W        W 1050   2.446  35.888   1.238
34642W        W 1051   4.259  34.628   0.928
34643W        W 1052  35.351  18.162   1.613
34644W        W 1053   2.816  27.551   2.343
34645W        W 1054   5.939   9.605   1.868
34646W        W 1055   1.840   2.744   2.920
34647W        W 1056  44.608  27.032   9.963
34648W        W 1057   7.177   5.366   2.337
34649W        W 1058  13.235  14.658  12.280
34650W        W 1059  39.108   9.146   1.265
34651W        W 1060  19.251  35.350   4.299
34652W        W 1061  18.155  33.757   3.251
34653W        W 1062  34.371  19.648   2.301
34654W        W 1063  20.800   0.576  13.083
34655W        W 1064   8.332   5.325   2.871
34656W        W 1065  25.835  25.476  13.754
34657W        W 1066   0.341  33.697   0.326
34658W        W 1067  33.993   0.758   2.775
34659W        W 1068  42.880   8.653  13.471
34660W        W 1069  41.441   3.711   3.660
34661W        W 1070  10.708  13.616   0.264
34662W        W 1071  31.150   8.336   9.974
34663W        W 1072  25.042  33.326   3.640
34664W        W 1073  24.418  26.307  12.839
34665W        W 1074  41.069   2.508  14.435
34666W        W 1075  20.129  12.134   1.483
34667W        W 1076   0.765   4.929  14.062
34668W        W 1077  30.132   6.800   4.028
34669W        W 1078  33.822  38.537  13.468
34670W        W 1079  33.571  31.935   3.686
34671W        W 1080  32.410  40.296  14.355
34672W        W 1081  21.455  26.734   0.950
34673W        W 1082  25.916   9.361   3.383
34674W        W 1083  19.204  27.477  12.970
34675W        W 1084  31.911  20.235  14.400
34676W        W 1085  15.683  39.648   1.258
34677W        W 1086   6.749  40.553   4.230
34678W        W 1087   9.927   1.131  13.919
34679W        W 1088  43.544   6.866  10.269
34680W        W 1089  17.232  36.659  10.206
34681W        W 1090  43.520  44.225  13.539
34682W        W 1091  16.311  33.159   3.046
34683W        W 1092  44.563   9.318  14.098
34684W        W 1093  23.752  41.584   4.644
34685W        W 1094  31.229  39.714  12.595
34686W        W 1095  20.158  19.574   3.717
34687W        W 1096   3.977   0.698   3.646
34688W        W 1097  29.557   6.824  12.922
34689W        W 1098  21.145  44.343   4.508
34690W        W 1099  11.147   8.382   4.604
34691W        W 1100  20.869  29.892   4.765
34692W        W 1101  37.592  37.815   3.589
34693W        W 1102  16.344  31.219   2.912
34694W        W 1103  10.500   3.484  11.928
34695W        W 1104  22.400   0.819  14.769
34696W        W 1105  38.047  39.413  14.900
34697W        W 1106  40.017  32.804   0.657
34698W        W 1107  11.259   7.850   1.778
34699W        W 1108   9.641   8.225   0.933
34700W        W 1109  32.530  23.752  14.522
34701W        W 1110  44.991   4.259  14.961
34702W        W 1111  33.828   7.311  14.729
34703W        W 1112  35.020  25.017   3.072
34704W        W 1113   5.056   2.493   1.389
34705W        W 1114  44.423  34.319  12.123
34706W        W 1115  31.345  19.826  10.670
34707W        W 1116   7.840  28.929  12.383
34708W        W 1117  27.579  14.147   4.519
34709W        W 1118  38.085  26.541   3.764
34710W        W 1119  38.575  23.038  14.385
34711W        W 1120  23.433  11.166   0.395
34712W        W 1121   2.048  43.268  11.138
34713W        W 1122  41.355  11.825   2.846
34714W        W 1123  20.985  24.101   0.179
34715W        W 1124  11.528  42.231   2.886
34716W        W 1125  22.148  24.171  14.440
34717W        W 1126  39.890   1.806   1.350
34718W        W 1127  20.839  42.887   0.541
34719W        W 1128  23.570  33.005   4.681
34720W        W 1129  34.996  37.362   1.116
34721W        W 1130   1.397  40.055   4.565
34722W        W 1131  44.315  10.777   0.897
34723W        W 1132  39.817  30.353   3.617
34724W        W 1133  43.183  16.604  11.828
34725W        W 1134  32.500   8.913   3.051
34726W        W 1135  23.952   1.747   1.937
34727W        W 1136   2.708  36.876  13.050
34728W        W 1137  13.083  27.962  11.114
34729W        W 1138   5.513   7.739   1.221
34730W        W 1139  17.333  19.516  11.115
34731W        W 1140  24.716  41.231   2.774
34732W        W 1141   5.820  30.365   4.063
34733W        W 1142   0.513  38.098   2.850
34734W        W 1143  19.239   6.267   1.928
34735W        W 1144  42.355  16.970  10.966
34736W        W 1145  31.040  10.288   0.866
34737W        W 1146  14.440  12.898   0.228
34738W        W 1147  19.038  29.938   0.041
34739W        W 1148  32.102  16.745   3.289
34740W        W 1149  11.036  26.078  11.196
34741W        W 1150  43.280  15.519   0.862
34742W        W 1151  43.786  31.071  11.070
34743W        W 1152   4.472   1.749  12.100
34744W        W 1153  40.882  43.719  14.939
34745W        W 1154   0.385  36.036   5.096
34746W        W 1155   7.716  21.526   3.655
34747W        W 1156  30.609  23.477   3.235
34748W        W 1157   6.632   6.377  12.548
34749W        W 1158  20.500  35.643  12.182
34750W        W 1159   1.639  14.170   4.878
34751W        W 1160   9.242  27.231  12.450
34752W        W 1161  30.219  12.078  12.987
34753W        W 1162  32.689  11.646   0.323
34754W        W 1163   9.783   0.795   1.402
34755W        W 1164  42.744  28.630  13.392
34756W        W 1165  26.940  16.800   0.422
34757W        W 1166  11.151  11.185   3.186
34758W        W 1167   3.640  13.272   4.162
34759W        W 1168   9.182   9.828   4.012
34760W        W 1169  44.155  16.177  14.747
34761W        W 1170  37.015  18.058   1.435
34762W        W 1171   0.266  38.795  10.232
34763W        W 1172  14.644  41.055  11.173
34764W        W 1173   7.247  19.075   3.167
34765W        W 1174  29.158   1.875   2.100
34766W        W 1175  17.573   9.559  11.168
34767W        W 1176   9.061  25.039   4.862
34768W        W 1177  12.109   5.291   1.649
34769W        W 1178  38.777  31.545  13.790
34770W        W 1179  19.389   1.213  12.512
34771W        W 1180  23.393  18.761  14.739
34772W        W 1181  39.369  44.274  12.989
34773W        W 1182  35.937  30.457  11.536
34774W        W 1183  19.329  12.342   3.723
34775W        W 1184   9.048  19.877   4.997
34776W        W 1185   5.757   1.839   1.526
34777W        W 1186  28.971   6.249  11.140
34778W        W 1187  11.991  23.940  11.666
34779W        W 1188  19.072   0.345  14.611
34780W        W 1189  37.833  32.839  12.632
34781W        W 1190   3.955  39.600  14.997
34782W        W 1191  32.130  37.014  12.604
34783W        W 1192  10.458  12.253  12.014
34784W        W 1193  16.164   6.778   0.037
34785W        W 1194  43.707  25.626  14.920
34786W        W 1195  43.434   8.142  12.789
34787W        W 1196  40.058  28.391  12.959
34788W        W 1197  38.549  12.045   3.693
34789W        W 1198  11.690  36.250  11.650
34790W        W 1199   6.576  41.095  13.453
34791W        W 1200  29.048   0.205   1.429
34792W        W 1201  37.032  22.094  10.927
34793W        W 1202  31.741  37.900  14.924
34794W        W 1203  17.172  40.978   3.298
34795W        W 1204  26.604  42.530   1.636
34796W        W 1205  43.866  15.676  11.474
34797W        W 1206  42.894  21.417   0.644
34798W        W 1207   2.851  41.261   3.906
34799W        W 1208   6.825  20.884  14.486
34800W        W 1209  42.394  32.491   4.243
34801W        W 1210   0.518  23.084   1.201
34802W        W 1211  24.810  29.579  11.235
34803W        W 1212  12.259  30.113   2.459
34804W        W 1213  20.914  12.437   2.152
34805W        W 1214  40.903   7.354   3.646
34806W        W 1215  18.989  20.463   4.261
34807W        W 1216  34.163  23.648  10.480
34808W        W 1217  39.246  42.455   4.729
34809W        W 1218  41.868   5.367  13.332
34810W        W 1219  11.781  20.259  14.108
34811W        W 1220  39.091  42.456   0.260
34812W        W 1221  17.372  38.990   4.460
34813W        W 1222  19.267  28.569  14.001
34814W        W 1223  39.850  36.732   1.860
34815W        W 1224  13.606  11.444  10.604
34816W        W 1225  35.892  43.522   0.441
34817W        W 1226  41.261  10.211   1.868
34818W        W 1227  26.171  35.890  10.598
34819W        W 1228  39.642  35.155   1.441
34820W        W 1229  18.490  19.986   2.690
34821W        W 1230  26.553  10.848   3.223
34822W        W 1231  20.625  26.040   3.794
34823W        W 1232  25.651  18.971   3.776
34824W        W 1233  43.869  43.962  13.855
34825W        W 1234  19.886  18.683  13.524
34826W        W 1235  20.057  25.217   0.148
34827W        W 1236  42.623  31.549   0.720
34828W        W 1237  15.506  39.740  12.936
34829W        W 1238  31.182   9.900  12.889
34830W        W 1239  24.695  19.710  14.396
34831W        W 1240  24.663  16.483   2.337
34832W        W 1241  30.402   0.875  11.961
34833W        W 1242  20.609  18.122   1.882
34834W        W 1243  29.064  10.489   2.262
34835W        W 1244  38.590  35.835  13.958
34836W        W 1245  12.756  38.130   3.580
34837W        W 1246  28.650  39.912  14.843
34838W        W 1247  22.508   1.915   4.651
34839W        W 1248  14.076  35.505   4.922
34840W        W 1249  41.015  24.138   3.601
34841W        W 1250  24.694  17.316  10.442
34842W        W 1251  17.351  23.454  14.278
34843W        W 1252   1.812  22.705  12.833
34844W        W 1253  14.813  15.693   4.645
34845W        W 1254  37.097  19.463   2.335
34846W        W 1255  33.641  19.283  13.973
34847W        W 1256   6.761  37.837   3.101
34848W        W 1257  33.183  23.145   0.377
34849W        W 1258  30.017  35.924  10.719
34850W        W 1259   9.853  41.569  11.940
34851W        W 1260  38.232   2.714  11.084
34852W        W 1261  44.669  40.935   1.925
34853W        W 1262  38.977  22.302   3.643
34854W        W 1263  44.839   3.899   3.304
34855W        W 1264  29.502  19.198  12.900
34856W        W 1265  15.157  36.314   1.416
34857W        W 1266   7.586  12.709  11.493
34858W        W 1267  33.158  11.223  12.866
34859W        W 1268  25.586  41.675  12.675
34860W        W 1269  43.880  19.126   2.719
34861W        W 1270   0.323   9.771  11.570
34862W        W 1271  30.143  29.173   3.560
34863W        W 1272   4.886  34.088  10.501
34864W        W 1273  44.016  43.582  10.747
34865W        W 1274  16.150  34.374  13.541
34866W        W 1275  36.453  26.693   2.332
34867W        W 1276  38.485  10.299   4.415
34868W        W 1277  37.998  29.706   1.925
34869W        W 1278  39.863   6.641   4.711
34870W        W 1279  10.917  30.981   4.980
34871W        W 1280  27.170  13.913  12.475
34872W        W 1281   0.062  24.585  12.034
34873W        W 1282  40.070  36.397   3.415
34874W        W 1283  17.162  11.807   2.343
34875W        W 1284  18.094   3.638  11.146
34876W        W 1285   5.941   1.961   1.034
34877W        W 1286  33.203  41.868   1.301
34878W        W 1287  27.854   3.310  11.068
34879W        W 1288  42.035  29.130  13.795
34880W        W 1289  18.011  35.544   0.424
34881W        W 1290  23.152   8.638  13.408
34882W        W 1291  35.747  34.028  14.928
34883W        W 1292   8.459  44.009  14.790
34884W        W 1293  13.716  14.617   1.234
34885W        W 1294  21.690  11.562   2.781
34886W        W 1295  33.082  35.482   3.145
34887W        W 1296   0.512  34.486  14.982
34888W        W 1297  23.197  44.514   2.863
34889W        W 1298  32.192  20.010  11.469
34890W        W 1299  44.498  43.298   3.683
34891W        W 1300  20.208  37.825   0.285
34892W        W 1301   3.252  21.613   2.243
34893W        W 1302  34.154   9.486   4.169
34894W        W 1303  18.788   5.292   1.175
34895W        W 1304  24.941  36.300   0.558
34896W        W 1305  28.643  37.948   0.335
34897W        W 1306  29.038   2.897   5.011
34898W        W 1307  29.884  23.732  14.873
34899W        W 1308  42.955  19.160   0.882
34900W        W 1309  20.030  33.993  11.216
34901W        W 1310  23.589  26.849   2.864
34902W        W 1311  31.042   3.707  11.221
34903W        W 1312  21.809   0.938   0.255
34904W        W 1313  16.095   1.792   4.507
34905W        W 1314   0.309  16.343   0.987
34906W        W 1315  27.091   3.842  10.709
34907W        W 1316  44.866   3.422   4.656
34908W        W 1317  43.760   2.905   4.455
34909W        W 1318  22.279   8.623   4.133
34910W        W 1319  10.095   8.373   1.852
34911W        W 1320   2.759  11.481   2.406
34912W        W 1321  17.793   3.364   0.719
34913W        W 1322  12.150  12.799  10.671
34914W        W 1323  41.996  42.426  14.463
34915W        W 1324   4.734   1.308  12.126
34916W        W 1325  41.868   1.689  12.006
34917W        W 1326   3.726  23.213   2.413
34918W        W 1327  15.735  12.682  14.392
34919W        W 1328  39.202  18.336  11.544
34920W        W 1329  24.666  44.030  14.035
34921W        W 1330   9.885  40.004   3.487
34922W        W 1331   4.769  29.724  12.471
34923W        W 1332  21.720  32.940  13.462
34924W        W 1333  28.139   9.212   9.709
34925W        W 1334   0.424   0.455  12.502
34926W        W 1335  22.391  11.598  12.081
34927W        W 1336  41.290  35.608   4.554
34928W        W 1337  22.416   6.241   3.995
34929W        W 1338   4.305  10.324   1.320
34930W        W 1339  21.726  25.112   1.518
34931W        W 1340  31.557  25.127   1.390
34932W        W 1341  41.573   1.997  11.564
34933W        W 1342   3.435   5.731  12.904
34934W        W 1343  29.576  43.901   4.146
34935W        W 1344   0.426  13.499   0.802
34936W        W 1345  20.938  18.311   4.138
34937W        W 1346   1.726   7.472   0.427
34938W        W 1347  37.882   0.796   3.863
34939W        W 1348  17.141  19.345  14.854
34940W        W 1349  10.908  13.850  12.552
34941W        W 1350  23.798  16.012   2.324
34942W        W 1351  44.432  40.816  10.733
34943W        W 1352   1.777  10.854  12.932
34944W        W 1353  14.143   0.903  13.115
34945W        W 1354  11.644  42.991   3.808
34946W        W 1355  41.849   0.463   3.155
34947W        W 1356  21.573   3.893   2.343
34948W        W 1357   8.767  42.044  13.642
34949W        W 1358  15.670   2.344  13.003
34950W        W 1359  24.645   7.158  14.571
34951W        W 1360  43.477   0.989   4.838
34952W        W 1361  34.126  36.868  10.686
34953W        W 1362  15.541   1.397  11.521
34954W        W 1363  37.991   6.156  11.228
34955W        W 1364  41.295  10.709  12.052
34956W        W 1365  24.725  22.461  11.715
34957W        W 1366  43.430  39.576  11.493
34958W        W 1367  26.613  16.639  10.481
34959W        W 1368  17.567   3.697   0.346
34960W        W 1369  26.450  35.066   3.748
34961W        W 1370  12.699   6.818  12.849
34962W        W 1371  38.596  35.619  11.507
34963W        W 1372   6.479  13.854  10.734
34964W        W 1373  38.876  34.854  14.847
34965W        W 1374  38.660   3.540   3.121
34966W        W 1375  13.812  34.429  14.849
34967W        W 1376  30.110   1.390   0.842
34968W        W 1377  15.219  32.349   4.820
34969W        W 1378  40.767  14.707  12.810
34970W        W 1379   5.479  23.145  11.637
34971W        W 1380  44.694  12.239   0.303
34972W        W 1381  21.255  33.096   0.466
34973W        W 1382   4.489  17.221   2.286
34974W        W 1383  39.009  38.196  10.280
34975W        W 1384  27.616  21.296   1.826
34976W        W 1385  36.933   8.239   3.149
34977W        W 1386  25.508  44.268   0.757
34978W        W 1387  20.285  12.756   0.044
34979W        W 1388  29.072   2.223   3.613
34980W        W 1389  22.850  16.651   3.232
34981W        W 1390  34.949  38.029  14.373
34982W        W 1391  15.475   4.053  11.266
34983W        W 1392  22.818  37.607   1.963
34984W        W 1393  42.386  16.346  13.299
34985W        W 1394  24.211  29.001  12.133
34986W        W 1395   2.781  19.529   2.796
34987W        W 1396   8.645  25.819   4.547
34988W        W 1397  37.194  21.651   1.914
34989W        W 1398  18.740  28.965  11.631
34990W        W 1399   5.955  14.518   3.676
34991W        W 1400  10.439  37.337  14.226
34992W        W 1401   5.191  38.877   0.866
34993W        W 1402  37.010  30.281   1.640
34994W        W 1403  40.429  12.621  14.440
34995W        W 1404  10.199  19.993   0.976
34996W        W 1405   8.688   4.012  13.538
34997W        W 1406  16.287  42.487  12.651
34998W        W 1407  41.705  42.884   4.956
34999W        W 1408  41.517  24.605  11.743
35000W        W 1409   6.953   5.430   1.224
35001W        W 1410  28.869  18.883   3.684
35002W        W 1411  36.613   4.388  11.627
35003W        W 1412  33.685  13.758   3.802
35004W        W 1413  27.690  33.022  12.930
35005W        W 1414  21.450  44.842  13.962
35006W        W 1415  10.183  12.177   3.870
35007W        W 1416  40.887   1.943  12.159
35008W        W 1417  43.016   7.823   2.374
35009W        W 1418  12.433  15.439  10.432
35010W        W 1419  30.227   6.550  12.404
35011W        W 1420   3.190  25.245   1.283
35012W        W 1421   1.212  35.815   3.164
35013W        W 1422  10.442  10.241   0.348
35014W        W 1423  27.765  17.587   2.317
35015W        W 1424  16.300  44.169  13.790
35016W        W 1425  22.588  16.920   0.433
35017W        W 1426   3.776  10.877  12.066
35018W        W 1427  35.548  26.180   1.421
35019W        W 1428  23.555   1.508  14.973
35020W        W 1429  17.875  19.357  10.855
35021W        W 1430   1.463  11.437   3.639
35022W        W 1431  42.034  24.951   3.598
35023W        W 1432   1.252  21.053  12.603
35024W        W 1433  13.087  21.804   4.813
35025W        W 1434   3.907  28.169  13.528
35026W        W 1435  13.118  38.582  13.273
35027W        W 1436  30.056   2.990   4.567
35028W        W 1437  11.299  13.918   4.117
35029W        W 1438  21.292  22.649  14.336
35030W        W 1439  27.521  29.813   2.165
35031W        W 1440  22.978  44.465   2.195
35032W        W 1441  44.073  24.366  10.687
35033W        W 1442  39.466  29.564   0.869
35034W        W 1443  35.459  19.803   4.653
35035W        W 1444  38.330   5.954   1.044
35036W        W 1445  10.332  31.888  10.346
35037W        W 1446  43.300  11.600  12.459
35038W        W 1447  32.661  32.548  13.782
35039W        W 1448  42.323  27.698  11.131
35040W        W 1449  43.686   4.399   1.869
35041W        W 1450  39.045  28.659  12.401
35042W        W 1451  12.153   2.916   2.308
35043W        W 1452  11.587  31.518   1.819
35044W        W 1453  12.134  22.959  13.472
35045W        W 1454  44.063  12.322  14.463
35046W        W 1455  35.173  13.182  14.106
35047W        W 1456  44.084  10.416  14.881
35048W        W 1457  11.919  23.370  10.237
35049W        W 1458  25.473  36.536   4.266
35050W        W 1459   3.407  24.645  12.833
35051W        W 1460  39.207  30.365  14.274
35052W        W 1461   9.959  44.664   4.934
35053W        W 1462   0.701   8.729  12.947
35054W        W 1463   5.924   4.260   3.713
35055W        W 1464  22.250  23.474  11.511
35056W        W 1465  20.508  28.545   3.824
35057W        W 1466   1.319  19.041   4.235
35058W        W 1467  27.175  31.512   4.159
35059W        W 1468   5.849  32.012   0.096
35060W        W 1469  36.535  27.088  12.422
35061W        W 1470  30.878  11.107  12.304
35062W        W 1471  28.949   3.275   1.284
35063W        W 1472  13.766   6.668   3.512
35064W        W 1473   3.270  13.306   4.552
35065W        W 1474   9.521  39.326   4.637
35066W        W 1475  36.766   7.838  13.062
35067W        W 1476  17.996  38.971   5.117
35068W        W 1477  23.076  13.081  12.934
35069W        W 1478  14.685   4.586  14.435
35070W        W 1479  37.315  32.323   3.300
35071W        W 1480   7.868  43.823   3.106
35072W        W 1481  19.213   7.024   4.422
35073W        W 1482  21.606  22.666   1.737
35074W        W 1483  27.922  19.094  14.740
35075W        W 1484  37.642  25.086   1.109
35076W        W 1485  18.122  15.844  14.288
35077W        W 1486   0.100   0.791   2.088
35078W        W 1487  29.790   5.157  10.712
35079W        W 1488   5.342   9.369   3.661
35080W        W 1489  41.054  31.200   2.823
35081W        W 1490  13.483  14.316  14.962
35082W        W 1491   3.810  29.517   2.396
35083W        W 1492  27.675  15.990  15.000
35084W        W 1493  31.494  33.032  11.988
35085W        W 1494  22.027  44.675  12.492
35086W        W 1495  21.296  35.624  14.487
35087W        W 1496  34.063  12.120  10.911
35088W        W 1497   0.278  40.401  14.500
35089W        W 1498  42.149  12.037   0.786
35090W        W 1499  42.399  11.193   3.575
35091W        W 1500  12.976  29.588  11.276
35092W        W 1501  36.096  28.158  11.670
35093W        W 1502  18.105  22.799   4.651
35094W        W 1503  15.785   7.978  12.113
35095W        W 1504   9.178  27.189  13.292
35096W        W 1505   8.686  36.937  13.941
35097W        W 1506   5.691  31.981   2.971
35098W        W 1507   0.208  36.363   1.400
35099W        W 1508  14.897  19.039   4.079
35100W        W 1509  19.978   9.212   2.759
35101W        W 1510  18.216  24.341  10.467
35102W        W 1511  21.001  25.939   0.993
35103W        W 1512  32.112   2.844  12.353
35104W        W 1513   7.905  12.340   1.350
35105W        W 1514   8.395  44.227   3.770
35106W        W 1515   7.333  31.014  12.533
35107W        W 1516  22.790   5.024   3.612
35108W        W 1517   0.875  19.954  14.875
35109W        W 1518  28.017  29.967  10.750
35110W        W 1519  28.498  10.762   1.103
35111W        W 1520   8.972  11.656  11.060
35112W        W 1521  28.743  19.781   4.447
35113W        W 1522  44.283  15.840   0.873
35114W        W 1523  29.545  40.832  13.894
35115W        W 1524  26.533  35.447  14.446
35116W        W 1525  28.950   5.072   0.822
35117W        W 1526  29.923  43.727  13.655
35118W        W 1527  26.657  35.991   3.186
35119W        W 1528  28.087  29.660  13.938
35120W        W 1529  21.164  15.200  11.939
35121W        W 1530  34.953   9.019  12.103
35122W        W 1531   3.343  38.599   4.523
35123W        W 1532   6.377  29.898   0.488
35124W        W 1533  19.202   6.629  13.424
35125W        W 1534  29.005   0.950   4.665
35126W        W 1535   8.674   9.752  14.255
35127W        W 1536  15.550  35.884  12.189
35128W        W 1537   6.998  28.500   3.669
35129W        W 1538  25.648  37.770  13.421
35130W        W 1539  23.672  19.550  14.746
35131W        W 1540  36.094  26.196  12.479
35132W        W 1541  43.407  18.463  10.697
35133W        W 1542  33.076   5.638   3.225
35134W        W 1543   4.763  14.413   4.390
35135W        W 1544   5.696  17.041   0.332
35136W        W 1545   5.343  44.975  12.406
35137W        W 1546  13.588  20.240   0.362
35138W        W 1547  44.767  18.575  14.857
35139W        W 1548  21.706   0.240  12.029
35140W        W 1549  19.958  40.818   2.313
35141W        W 1550  39.512  22.513  13.924
35142W        W 1551  42.564  35.064   1.304
35143W        W 1552   5.533   7.790   3.634
35144W        W 1553  19.572  15.114   4.608
35145W        W 1554  39.016  16.366  11.538
35146W        W 1555  26.039  12.119   1.363
35147W        W 1556  20.712   8.826  10.404
35148W        W 1557  31.990  35.515   0.553
35149W        W 1558  16.546  18.933  12.022
35150W        W 1559  14.191  18.926   4.708
35151W        W 1560  35.807  32.487   2.214
35152W        W 1561  42.377  28.489   1.499
35153W        W 1562  18.565  19.520   2.477
35154W        W 1563   0.774  29.777   5.345
35155W        W 1564  22.641   8.651   2.671
35156W        W 1565  20.270  25.010  11.224
35157W        W 1566  43.479  39.895   3.632
35158W        W 1567  32.074  38.784   1.462
35159W        W 1568  43.534  44.411  11.749
35160W        W 1569  42.352  44.182   2.357
35161W        W 1570  22.969  21.676  14.784
35162W        W 1571  28.189  36.576   2.335
35163W        W 1572   9.118  28.376  10.545
35164W        W 1573   1.239  21.265  10.235
35165W        W 1574  20.686  37.536   4.794
35166W        W 1575  39.226  24.274   0.638
35167W        W 1576  44.379  19.114  10.917
35168W        W 1577  35.543  13.101  14.458
35169W        W 1578  37.694  39.998   4.280
35170W        W 1579  18.512  25.487  13.435
35171W        W 1580   7.869  31.470   2.769
35172W        W 1581  33.434   7.785  10.444
35173W        W 1582  33.810  35.137  12.040
35174W        W 1583   4.638  42.888   4.625
35175W        W 1584  10.462   8.288   0.522
35176W        W 1585  24.514  34.998   2.851
35177W        W 1586  14.677  24.707   0.296
35178W        W 1587  28.567  44.367  11.282
35179W        W 1588   3.334  27.161   3.118
35180W        W 1589  22.662   0.696  11.157
35181W        W 1590   1.099  29.756   0.423
35182W        W 1591  10.802  40.936  13.587
35183W        W 1592  14.355  36.476   2.777
35184W        W 1593  24.584  34.589  12.501
35185W        W 1594   0.857   9.769  11.663
35186W        W 1595   4.392  10.884  11.413
35187W        W 1596  31.603   0.245   5.005
35188W        W 1597  31.044  17.087  12.917
35189W        W 1598  33.247  22.073   4.631
35190W        W 1599  33.438  33.828  11.074
35191W        W 1600  41.802  13.475  10.598
35192W        W 1601  10.260  32.356   4.662
35193W        W 1602  20.776  24.780  14.218
35194W        W 1603  15.375  23.038   0.886
35195W        W 1604  38.754  10.354  12.963
35196W        W 1605  41.931   7.404   2.665
35197W        W 1606   7.286  27.931   4.715
35198W        W 1607  42.932  37.951   5.049
35199W        W 1608  27.375  13.854   1.680
35200W        W 1609   1.730  40.978   3.130
35201W        W 1610   7.910   4.945  13.485
35202W        W 1611  15.469  27.209   1.237
35203W        W 1612  33.031   4.284   3.112
35204W        W 1613  22.432  21.630   2.503
35205W        W 1614  35.592  42.824  12.121
35206W        W 1615  28.952  40.344   3.778
35207W        W 1616  17.218   6.732  11.844
35208W        W 1617  38.356  14.819   3.688
35209W        W 1618  44.863  16.675   4.565
35210W        W 1619   5.822  17.724  11.465
35211W        W 1620  17.032  22.557   9.893
35212W        W 1621  35.540  38.178   1.069
35213W        W 1622   4.923  44.235  12.627
35214W        W 1623  11.577  19.523   1.886
35215W        W 1624  20.477  36.944   3.631
35216W        W 1625  29.399   5.786  11.947
35217W        W 1626   2.735  26.888  12.962
35218W        W 1627  15.710  25.342  10.745
35219W        W 1628  32.536  23.528   2.578
35220W        W 1629  41.606  15.623   0.320
35221W        W 1630  25.145   0.153  13.543
35222W        W 1631   9.665  22.089  10.968
35223W        W 1632  13.800  20.945   2.679
35224W        W 1633   5.879  12.683  11.100
35225W        W 1634  13.147  38.874   3.190
35226W        W 1635  40.824  36.116   0.912
35227W        W 1636  12.173  31.555   4.230
35228W        W 1637  16.173   4.269  14.005
35229W        W 1638  16.507  24.068   3.846
35230W        W 1639   8.831  11.742   2.067
35231W        W 1640  29.973  15.707  13.537
35232W        W 1641   9.333  30.670  11.226
35233W        W 1642  26.785   9.883   3.792
35234W        W 1643  40.433  29.138  11.233
35235W        W 1644  43.264  35.390  11.612
35236W        W 1645  10.577  37.041   4.446
35237W        W 1646  28.149  31.922   3.696
35238W        W 1647  23.571  13.373  12.770
35239W        W 1648   8.392  18.257   4.282
35240W        W 1649  26.742   9.983  11.151
35241W        W 1650  24.843  41.883   0.621
35242W        W 1651  28.653  11.583  14.208
35243W        W 1652  28.199   2.694   1.531
35244W        W 1653  24.659   6.781   1.971
35245W        W 1654  14.382   7.723  14.954
35246W        W 1655  12.283  29.188   4.615
35247W        W 1656  41.717  34.776  11.637
35248W        W 1657  16.307  44.843   2.393
35249W        W 1658   9.652  23.547   0.376
35250W        W 1659  37.573  16.083  13.046
35251W        W 1660   7.036  37.397   1.038
35252W        W 1661   3.186  30.954  11.528
35253W        W 1662  41.523  33.387  14.392
35254W        W 1663  38.829  23.910  11.160
35255W        W 1664   3.320  25.198  11.967
35256W        W 1665   1.227  25.827  11.194
35257W        W 1666   8.663  44.890  12.628
35258W        W 1667  41.451   2.049  13.942
35259W        W 1668  17.193   0.411  10.977
35260W        W 1669  12.674  27.007  11.586
35261W        W 1670  42.001   2.908   2.844
35262W        W 1671   3.421  35.558  13.456
35263W        W 1672   1.275  15.340  14.882
35264W        W 1673  28.626  36.899  12.407
35265W        W 1674  30.204  17.057  13.141
35266W        W 1675   7.864  17.005  12.050
35267W        W 1676  10.373  38.469   0.473
35268W        W 1677   2.534  29.843  10.976
35269W        W 1678  17.226  21.732   2.381
35270W        W 1679  17.414  40.511  11.481
35271W        W 1680  36.981  10.681   3.273
35272W        W 1681  13.821  20.278  10.264
35273W        W 1682   9.016  25.825  12.546
35274W        W 1683  28.084  14.981   3.681
35275W        W 1684   0.713   6.138  13.083
35276W        W 1685  16.804  32.337  11.300
35277W        W 1686  13.225  27.172   3.762
35278W        W 1687  39.393   5.996   3.128
35279W        W 1688  42.327  34.788   2.980
35280W        W 1689   6.467  29.615   3.674
35281W        W 1690  31.977  25.048  11.383
35282W        W 1691  18.740   7.469   3.205
35283W        W 1692   5.906  13.287   0.139
35284W        W 1693   4.284  16.862  10.758
35285W        W 1694  21.910  29.594  12.948
35286W        W 1695   0.420  22.595   4.914
35287W        W 1696  35.497  15.132  12.140
35288W        W 1697  36.887  22.940  12.930
35289W        W 1698  35.525  23.550  10.932
35290W        W 1699  34.909  42.466   1.945
35291W        W 1700   2.824   7.265  14.010
35292W        W 1701   4.413  32.349   1.714
35293W        W 1702  41.181  21.678   2.827
35294W        W 1703  24.087  26.808  12.618
35295W        W 1704  39.800   9.651  10.504
35296W        W 1705  41.427  27.610   2.154
35297W        W 1706   8.616  35.898   0.401
35298W        W 1707  33.985   5.722  11.541
35299W        W 1708  13.361  15.218  13.023
35300W        W 1709  19.559   1.942   0.874
35301W        W 1710  34.353  20.677  10.809
35302W        W 1711  32.628  23.096  13.968
35303W        W 1712  18.710   3.386  12.087
35304W        W 1713  40.226  32.983  13.687
35305W        W 1714  30.724   4.147   3.311
35306W        W 1715   7.748   1.845   3.286
35307W        W 1716  13.900  31.112   4.257
35308W        W 1717  17.100  42.404  13.050
35309W        W 1718  30.587  16.848  12.783
35310W        W 1719  29.399  33.332   1.246
35311W        W 1720   9.738  24.181   3.565
35312W        W 1721  29.956   4.768  13.485
35313W        W 1722   0.994   4.005  10.746
35314W        W 1723  38.809  21.955  11.467
35315W        W 1724  28.519  15.635  12.456
35316W        W 1725  27.694  23.608   1.193
35317W        W 1726  30.659  19.081  13.848
35318W        W 1727  10.821  16.128   3.766
35319W        W 1728   4.026  19.685   2.744
35320W        W 1729  43.375  21.528   2.748
35321W        W 1730  43.030  39.233   2.859
35322W        W 1731  29.553  28.333  13.889
35323W        W 1732  20.287   0.718  11.652
35324W        W 1733   6.133  23.169  10.280
35325W        W 1734  11.780   6.332   3.709
35326W        W 1735   3.553   2.133   1.472
35327W        W 1736  27.095  30.883  13.949
35328W        W 1737  13.119  17.552  11.194
35329W        W 1738  36.764   6.365  12.857
35330W        W 1739   8.874  15.867  11.072
35331W        W 1740  38.332  30.296   4.453
35332W        W 1741  13.089   6.724   3.235
35333W        W 1742   2.936  15.956   2.261
35334W        W 1743  40.394  26.956  14.273
35335W        W 1744  33.400  44.499   3.264
35336W        W 1745  15.103   7.953  12.437
35337W        W 1746  35.944  19.754   2.428
35338W        W 1747   6.937  11.802  14.983
35339W        W 1748  38.950  22.023  10.973
35340W        W 1749  28.490  33.087   1.264
35341W        W 1750  43.929  26.880   1.866
35342W        W 1751  23.088  32.036  12.171
35343W        W 1752  21.980   9.090   4.758
35344W        W 1753  24.158  24.082  14.545
35345W        W 1754  11.111   6.930  12.167
35346W        W 1755   5.313  22.624  14.196
35347W        W 1756   3.708  11.667  12.507
35348W        W 1757  18.250   9.073   1.491
35349W        W 1758  19.911  27.417   3.895
35350W        W 1759  37.388  38.980   4.321
35351W        W 1760  25.002  22.291  13.910
35352W        W 1761  12.117   6.182   1.381
35353W        W 1762  11.971  21.529  14.474
35354W        W 1763  25.543  44.493   3.683
35355W        W 1764   2.836  44.348   0.041
35356W        W 1765  37.020  28.743   4.575
35357W        W 1766  38.607  25.190  13.425
35358W        W 1767   1.725  38.950   4.793
35359W        W 1768  30.402  10.741  14.780
35360W        W 1769  27.166  21.442  14.821
35361W        W 1770  10.911   1.939   1.639
35362W        W 1771   9.827   0.778  12.110
35363W        W 1772  21.307  23.647  12.506
35364W        W 1773   5.409  40.656  11.941
35365W        W 1774   0.249  32.208   0.321
35366W        W 1775  18.718  39.310   4.573
35367W        W 1776  19.202  14.920   1.257
35368W        W 1777  40.605   6.274   2.413
35369W        W 1778   8.717  16.848   3.108
35370W        W 1779  10.271  19.727  13.344
35371W        W 1780  42.457  34.560   4.836
35372W        W 1781  12.010  15.712  10.259
35373W        W 1782   0.805  44.536   2.363
35374W        W 1783   0.835   6.965  12.493
35375W        W 1784  25.500  16.323   0.035
35376W        W 1785  21.636  16.176   1.181
35377W        W 1786  16.441  16.202   4.088
35378W        W 1787  43.484   8.728   3.450
35379W        W 1788   3.961  16.753  12.588
35380W        W 1789  43.037  20.746  14.988
35381W        W 1790  30.857  12.512   3.649
35382W        W 1791  23.149  29.143  14.009
35383W        W 1792   5.153  42.343  14.332
35384W        W 1793   5.456  13.122  14.216
35385W        W 1794  34.445  21.142   3.982
35386W        W 1795  20.539  17.093   0.929
35387W        W 1796  44.058   2.294  12.617
35388W        W 1797   6.251  26.893   0.724
35389W        W 1798  24.764  37.006   3.316
35390W        W 1799  41.977  37.422   1.143
35391W        W 1800  37.092  23.810   4.490
35392W        W 1801  16.853   0.783  14.934
35393W        W 1802  19.478  18.476  11.348
35394W        W 1803  27.757  30.061  11.188
35395W        W 1804  33.521  10.879   0.681
35396W        W 1805  40.213  21.780   5.012
35397W        W 1806  33.425  28.160  13.537
35398W        W 1807  44.762  20.432   2.646
35399W        W 1808  44.279  42.295  12.020
35400W        W 1809  11.072  26.114   3.697
35401W        W 1810   2.517  25.777  13.282
35402W        W 1811  40.626  28.692   4.617
35403W        W 1812  10.825  21.187   1.248
35404W        W 1813  22.462  16.621  14.540
35405W        W 1814  31.518  14.176   3.359
35406W        W 1815  23.161  24.186  11.697
35407W        W 1816  27.097  24.020   3.143
35408W        W 1817  28.166   7.598  11.457
35409W        W 1818   5.860  39.172   2.819
35410W        W 1819  22.590   2.341   2.287
35411W        W 1820  43.059   4.499   0.760
35412W        W 1821  43.524  44.229  12.211
35413W        W 1822  15.867  21.581   2.255
35414W        W 1823  37.070   1.773  10.954
35415W        W 1824  34.535  38.369  14.480
35416W        W 1825  39.451  28.522   0.792
35417W        W 1826   8.644   0.781  10.991
35418W        W 1827  27.661  21.842  12.655
35419W        W 1828  41.549  37.767  11.356
35420W        W 1829   1.075  43.909  11.681
35421W        W 1830  30.304  21.606   1.761
35422W        W 1831  31.958  18.262   0.812
35423W        W 1832  24.254   8.922   2.264
35424W        W 1833   4.407  22.039  12.571
35425W        W 1834  30.361  15.251  10.757
35426W        W 1835  11.018  29.908  11.173
35427W        W 1836  30.691  17.015  13.276
35428W        W 1837  29.607  18.328  10.429
35429W        W 1838  21.676  21.027  14.969
35430W        W 1839  10.561  40.420  14.316
35431W        W 1840  31.148   2.290  10.341
35432W        W 1841  21.354   8.498   2.125
35433W        W 1842  42.232   1.860   2.331
35434W        W 1843  24.041  10.972  12.450
35435W        W 1844   4.712  42.523  13.402
35436W        W 1845   2.863  41.726   2.733
35437W        W 1846  16.361  40.045  12.966
35438W        W 1847   3.217  44.565  13.773
35439W        W 1848  38.847  26.351  12.437
35440W        W 1849  37.670   5.162   0.292
35441W        W 1850  21.166  15.111  10.578
35442W        W 1851  31.053  26.098  10.708
35443W        W 1852  10.855   8.797   2.756
35444W        W 1853   0.917  38.810  13.166
35445W        W 1854  22.975  12.626   2.215
35446W        W 1855   1.928  27.921  13.394
35447W        W 1856  43.245   5.670  11.994
35448W        W 1857  37.500  20.623  12.992
35449W        W 1858  17.226  22.293   1.727
35450W        W 1859  18.127  10.703   3.920
35451W        W 1860  22.661   6.403   3.541
35452W        W 1861   8.120   7.377   4.125
35453W        W 1862  18.669  30.602   4.707
35454W        W 1863  18.110  30.087  10.934
35455W        W 1864  28.171  37.646   2.681
35456W        W 1865   1.466   6.914  12.984
35457W        W 1866  39.963  15.641   2.788
35458W        W 1867  10.681  40.816  10.288
35459W        W 1868   2.761  29.375   0.327
35460W        W 1869  10.200   2.365   4.003
35461W        W 1870  44.729  41.492  11.361
35462W        W 1871   0.991  32.155  13.039
35463W        W 1872  19.757  12.088  14.461
35464W        W 1873  24.660  17.665  12.711
35465W        W 1874   5.352  27.315  12.398
35466W        W 1875  19.340  36.557  12.015
35467W        W 1876  27.663   9.985   5.193
35468W        W 1877  27.489   3.086   3.124
35469W        W 1878  25.240  12.792   4.476
35470W        W 1879   9.560  14.431   1.876
35471W        W 1880  36.660  35.305   4.069
35472W        W 1881  26.326  19.795  11.159
35473W        W 1882  29.400  36.223   0.407
35474W        W 1883  34.033  31.858   4.889
35475W        W 1884  12.163   1.479   1.198
35476W        W 1885  22.329  32.621  11.989
35477W        W 1886  23.070   8.225   0.294
35478W        W 1887   1.977  12.634   1.727
35479W        W 1888  38.918  23.582   0.571
35480W        W 1889  23.764  34.972  10.810
35481W        W 1890   2.880   3.638   1.143
35482W        W 1891  39.408  37.042  11.525
35483W        W 1892  39.041  29.151  14.125
35484W        W 1893  18.805  27.280   4.731
35485W        W 1894   3.341  22.267  14.494
35486W        W 1895  37.305  17.436  11.582
35487W        W 1896  27.708   6.650  10.595
35488W        W 1897   0.331  22.192   4.559
35489W        W 1898  15.518  25.446  13.839
35490W        W 1899  14.901  28.861  12.938
35491W        W 1900  33.410  33.653   0.760
35492W        W 1901  36.928  25.378   3.775
35493W        W 1902  30.045  17.257   1.510
35494W        W 1903   1.950  18.166  11.452
35495W        W 1904   2.476   7.454  11.222
35496W        W 1905   7.075  14.829   4.165
35497W        W 1906  15.329  38.743   5.004
35498W        W 1907  13.130   6.691  11.561
35499W        W 1908  37.933  37.293  12.689
35500W        W 1909  36.554  36.120   1.728
35501W        W 1910  16.941  14.148   0.239
35502W        W 1911  38.779  11.320  13.924
35503W        W 1912  14.469  29.085   4.152
35504W        W 1913  36.659  22.266  13.124
35505W        W 1914  34.184   9.819   2.420
35506W        W 1915   4.721  25.467   2.794
35507W        W 1916  41.421   4.398   0.418
35508W        W 1917  20.442  10.040  11.140
35509W        W 1918   1.167  32.129   0.276
35510W        W 1919   4.677   5.398   0.894
35511W        W 1920   0.319  44.158  11.438
35512W        W 1921  11.380   9.679  13.039
35513W        W 1922   3.738  13.396  13.882
35514W        W 1923  21.200  28.201  13.891
35515W        W 1924  42.735   7.306  10.325
35516W        W 1925  27.204  22.917   4.060
35517W        W 1926   6.372  30.891  14.337
35518W        W 1927   8.284  36.133  13.897
35519W        W 1928  26.294  18.837   0.878
35520W        W 1929  25.925  28.400   3.265
35521W        W 1930  24.331  39.852  12.904
35522W        W 1931  23.509  14.515  11.181
35523W        W 1932  39.430  35.445   2.612
35524W        W 1933  19.348  23.649   3.124
35525W        W 1934  23.994  16.601   0.531
35526W        W 1935  44.989  27.927   2.785
35527W        W 1936  29.669  23.745  11.521
35528W        W 1937   5.356   6.940   1.794
35529W        W 1938  16.293  43.613   1.881
35530W        W 1939  44.080  36.735  11.635
35531W        W 1940   1.300  22.322  13.990
35532W        W 1941   1.798  11.075   1.870
35533W        W 1942   9.107  43.321   1.714
35534W        W 1943  15.280   1.390   2.602
35535W        W 1944  34.000  16.190   1.229
35536W        W 1945   9.353   2.760   2.375
35537W        W 1946  15.818  12.090   2.762
35538W        W 1947  12.501  23.535   1.837
35539W        W 1948  41.353  19.767   2.270
35540W        W 1949  26.258  11.651   1.214
35541W        W 1950  44.425  24.693   0.483
35542W        W 1951  13.349   2.393  11.589
35543W        W 1952  12.367  28.031   0.487
35544W        W 1953  19.276  41.224  12.099
35545W        W 1954  25.581   3.315  11.117
35546W        W 1955  37.959  16.371   0.180
35547W        W 1956   2.521  10.107  10.778
35548W        W 1957  15.658   5.874  10.651
35549W        W 1958  10.262  44.747  14.310
35550W        W 1959  41.104  17.255   4.076
35551W        W 1960  32.367  12.902   0.026
35552W        W 1961  22.766  13.096   1.800
35553W        W 1962  21.866  15.611   9.960
35554W        W 1963  37.777   9.646   4.095
35555W        W 1964   4.326  22.287  14.380
35556W        W 1965  30.033  31.050  12.600
35557W        W 1966   1.784  18.798   0.300
35558W        W 1967  42.329   7.162   2.874
35559W        W 1968  39.854  34.446  14.311
35560W        W 1969  44.695   7.005   0.202
35561W        W 1970  42.571  26.089  14.854
35562W        W 1971  25.998   9.358   2.866
35563W        W 1972  13.437  25.677   2.965
35564W        W 1973  36.461  10.337   3.761
35565W        W 1974  36.778  18.618  13.762
35566W        W 1975  44.791  10.153   2.125
35567W        W 1976  43.877  39.870  12.596
35568W        W 1977  37.050   9.165  12.549
35569W        W 1978  23.154  28.676  11.677
35570W        W 1979  32.087  15.390   2.672
35571W        W 1980  15.620  39.382  12.140
35572W        W 1981  25.500  24.291   4.169
35573W        W 1982  31.006  11.207   2.964
35574W        W 1983  22.071  29.505   0.850
35575W        W 1984  31.891   3.820  14.242
35576W        W 1985  10.560  38.919  11.544
35577W        W 1986  27.560  22.356  12.712
35578W        W 1987   2.819  33.106   0.925
35579W        W 1988  25.235  41.573  13.058
35580W        W 1989   3.388  43.996  11.549
35581W        W 1990  12.101  41.524  12.391
35582W        W 1991  24.054  15.596   2.111
35583W        W 1992  23.140  36.632  13.965
35584W        W 1993   5.268  43.389   0.232
35585W        W 1994  28.088   1.459   0.855
35586W        W 1995  32.591  22.733  14.347
35587W        W 1996  22.009  40.643  12.259
35588W        W 1997   5.268  31.622  10.690
35589W        W 1998  19.848  28.696  13.963
35590W        W 1999   6.370   2.746   2.657
35591W        W 2000  29.906  44.521  14.432
35592W        W 2001  32.380  35.900  14.390
35593W        W 2002  31.694  34.337  14.730
35594W        W 2003  21.494  33.825  14.729
35595W        W 2004  21.317  29.501   1.269
35596W        W 2005  14.616   6.748   0.780
35597W        W 2006   6.010  15.695  12.822
35598W        W 2007  32.457  14.878   1.914
35599W        W 2008  44.257  16.897   3.205
35600W        W 2009  31.995  36.552   2.231
35601W        W 2010  12.326   9.392  11.286
35602W        W 2011  24.081  41.537  12.541
35603W        W 2012  39.920  44.959  13.805
35604W        W 2013  40.875  12.583  13.862
35605W        W 2014   1.922   1.811  14.473
35606W        W 2015  26.055  10.348   3.720
35607W        W 2016  27.524   6.881  11.946
35608W        W 2017  21.075  20.670  14.224
35609W        W 2018  27.231  10.784  12.476
35610W        W 2019  37.770  10.109  12.053
35611W        W 2020   9.148   7.158  11.159
35612W        W 2021  40.364  34.650   3.474
35613W        W 2022   9.665  27.555   0.954
35614W        W 2023  32.000   2.548  13.272
35615W        W 2024  25.128   1.897  12.125
35616W        W 2025   5.713   2.783  11.360
35617W        W 2026  36.540  28.512   1.720
35618W        W 2027  23.398  35.363  12.572
35619W        W 2028  32.280  23.271   1.351
35620W        W 2029  43.390  19.103  12.507
35621W        W 2030  40.671  39.986  11.684
35622W        W 2031  25.237  19.665   1.164
35623W        W 2032  14.823  24.989  10.422
35624W        W 2033  35.271  42.487   2.827
35625W        W 2034   0.813  10.973  12.848
35626W        W 2035  26.960  21.470   5.477
35627W        W 2036  32.302  33.148   2.538
35628W        W 2037   9.671   4.838   0.157
35629W        W 2038  11.757  37.380   5.036
35630W        W 2039  20.692  14.095   4.063
35631W        W 2040  24.132  39.043  14.501
35632W        W 2041  39.917   4.454  14.864
35633W        W 2042  28.483  18.120   2.661
35634W        W 2043  26.141  36.960   1.673
35635W        W 2044   4.823  27.389  12.565
35636W        W 2045  30.099  29.975   2.936
35637W        W 2046  26.430  18.837   2.269
35638W        W 2047  23.206  17.663  11.209
35639W        W 2048  14.984  19.551  13.766
35640W        W 2049  42.881  29.984   3.020
35641W        W 2050  40.439  18.654  10.337
35642W        W 2051  43.028  14.770   1.316
35643W        W 2052  37.958  34.082   4.630
35644W        W 2053   5.946  14.776  14.325
35645W        W 2054  39.876  29.211   0.931
35646W        W 2055  19.322  30.945   0.373
35647W        W 2056  43.527  19.238  13.125
35648W        W 2057  31.128  36.732   4.229
35649W        W 2058  10.015  24.511   4.345
35650W        W 2059  41.821  23.111   2.860
35651W        W 2060  43.550   8.290   1.233
35652W        W 2061  16.275  19.349   0.913
35653W        W 2062  37.941  44.595   1.472
35654W        W 2063   6.362  31.982   2.043
35655W        W 2064  43.698   1.410  12.247
35656W        W 2065  17.214   5.958   2.814
35657W        W 2066   1.267  29.468   4.232
35658W        W 2067  32.813  36.989   4.544
35659W        W 2068  17.345  40.011   4.295
35660W        W 2069  18.033   8.721   4.095
35661W        W 2070   2.816  23.258   3.430
35662W        W 2071   7.078   5.318  12.262
35663W        W 2072  22.967  37.524   4.619
35664W        W 2073   4.835  39.234  14.021
35665W        W 2074  20.642   7.071   2.746
35666W        W 2075  19.574  33.987  11.980
35667W        W 2076  34.658  29.634  10.267
35668W        W 2077  27.166  40.478  14.827
35669W        W 2078  10.197  44.445  10.330
35670W        W 2079  13.349  30.048  10.518
35671W        W 2080  11.093  22.160   1.947
35672W        W 2081  22.798   2.299   4.262
35673W        W 2082  20.798  14.611  12.500
35674W        W 2083  37.150  15.076  13.035
35675W        W 2084  43.826  29.198  13.442
35676W        W 2085  34.056  17.348  12.455
35677W        W 2086   5.371  42.459  14.806
35678W        W 2087  35.534  38.905  12.363
35679W        W 2088   7.044  31.480   0.892
35680W        W 2089  33.338  36.908   2.835
35681W        W 2090  20.164  27.669   1.196
35682W        W 2091   1.283   9.815   4.986
35683W        W 2092  32.130  20.500  11.624
35684W        W 2093  31.185  19.082  13.862
35685W        W 2094  36.473  43.344   1.653
35686W        W 2095   0.257  22.250  14.449
35687W        W 2096   3.249   2.003  12.713
35688W        W 2097  36.928   3.539  13.232
35689W        W 2098  29.649  31.857  12.487
35690W        W 2099   2.838  10.952   0.667
35691W        W 2100  26.273  20.749  14.824
35692W        W 2101  24.617  16.994  14.627
35693W        W 2102  17.710  26.600  10.600
35694W        W 2103  18.185   7.818  13.562
35695W        W 2104  16.651   6.120  14.417
35696W        W 2105  27.766   9.779   2.824
35697W        W 2106  26.708  21.713  10.629
35698W        W 2107  39.046   8.285   2.296
35699W        W 2108  14.336  34.056   3.104
35700W        W 2109  12.711   9.724  11.276
35701W        W 2110   7.660   9.724  10.666
35702W        W 2111   3.716  28.452   1.288
35703W        W 2112  34.664  36.821  14.379
35704W        W 2113  14.208  30.433   0.326
35705W        W 2114  12.137   4.750   0.421
35706W        W 2115  41.418   1.369   4.334
35707W        W 2116  30.810  19.270   1.687
35708W        W 2117   5.753  23.154  11.193
35709W        W 2118   5.667  15.637  10.742
35710W        W 2119  20.340  32.556   4.698
35711W        W 2120  43.421  22.526   2.922
35712W        W 2121  15.612  20.629  13.919
35713W        W 2122  19.361  13.446   0.427
35714W        W 2123   3.629  17.106  11.776
35715W        W 2124  35.125   6.121  11.643
35716W        W 2125  22.576  36.350   2.900
35717W        W 2126   0.479  28.586   1.868
35718W        W 2127   5.501  26.192  14.912
35719W        W 2128   4.046  25.598   4.123
35720W        W 2129  20.628  34.827   2.125
35721W        W 2130   4.258  34.378  14.925
35722W        W 2131  22.727  44.440  11.651
35723W        W 2132  21.683  39.602  13.745
35724W        W 2133  31.982  31.759  13.155
35725W        W 2134   8.954  38.437  10.529
35726W        W 2135  16.947   4.893  12.560
35727W        W 2136   8.288  42.744   1.908
35728W        W 2137  22.659  44.663   1.071
35729W        W 2138  10.782  43.438  12.111
35730W        W 2139  15.895  35.163   3.120
35731W        W 2140  33.659   9.836  11.942
35732W        W 2141   2.690  38.061   3.436
35733W        W 2142   8.092  42.949  11.538
35734W        W 2143  40.065  39.874  10.692
35735W        W 2144  27.666  10.405   4.149
35736W        W 2145  24.115  39.069  11.472
35737W        W 2146  18.397  31.307  11.172
35738W        W 2147   5.254  23.529  14.795
35739W        W 2148  35.686  30.887  11.681
35740W        W 2149   9.262  16.050   1.374
35741W        W 2150  11.732  17.511  11.026
35742W        W 2151  26.403  37.248  10.812
35743W        W 2152  13.312   1.542  11.165
35744W        W 2153  35.516  31.613  14.230
35745W        W 2154  41.771  41.460   2.897
35746W        W 2155  15.363  27.219   4.218
35747W        W 2156  20.128  26.369   2.446
35748W        W 2157  26.007  26.107  10.239
35749W        W 2158   8.834   3.760  11.226
35750W        W 2159  27.511  39.922   4.862
35751W        W 2160   4.445   0.774   0.430
35752W        W 2161   6.837   6.090   3.217
35753W        W 2162  21.747  19.461   0.247
35754W        W 2163   5.719  33.892   2.776
35755W        W 2164  13.935   2.074   1.320
35756W        W 2165  16.700   2.262   3.426
35757W        W 2166  29.175  26.586   4.655
35758W        W 2167  39.755  32.106   4.133
35759W        W 2168  23.038  14.842   2.367
35760W        W 2169  17.698  12.930   3.139
35761W        W 2170  36.080  25.141   2.269
35762W        W 2171  42.483  30.204  11.815
35763W        W 2172  19.667  44.930  11.511
35764W        W 2173   2.024  40.634  13.966
35765W        W 2174  31.917  22.687   5.021
35766W        W 2175  27.220  36.359  10.732
35767W        W 2176  36.840  27.429   2.901
35768W        W 2177  16.038  30.528  10.459
35769W        W 2178  23.043  33.534  10.713
35770W        W 2179  23.447  43.322   4.588
35771W        W 2180  22.809  14.672   3.630
35772W        W 2181  37.309   2.183   1.663
35773W        W 2182  18.787  42.712  14.901
35774W        W 2183  20.377  15.580   2.717
35775W        W 2184  21.730  10.945  13.817
35776W        W 2185  25.206  25.977  12.127
35777W        W 2186  32.641  12.295  12.120
35778W        W 2187  24.988  17.718  14.321
35779W        W 2188  12.164  20.838   3.094
35780W        W 2189  22.483  31.410  12.085
35781W        W 2190  13.144  37.416   0.719
35782W        W 2191  44.491  15.824   3.147
35783W        W 2192   2.778  39.485   1.130
35784W        W 2193  40.549  15.370   2.779
35785W        W 2194   8.774  43.498  13.269
35786W        W 2195  35.645  41.221  14.092
35787W        W 2196   0.847  15.498  10.651
35788W        W 2197  30.680  13.623  13.381
35789W        W 2198  29.370  26.712   4.177
35790W        W 2199  14.045  28.574  14.780
35791W        W 2200  41.768  18.978   3.720
35792W        W 2201  25.342   3.585  14.623
35793W        W 2202   2.400  34.689   2.723
35794W        W 2203  42.358  10.417   3.139
35795W        W 2204  12.394  17.166  11.903
35796W        W 2205  39.825  19.225  13.438
35797W        W 2206   6.289  32.149   3.055
35798W        W 2207  14.857  35.898   4.197
35799W        W 2208  12.164  29.459   2.859
35800W        W 2209  20.600  19.335   0.839
35801W        W 2210  41.790  28.845   5.357
35802W        W 2211   4.924   3.049  12.843
35803W        W 2212  13.820  29.080  14.759
35804W        W 2213  17.126  30.574  14.900
35805W        W 2214  37.040   8.590  13.517
35806W        W 2215  33.811  38.070  13.033
35807W        W 2216  16.477  22.216   0.139
35808W        W 2217   0.793   6.840  10.658
35809W        W 2218   6.685   7.268   0.738
35810W        W 2219   4.880  41.905  14.219
35811W        W 2220  23.402  15.598  10.374
35812W        W 2221  31.759  24.234  11.228
35813W        W 2222  35.430   1.212  13.711
35814W        W 2223  30.113  37.560   2.343
35815W        W 2224  34.112  38.582  10.554
35816W        W 2225  36.438  38.229   0.355
35817W        W 2226  35.603   7.225   4.874
35818W        W 2227  41.978  36.908   0.331
35819W        W 2228   3.932  22.445  11.882
35820W        W 2229  37.606  42.393  14.311
35821W        W 2230  10.125  10.130   0.758
35822W        W 2231  18.468  16.822  14.093
35823W        W 2232   1.337  16.109  11.193
35824W        W 2233  37.282   6.195   3.227
35825W        W 2234   6.164   6.407  14.543
35826W        W 2235  23.086  31.440  14.540
35827W        W 2236   5.339  27.702   4.708
35828W        W 2237  20.606  16.361  12.441
35829W        W 2238   8.521  33.119  11.614
35830W        W 2239  14.401  29.968   0.450
35831W        W 2240  12.110   7.185   1.315
35832W        W 2241  38.341  27.696   2.775
35833W        W 2242  32.723   0.842   4.866
35834W        W 2243   7.141  42.913   0.478
35835W        W 2244  26.684  36.618   2.329
35836W        W 2245  23.606  33.945  11.481
35837W        W 2246  26.169  28.150   1.937
35838W        W 2247  26.471  22.035   2.157
35839W        W 2248  12.858  39.474   1.052
35840W        W 2249  31.087  26.394  10.254
35841W        W 2250  13.350  29.545   3.421
35842W        W 2251  10.251  33.558  14.763
35843W        W 2252  43.966  12.336   3.207
35844W        W 2253  31.340  13.900  10.771
35845W        W 2254  15.659  44.572  11.619
35846W        W 2255   4.165  41.826   3.250
35847W        W 2256  25.776   2.849  12.604
35848W        W 2257   9.931  18.248   1.279
35849W        W 2258   1.697  25.171  14.318
35850W        W 2259  39.145  13.635   1.569
35851W        W 2260  35.029  36.886   1.408
35852W        W 2261  36.581   5.146   3.736
35853W        W 2262  18.357  13.818   4.097
35854W        W 2263   7.165  19.203  10.808
35855W        W 2264  10.762  24.682   2.928
35856W        W 2265  26.531  18.291   2.200
35857W        W 2266  25.479  23.022   3.642
35858W        W 2267  11.509  15.062  10.615
35859W        W 2268  36.773  37.827   0.505
35860W        W 2269   7.799  44.362  10.764
35861W        W 2270  22.036   4.068   3.676
35862W        W 2271   9.345  14.479  12.711
35863W        W 2272  11.237  25.638   3.669
35864W        W 2273  28.165   0.301   0.374
35865W        W 2274  22.490  15.182   9.960
35866W        W 2275  37.921  44.608  13.069
35867W        W 2276  43.434  29.637   3.774
35868W        W 2277  25.781   2.980   2.464
35869W        W 2278   0.124   7.150  13.637
35870W        W 2279   5.720  28.091   3.620
35871W        W 2280  14.605  32.383  10.720
35872W        W 2281   9.380  31.491   1.176
35873W        W 2282  12.085  29.224  13.334
35874W        W 2283  20.798   7.854  13.814
35875W        W 2284   2.047  40.750   3.854
35876W        W 2285  38.107   0.530  12.503
35877W        W 2286  41.539  35.735   3.137
35878W        W 2287   0.658   5.184   4.400
35879W        W 2288  26.010  29.092  11.415
35880W        W 2289  13.752  21.219   1.777
35881W        W 2290  11.314  36.471   1.467
35882W        W 2291  27.751  44.360  13.606
35883W        W 2292  37.892  20.210   4.191
35884W        W 2293  32.120   2.925  11.860
35885W        W 2294  37.800   0.431  14.074
35886W        W 2295  12.876   2.779  13.965
35887W        W 2296  31.208  22.232  13.459
35888W        W 2297  15.849  31.177   2.750
35889W        W 2298  39.135  40.955  11.845
35890W        W 2299  21.667  20.023   2.177
35891W        W 2300  20.532  40.079   2.385
35892W        W 2301   3.358  34.380  12.933
35893W        W 2302  22.259  12.635   0.312
35894W        W 2303  29.588  14.489   1.010
35895W        W 2304  36.376   1.852   3.260
35896W        W 2305  24.710   2.048  14.825
35897W        W 2306  32.197  42.772  12.117
35898W        W 2307  11.727  25.595   3.376
35899W        W 2308  22.949   3.763  13.361
35900W        W 2309  20.540   1.944  10.682
35901W        W 2310  29.657   8.411   1.319
35902W        W 2311  11.687  18.637  12.418
35903W        W 2312  25.646  14.687  11.572
35904W        W 2313  20.803  25.485   1.242
35905W        W 2314  12.538  11.944  12.859
35906W        W 2315  18.687   5.134  13.881
35907W        W 2316  32.521  11.958   1.153
35908W        W 2317  32.383  32.475  11.950
35909W        W 2318  15.514  26.665  12.064
35910W        W 2319  41.926  35.116  10.834
35911W        W 2320  25.762  43.383  11.976
35912W        W 2321  14.330   1.673  10.043
35913W        W 2322  33.993  44.660   3.775
35914W        W 2323  16.699  16.881   2.720
35915W        W 2324  20.541  39.966   0.964
35916W        W 2325  30.432  36.327   2.614
35917W        W 2326  41.915  24.416   0.799
35918W        W 2327  21.599  13.301   3.641
35919W        W 2328  21.494  42.514   3.228
35920W        W 2329  10.739  34.289   3.257
35921W        W 2330   2.766   7.488  13.138
35922W        W 2331   2.398  26.185   4.150
35923W        W 2332  20.654  34.862   4.645
35924W        W 2333  34.621  39.454  10.658
35925W        W 2334   3.785  18.168  14.446
35926W        W 2335  11.159  38.954   0.824
35927W        W 2336  35.904  38.793   3.977
35928W        W 2337  23.468  41.454  11.192
35929W        W 2338  20.738   1.234  14.330
35930W        W 2339  16.212  23.691  11.130
35931W        W 2340   0.850  42.249  12.175
35932W        W 2341  42.241  21.243  13.909
35933W        W 2342  17.233   4.446  13.804
35934W        W 2343   7.977  36.093   5.044
35935W        W 2344  15.922  44.514   1.286
35936W        W 2345  31.597   0.968  11.514
35937W        W 2346  33.506   9.315   2.777
35938W        W 2347  26.012  40.543   0.364
35939W        W 2348  16.774  22.627  10.751
35940W        W 2349  16.338  17.615   1.356
35941W        W 2350   7.397   3.402   3.648
35942W        W 2351   6.683  15.132  11.346
35943W        W 2352   3.775   3.437   1.680
35944W        W 2353   1.309  19.772   3.205
35945W        W 2354   5.855  17.582  12.550
35946W        W 2355  36.992  37.745  12.069
35947W        W 2356  17.943  13.800  10.802
35948W        W 2357  39.080  17.684   1.661
35949W        W 2358  12.843  41.099   3.658
35950W        W 2359  33.988  30.939  12.361
35951W        W 2360   1.379  36.954   1.460
35952W        W 2361  33.428  13.356  14.837
35953W        W 2362  38.999  19.532  13.341
35954W        W 2363  29.311  16.931   4.253
35955W        W 2364  25.455  23.181   2.742
35956W        W 2365  31.116  40.860  11.242
35957W        W 2366  31.879   8.639  13.913
35958W        W 2367  37.485  40.855   1.183
35959W        W 2368  10.987  43.798   3.607
35960W        W 2369  37.862  24.985   1.978
35961W        W 2370   8.769   0.331  10.711
35962W        W 2371  34.891  16.506  12.990
35963W        W 2372  16.148   7.457  13.407
35964W        W 2373  15.091  34.966   1.206
35965W        W 2374  38.390   3.182  10.946
35966W        W 2375  32.540   0.579   4.465
35967W        W 2376   7.624  32.253   4.489
35968W        W 2377  43.027  11.747  11.063
35969W        W 2378   0.415  36.352  11.198
35970W        W 2379  15.566   6.298   3.699
35971W        W 2380  39.736  20.547  11.837
35972W        W 2381  40.007   2.013   1.832
35973W        W 2382  25.669  36.172  11.469
35974W        W 2383  31.829  35.930  12.600
35975W        W 2384  17.134   7.287   4.460
35976W        W 2385  35.076  23.703  10.171
35977W        W 2386  14.351  21.301  13.040
35978W        W 2387  11.594  10.419   3.953
35979W        W 2388  26.338   8.675  12.764
35980W        W 2389  39.501   7.270  12.016
35981W        W 2390  19.981  21.190   2.750
35982W        W 2391  19.149  30.616   2.810
35983W        W 2392  43.713  44.424   4.363
35984W        W 2393   3.191  29.631   4.955
35985W        W 2394  42.902   2.282  14.227
35986W        W 2395   7.569   0.751   4.633
35987W        W 2396  25.463  16.220   1.824
35988W        W 2397  37.543   4.888  14.792
35989W        W 2398  40.142  20.265   9.915
35990W        W 2399  34.824  21.105   3.230
35991W        W 2400  26.059  30.948   2.362
35992W        W 2401   6.281   6.766   3.255
35993W        W 2402  34.262  33.374  11.510
35994W        W 2403  18.223  15.032  10.786
35995W        W 2404  21.442  28.965   4.452
35996W        W 2405  34.674  33.673  11.931
35997W        W 2406  25.222  43.064   4.543
35998W        W 2407  38.311  20.946   0.307
35999W        W 2408  15.426  41.431  14.357
36000W        W 2409   4.699  18.318   1.570
36001W        W 2410   5.129   1.599  12.004
36002W        W 2411  17.832  24.375   3.936
36003W        W 2412  10.094  16.800  13.788
36004W        W 2413   2.854   0.233   0.826
36005W        W 2414  25.466  39.159  10.031
36006W        W 2415  42.282   5.818   1.841
36007W        W 2416  40.838  29.428  13.309
36008W        W 2417  44.800  15.517  14.286
36009W        W 2418   1.951  18.601   0.759
36010W        W 2419  16.362  22.247   0.640
36011W        W 2420  30.840   0.021   1.793
36012W        W 2421  13.643  35.483   4.041
36013W        W 2422   6.815  22.064   3.547
36014W        W 2423  16.264  16.408  12.016
36015W        W 2424  21.250  31.181   0.515
36016W        W 2425   7.951  10.325   4.118
36017W        W 2426  20.112  14.141  13.310
36018W        W 2427  17.628  26.051  12.507
36019W        W 2428  12.887  23.139   2.780
36020W        W 2429  14.722  35.968  11.609
36021W        W 2430  21.000  20.092  10.468
36022W        W 2431  12.930  14.465  13.478
36023W        W 2432  37.993  42.066  13.186
36024W        W 2433  25.592   0.793  10.418
36025W        W 2434  25.986  26.709  13.673
36026W        W 2435   5.442  35.643   2.992
36027W        W 2436  30.376  16.198  12.402
36028W        W 2437  29.623  32.120   1.674
36029W        W 2438  22.656  28.888   4.015
36030W        W 2439  11.309  41.227  13.561
36031W        W 2440  23.734  29.521  11.172
36032W        W 2441  41.481  13.218  14.103
36033W        W 2442   0.481   4.953   3.843
36034W        W 2443  36.073  19.676   3.454
36035W        W 2444  34.066   1.396   4.550
36036W        W 2445  24.110  24.859   0.813
36037W        W 2446  19.318  24.573  13.960
36038W        W 2447  22.647  30.623   1.378
36039W        W 2448   6.748  36.337  14.160
36040W        W 2449  44.212   4.386   0.311
36041W        W 2450   0.464  25.489   0.733
36042W        W 2451  16.276   4.972  11.178
36043W        W 2452  10.333  32.797   5.000
36044W        W 2453  41.820   2.732   2.313
36045W        W 2454  42.495   7.479   9.884
36046W        W 2455  18.967  41.917   2.862
36047W        W 2456  43.773  18.542   0.836
36048W        W 2457  20.978  23.146   1.335
36049W        W 2458  13.546   3.768  11.412
36050W        W 2459   9.830  38.329   3.610
36051W        W 2460  44.440  30.536  12.600
36052W        W 2461  41.205  14.230  11.114
36053W        W 2462   3.327  14.178   0.345
36054W        W 2463  39.283   9.786  13.748
36055W        W 2464   1.970  30.514  10.510
36056W        W 2465  40.635  30.392   1.001
36057W        W 2466  16.328  28.563  14.419
36058W        W 2467   8.974   6.697  14.399
36059W        W 2468  28.478  29.439   3.993
36060W        W 2469  21.661  23.005   3.466
36061W        W 2470  26.907  21.246  10.757
36062W        W 2471  38.688  39.636  12.955
36063W        W 2472   5.878  12.292  12.431
36064W        W 2473  19.301  17.227   0.264
36065W        W 2474   0.671  22.548   1.363
36066W        W 2475  26.748  12.562   3.715
36067W        W 2476   7.176  23.564  14.069
36068W        W 2477  23.176   6.980  14.785
36069W        W 2478  22.769  30.540  13.057
36070W        W 2479  29.688  30.590   1.320
36071W        W 2480   6.237   4.745   5.119
36072W        W 2481   4.488  10.902  13.439
36073W        W 2482  27.383  19.237   1.766
36074W        W 2483  22.597  16.240  13.667
36075W        W 2484  20.647   7.154   1.264
36076W        W 2485  17.980  36.584  14.984
36077W        W 2486   3.193  38.779  12.879
36078W        W 2487  18.224  20.593   4.939
36079W        W 2488  30.882   6.317   1.334
36080W        W 2489  40.302  18.719   3.558
36081W        W 2490   0.469  17.116   0.308
36082W        W 2491  23.140  18.396   4.010
36083W        W 2492  18.090  15.265   4.149
36084W        W 2493   6.161  37.372  14.684
36085W        W 2494  26.196  44.343   1.531
36086W        W 2495   9.272  21.054   3.569
36087W        W 2496  39.529  44.328   0.307
36088W        W 2497   5.205  17.739   3.667
36089W        W 2498  20.080  18.778   1.489
36090W        W 2499  28.078  32.669  10.625
36091W        W 2500  39.993   3.312   3.775
36092W        W 2501  25.877  27.185  11.505
36093W        W 2502   3.768  39.387  10.524
36094W        W 2503  20.980  21.616   3.906
36095W        W 2504  28.228  23.986  12.519
36096W        W 2505  40.504   3.189   3.788
36097W        W 2506  30.621  16.630   1.302
36098W        W 2507  36.835   2.315  10.552
36099W        W 2508  17.654  42.242   3.980
36100W        W 2509   0.355   3.174  14.308
36101W        W 2510  21.262   4.481  14.804
36102W        W 2511  19.999  21.452  12.413
36103W        W 2512  30.514  20.956   1.233
36104W        W 2513  35.040  23.811  14.265
36105W        W 2514  43.847  22.279   2.786
36106W        W 2515  42.191  43.434  12.017
36107W        W 2516  10.298  16.634  10.709
36108W        W 2517  23.074  20.596  13.551
36109W        W 2518  37.694   3.012   1.263
36110W        W 2519  27.043  41.890  11.833
36111W        W 2520  37.813  28.889   2.833
36112W        W 2521  30.097  10.926  10.613
36113W        W 2522  34.932  44.558   0.495
36114W        W 2523   7.289   9.028  14.151
36115W        W 2524   9.416  32.619  12.049
36116W        W 2525   1.846   8.940   3.575
36117W        W 2526  13.241  20.232  14.251
36118W        W 2527  41.351  20.561  10.671
36119W        W 2528  42.291  16.091   0.581
36120W        W 2529  43.315  13.321  12.441
36121W        W 2530  18.273  37.581   0.940
36122W        W 2531  42.904  12.376  12.661
36123W        W 2532   8.210  18.699  14.457
36124W        W 2533  42.074   4.383   2.745
36125W        W 2534  41.375  19.117   3.327
36126W        W 2535  17.244   9.714   4.307
36127W        W 2536   8.999  27.952  13.971
36128W        W 2537   4.270  37.567  14.391
36129W        W 2538  40.944   4.615   2.036
36130W        W 2539  39.589  12.218   2.746
36131W        W 2540   9.340  40.856   3.080
36132W        W 2541  35.615  36.719  11.660
36133W        W 2542  29.956  42.574  11.993
36134W        W 2543  28.422  17.744   4.578
36135W        W 2544   9.436  44.684   0.301
36136W        W 2545   3.892  40.957  12.899
36137W        W 2546  35.063  35.553  14.406
36138W        W 2547  35.006  24.461  11.061
36139W        W 2548  30.682   6.474  10.043
36140W        W 2549  29.798  15.826   1.163
36141W        W 2550  21.458  27.590  13.895
36142W        W 2551  41.357  33.812   0.852
36143W        W 2552   0.485  15.588   0.008
36144W        W 2553  24.186  13.596  14.969
36145W        W 2554   0.839  10.120   0.990
36146W        W 2555  26.654  23.585  10.771
36147W        W 2556  16.362  22.110   3.648
36148W        W 2557  30.492  10.669   2.140
36149W        W 2558  33.974  36.153   4.264
36150W        W 2559  12.943  21.178   4.591
36151W        W 2560  17.041  39.038   2.745
36152W        W 2561  32.583   0.805  11.650
36153W        W 2562   6.993  11.110  11.967
36154W        W 2563   1.306  18.509  14.382
36155W        W 2564  37.903  22.622  14.749
36156W        W 2565  44.915  37.533   4.756
36157W        W 2566  11.634  10.443   3.073
36158W        W 2567   5.645  42.925  12.857
36159W        W 2568   2.543   0.400   1.268
36160W        W 2569  12.198  30.516  14.272
36161W        W 2570  20.190  25.315   4.058
36162W        W 2571   8.330  29.092  13.098
36163W        W 2572  16.261  35.422  14.781
36164W        W 2573  25.418  36.409   0.366
36165W        W 2574  20.557  36.539  11.678
36166W        W 2575  27.657  19.300  11.848
36167W        W 2576  37.499   5.716  11.615
36168W        W 2577  37.728  33.629   3.743
36169W        W 2578  35.598  38.786   0.428
36170W        W 2579  44.406  39.745   1.319
36171W        W 2580   9.714   7.604   1.813
36172W        W 2581   7.893   1.741   2.403
36173W        W 2582  16.095   8.416   0.196
36174W        W 2583  24.459  39.541  13.363
36175W        W 2584  43.617  23.861  12.118
36176W        W 2585  36.713   4.299   4.274
36177W        W 2586   4.143   1.321  14.795
36178W        W 2587  34.907  41.494   1.798
36179W        W 2588  43.860  29.106  10.785
36180W        W 2589   0.811  15.488   2.942
36181W        W 2590  32.915  36.052  12.374
36182W        W 2591  32.906  31.122   1.866
36183W        W 2592  19.695  15.213   1.226
36184W        W 2593  41.048  16.434  10.742
36185W        W 2594  40.361  38.601   0.362
36186W        W 2595  43.588  18.263   1.703
36187W        W 2596  39.911  13.769  13.391
36188W        W 2597  12.495  27.829  11.318
36189W        W 2598  33.525  21.045   1.258
36190W        W 2599  44.008  31.149  13.467
36191W        W 2600  12.107  10.923   1.722
36192W        W 2601  36.940   2.797   2.303
36193W        W 2602   9.480  36.842  12.055
36194W        W 2603  21.853  11.941  13.847
36195W        W 2604  27.565  18.077   0.805
36196W        W 2605  28.955  39.607   0.815
36197W        W 2606  22.826   6.218  11.548
36198W        W 2607  38.525  28.448   4.549
36199W        W 2608  13.108  26.734   4.048
36200W        W 2609  35.488   5.198  10.657
36201W        W 2610   4.641  24.175   9.958
36202W        W 2611  10.331   7.416   2.661
36203W        W 2612  10.412  10.414   3.288
36204W        W 2613  22.739  40.350   5.258
36205W        W 2614  38.168  34.005  13.915
36206W        W 2615   6.139  37.723   5.075
36207W        W 2616  37.637   9.922   3.660
36208W        W 2617  41.841  38.051  12.050
36209W        W 2618  16.487  15.883  14.076
36210W        W 2619  24.190   3.047  14.832
36211W        W 2620  22.302  36.417   1.093
36212W        W 2621  42.441  21.776  10.890
36213W        W 2622  12.575  41.542   3.575
36214W        W 2623  24.228  32.408   3.120
36215W        W 2624  31.065   3.196   3.236
36216W        W 2625  28.362  27.620  12.422
36217W        W 2626  37.883  42.076   0.408
36218W        W 2627  10.302  41.302  12.953
36219W        W 2628  31.184  29.126   3.777
36220W        W 2629   0.400  12.872  12.202
36221W        W 2630  36.567  21.904   2.281
36222W        W 2631  42.816  29.126  13.416
36223W        W 2632  21.518  35.785   0.629
36224W        W 2633  41.365  40.006   1.810
36225W        W 2634  29.522  30.634   3.203
36226W        W 2635  20.217  29.095  12.141
36227W        W 2636  38.927  16.772  10.579
36228W        W 2637  10.915   6.609   2.145
36229W        W 2638  12.741  11.267   2.275
36230W        W 2639  20.767  42.503  13.350
36231W        W 2640  34.334  36.385   0.264
36232W        W 2641  12.928  25.609   2.834
36233W        W 2642   6.412  40.858  14.481
36234W        W 2643  40.508  16.416  11.200
36235W        W 2644  37.950  38.526  11.576
36236W        W 2645   5.511  21.665   4.784
36237W        W 2646  16.825  31.550  13.364
36238W        W 2647   4.876  34.212  12.924
36239W        W 2648  30.971  37.017   3.356
36240W        W 2649  40.820  43.966  10.456
36241W        W 2650  32.560  44.100  14.525
36242W        W 2651   8.734  18.861  11.187
36243W        W 2652  31.017  28.652  13.538
36244W        W 2653  32.273  35.529  10.972
36245W        W 2654   0.009  27.344  11.813
36246W        W 2655  36.813  18.390   3.742
36247W        W 2656  34.597  30.580   1.305
36248W        W 2657  43.319  43.279  14.453
36249W        W 2658   8.811  22.467  11.079
36250W        W 2659  26.975   7.620  10.457
36251W        W 2660  34.894  36.371  12.470
36252W        W 2661  13.121  16.791   3.611
36253W        W 2662   8.102  23.645   0.721
36254W        W 2663   8.945   4.626  11.630
36255W        W 2664  21.611  27.677  11.607
36256W        W 2665  37.875  35.029  11.170
36257W        W 2666  21.099  34.057   1.944
36258W        W 2667  38.560  15.529   4.168
36259W        W 2668  27.600  41.043  10.630
36260W        W 2669  31.469  41.051  12.526
36261W        W 2670   3.798   0.998   4.116
36262W        W 2671  22.532  18.169   1.409
36263W        W 2672  12.074  36.077   1.793
36264W        W 2673  41.312  37.168  14.874
36265W        W 2674  29.386  35.298  14.717
36266W        W 2675  14.891  41.542  11.104
36267W        W 2676  24.989  37.438  10.198
36268W        W 2677  43.659  19.477  11.464
36269W        W 2678   1.615  43.006  12.017
36270W        W 2679  37.093  13.627   4.615
36271W        W 2680   8.588  17.243   4.147
36272W        W 2681   0.667  27.953  14.375
36273W        W 2682  41.007  35.924  12.104
36274W        W 2683  23.543  40.003   3.229
36275W        W 2684  34.019  38.892   2.431
36276W        W 2685   1.333  30.739  12.662
36277W        W 2686  15.141  37.094  14.419
36278W        W 2687  30.344  32.921   2.330
36279W        W 2688  39.989  14.224  12.054
36280W        W 2689  19.785  19.989   2.544
36281W        W 2690  43.291  31.833  11.827
36282W        W 2691  22.388  41.783  14.779
36283W        W 2692  39.684  28.045  13.082
36284W        W 2693  43.528   8.251   4.600
36285W        W 2694   3.278  26.549  10.917
36286W        W 2695  36.609  12.748   0.757
36287W        W 2696  12.784  37.473  12.947
36288W        W 2697  43.482  37.808  12.426
36289W        W 2698   9.177   8.422  12.378
36290W        W 2699   4.219  23.726  11.583
36291W        W 2700   9.965  11.786   5.039
36292W        W 2701   6.435  33.426  14.884
36293W        W 2702  11.957  42.251   2.578
36294W        W 2703  29.873  16.738  10.650
36295W        W 2704   4.647  28.195   0.941
36296W        W 2705   3.899  21.941  11.870
36297W        W 2706  42.423   0.963   2.223
36298W        W 2707  14.211  36.500  13.020
36299W        W 2708  39.812   1.941   3.711
36300W        W 2709  31.624  22.682  14.633
36301W        W 2710  17.628  42.652   0.309
36302W        W 2711   7.716   7.991   3.422
36303W        W 2712  11.914  30.518   1.321
36304W        W 2713  11.750  29.661   4.134
36305W        W 2714  41.419  13.398  13.105
36306W        W 2715  25.743  35.527  11.151
36307W        W 2716   9.141  42.762  13.414
36308W        W 2717   9.709  19.492  13.329
36309W        W 2718  18.064  39.428   3.227
36310W        W 2719  41.439  22.899  14.270
36311W        W 2720   1.324   8.185   3.631
36312W        W 2721  19.146  42.376  10.779
36313W        W 2722  23.803   4.873  10.577
36314W        W 2723   5.960  25.896   0.810
36315W        W 2724  21.319  37.059   3.844
36316W        W 2725  10.586  14.574  13.630
36317W        W 2726  19.291  39.609  11.163
36318W        W 2727  40.857  41.343   2.974
36319W        W 2728  20.137  34.093   2.334
36320W        W 2729  29.043  32.428   2.927
36321W        W 2730  36.180  19.834  14.889
36322W        W 2731   2.335  31.185  14.781
36323W        W 2732   0.549   3.696   2.673
36324W        W 2733  20.099  28.198   1.196
36325W        W 2734  31.579  17.762  14.981
36326W        W 2735  30.570  25.718   3.953
36327W        W 2736  44.887  44.655   3.869
36328W        W 2737   8.255  15.342   0.776
36329W        W 2738  22.104   4.726   4.841
36330W        W 2739  38.930  44.790   2.845
36331W        W 2740  21.801  16.834  14.767
36332W        W 2741  37.398  10.840  12.553
36333W        W 2742  40.490  13.692   1.221
36334W        W 2743  24.452  12.812   0.096
36335W        W 2744  43.869  38.229   2.968
36336W        W 2745   9.622  16.165  13.454
36337W        W 2746  12.701  36.629   3.680
36338W        W 2747  34.525  28.396   3.668
36339W        W 2748  26.447  36.160   2.210
36340W        W 2749  31.895  10.311  11.984
36341W        W 2750  10.334  34.023   4.574
36342W        W 2751  34.617  16.764  14.353
36343W        W 2752   6.239   9.199  13.614
36344W        W 2753  39.062  31.727   3.653
36345W        W 2754   2.994  33.012  14.321
36346W        W 2755  39.143   9.182  10.581
36347W        W 2756  14.560  30.931  12.137
36348W        W 2757  30.150   9.759   4.729
36349W        W 2758  16.495  10.824   3.972
36350W        W 2759  30.616  11.435  13.563
36351W        W 2760  33.432  17.073  14.584
36352W        W 2761  26.023  35.955  11.086
36353W        W 2762  38.512  15.078  11.942
36354W        W 2763  24.979  37.030  13.622
36355W        W 2764  10.163  35.140   1.432
36356W        W 2765   2.435  44.976   0.986
36357W        W 2766   5.755  38.895   3.259
36358W        W 2767  24.724  40.100  12.139
36359W        W 2768  37.391  28.499  12.970
36360W        W 2769  11.475  42.980  10.291
36361W        W 2770  27.508  11.489  12.047
36362W        W 2771   7.187  26.943  12.019
36363W        W 2772  39.282  17.789   0.813
36364W        W 2773  30.007  25.032   3.891
36365W        W 2774   8.671  11.278  10.848
36366W        W 2775  18.126   2.717   3.484
36367W        W 2776  31.676  43.703  12.901
36368W        W 2777   6.364  39.878  11.933
36369W        W 2778   5.888  15.440  13.426
36370W        W 2779  15.255  38.610   0.832
36371W        W 2780  32.680  40.891  12.130
36372W        W 2781   8.056  29.921  14.404
36373W        W 2782  37.145  13.695  13.060
36374W        W 2783  37.887  34.082  10.808
36375W        W 2784   1.980  42.065  12.875
36376W        W 2785  20.960  37.811   3.714
36377W        W 2786  41.965   1.469   1.607
36378W        W 2787  12.324  27.542   4.744
36379W        W 2788  26.132   5.719  13.598
36380W        W 2789  38.522  21.291   5.610
36381W        W 2790  32.652  17.291   0.253
36382W        W 2791   1.391   0.377  11.574
36383W        W 2792  32.053  10.130  11.523
36384W        W 2793  39.797  22.156   1.787
36385W        W 2794  30.487   1.334   4.080
36386W        W 2795  39.810  24.309   4.168
36387W        W 2796  24.557  23.488   4.551
36388W        W 2797  34.523  35.959   0.468
36389W        W 2798  33.460   9.071   0.368
36390W        W 2799  41.955  42.508   1.502
36391W        W 2800  23.409  33.854  13.420
36392W        W 2801  35.573  36.415  13.395
36393W        W 2802  37.409   9.029  12.889
36394W        W 2803  40.281  20.835  14.402
36395W        W 2804  28.599  42.976  13.038
36396W        W 2805  31.622   4.872   2.808
36397W        W 2806   4.753  19.692   2.226
36398W        W 2807  19.808  15.214   2.240
36399W        W 2808  29.635  27.984   4.999
36400W        W 2809  38.572  36.039  12.426
36401W        W 2810  32.151   7.762  11.921
36402W        W 2811  44.871  33.304  12.720
36403W        W 2812  37.026  12.149  11.528
36404W        W 2813  32.299  29.112   3.196
36405W        W 2814  24.784  35.910  11.648
36406W        W 2815   5.363  17.089  14.928
36407W        W 2816  25.548  28.648   0.244
36408W        W 2817  34.480   8.238  11.618
36409W        W 2818  42.833  24.485   2.186
36410W        W 2819  43.360  14.698   4.364
36411W        W 2820  24.241  44.726   2.259
36412W        W 2821   2.769  19.706   1.751
36413W        W 2822  27.069   5.224   0.278
36414W        W 2823  36.151  44.219   2.911
36415W        W 2824  25.493  38.026   3.176
36416W        W 2825   0.962  28.536   0.918
36417W        W 2826  27.438  12.766   1.095
36418W        W 2827  22.694  35.597   3.824
36419W        W 2828  30.687  34.522  11.592
36420W        W 2829  25.232   4.735   1.239
36421W        W 2830  32.425  10.312  14.413
36422W        W 2831   7.714  40.602  10.265
36423W        W 2832   7.813  15.152   2.386
36424W        W 2833  22.032  21.487   2.795
36425W        W 2834  20.252   8.590   4.788
36426W        W 2835   3.518  11.668  11.842
36427W        W 2836  10.551  29.952   1.296
36428W        W 2837  12.348  25.689   0.320
36429W        W 2838   2.066  18.570  13.258
36430W        W 2839  36.899   5.741   2.816
36431W        W 2840   2.540  24.192  14.735
36432W        W 2841   7.369  31.419  13.821
36433W        W 2842   8.907  27.956   0.855
36434W        W 2843  13.905  13.365   4.195
36435W        W 2844   7.724  34.901   4.554
36436W        W 2845   3.513  17.855   0.892
36437W        W 2846  25.047  20.337   3.813
36438W        W 2847   7.617  14.693  10.973
36439W        W 2848  40.284  37.834   1.373
36440W        W 2849  36.218   9.760  12.502
36441W        W 2850   8.856   6.775  12.999
36442W        W 2851  37.923  34.546  10.986
36443W        W 2852  34.392  31.629   3.308
36444W        W 2853  29.247  41.864  11.599
36445W        W 2854   0.471  38.889   0.451
36446W        W 2855   7.364  23.069   1.312
36447W        W 2856  30.423  23.158   1.757
36448W        W 2857  20.343  43.074  11.649
36449W        W 2858  19.764  20.618  11.505
36450W        W 2859   0.883  38.336  14.799
36451W        W 2860  15.112  24.120   5.027
36452W        W 2861  11.365  18.793  14.820
36453W        W 2862  20.712   1.787  13.475
36454W        W 2863  21.066  12.570  10.696
36455W        W 2864  12.529  33.420   3.140
36456W        W 2865  39.521   6.740  14.448
36457W        W 2866  39.898  28.943   4.578
36458W        W 2867  26.420   3.182   0.410
36459W        W 2868  19.322  28.198  14.431
36460W        W 2869  40.938  38.379   1.129
36461W        W 2870  38.272  23.532   3.813
36462W        W 2871  27.870  13.713  10.446
36463W        W 2872  42.972  38.885  13.076
36464W        W 2873  30.763   6.847   2.229
36465W        W 2874  14.621  39.556  12.005
36466W        W 2875  27.642   9.890   3.307
36467W        W 2876  36.506   8.421   2.401
36468W        W 2877  21.002  30.461  10.043
36469W        W 2878  18.841  42.991  11.525
36470W        W 2879  31.536  10.492   0.459
36471W        W 2880  27.893  13.958   3.731
36472W        W 2881  41.489  12.353  13.150
36473W        W 2882  40.987  17.468   1.621
36474W        W 2883  26.623   0.224   1.983
36475W        W 2884  25.568   4.886  12.106
36476W        W 2885  38.619  42.712  10.793
36477W        W 2886  44.295   3.411   1.871
36478W        W 2887  15.690   9.413  14.453
36479W        W 2888  25.820  26.113   5.339
36480W        W 2889  32.230  23.578   0.910
36481W        W 2890  11.663  16.818  12.885
36482W        W 2891  23.142  28.247   1.734
36483W        W 2892  10.823  10.412   1.447
36484W        W 2893  21.618  24.139   1.881
36485W        W 2894  22.671  20.274  13.440
36486W        W 2895  16.049  40.021  13.917
36487W        W 2896  15.167  34.668  11.432
36488W        W 2897  32.615  29.657  11.596
36489W        W 2898  15.369  27.695   1.416
36490W        W 2899  31.379  32.544  13.053
36491W        W 2900  23.394   4.180   1.339
36492W        W 2901  17.795  30.625  13.822
36493W        W 2902  31.005  24.430  14.819
36494W        W 2903  18.007  10.233  11.248
36495W        W 2904  31.988  20.600   1.965
36496W        W 2905   0.207   0.733  12.086
36497W        W 2906  19.197  12.825  11.750
36498W        W 2907  38.485  33.717   4.561
36499W        W 2908   5.187  30.668   1.227
36500W        W 2909  19.335  34.855   4.146
36501W        W 2910  21.468   0.197   0.405
36502W        W 2911   4.693  36.593   4.363
36503W        W 2912   7.378   0.500  10.668
36504W        W 2913  27.518  34.932   2.856
36505W        W 2914  12.802   9.165  11.482
36506W        W 2915  10.133  17.817   2.285
36507W        W 2916  18.779   8.620  11.578
36508W        W 2917   8.887  11.275  13.290
36509W        W 2918  30.577  23.006  13.065
36510W        W 2919  11.308  30.225   0.607
36511W        W 2920  13.149  34.623  11.603
36512W        W 2921   1.543   9.146   3.211
36513W        W 2922  30.580   8.589  13.502
36514W        W 2923  25.535   5.147   1.329
36515W        W 2924  10.793  34.081   0.706
36516W        W 2925  40.985  25.106   2.184
36517W        W 2926  10.285  29.149   4.900
36518W        W 2927  43.069   4.846  13.448
36519W        W 2928  14.556  41.264   5.074
36520W        W 2929  35.365  19.323  12.283
36521W        W 2930  39.081  12.141  13.959
36522W        W 2931  44.970  13.403  11.143
36523W        W 2932  39.476  12.309   4.397
36524W        W 2933  19.980   1.349   4.013
36525W        W 2934  11.829  21.297  11.139
36526W        W 2935  33.552  12.425   4.080
36527W        W 2936   9.704  31.813  10.828
36528W        W 2937  41.441  41.463  11.206
36529W        W 2938   4.653  32.892  12.440
36530W        W 2939  29.561   3.887   4.597
36531W        W 2940  13.641  16.106   4.704
36532W        W 2941  35.299  35.017   2.250
36533W        W 2942  17.922  31.920   2.682
36534W        W 2943   3.653  42.411  14.529
36535W        W 2944  24.034  20.254   3.599
36536W        W 2945  14.270   6.772   3.541
36537W        W 2946  14.099  40.876   1.270
36538W        W 2947  14.003   5.751  11.124
36539W        W 2948  34.076  43.059  11.267
36540W        W 2949   8.833  17.294   1.174
36541W        W 2950  26.517   7.698  10.221
36542W        W 2951  30.002   0.670   0.307
36543W        W 2952   2.138  38.372   1.670
36544W        W 2953   0.406  44.802  10.643
36545W        W 2954  32.579  21.768   0.321
36546W        W 2955  44.021   6.841   2.684
36547W        W 2956  11.813  13.850  11.412
36548W        W 2957  15.048   6.674  12.939
36549W        W 2958   1.747  17.513   3.608
36550W        W 2959  42.783  20.176   0.823
36551W        W 2960  36.415   9.809   2.925
36552W        W 2961  37.784  13.885   1.670
36553W        W 2962  41.423  18.151  12.947
36554W        W 2963  42.830  17.063  14.340
36555W        W 2964  20.796  25.145  10.482
36556W        W 2965  41.807  29.116  14.247
36557W        W 2966   7.239  17.165   5.004
36558W        W 2967  12.865  26.193   0.823
36559W        W 2968   8.167  22.327   0.419
36560W        W 2969  29.579  29.453   1.944
36561W        W 2970  31.277  28.678  13.057
36562W        W 2971  21.078  19.772   2.311
36563W        W 2972   2.050  19.992  11.078
36564W        W 2973  43.505  37.528  11.631
36565W        W 2974   3.940  19.853   0.345
36566W        W 2975  11.301  37.844   2.752
36567W        W 2976  40.361   6.803   2.368
36568W        W 2977   8.811   9.809   1.358
36569W        W 2978   4.896  39.109  11.083
36570W        W 2979  17.539  34.160  14.403
36571W        W 2980  41.879  44.062   3.282
36572W        W 2981   4.456  27.545   4.961
36573W        W 2982   8.860  43.889   4.814
36574W        W 2983  10.050  12.852  13.911
36575W        W 2984  32.891  18.576   2.867
36576W        W 2985  19.104   3.785  10.764
36577W        W 2986  21.827  31.457  14.699
36578W        W 2987  15.337  40.380  10.423
36579W        W 2988  18.163  36.935  13.942
36580W        W 2989   9.209   6.165  12.380
36581W        W 2990   4.764  14.735  10.693
36582W        W 2991  25.783   0.360   4.617
36583W        W 2992  26.536  24.801   1.476
36584W        W 2993  13.892   0.350   3.769
36585W        W 2994  12.387  41.844  12.085
36586W        W 2995  25.388   0.788   0.882
36587W        W 2996   9.775  27.178  11.656
36588W        W 2997   5.701   4.214  13.387
36589W        W 2998  16.863  18.111  11.972
36590W        W 2999  37.863  31.531   4.695
36591W        W 3000  13.723  42.869  11.704
36592W        W 3001   4.747  41.772  11.553
36593W        W 3002  20.951  28.152  14.358
36594W        W 3003  10.767  15.736   0.233
36595W        W 3004  35.327   9.712   3.499
36596W        W 3005  37.433  22.717  10.491
36597W        W 3006  17.162  27.458  14.401
36598W        W 3007  17.867  25.107   3.200
36599W        W 3008  18.147  36.484   3.094
36600W        W 3009   0.097  10.383  11.621
36601W        W 3010  13.275  35.338   1.707
36602W        W 3011  38.587  39.520   0.895
36603W        W 3012  37.248  18.200   9.937
36604W        W 3013  29.749   4.668  11.573
36605W        W 3014   0.678  37.391   0.936
36606W        W 3015  21.547   8.778  14.781
36607W        W 3016  40.489  25.242  14.941
36608W        W 3017  33.019  39.921  12.128
36609W        W 3018  35.329  44.265   3.771
36610W        W 3019  31.183  43.849  11.493
36611W        W 3020  12.668  44.358   3.513
36612W        W 3021  35.014  42.055  12.962
36613W        W 3022  20.680  13.711  10.501
36614W        W 3023  35.554   1.773   0.586
36615W        W 3024   3.847  10.584   3.646
36616W        W 3025  21.502  35.908  13.101
36617W        W 3026  35.641  21.636  11.966
36618W        W 3027  42.406  30.402  13.863
36619W        W 3028   4.225   7.541   4.757
36620W        W 3029  18.203  23.056   3.467
36621W        W 3030  12.980   2.269   2.417
36622W        W 3031  11.432  16.366  13.787
36623W        W 3032  35.313  29.627  11.144
36624W        W 3033   5.369  39.410   2.778
36625W        W 3034  27.835  35.507  11.554
36626W        W 3035  37.667  10.418  13.359
36627W        W 3036  16.581  17.796  10.764
36628W        W 3037  26.151  20.808  10.757
36629W        W 3038  34.863   6.046  12.362
36630W        W 3039  12.134  23.684  14.441
36631W        W 3040  36.796  24.535   0.793
36632W        W 3041  31.433  34.412   3.583
36633W        W 3042   6.105  23.659   0.344
36634W        W 3043  44.467  15.634   2.185
36635W        W 3044  20.797  44.928   0.826
36636W        W 3045  44.568  32.637  14.923
36637W        W 3046   2.163  12.023  10.460
36638W        W 3047  18.379  40.173   9.848
36639W        W 3048  14.881  23.037   1.032
36640W        W 3049  13.230  10.318   0.545
36641W        W 3050   9.303   0.890   1.149
36642W        W 3051  17.799  43.446   3.343
36643W        W 3052  42.385   3.269  13.978
36644W        W 3053  10.154  24.539  10.555
36645W        W 3054  30.577  11.791   3.258
36646W        W 3055  29.831  44.747   1.758
36647W        W 3056  19.339  19.726  13.543
36648W        W 3057  11.916  23.037   2.900
36649W        W 3058  10.726  22.231   1.298
36650W        W 3059   7.397  12.260   4.572
36651W        W 3060  12.377  30.030  14.507
36652W        W 3061  16.998  37.132   4.671
36653W        W 3062  26.880  21.049   0.067
36654W        W 3063  19.336  22.499  10.304
36655W        W 3064  28.181  18.124   3.307
36656W        W 3065   7.390  18.297   2.711
36657W        W 3066  44.227   5.301   4.224
36658W        W 3067  35.431   3.427  10.274
36659W        W 3068  41.955  19.240   2.762
36660W        W 3069  23.249  33.327  11.128
36661W        W 3070  36.614  23.969  14.463
36662W        W 3071  14.437  44.939   2.333
36663W        W 3072  39.991  13.061   3.106
36664W        W 3073  21.228  13.093   0.788
36665W        W 3074   9.619  34.414   4.182
36666W        W 3075   6.497  28.468  11.452
36667W        W 3076  35.718  25.574  11.663
36668W        W 3077  40.029  28.859  12.661
36669W        W 3078  12.613  34.516   3.752
36670W        W 3079  14.201  43.978  14.451
36671W        W 3080  35.004  44.787   2.809
36672W        W 3081  35.334  36.137   2.801
36673W        W 3082  36.334  40.014   4.040
36674W        W 3083   0.768  44.964   2.750
36675W        W 3084  12.267  42.979  13.547
36676W        W 3085  33.476   5.719   0.875
36677W        W 3086  21.763   4.655  11.839
36678W        W 3087  43.289  19.673   4.533
36679W        W 3088  29.201  10.385  11.130
36680W        W 3089  28.006  19.849  10.672
36681W        W 3090  18.581  33.592  12.973
36682W        W 3091  30.914   7.030  14.952
36683W        W 3092  39.012  37.016  12.337
36684W        W 3093  26.521   6.408   5.418
36685W        W 3094  23.770  25.007  14.914
36686W        W 3095  29.608  37.424   1.609
36687W        W 3096  39.935  31.440  10.693
36688W        W 3097  25.966  40.076  10.835
36689W        W 3098  30.518  22.290  11.512
36690W        W 3099   4.916  23.714  12.857
36691W        W 3100  34.547   7.588   4.472
36692W        W 3101   1.539  17.070  10.997
36693W        W 3102  33.402   0.838  13.339
36694W        W 3103  20.379  11.641   4.079
36695W        W 3104  12.776  24.689  13.440
36696W        W 3105  13.293  21.037   3.619
36697W        W 3106   8.862  15.790   2.744
36698W        W 3107   9.622  44.986  12.699
36699W        W 3108  29.826  42.901   4.572
36700W        W 3109  31.738  10.524  14.961
36701W        W 3110  15.593  26.172  12.863
36702W        W 3111  41.013   9.020  12.412
36703W        W 3112   8.829  28.472  13.903
36704W        W 3113  30.148  43.611  11.824
36705W        W 3114  27.056   2.847   2.910
36706W        W 3115  15.509  23.936   3.717
36707W        W 3116  26.416   5.334   4.543
36708W        W 3117  35.156   1.438   2.530
36709W        W 3118  40.601  37.445  10.529
36710W        W 3119  25.100   6.414   3.660
36711W        W 3120   4.475  44.573  12.127
36712W        W 3121   7.604  32.541   4.070
36713W        W 3122   2.010  39.797   0.796
36714W        W 3123  35.357  40.765  13.824
36715W        W 3124   7.340  42.945  12.102
36716W        W 3125  14.060  38.570   3.027
36717W        W 3126  36.921  29.496   4.116
36718W        W 3127  15.804  29.907  11.405
36719W        W 3128  36.329  25.473   0.447
36720W        W 3129   1.349  13.777   3.912
36721W        W 3130  32.835  19.690  11.601
36722W        W 3131  36.329   1.830  14.388
36723W        W 3132   3.827   5.176   2.857
36724W        W 3133  40.028  32.045   3.216
36725W        W 3134  26.965  17.584  10.228
36726W        W 3135   6.803   9.654  13.802
36727W        W 3136   1.514  17.984  11.654
36728W        W 3137   5.624  30.986  14.800
36729W        W 3138  36.146  34.923   4.635
36730W        W 3139  20.738   8.930   3.091
36731W        W 3140  13.327  43.984   4.672
36732W        W 3141   8.336  36.705  14.331
36733W        W 3142  37.322  35.132   1.603
36734W        W 3143   6.327  20.744   1.227
36735W        W 3144  13.662  33.022   1.585
36736W        W 3145  13.898  38.486  11.618
36737W        W 3146  14.622  18.799   2.709
36738W        W 3147   2.909   4.885  11.569
36739W        W 3148  16.392  16.509  14.959
36740W        W 3149  20.863  23.573   0.970
36741W        W 3150  24.168   4.957  12.991
36742W        W 3151  33.342  10.319   2.226
36743W        W 3152  13.641  38.568   2.188
36744W        W 3153  44.763   3.777  14.862
36745W        W 3154  34.396  29.181   3.169
36746W        W 3155   2.782  42.913  11.425
36747W        W 3156  35.675  28.535   1.981
36748W        W 3157  19.128  33.893   0.289
36749W        W 3158   8.347  41.006   3.698
36750W        W 3159  26.927  42.761  11.673
36751W        W 3160   5.565  16.785  14.413
36752W        W 3161  38.469  35.230   0.491
36753W        W 3162  27.974  18.589  14.673
36754W        W 3163  29.641  30.877  10.912
36755W        W 3164  38.275  39.522   3.236
36756W        W 3165  15.809  11.753  14.374
36757W        W 3166  18.795  26.047  11.519
36758W        W 3167  43.303  39.440  13.693
36759W        W 3168  38.117   7.304  14.669
36760W        W 3169   2.801  30.673   1.825
36761W        W 3170  18.664  43.886   3.949
36762W        W 3171  23.942  21.153   3.636
36763W        W 3172  10.265   1.061   1.407
36764W        W 3173  32.155  34.018  13.297
36765W        W 3174  43.275  15.910   1.776
36766W        W 3175  32.420  16.571   0.721
36767W        W 3176  28.268  31.639  13.958
36768W        W 3177  28.077  41.263  10.668
36769W        W 3178   0.424  13.256  10.386
36770W        W 3179  29.451   2.396  13.822
36771W        W 3180  11.613  25.840   2.627
36772W        W 3181  38.073  44.389  11.748
36773W        W 3182  17.648  31.400   1.848
36774W        W 3183  38.958  28.560  13.305
36775W        W 3184  41.970  19.073  10.422
36776W        W 3185   0.370  19.279  13.556
36777W        W 3186  39.116  13.826  12.977
36778W        W 3187   6.271   6.298   4.004
36779W        W 3188  23.421  44.957   3.709
36780W        W 3189   3.349  39.493   0.483
36781W        W 3190   9.133  38.399   1.417
36782W        W 3191   0.165  22.504   2.754
36783W        W 3192  19.238   3.077  11.916
36784W        W 3193  39.233  13.339  13.857
36785W        W 3194   0.501   6.510   0.853
36786W        W 3195  31.005  19.859  13.399
36787W        W 3196  22.543  42.393   3.048
36788W        W 3197  35.584  18.271  13.548
36789W        W 3198  21.587  43.937   1.465
36790W        W 3199  37.578  23.564  12.112
36791W        W 3200  39.440  20.502   2.650
36792W        W 3201   1.487  14.283  14.221
36793W        W 3202  36.498   3.068  11.202
36794W        W 3203  38.038   3.992  11.955
36795W        W 3204   2.802  40.861   2.988
36796W        W 3205  41.017  43.841  14.442
36797W        W 3206  26.541  19.728  13.568
36798W        W 3207  18.748   8.757  13.886
36799W        W 3208  10.702   0.153  11.289
36800W        W 3209  17.966  33.384   1.533
36801W        W 3210  26.646   0.771   0.771
36802W        W 3211  18.530  33.029  14.599
36803W        W 3212  34.824  40.539  13.030
36804W        W 3213  17.303   6.496  14.748
36805W        W 3214  38.500  11.129  13.516
36806W        W 3215  12.282  37.135   0.292
36807W        W 3216  19.754  44.920   0.688
36808W        W 3217   6.252  11.989   4.171
36809W        W 3218   4.273  33.061   3.833
36810W        W 3219  10.770  31.879   4.173
36811W        W 3220  11.338  38.877   2.775
36812W        W 3221  30.853   4.951   3.565
36813W        W 3222  38.099  30.592  13.343
36814W        W 3223  18.755  17.671   1.883
36815W        W 3224  33.672  39.825   5.324
36816W        W 3225  17.244  30.016   1.738
36817W        W 3226   1.335  39.368  10.688
36818W        W 3227   8.938  44.743   4.124
36819W        W 3228  33.434  35.271  14.020
36820W        W 3229  20.779  37.866  10.413
36821W        W 3230  29.877  26.498  14.870
36822W        W 3231   7.890   2.275   2.385
36823W        W 3232  27.831  38.152  14.753
36824W        W 3233  39.897   6.569   1.156
36825W        W 3234  41.210   9.567   3.334
36826W        W 3235  31.431   9.195   2.198
36827W        W 3236  37.812  42.451  12.110
36828W        W 3237  43.001  38.530   4.746
36829W        W 3238  25.205  17.160  11.668
36830W        W 3239  44.762  29.382   2.775
36831W        W 3240  42.107  17.145  12.900
36832W        W 3241  26.802  24.442   3.250
36833W        W 3242  42.398  32.908  14.443
36834W        W 3243  22.525   6.434  12.526
36835W        W 3244  11.068  41.479   2.915
36836W        W 3245  38.793  38.616   0.838
36837W        W 3246  17.694  35.938   0.699
36838W        W 3247   3.248  14.730  13.189
36839W        W 3248  14.202  14.915   3.407
36840W        W 3249  25.494  42.692   0.873
36841W        W 3250   3.862  41.036  14.266
36842W        W 3251  32.335   6.111  11.450
36843W        W 3252  44.756  24.561   3.926
36844W        W 3253  38.497  21.463   1.670
36845W        W 3254  28.493   4.854   1.032
36846W        W 3255  22.189  22.099  10.232
36847W        W 3256  40.626  11.122   0.370
36848W        W 3257  20.134  33.608   0.360
36849W        W 3258  10.598   9.304   2.927
36850W        W 3259  11.484  20.639  14.345
36851W        W 3260  21.121   6.665   0.915
36852W        W 3261  11.696  16.155   0.916
36853W        W 3262  22.786  16.054  13.239
36854W        W 3263  27.553  29.502  12.192
36855W        W 3264  26.171  44.733  11.417
36856W        W 3265   3.524  43.489   1.940
36857W        W 3266  21.548  32.711  14.283
36858W        W 3267  39.082  26.732   3.720
36859W        W 3268   4.856   1.183   0.995
36860W        W 3269  39.822  23.149   1.295
36861W        W 3270  39.014  35.563   3.407
36862W        W 3271  25.726  15.335   0.796
36863W        W 3272   1.629  26.419   1.222
36864W        W 3273  26.129  39.105  13.398
36865W        W 3274  15.085  41.780   3.508
36866W        W 3275  44.408  22.352   0.737
36867W        W 3276  11.236  41.216  14.435
36868W        W 3277   1.317  22.378  12.111
36869W        W 3278  32.069  15.279   0.901
36870W        W 3279  26.228  32.472  14.962
36871W        W 3280  30.736  23.990   3.210
36872W        W 3281  12.499  25.079   4.895
36873W        W 3282  24.912   2.290  10.812
36874W        W 3283   6.783  23.466   0.862
36875W        W 3284  25.526  11.625   4.616
36876W        W 3285  14.734   0.800  11.166
36877W        W 3286  33.950  32.358   2.401
36878W        W 3287   3.442  15.083   0.211
36879W        W 3288  43.072   1.366   3.450
36880W        W 3289   0.364  13.020   3.818
36881W        W 3290  23.902  20.442   0.767
36882W        W 3291  30.646  22.103  11.982
36883W        W 3292  23.081  39.813   3.018
36884W        W 3293  29.143   4.167  13.522
36885W        W 3294  32.495  40.608  14.764
36886W        W 3295  22.943  29.669  13.119
36887W        W 3296   7.879   9.960  11.083
36888W        W 3297  10.325  44.997  14.832
36889W        W 3298  43.893  44.451   0.411
36890W        W 3299   6.884   2.660   2.596
36891W        W 3300  12.722   4.191  13.980
36892W        W 3301  18.828  28.484  11.385
36893W        W 3302  43.679  35.224   4.913
36894W        W 3303  37.941  16.887   0.246
36895W        W 3304  39.083  12.344   2.712
36896W        W 3305  40.480  41.192   2.627
36897W        W 3306   3.402  39.627  14.142
36898W        W 3307  23.959  15.040  14.297
36899W        W 3308  41.872  43.291   2.424
36900W        W 3309  20.385  33.154   0.311
36901W        W 3310  34.395  34.596  10.644
36902W        W 3311  40.551   1.568  11.983
36903W        W 3312  34.203  35.277   1.594
36904W        W 3313  29.047  37.089  10.705
36905W        W 3314  30.492   1.895  13.400
36906W        W 3315  14.766  33.177  10.383
36907W        W 3316  13.726  34.672  10.603
36908W        W 3317   4.300  24.223  13.920
36909W        W 3318  24.177   2.487  13.212
36910W        W 3319  14.567  15.616   4.193
36911W        W 3320  25.567  15.284  13.028
36912W        W 3321   7.602  11.873  11.125
36913W        W 3322  36.508  10.692   0.038
36914W        W 3323  11.600  20.630  12.014
36915W        W 3324  29.028  31.256   3.572
36916W        W 3325  26.270   1.255  12.565
36917W        W 3326   6.283   0.679  14.506
36918W        W 3327  40.498   9.113   5.518
36919W        W 3328  11.087  34.632  12.995
36920W        W 3329  21.507  29.110   3.187
36921W        W 3330  12.746  13.650   4.864
36922W        W 3331  17.555  23.479   2.856
36923W        W 3332  15.182  31.635   0.563
36924W        W 3333   0.540  10.302   4.022
36925W        W 3334  15.301  12.185  11.624
36926W        W 3335  32.852  28.963  14.332
36927W        W 3336  23.256  30.577  13.017
36928W        W 3337  32.716  19.638  10.248
36929W        W 3338  22.474  12.737  13.543
36930W        W 3339  22.759  31.190   1.297
36931W        W 3340  29.465  36.552  14.401
36932W        W 3341  38.033  44.338  11.255
36933W        W 3342  24.455   8.043  11.084
36934W        W 3343  34.797  14.328   4.178
36935W        W 3344   6.273  41.548   1.623
36936W        W 3345   0.165  24.968   0.773
36937W        W 3346  34.579  34.954  12.426
36938W        W 3347  43.996   2.831  12.419
36939W        W 3348  39.486  36.961   4.408
36940W        W 3349  20.192  12.161   3.863
36941W        W 3350   3.698   0.561   1.801
36942W        W 3351  31.764   7.523   5.001
36943W        W 3352  26.600   0.465  14.423
36944W        W 3353  44.958  10.886  13.183
36945W        W 3354  32.490  42.970   2.199
36946W        W 3355  32.848  19.082   2.346
36947W        W 3356   1.372  12.059   3.304
36948W        W 3357  42.576  12.468   4.015
36949W        W 3358  28.977  20.281   0.792
36950W        W 3359   6.970  44.506   1.689
36951W        W 3360   2.290  39.893  14.265
36952W        W 3361  30.303  21.258  10.739
36953W        W 3362  43.771   7.853   3.593
36954W        W 3363  42.538   7.961   2.269
36955W        W 3364  19.679  29.609   3.397
36956W        W 3365  36.169  41.931   3.681
36957W        W 3366   4.332  33.427   4.525
36958W        W 3367   0.763  38.291   2.213
36959W        W 3368   3.342  20.381  13.964
36960W        W 3369  26.407  11.767   4.099
36961W        W 3370  42.519  38.088  11.550
36962W        W 3371  40.420  15.170   0.712
36963W        W 3372  43.377   8.159  14.254
36964W        W 3373   8.836  33.472  14.785
36965W        W 3374   8.847  27.095   1.587
36966W        W 3375   8.152  14.689  10.807
36967W        W 3376   1.348  25.587  11.624
36968W        W 3377   0.855  44.551  10.724
36969W        W 3378  31.105   0.355   0.777
36970W        W 3379  34.545   3.876  12.557
36971W        W 3380  11.814   8.143   2.339
36972W        W 3381   1.989  10.240   4.626
36973W        W 3382  30.206   9.455  13.457
36974W        W 3383  43.786  37.095   4.662
36975W        W 3384  30.480  29.657  13.582
36976W        W 3385   3.961  17.251   3.559
36977W        W 3386   7.944   5.828   3.687
36978W        W 3387  34.526  12.733   3.279
36979W        W 3388  24.504  25.772   4.122
36980W        W 3389  44.048   6.908  10.292
36981W        W 3390  38.873  36.631   4.316
36982W        W 3391  23.532  24.050  14.145
36983W        W 3392  42.058  29.090  12.912
36984W        W 3393  34.496  25.113   1.567
36985W        W 3394  21.143  39.386  13.276
36986W        W 3395  41.908  16.523  11.158
36987W        W 3396  44.034   4.277   3.798
36988W        W 3397  18.045  20.196   3.279
36989W        W 3398  38.404  22.594  14.585
36990W        W 3399  21.630   3.117   2.856
36991W        W 3400  44.089  27.559   1.294
36992W        W 3401  13.017   0.964   0.995
36993W        W 3402   9.824  37.808   3.673
36994W        W 3403  32.851  14.250   0.251
36995W        W 3404   6.031  41.770   2.075
36996W        W 3405  24.006   8.026  13.302
36997W        W 3406  17.709  38.844  13.739
36998W        W 3407  16.225  32.568  12.739
36999W        W 3408  29.070  30.939   0.669
37000W        W 3409  17.783  37.856   1.327
37001W        W 3410   3.006  10.962  12.736
37002W        W 3411  22.732  31.884  11.839
37003W        W 3412  12.708  40.914  11.599
37004W        W 3413   5.443   2.596   0.563
37005W        W 3414  31.076  13.143   4.298
37006W        W 3415  20.211  33.594   2.110
37007W        W 3416   2.514  20.705   2.810
37008W        W 3417  25.579  13.509  12.211
37009W        W 3418  30.307   5.302   4.156
37010W        W 3419  42.791  19.794   2.809
37011W        W 3420  25.208  28.837  13.244
37012W        W 3421  10.851  28.205  10.552
37013W        W 3422  18.713  36.784   4.689
37014W        W 3423   4.395   2.753   2.715
37015W        W 3424  32.385  15.441  13.052
37016W        W 3425  38.023  27.477   3.150
37017W        W 3426  24.878  32.378   3.719
37018W        W 3427  32.740  23.647  12.551
37019W        W 3428   4.313  29.646  12.198
37020W        W 3429  40.837  33.913   3.228
37021W        W 3430  37.059  24.060   2.960
37022W        W 3431   0.961  27.507  14.424
37023W        W 3432   1.825   2.340  14.623
37024W        W 3433  37.449  24.752   3.367
37025W        W 3434  44.928  33.318  13.453
37026W        W 3435   5.647  18.107   2.721
37027W        W 3436   7.268  41.467   4.412
37028W        W 3437   5.109  14.714   4.659
37029W        W 3438   5.027  18.543   1.199
37030W        W 3439  42.593  41.561  12.278
37031W        W 3440   7.218  17.560   3.082
37032W        W 3441  14.161  29.473  13.827
37033W        W 3442  10.670  39.019  10.738
37034W        W 3443  43.448   8.098  13.282
37035W        W 3444  15.781  27.162   2.733
37036W        W 3445   0.795  39.992  13.783
37037W        W 3446  38.454  41.565  11.420
37038W        W 3447   1.184   3.070  12.419
37039W        W 3448  26.272   8.479   0.793
37040W        W 3449  41.694  18.243  14.729
37041W        W 3450  31.903  23.215   3.296
37042W        W 3451  37.830  13.767  11.116
37043W        W 3452   8.962   5.748  10.239
37044W        W 3453  15.155  17.489   1.193
37045W        W 3454  33.688  32.476   2.834
37046W        W 3455   6.828  39.250   3.819
37047W        W 3456  30.570  36.938  11.649
37048W        W 3457  43.812  13.205   4.825
37049W        W 3458  23.065  43.088   0.316
37050W        W 3459  11.084  26.903   3.241
37051W        W 3460  35.313  17.159   2.748
37052W        W 3461  18.770  38.160  13.198
37053W        W 3462  40.128  22.460  14.688
37054W        W 3463  35.076  41.737  10.869
37055W        W 3464  26.029  31.224   1.354
37056W        W 3465  22.929  18.631  13.048
37057W        W 3466  40.962  10.375   2.306
37058W        W 3467   8.304  26.066  12.573
37059W        W 3468   3.497  24.603  10.171
37060W        W 3469  22.853  28.019  14.053
37061W        W 3470  11.786  22.126  11.511
37062W        W 3471  39.802  36.539   2.568
37063W        W 3472   0.468  12.511  13.645
37064W        W 3473  19.019  28.968  14.875
37065W        W 3474  31.281   8.359   2.432
37066W        W 3475   8.227   2.701  12.097
37067W        W 3476  14.838   3.947  10.686
37068W        W 3477  10.163  29.903   4.858
37069W        W 3478  35.914  23.100   1.976
37070W        W 3479  22.615  19.150   1.782
37071W        W 3480   6.731   7.860  14.000
37072W        W 3481  17.811  20.582  13.374
37073W        W 3482  12.695  22.509  12.874
37074W        W 3483  42.885   7.371   5.123
37075W        W 3484  33.583  22.277  14.089
37076W        W 3485  37.890  26.750   0.578
37077W        W 3486  30.280   9.600   9.843
37078W        W 3487  28.173  41.869   2.196
37079W        W 3488   7.313  42.132  14.648
37080W        W 3489  17.673  40.828   4.125
37081W        W 3490  43.812   7.739  14.157
37082W        W 3491  30.050  10.049   0.281
37083W        W 3492  13.062  38.606   1.255
37084W        W 3493  31.368  38.913  14.849
37085W        W 3494  44.149  23.770   1.861
37086W        W 3495   1.919   7.407  11.185
37087W        W 3496  29.152   8.147  11.541
37088W        W 3497  23.350  35.511  13.104
37089W        W 3498   6.624   8.971   1.381
37090W        W 3499  19.559  11.859  14.883
37091W        W 3500  22.002  17.518   3.695
37092W        W 3501   2.565  27.931   0.491
37093W        W 3502  11.075  13.786  14.091
37094W        W 3503   9.822  39.042   1.517
37095W        W 3504   8.289  31.504   3.597
37096W        W 3505  25.742   5.763  10.333
37097W        W 3506   5.889  24.663   0.022
37098W        W 3507   5.162   4.346   4.108
37099W        W 3508  17.762  15.394  13.008
37100W        W 3509   5.370  36.497  12.341
37101W        W 3510  17.808  27.374  11.206
37102W        W 3511  30.142  35.826   1.293
37103W        W 3512  35.275  30.061   0.813
37104W        W 3513  22.550  22.697   1.636
37105W        W 3514  26.988  40.309   4.226
37106W        W 3515  40.409   2.729  13.347
37107W        W 3516   2.468  17.266   4.619
37108W        W 3517   3.972  17.617  11.262
37109W        W 3518  15.211   6.239  13.629
37110W        W 3519  39.310   4.201   4.865
37111W        W 3520  23.335  29.399   2.314
37112W        W 3521   9.172  23.114   2.412
37113W        W 3522  42.792  21.978   3.775
37114W        W 3523  39.455   3.798  11.154
37115W        W 3524  19.257  33.391   0.187
37116W        W 3525  33.885  13.274   3.966
37117W        W 3526  19.278  11.599  11.618
37118W        W 3527   0.768  18.230   2.761
37119W        W 3528  27.146  32.172  11.715
37120W        W 3529  31.665  41.908  11.108
37121W        W 3530  21.011  32.355  12.456
37122W        W 3531  16.708  28.388  10.511
37123W        W 3532  22.144   1.229  12.162
37124W        W 3533   3.278   0.890  11.698
37125W        W 3534   5.585  23.001   2.882
37126W        W 3535  27.036  31.952   2.281
37127W        W 3536  11.792  27.425   3.475
37128W        W 3537   4.632  19.651   0.806
37129W        W 3538  18.466  22.439  11.891
37130W        W 3539  19.055  43.270   0.939
37131W        W 3540  35.586  20.473   3.633
37132W        W 3541  14.532  41.983  13.350
37133W        W 3542  23.248  41.631  12.030
37134W        W 3543   5.442  16.108  10.811
37135W        W 3544  20.192  32.669   1.631
37136W        W 3545  24.088   7.984   1.630
37137W        W 3546   0.963   7.594  13.947
37138W        W 3547  10.624  11.435   0.313
37139W        W 3548  22.453  28.113   2.289
37140W        W 3549  17.847   6.184  11.373
37141W        W 3550  22.309  24.484  12.598
37142W        W 3551  20.706  17.547  13.729
37143W        W 3552  18.076  19.414  14.953
37144W        W 3553  44.743   7.106   3.132
37145W        W 3554   1.839  29.960  12.463
37146W        W 3555  25.565   3.680  11.493
37147W        W 3556  37.062  41.711  12.598
37148W        W 3557  13.600   7.346  12.203
37149W        W 3558  19.939  26.616   0.105
37150W        W 3559  28.646  37.394  11.168
37151W        W 3560  17.918  17.217  12.506
37152W        W 3561   4.096  44.713  12.983
37153W        W 3562  28.143   7.376  11.013
37154W        W 3563  13.673  44.443  11.530
37155W        W 3564  42.331  20.542   0.511
37156W        W 3565  11.225  39.402  14.916
37157W        W 3566  41.477  35.433  10.737
37158W        W 3567   1.142  11.268  14.101
37159W        W 3568  42.912   1.492  13.031
37160W        W 3569  11.282  39.790  12.005
37161W        W 3570  35.563  20.753  12.115
37162W        W 3571   8.057  39.448  14.767
37163W        W 3572  34.681  36.386  13.553
37164W        W 3573  44.508  35.860   3.853
37165W        W 3574   3.432  29.992   4.650
37166W        W 3575  27.528   9.378  12.037
37167W        W 3576  14.828  40.927   0.495
37168W        W 3577  38.306   6.975   3.807
37169W        W 3578  30.276  23.065  11.220
37170W        W 3579  15.228   5.115  13.590
37171W        W 3580  10.634  15.477  12.899
37172W        W 3581  38.586  44.443  11.694
37173W        W 3582  31.867  32.707  13.144
37174W        W 3583  41.935  29.164   0.387
37175W        W 3584  25.525   9.550   3.109
37176W        W 3585  17.280   4.077   1.732
37177W        W 3586  11.179  42.434   2.519
37178W        W 3587  30.070   8.743  10.867
37179W        W 3588  31.752  25.395  10.752
37180W        W 3589   7.588  34.065   3.988
37181W        W 3590   9.941  27.909  12.753
37182W        W 3591  29.429  36.572  11.201
37183W        W 3592   9.709  18.970  12.070
37184W        W 3593  34.429  27.362  14.875
37185W        W 3594   9.674   2.744   1.401
37186W        W 3595  26.645  19.072  10.413
37187W        W 3596  13.701  15.350   1.927
37188W        W 3597  14.103  25.886  11.820
37189W        W 3598  33.096   2.896   2.175
37190W        W 3599   5.350  33.112   2.293
37191W        W 3600   5.558   5.233  14.846
37192W        W 3601  38.739  23.323   3.194
37193W        W 3602   2.712   2.209   3.746
37194W        W 3603   9.651  27.246   1.905
37195W        W 3604  27.013  42.072   3.199
37196W        W 3605  25.481  11.135  12.643
37197W        W 3606  29.703  15.522   5.107
37198W        W 3607   8.149  38.482   1.374
37199W        W 3608  17.416  38.492   5.151
37200W        W 3609  10.206  20.990  14.705
37201W        W 3610  33.236  42.696   1.751
37202W        W 3611  26.740  31.184   1.637
37203W        W 3612  29.630  15.964   4.260
37204W        W 3613  24.581  29.048  12.496
37205W        W 3614  37.315  10.774  13.461
37206W        W 3615  19.067  14.813   1.960
37207W        W 3616  33.851  35.457  14.982
37208W        W 3617   1.387  40.374   3.739
37209W        W 3618   3.139  13.195   4.067
37210W        W 3619  22.726   2.984  10.747
37211W        W 3620  33.449  10.846   2.806
37212W        W 3621  15.858  18.728  13.922
37213W        W 3622  17.018   4.710  13.413
37214W        W 3623  19.509  27.438   3.591
37215W        W 3624  25.073  33.625  14.556
37216W        W 3625  40.457  31.946   1.457
37217W        W 3626  19.764   2.682  13.972
37218W        W 3627   4.422  35.269  11.054
37219W        W 3628  23.289  28.895   0.777
37220W        W 3629  24.603  23.092  11.781
37221W        W 3630  23.227   0.998   3.442
37222W        W 3631  14.723  28.721  14.299
37223W        W 3632  13.667  36.715  11.089
37224W        W 3633  25.661  16.147  14.104
37225W        W 3634  38.846  18.742  13.214
37226W        W 3635  32.966  25.179   0.231
37227W        W 3636  21.059  20.494  12.782
37228W        W 3637   8.924  19.954   1.941
37229W        W 3638  24.931  42.907   2.651
37230W        W 3639   3.909   5.413   2.313
37231W        W 3640  28.226  37.170  12.548
37232W        W 3641   6.836  37.773  12.852
37233W        W 3642  40.766  12.659   4.266
37234W        W 3643  39.774  25.550   2.295
37235W        W 3644  17.952   8.207   1.823
37236W        W 3645  15.410  40.555   3.754
37237W        W 3646  14.070  34.162  14.187
37238W        W 3647  10.251  18.676   1.183
37239W        W 3648  26.724  11.895   1.110
37240W        W 3649  18.272  25.764   3.782
37241W        W 3650  11.032  10.604  14.240
37242W        W 3651   8.523  28.785   0.877
37243W        W 3652  18.945  28.963  13.969
37244W        W 3653   3.665  35.159   4.977
37245W        W 3654  39.782  18.716   3.573
37246W        W 3655  11.637  11.244   3.312
37247W        W 3656  25.972  13.740   4.607
37248W        W 3657  30.316  28.668  11.122
37249W        W 3658  32.625  29.149   1.397
37250W        W 3659  11.518  23.241  12.100
37251W        W 3660  29.914  40.463   1.829
37252W        W 3661  22.350  36.610  14.641
37253W        W 3662  17.174  13.251  12.163
37254W        W 3663  19.131  22.227   2.726
37255W        W 3664   2.255  15.330   1.878
37256W        W 3665  16.400  30.557   0.764
37257W        W 3666   0.479  41.391   2.719
37258W        W 3667  27.065  41.997   0.009
37259W        W 3668  31.515  33.085   1.398
37260W        W 3669  35.017  28.636   3.620
37261W        W 3670   9.771  14.830  11.222
37262W        W 3671  13.488   5.951  11.137
37263W        W 3672   8.766   8.762   1.249
37264W        W 3673  36.841  25.251  11.234
37265W        W 3674  36.413  32.998   3.673
37266W        W 3675  44.387  38.740   2.153
37267W        W 3676   1.921  25.545  14.035
37268W        W 3677  32.730  22.059   4.671
37269W        W 3678  25.181  25.153   3.530
37270W        W 3679  38.898   9.674   0.558
37271W        W 3680  38.935  15.383  14.591
37272W        W 3681  20.338  40.619   1.716
37273W        W 3682  40.031  11.573   3.745
37274W        W 3683  21.235  43.246  14.372
37275W        W 3684  24.093  16.854  13.811
37276W        W 3685   5.385   4.848  13.965
37277W        W 3686   9.867   7.370   0.386
37278W        W 3687  21.975  11.862  14.808
37279W        W 3688   2.327   6.278   2.297
37280W        W 3689  23.096  22.583   4.085
37281W        W 3690  10.275  25.520  11.578
37282W        W 3691  12.722  26.160   4.825
37283W        W 3692  20.593  44.974   1.299
37284W        W 3693  44.490  30.691  11.699
37285W        W 3694  22.748  31.885   9.910
37286W        W 3695  35.510  25.482  12.117
37287W        W 3696  25.561   0.119  12.047
37288W        W 3697   8.750   8.995   3.961
37289W        W 3698  19.623  18.769  13.082
37290W        W 3699  34.359  16.040  11.127
37291W        W 3700   3.996  10.777   2.212
37292W        W 3701  16.662  42.857   1.656
37293W        W 3702  35.835  42.023  11.181
37294W        W 3703   4.538   5.785   1.217
37295W        W 3704   5.150  25.754   2.757
37296W        W 3705   8.678   6.437  11.535
37297W        W 3706  42.824  36.081   1.673
37298W        W 3707  23.774   2.926   0.386
37299W        W 3708   3.328  30.631  13.987
37300W        W 3709  40.780  11.279   4.856
37301W        W 3710  36.911  32.827  12.077
37302W        W 3711  19.240  27.179   1.368
37303W        W 3712   9.397  20.615   2.388
37304W        W 3713  10.403  19.311  11.609
37305W        W 3714  40.060  44.273  14.474
37306W        W 3715  42.054  14.915  14.195
37307W        W 3716  20.528  15.613   0.741
37308W        W 3717  20.148  36.050  12.865
37309W        W 3718  25.089  23.107  12.269
37310W        W 3719   3.531  39.409   2.253
37311W        W 3720  23.669  21.508  14.058
37312W        W 3721  21.099  40.434   1.051
37313W        W 3722   4.761  36.887   4.776
37314W        W 3723  17.753   4.929  13.030
37315W        W 3724  40.306  19.072  12.435
37316W        W 3725  38.090  43.403  12.602
37317W        W 3726  43.878  12.928   3.764
37318W        W 3727  33.155  33.894   4.367
37319W        W 3728  11.205  16.258   1.001
37320W        W 3729  38.546   1.930   4.179
37321W        W 3730  21.074  14.531   1.687
37322W        W 3731  15.979   7.068  12.106
37323W        W 3732   7.237  44.118   2.335
37324W        W 3733   1.794  17.558  13.914
37325W        W 3734  20.293   2.778   4.528
37326W        W 3735   0.464  28.658   4.520
37327W        W 3736   8.652  17.555  13.015
37328W        W 3737  20.139  34.235   4.249
37329W        W 3738   2.286  27.104  14.065
37330W        W 3739  10.831  44.872   5.097
37331W        W 3740  33.174  17.590  13.452
37332W        W 3741  25.192  33.418  10.980
37333W        W 3742  25.693  22.553  10.013
37334W        W 3743  44.410  21.262  12.090
37335W        W 3744   9.829  23.779   9.812
37336W        W 3745  42.666  11.762  13.315
37337W        W 3746   1.434  38.304   2.444
37338W        W 3747   2.290  32.527   4.919
37339W        W 3748  44.034  13.713  11.258
37340W        W 3749  10.999  44.432  11.405
37341W        W 3750  24.316  35.113   5.065
37342W        W 3751  22.335  32.378  11.138
37343W        W 3752  37.838   4.665   0.651
37344W        W 3753  18.237  28.914   2.797
37345W        W 3754  13.791  30.824   3.389
37346W        W 3755  38.705  25.489  12.094
37347W        W 3756  30.607  28.960  13.416
37348W        W 3757  43.558  23.428  13.585
37349W        W 3758  22.129  43.871  11.078
37350W        W 3759  22.399   6.812   1.362
37351W        W 3760  37.989   1.254   2.460
37352W        W 3761  20.126  20.480   0.834
37353W        W 3762  34.240   4.919  13.883
37354W        W 3763  17.315  18.190   1.801
37355W        W 3764  33.931  21.209   3.757
37356W        W 3765  33.176  17.762  10.813
37357W        W 3766   7.761  17.337   1.003
37358W        W 3767  13.539  36.418  11.498
37359W        W 3768   8.934  23.850   2.266
37360W        W 3769  37.082  23.799  13.935
37361W        W 3770  24.235   8.670   5.056
37362W        W 3771  10.216  43.901   4.088
37363W        W 3772   9.210   6.451  11.529
37364W        W 3773   5.497   2.331   2.277
37365W        W 3774   2.865  17.968   0.912
37366W        W 3775  18.565   2.778   3.157
37367W        W 3776  14.526  43.566   1.369
37368W        W 3777  39.960  13.578   3.169
37369W        W 3778  34.900  19.797   4.036
37370W        W 3779   0.212  11.816  14.885
37371W        W 3780  16.460  29.154  14.815
37372W        W 3781  35.994  12.909   4.117
37373W        W 3782  41.019  43.957   3.331
37374W        W 3783  13.173   0.812   2.289
37375W        W 3784   9.891  25.696   2.381
37376W        W 3785  33.649   8.079   0.324
37377W        W 3786  36.574  14.702   4.072
37378W        W 3787  32.066  17.457   0.331
37379W        W 3788  35.399   5.234  11.976
37380W        W 3789  21.761   6.337  10.570
37381W        W 3790  22.974  27.578  10.719
37382W        W 3791  41.169  25.432  12.578
37383W        W 3792   4.803  21.886  13.882
37384W        W 3793  10.131   3.078   3.593
37385W        W 3794  11.933  36.111  12.500
37386W        W 3795  43.376  14.642  10.631
37387W        W 3796   1.010   2.499  14.241
37388W        W 3797   5.779  44.190  10.694
37389W        W 3798  36.435  32.345   5.150
37390W        W 3799  37.188  36.598  11.194
37391W        W 3800  28.689  44.133   2.640
37392W        W 3801  32.015  17.071  11.205
37393W        W 3802  16.631   2.924  11.310
37394W        W 3803  31.080  32.469  12.602
37395W        W 3804  43.966   8.299  12.596
37396W        W 3805  27.875   4.252   2.223
37397W        W 3806  12.862  16.095   0.394
37398W        W 3807  16.202  28.913   4.583
37399W        W 3808   7.816  40.620   1.253
37400W        W 3809  37.087  44.050  14.456
37401W        W 3810  21.041   3.161  11.939
37402W        W 3811  18.714   9.565   2.339
37403W        W 3812  26.033   3.936  13.937
37404W        W 3813   3.188   1.520  12.524
37405W        W 3814  15.207  10.321   1.869
37406W        W 3815  33.118  11.233  11.006
37407W        W 3816  37.737   6.895  13.424
37408W        W 3817  29.602  21.250   1.404
37409W        W 3818  32.127  32.419   4.571
37410W        W 3819   6.241  35.544  13.635
37411W        W 3820  10.662  40.447  13.335
37412W        W 3821  40.135  20.154  12.589
37413W        W 3822  12.574  32.318   4.482
37414W        W 3823   4.352  15.697   2.951
37415W        W 3824   5.213  29.561  12.246
37416W        W 3825  15.268  13.650   4.189
37417W        W 3826  41.547   6.781   0.460
37418W        W 3827   7.145  24.962  14.887
37419W        W 3828  11.739  13.546   5.139
37420W        W 3829   5.131  13.226  10.863
37421W        W 3830  39.248  27.590   2.381
37422W        W 3831  33.854   8.540   3.174
37423W        W 3832  39.976   0.520   3.599
37424W        W 3833  36.184  12.792   1.877
37425W        W 3834  22.133  23.709   2.412
37426W        W 3835  18.534  25.229  13.892
37427W        W 3836   4.349  12.860   1.374
37428W        W 3837   8.145  36.851   2.426
37429W        W 3838  10.163  35.118  13.074
37430W        W 3839  30.881  40.601  13.513
37431W        W 3840  20.156  19.991  11.076
37432W        W 3841   3.641  20.201   1.538
37433W        W 3842   3.120  22.938   1.744
37434W        W 3843  29.384  11.174  14.001
37435W        W 3844  43.883  15.661  13.923
37436W        W 3845   4.045  33.639  11.746
37437W        W 3846   8.147  28.075   0.438
37438W        W 3847   4.686   3.439   4.184
37439W        W 3848  12.056  16.086   0.049
37440W        W 3849  35.077  34.371  11.283
37441W        W 3850   5.002  33.478   3.193
37442W        W 3851  13.293  44.849   4.481
37443W        W 3852   3.713   8.924   0.876
37444W        W 3853   8.795  34.510   0.231
37445W        W 3854  27.827  41.222   2.826
37446W        W 3855  12.238  41.477   3.174
37447W        W 3856  13.773  42.016  14.869
37448W        W 3857   9.199   1.616   0.835
37449W        W 3858  39.293  12.599   1.308
37450W        W 3859   7.376   5.314  10.707
37451W        W 3860   8.439  16.348   2.235
37452W        W 3861  39.354  35.915   0.765
37453W        W 3862  10.579   8.782  10.527
37454W        W 3863  17.743  43.761   2.862
37455W        W 3864  22.543  11.803   1.782
37456W        W 3865   5.537  31.508  11.965
37457W        W 3866   0.421  36.398   4.530
37458W        W 3867   7.864  31.538   1.259
37459W        W 3868  12.285  10.667  13.025
37460W        W 3869  13.046  18.824   1.935
37461W        W 3870  43.899  20.578  13.556
37462W        W 3871   3.372  22.723  12.002
37463W        W 3872  38.796   7.750  14.980
37464W        W 3873  32.703  36.387  11.096
37465W        W 3874  16.120   7.952  13.275
37466W        W 3875   5.129  41.936  10.666
37467W        W 3876  10.425  35.907   0.928
37468W        W 3877  38.683   9.815   4.556
37469W        W 3878  21.731   9.919  13.931
37470W        W 3879  23.470   1.887  12.793
37471W        W 3880  17.116  23.946  13.360
37472W        W 3881  26.000  28.986   0.274
37473W        W 3882   0.842  17.279   4.984
37474W        W 3883  11.241  22.671   1.936
37475W        W 3884  36.236  24.158   1.784
37476W        W 3885  25.520  20.788  11.143
37477W        W 3886  29.652   1.796   4.115
37478W        W 3887   3.266  34.627   4.215
37479W        W 3888  14.142  44.693  11.574
37480W        W 3889  10.759  24.443  11.202
37481W        W 3890  21.981  18.213  12.121
37482W        W 3891   8.773  17.355   3.201
37483W        W 3892  16.850  13.045  13.952
37484W        W 3893   4.910  10.586  13.461
37485W        W 3894  36.299  39.423   2.333
37486W        W 3895  29.061  29.080   1.199
37487W        W 3896  14.755  26.596  11.550
37488W        W 3897  36.563  27.844   2.731
37489W        W 3898   7.416  24.429  14.248
37490W        W 3899  20.164  27.082   0.319
37491W        W 3900  13.858  39.684   3.731
37492W        W 3901   0.768   0.029   3.596
37493W        W 3902  35.556  23.574  14.054
37494W        W 3903  26.004  40.878  14.916
37495W        W 3904  27.515  36.884   1.882
37496W        W 3905  36.436   9.853   3.422
37497W        W 3906  42.446  23.426   2.612
37498W        W 3907   0.660  41.408  14.843
37499W        W 3908  12.361  23.487   3.133
37500W        W 3909   5.116   6.175  12.369
37501W        W 3910  19.910  18.518   3.001
37502W        W 3911  40.082   3.263   4.297
37503W        W 3912  29.904  13.951  10.687
37504W        W 3913  12.335  19.539  14.417
37505W        W 3914  15.317  14.876   0.519
37506W        W 3915  23.662   7.842  10.796
37507W        W 3916  20.249  11.050  11.107
37508W        W 3917   6.757   1.379   3.770
37509W        W 3918  36.343  26.119   0.792
37510W        W 3919  16.678  35.704  13.539
37511W        W 3920  21.232  15.827   0.215
37512W        W 3921  35.596  10.185  11.091
37513W        W 3922  14.288  24.638   1.561
37514W        W 3923   2.463  13.890  12.090
37515W        W 3924   6.655  18.182  11.047
37516W        W 3925  22.739  42.883  11.051
37517W        W 3926  10.370  22.136  13.110
37518W        W 3927   6.530  27.656   3.737
37519W        W 3928  21.270   5.975   2.892
37520W        W 3929  30.415  31.425   4.196
37521W        W 3930  38.570  31.876   1.018
37522W        W 3931  14.273  24.079  13.805
37523W        W 3932  22.177  22.159   3.073
37524W        W 3933   1.893   7.255   1.418
37525W        W 3934  26.188   8.416  13.968
37526W        W 3935  34.697  21.042  10.965
37527W        W 3936   0.707   2.608  12.939
37528W        W 3937  17.266  34.586   3.652
37529W        W 3938   7.877   8.827   1.875
37530W        W 3939  11.715  27.688   0.858
37531W        W 3940  17.459  28.118  11.086
37532W        W 3941  11.727  13.295   2.415
37533W        W 3942  35.158  42.942  14.870
37534W        W 3943  19.487  30.218  12.944
37535W        W 3944  36.389  31.402   3.436
37536W        W 3945  17.502  24.886   2.659
37537W        W 3946  12.662  15.496   0.723
37538W        W 3947   4.963  36.704   2.438
37539W        W 3948  42.911   9.793   2.259
37540W        W 3949  20.517  15.236   4.744
37541W        W 3950  41.855  32.156   0.392
37542W        W 3951  41.524  19.517  12.784
37543W        W 3952   8.911  17.371  11.154
37544W        W 3953   9.084  17.118   2.021
37545W        W 3954   3.394  33.065   4.309
37546W        W 3955  42.057  25.417   2.716
37547W        W 3956   3.469  35.476   0.992
37548W        W 3957  19.570  25.056  14.924
37549W        W 3958  39.994  13.089   1.698
37550W        W 3959  30.959  30.708  11.143
37551W        W 3960  43.217  40.513   4.131
37552W        W 3961  34.339  28.944  11.616
37553W        W 3962  11.742  31.819  13.887
37554W        W 3963  25.965  30.015  11.516
37555W        W 3964   6.403  27.612   4.630
37556W        W 3965  27.625  32.172   2.840
37557W        W 3966  24.582   3.249  12.052
37558W        W 3967  42.458  11.316  14.377
37559W        W 3968  23.213  30.469  14.915
37560W        W 3969  10.512  15.084  13.566
37561W        W 3970  25.538  32.105   4.533
37562W        W 3971  38.307  31.511   2.337
37563W        W 3972   6.336  36.488  11.496
37564W        W 3973  23.726  38.806   4.130
37565W        W 3974   7.727  28.861   1.747
37566W        W 3975   3.812  15.306  12.437
37567W        W 3976  15.299   5.421  11.745
37568W        W 3977  20.532  26.122   2.209
37569W        W 3978  11.255  30.447  13.065
37570W        W 3979   3.828  22.686   2.410
37571W        W 3980  44.057  37.255   2.287
37572W        W 3981  20.037  23.145   3.388
37573W        W 3982   5.623  26.042   1.673
37574W        W 3983  13.148   3.130  12.047
37575W        W 3984  11.500  44.556  11.350
37576W        W 3985  39.158   1.233  12.987
37577W        W 3986  28.490  40.868  14.830
37578W        W 3987  41.378  43.410   4.336
37579W        W 3988  11.733   8.114  14.332
37580W        W 3989  21.367   8.231   3.438
37581W        W 3990  34.028  24.759   4.526
37582W        W 3991  31.941  10.183   3.582
37583W        W 3992   5.176  29.551   4.219
37584W        W 3993   0.696  23.990   3.304
37585W        W 3994   9.096  11.630  11.554
37586W        W 3995  44.465  21.818  10.811
37587W        W 3996  29.537  27.934  14.264
37588W        W 3997  11.609   4.318   2.719
37589W        W 3998  30.644  23.991   2.327
37590W        W 3999  35.626  19.759   0.591
37591W        W 4000  36.857  29.740  11.812
37592W        W 4001   2.122  22.134   3.379
37593W        W 4002  20.535   9.950  14.518
37594W        W 4003  39.133   0.347   1.232
37595W        W 4004   9.832  18.741   1.499
37596W        W 4005   9.326   4.918  14.728
37597W        W 4006  30.911   9.899   2.279
37598W        W 4007  31.985  38.548   3.731
37599W        W 4008  31.039  31.448   2.586
37600W        W 4009  41.819  31.885   0.809
37601W        W 4010   5.736   9.271  10.595
37602W        W 4011  38.667  25.632  12.961
37603W        W 4012  11.514  20.138   4.147
37604W        W 4013  21.551   0.372   2.839
37605W        W 4014   5.480  17.004  10.804
37606W        W 4015  23.200   2.728  11.347
37607W        W 4016  37.058   5.368   0.057
37608W        W 4017   7.422   4.983  12.542
37609W        W 4018   3.384  23.191  10.772
37610W        W 4019  11.379  18.615  12.007
37611W        W 4020  21.609  40.508   4.509
37612W        W 4021   2.907  18.109  13.049
37613W        W 4022  19.570  19.708  14.051
37614W        W 4023   0.865  11.567  11.660
37615W        W 4024   9.171  34.649   4.134
37616W        W 4025  40.335  12.686   1.332
37617W        W 4026  28.690  26.118   2.873
37618W        W 4027   3.398  38.091  11.956
37619W        W 4028  19.110  12.189   2.399
37620W        W 4029  37.530   5.717  10.708
37621W        W 4030  40.819  27.472  11.115
37622W        W 4031  38.055   3.620   1.814
37623W        W 4032  13.742  35.464  14.458
37624W        W 4033   5.791  17.964   4.938
37625W        W 4034  32.987  31.439   3.181
37626W        W 4035   0.810  32.329   3.191
37627W        W 4036  43.429  34.091   0.718
37628W        W 4037  18.427  36.731   3.921
37629W        W 4038  44.205  32.074  13.550
37630W        W 4039   0.400  44.445  14.067
37631W        W 4040  39.512  15.524  11.993
37632W        W 4041  16.635  39.924  11.600
37633W        W 4042  43.939  12.234  12.081
37634W        W 4043  18.120  31.753  11.263
37635W        W 4044  35.939  14.703  12.617
37636W        W 4045  27.739  28.130  12.067
37637W        W 4046  12.763  38.429  14.942
37638W        W 4047   8.835  37.082  11.022
37639W        W 4048  22.966  18.351   1.822
37640W        W 4049   7.370  13.107   0.920
37641W        W 4050  39.259   0.815   4.754
37642W        W 4051   2.815  28.625  12.948
37643W        W 4052  29.170  28.117  14.603
37644W        W 4053  33.706  37.949   0.800
37645W        W 4054  35.420   7.797   0.284
37646W        W 4055  27.890  41.103  13.021
37647W        W 4056   7.655  21.116  12.137
37648W        W 4057  10.764  23.276   4.609
37649W        W 4058  24.333  31.170  13.019
37650W        W 4059  37.053  19.987   4.583
37651W        W 4060  31.133   4.733  13.280
37652W        W 4061   6.486  43.791   1.004
37653W        W 4062  24.160  43.328   4.368
37654W        W 4063  12.747  34.845   4.608
37655W        W 4064  10.557  33.220  12.055
37656W        W 4065  37.604   4.277  14.565
37657W        W 4066   0.841  35.298  12.420
37658W        W 4067  40.793  19.859   0.301
37659W        W 4068  38.740  39.932  11.066
37660W        W 4069  10.900  36.420   0.215
37661W        W 4070  12.667  11.897  12.000
37662W        W 4071  29.717  44.042  11.548
37663W        W 4072  43.742  12.028  12.570
37664W        W 4073  32.960  12.867   0.682
37665W        W 4074  22.494   9.161   2.768
37666W        W 4075  25.944  16.155  10.987
37667W        W 4076  44.550  21.712  13.128
37668W        W 4077  33.700  10.716   3.796
37669W        W 4078  14.740  17.508   2.816
37670W        W 4079  21.970  16.294   3.088
37671W        W 4080  23.412  11.322  11.972
37672W        W 4081  22.771   5.381   0.223
37673W        W 4082  17.218  43.501  14.164
37674W        W 4083  35.888  19.907   1.893
37675W        W 4084  35.245   6.799  13.438
37676W        W 4085  44.872  31.193   4.122
37677W        W 4086  12.661  10.694   0.478
37678W        W 4087  29.115  20.565   1.744
37679W        W 4088  37.842  42.514   0.713
37680W        W 4089  40.850  39.912   1.841
37681W        W 4090   4.247  28.428   0.677
37682W        W 4091  11.139   9.652   2.299
37683W        W 4092  36.823  34.115  13.561
37684W        W 4093  18.056   5.316   3.782
37685W        W 4094  17.664  43.496   2.406
37686W        W 4095  41.206  36.111   3.442
37687W        W 4096   4.692   9.242   0.818
37688W        W 4097  23.781  12.815  12.484
37689W        W 4098  22.305  21.051  11.413
37690W        W 4099  35.548  29.196   4.151
37691W        W 4100   8.855  41.056  10.991
37692W        W 4101  33.443   8.903  12.855
37693W        W 4102  36.078  10.135   0.369
37694W        W 4103  22.503  20.023  12.496
37695W        W 4104  16.150  42.359   1.116
37696W        W 4105  40.164  28.216   0.246
37697W        W 4106  23.941  32.528   4.053
37698W        W 4107  20.711  42.791   2.280
37699W        W 4108  37.439  16.253   4.503
37700W        W 4109  27.988   3.131   2.396
37701W        W 4110  36.064  11.022  13.818
37702W        W 4111   5.737   6.959   4.044
37703W        W 4112   6.670  14.415  14.126
37704W        W 4113  22.457   3.749   3.674
37705W        W 4114  17.137  31.260   1.165
37706W        W 4115  42.358   3.373   2.451
37707W        W 4116  18.037  42.384   4.313
37708W        W 4117   6.412  41.712   3.846
37709W        W 4118  25.923  23.239  13.868
37710W        W 4119  16.646  32.824  12.980
37711W        W 4120   9.494  31.860   5.436
37712W        W 4121  30.626  11.614   2.256
37713W        W 4122  11.406   2.474  12.985
37714W        W 4123  22.817  36.461   0.920
37715W        W 4124  20.665  11.721  11.484
37716W        W 4125   4.472   7.858  11.922
37717W        W 4126  10.758   4.763  12.447
37718W        W 4127   0.654  38.019  11.157
37719W        W 4128   1.264  29.735   3.030
37720W        W 4129  40.502  13.272  10.767
37721W        W 4130  20.125  36.901  12.106
37722W        W 4131  27.531  13.381  10.898
37723W        W 4132  33.604  32.135  13.396
37724W        W 4133  23.065  27.432   0.508
37725W        W 4134  27.542  32.421   1.774
37726W        W 4135  36.796  39.554  12.077
37727W        W 4136   2.753  11.886  13.249
37728W        W 4137  29.531  16.777   3.796
37729W        W 4138  40.134  24.223   3.747
37730W        W 4139  20.229  32.043   2.321
37731W        W 4140  28.315   8.128   3.030
37732W        W 4141  37.450  13.320   0.962
37733W        W 4142  40.538  39.444  14.817
37734W        W 4143   8.778  38.076   3.190
37735W        W 4144  40.370  24.043   2.884
37736W        W 4145   1.482   9.126  10.661
37737W        W 4146  26.715  32.057  14.296
37738W        W 4147  40.459   6.575  11.490
37739W        W 4148  28.530  32.909  10.436
37740W        W 4149  22.560  42.958   0.399
37741W        W 4150  37.532  24.035   4.771
37742W        W 4151  43.487  16.874   1.853
37743W        W 4152  20.281  27.139   3.120
37744W        W 4153  22.181  38.014   0.805
37745W        W 4154  12.401  31.159  13.419
37746W        W 4155  43.639  13.689   4.878
37747W        W 4156  23.265  31.446   3.377
37748W        W 4157  18.420  17.451  12.681
37749W        W 4158   4.924   6.668   0.810
37750W        W 4159  38.263  37.311  12.303
37751W        W 4160  33.460  39.349  11.000
37752W        W 4161  35.688   3.571   0.882
37753W        W 4162  33.381  39.782  13.542
37754W        W 4163  24.290  20.085   0.706
37755W        W 4164  13.364  27.703   2.424
37756W        W 4165  13.360  27.485  11.111
37757W        W 4166  25.414  21.283  11.187
37758W        W 4167  19.620  30.095  12.125
37759W        W 4168  24.094   5.433  12.819
37760W        W 4169  21.428  13.767  12.046
37761W        W 4170   8.190  11.260  14.899
37762W        W 4171  37.064  23.962   3.457
37763W        W 4172  31.502  11.909   3.424
37764W        W 4173  16.109  21.802  12.613
37765W        W 4174  40.295  21.269   4.997
37766W        W 4175  20.592  18.310  13.109
37767W        W 4176   1.467  26.061   1.547
37768W        W 4177  17.750  43.246   2.851
37769W        W 4178  34.797  27.840  12.727
37770W        W 4179  31.081  17.313  13.403
37771W        W 4180  42.825  14.248   3.664
37772W        W 4181  26.192  31.888   4.208
37773W        W 4182  42.750  21.416  12.932
37774W        W 4183  43.048  44.016   4.008
37775W        W 4184  17.036  16.359   1.815
37776W        W 4185  14.289   8.673  11.137
37777W        W 4186  23.091  30.089   3.348
37778W        W 4187  40.363   6.851  14.049
37779W        W 4188  29.952  39.122  13.230
37780W        W 4189  18.770  24.191   1.523
37781W        W 4190  18.488  28.218   1.210
37782W        W 4191  32.457  39.001  13.271
37783W        W 4192  16.117  18.082   1.361
37784W        W 4193   8.786  25.129  10.882
37785W        W 4194  43.603  33.231   0.373
37786W        W 4195  29.703  36.112   4.034
37787W        W 4196  27.012  19.695   0.387
37788W        W 4197  39.542   3.333  13.379
37789W        W 4198  37.368   4.237  13.103
37790W        W 4199  30.069  37.495   1.828
37791W        W 4200  41.537   4.917  13.392
37792W        W 4201  26.181  41.172   1.347
37793W        W 4202   9.521   0.762   4.074
37794W        W 4203  20.559  25.019   1.427
37795W        W 4204  14.264  32.164  12.907
37796W        W 4205  44.988  31.430   1.213
37797W        W 4206  33.339  20.078   3.632
37798W        W 4207   4.575  29.372   2.795
37799W        W 4208  21.978  36.070   0.791
37800W        W 4209  36.053  13.868  11.416
37801W        W 4210  17.148  20.281  12.466
37802W        W 4211  43.768  42.894   2.885
37803W        W 4212  39.154  40.894  10.626
37804W        W 4213   1.716   3.744   0.289
37805W        W 4214  39.517   5.462  13.396
37806W        W 4215   6.915  39.192   3.328
37807W        W 4216  16.926   1.856   2.206
37808W        W 4217   8.957  42.456  12.988
37809W        W 4218  25.266  11.165  12.047
37810W        W 4219  18.802   0.017  14.947
37811W        W 4220  18.838  12.274   4.640
37812W        W 4221  26.910  15.836   4.279
37813W        W 4222  37.722  13.626  14.267
37814W        W 4223  39.295  25.468  14.924
37815W        W 4224   8.318  33.984  11.772
37816W        W 4225  16.698   8.110   4.164
37817W        W 4226  13.144  10.876  12.610
37818W        W 4227   0.972  19.292  11.655
37819W        W 4228  38.897  12.078   3.153
37820W        W 4229  31.561   4.556   3.200
37821W        W 4230   5.218  32.684  11.519
37822W        W 4231  25.358   2.536  10.586
37823W        W 4232   9.234   2.547  13.711
37824W        W 4233  16.082  44.412   2.977
37825W        W 4234  19.652  19.307  10.267
37826W        W 4235  33.139  18.723  12.198
37827W        W 4236  12.102  27.186   3.134
37828W        W 4237  31.390  31.185   2.338
37829W        W 4238  38.500   3.886   1.673
37830W        W 4239  31.614  40.769  11.094
37831W        W 4240  37.414  44.783   0.913
37832W        W 4241  44.448   3.414   3.787
37833W        W 4242  29.145   4.846  11.015
37834W        W 4243  34.800  38.756   5.065
37835W        W 4244  16.784  13.786   4.716
37836W        W 4245  31.560  35.958  13.977
37837W        W 4246  11.170  17.841   3.197
37838W        W 4247  14.727  17.298   0.484
37839W        W 4248   7.308  21.781   1.779
37840W        W 4249  17.458   8.580   5.092
37841W        W 4250   6.776  23.736  13.781
37842W        W 4251   6.848  40.041  13.409
37843W        W 4252  10.800  24.699  13.492
37844W        W 4253  27.776   3.897  12.418
37845W        W 4254  33.809   4.025  12.901
37846W        W 4255  38.130  27.906   3.380
37847W        W 4256   2.887  14.152  12.152
37848W        W 4257  39.041  28.065   2.481
37849W        W 4258  14.881  36.277   1.869
37850W        W 4259  30.057  12.258   3.643
37851W        W 4260  31.128  31.173   3.619
37852W        W 4261  38.857  21.366   5.182
37853W        W 4262  38.194  25.654  12.048
37854W        W 4263   4.946  44.530   3.275
37855W        W 4264   9.296  12.139   2.361
37856W        W 4265  35.025  38.566   0.399
37857W        W 4266   8.776  44.424   4.918
37858W        W 4267  11.615  40.657   2.943
37859W        W 4268   4.252  29.298   0.347
37860W        W 4269  12.924   5.259   2.464
37861W        W 4270   6.966  37.329   3.679
37862W        W 4271  17.905  21.152   0.682
37863W        W 4272   0.343  35.275  12.871
37864W        W 4273  17.123  31.048   2.379
37865W        W 4274  37.011  32.623   1.546
37866W        W 4275  40.452  39.034   0.105
37867W        W 4276  14.877  42.935  12.871
37868W        W 4277  42.975   6.806  10.982
37869W        W 4278   7.231  16.027  13.895
37870W        W 4279  25.357  32.089  13.514
37871W        W 4280  29.468   0.837   2.736
37872W        W 4281   2.095  18.649  11.499
37873W        W 4282  33.897  24.360   1.618
37874W        W 4283   7.355  19.675  14.066
37875W        W 4284  34.513  15.346   1.286
37876W        W 4285  15.754  35.238  12.492
37877W        W 4286   3.083  44.220  12.968
37878W        W 4287  38.477  18.601   4.831
37879W        W 4288   5.902  23.283  14.996
37880W        W 4289  21.655   4.842   2.256
37881W        W 4290  17.246  16.058   2.729
37882W        W 4291  33.077  13.717  11.650
37883W        W 4292  41.459  38.132  13.977
37884W        W 4293  35.059   3.099   3.229
37885W        W 4294  11.866  17.424  13.207
37886W        W 4295  26.909  25.569   0.023
37887W        W 4296  16.019   6.326   3.929
37888W        W 4297   7.968  14.353  12.928
37889W        W 4298  22.973  10.662  14.896
37890W        W 4299  37.445  44.816  10.535
37891W        W 4300  11.459  26.229  12.594
37892W        W 4301  13.298  20.676  12.948
37893W        W 4302  25.920   7.369   0.863
37894W        W 4303  20.072  24.601   3.701
37895W        W 4304   4.313  17.037  12.340
37896W        W 4305  22.819  38.605  14.507
37897W        W 4306  44.904  32.094   3.293
37898W        W 4307   5.749   1.359   4.669
37899W        W 4308   2.251  17.267  10.187
37900W        W 4309  25.445  34.198  12.058
37901W        W 4310  33.011   5.917   0.979
37902W        W 4311  27.437  18.321  11.979
37903W        W 4312  13.878  19.655  12.612
37904W        W 4313  12.593  41.952   2.290
37905W        W 4314  23.812  28.025  10.269
37906W        W 4315   8.317  12.213  14.008
37907W        W 4316  38.624  17.151   3.700
37908W        W 4317  31.638  16.110   0.382
37909W        W 4318  21.417  20.274  14.434
37910W        W 4319  17.114  20.303   2.820
37911W        W 4320   1.813   0.182   0.822
37912W        W 4321   6.722  25.972  13.444
37913W        W 4322  11.388  14.019   3.129
37914W        W 4323  10.188  42.708  10.284
37915W        W 4324   1.223  32.833  13.700
37916W        W 4325  32.529  16.125   0.961
37917W        W 4326  15.782  31.892  13.972
37918W        W 4327  12.774  15.564   4.601
37919W        W 4328  29.523  34.495   0.899
37920W        W 4329   8.482   2.368  11.138
37921W        W 4330  42.201   9.814  12.618
37922W        W 4331  21.674  22.134   3.855
37923W        W 4332  23.745  42.871   3.397
37924W        W 4333  37.769  25.983  14.279
37925W        W 4334   2.143  22.652  12.412
37926W        W 4335   2.496  37.521   4.628
37927W        W 4336   3.610  33.658  14.251
37928W        W 4337  22.616  17.338  13.599
37929W        W 4338  34.363  24.240   1.349
37930W        W 4339  23.990   2.399  11.264
37931W        W 4340  23.070  24.020  14.633
37932W        W 4341  12.928  39.075  13.269
37933W        W 4342   5.672  17.331   0.800
37934W        W 4343  33.987   2.808   1.856
37935W        W 4344  26.466  34.644  12.311
37936W        W 4345  32.016  42.968  13.516
37937W        W 4346  24.654   8.381   4.865
37938W        W 4347  39.257  39.940   0.334
37939W        W 4348  19.791  35.522  10.824
37940W        W 4349  21.306  23.297   0.935
37941W        W 4350  13.769  41.037   4.569
37942W        W 4351  37.589  21.481  14.481
37943W        W 4352  15.141   5.815  13.357
37944W        W 4353   6.956  29.522   1.736
37945W        W 4354  35.126  14.570  12.946
37946W        W 4355  42.587  10.948   2.207
37947W        W 4356  21.499   8.785   3.535
37948W        W 4357  19.973   7.358   1.318
37949W        W 4358   3.925  42.461  10.579
37950W        W 4359  26.970  27.566   3.348
37951W        W 4360  31.060  35.184   2.009
37952W        W 4361  15.609  41.867  10.685
37953W        W 4362  21.790   5.219  13.870
37954W        W 4363  41.851  28.632   0.369
37955W        W 4364  26.205  39.751   3.512
37956W        W 4365  24.941  36.813   1.839
37957W        W 4366  12.649  25.464   3.222
37958W        W 4367  33.917  18.637  11.669
37959W        W 4368  38.411  14.306  13.748
37960W        W 4369  30.459  30.011   4.356
37961W        W 4370   0.524  27.249   4.142
37962W        W 4371  22.629   1.271  11.918
37963W        W 4372  37.824  39.421  13.822
37964W        W 4373  18.728  23.049  12.113
37965W        W 4374  43.762   7.719   1.381
37966W        W 4375  12.879  13.994   0.985
37967W        W 4376  23.464  37.584   3.164
37968W        W 4377  13.202  28.701  14.044
37969W        W 4378   6.445  33.426  10.673
37970W        W 4379  19.000  16.130   1.697
37971W        W 4380   7.395  10.609  12.570
37972W        W 4381   9.161   1.006  10.143
37973W        W 4382  23.781  38.309  14.289
37974W        W 4383  36.068  11.682  12.110
37975W        W 4384  33.434  41.396  10.765
37976W        W 4385  23.248  11.213  11.507
37977W        W 4386  10.100  13.889   1.542
37978W        W 4387  24.241  26.204   4.877
37979W        W 4388  34.941  33.731  14.799
37980W        W 4389  24.597  19.511   3.862
37981W        W 4390  34.401  18.862   3.639
37982W        W 4391  37.322  19.994  14.504
37983W        W 4392  31.547   9.149  10.730
37984W        W 4393  41.342  35.982  10.712
37985W        W 4394   7.275   2.146   1.811
37986W        W 4395   5.197  13.650   1.327
37987W        W 4396  21.048  43.762   0.279
37988W        W 4397  33.525  26.111  12.811
37989W        W 4398  43.807  12.637  10.709
37990W        W 4399  28.615  32.101   3.745
37991W        W 4400  44.481   3.910  11.561
37992W        W 4401  24.697  13.746  14.928
37993W        W 4402  16.065  11.609   2.808
37994W        W 4403   0.515  17.659  10.380
37995W        W 4404  25.503  13.252   3.346
37996W        W 4405  29.216  11.497   2.263
37997W        W 4406  32.380  30.677  14.408
37998W        W 4407   7.736  44.988  14.230
37999W        W 4408  26.640  37.187  13.855
38000W        W 4409   4.807  36.967   1.410
38001W        W 4410  29.952  30.449   1.766
38002W        W 4411  36.796  33.535   0.292
38003W        W 4412  19.704  39.596   0.953
38004W        W 4413   5.281   3.694  10.539
38005W        W 4414  19.982   2.425   3.221
38006W        W 4415  40.505  37.424   4.023
38007W        W 4416  31.386  21.163  14.925
38008W        W 4417  27.005  37.331   0.685
38009W        W 4418  21.564  35.936   5.366
38010W        W 4419  33.689  26.665  13.601
38011W        W 4420  34.636  23.922  13.483
38012W        W 4421  13.822  11.551  12.540
38013W        W 4422  31.354  12.401   3.703
38014W        W 4423   1.024   2.201   1.279
38015W        W 4424  24.171  44.889   0.518
38016W        W 4425  33.787  14.329  13.454
38017W        W 4426   1.026  12.728   2.838
38018W        W 4427  25.067  30.648   0.401
38019W        W 4428  42.446   5.209  11.823
38020W        W 4429  36.860  39.559   4.599
38021W        W 4430  21.300  40.917   0.820
38022W        W 4431  12.440  28.891   0.790
38023W        W 4432  27.625  37.037  13.481
38024W        W 4433  42.574   6.673   4.917
38025W        W 4434   1.334  39.363   3.883
38026W        W 4435  18.622  16.661   3.344
38027W        W 4436   1.467   9.908  13.930
38028W        W 4437  37.948  35.051   2.928
38029W        W 4438  31.088   1.527  13.801
38030W        W 4439  35.860  32.603   3.169
38031W        W 4440   9.949  14.999  12.151
38032W        W 4441  44.038   9.376  11.563
38033W        W 4442   8.286  22.211  13.318
38034W        W 4443   8.722  42.446   1.904
38035W        W 4444   0.615  18.774   1.953
38036W        W 4445   0.817   9.730   4.620
38037W        W 4446  10.616  33.261   3.143
38038W        W 4447  33.011  44.682  13.021
38039W        W 4448  19.173   4.696   1.347
38040W        W 4449  13.198   9.236  14.564
38041W        W 4450  24.093   1.206   2.097
38042W        W 4451  27.060  18.571   4.891
38043W        W 4452  35.673   1.653   1.603
38044W        W 4453  38.578   4.513   3.234
38045W        W 4454  13.383  15.186   4.098
38046W        W 4455  30.165  23.488   0.812
38047W        W 4456  20.426  26.066  13.480
38048W        W 4457  32.598  28.396   4.664
38049W        W 4458  41.076  44.985  12.967
38050W        W 4459  20.997  39.814  11.421
38051W        W 4460   3.009  34.595   2.259
38052W        W 4461  39.343  32.189  13.485
38053W        W 4462  14.730  33.158  13.549
38054W        W 4463  44.287  43.968  11.692
38055W        W 4464  29.910   3.715  13.769
38056W        W 4465  32.653  20.363  11.423
38057W        W 4466  20.339  15.866   1.372
38058W        W 4467  20.493  32.027  12.931
38059W        W 4468  44.016  16.682   2.454
38060W        W 4469  27.060  32.943  11.836
38061W        W 4470   8.361  39.568   2.591
38062W        W 4471  29.649   4.365  10.253
38063W        W 4472  16.662  24.988   0.377
38064W        W 4473  44.091  40.855   4.134
38065W        W 4474  43.008  11.678  12.941
38066W        W 4475  26.760  17.911  12.363
38067W        W 4476  41.891  16.415   2.802
38068W        W 4477  43.099  13.278  11.732
38069W        W 4478  39.126  44.365   3.685
38070W        W 4479  40.522  36.068   2.857
38071W        W 4480  11.364  14.202  10.702
38072W        W 4481  30.866  30.748  12.948
38073W        W 4482  30.700  25.785  14.828
38074W        W 4483  29.597  15.069   3.121
38075W        W 4484  39.397   2.311  12.015
38076W        W 4485  42.038  29.871   2.706
38077W        W 4486   6.023  16.879  13.550
38078W        W 4487  43.739  16.933   3.204
38079W        W 4488  36.124  20.296  11.535
38080W        W 4489  35.442  40.990   4.821
38081W        W 4490   1.371  43.374   4.640
38082W        W 4491  40.792  26.595  13.774
38083W        W 4492  14.754  14.688  13.878
38084W        W 4493  40.121  31.620   2.868
38085W        W 4494  21.308  37.323  12.909
38086W        W 4495  19.252   6.461   0.356
38087W        W 4496   4.715  17.284  14.021
38088W        W 4497  14.088  22.121  14.371
38089W        W 4498   1.799   3.686  12.850
38090W        W 4499  16.606  15.272  11.611
38091W        W 4500   3.907  37.137   4.005
38092W        W 4501  15.988  25.197   5.190
38093W        W 4502  15.545   0.382   0.377
38094W        W 4503  30.994  27.895  12.480
38095W        W 4504  20.599  20.787  12.818
38096W        W 4505  38.755  35.496   1.405
38097W        W 4506  15.580   1.626   2.996
38098W        W 4507  22.361  25.244   4.998
38099W        W 4508  27.700  32.308  13.379
38100W        W 4509   5.713   5.683  14.626
38101W        W 4510  40.404  41.308   1.325
38102W        W 4511   4.875  43.175  14.294
38103W        W 4512  29.534   2.738  10.677
38104W        W 4513  39.260  35.619  14.412
38105W        W 4514  34.881  12.391   4.508
38106W        W 4515  11.559  40.529   3.718
38107W        W 4516  35.410  29.492   3.184
38108W        W 4517  19.684   3.360  11.351
38109W        W 4518   5.050  25.215   9.797
38110W        W 4519  39.762  33.583   1.898
38111W        W 4520  17.034  37.096   2.816
38112W        W 4521  42.471   8.899   0.318
38113W        W 4522  24.014   2.269  10.764
38114W        W 4523  10.867  38.486   0.350
38115W        W 4524  33.032  18.598  10.654
38116W        W 4525   8.081  37.563  10.292
38117W        W 4526  16.192  25.415   5.632
38118W        W 4527   4.312  43.245  10.772
38119W        W 4528  28.058  15.411   2.822
38120W        W 4529  24.255  21.752  12.167
38121W        W 4530  17.729  32.565  13.622
38122W        W 4531  41.006  22.176   2.176
38123W        W 4532  12.899  36.873   1.770
38124W        W 4533  26.131   6.106  13.218
38125W        W 4534  12.425  41.471  13.888
38126W        W 4535  29.642  39.045  14.453
38127W        W 4536  35.894   0.996   2.749
38128W        W 4537  22.021  18.471  13.861
38129W        W 4538   3.451  34.105   1.283
38130W        W 4539  19.699  39.589  11.601
38131W        W 4540  34.967  35.609  11.991
38132W        W 4541  14.322  38.567   0.756
38133W        W 4542   2.687  36.948  10.891
38134W        W 4543  31.686  13.857   1.730
38135W        W 4544   2.548   6.008   2.824
38136W        W 4545   5.709  44.075  14.151
38137W        W 4546  17.317  30.045  14.782
38138W        W 4547   7.437   9.727   4.908
38139W        W 4548  11.249  18.229  13.989
38140W        W 4549  34.596  39.838   1.473
38141W        W 4550  35.136  12.699  13.943
38142W        W 4551  36.028   3.176   0.907
38143W        W 4552   2.895   7.157  11.247
38144W        W 4553  28.097   5.043  12.162
38145W        W 4554   6.346  32.639  11.612
38146W        W 4555  20.521  31.977  13.872
38147W        W 4556  23.243  32.427  13.379
38148W        W 4557  13.308   6.369   0.436
38149W        W 4558  37.051  32.148  10.582
38150W        W 4559   1.429  24.066  10.857
38151W        W 4560  44.630  31.959  13.287
38152W        W 4561  38.434  40.726  11.419
38153W        W 4562  44.719  27.436  14.819
38154W        W 4563  12.127  18.187  14.782
38155W        W 4564  37.694   4.196   4.105
38156W        W 4565  40.278  24.576   1.286
38157W        W 4566  14.742  25.481   1.818
38158W        W 4567  26.038   6.854   0.773
38159W        W 4568  20.212  13.149   9.967
38160W        W 4569  44.498  42.411  10.854
38161W        W 4570  41.391  12.394   2.031
38162W        W 4571  11.198  13.320   0.023
38163W        W 4572  13.678   4.172  12.598
38164W        W 4573   1.896  14.922   1.258
38165W        W 4574  12.156  25.305   3.207
38166W        W 4575  13.062  40.573   1.162
38167W        W 4576  44.964  44.477   0.026
38168W        W 4577  40.373   2.258   3.256
38169W        W 4578  43.053  32.121  10.536
38170W        W 4579   6.967  33.980   3.291
38171W        W 4580  15.219  17.572  13.883
38172W        W 4581  15.626   9.211   4.095
38173W        W 4582   2.553  15.307  11.226
38174W        W 4583   9.210   4.009  13.489
38175W        W 4584   5.942  11.851  10.638
38176W        W 4585  12.483  26.164   1.192
38177W        W 4586   0.146   3.444   0.495
38178W        W 4587  28.726  18.061  11.634
38179W        W 4588  41.922  10.409   0.962
38180W        W 4589  37.442  24.887  11.993
38181W        W 4590  30.023   6.420  13.621
38182W        W 4591  38.521  35.586   3.671
38183W        W 4592  37.422  33.274   2.488
38184W        W 4593   2.823  32.610  14.042
38185W        W 4594   0.422  41.605   0.823
38186W        W 4595  36.110  41.891  12.252
38187W        W 4596   1.500  10.952  11.950
38188W        W 4597  22.784   2.400   4.792
38189W        W 4598  15.662  38.859   2.403
38190W        W 4599  21.887   5.947   2.730
38191W        W 4600   2.564  36.387  12.938
38192W        W 4601   7.321  35.511  12.068
38193W        W 4602  18.262  40.604  14.445
38194W        W 4603  32.512  21.709  12.432
38195W        W 4604  10.851  43.526  13.468
38196W        W 4605  29.765   7.635   3.765
38197W        W 4606  27.100  33.653   3.303
38198W        W 4607  39.992  41.829  12.251
38199W        W 4608  14.338  37.846  14.308
38200W        W 4609   6.966  11.831  12.725
38201W        W 4610  37.815  33.945  12.560
38202W        W 4611   8.371  13.816   0.868
38203W        W 4612  17.716  24.122  11.665
38204W        W 4613   4.202  35.518  12.924
38205W        W 4614  31.326  12.679  12.471
38206W        W 4615   7.890  40.160   4.053
38207W        W 4616  44.817   1.295   0.895
38208W        W 4617  35.133  39.168  12.128
38209W        W 4618   6.339  36.398   2.406
38210W        W 4619  34.307  38.975  13.923
38211W        W 4620  12.058   5.430  13.062
38212W        W 4621   7.434  43.964  13.237
38213W        W 4622  41.261  15.484   1.311
38214W        W 4623   7.672  19.172   2.341
38215W        W 4624  25.572  40.792   0.222
38216W        W 4625   3.147  15.581   1.167
38217W        W 4626  15.031  16.770  12.778
38218W        W 4627  23.111  32.611  11.562
38219W        W 4628  36.749  44.252  12.550
38220W        W 4629  12.281  32.516  13.831
38221W        W 4630   9.741  15.143  13.002
38222W        W 4631   2.378  21.470   2.307
38223W        W 4632  12.762  32.078   2.740
38224W        W 4633  37.531  29.683  10.489
38225W        W 4634  30.638   7.715  12.862
38226W        W 4635  31.557  18.273  12.623
38227W        W 4636  26.425  15.994  13.908
38228W        W 4637  29.015  31.002   2.658
38229W        W 4638  43.336   9.102  12.482
38230W        W 4639  43.749   3.630  14.767
38231W        W 4640  31.895  24.160  13.318
38232W        W 4641   0.281   2.474   0.333
38233W        W 4642  15.769  39.307   0.766
38234W        W 4643  41.631  17.336  12.816
38235W        W 4644  28.749  18.329   2.243
38236W        W 4645   2.057  12.856   2.615
38237W        W 4646  29.494  39.797   2.259
38238W        W 4647   6.464  12.130   0.925
38239W        W 4648  44.534  14.807   2.226
38240W        W 4649   0.695  39.431  12.372
38241W        W 4650  19.808  16.053  14.313
38242W        W 4651   4.848   2.303   2.583
38243W        W 4652  37.488  15.862  14.245
38244W        W 4653  34.052   6.902  14.500
38245W        W 4654  25.797  35.596  13.678
38246W        W 4655   3.046  14.095  13.985
38247W        W 4656  15.288  30.475   0.495
38248W        W 4657  35.808  27.277   2.772
38249W        W 4658  42.339  13.161  12.350
38250W        W 4659  31.251  39.289   3.298
38251W        W 4660   0.555   4.643  12.443
38252W        W 4661  41.873   3.327  14.050
38253W        W 4662  18.075  26.072  11.733
38254W        W 4663   6.438  10.186  14.467
38255W        W 4664  31.055  15.600  12.987
38256W        W 4665  43.011  22.669   2.679
38257W        W 4666   8.775  28.428  12.997
38258W        W 4667  19.794   0.812  11.647
38259W        W 4668  38.885  39.689   1.914
38260W        W 4669  25.528   3.326  12.463
38261W        W 4670  18.034  20.429  12.892
38262W        W 4671  40.057  18.883   2.367
38263W        W 4672  26.394  15.178   2.334
38264W        W 4673  12.245  16.050   2.877
38265W        W 4674   2.923  17.660  12.784
38266W        W 4675  12.550  42.996   3.678
38267W        W 4676  42.645  20.635   3.862
38268W        W 4677  10.759  29.045   4.720
38269W        W 4678   1.709  14.470   1.374
38270W        W 4679  39.842  40.854   3.116
38271W        W 4680  25.209  22.038   4.575
38272W        W 4681  20.973  15.341   3.791
38273W        W 4682  20.474  34.640  11.199
38274W        W 4683  35.930   8.939   4.545
38275W        W 4684  23.218  12.156  13.356
38276W        W 4685  38.510   2.775   2.725
38277W        W 4686  11.992  32.563   0.446
38278W        W 4687  27.763  43.742   2.690
38279W        W 4688   0.743  41.346   3.159
38280W        W 4689  35.169  29.193  10.874
38281W        W 4690   3.381  25.720   4.848
38282W        W 4691  13.419   4.615  10.337
38283W        W 4692  41.820  43.550   3.279
38284W        W 4693  31.547  28.838  11.170
38285W        W 4694   3.844  34.029  12.952
38286W        W 4695  40.910  39.709   1.010
38287W        W 4696  36.876  38.428   2.176
38288W        W 4697  15.420  16.053   2.291
38289W        W 4698  37.578  44.724  13.452
38290W        W 4699   6.131  30.397   2.294
38291W        W 4700  15.080   6.276   3.539
38292W        W 4701  33.542  11.260   4.604
38293W        W 4702  42.768  34.112  11.466
38294W        W 4703  43.993  23.509   4.117
38295W        W 4704  30.963  38.092  10.985
38296W        W 4705  24.964  42.253  13.886
38297W        W 4706  15.984   1.521   1.348
38298W        W 4707  30.343  16.535  14.512
38299W        W 4708  12.755  29.095  12.547
38300W        W 4709  33.655  44.894   3.456
38301W        W 4710  13.862  10.913   3.124
38302W        W 4711  38.458  28.700  14.604
38303W        W 4712   0.780  16.592   0.888
38304W        W 4713  38.285  33.099  12.504
38305W        W 4714   6.245  25.423   0.766
38306W        W 4715  35.770  23.232  14.573
38307W        W 4716  22.001  23.146  13.340
38308W        W 4717  32.703  43.683   0.447
38309W        W 4718   5.389  40.113  14.030
38310W        W 4719  17.589  25.249   1.798
38311W        W 4720  18.058  12.636   1.404
38312W        W 4721  31.447  30.168  12.588
38313W        W 4722  12.762  34.668  11.948
38314W        W 4723  11.745  14.934  13.383
38315W        W 4724   2.678   5.904  14.923
38316W        W 4725  29.055  13.436   4.550
38317W        W 4726  18.487  18.278  13.326
38318W        W 4727  33.312  14.782  14.831
38319W        W 4728   6.257   3.421   5.289
38320W        W 4729  14.799   1.743  10.220
38321W        W 4730  42.220  13.734   1.835
38322W        W 4731  11.255  42.016  10.688
38323W        W 4732  42.121  15.713   0.244
38324W        W 4733  18.056  16.340  13.354
38325W        W 4734  21.682  31.196   2.244
38326W        W 4735  22.302  30.703  13.777
38327W        W 4736  28.126  21.639   9.924
38328W        W 4737  43.296  24.250  11.576
38329W        W 4738  25.400  37.404   9.903
38330W        W 4739  13.590  35.700   1.909
38331W        W 4740   9.579  42.961  12.506
38332W        W 4741  29.265  23.996   4.486
38333W        W 4742  35.307   5.414  13.524
38334W        W 4743  33.552  21.466   3.318
38335W        W 4744  39.331   2.590   0.046
38336W        W 4745  28.210  16.024   1.618
38337W        W 4746  27.153  35.628  10.432
38338W        W 4747  17.353  22.787  14.894
38339W        W 4748  16.154   6.796   2.146
38340W        W 4749  41.850  28.592   1.322
38341W        W 4750  39.599   9.137   0.337
38342W        W 4751  19.151  13.607   1.714
38343W        W 4752  19.875  10.248   0.712
38344W        W 4753  10.415  19.677  10.851
38345W        W 4754  30.326   4.054   2.648
38346W        W 4755  19.346  31.292   4.011
38347W        W 4756  12.302   7.716  13.849
38348W        W 4757  32.179  37.756  13.365
38349W        W 4758  20.689   5.595   1.724
38350W        W 4759  14.646  44.411  11.608
38351W        W 4760  30.501   4.826  12.111
38352W        W 4761  24.161  40.657   2.986
38353W        W 4762  11.182  12.437  12.451
38354W        W 4763  44.719  11.351   0.292
38355W        W 4764  37.653  23.044   2.758
38356W        W 4765  11.644  24.743   3.882
38357W        W 4766   1.877  17.211  13.327
38358W        W 4767  21.478   8.185  13.573
38359W        W 4768   2.438  11.725   3.817
38360W        W 4769   4.163   2.786  12.529
38361W        W 4770  21.470   7.731  12.585
38362W        W 4771   1.840  41.797  12.449
38363W        W 4772  16.465  21.154  13.276
38364W        W 4773  25.150  14.500   2.368
38365W        W 4774  26.040   6.788  13.751
38366W        W 4775  10.829  36.798  12.970
38367W        W 4776   8.749  13.362   1.916
38368W        W 4777   8.110  38.746   0.274
38369W        W 4778  37.847   6.726   3.714
38370W        W 4779   7.316  22.290   3.601
38371W        W 4780  23.661  10.381  14.416
38372W        W 4781   6.668  17.234  12.064
38373W        W 4782  16.739  14.225  13.308
38374W        W 4783  39.440  29.489   3.687
38375W        W 4784   7.626  38.112  14.837
38376W        W 4785  21.069  44.687   1.213
38377W        W 4786  21.315  31.438  12.820
38378W        W 4787  11.211  24.328  11.414
38379W        W 4788  28.129  26.547   1.807
38380W        W 4789  34.854  20.575   2.377
38381W        W 4790  44.215   7.002  12.696
38382W        W 4791   6.243  13.230  10.704
38383W        W 4792   4.424   0.855  11.120
38384W        W 4793  44.570  43.911   3.942
38385W        W 4794  11.010   7.783  14.476
38386W        W 4795  14.534  15.133  14.018
38387W        W 4796  30.072  26.222  14.461
38388W        W 4797  36.145  28.445  13.475
38389W        W 4798  37.422  10.617  14.343
38390W        W 4799  41.425   3.892  12.606
38391W        W 4800  35.473  15.672   0.420
38392W        W 4801  37.559   6.882   1.462
38393W        W 4802  11.407  43.969  10.629
38394W        W 4803  33.093  24.239   2.179
38395W        W 4804  24.835  13.819  11.150
38396W        W 4805  39.526  11.489  12.733
38397W        W 4806  40.751  32.887   2.296
38398W        W 4807  34.656  18.801  14.047
38399W        W 4808  33.070  31.740  14.954
38400W        W 4809   8.246   3.292   3.221
38401W        W 4810  20.145  10.290  14.496
38402W        W 4811  25.938  24.388  10.619
38403W        W 4812  19.631  27.154   0.425
38404W        W 4813  12.771  19.128  13.783
38405W        W 4814   9.864  36.707   1.688
38406W        W 4815  10.384  43.307  12.423
38407W        W 4816  29.397   7.136  10.689
38408W        W 4817   3.908  41.502  10.697
38409W        W 4818  23.767  27.004   2.136
38410W        W 4819   8.274  21.011  10.515
38411W        W 4820  38.606  33.986   3.634
38412W        W 4821  14.102  39.849   3.279
38413W        W 4822   6.726  12.473  13.603
38414W        W 4823  28.656  42.760   0.010
38415W        W 4824  26.494  27.518   4.203
38416W        W 4825  37.046  22.230   1.234
38417W        W 4826  29.992  32.840   3.208
38418W        W 4827  18.611  41.296  12.547
38419W        W 4828   2.557  34.826  12.957
38420W        W 4829  31.108   2.352   1.320
38421W        W 4830  25.393  19.052   0.967
38422W        W 4831  26.496   3.824  11.860
38423W        W 4832  40.294  44.937   5.160
38424W        W 4833  36.235  17.284   5.351
38425W        W 4834  30.105  20.820  10.957
38426W        W 4835  44.001   7.666  10.673
38427W        W 4836   2.818   7.450  10.823
38428W        W 4837  39.945  10.386   4.232
38429W        W 4838  35.509  23.057  13.156
38430W        W 4839  29.725  35.345   0.635
38431W        W 4840   1.481  19.185   2.111
38432W        W 4841  42.408   6.439   0.504
38433W        W 4842   7.384   3.712  11.526
38434W        W 4843  42.889  35.088  10.621
38435W        W 4844  20.958  16.098   3.136
38436W        W 4845   8.866  25.952   2.697
38437W        W 4846  35.203   3.762   4.803
38438W        W 4847  28.220  18.530   0.875
38439W        W 4848  20.049  23.273   4.680
38440W        W 4849  11.503   1.430   0.598
38441W        W 4850  35.080   0.910  14.448
38442W        W 4851  31.262   6.234  12.490
38443W        W 4852  31.127  32.192   5.223
38444W        W 4853  18.031  28.066  12.815
38445W        W 4854  31.950   8.781   0.409
38446W        W 4855  23.154   2.409  13.061
38447W        W 4856  40.147   8.837  12.458
38448W        W 4857   0.493   8.128  10.988
38449W        W 4858  34.143  23.791  13.813
38450W        W 4859  33.422  38.363   2.724
38451W        W 4860  11.869   6.847  11.908
38452W        W 4861  30.149  26.532   1.744
38453W        W 4862  11.298  41.409   2.406
38454W        W 4863  23.564  33.439   3.735
38455W        W 4864   6.702  42.584  11.422
38456W        W 4865  35.878  10.667  11.993
38457W        W 4866  12.928  38.975   0.834
38458W        W 4867  35.069  13.362  10.789
38459W        W 4868  26.177  44.015  12.202
38460W        W 4869   3.668  23.494   4.111
38461W        W 4870   5.694  10.875  10.921
38462W        W 4871  37.596  29.426   1.694
38463W        W 4872  31.674  26.704   1.044
38464W        W 4873  11.116  13.394   4.868
38465W        W 4874   3.882  44.034  13.358
38466W        W 4875   2.600  24.946  12.867
38467W        W 4876  34.590  18.688  14.563
38468W        W 4877  32.036  37.499   2.277
38469W        W 4878   2.753  17.502   1.835
38470W        W 4879  30.622  11.578   0.079
38471W        W 4880  13.387   1.465   1.816
38472W        W 4881  25.961   4.393   4.387
38473W        W 4882   0.186  42.416  10.340
38474W        W 4883   2.322   0.851   1.171
38475W        W 4884   4.995  15.433  12.541
38476W        W 4885  37.554  39.496  11.169
38477W        W 4886  39.356  12.381   3.168
38478W        W 4887  28.865  41.135   2.179
38479W        W 4888  31.471  12.710  10.761
38480W        W 4889  25.703  20.762   3.305
38481W        W 4890  21.785   3.712   4.344
38482W        W 4891  19.287  42.414   4.207
38483W        W 4892  43.281  18.349   0.821
38484W        W 4893  22.688  24.057   1.152
38485W        W 4894   6.366  29.508  13.170
38486W        W 4895  15.641  34.592   2.354
38487W        W 4896  36.988  41.427   3.788
38488W        W 4897   9.679  38.589   3.177
38489W        W 4898  24.142   0.799  12.820
38490W        W 4899   1.512  16.852   1.408
38491W        W 4900   4.320  15.198  14.368
38492W        W 4901   5.152  38.811   3.773
38493W        W 4902  14.750  25.673  11.514
38494W        W 4903  25.208   3.951  14.307
38495W        W 4904   4.291  10.498   2.870
38496W        W 4905   5.343  35.514  13.743
38497W        W 4906  17.603  36.631   0.357
38498W        W 4907  41.471  34.585   4.764
38499W        W 4908   9.426  44.289   2.266
38500W        W 4909  20.993   9.946   2.350
38501W        W 4910  11.463  44.535  10.833
38502W        W 4911  34.348  22.679  13.018
38503W        W 4912  29.527  40.915   2.341
38504W        W 4913   5.623  31.047  13.069
38505W        W 4914  30.960  40.075  13.545
38506W        W 4915  28.043  10.166  11.448
38507W        W 4916  43.455  27.997  12.794
38508W        W 4917  11.830   1.880   4.727
38509W        W 4918  18.041  42.116   3.023
38510W        W 4919  27.612  35.080  14.315
38511W        W 4920  13.521  37.876   1.822
38512W        W 4921   1.036   7.750   4.992
38513W        W 4922  12.792   6.349  10.796
38514W        W 4923   7.652  25.679   2.382
38515W        W 4924   7.815  25.611   0.480
38516W        W 4925   0.737   8.391   1.418
38517W        W 4926  42.072  10.675  13.184
38518W        W 4927  26.258   6.108  11.561
38519W        W 4928   6.916  29.657  12.892
38520W        W 4929   1.367  16.537   2.355
38521W        W 4930   5.829  16.390   0.777
38522W        W 4931  40.014  17.924  10.471
38523W        W 4932  22.521  29.000   2.409
38524W        W 4933  40.054   6.597   3.352
38525W        W 4934  16.749   3.301   0.943
38526W        W 4935  35.444  18.861  12.610
38527W        W 4936  42.032  16.577   1.300
38528W        W 4937  24.132  44.418   0.692
38529W        W 4938  20.633  31.360  10.551
38530W        W 4939  39.398  25.185   1.848
38531W        W 4940  41.430   6.570  12.973
38532W        W 4941  24.718   4.650   0.339
38533W        W 4942  35.932  31.314  10.694
38534W        W 4943  21.988  11.094  10.803
38535W        W 4944  22.122   2.881   3.446
38536W        W 4945   0.866  43.115  10.713
38537W        W 4946  29.177  19.577  14.467
38538W        W 4947   8.760  43.930  13.607
38539W        W 4948  24.279   9.703  11.583
38540W        W 4949  15.208   2.261  12.205
38541W        W 4950  30.439  18.747   0.903
38542W        W 4951  26.965  38.056   3.924
38543W        W 4952  13.375  25.417   4.641
38544W        W 4953  39.570   8.333  11.129
38545W        W 4954  22.803  31.202   3.900
38546W        W 4955  28.298  43.063  12.638
38547W        W 4956   6.751   5.256   2.608
38548W        W 4957   7.337   8.420   1.069
38549W        W 4958  41.226  38.611   2.880
38550W        W 4959  40.845  26.112   2.297
38551W        W 4960  12.680  43.235   0.927
38552W        W 4961  12.044  34.895  13.160
38553W        W 4962   2.437   4.719  13.429
38554W        W 4963  26.591   6.760   0.294
38555W        W 4964  31.269   6.854   2.363
38556W        W 4965  27.571  20.507   1.314
38557W        W 4966   5.886  40.031   3.747
38558W        W 4967  37.470  44.335  11.416
38559W        W 4968  38.567  11.710  14.998
38560W        W 4969  15.622  10.248  12.100
38561W        W 4970  43.657  29.068   1.820
38562W        W 4971  10.330   3.546   3.526
38563W        W 4972   4.301  35.139   0.960
38564W        W 4973  38.075  15.882  13.763
38565W        W 4974  25.059  31.086  10.684
38566W        W 4975  40.511   1.425   4.341
38567W        W 4976  12.154  27.929  14.615
38568W        W 4977   6.973   1.343  13.846
38569W        W 4978  15.061  35.820  10.670
38570W        W 4979  11.332  44.972   0.138
38571W        W 4980   7.747  20.481   1.847
38572W        W 4981  15.136  31.229   4.101
38573W        W 4982   9.384  34.846   1.780
38574W        W 4983  38.449  17.515   0.851
38575W        W 4984  22.513   3.872  12.576
38576W        W 4985  23.532   2.670   0.775
38577W        W 4986  25.053  11.886   2.976
38578W        W 4987   6.823  23.329   2.656
38579W        W 4988  40.516  19.555   2.898
38580W        W 4989  32.559  41.926  12.138
38581W        W 4990   5.263  29.588   2.300
38582W        W 4991  17.819  39.545  10.311
38583W        W 4992  17.024  34.431   3.223
38584W        W 4993  11.744  30.622  10.316
38585W        W 4994  34.537  12.594  10.464
38586W        W 4995   3.463  12.079   4.642
38587W        W 4996  32.400   8.980   4.027
38588W        W 4997  16.834  16.374   2.729
38589W        W 4998  23.438  21.581   3.234
38590W        W 4999  36.426  28.228  14.473
38591W        W 5000  43.007  23.464  11.111
38592W        W 5001  41.205   0.803   1.801
38593W        W 5002  19.673  44.460   4.941
38594W        W 5003  42.103  17.086   4.224
38595W        W 5004  10.175  36.879   2.755
38596W        W 5005  39.939  38.396  13.559
38597W        W 5006  34.962  26.616   3.804
38598W        W 5007   9.746  32.909   0.729
38599W        W 5008   7.615  26.634  14.105
38600W        W 5009  26.998   9.514  11.155
38601W        W 5010  19.343  13.710   2.618
38602W        W 5011  12.614  18.147   3.251
38603W        W 5012   0.389  40.780   4.763
38604W        W 5013   6.674  33.134   3.599
38605W        W 5014   5.499  11.396   4.717
38606W        W 5015  33.054  29.385  11.381
38607W        W 5016  34.001  34.282   5.004
38608W        W 5017  44.838  13.003  13.956
38609W        W 5018  15.109   4.148   3.229
38610W        W 5019  13.756  20.374  12.096
38611W        W 5020  44.372  41.849   2.123
38612W        W 5021   7.153  21.785   2.741
38613W        W 5022   1.212  37.090   0.442
38614W        W 5023  41.509  18.998   2.849
38615W        W 5024  35.173  29.134   2.835
38616W        W 5025   0.611  20.427  12.950
38617W        W 5026   6.391  20.510  13.991
38618W        W 5027  22.879   7.313  13.831
38619W        W 5028   7.374  23.508  14.980
38620W        W 5029  26.431   1.847   3.718
38621W        W 5030   6.163  17.708   0.345
38622W        W 5031  11.676  15.813  12.253
38623W        W 5032  22.417   0.362  14.481
38624W        W 5033  10.730  19.329   3.738
38625W        W 5034  24.751  38.561   4.366
38626W        W 5035   6.698  33.962   1.761
38627W        W 5036  16.499  35.972  10.479
38628W        W 5037   7.793  41.039  12.025
38629W        W 5038  41.913  42.036   0.726
38630W        W 5039   2.762  18.118  12.543
38631W        W 5040  10.472   3.694   3.056
38632W        W 5041  21.594   4.326   3.712
38633W        W 5042  42.548  25.925   3.829
38634W        W 5043   4.841  24.902  14.919
38635W        W 5044  20.193  39.204   0.581
38636W        W 5045   2.391  18.692  14.588
38637W        W 5046  40.330  11.333  13.219
38638W        W 5047  33.776  41.781   0.694
38639W        W 5048  29.313  11.287   3.603
38640W        W 5049  35.428  39.577   2.954
38641W        W 5050  21.710  21.121   0.514
38642W        W 5051   5.300   6.773   2.615
38643W        W 5052   4.983   2.423  10.700
38644W        W 5053  28.015  42.760  12.157
38645W        W 5054  13.358  22.606   1.645
38646W        W 5055  29.928  23.258   0.109
38647W        W 5056  20.562  34.437   3.078
38648W        W 5057  25.247  35.409  11.183
38649W        W 5058   3.383  22.879   0.084
38650W        W 5059  22.349  42.316   3.518
38651W        W 5060  12.379  13.579  13.383
38652W        W 5061  18.129  31.501  14.851
38653W        W 5062   1.895   7.300  13.379
38654W        W 5063  22.800   9.831  11.203
38655W        W 5064  28.150  28.448   1.900
38656W        W 5065   4.706  35.595  12.907
38657W        W 5066  41.312  40.422  10.489
38658W        W 5067  28.010  23.255  13.037
38659W        W 5068  18.781  28.534   4.145
38660W        W 5069  25.470  16.092  14.583
38661W        W 5070   0.431  28.943   4.948
38662W        W 5071  24.912  12.207  14.427
38663W        W 5072  14.067  41.553  11.626
38664W        W 5073  28.118  32.999  13.839
38665W        W 5074  33.008  16.490  11.107
38666W        W 5075  35.065  26.526   4.707
38667W        W 5076  18.998  17.570   0.857
38668W        W 5077  44.735  18.011  14.818
38669W        W 5078  27.012   0.559  11.397
38670W        W 5079  31.135  22.111   1.360
38671W        W 5080  30.566  13.385   4.117
38672W        W 5081   7.167   8.175  14.773
38673W        W 5082  34.961  27.027   0.382
38674W        W 5083  40.088  22.694  12.620
38675W        W 5084  11.814  44.770  13.480
38676W        W 5085  42.357  25.211  14.002
38677W        W 5086   1.301  18.608  12.466
38678W        W 5087  24.002  40.441  13.450
38679W        W 5088   4.797  35.707   2.949
38680W        W 5089  38.357   9.646  10.566
38681W        W 5090   2.297   5.995  11.463
38682W        W 5091   6.836  24.430  11.610
38683W        W 5092   7.348  43.779  13.744
38684W        W 5093  15.649  29.144  12.101
38685W        W 5094  13.570  36.033  10.699
38686W        W 5095  29.481  34.322  13.025
38687W        W 5096  37.107  37.839  10.770
38688W        W 5097   3.370  19.097  12.363
38689W        W 5098  33.353   5.765   1.395
38690W        W 5099  35.545  21.273  12.333
38691W        W 5100  24.279  24.985  14.852
38692W        W 5101  41.381  28.467   0.190
38693W        W 5102  23.195  25.961  13.289
38694W        W 5103  29.490   9.505  12.334
38695W        W 5104  18.579  20.498   2.669
38696W        W 5105  38.026  19.140   4.414
38697W        W 5106  30.446  42.354  12.107
38698W        W 5107  42.350  31.937   2.417
38699W        W 5108  42.791   1.707   0.405
38700W        W 5109  44.453  22.042   4.645
38701W        W 5110  20.537  10.625  14.489
38702W        W 5111   9.582  39.833   0.332
38703W        W 5112  12.388  20.564   2.672
38704W        W 5113   3.620   4.252   0.900
38705W        W 5114  39.367  17.882  11.342
38706W        W 5115  42.446  32.766  11.516
38707W        W 5116  35.022  21.919   1.329
38708W        W 5117  25.210  35.880   4.805
38709W        W 5118   1.184  23.111   3.227
38710W        W 5119  19.626   9.145  14.408
38711W        W 5120  27.166  42.566  13.929
38712W        W 5121  33.409  40.809   3.275
38713W        W 5122   8.793  18.065   4.571
38714W        W 5123   8.188  18.254  14.011
38715W        W 5124  24.530  37.447  11.301
38716W        W 5125  41.440  14.868   2.154
38717W        W 5126   2.194  14.050   0.956
38718W        W 5127  36.022   1.418  14.422
38719W        W 5128  32.740  29.762   2.715
38720W        W 5129  29.970  15.834   2.810
38721W        W 5130  14.367  13.273  14.403
38722W        W 5131   0.726  33.710  10.383
38723W        W 5132   4.858   8.383   2.275
38724W        W 5133   3.186   5.882  14.697
38725W        W 5134  26.272  31.042  14.319
38726W        W 5135  10.310  28.995   3.785
38727W        W 5136  44.922  12.736   2.867
38728W        W 5137  34.955  32.030   0.324
38729W        W 5138  23.483  35.809   0.786
38730W        W 5139   5.335  12.593   1.274
38731W        W 5140  32.626  39.145   3.212
38732W        W 5141  18.008  40.973  13.901
38733W        W 5142  24.037   1.249   0.776
38734W        W 5143  33.551  28.552  14.518
38735W        W 5144  14.841  23.141  10.672
38736W        W 5145  32.980  33.141   3.884
38737W        W 5146  10.650  40.990   0.800
38738W        W 5147   3.692  29.588   3.788
38739W        W 5148  44.665  20.424  13.322
38740W        W 5149  28.901  36.342   0.455
38741W        W 5150  42.856  21.758  12.494
38742W        W 5151  36.528  42.591   2.905
38743W        W 5152   5.241  19.094  13.872
38744W        W 5153  14.085  25.551  12.650
38745W        W 5154   9.929   4.388   3.781
38746W        W 5155  41.204  27.981   0.259
38747W        W 5156   9.979  25.650   1.476
38748W        W 5157  28.259   2.166   2.691
38749W        W 5158  11.320   1.445  11.947
38750W        W 5159  14.449  29.912  14.105
38751W        W 5160  42.903  22.439  12.981
38752W        W 5161  11.712  38.104  12.553
38753W        W 5162  21.816  25.460  12.494
38754W        W 5163  27.320  29.282  12.593
38755W        W 5164  33.093  42.918  12.435
38756W        W 5165   5.107  21.137  14.366
38757W        W 5166  28.634  20.225   4.088
38758W        W 5167  41.440  43.282  11.238
38759W        W 5168   6.119  17.934   3.707
38760W        W 5169  43.866   2.004   2.725
38761W        W 5170  34.279   0.338   4.134
38762W        W 5171  43.781  28.068   0.686
38763W        W 5172  23.284  28.134  11.919
38764W        W 5173  38.886  41.970  12.822
38765W        W 5174  25.248  27.098   3.744
38766W        W 5175   3.303  41.826   5.175
38767W        W 5176  38.679   4.242   0.381
38768W        W 5177   2.143  35.201  11.402
38769W        W 5178  25.330  12.371   0.758
38770W        W 5179  15.300   0.907   5.005
38771W        W 5180   5.837  27.431   1.357
38772W        W 5181  15.211  11.117   4.147
38773W        W 5182  40.455   0.084   1.003
38774W        W 5183  40.060  33.213  14.727
38775W        W 5184  41.428  21.133   3.471
38776W        W 5185   8.799  23.724   4.487
38777W        W 5186   6.582  12.054  10.832
38778W        W 5187  40.828  12.779   0.514
38779W        W 5188  20.841  17.585  11.851
38780W        W 5189   8.911  37.723   4.552
38781W        W 5190  39.470  24.054  13.920
38782W        W 5191  15.836  14.382   4.039
38783W        W 5192  26.772   1.391  12.546
38784W        W 5193  25.651  41.547   2.276
38785W        W 5194  44.951   7.924   1.230
38786W        W 5195   8.827  10.895  10.534
38787W        W 5196  30.155  22.563   0.413
38788W        W 5197  38.599   6.328  10.657
38789W        W 5198   7.601  39.625   1.706
38790W        W 5199  15.054  23.590  14.814
38791W        W 5200  24.406  10.769  12.015
38792W        W 5201  35.614  31.313  11.965
38793W        W 5202  13.120  37.568   0.218
38794W        W 5203   9.437  16.082  12.695
38795W        W 5204  22.106  27.681   3.166
38796W        W 5205  10.876  37.833   2.250
38797W        W 5206  25.773  18.691  12.414
38798W        W 5207  42.782  20.955  14.279
38799W        W 5208  19.487  10.811   4.725
38800W        W 5209   3.443  22.954   4.222
38801W        W 5210  34.369  20.697  12.829
38802W        W 5211  21.715   9.738   2.579
38803W        W 5212  10.916   4.210   0.117
38804W        W 5213  15.551  16.238   3.817
38805W        W 5214  12.579  39.364  12.074
38806W        W 5215  24.122  30.219  13.048
38807W        W 5216  18.034  21.164  11.612
38808W        W 5217  29.108   4.531  14.406
38809W        W 5218  29.169   0.313  12.915
38810W        W 5219  32.225  28.964   2.264
38811W        W 5220  24.109  18.902   3.305
38812W        W 5221  14.609  25.635   0.111
38813W        W 5222  31.434   3.835  14.525
38814W        W 5223   4.360  30.990  12.166
38815W        W 5224  20.098  36.956   4.406
38816W        W 5225  33.380   1.279   3.618
38817W        W 5226  26.830  31.932  13.365
38818W        W 5227   0.224   0.255   3.452
38819W        W 5228   6.881   4.177   4.758
38820W        W 5229  21.481  32.016  11.204
38821W        W 5230  33.148  12.917  12.033
38822W        W 5231  39.586  28.880   1.369
38823W        W 5232  43.043  19.864   0.352
38824W        W 5233   1.972  15.873   3.586
38825W        W 5234  31.468  20.590   1.111
38826W        W 5235  26.627   7.930  13.426
38827W        W 5236  33.862  39.758   2.717
38828W        W 5237  11.321   7.246   0.831
38829W        W 5238  26.564  29.255  13.444
38830W        W 5239  40.467  15.880   2.631
38831W        W 5240   7.464   6.648   1.441
38832W        W 5241  37.820  44.807  12.430
38833W        W 5242  24.923   2.786  10.666
38834W        W 5243  12.882  43.815  12.611
38835W        W 5244   0.978  22.013   0.153
38836W        W 5245  15.576  26.643   1.324
38837W        W 5246  31.446   1.457  12.217
38838W        W 5247  22.140  11.384   0.221
38839W        W 5248   5.397  41.029   1.719
38840W        W 5249   7.478   1.517  14.493
38841W        W 5250  35.512  12.082   4.286
38842W        W 5251  41.425  12.103   0.021
38843W        W 5252  38.321   9.399   0.902
38844W        W 5253  25.087  38.356   3.096
38845W        W 5254   5.787  10.048   0.745
38846W        W 5255  38.863  27.620  12.135
38847W        W 5256  22.695  36.052   1.227
38848W        W 5257  14.425   5.538  10.878
38849W        W 5258  39.886  29.006  13.519
38850W        W 5259  20.177  16.065   2.777
38851W        W 5260  42.319  34.798  10.727
38852W        W 5261  22.272  17.211   1.770
38853W        W 5262  31.554  43.426  12.108
38854W        W 5263   7.543  39.418  11.630
38855W        W 5264   8.720   2.769  10.939
38856W        W 5265  26.619   7.401  14.566
38857W        W 5266  12.904  44.984   0.505
38858W        W 5267  20.678  20.057   0.183
38859W        W 5268  42.795   3.417  14.823
38860W        W 5269   0.932  17.392  11.825
38861W        W 5270   8.037  26.570  13.294
38862W        W 5271  21.479  18.088   0.012
38863W        W 5272  44.507  22.686  12.228
38864W        W 5273  41.922  22.000  11.345
38865W        W 5274  23.865  32.321  14.263
38866W        W 5275  12.795  36.601  13.424
38867W        W 5276  24.167  17.136   3.125
38868W        W 5277  17.028  33.419   1.079
38869W        W 5278   2.310  28.026   0.931
38870W        W 5279   0.643  43.903  11.939
38871W        W 5280   9.383  37.707  12.446
38872W        W 5281  40.919  42.346   4.657
38873W        W 5282  33.066  17.104   3.706
38874W        W 5283  39.857  23.529   0.457
38875W        W 5284   9.147   3.312   4.096
38876W        W 5285  38.513  40.102  10.632
38877W        W 5286  33.502  42.303   1.965
38878W        W 5287  33.482  26.786  10.984
38879W        W 5288   7.365   0.959  10.924
38880W        W 5289  17.830  10.666   0.942
38881W        W 5290   2.897  42.469  10.621
38882W        W 5291  30.042   2.826  12.868
38883W        W 5292   1.919  15.625   0.627
38884W        W 5293  22.537   3.479  13.480
38885W        W 5294  15.101  19.027  11.168
38886W        W 5295  33.401   6.308   4.326
38887W        W 5296  37.238  39.330  13.083
38888W        W 5297   5.013  30.031  11.087
38889W        W 5298   3.006  33.053   4.681
38890W        W 5299  12.804   6.927   2.857
38891W        W 5300  14.665   9.275   1.288
38892W        W 5301  17.498  22.700   1.939
38893W        W 5302  40.298  34.616   1.041
38894W        W 5303  10.938  18.292  12.372
38895W        W 5304  10.790  21.716   2.172
38896W        W 5305   0.287  23.286  13.905
38897W        W 5306  18.786  16.876  10.991
38898W        W 5307  13.341   6.337   1.085
38899W        W 5308  14.407  14.008   1.811
38900W        W 5309   1.812  25.442  13.019
38901W        W 5310  21.429  22.680  10.008
38902W        W 5311  35.484  13.251  14.945
38903W        W 5312  38.276  29.441  12.065
38904W        W 5313  37.440  14.313   0.781
38905W        W 5314  44.027  41.696  13.072
38906W        W 5315  41.939  10.790   3.647
38907W        W 5316   1.756  43.204  11.554
38908W        W 5317  15.919  14.302   1.725
38909W        W 5318  36.602  34.574   0.910
38910W        W 5319  38.761  41.152  11.486
38911W        W 5320  12.724  29.164   2.385
38912W        W 5321  37.225  34.471   0.264
38913W        W 5322  19.643  26.909  14.786
38914W        W 5323  31.138  24.758   0.244
38915W        W 5324   2.999  10.021   0.306
38916W        W 5325  30.388  33.587   2.888
38917W        W 5326  31.772  42.814  13.057
38918W        W 5327  12.244  20.571  12.873
38919W        W 5328   2.239  19.365  11.900
38920W        W 5329   4.754   5.444   0.377
38921W        W 5330  44.013  34.031   1.945
38922W        W 5331  14.890  33.553   4.158
38923W        W 5332   6.086  10.124  13.314
38924W        W 5333  17.793  24.769   1.763
38925W        W 5334  15.146   7.556  13.389
38926W        W 5335  36.090  30.119  13.581
38927W        W 5336  18.495  26.915  14.294
38928W        W 5337  44.112  16.696  13.950
38929W        W 5338  12.380  30.123  10.714
38930W        W 5339  22.594  41.786   0.263
38931W        W 5340  24.543   8.896  14.822
38932W        W 5341  24.563  17.489  14.493
38933W        W 5342  25.118  14.611   0.663
38934W        W 5343  35.756  44.264   1.857
38935W        W 5344   0.043  18.848   1.161
38936W        W 5345  31.364   6.296   4.797
38937W        W 5346  28.468   6.864  14.012
38938W        W 5347  16.300  36.429  10.720
38939W        W 5348   3.918   8.983  12.013
38940W        W 5349  29.702   1.535  12.363
38941W        W 5350   6.974  27.654  14.895
38942W        W 5351  13.393  24.636  14.958
38943W        W 5352  20.521  15.110   2.896
38944W        W 5353  32.155  39.040   3.961
38945W        W 5354  40.945  39.242  12.390
38946W        W 5355  18.181   0.636  14.856
38947W        W 5356  44.020  30.504  11.617
38948W        W 5357  35.086  15.040  13.777
38949W        W 5358  24.657  17.522  13.582
38950W        W 5359  19.696  44.811   1.712
38951W        W 5360  25.487  39.134  11.450
38952W        W 5361  35.520  31.564   0.974
38953W        W 5362  32.192  38.205  11.400
38954W        W 5363  19.073  33.318   4.053
38955W        W 5364  27.100  13.559  11.642
38956W        W 5365   7.887  26.572   2.851
38957W        W 5366  11.562  13.098   4.440
38958W        W 5367  32.600  25.531  10.466
38959W        W 5368  37.093  20.837  14.824
38960W        W 5369  18.580   5.344  13.012
38961W        W 5370  40.951  19.725   1.728
38962W        W 5371  26.080  44.231  11.524
38963W        W 5372   1.707  27.404   2.803
38964W        W 5373  15.319  35.040   0.195
38965W        W 5374  14.389  25.478  13.069
38966W        W 5375   7.159   3.471  10.704
38967W        W 5376  19.846  11.458  12.664
38968W        W 5377  28.547  43.928  12.512
38969W        W 5378  42.296  18.700   1.846
38970W        W 5379  43.074  40.280  14.305
38971W        W 5380   5.998  19.367   3.616
38972W        W 5381  44.763  19.259   2.120
38973W        W 5382   9.796  22.370   2.946
38974W        W 5383  23.222  37.430   2.227
38975W        W 5384  36.462  31.038  13.999
38976W        W 5385  20.086  13.453  11.049
38977W        W 5386   3.889  17.548   3.146
38978W        W 5387  26.955  19.683   4.437
38979W        W 5388  32.783  28.605  12.880
38980W        W 5389  28.443  44.377   3.279
38981W        W 5390   9.660  13.861  14.357
38982W        W 5391  31.478  10.176   3.814
38983W        W 5392  22.264  43.971   2.297
38984W        W 5393  29.168  28.179  13.583
38985W        W 5394   0.182  25.963   0.651
38986W        W 5395  23.534  42.583   1.457
38987W        W 5396  16.268   3.536   0.873
38988W        W 5397  25.177  42.741  11.872
38989W        W 5398  16.593  26.112   3.666
38990W        W 5399   5.661  27.430   3.499
38991W        W 5400  39.046  42.035   3.746
38992W        W 5401  11.087  18.194  10.883
38993W        W 5402  29.362  19.169  14.829
38994W        W 5403  42.708  38.947   4.966
38995W        W 5404  15.157  16.101   2.729
38996W        W 5405   2.927  38.329  12.915
38997W        W 5406  15.535  27.088  10.730
38998W        W 5407  22.986  12.833  13.417
38999W        W 5408  19.552  28.494  12.152
39000W        W 5409  20.562  28.813   4.895
39001W        W 5410  44.488   0.907   0.234
39002W        W 5411  19.358  15.601   2.927
39003W        W 5412  20.126  32.886  11.428
39004W        W 5413  26.138  39.683   2.239
39005W        W 5414  34.568  22.946   2.046
39006W        W 5415  25.630  36.325   1.333
39007W        W 5416  12.105  38.364  13.839
39008W        W 5417  12.077  23.168  13.936
39009W        W 5418  23.158  40.557  13.841
39010W        W 5419  17.417  17.061  12.475
39011W        W 5420   5.864  40.631   2.915
39012W        W 5421   3.335  44.336   1.777
39013W        W 5422  21.305  44.963   0.837
39014W        W 5423  33.583  28.697   4.954
39015W        W 5424   3.704  19.104   3.730
39016W        W 5425  37.625   6.613   0.563
39017W        W 5426   8.593  36.692  13.410
39018W        W 5427  29.158   2.447  11.645
39019W        W 5428   7.368  39.569  12.985
39020W        W 5429  26.612   0.057   4.188
39021W        W 5430  25.227  31.129   0.419
39022W        W 5431   8.772   6.660   3.202
39023W        W 5432  12.899  21.578  12.306
39024W        W 5433  24.137  14.342   5.036
39025W        W 5434   0.135  33.423   4.211
39026W        W 5435  37.217  19.487   4.058
39027W        W 5436  40.026   7.569  12.938
39028W        W 5437  39.372  18.103  12.922
39029W        W 5438  22.303  12.898  14.011
39030W        W 5439  44.526  34.828   0.642
39031W        W 5440  43.948   3.030  14.101
39032W        W 5441  10.217  33.985  13.934
39033W        W 5442  21.086  10.757  12.956
39034W        W 5443  42.199   6.777  14.780
39035W        W 5444  15.958  13.706   1.013
39036W        W 5445   6.877  13.244   1.703
39037W        W 5446   5.643  18.771  13.850
39038W        W 5447  10.141  30.975  10.246
39039W        W 5448  20.024  18.532   1.050
39040W        W 5449  28.246  27.028   2.916
39041W        W 5450  17.858  43.974  12.527
39042W        W 5451  43.889  29.551   1.714
39043W        W 5452  31.938  38.248   4.723
39044W        W 5453  15.288  35.951   2.219
39045W        W 5454   9.772  15.814   1.355
39046W        W 5455  31.022  41.579  12.873
39047W        W 5456  33.952   5.942   3.593
39048W        W 5457   4.889   8.018   4.155
39049W        W 5458   9.820   0.265  11.337
39050W        W 5459  25.321  15.810   0.002
39051W        W 5460  32.134   5.559   4.096
39052W        W 5461  38.734  34.833   5.005
39053W        W 5462  15.146   0.710   5.455
39054W        W 5463  42.009   7.339  12.598
39055W        W 5464  41.958   2.710   1.242
39056W        W 5465   7.322  20.747  11.516
39057W        W 5466  34.907  14.004   4.572
39058W        W 5467  39.472  19.112   5.719
39059W        W 5468  42.974   0.969   2.167
39060W        W 5469   8.804  10.227   2.397
39061W        W 5470  15.158   9.998   3.228
39062W        W 5471  20.970  11.162   4.556
39063W        W 5472   1.695  42.301  14.788
39064W        W 5473  32.602  39.455  13.498
39065W        W 5474  26.387  24.175   0.891
39066W        W 5475  29.693  22.768  12.990
39067W        W 5476  43.388  14.764  13.448
39068W        W 5477  28.112  30.461   1.189
39069W        W 5478  38.525  29.494   2.641
39070W        W 5479   4.193  12.221   3.750
39071W        W 5480  14.250  39.580   0.796
39072W        W 5481  30.854   0.472   4.406
39073W        W 5482  23.542  44.618   3.301
39074W        W 5483  41.465  35.918   1.629
39075W        W 5484   1.136   1.111  11.949
39076W        W 5485  44.117  42.958   0.024
39077W        W 5486  35.420  26.478  12.960
39078W        W 5487  39.076  23.268   4.653
39079W        W 5488  12.284  27.687  10.483
39080W        W 5489  14.606  16.515  13.621
39081W        W 5490   9.059  32.764   1.685
39082W        W 5491   5.203  28.577   4.339
39083W        W 5492  35.841  22.621   4.130
39084W        W 5493  13.316  36.421   2.794
39085W        W 5494  31.229  23.294   4.135
39086W        W 5495  18.101  44.766   0.715
39087W        W 5496  28.455  34.826   3.769
39088W        W 5497   3.982   8.930   0.452
39089W        W 5498  30.757   9.148  10.410
39090W        W 5499  13.172  35.547   1.233
39091W        W 5500   8.420  30.000  14.024
39092W        W 5501  37.869  15.656  12.823
39093W        W 5502   0.965  28.501  12.836
39094W        W 5503  37.875   4.970  12.941
39095W        W 5504  20.126  10.726  14.787
39096W        W 5505  32.108  36.266  12.922
39097W        W 5506  31.305  31.975   4.585
39098W        W 5507  27.139  40.843  11.485
39099W        W 5508  15.247  26.856   3.307
39100W        W 5509  19.635   3.717   2.149
39101W        W 5510  10.517  32.026  13.275
39102W        W 5511  39.398  41.314  11.114
39103W        W 5512  43.816  19.660   3.936
39104W        W 5513  27.113  17.071  13.961
39105W        W 5514   6.800  26.642  11.497
39106W        W 5515  23.177  13.397  13.896
39107W        W 5516  41.205   6.880  12.574
39108W        W 5517   2.413  40.966   4.600
39109W        W 5518  20.413  12.690   0.974
39110W        W 5519  25.444  35.234   2.907
39111W        W 5520  18.968  15.667   3.262
39112W        W 5521  29.007  10.243  13.857
39113W        W 5522  17.629  10.372  14.287
39114W        W 5523  33.971  22.081  11.550
39115W        W 5524  43.526  17.848   5.059
39116W        W 5525  24.937  14.671  12.993
39117W        W 5526  44.395   6.094  14.833
39118W        W 5527  25.131  23.559   3.539
39119W        W 5528  33.074  30.914   0.074
39120W        W 5529  31.127  13.766   2.582
39121W        W 5530   4.539  12.918  12.589
39122W        W 5531  24.195  28.898  14.864
39123W        W 5532   4.347  18.347   3.447
39124W        W 5533  11.385  14.165   1.271
39125W        W 5534  28.444  43.399  11.496
39126W        W 5535  19.318  41.059   2.975
39127W        W 5536  21.288  40.262   4.190
39128W        W 5537   1.504  32.355   2.150
39129W        W 5538  35.376  35.407   1.278
39130W        W 5539   6.322   6.284  12.950
39131W        W 5540  10.239  34.387   1.867
39132W        W 5541   1.958  11.468   4.575
39133W        W 5542  20.225  35.182  12.557
39134W        W 5543  19.767  16.611  11.103
39135W        W 5544  17.289   1.664  13.993
39136W        W 5545  10.169  39.004   0.394
39137W        W 5546  30.728   8.004   5.145
39138W        W 5547  24.307  15.385  10.615
39139W        W 5548  28.064  13.190  10.054
39140W        W 5549  34.822  24.074  13.019
39141W        W 5550   1.456  11.333   4.532
39142W        W 5551  42.426  10.202   0.686
39143W        W 5552  15.695   7.202  11.439
39144W        W 5553   0.248   8.160  14.296
39145W        W 5554  31.803  40.009   4.256
39146W        W 5555  32.419  17.960  13.593
39147W        W 5556  42.746  14.215   3.161
39148W        W 5557  43.049   8.997   2.725
39149W        W 5558   2.941  37.895   1.953
39150W        W 5559  32.980  41.980  14.477
39151W        W 5560  15.144  43.225   3.568
39152W        W 5561  10.355  41.862  12.231
39153W        W 5562  14.438  25.809   3.611
39154W        W 5563   4.751  14.980  13.443
39155W        W 5564   5.338  24.272   0.925
39156W        W 5565  37.850   2.033  10.614
39157W        W 5566  37.366  36.385   1.945
39158W        W 5567   4.450  34.847   0.479
39159W        W 5568   3.242  14.326  10.763
39160W        W 5569   0.872   1.221   3.264
39161W        W 5570  19.583  28.626  14.418
39162W        W 5571  31.049  38.211  10.500
39163W        W 5572  31.899  35.127  14.807
39164W        W 5573  33.696  14.039  13.859
39165W        W 5574   6.949   9.447  14.873
39166W        W 5575  42.811  39.381  13.885
39167W        W 5576  27.999  20.771   1.232
39168W        W 5577  42.172  16.766   4.632
39169W        W 5578  42.726  14.619   1.770
39170W        W 5579  19.024  35.397   2.907
39171W        W 5580  36.234  19.378   5.090
39172W        W 5581   7.670  25.147   3.324
39173W        W 5582  23.031  13.132   3.147
39174W        W 5583   6.146   5.879   1.624
39175W        W 5584  32.586  22.342  12.474
39176W        W 5585  30.368  39.060  12.930
39177W        W 5586  29.727  24.228   3.031
39178W        W 5587  23.767  36.330   1.696
39179W        W 5588  39.444  19.067  14.335
39180W        W 5589  22.087  41.817   0.296
39181W        W 5590   8.363   5.467  14.987
39182W        W 5591  14.264   4.566  10.430
39183W        W 5592   6.441  11.602   0.831
39184W        W 5593   7.271  27.209  12.847
39185W        W 5594  16.874   7.521   2.309
39186W        W 5595  44.379   7.287   0.975
39187W        W 5596  27.526   3.706   2.946
39188W        W 5597   2.244  29.593  12.529
39189W        W 5598  28.586   7.613   4.235
39190W        W 5599  20.579   0.738   1.869
39191W        W 5600  26.760   2.550   4.277
39192W        W 5601  16.254   4.282  11.539
39193W        W 5602  17.000   7.202   3.976
39194W        W 5603  21.718   5.801   0.794
39195W        W 5604  16.879  31.035   1.564
39196W        W 5605  23.509   5.138   0.937
39197W        W 5606  35.402  31.450  11.182
39198W        W 5607   1.448  39.919  12.622
39199W        W 5608  14.431   3.238   4.583
39200W        W 5609  13.152  35.773  14.363
39201W        W 5610  12.237  22.748   0.601
39202W        W 5611  29.456   0.382   4.975
39203W        W 5612  40.230  15.769  14.022
39204W        W 5613  36.415  31.696   0.836
39205W        W 5614   2.107  16.252   4.559
39206W        W 5615  18.679  27.561  10.432
39207W        W 5616  16.091  27.936   4.114
39208W        W 5617  36.546  20.710   3.163
39209W        W 5618  36.295  25.916   2.149
39210W        W 5619  18.189   4.407   0.888
39211W        W 5620  28.055  24.558   2.248
39212W        W 5621  11.730  22.750  10.389
39213W        W 5622   0.888  24.282   2.407
39214W        W 5623   6.884  34.844   0.879
39215W        W 5624   4.340   4.815  14.271
39216W        W 5625   7.955  14.280   2.404
39217W        W 5626  41.808  28.205  11.247
39218W        W 5627   2.945  34.412   4.544
39219W        W 5628   2.344  19.101  14.292
39220W        W 5629  22.226  39.344   4.129
39221W        W 5630   8.745  34.829   4.385
39222W        W 5631  22.994  35.904  14.912
39223W        W 5632  39.367   4.895   0.975
39224W        W 5633   7.433  29.611  12.840
39225W        W 5634  10.168  41.995   4.902
39226W        W 5635  20.480  13.310   1.828
39227W        W 5636   2.988  36.169   4.396
39228W        W 5637   6.832  36.611  10.704
39229W        W 5638   1.312  36.557  13.455
39230W        W 5639  15.854   3.755   3.274
39231W        W 5640  22.266  23.976  12.406
39232W        W 5641  19.571  34.610   3.712
39233W        W 5642  33.982  17.512   2.642
39234W        W 5643  42.267  31.433   3.207
39235W        W 5644   2.751  37.523   3.234
39236W        W 5645  15.077  16.297   4.021
39237W        W 5646  27.234  35.091  10.472
39238W        W 5647  33.377  20.822  14.859
39239W        W 5648  22.663   0.936   1.042
39240W        W 5649  35.488  43.254   1.248
39241W        W 5650  32.060  38.991   3.450
39242W        W 5651  26.387  15.190   1.351
39243W        W 5652  30.701   7.184  13.528
39244W        W 5653  15.742   6.244  11.303
39245W        W 5654   4.879  13.489   4.037
39246W        W 5655   4.876  40.548   2.157
39247W        W 5656   2.511  30.149   3.268
39248W        W 5657  31.849  22.540  13.905
39249W        W 5658   5.308   7.204   4.187
39250W        W 5659  39.821   9.576  13.004
39251W        W 5660  33.366  26.967  14.407
39252W        W 5661   1.705  15.747  14.282
39253W        W 5662  19.847  20.521  12.361
39254W        W 5663  11.464  31.124  10.769
39255W        W 5664   6.372  26.931   2.667
39256W        W 5665  42.753  42.831  12.516
39257W        W 5666  10.361   4.260   0.161
39258W        W 5667  35.808  30.808  10.768
39259W        W 5668  14.033  22.059  13.503
39260W        W 5669   2.918  12.388  11.094
39261W        W 5670  12.413  21.769  14.370
39262W        W 5671  14.063   5.056  12.578
39263W        W 5672   2.351  21.189   3.306
39264W        W 5673   0.761  11.619   0.747
39265W        W 5674  38.079  35.906   4.192
39266W        W 5675  22.228  11.739  13.472
39267W        W 5676   8.296  28.487  14.518
39268W        W 5677   6.350  26.143   1.058
39269W        W 5678   7.294  20.068  10.970
39270W        W 5679   7.994   4.411   0.938
39271W        W 5680  11.844   9.651  14.874
39272W        W 5681   3.253  17.815  11.337
39273W        W 5682   5.470  39.766   3.573
39274W        W 5683  23.539  38.087   3.319
39275W        W 5684  24.536  16.625   0.435
39276W        W 5685  34.786  24.743   2.399
39277W        W 5686  36.363   1.777  12.855
39278W        W 5687  20.212  31.463   4.170
39279W        W 5688  37.193  23.139  13.396
39280W        W 5689   9.604  23.190   4.921
39281W        W 5690  41.015   4.943  13.371
39282W        W 5691  12.840  22.747   0.907
39283W        W 5692   9.687   2.007  14.937
39284W        W 5693  39.954   2.906  11.028
39285W        W 5694  33.514  36.083   2.312
39286W        W 5695  35.734  36.341  12.064
39287W        W 5696  33.955  10.875   2.902
39288W        W 5697  25.131  35.400   0.954
39289W        W 5698   9.204  40.176  14.330
39290W        W 5699  41.058  34.640   2.158
39291W        W 5700  14.990  28.235   0.931
39292W        W 5701   6.652   1.719   4.143
39293W        W 5702  32.011  16.832   2.784
39294W        W 5703   2.452  20.085  10.730
39295W        W 5704  44.447  41.612   2.932
39296W        W 5705   3.721   0.259   3.834
39297W        W 5706  36.337   4.971  14.417
39298W        W 5707  19.085  15.098   0.770
39299W        W 5708  11.722   9.895   2.357
39300W        W 5709   7.774  28.576   2.175
39301W        W 5710  33.200  13.954  13.960
39302W        W 5711  20.237  33.900  13.930
39303W        W 5712  41.241  35.482   1.848
39304W        W 5713  14.748  10.315   2.131
39305W        W 5714  42.242  34.738  14.411
39306W        W 5715  15.323  20.176   1.765
39307W        W 5716  42.859  25.949  13.336
39308W        W 5717  28.333  29.884  12.922
39309W        W 5718  44.889  32.118  10.927
39310W        W 5719   0.899  43.726   3.621
39311W        W 5720  37.532  27.446   0.894
39312W        W 5721  37.315  25.265   0.389
39313W        W 5722   6.224  41.442   2.573
39314W        W 5723  25.049   3.594   4.452
39315W        W 5724  27.712  22.253  13.561
39316W        W 5725  20.028  36.546   1.582
39317W        W 5726  39.326  27.496   4.637
39318W        W 5727   8.191  17.856  12.994
39319W        W 5728  31.710   3.817   3.513
39320W        W 5729  30.896  37.286  10.334
39321W        W 5730  28.067  20.511   1.715
39322W        W 5731  20.900   2.373  10.734
39323W        W 5732  25.600   5.642   4.534
39324W        W 5733   4.243  25.437  10.765
39325W        W 5734  25.768  40.604   4.951
39326W        W 5735  17.619  24.517  13.557
39327W        W 5736  39.482  14.124  11.998
39328W        W 5737  21.749  19.343   3.608
39329W        W 5738  23.060  44.058  11.521
39330W        W 5739  33.449  10.379  13.930
39331W        W 5740  33.110  31.091   4.059
39332W        W 5741  16.926  23.987  12.883
39333W        W 5742  40.383  15.446  12.786
39334W        W 5743  29.916  33.037   0.103
39335W        W 5744  38.494  17.574  14.073
39336W        W 5745  33.333  18.650  11.716
39337W        W 5746  40.389  30.668  11.096
39338W        W 5747  36.883  36.558  12.929
39339W        W 5748  13.677   1.916   4.042
39340W        W 5749  15.631  18.781  13.456
39341W        W 5750  23.712  20.097  10.411
39342W        W 5751  44.415  25.716  11.780
39343W        W 5752  18.734  20.588   1.378
39344W        W 5753   2.423   2.591   4.710
39345W        W 5754  30.636  32.345  14.878
39346W        W 5755  11.205   1.499  11.443
39347W        W 5756   7.865  31.760   2.343
39348W        W 5757  29.022  13.500  14.648
39349W        W 5758  40.477  35.580   2.340
39350W        W 5759  36.988  20.486  13.053
39351W        W 5760  31.698   8.579  13.376
39352W        W 5761  25.218  27.067   0.936
39353W        W 5762  23.329  17.773  14.877
39354W        W 5763  28.951   4.020  11.695
39355W        W 5764  27.752  35.502   3.928
39356W        W 5765  18.730   9.439  11.645
39357W        W 5766  11.871   6.317  14.779
39358W        W 5767  41.846  28.789   0.856
39359W        W 5768  24.607  41.607  14.250
39360W        W 5769  27.587   4.857   0.745
39361W        W 5770   8.450  21.561  12.067
39362W        W 5771  29.714  37.105   2.481
39363W        W 5772  22.517  40.276   1.713
39364W        W 5773  18.753   1.810  11.947
39365W        W 5774  41.981  35.007   1.942
39366W        W 5775  19.790   8.801   4.551
39367W        W 5776   0.738  17.160  14.809
39368W        W 5777  22.376  10.511   5.247
39369W        W 5778   7.291  26.244  12.851
39370W        W 5779  26.257   4.742   1.405
39371W        W 5780   5.397  21.575   3.461
39372W        W 5781  32.163   2.476   2.087
39373W        W 5782  26.974  42.577   3.331
39374W        W 5783  26.536  40.307  10.500
39375W        W 5784  20.993  28.541  14.715
39376W        W 5785  15.873  34.433  14.915
39377W        W 5786  10.385  36.409  11.388
39378W        W 5787  23.823  31.916  12.883
39379W        W 5788  32.764  32.924   4.991
39380W        W 5789  38.225  44.310   4.885
39381W        W 5790  17.136   7.611   1.877
39382W        W 5791  14.166  33.128   0.780
39383W        W 5792  20.184   0.939   2.651
39384W        W 5793  10.687  37.128  12.560
39385W        W 5794  27.890  32.003   3.271
39386W        W 5795   5.418  26.049  13.121
39387W        W 5796   7.899  43.312  14.864
39388W        W 5797   7.077   1.709  14.202
39389W        W 5798   8.723   6.754  10.680
39390W        W 5799  24.954  36.835   0.512
39391W        W 5800  22.177  43.838   0.802
39392W        W 5801   4.779   9.815   1.962
39393W        W 5802   2.330  42.466   0.603
39394W        W 5803  23.287  24.677  12.379
39395W        W 5804   0.242  11.431   2.092
39396W        W 5805  20.498  34.915  14.394
39397W        W 5806  36.339  44.810   2.244
39398W        W 5807  39.551  19.483  10.786
39399W        W 5808  27.849   5.272  14.749
39400W        W 5809   2.510  37.088  12.591
39401W        W 5810  24.658  17.612   4.859
39402W        W 5811  20.725   5.235   4.181
39403W        W 5812   5.039  43.870   1.575
39404W        W 5813  29.059  24.485  14.998
39405W        W 5814  35.360  40.084  14.500
39406W        W 5815  25.879  38.535  12.020
39407W        W 5816  14.042  28.973  11.996
39408W        W 5817  39.273  30.031  11.644
39409W        W 5818  38.267  18.286   3.149
39410W        W 5819  22.286  22.803   0.974
39411W        W 5820  12.300  33.052  13.814
39412W        W 5821  25.981  33.982  10.889
39413W        W 5822  29.789  43.930  13.041
39414W        W 5823  12.235   6.288   1.863
39415W        W 5824  10.339  32.631   1.498
39416W        W 5825   4.389  32.320  11.955
39417W        W 5826  14.136  41.824   1.242
39418W        W 5827  42.492  42.930   4.596
39419W        W 5828  42.143  13.656  13.123
39420W        W 5829   2.699  40.529   4.668
39421W        W 5830  31.380   4.952  11.291
39422W        W 5831  21.499   9.270   2.784
39423W        W 5832  34.940  43.403  13.534
39424W        W 5833  17.751  22.178   1.636
39425W        W 5834   3.128   7.160  12.967
39426W        W 5835  30.417  39.330  12.476
39427W        W 5836   8.169  16.513   4.330
39428W        W 5837  22.733  19.355   0.118
39429W        W 5838   9.761  10.792   0.294
39430W        W 5839  39.060  40.227  14.580
39431W        W 5840   6.720  24.933   1.474
39432W        W 5841  32.222   1.012   0.461
39433W        W 5842   1.286  35.968   1.762
39434W        W 5843   5.912  30.865  11.412
39435W        W 5844   2.544  12.734   4.487
39436W        W 5845  18.283  28.287  14.350
39437W        W 5846  32.588  12.238   3.312
39438W        W 5847  26.783  34.915   4.147
39439W        W 5848  27.002  19.469  14.328
39440W        W 5849  26.708  43.330   1.918
39441W        W 5850  43.560   5.811  13.431
39442W        W 5851  37.095   7.843  11.072
39443W        W 5852  23.184  43.776   0.865
39444W        W 5853   3.651  32.734  11.611
39445W        W 5854  43.289   4.221  10.712
39446W        W 5855   4.434  11.795   4.426
39447W        W 5856  34.484  10.173   0.378
39448W        W 5857  16.361  21.347  12.587
39449W        W 5858  34.848  17.396   4.861
39450W        W 5859   1.896  33.718  12.684
39451W        W 5860   2.774  33.987  14.388
39452W        W 5861  13.266  16.224   2.805
39453W        W 5862  37.532  22.289  14.964
39454W        W 5863  18.628  27.687  14.948
39455W        W 5864  28.695  44.016  14.921
39456W        W 5865   2.649  11.676   3.238
39457W        W 5866  39.266  12.692   0.502
39458W        W 5867  25.154  39.024   1.405
39459W        W 5868  19.336  40.070  12.450
39460W        W 5869  10.195  31.292   3.965
39461W        W 5870  39.902  20.542  11.362
39462W        W 5871  25.512  17.836  12.738
39463W        W 5872   8.276  29.135   9.973
39464W        W 5873   0.806  34.083   0.904
39465W        W 5874  34.014   6.971   0.666
39466W        W 5875  44.224  36.486  10.674
39467W        W 5876  21.877   0.660  10.678
39468W        W 5877   0.039  43.499   2.609
39469W        W 5878  42.808  39.407   0.848
39470W        W 5879  31.066   8.504   0.981
39471W        W 5880  44.563  18.423   4.540
39472W        W 5881  41.250  27.253  12.861
39473W        W 5882  28.206   2.781  12.221
39474W        W 5883  43.238   8.221   5.028
39475W        W 5884  28.037   3.711   0.524
39476W        W 5885   0.985  32.032  11.304
39477W        W 5886  11.242  34.397   3.034
39478W        W 5887   1.363  38.322  10.686
39479W        W 5888  29.399   9.454  14.507
39480W        W 5889   0.940  16.770   2.821
39481W        W 5890  44.083  24.508   4.621
39482W        W 5891  34.679   4.831   1.753
39483W        W 5892  37.084  30.232   4.732
39484W        W 5893  16.186   1.561  11.121
39485W        W 5894  33.567  17.130   0.934
39486W        W 5895  43.682  18.195  14.750
39487W        W 5896  30.614  20.669   4.517
39488W        W 5897   3.847   7.203   0.459
39489W        W 5898  15.546  31.414  13.930
39490W        W 5899  16.055  31.553  10.744
39491W        W 5900   3.846   2.788  14.532
39492W        W 5901  10.589  29.979   4.533
39493W        W 5902  24.631  33.632  11.026
39494W        W 5903  31.151  13.643   4.905
39495W        W 5904  32.660   2.385  13.925
39496W        W 5905  40.045  19.663   2.188
39497W        W 5906  25.132  11.659  14.464
39498W        W 5907   2.437  12.665   3.957
39499W        W 5908  37.061   6.957   1.212
39500W        W 5909   3.308  21.074  13.397
39501W        W 5910  40.125  20.264   2.827
39502W        W 5911  41.433   7.800   4.392
39503W        W 5912   9.320  40.578  14.628
39504W        W 5913  12.514  19.952   4.069
39505W        W 5914   1.750  30.429   2.904
39506W        W 5915  10.149  37.712   5.090
39507W        W 5916  33.023  36.629   1.060
39508W        W 5917   5.612  13.723  12.802
39509W        W 5918  39.390  21.745  10.995
39510W        W 5919  10.201  39.455   4.236
39511W        W 5920  39.869  35.403  12.378
39512W        W 5921   9.849  16.803  11.419
39513W        W 5922   1.938  17.186   1.390
39514W        W 5923  44.565  14.354   4.293
39515W        W 5924   3.270  30.668   3.185
39516W        W 5925  39.779  22.222   0.296
39517W        W 5926  39.432  37.065  14.410
39518W        W 5927  31.649  28.385  12.089
39519W        W 5928   3.947  13.594  12.049
39520W        W 5929  31.848   6.226  14.506
39521W        W 5930   2.098   4.873  10.620
39522W        W 5931  35.541  11.768   4.785
39523W        W 5932  13.678  41.407  14.507
39524W        W 5933   5.852   2.823  14.773
39525W        W 5934  40.716  11.614   1.425
39526W        W 5935   8.001  19.503  10.225
39527W        W 5936  17.190  44.569  13.009
39528W        W 5937   7.592  21.890   3.318
39529W        W 5938   5.711  32.376   4.208
39530W        W 5939  27.205   7.055   5.357
39531W        W 5940  37.030  17.114   9.843
39532W        W 5941  29.887   2.504   4.521
39533W        W 5942   5.983  14.734  11.969
39534W        W 5943   3.285  44.313   4.663
39535W        W 5944  43.645   8.211  10.573
39536W        W 5945  19.599  39.091  13.588
39537W        W 5946  37.982  30.460  12.861
39538W        W 5947  16.829   6.388   4.374
39539W        W 5948  28.712  21.270  11.428
39540W        W 5949  42.409  25.521  11.660
39541W        W 5950  35.942  22.666   3.083
39542W        W 5951  29.504  12.172  11.071
39543W        W 5952  10.424  16.794  14.288
39544W        W 5953  27.201  31.004  12.230
39545W        W 5954   3.175   8.241  12.820
39546W        W 5955  17.671   0.485  14.462
39547W        W 5956   8.506  37.608   4.855
39548W        W 5957  38.488  34.665  12.424
39549W        W 5958  24.894  18.967   2.098
39550W        W 5959  37.848  14.814  13.128
39551W        W 5960  32.577  14.250   3.341
39552W        W 5961  43.815  42.566  12.070
39553W        W 5962  16.095  29.358  12.413
39554W        W 5963  36.758   8.657  11.723
39555W        W 5964  12.685  26.823  10.581
39556W        W 5965  17.826  39.840   3.612
39557W        W 5966  13.590  38.984   3.437
39558W        W 5967   4.917  43.487   3.257
39559W        W 5968  31.131  22.816  12.399
39560W        W 5969  35.895  14.194  12.777
39561W        W 5970  32.121   9.702   0.506
39562W        W 5971  35.419  23.150   4.703
39563W        W 5972   9.624  35.992   5.459
39564W        W 5973  25.164  29.049  10.732
39565W        W 5974  23.310  20.658   1.375
39566W        W 5975  32.126  33.276   4.535
39567W        W 5976  29.393  34.517  12.190
39568W        W 5977  28.172  25.441   2.858
39569W        W 5978  21.018  37.362   3.163
39570W        W 5979  17.432  33.672  12.193
39571W        W 5980  24.330  35.509  11.172
39572W        W 5981  44.788  27.942  14.856
39573W        W 5982  14.105  34.438   0.300
39574W        W 5983  33.701   4.840   4.588
39575W        W 5984   4.187  33.532   2.677
39576W        W 5985   0.754  30.142   3.901
39577W        W 5986  43.542  40.545   0.332
39578W        W 5987   2.887  40.279   3.714
39579W        W 5988  19.900  19.633   1.289
39580W        W 5989  29.354  41.468   3.613
39581W        W 5990  27.432  25.526  14.995
39582W        W 5991  40.913  15.617   1.665
39583W        W 5992   1.884  22.004   1.197
39584W        W 5993  33.054  25.725  10.656
39585W        W 5994  38.564  43.407   1.641
39586W        W 5995  35.949  19.225   2.486
39587W        W 5996  35.103  34.472   0.706
39588W        W 5997   1.458  22.665   3.212
39589W        W 5998  31.759  18.739  12.811
39590W        W 5999  25.417  43.017  14.283
39591W        W 6000  11.100   6.091  14.339
39592W        W 6001  23.113  37.964  13.644
39593W        W 6002  26.037  25.732  14.960
39594W        W 6003  14.129  27.943   1.302
39595W        W 6004  28.626  41.566  12.499
39596W        W 6005   1.339  10.713  12.415
39597W        W 6006  18.584   8.211   4.214
39598W        W 6007  11.738  39.474  12.555
39599W        W 6008  20.638  17.266   3.747
39600W        W 6009  31.906  13.223  14.896
39601W        W 6010  38.087  13.381   1.660
39602W        W 6011  11.872  33.343  13.927
39603W        W 6012  40.462  41.440  12.900
39604W        W 6013  40.853  33.318   4.503
39605W        W 6014  30.134   3.275   0.512
39606W        W 6015  26.087  11.061   4.081
39607W        W 6016  38.943   4.029  11.540
39608W        W 6017  44.380  11.366  10.891
39609W        W 6018  39.137   7.985   3.162
39610W        W 6019  26.434  30.134  14.403
39611W        W 6020  21.297  26.536   1.814
39612W        W 6021  35.942  38.984   1.364
39613W        W 6022   5.266   6.683   4.255
39614W        W 6023  18.807  12.665   0.383
39615W        W 6024   1.689  35.363  13.493
39616W        W 6025   3.979   5.284  11.002
39617W        W 6026  37.972   9.326  10.737
39618W        W 6027  33.787  39.789   4.225
39619W        W 6028  22.078  34.892  12.064
39620W        W 6029  18.169  37.657  14.260
39621W        W 6030  14.119  41.723  10.810
39622W        W 6031  28.831  44.353   1.810
39623W        W 6032  17.735  43.020  14.402
39624W        W 6033  20.213   0.215   3.796
39625W        W 6034  27.046   2.805  11.184
39626W        W 6035   8.263  37.060   0.299
39627W        W 6036  22.666   3.977  10.672
39628W        W 6037  39.086   3.426   1.768
39629W        W 6038   6.923   5.578  11.444
39630W        W 6039   7.302  26.651  11.605
39631W        W 6040   5.178  33.805   9.977
39632W        W 6041  34.538  17.130  12.475
39633W        W 6042   9.399  12.689  11.665
39634W        W 6043   5.881  16.775  11.548
39635W        W 6044  18.602  37.460   2.347
39636W        W 6045  17.544  20.217  13.042
39637W        W 6046  44.005  17.414  13.469
39638W        W 6047   6.790  20.550   3.280
39639W        W 6048  24.125  23.431   2.058
39640W        W 6049  34.486  43.297   1.570
39641W        W 6050   3.843  14.313  12.570
39642W        W 6051   2.849   1.887   0.912
39643W        W 6052  37.689  16.587  14.355
39644W        W 6053  23.496  19.089   0.403
39645W        W 6054  24.654  35.725   3.410
39646W        W 6055  29.640  35.160   2.308
39647W        W 6056  28.219  33.583  14.999
39648W        W 6057  17.308  35.126   0.259
39649W        W 6058  44.021  14.335  12.773
39650W        W 6059   4.942  31.424   5.004
39651W        W 6060  32.825  20.961  10.744
39652W        W 6061  31.295  38.416  12.283
39653W        W 6062  42.198  15.256  14.957
39654W        W 6063  40.344   4.971  14.062
39655W        W 6064  40.950  39.474   4.015
39656W        W 6065  38.114   1.570   2.890
39657W        W 6066  18.109  36.914   5.470
39658W        W 6067   1.884  42.370   2.448
39659W        W 6068  11.052   8.718   1.472
39660W        W 6069  42.496  36.838   4.293
39661W        W 6070  44.056   9.302   0.021
39662W        W 6071   7.461  43.922  14.870
39663W        W 6072  43.995  40.842   3.191
39664W        W 6073  16.962  31.719   1.306
39665W        W 6074  11.304  28.675   3.919
39666W        W 6075  39.439  12.114   4.891
39667W        W 6076   3.968  32.587   3.126
39668W        W 6077  10.421  31.391  12.177
39669W        W 6078  37.077   8.927   3.724
39670W        W 6079  22.327  21.028  14.387
39671W        W 6080  43.787  34.613   0.554
39672W        W 6081  41.262   4.611  11.614
39673W        W 6082  14.265  37.585   2.823
39674W        W 6083   8.238  14.858  13.013
39675W        W 6084  44.003  42.838   2.438
39676W        W 6085  25.261   7.061   4.446
39677W        W 6086  23.244  43.834  12.969
39678W        W 6087  16.697   3.826   3.288
39679W        W 6088  41.832  32.894  12.374
39680W        W 6089  26.725  32.614  14.812
39681W        W 6090  20.113   7.644   3.270
39682W        W 6091  19.181  39.047   2.833
39683W        W 6092  39.874  39.547   1.696
39684W        W 6093  26.711  43.433  13.606
39685W        W 6094   3.788  32.865   1.872
39686W        W 6095  42.362  42.642   3.738
39687W        W 6096   0.515  15.809   1.143
39688W        W 6097  28.978   6.297   4.196
39689W        W 6098  34.113  34.657  11.570
39690W        W 6099   9.003  29.580  11.453
39691W        W 6100  29.056   1.944  10.771
39692W        W 6101  30.412  39.319  13.951
39693W        W 6102   3.510  26.489   0.816
39694W        W 6103  35.186  27.427  13.415
39695W        W 6104  22.305  17.235  12.123
39696W        W 6105  37.014  28.728   3.604
39697W        W 6106  10.664  10.385  10.547
39698W        W 6107  28.135  38.967  12.907
39699W        W 6108  27.209   1.761  10.854
39700W        W 6109  30.364  29.425  13.130
39701W        W 6110  15.053  40.840   2.809
39702W        W 6111   8.559  29.427   2.650
39703W        W 6112  34.818  40.945  13.361
39704W        W 6113  34.074  41.836   1.417
39705W        W 6114  37.065   3.461  14.572
39706W        W 6115  39.829  41.484  12.889
39707W        W 6116   4.619  14.577   4.849
39708W        W 6117  38.451  20.728   2.250
39709W        W 6118  29.925   6.228  14.512
39710W        W 6119   2.333  20.148   1.719
39711W        W 6120  15.396  40.028   0.365
39712W        W 6121   2.893  35.902  10.512
39713W        W 6122  29.432  12.308   1.860
39714W        W 6123  12.117  19.655   0.993
39715W        W 6124  37.520  27.148   1.697
39716W        W 6125  42.839  17.532   0.830
39717W        W 6126   3.936  28.675   3.552
39718W        W 6127  11.750  41.128  11.707
39719W        W 6128  25.508   8.792   2.418
39720W        W 6129  16.652  25.483   2.761
39721W        W 6130   9.847  42.526  13.922
39722W        W 6131  27.338   4.728  10.623
39723W        W 6132  37.097  23.600   1.120
39724W        W 6133  30.197  12.673   0.069
39725W        W 6134  32.713  27.448   2.763
39726W        W 6135   0.256  41.268   3.650
39727W        W 6136  37.623  39.048   3.368
39728W        W 6137  11.304   4.397  10.304
39729W        W 6138  33.466  25.282   4.343
39730W        W 6139  13.388  28.181   4.180
39731W        W 6140  25.595  32.251   2.077
39732W        W 6141  44.285  27.227  14.539
39733W        W 6142   7.929  42.081  13.521
39734W        W 6143  16.286  14.551   4.854
39735W        W 6144  10.533   7.324  10.597
39736W        W 6145   1.055  29.025   0.744
39737W        W 6146   6.460  11.322   1.343
39738W        W 6147  38.335  16.840  13.001
39739W        W 6148   2.053  12.690   1.221
39740W        W 6149  42.700  28.009   0.460
39741W        W 6150  14.842  30.886  12.817
39742W        W 6151  32.389  28.287   2.896
39743W        W 6152   3.848  31.641   3.265
39744W        W 6153  40.915   0.725  12.345
39745W        W 6154  12.373  16.105   3.680
39746W        W 6155  13.268  44.149  11.711
39747W        W 6156  11.078  11.175  11.470
39748W        W 6157  27.300  14.694   0.455
39749W        W 6158   1.406   0.903   2.595
39750W        W 6159   9.932  44.636   4.161
39751W        W 6160   7.193  32.552  13.584
39752W        W 6161  20.416  15.227  13.552
39753W        W 6162  42.054  14.561   2.689
39754W        W 6163  40.982  43.798   4.381
39755W        W 6164  39.781   6.037   0.297
39756W        W 6165  31.149  35.547  11.886
39757W        W 6166  12.840   3.916  12.549
39758W        W 6167   6.078   3.805  10.996
39759W        W 6168  24.519  39.547   2.424
39760W        W 6169   1.243  41.831   4.514
39761W        W 6170   1.376  43.905  12.116
39762W        W 6171  39.203   3.263   4.157
39763W        W 6172  42.996  13.794   0.506
39764W        W 6173  30.164  29.498  13.951
39765W        W 6174   5.697  15.228  14.228
39766W        W 6175  21.210  21.775  11.612
39767W        W 6176  40.333  39.756   1.858
39768W        W 6177  37.765  15.643   2.332
39769W        W 6178  36.964  31.189   3.554
39770W        W 6179   1.384  28.272   3.285
39771W        W 6180  40.456  39.079   3.401
39772W        W 6181  34.337   9.959   4.758
39773W        W 6182  40.704  17.755  11.213
39774W        W 6183   8.977  23.029  14.390
39775W        W 6184  13.523   7.054   1.774
39776W        W 6185  35.014  25.990  11.484
39777W        W 6186  29.514  37.449   0.199
39778W        W 6187   3.838  32.908   4.083
39779W        W 6188   6.376  42.830   1.437
39780W        W 6189  41.313  18.651  12.937
39781W        W 6190  30.637  31.189  10.730
39782W        W 6191   9.352  17.521  10.436
39783W        W 6192   1.249   8.497   1.411
39784W        W 6193  43.563   0.840   1.900
39785W        W 6194   0.962  20.022   2.407
39786W        W 6195  10.569   6.799  12.279
39787W        W 6196   2.229  17.003   4.256
39788W        W 6197   5.726  22.419  14.463
39789W        W 6198   0.068   6.907  11.135
39790W        W 6199  11.356  25.542   1.044
39791W        W 6200  37.083  21.939   2.334
39792W        W 6201  29.950   7.000  14.968
39793W        W 6202  16.932  36.309   0.982
39794W        W 6203  11.678  33.594  13.526
39795W        W 6204  32.504  30.553   4.499
39796W        W 6205  10.167  44.295   3.751
39797W        W 6206  11.074  40.349  14.302
39798W        W 6207  33.653  10.285  10.838
39799W        W 6208  43.388   4.705  12.788
39800W        W 6209  19.196  17.821  13.811
39801W        W 6210  38.504  25.555  14.389
39802W        W 6211  17.760  31.553   4.453
39803W        W 6212   4.359  36.307  12.398
39804W        W 6213  37.441   9.389   1.742
39805W        W 6214  30.979  17.819   0.815
39806W        W 6215  41.043  17.395  11.063
39807W        W 6216  25.626  26.060   3.375
39808W        W 6217  40.062  41.366   4.356
39809W        W 6218  25.508   1.630  14.253
39810W        W 6219  44.405  11.897   1.720
39811W        W 6220  25.518  29.372  12.604
39812W        W 6221  11.933  38.674   0.228
39813W        W 6222  36.307  15.580   4.457
39814W        W 6223  11.900  12.980   4.058
39815W        W 6224   0.928  39.305  14.442
39816W        W 6225  21.258  40.394  12.571
39817W        W 6226  10.812   8.188  12.456
39818W        W 6227   3.921  23.717   4.990
39819W        W 6228  24.216   7.464   3.637
39820W        W 6229  23.011  11.908  11.628
39821W        W 6230  19.829  41.909   1.929
39822W        W 6231  36.209  43.433   3.426
39823W        W 6232  40.656  18.695   5.149
39824W        W 6233   1.328  34.828   0.757
39825W        W 6234  37.072   0.247   3.660
39826W        W 6235  31.127  40.959  14.388
39827W        W 6236  11.616   2.007  10.725
39828W        W 6237  39.897  26.857  13.489
39829W        W 6238  28.460  43.858  11.981
39830W        W 6239  23.791  20.249  13.504
39831W        W 6240   4.617  33.493  10.835
39832W        W 6241  42.965  38.208   2.719
39833W        W 6242  40.022  43.231  12.875
39834W        W 6243  25.576   1.190   1.636
39835W        W 6244  37.832  34.569   4.504
39836W        W 6245  25.405  35.934  11.052
39837W        W 6246   5.302  17.719   4.702
39838W        W 6247  18.118  36.053  12.632
39839W        W 6248   4.513  15.597  13.011
39840W        W 6249  37.476  43.230   2.590
39841W        W 6250  38.728  28.962  12.764
39842W        W 6251  32.941  19.567   2.173
39843W        W 6252   2.160  18.689   4.392
39844W        W 6253  21.381  19.830  10.705
39845W        W 6254  32.528  29.092  14.735
39846W        W 6255  27.976  16.775   4.674
39847W        W 6256  32.716  16.304  12.981
39848W        W 6257  20.606  43.389  13.667
39849W        W 6258  24.416   8.653   0.949
39850W        W 6259   7.707  39.902   0.989
39851W        W 6260  37.687   6.204  12.928
39852W        W 6261   0.143  39.222  14.335
39853W        W 6262  41.188  33.207   4.067
39854W        W 6263  10.711  44.938   1.940
39855W        W 6264  36.467  11.738  12.997
39856W        W 6265  35.372  24.277  12.184
39857W        W 6266  33.167  29.603   0.021
39858W        W 6267  33.712  22.137   1.994
39859W        W 6268  36.133  13.771  10.581
39860W        W 6269   9.129  18.543  14.901
39861W        W 6270  36.894  28.579  14.015
39862W        W 6271  13.821  17.686   4.093
39863W        W 6272  27.502  17.185   1.476
39864W        W 6273  15.665  40.961  10.883
39865W        W 6274   7.676  23.460  14.549
39866W        W 6275   4.175   7.782  14.896
39867W        W 6276  37.447  14.095  14.377
39868W        W 6277  21.256  27.877  12.927
39869W        W 6278   0.861  17.675   2.729
39870W        W 6279  15.226  17.274   1.696
39871W        W 6280  40.928  23.197   3.414
39872W        W 6281   1.752  30.888   4.673
39873W        W 6282  13.232  42.337  14.575
39874W        W 6283  41.529  21.660   3.773
39875W        W 6284  27.169  43.068   2.159
39876W        W 6285  12.871  36.520   3.047
39877W        W 6286  33.152  10.799   4.567
39878W        W 6287  12.894  10.736  10.716
39879W        W 6288  28.404   4.681   3.844
39880W        W 6289  17.354  41.280   5.016
39881W        W 6290  14.079  32.521  13.250
39882W        W 6291  11.634   3.803   2.187
39883W        W 6292  11.193  33.535   3.128
39884W        W 6293   5.432  20.617   2.657
39885W        W 6294  39.750  16.886  11.579
39886W        W 6295  22.421  35.199  13.405
39887W        W 6296  37.004  36.347  10.770
39888W        W 6297  43.568  28.319   1.456
39889W        W 6298  15.053  19.841  10.643
39890W        W 6299  11.607  11.402   0.394
39891W        W 6300   0.378  26.632  10.990
39892W        W 6301  10.143  11.645   0.433
39893W        W 6302   0.131   0.577  10.938
39894W        W 6303   9.149  10.465  10.428
39895W        W 6304   1.283  21.946   0.919
39896W        W 6305  27.983  15.818   0.431
39897W        W 6306   7.552  41.789  13.877
39898W        W 6307   9.721  34.640  11.691
39899W        W 6308  17.124  33.914   1.195
39900W        W 6309  30.239  23.981  11.092
39901W        W 6310   8.725  21.049  14.775
39902W        W 6311   0.264   6.161  10.851
39903W        W 6312   0.643  36.044   0.013
39904W        W 6313   8.672   6.158  11.105
39905W        W 6314  20.250  12.785  14.526
39906W        W 6315  44.717  19.506  14.742
39907W        W 6316  27.136  35.516   2.210
39908W        W 6317  37.348  12.186   1.799
39909W        W 6318  31.090  17.506   1.217
39910W        W 6319   3.387  39.204   1.423
39911W        W 6320  44.929  17.570   2.756
39912W        W 6321   6.112   9.346   2.886
39913W        W 6322  15.543   4.831  11.833
39914W        W 6323  15.671  24.523   2.669
39915W        W 6324  21.951  28.168   3.173
39916W        W 6325   5.682  30.493   0.066
39917W        W 6326  26.018   3.260  14.738
39918W        W 6327  23.034  14.011   0.449
39919W        W 6328  24.977  11.849  13.752
39920W        W 6329  29.786  34.589   4.240
39921W        W 6330  11.300  41.360  14.954
39922W        W 6331  34.500  23.097   4.227
39923W        W 6332  14.110  22.307  10.450
39924W        W 6333   1.804   1.881   3.675
39925W        W 6334  14.830   8.323   0.815
39926W        W 6335  10.633   8.939  11.533
39927W        W 6336   7.617  18.801   1.963
39928W        W 6337  22.057  32.476  14.946
39929W        W 6338  44.841  39.546   0.666
39930W        W 6339   8.807  29.045   2.876
39931W        W 6340  19.215   2.015   4.658
39932W        W 6341  44.662  24.711  14.625
39933W        W 6342  15.981  26.684   4.027
39934W        W 6343  13.328  15.890  14.061
39935W        W 6344   2.040  36.581   1.858
39936W        W 6345  44.463  39.513   4.931
39937W        W 6346  10.746   0.627  11.513
39938W        W 6347  15.759  39.083  14.826
39939W        W 6348  23.615   7.425   4.254
39940W        W 6349  29.237  36.585  12.086
39941W        W 6350  30.106   8.356   9.708
39942W        W 6351  11.327  18.058   3.635
39943W        W 6352  30.875  38.530  11.216
39944W        W 6353  39.580  22.033  10.593
39945W        W 6354  21.524  36.527  11.360
39946W        W 6355  33.683  33.479  10.103
39947W        W 6356  16.662  13.247  12.228
39948W        W 6357  26.096  33.530  14.457
39949W        W 6358  10.197  31.672  14.051
39950W        W 6359   5.019  15.708  13.011
39951W        W 6360  25.365  33.963  14.261
39952W        W 6361  34.733  15.369   3.344
39953W        W 6362  28.685  37.855   1.766
39954W        W 6363  42.048  28.099   1.308
39955W        W 6364  30.705  38.368   2.214
39956W        W 6365   3.476  37.498  11.684
39957W        W 6366   2.466  16.250  12.539
39958W        W 6367  29.834  14.007  13.080
39959W        W 6368   5.943   0.891   0.396
39960W        W 6369  32.994  40.124  11.176
39961W        W 6370  14.748  17.679   3.658
39962W        W 6371   1.998   1.705   4.676
39963W        W 6372   0.253  34.968   3.281
39964W        W 6373  30.254  23.021   4.136
39965W        W 6374  25.922  36.226  14.665
39966W        W 6375  40.377  30.971  13.935
39967W        W 6376  17.005  19.783  12.399
39968W        W 6377  23.613  26.917   3.860
39969W        W 6378  22.453  17.708   4.167
39970W        W 6379  28.697  43.564  11.092
39971W        W 6380   3.339  10.475  10.419
39972W        W 6381   0.456  40.962  11.064
39973W        W 6382  38.277  31.413  14.077
39974W        W 6383   4.023   2.065  13.898
39975W        W 6384  28.445   6.954  11.050
39976W        W 6385   1.273   9.437   4.648
39977W        W 6386   9.136  39.302  10.859
39978W        W 6387  36.629  24.283   4.677
39979W        W 6388   4.751   0.234   3.688
39980W        W 6389  41.474  40.594   3.659
39981W        W 6390   9.919   8.436  11.242
39982W        W 6391   3.053  26.884  12.545
39983W        W 6392  26.264  42.123   1.720
39984W        W 6393  40.401  41.664   2.834
39985W        W 6394  25.690  32.557   3.653
39986W        W 6395  35.530  42.479   0.872
39987W        W 6396   3.957  13.640   2.436
39988W        W 6397  28.552   6.346   1.069
39989W        W 6398  11.683  30.552  14.424
39990W        W 6399  37.868  39.419  11.595
39991W        W 6400  10.298  27.226  13.371
39992W        W 6401  31.922  36.436   4.553
39993W        W 6402  14.192  23.585   2.518
39994W        W 6403  25.309  40.739  11.148
39995W        W 6404   4.244  27.946   0.049
39996W        W 6405  32.069  33.781  11.133
39997W        W 6406   7.598  41.116   4.159
39998W        W 6407   9.539   7.172  13.419
39999W        W 6408   8.538  36.770   3.778
40000W        W 6409  20.656  36.137   4.094
40001W        W 6410  23.734  30.398  14.817
40002W        W 6411   7.757  16.812   1.957
40003W        W 6412  13.146  38.920  10.739
40004W        W 6413  27.175  41.860   0.584
40005W        W 6414  39.559  33.184   1.379
40006W        W 6415  30.004  20.310   1.829
40007W        W 6416  15.123  29.122   0.847
40008W        W 6417   1.364  35.337  13.883
40009W        W 6418  26.716  23.086   0.127
40010W        W 6419  30.570  17.393   3.752
40011W        W 6420   2.222  26.644  10.636
40012W        W 6421   3.578  38.950  14.419
40013W        W 6422  42.463  21.443   2.782
40014W        W 6423  32.739   5.120  13.939
40015W        W 6424  16.203  24.099  14.959
40016W        W 6425  37.532  29.864  14.370
40017W        W 6426  11.750  22.099   4.657
40018W        W 6427  40.596  18.106  14.768
40019W        W 6428   7.176  29.852   1.404
40020W        W 6429   2.354   1.221  12.546
40021W        W 6430  24.228  15.143   0.755
40022W        W 6431  26.164  35.316   3.387
40023W        W 6432  44.281  31.791   3.800
40024W        W 6433  37.317   4.750   2.661
40025W        W 6434  38.023  40.475  13.996
40026W        W 6435  16.149  37.228  14.504
40027W        W 6436  22.530  13.576   0.891
40028W        W 6437  25.564  43.767  13.118
40029W        W 6438  41.056  18.819  13.380
40030W        W 6439  16.237  29.214  10.820
40031W        W 6440  21.583  19.966   4.234
40032W        W 6441  41.946   9.633  13.600
40033W        W 6442  14.184  41.469  12.853
40034W        W 6443   2.212   4.141  14.513
40035W        W 6444  31.317  27.547  13.791
40036W        W 6445  13.210  25.889  10.723
40037W        W 6446  32.471  31.897   0.627
40038W        W 6447   8.533   5.926   2.421
40039W        W 6448  13.782  43.774  13.027
40040W        W 6449  10.266  18.790  12.908
40041W        W 6450  35.896  40.553   4.076
40042W        W 6451  23.196  30.709  13.935
40043W        W 6452  36.685  44.529   4.069
40044W        W 6453  27.720  24.038  13.453
40045W        W 6454   9.171  11.738  12.526
40046W        W 6455  24.770  25.529  12.972
40047W        W 6456  15.695  23.135   1.289
40048W        W 6457  34.110  18.789   0.308
40049W        W 6458  30.592  41.554   3.192
40050W        W 6459  22.895  29.653   3.210
40051W        W 6460   3.394  11.691  14.265
40052W        W 6461   6.176   6.887   2.312
40053W        W 6462  35.197  29.933  12.467
40054W        W 6463  10.724  43.675   1.378
40055W        W 6464   4.837   9.950   5.004
40056W        W 6465  38.440  29.059   1.824
40057W        W 6466  25.685  25.085  12.374
40058W        W 6467  26.195  40.937   3.608
40059W        W 6468  27.187  19.167   4.750
40060W        W 6469  41.038  27.082  13.751
40061W        W 6470  14.153   2.738   1.721
40062W        W 6471  22.153  30.940  12.011
40063W        W 6472  36.801   8.697   3.350
40064W        W 6473  15.016  35.483   0.510
40065W        W 6474  34.784   3.291  11.290
40066W        W 6475  11.452  20.108  10.721
40067W        W 6476  29.972  13.678   2.270
40068W        W 6477  37.345  35.158  14.919
40069W        W 6478  13.432  21.080  13.810
40070W        W 6479  19.145  36.909  13.450
40071W        W 6480   5.253  12.099   1.430
40072W        W 6481   3.754  12.461   2.630
40073W        W 6482  15.191  25.203  10.120
40074W        W 6483  12.922  15.481   5.110
40075W        W 6484  39.086  17.830  12.524
40076W        W 6485   3.312   5.426   4.327
40077W        W 6486   9.333   9.828   1.103
40078W        W 6487  42.445   7.368   0.357
40079W        W 6488  20.811   4.316   3.288
40080W        W 6489   4.398  37.646  13.329
40081W        W 6490  33.904  33.970  10.922
40082W        W 6491   0.369  23.262   3.633
40083W        W 6492  15.490  35.941  13.072
40084W        W 6493  25.502  28.678   3.454
40085W        W 6494  29.384  28.646  13.464
40086W        W 6495  37.841  28.922  12.019
40087W        W 6496   8.358   3.357  14.842
40088W        W 6497  36.088  41.168   3.210
40089W        W 6498  12.506  36.942  12.333
40090W        W 6499   4.213  10.384  10.498
40091W        W 6500  30.703  15.564  10.437
40092W        W 6501  37.935  43.464   3.419
40093W        W 6502   9.417   3.923   1.725
40094W        W 6503  30.516  16.024   3.345
40095W        W 6504  31.707  37.203  12.820
40096W        W 6505  30.497   7.660  10.359
40097W        W 6506  37.257   6.470  12.955
40098W        W 6507  35.597   2.436   4.178
40099W        W 6508  30.649  22.798  12.580
40100W        W 6509  14.075   6.366  11.496
40101W        W 6510   1.148  11.412   9.832
40102W        W 6511  20.302  27.894   2.165
40103W        W 6512  35.829  29.576  11.106
40104W        W 6513  41.982  13.824  10.949
40105W        W 6514   5.434   0.726  11.121
40106W        W 6515  21.376   0.847  10.810
40107W        W 6516   0.514   3.930   1.794
40108W        W 6517  32.542  13.240  12.211
40109W        W 6518  37.598  40.533  14.799
40110W        W 6519  38.364  18.627   0.392
40111W        W 6520  30.560  12.074   3.722
40112W        W 6521  10.148  22.680  12.558
40113W        W 6522  23.216  40.615  12.060
40114W        W 6523  11.859  18.271   1.221
40115W        W 6524   4.216  21.060   4.532
40116W        W 6525  21.702  26.188  14.787
40117W        W 6526  15.117  10.827   1.824
40118W        W 6527  35.249  25.183  12.428
40119W        W 6528  35.541  11.129   3.418
40120W        W 6529   6.734   5.338  14.722
40121W        W 6530  15.392   7.258   1.683
40122W        W 6531   4.707  26.695  13.877
40123W        W 6532   0.611   0.562   3.547
40124W        W 6533  24.230  39.891  14.318
40125W        W 6534  26.861   6.831   1.230
40126W        W 6535  30.818  13.267   4.766
40127W        W 6536  28.483  42.374   4.349
40128W        W 6537  31.839  37.290  11.547
40129W        W 6538  19.678   9.420  12.098
40130W        W 6539  22.046  27.730   2.264
40131W        W 6540  31.016  28.369   4.132
40132W        W 6541  34.813  36.421  14.077
40133W        W 6542  11.303  30.307   0.096
40134W        W 6543  22.254  39.333  12.942
40135W        W 6544  21.626  22.959  14.888
40136W        W 6545  41.817  42.392   3.007
40137W        W 6546   0.260  31.115   0.362
40138W        W 6547  21.969  23.131   0.228
40139W        W 6548  20.589  41.941   4.054
40140W        W 6549  42.385   8.496   1.541
40141W        W 6550  28.529  35.479  14.917
40142W        W 6551  25.516  42.282  10.704
40143W        W 6552  21.079  13.367  12.849
40144W        W 6553  33.015  12.726  13.843
40145W        W 6554   9.609  15.257  14.456
40146W        W 6555  39.010  35.099  12.464
40147W        W 6556  18.149  14.699   0.144
40148W        W 6557  39.902  33.691   0.130
40149W        W 6558   9.759  38.417  13.543
40150W        W 6559  33.529  19.649   0.365
40151W        W 6560  20.959   6.797   2.395
40152W        W 6561   0.356   3.317  10.745
40153W        W 6562  30.856   3.051  12.514
40154W        W 6563  24.044  25.717   0.998
40155W        W 6564  28.482  15.219  13.605
40156W        W 6565  13.060   8.702   2.300
40157W        W 6566  37.862  35.063  14.980
40158W        W 6567  12.683  27.174   0.918
40159W        W 6568  32.224   9.310   3.297
40160W        W 6569  36.235  25.899  14.280
40161W        W 6570   4.964  32.081  13.476
40162W        W 6571   8.737  43.667  11.379
40163W        W 6572  13.654  28.041  12.232
40164W        W 6573  25.681  26.650  11.216
40165W        W 6574  38.928  32.167  14.432
40166W        W 6575  31.557  20.685  11.717
40167W        W 6576  37.551  18.109  14.309
40168W        W 6577  14.301  34.072  13.375
40169W        W 6578  28.688  44.444  13.351
40170W        W 6579  23.000   1.275   0.840
40171W        W 6580   2.412  34.447   3.844
40172W        W 6581  25.222   9.733   2.731
40173W        W 6582  12.229  27.294  11.606
40174W        W 6583   1.205  32.128  12.563
40175W        W 6584   8.301  13.578  11.002
40176W        W 6585  34.488  38.072   4.241
40177W        W 6586  33.079   5.387   1.086
40178W        W 6587  36.444  43.692   2.071
40179W        W 6588  43.574  34.887   1.119
40180W        W 6589  38.535   4.989  10.969
40181W        W 6590  19.232   3.890  14.045
40182W        W 6591  12.182  29.659  10.686
40183W        W 6592  23.438   8.448   3.338
40184W        W 6593  18.943   7.745  12.935
40185W        W 6594  38.164  15.089   9.820
40186W        W 6595  24.723  17.744   1.775
40187W        W 6596  18.527  16.104   2.467
40188W        W 6597  32.819   5.824   5.034
40189W        W 6598  14.144   1.206   1.314
40190W        W 6599   4.996  19.298   1.961
40191W        W 6600  35.506  18.354  12.931
40192W        W 6601  35.255  36.555   0.152
40193W        W 6602  19.801  27.434  12.087
40194W        W 6603   9.813  35.125  11.541
40195W        W 6604  16.715   9.764   1.818
40196W        W 6605  39.015  29.836   1.774
40197W        W 6606  13.691   6.057   1.679
40198W        W 6607   3.735  13.331   3.234
40199W        W 6608  29.137  38.936  13.794
40200W        W 6609  26.596  12.593   0.491
40201W        W 6610   0.479  41.920  12.998
40202W        W 6611   3.994   2.629  13.046
40203W        W 6612  39.888  28.539   4.114
40204W        W 6613  32.394  41.427  10.974
40205W        W 6614  17.075  28.140  10.233
40206W        W 6615  19.622  37.849   4.459
40207W        W 6616   1.776  14.643  14.513
40208W        W 6617  35.958  27.121  10.740
40209W        W 6618  34.109  16.139   2.681
40210W        W 6619  29.677   9.606  10.485
40211W        W 6620  22.255  26.073  10.859
40212W        W 6621  30.640   3.365  13.387
40213W        W 6622  24.197  37.956  11.905
40214W        W 6623  12.795  24.524  14.289
40215W        W 6624   5.269  16.063   0.005
40216W        W 6625  42.229   7.948  14.471
40217W        W 6626  14.596  19.227   3.686
40218W        W 6627   5.538   3.891   4.217
40219W        W 6628  10.265  22.039   2.618
40220W        W 6629  33.817  15.995   4.527
40221W        W 6630  13.300  21.500   5.214
40222W        W 6631   8.701  15.561   2.309
40223W        W 6632  34.282  17.151  12.023
40224W        W 6633  26.964   6.833   4.956
40225W        W 6634  22.985  37.473   0.943
40226W        W 6635  34.334   0.720  13.572
40227W        W 6636  13.147  14.169  12.485
40228W        W 6637  17.078  16.229  12.499
40229W        W 6638  14.175  22.808  13.010
40230W        W 6639  15.143  33.208  11.240
40231W        W 6640  44.959  30.111   0.799
40232W        W 6641  37.228  41.245  12.420
40233W        W 6642  32.130   6.935  14.202
40234W        W 6643  31.737   0.588  13.012
40235W        W 6644  36.131  12.727  12.007
40236W        W 6645  41.854  31.968   5.029
40237W        W 6646  15.697  27.924  14.674
40238W        W 6647  36.325   3.162   1.342
40239W        W 6648  37.568  21.293   2.243
40240W        W 6649   4.910   2.446   4.156
40241W        W 6650  22.469  23.749  11.105
40242W        W 6651  38.618  27.922  12.980
40243W        W 6652  11.311  27.028  14.368
40244W        W 6653  20.246  19.785   2.712
40245W        W 6654  44.852  43.191  10.894
40246W        W 6655  33.866  37.026  12.125
40247W        W 6656  18.816  40.930   1.342
40248W        W 6657   4.200  44.931   0.492
40249W        W 6658  21.812  10.286  14.296
40250W        W 6659  14.313  33.164  11.988
40251W        W 6660  20.416  20.711  13.876
40252W        W 6661  44.482  33.568   0.273
40253W        W 6662  32.076  27.039  12.169
40254W        W 6663  33.474  29.999   3.157
40255W        W 6664  28.251  29.771   4.376
40256W        W 6665  36.969   5.887   4.900
40257W        W 6666   3.675   8.886  11.112
40258W        W 6667  28.287   2.290   1.823
40259W        W 6668  28.368  17.210  11.706
40260W        W 6669   8.453  18.118   3.794
40261W        W 6670  15.181  39.903   3.282
40262W        W 6671  37.429  26.558  12.526
40263W        W 6672  12.493   5.781  13.452
40264W        W 6673  17.562   7.075  11.644
40265W        W 6674   2.887  14.239   1.218
40266W        W 6675  38.914  35.407  14.040
40267W        W 6676  23.563  13.709  14.038
40268W        W 6677  27.146  15.219   4.609
40269W        W 6678  27.711  23.948  12.449
40270W        W 6679  23.313  19.676  14.319
40271W        W 6680  37.349  28.514   1.296
40272W        W 6681  18.649   3.338   1.223
40273W        W 6682  16.246  23.223  12.902
40274W        W 6683  43.326  17.530  14.989
40275W        W 6684  43.733  42.616   0.685
40276W        W 6685  33.936   5.545  12.110
40277W        W 6686  43.450  31.197   2.595
40278W        W 6687  28.233  30.963  14.825
40279W        W 6688  12.196   6.818  12.982
40280W        W 6689  44.520  34.695  14.462
40281W        W 6690   5.674   5.640   4.123
40282W        W 6691  41.533  16.373   4.144
40283W        W 6692  37.750   2.210  14.321
40284W        W 6693  20.672  13.415  12.461
40285W        W 6694  11.396  36.945  13.639
40286W        W 6695   7.811  27.160  11.099
40287W        W 6696  20.350  16.201   4.573
40288W        W 6697  14.320   6.676   0.364
40289W        W 6698  33.609  29.790  14.437
40290W        W 6699  19.962  11.458  13.200
40291W        W 6700   1.738   0.581   2.347
40292W        W 6701  39.395  14.974  14.872
40293W        W 6702  21.992   6.952   0.457
40294W        W 6703  34.023  18.006  11.657
40295W        W 6704  31.496   3.971  13.940
40296W        W 6705   1.425   8.751   0.715
40297W        W 6706  31.800  42.792   1.002
40298W        W 6707  38.594  28.509  13.645
40299W        W 6708  35.987  13.218  14.842
40300W        W 6709  20.946  38.172  11.856
40301W        W 6710  28.581  32.371   4.186
40302W        W 6711  12.858  40.513   4.499
40303W        W 6712  18.445  26.556  11.577
40304W        W 6713   1.734  29.666   4.160
40305W        W 6714   6.814  10.260  10.514
40306W        W 6715  10.091  42.419  14.360
40307W        W 6716   7.945  24.499  13.345
40308W        W 6717  21.173   7.332   3.132
40309W        W 6718   2.641  35.102  13.499
40310W        W 6719  12.018  37.851   1.698
40311W        W 6720   6.400  34.170  12.393
40312W        W 6721  19.155   6.889  10.519
40313W        W 6722  11.222   0.457  14.392
40314W        W 6723   6.480  44.624   1.440
40315W        W 6724  34.976  30.614   2.596
40316W        W 6725  39.819   2.451   0.146
40317W        W 6726   0.700  11.753  13.965
40318W        W 6727  28.565  21.960   2.161
40319W        W 6728   3.302  34.399   3.740
40320W        W 6729   9.131  32.073   3.646
40321W        W 6730  35.952   2.001  14.713
40322W        W 6731  44.804  14.818   1.781
40323W        W 6732  14.403  16.180  13.273
40324W        W 6733  31.433  25.729   4.616
40325W        W 6734  30.711  30.422   4.173
40326W        W 6735  32.402  21.683  11.206
40327W        W 6736  21.002  12.460   4.087
40328W        W 6737  35.468   1.582   4.664
40329W        W 6738  35.901   1.015   4.073
40330W        W 6739  29.131   0.942   2.085
40331W        W 6740  32.361  38.160  12.208
40332W        W 6741  15.958   2.918  12.450
40333W        W 6742  15.195  30.147   0.880
40334W        W 6743  39.188  35.060  13.086
40335W        W 6744  31.369  10.165   1.231
40336W        W 6745  30.559  19.732   4.161
40337W        W 6746  11.518  42.453  14.493
40338W        W 6747  21.182   8.602  12.605
40339W        W 6748   8.116   7.848   4.365
40340W        W 6749   1.941   7.267   0.872
40341W        W 6750  18.629   4.132   0.780
40342W        W 6751  17.133   6.697   4.099
40343W        W 6752  12.184  31.599  11.740
40344W        W 6753  32.264  32.570  12.841
40345W        W 6754  24.315   5.365  13.868
40346W        W 6755  13.740  33.959  12.531
40347W        W 6756  36.309  33.433  11.808
40348W        W 6757   2.517  20.048  11.562
40349W        W 6758  31.165  33.964  13.313
40350W        W 6759  10.486  13.656   2.243
40351W        W 6760   4.293  39.959   3.308
40352W        W 6761  16.554  36.889   0.511
40353W        W 6762   4.190  35.977  10.751
40354W        W 6763  27.281  43.646  11.999
40355W        W 6764   0.053  10.709  11.212
40356W        W 6765  34.597   8.932  13.397
40357W        W 6766   8.688  26.446  11.218
40358W        W 6767  31.493   2.935  14.572
40359W        W 6768   6.745  34.098   3.869
40360W        W 6769  10.259  23.624  11.541
40361W        W 6770   3.189   8.152   1.862
40362W        W 6771  30.398  22.501   3.481
40363W        W 6772   3.026  36.566  11.104
40364W        W 6773   8.783  37.770   2.744
40365W        W 6774  11.582   4.130   0.950
40366W        W 6775  36.916  20.257  14.297
40367W        W 6776  18.295  20.213   0.777
40368W        W 6777   5.478  29.549   3.814
40369W        W 6778  26.184  38.570  12.533
40370W        W 6779  24.877  35.408  11.562
40371W        W 6780   3.052  41.398   0.616
40372W        W 6781  40.424  27.030   0.221
40373W        W 6782  29.843  27.443   4.464
40374W        W 6783  42.269  10.979   4.020
40375W        W 6784  21.100  37.018   0.540
40376W        W 6785  15.668  32.872  12.846
40377W        W 6786   4.971  36.600   0.247
40378W        W 6787  16.688  14.300   4.592
40379W        W 6788   1.841  10.693  10.456
40380W        W 6789   0.266   7.402   2.946
40381W        W 6790  10.153  26.979  10.153
40382W        W 6791  44.992   9.289   1.326
40383W        W 6792  30.582  10.732  12.085
40384W        W 6793  29.968  25.605   1.819
40385W        W 6794  32.275   0.646   1.416
40386W        W 6795  41.385  25.707  14.825
40387W        W 6796   4.750  38.728   1.812
40388W        W 6797  11.119  16.152  14.613
40389W        W 6798  27.664  40.427   1.041
40390W        W 6799  22.930  22.448   1.377
40391W        W 6800  32.114   2.406   3.602
40392W        W 6801  24.309   5.257   2.197
40393W        W 6802  27.661   4.621   1.198
40394W        W 6803   1.923  40.013   4.554
40395W        W 6804  33.477  43.361   3.879
40396W        W 6805  38.255  32.077   2.792
40397W        W 6806  26.967  19.003  13.768
40398W        W 6807   9.785   2.024   1.795
40399W        W 6808  17.638  11.337   1.471
40400W        W 6809   2.194  33.901   0.711
40401W        W 6810  39.201  18.144   3.083
40402W        W 6811  37.971  38.767   1.138
40403W        W 6812  43.225   0.994  13.947
40404W        W 6813  32.689  39.381   0.935
40405W        W 6814  34.662  24.101   4.675
40406W        W 6815  25.758  29.222  10.971
40407W        W 6816   8.702  14.356   0.193
40408W        W 6817  34.133   4.337  12.476
40409W        W 6818   4.299  25.727   1.705
40410W        W 6819  11.769  14.546   1.904
40411W        W 6820  15.377  31.386   1.470
40412W        W 6821  42.339  43.016   1.031
40413W        W 6822  35.385   9.705  13.404
40414W        W 6823   8.217   0.007   2.883
40415W        W 6824  28.196  35.817  14.499
40416W        W 6825  13.448  19.495  12.337
40417W        W 6826  29.016  16.125  11.011
40418W        W 6827  18.502  13.089   0.378
40419W        W 6828  15.077   9.698   3.641
40420W        W 6829  35.118  44.267  14.750
40421W        W 6830  39.321   7.046  14.006
40422W        W 6831  33.733  23.074   1.567
40423W        W 6832   6.427  30.871  10.654
40424W        W 6833  37.811  42.278  11.180
40425W        W 6834   0.747  24.572  13.149
40426W        W 6835  22.660  15.676   3.655
40427W        W 6836  14.557  36.745   4.476
40428W        W 6837  32.520  15.205   3.775
40429W        W 6838   1.374  11.748   0.700
40430W        W 6839   7.410  26.997   1.673
40431W        W 6840  42.265  30.174  13.425
40432W        W 6841  11.293  29.174   0.231
40433W        W 6842  34.962  41.512  13.017
40434W        W 6843  44.038  32.930  14.910
40435W        W 6844  41.427  41.090   3.703
40436W        W 6845  36.298  41.355   2.275
40437W        W 6846  10.411  29.371   2.286
40438W        W 6847  40.370  29.984  14.066
40439W        W 6848  15.297   9.616   2.650
40440W        W 6849   1.709  32.021  12.470
40441W        W 6850  14.998  36.104   3.756
40442W        W 6851  20.475  10.847  11.525
40443W        W 6852  12.978  35.434  10.628
40444W        W 6853   5.237  36.138   3.818
40445W        W 6854  33.661  38.203   5.056
40446W        W 6855  19.761  44.137  14.591
40447W        W 6856   7.488   6.756   4.224
40448W        W 6857  34.005   3.339   1.942
40449W        W 6858  17.145  41.757  10.912
40450W        W 6859  30.060  12.390   2.720
40451W        W 6860   7.765   3.827  13.722
40452W        W 6861   6.351  35.497   2.458
40453W        W 6862  14.007  27.872  13.492
40454W        W 6863   2.293  15.377  11.653
40455W        W 6864  40.629  35.877  10.252
40456W        W 6865  13.850  10.584  12.088
40457W        W 6866   9.875  19.274   3.847
40458W        W 6867  30.155   6.013  14.084
40459W        W 6868   9.271  35.057  12.846
40460W        W 6869   8.512  21.575   2.167
40461W        W 6870  27.590  31.591   0.753
40462W        W 6871  30.039  25.593  14.915
40463W        W 6872  29.117  40.896   1.707
40464W        W 6873  16.492  43.090   0.264
40465W        W 6874  28.049  17.516  11.170
40466W        W 6875   9.151  14.144  11.446
40467W        W 6876  20.172   4.887   1.453
40468W        W 6877  13.442  31.530  12.638
40469W        W 6878  27.363  26.940  10.776
40470W        W 6879  36.944  20.636  12.533
40471W        W 6880  34.668  11.820   2.748
40472W        W 6881  32.817  15.327   0.666
40473W        W 6882  10.326  17.285   3.325
40474W        W 6883  33.347  30.189   3.649
40475W        W 6884  38.762  12.214  14.958
40476W        W 6885  23.048   0.401  10.783
40477W        W 6886  38.860  19.145   4.028
40478W        W 6887  21.162  41.378   0.182
40479W        W 6888  34.630  25.571   2.891
40480W        W 6889   1.335  32.572   3.222
40481W        W 6890  27.512  30.046  10.734
40482W        W 6891  12.210  38.403  14.887
40483W        W 6892  23.467  26.008  14.029
40484W        W 6893  43.916  20.819   4.113
40485W        W 6894  18.759  18.861   1.456
40486W        W 6895  22.043   7.205   4.544
40487W        W 6896  41.124   5.867  12.186
40488W        W 6897  20.483   8.332  11.086
40489W        W 6898  24.999  37.905   3.370
40490W        W 6899  37.204  40.831   4.701
40491W        W 6900  42.902  30.655   4.507
40492W        W 6901  22.046  44.309   3.234
40493W        W 6902   1.761  39.491   4.147
40494W        W 6903  38.474  14.518   2.347
40495W        W 6904  17.534  35.237   2.846
40496W        W 6905   4.437  42.035   2.841
40497W        W 6906   6.216  29.044   3.626
40498W        W 6907  24.711  24.873   1.960
40499W        W 6908  23.783   0.784  14.534
40500W        W 6909   0.017  34.831   0.394
40501W        W 6910   0.920  29.427  12.478
40502W        W 6911  23.979  27.537  11.981
40503W        W 6912  26.198  27.338   4.611
40504W        W 6913  31.685   3.894   1.825
40505W        W 6914  24.252   3.827  14.415
40506W        W 6915  33.817  40.087   9.939
40507W        W 6916  43.367   6.718   1.667
40508W        W 6917  39.968  20.043   1.866
40509W        W 6918  24.080  18.943   1.026
40510W        W 6919  25.292  36.367   2.861
40511W        W 6920  28.940  38.865   3.816
40512W        W 6921  24.581   9.356   4.544
40513W        W 6922  30.520  25.122  12.351
40514W        W 6923  32.187  36.701   1.136
40515W        W 6924  43.995  16.184  13.801
40516W        W 6925  29.909  32.795  14.649
40517W        W 6926  30.939  12.080   1.226
40518W        W 6927  38.609  22.634  13.593
40519W        W 6928   4.856  29.071   4.420
40520W        W 6929  14.176  10.684   1.315
40521W        W 6930  44.175  43.394   1.272
40522W        W 6931  37.967  44.081  13.027
40523W        W 6932  33.633   5.708  13.397
40524W        W 6933  13.522   3.221  12.409
40525W        W 6934  13.444  13.270  12.610
40526W        W 6935  29.698  44.226   0.772
40527W        W 6936  22.320  42.818   0.919
40528W        W 6937  26.232  18.698  10.647
40529W        W 6938  22.246  27.603   1.714
40530W        W 6939  21.138  34.469   3.270
40531W        W 6940  42.708  13.213   2.244
40532W        W 6941   3.346  44.243  13.393
40533W        W 6942  23.062  36.588   3.294
40534W        W 6943  16.970  11.848   0.013
40535W        W 6944  26.484   6.999  13.543
40536W        W 6945   9.575  44.851  10.696
40537W        W 6946  40.426   4.552  14.869
40538W        W 6947   4.826  43.602  11.464
40539W        W 6948   0.811  12.070  11.931
40540W        W 6949  18.029  42.293   0.696
40541W        W 6950  33.566  18.026   3.326
40542W        W 6951  41.931  35.373  13.799
40543W        W 6952   1.349  40.114  14.412
40544W        W 6953  20.282  32.102  14.336
40545W        W 6954   5.906  37.853  13.441
40546W        W 6955  41.296  23.485   0.417
40547W        W 6956  13.773  26.543   1.178
40548W        W 6957  21.714  31.845  14.370
40549W        W 6958   4.370  15.333   1.199
40550W        W 6959  30.577  12.343  13.991
40551W        W 6960   2.961  13.039   3.603
40552W        W 6961   7.508   7.484  13.809
40553W        W 6962  18.704  33.030  13.010
40554W        W 6963   2.886  27.721  11.246
40555W        W 6964  24.961   5.923  12.865
40556W        W 6965   6.760  30.640   3.254
40557W        W 6966  25.181  21.565  14.891
40558W        W 6967  30.657  22.111   0.418
40559W        W 6968  17.104  28.200  14.916
40560W        W 6969  41.433  36.335   1.928
40561W        W 6970   4.904  25.932  10.752
40562W        W 6971  31.012   4.826  12.737
40563W        W 6972  44.693  22.659   0.269
40564W        W 6973  37.678  19.231   2.593
40565W        W 6974  40.727   1.002   1.897
40566W        W 6975  20.957  11.511  14.955
40567W        W 6976  25.102  39.766  11.889
40568W        W 6977   4.938   3.855  11.611
40569W        W 6978  42.072  33.298  12.117
40570W        W 6979  37.660  41.886   0.835
40571W        W 6980  22.169  14.554   0.340
40572W        W 6981   0.947   5.255  13.081
40573W        W 6982  24.056  30.174  12.546
40574W        W 6983  12.742   4.705  12.161
40575W        W 6984   6.229  15.836   2.834
40576W        W 6985  16.334  22.799   2.878
40577W        W 6986  27.070  38.007  11.965
40578W        W 6987  36.211   6.303   3.981
40579W        W 6988  25.062  26.609   4.578
40580W        W 6989  44.405  28.671   1.829
40581W        W 6990  31.431  10.625   0.951
40582W        W 6991   3.114  16.637   1.998
40583W        W 6992  26.172  18.744   4.101
40584W        W 6993   2.095  40.736   0.951
40585W        W 6994  10.219   7.303   1.797
40586W        W 6995   7.106  34.356   9.848
40587W        W 6996   8.742  10.673  11.567
40588W        W 6997  41.416  38.643   1.951
40589W        W 6998  20.546  36.154  14.934
40590W        W 6999   8.848  20.326  14.144
40591W        W 7000   3.750  35.562  14.748
40592W        W 7001  42.732  36.512  14.871
40593W        W 7002  40.178  10.821   4.958
40594W        W 7003  31.979   1.982  13.356
40595W        W 7004  11.150  43.208  14.019
40596W        W 7005  21.181  33.419  11.969
40597W        W 7006  14.953  27.823  11.209
40598W        W 7007  18.647   0.895   0.844
40599W        W 7008  42.236  15.705   3.684
40600W        W 7009  27.609  26.072  11.700
40601W        W 7010   8.559   4.604  10.185
40602W        W 7011  25.557  10.998   0.528
40603W        W 7012  44.347  44.771   3.638
40604W        W 7013  13.946   4.597  12.376
40605W        W 7014  33.434  42.403  11.969
40606W        W 7015  32.040  34.319  12.055
40607W        W 7016   5.785  32.498   4.902
40608W        W 7017  38.256  16.737  12.047
40609W        W 7018   1.698  14.187  13.314
40610W        W 7019  16.725  29.615  14.815
40611W        W 7020  30.938  17.858   3.957
40612W        W 7021  29.416  44.800   2.717
40613W        W 7022  23.119  13.896   2.706
40614W        W 7023   9.119  41.076   0.876
40615W        W 7024  20.812  14.549   0.362
40616W        W 7025  35.417  39.732   0.775
40617W        W 7026  19.467  26.043  12.093
40618W        W 7027  38.988   5.728   4.983
40619W        W 7028  17.799  16.020  12.069
40620W        W 7029  22.618  16.862  10.489
40621W        W 7030  38.770   7.047   4.300
40622W        W 7031  29.398  29.383   3.714
40623W        W 7032  14.747  26.194   3.427
40624W        W 7033  29.076  25.219  11.242
40625W        W 7034  31.239   7.026   1.275
40626W        W 7035  35.102  19.722  10.156
40627W        W 7036   3.969  16.197   2.274
40628W        W 7037   1.013  12.627   1.462
40629W        W 7038  18.589  14.105   3.233
40630W        W 7039   3.438  16.078   3.833
40631W        W 7040  22.636  37.769  13.564
40632W        W 7041  30.528   9.711  10.288
40633W        W 7042  26.065  39.406  12.564
40634W        W 7043  36.562  15.146   1.919
40635W        W 7044  28.911  34.360  12.245
40636W        W 7045  36.404  28.378   3.949
40637W        W 7046  15.356  14.181  13.497
40638W        W 7047  12.137  28.178  12.207
40639W        W 7048   7.661  14.214  14.342
40640W        W 7049  26.580  11.756   1.604
40641W        W 7050  42.531  39.986   3.788
40642W        W 7051  41.359  20.065   4.545
40643W        W 7052   4.333  25.932   1.222
40644W        W 7053  21.293  12.857   2.966
40645W        W 7054  25.064  19.966  10.243
40646W        W 7055  24.508  36.029   0.658
40647W        W 7056  32.691  43.746  10.687
40648W        W 7057  18.044  41.367   3.574
40649W        W 7058   0.860  10.806   2.069
40650W        W 7059  44.013  13.546  13.585
40651W        W 7060  10.574   4.023  13.815
40652W        W 7061  41.904   9.675   1.411
40653W        W 7062  27.904   5.656  13.463
40654W        W 7063   5.549   4.711  11.627
40655W        W 7064  20.082  44.482  10.691
40656W        W 7065  13.819  36.187  11.132
40657W        W 7066  37.968  17.375   0.474
40658W        W 7067  25.864  18.243   3.351
40659W        W 7068  36.246  25.146  12.713
40660W        W 7069  32.930  12.777  11.136
40661W        W 7070   1.995  27.444  11.682
40662W        W 7071  19.150  10.634  13.336
40663W        W 7072  41.542  31.814   2.855
40664W        W 7073  31.905  27.096   1.287
40665W        W 7074  28.852  17.525   4.339
40666W        W 7075  33.055  14.381  13.095
40667W        W 7076  10.351   6.339   3.556
40668W        W 7077  10.869   7.704  12.632
40669W        W 7078  10.382   4.871  14.528
40670W        W 7079  12.045  38.547   3.317
40671W        W 7080  14.307  32.840  12.402
40672W        W 7081  39.497   2.848  11.579
40673W        W 7082  16.358  29.561  10.423
40674W        W 7083  26.558  16.760   0.820
40675W        W 7084  19.305  12.534   2.773
40676W        W 7085  35.928   7.909  13.048
40677W        W 7086  31.472  27.932   1.225
40678W        W 7087   1.523  29.583  12.020
40679W        W 7088  14.999   2.874   3.043
40680W        W 7089  18.608  29.198   0.768
40681W        W 7090  39.802  24.418  11.151
40682W        W 7091  38.006   5.148   0.710
40683W        W 7092  25.656  44.267  11.210
40684W        W 7093  11.604  25.457  12.663
40685W        W 7094  14.927   8.675   2.876
40686W        W 7095  24.296  29.237   2.810
40687W        W 7096  24.776  21.747  12.048
40688W        W 7097  33.716   4.015  12.063
40689W        W 7098  13.555  20.288   2.184
40690W        W 7099  24.207  24.672   3.621
40691W        W 7100  14.419   0.988   3.388
40692W        W 7101  30.264  26.508  10.653
40693W        W 7102  11.717  31.002   4.584
40694W        W 7103  13.756  21.294   3.527
40695W        W 7104  18.270  35.604   3.932
40696W        W 7105  24.588  15.435   4.755
40697W        W 7106   7.457   6.322   4.536
40698W        W 7107  43.909  14.239   3.775
40699W        W 7108   9.473  42.471   1.854
40700W        W 7109  36.574  35.543   3.609
40701W        W 7110  17.504  30.636   2.392
40702W        W 7111   5.692   8.237   2.202
40703W        W 7112  33.379  13.309  11.705
40704W        W 7113   0.763  28.006   3.640
40705W        W 7114  18.241  29.114  11.409
40706W        W 7115  23.743  31.983   3.678
40707W        W 7116  27.123   0.076  11.211
40708W        W 7117  29.945  42.755   3.562
40709W        W 7118  18.197  37.596  11.901
40710W        W 7119  11.284  18.635  13.168
40711W        W 7120  20.153  24.686   0.087
40712W        W 7121  11.629  29.453  14.943
40713W        W 7122  32.851  30.922  14.599
40714W        W 7123  24.988  23.464  14.722
40715W        W 7124  12.365   6.443   5.152
40716W        W 7125   5.959  14.595   1.330
40717W        W 7126  33.960  34.066   4.560
40718W        W 7127   3.949  15.032  10.509
40719W        W 7128  21.644  11.248   0.421
40720W        W 7129  35.994  28.632  11.957
40721W        W 7130  14.154  43.575   3.743
40722W        W 7131  31.906  21.511   0.253
40723W        W 7132   7.968  27.505  13.157
40724W        W 7133  38.821   5.639   9.983
40725W        W 7134  18.632  37.099  11.783
40726W        W 7135  15.055  42.954   1.120
40727W        W 7136  39.820  34.701   0.290
40728W        W 7137  17.236  11.808  11.431
40729W        W 7138  33.945  44.679   2.011
40730W        W 7139  39.992   7.447   0.753
40731W        W 7140  38.460   4.585  13.175
40732W        W 7141  13.695   3.680   0.741
40733W        W 7142  22.539   1.688   3.159
40734W        W 7143  19.006   6.039  13.474
40735W        W 7144  19.101  11.077  10.747
40736W        W 7145   5.731  33.012   1.334
40737W        W 7146  17.334   6.447  13.880
40738W        W 7147  18.499   1.338   2.969
40739W        W 7148   0.403  40.852   2.187
40740W        W 7149   3.746   1.049  11.816
40741W        W 7150  44.891  12.760  11.459
40742W        W 7151  23.438   2.865  13.937
40743W        W 7152  28.709  40.927  11.587
40744W        W 7153  18.402   6.206  14.870
40745W        W 7154  19.975  10.844   4.540
40746W        W 7155  22.759  25.758   3.767
40747W        W 7156  26.692  11.769   3.637
40748W        W 7157  21.039   5.996   3.407
40749W        W 7158   8.935  25.566   4.917
40750W        W 7159  33.544  37.316  13.838
40751W        W 7160   7.340   4.158   1.724
40752W        W 7161  43.222  32.521   4.588
40753W        W 7162   7.749  29.882   0.833
40754W        W 7163  38.266  37.415   2.439
40755W        W 7164   6.829   6.266  14.772
40756W        W 7165  40.240   6.841  13.536
40757W        W 7166  21.819   4.806   3.544
40758W        W 7167   2.881  17.204   0.250
40759W        W 7168  16.022   8.442   2.406
40760W        W 7169  14.134   3.756   0.470
40761W        W 7170  10.401  44.459  12.119
40762W        W 7171  13.865  24.256  12.857
40763W        W 7172  32.380  16.226   4.323
40764W        W 7173  31.375  22.622  10.461
40765W        W 7174  21.005  41.649  12.566
40766W        W 7175  37.633  38.347   1.220
40767W        W 7176  12.343  18.673   0.668
40768W        W 7177  27.574  20.050  13.295
40769W        W 7178  12.764  30.444  11.502
40770W        W 7179  36.035  31.369   0.940
40771W        W 7180  23.468  35.035  13.634
40772W        W 7181  37.848  34.451   2.907
40773W        W 7182  25.224  44.782  12.677
40774W        W 7183  10.347  35.151   3.683
40775W        W 7184  12.126   7.143  11.471
40776W        W 7185  17.820   6.933   1.647
40777W        W 7186   4.248  23.713  13.857
40778W        W 7187  10.470   5.351   4.294
40779W        W 7188  34.388  34.423  14.509
40780W        W 7189   7.895   2.795  10.611
40781W        W 7190   4.988  21.825   3.183
40782W        W 7191   4.956   6.273  13.935
40783W        W 7192  26.631  32.398  13.461
40784W        W 7193  39.905  37.607  13.077
40785W        W 7194  33.014  22.060   0.252
40786W        W 7195  41.926  36.018   1.861
40787W        W 7196   7.646  18.247  14.039
40788W        W 7197   9.118  38.922   2.257
40789W        W 7198   7.935  37.458   1.365
40790W        W 7199  24.308   3.228  13.814
40791W        W 7200  26.873  30.997  13.472
40792W        W 7201   0.755   3.171  13.970
40793W        W 7202  21.616   0.684  14.338
40794W        W 7203  20.252  26.467   1.943
40795W        W 7204   0.832  32.988  12.083
40796W        W 7205  19.107  10.708   0.079
40797W        W 7206  40.268  16.591  12.923
40798W        W 7207  36.536  29.660  14.583
40799W        W 7208  20.664  13.152  13.484
40800W        W 7209   4.690  19.586  10.690
40801W        W 7210  17.669  33.994  11.864
40802W        W 7211  43.908  39.347   1.622
40803W        W 7212   7.706   8.143   0.831
40804W        W 7213  11.595  13.743   2.706
40805W        W 7214   2.026  37.104  14.282
40806W        W 7215  34.033   2.081   0.798
40807W        W 7216  25.620   2.524  12.218
40808W        W 7217  22.363  31.239   2.749
40809W        W 7218   9.889  18.280   2.289
40810W        W 7219  14.173   9.296  12.053
40811W        W 7220  35.102  27.699  14.921
40812W        W 7221  30.953   9.153   1.976
40813W        W 7222  14.281  29.441  11.715
40814W        W 7223  34.407  35.892   2.448
40815W        W 7224   0.733  14.819   2.216
40816W        W 7225   6.883  27.166  11.627
40817W        W 7226  34.556  42.823   4.046
40818W        W 7227  35.411   5.398  14.462
40819W        W 7228  16.030  32.003  10.997
40820W        W 7229  20.610  13.290  13.004
40821W        W 7230  25.509  37.599   5.031
40822W        W 7231  24.114  43.901   0.931
40823W        W 7232   6.428  44.267  10.649
40824W        W 7233  41.381  23.773  12.086
40825W        W 7234  32.200  21.650   0.647
40826W        W 7235   2.771  31.121   0.617
40827W        W 7236   4.970   9.124   0.360
40828W        W 7237  43.165  14.359  14.916
40829W        W 7238  10.646  19.148   0.425
40830W        W 7239  12.355  42.166  12.981
40831W        W 7240   1.813  28.422  14.548
40832W        W 7241  14.127  36.811  14.452
40833W        W 7242  29.507  17.803   2.575
40834W        W 7243  14.382  15.203  12.772
40835W        W 7244  13.236   4.953   0.829
40836W        W 7245  12.394  23.487  14.878
40837W        W 7246   5.841   5.770   2.802
40838W        W 7247   8.929  31.684  11.169
40839W        W 7248  34.069  26.101  13.847
40840W        W 7249   4.226   3.720  11.096
40841W        W 7250   0.671  13.652  13.001
40842W        W 7251  29.966  44.499  11.346
40843W        W 7252   7.322   9.836   3.447
40844W        W 7253  43.722  28.819   1.347
40845W        W 7254  13.648  16.328   3.173
40846W        W 7255  12.636   7.195   3.274
40847W        W 7256  30.153  17.524   0.231
40848W        W 7257  19.217  39.532  12.432
40849W        W 7258  29.514  22.747  12.489
40850W        W 7259  40.601  11.615  14.598
40851W        W 7260  15.598  40.871   0.048
40852W        W 7261  13.841  39.028  11.962
40853W        W 7262   2.236  22.176  12.593
40854W        W 7263  25.181   9.215  12.408
40855W        W 7264  37.736  23.327  14.614
40856W        W 7265  22.206  28.022   2.736
40857W        W 7266  30.572  19.826   2.321
40858W        W 7267   6.275  33.998  12.905
40859W        W 7268  20.673  23.215  13.356
40860W        W 7269  18.078  22.817  14.400
40861W        W 7270  32.386  39.055  13.780
40862W        W 7271  15.288  23.806   3.125
40863W        W 7272   3.265  39.053  14.963
40864W        W 7273   3.798  16.782   1.288
40865W        W 7274  13.335  10.914  14.279
40866W        W 7275  24.466  24.795  10.545
40867W        W 7276  34.927  28.029  14.524
40868W        W 7277  20.055  20.172   1.429
40869W        W 7278  31.960   5.705   0.817
40870W        W 7279   0.757  35.092  13.329
40871W        W 7280  10.838  41.914   3.179
40872W        W 7281  34.359  41.945   3.181
40873W        W 7282  17.926  40.947   2.831
40874W        W 7283  29.781   8.353   4.497
40875W        W 7284  29.562   6.910   4.899
40876W        W 7285  26.570  21.169  12.827
40877W        W 7286  21.576  29.654   3.130
40878W        W 7287   3.049  42.669   1.886
40879W        W 7288  33.638  14.362   3.974
40880W        W 7289  32.051  24.796  12.548
40881W        W 7290  16.775  15.130  13.000
40882W        W 7291  39.717   5.004  14.757
40883W        W 7292  25.756   7.779  12.637
40884W        W 7293  29.459  19.218   4.253
40885W        W 7294  35.896  36.747  11.216
40886W        W 7295  18.958  20.112  11.601
40887W        W 7296  41.543  11.710  11.951
40888W        W 7297  13.202  39.030  14.467
40889W        W 7298   9.214  34.886   2.606
40890W        W 7299   0.365  30.451  11.363
40891W        W 7300  27.992  25.706  13.725
40892W        W 7301  38.389  37.204  11.526
40893W        W 7302  14.587  38.963  14.353
40894W        W 7303  42.824  33.091   3.999
40895W        W 7304   2.568  29.529  13.487
40896W        W 7305  35.773  40.223  11.165
40897W        W 7306  33.484  23.771   0.508
40898W        W 7307   7.355   0.014   3.223
40899W        W 7308  25.022  41.397  11.620
40900W        W 7309  10.635  36.486  10.909
40901W        W 7310  10.719  41.871   0.971
40902W        W 7311  13.689   1.625  13.805
40903W        W 7312  40.302  21.734   2.283
40904W        W 7313  25.429  44.376  14.419
40905W        W 7314  23.400   6.371   4.151
40906W        W 7315  39.549   2.279  14.328
40907W        W 7316  17.049   4.927  10.731
40908W        W 7317  13.406  18.068   0.589
40909W        W 7318  27.563  36.773   4.754
40910W        W 7319  32.670  27.541   1.757
40911W        W 7320  39.202  29.224   4.071
40912W        W 7321   9.668  30.657  12.062
40913W        W 7322  27.985  40.558   2.826
40914W        W 7323  38.703   9.854   2.326
40915W        W 7324   0.392  18.217  14.448
40916W        W 7325  38.802  32.014   4.286
40917W        W 7326   8.386  17.716   4.092
40918W        W 7327  16.128  11.640  13.939
40919W        W 7328  23.069  22.264   0.461
40920W        W 7329   1.244  21.072   2.821
40921W        W 7330  18.548  35.231   2.738
40922W        W 7331   3.770  25.296   0.724
40923W        W 7332  32.754  11.990   0.695
40924W        W 7333  42.228  26.839   4.200
40925W        W 7334  19.513  43.356   1.853
40926W        W 7335  33.063  35.971   4.350
40927W        W 7336  30.772  14.766   1.536
40928W        W 7337  18.756  25.447  14.738
40929W        W 7338  20.614   2.732   3.674
40930W        W 7339  18.879  12.732   2.577
40931W        W 7340  16.581  26.756   2.304
40932W        W 7341  13.860  42.070  11.125
40933W        W 7342  14.417   7.198  12.831
40934W        W 7343  41.613  33.357  12.355
40935W        W 7344  25.397  38.588   1.481
40936W        W 7345  23.172  33.682  12.986
40937W        W 7346  41.576   8.177   3.079
40938W        W 7347  23.686   5.180  14.471
40939W        W 7348  42.004  20.670  13.315
40940W        W 7349  33.916  37.590  11.592
40941W        W 7350  27.626  20.333   0.643
40942W        W 7351  12.812   1.337  12.898
40943W        W 7352  35.920  30.265   3.571
40944W        W 7353  12.111   6.458   3.342
40945W        W 7354  24.931  33.676   1.261
40946W        W 7355  20.877  41.064   3.719
40947W        W 7356   4.375  29.874   1.210
40948W        W 7357  27.445  40.005  10.710
40949W        W 7358  24.893  13.675   2.445
40950W        W 7359  33.005  23.528   3.689
40951W        W 7360   3.243  38.363  10.705
40952W        W 7361  16.387   5.727  11.639
40953W        W 7362  22.592  43.931   1.414
40954W        W 7363  34.380  14.534   0.920
40955W        W 7364   9.372  39.595   0.779
40956W        W 7365   8.786  20.272  13.450
40957W        W 7366  22.738   7.754   4.486
40958W        W 7367  10.163  34.094   2.321
40959W        W 7368  40.229  11.111   3.630
40960W        W 7369  10.631  22.799  14.337
40961W        W 7370  31.123  30.074   2.856
40962W        W 7371  21.795  27.193   3.076
40963W        W 7372   2.211  23.242   0.004
40964W        W 7373  18.648   8.835   1.729
40965W        W 7374  44.985  25.561  12.594
40966W        W 7375  12.581  22.515   5.052
40967W        W 7376   7.364   4.413   0.451
40968W        W 7377  40.627   2.988   3.254
40969W        W 7378  18.719   1.777   2.792
40970W        W 7379  41.097  29.345  14.947
40971W        W 7380   2.228   3.919   2.682
40972W        W 7381  41.164  34.032   0.424
40973W        W 7382  37.749  10.869   0.589
40974W        W 7383   4.644  40.718  12.283
40975W        W 7384  41.990  37.982  10.978
40976W        W 7385  25.430  31.609   4.710
40977W        W 7386  38.259   1.817  11.726
40978W        W 7387  26.661  35.378   4.970
40979W        W 7388  43.738  42.580  14.035
40980W        W 7389  16.654  41.677  14.003
40981W        W 7390  23.167  24.964  14.243
40982W        W 7391  27.088  20.000   4.893
40983W        W 7392   9.701  13.501  11.965
40984W        W 7393  21.400  31.303   3.771
40985W        W 7394  33.138  30.311   0.816
40986W        W 7395  42.800  16.267   4.032
40987W        W 7396   3.881  38.847   1.664
40988W        W 7397  26.470  41.404   0.381
40989W        W 7398  41.757  13.349  11.090
40990W        W 7399   5.077  30.869   3.718
40991W        W 7400   9.421   5.351  10.657
40992W        W 7401  40.592  34.598   1.936
40993W        W 7402  21.179   5.703   0.714
40994W        W 7403  22.406  15.304   0.734
40995W        W 7404  12.920  25.045  10.646
40996W        W 7405  14.908  18.081  13.413
40997W        W 7406  28.450   5.292   2.131
40998W        W 7407  33.747  17.801   2.215
40999W        W 7408  18.962  10.837   1.490
41000W        W 7409  27.954  40.801   1.903
41001W        W 7410  21.975  44.431   2.397
41002W        W 7411   2.023  39.366  11.204
41003W        W 7412   7.439  20.108  11.970
41004W        W 7413   5.186  18.321  12.827
41005W        W 7414  38.305  39.275  13.971
41006W        W 7415  10.481  29.215  10.153
41007W        W 7416  33.412  25.111  13.499
41008W        W 7417  26.643   6.665  12.542
41009W        W 7418  30.261  15.678  14.533
41010W        W 7419   4.485  32.990   4.297
41011W        W 7420  12.045  16.685   1.318
41012W        W 7421  24.542  30.102   4.534
41013W        W 7422  12.204  34.864  14.650
41014W        W 7423  11.291  31.579   1.319
41015W        W 7424  13.743  43.230   1.837
41016W        W 7425  44.859   2.002   2.736
41017W        W 7426   6.236  29.997  10.076
41018W        W 7427  16.029  26.099  13.529
41019W        W 7428   8.611  25.218  11.548
41020W        W 7429   5.883  38.144   2.769
41021W        W 7430  25.106  32.461  10.928
41022W        W 7431   3.279   0.464  14.987
41023W        W 7432  23.367  34.579   4.142
41024W        W 7433  23.544  28.359  12.905
41025W        W 7434  15.814   1.833   2.575
41026W        W 7435  28.854  17.021   0.608
41027W        W 7436  19.408  19.526   1.254
41028W        W 7437  22.444   7.992  12.733
41029W        W 7438  16.131  16.879  14.126
41030W        W 7439   4.504  28.612   1.842
41031W        W 7440  40.128  39.493   2.848
41032W        W 7441  34.936  36.067   5.074
41033W        W 7442   8.992  22.679  12.965
41034W        W 7443  25.508   4.808  14.060
41035W        W 7444  26.163  33.985  13.292
41036W        W 7445  20.123  44.737   0.383
41037W        W 7446  30.714  39.791  12.529
41038W        W 7447  18.842   3.323  10.130
41039W        W 7448  40.561  35.063  10.898
41040W        W 7449  21.243  32.522   0.341
41041W        W 7450  43.869  39.514   2.548
41042W        W 7451  12.683  37.472  11.968
41043W        W 7452  27.524  39.492   3.607
41044W        W 7453  43.753  24.624   2.671
41045W        W 7454  37.340  20.284   1.954
41046W        W 7455  33.708   4.412   2.417
41047W        W 7456  38.852  17.031   1.063
41048W        W 7457  44.551  34.805  11.956
41049W        W 7458  10.365  20.662   3.683
41050W        W 7459  15.110   4.670   3.211
41051W        W 7460  16.505  38.875   0.328
41052W        W 7461  29.683  31.207  13.867
41053W        W 7462  33.514  43.429   4.374
41054W        W 7463  32.197  16.167   2.243
41055W        W 7464  23.485  25.015   2.357
41056W        W 7465  33.938  16.578   2.931
41057W        W 7466  15.298   3.738   3.536
41058W        W 7467  35.854  41.449   1.403
41059W        W 7468  19.357  18.681  13.536
41060W        W 7469  18.617  32.476   4.034
41061W        W 7470  25.117  11.922   4.577
41062W        W 7471  23.950  11.134   0.413
41063W        W 7472  13.765  26.056   1.887
41064W        W 7473  28.302   5.783   3.990
41065W        W 7474  43.333  16.526  11.346
41066W        W 7475   4.597  22.218   3.216
41067W        W 7476  31.646  32.422  14.633
41068W        W 7477  37.882  28.544  14.588
41069W        W 7478  11.781   4.405   0.568
41070W        W 7479  28.006   9.230   3.208
41071W        W 7480  40.929  43.827  13.512
41072W        W 7481  33.517  42.979   1.389
41073W        W 7482   9.794  25.816  10.917
41074W        W 7483  44.005  29.214   3.095
41075W        W 7484  31.952   2.802   2.834
41076W        W 7485  20.380  24.479   4.131
41077W        W 7486  33.001   8.180   3.576
41078W        W 7487  38.947   2.768   1.374
41079W        W 7488  32.656  12.581   0.342
41080W        W 7489  24.273   8.574  12.477
41081W        W 7490  37.314   8.249  12.442
41082W        W 7491  41.040  31.774  11.541
41083W        W 7492  42.803  39.305   3.337
41084W        W 7493  23.850  30.624   2.470
41085W        W 7494  25.735   7.062  11.473
41086W        W 7495  26.979  37.508  12.015
41087W        W 7496   2.931   8.336  10.949
41088W        W 7497   7.473  23.368   1.784
41089W        W 7498  20.562  23.899   3.696
41090W        W 7499  20.182  26.625   3.762
41091W        W 7500   9.882  10.895   1.368
41092W        W 7501  27.521  12.441   3.303
41093W        W 7502  39.140  20.465   3.150
41094W        W 7503  16.178  40.053   2.328
41095W        W 7504  40.524  43.524  14.491
41096W        W 7505  41.808  12.613   2.271
41097W        W 7506  35.418   7.675   2.445
41098W        W 7507  11.099  38.344  14.835
41099W        W 7508  13.708  37.995  13.534
41100W        W 7509  17.511  16.624  13.249
41101W        W 7510  18.769  26.622  12.483
41102W        W 7511  42.434  32.696  14.906
41103W        W 7512  12.138   9.353   4.188
41104W        W 7513  28.398  43.986  10.980
41105W        W 7514  19.059  41.637   4.526
41106W        W 7515  14.344   9.747   0.107
41107W        W 7516  29.090  37.989   4.430
41108W        W 7517  21.520  39.576   2.352
41109W        W 7518  31.581  24.224   2.878
41110W        W 7519  17.724  42.899  11.589
41111W        W 7520  23.585  26.690  13.596
41112W        W 7521  28.536  31.838   4.247
41113W        W 7522   4.008  11.867   4.053
41114W        W 7523  19.595  21.936   2.806
41115W        W 7524  27.073   8.459  14.067
41116W        W 7525  25.751  24.509  14.074
41117W        W 7526   5.710  29.129   0.879
41118W        W 7527  33.124  22.017  14.232
41119W        W 7528   5.152   1.489   2.288
41120W        W 7529  19.387  42.874  11.511
41121W        W 7530  30.102   1.950  11.456
41122W        W 7531  18.192   7.182   0.993
41123W        W 7532  43.834   7.066   5.378
41124W        W 7533  15.423   1.793   0.049
41125W        W 7534  41.868  19.669   3.774
41126W        W 7535  24.148  10.365  14.679
41127W        W 7536   8.114  16.427   2.683
41128W        W 7537   9.574   9.686  10.686
41129W        W 7538   8.932   5.632  12.376
41130W        W 7539  24.515   3.338   0.153
41131W        W 7540   7.801  31.217   2.286
41132W        W 7541   1.722  20.516   2.696
41133W        W 7542  14.780   9.386  11.519
41134W        W 7543  29.471  41.757  14.525
41135W        W 7544   1.615  15.585   2.488
41136W        W 7545  31.962  19.283   4.569
41137W        W 7546  19.132  21.816  10.919
41138W        W 7547   8.327  11.651   2.275
41139W        W 7548  31.618  18.276   1.221
41140W        W 7549   6.140  36.924  12.398
41141W        W 7550  27.145  18.072  14.218
41142W        W 7551  35.596  40.481   3.449
41143W        W 7552  19.088  18.196  13.477
41144W        W 7553  23.580   1.862   1.606
41145W        W 7554  43.821  20.048  13.564
41146W        W 7555  15.854   8.152  12.872
41147W        W 7556  25.933  10.001  10.744
41148W        W 7557  21.008  18.641   1.313
41149W        W 7558  20.509   8.163   0.379
41150W        W 7559  33.220   1.338   4.118
41151W        W 7560  17.301  16.620   2.806
41152W        W 7561  12.149   9.623   4.624
41153W        W 7562   6.745  12.041   3.966
41154W        W 7563  20.255  27.431  14.353
41155W        W 7564  14.543  41.013  14.015
41156W        W 7565  28.921  10.278  11.954
41157W        W 7566  35.153  24.799  14.411
41158W        W 7567  38.151  21.242  11.550
41159W        W 7568   0.583  37.218  10.586
41160W        W 7569   8.692   4.642   4.139
41161W        W 7570   0.714  34.118   1.772
41162W        W 7571  10.120  20.235  10.026
41163W        W 7572  38.856  14.033  13.432
41164W        W 7573  26.175  36.971  13.830
41165W        W 7574   6.645  13.618   0.099
41166W        W 7575  11.735  32.103  11.659
41167W        W 7576  38.652   5.366  12.953
41168W        W 7577  14.093  15.805   3.578
41169W        W 7578  36.090   3.830  13.305
41170W        W 7579  10.964  29.497   3.403
41171W        W 7580  33.658  11.921  10.653
41172W        W 7581  29.351  36.791  13.932
41173W        W 7582  31.951  42.207  13.707
41174W        W 7583  25.026  29.221   1.232
41175W        W 7584  35.442  40.602  14.521
41176W        W 7585   3.714  14.008   2.684
41177W        W 7586  34.333  36.601   3.792
41178W        W 7587  33.966  42.549  13.563
41179W        W 7588  32.940  33.643  13.321
41180W        W 7589  32.929  17.176   1.234
41181W        W 7590  44.921  19.707   3.394
41182W        W 7591  42.901  21.267  10.292
41183W        W 7592  26.117  33.689   3.005
41184W        W 7593  28.855  42.444  13.810
41185W        W 7594  40.635  30.405  14.812
41186W        W 7595  19.021  36.246   4.246
41187W        W 7596  31.406  14.147   2.293
41188W        W 7597  17.918  18.840   3.070
41189W        W 7598  37.431   2.736  12.834
41190W        W 7599  12.148   7.007  12.446
41191W        W 7600  36.439   4.009   0.340
41192W        W 7601   9.822   6.219   4.306
41193W        W 7602  17.365  24.507   0.218
41194W        W 7603  33.672  16.888   2.202
41195W        W 7604  26.505  38.350  10.733
41196W        W 7605  34.469  28.161  13.493
41197W        W 7606  43.904  21.135   0.916
41198W        W 7607  38.100  13.857  11.973
41199W        W 7608  23.178  31.106   4.328
41200W        W 7609  18.184   1.650  14.879
41201W        W 7610  24.291   1.623   2.301
41202W        W 7611  24.163   0.060  11.687
41203W        W 7612   6.915  15.698   1.063
41204W        W 7613  25.488  26.600   0.969
41205W        W 7614  13.656  16.077   3.630
41206W        W 7615  44.536   0.914   1.233
41207W        W 7616  10.633  12.739  12.636
41208W        W 7617   6.917   6.261  13.889
41209W        W 7618   7.562  23.242  13.572
41210W        W 7619  42.336  40.473   4.630
41211W        W 7620  12.531  36.943   4.573
41212W        W 7621  40.340  10.017   0.093
41213W        W 7622  25.345  27.402   1.361
41214W        W 7623  28.235   9.195  10.696
41215W        W 7624  43.433  33.590  11.183
41216W        W 7625  44.883  21.250  11.599
41217W        W 7626  13.245  14.192  11.009
41218W        W 7627   3.606  26.156   3.899
41219W        W 7628   6.661  42.093  11.547
41220W        W 7629  33.542  17.269   0.431
41221W        W 7630  34.825  12.531   3.974
41222W        W 7631  35.613  24.983  11.213
41223W        W 7632  41.736  21.797  13.655
41224W        W 7633  39.610  11.968  12.878
41225W        W 7634  40.914  26.412  11.014
41226W        W 7635  17.232  10.637  12.016
41227W        W 7636   7.212  35.892   0.061
41228W        W 7637   3.292  36.394   3.595
41229W        W 7638   2.187  33.362  13.070
41230W        W 7639  41.847  13.134   4.776
41231W        W 7640  23.032  31.393  11.160
41232W        W 7641  26.903  39.216  13.894
41233W        W 7642  34.771  37.555  14.541
41234W        W 7643  31.412  22.658  14.153
41235W        W 7644   3.522  14.886   0.898
41236W        W 7645  25.314  38.032  13.754
41237W        W 7646  30.441   7.589   1.949
41238W        W 7647   8.269  20.770   0.527
41239W        W 7648   7.616  23.732   2.129
41240W        W 7649   0.521  11.382  14.803
41241W        W 7650   3.060  40.959   0.904
41242W        W 7651   0.356  43.012  14.388
41243W        W 7652   9.705  20.913  14.864
41244W        W 7653  14.202   9.419  14.406
41245W        W 7654  26.267  19.190   4.818
41246W        W 7655  20.742  34.337   0.275
41247W        W 7656  35.611  26.709   1.242
41248W        W 7657   7.667  22.148   4.594
41249W        W 7658  11.553  24.954  12.430
41250W        W 7659   5.697   9.789  10.688
41251W        W 7660  26.966   5.165   1.877
41252W        W 7661   3.700  25.553   0.146
41253W        W 7662   0.489  16.033   0.275
41254W        W 7663   6.376  11.380   2.952
41255W        W 7664  13.054  22.642   2.643
41256W        W 7665   6.613  40.042   0.795
41257W        W 7666   6.892   3.698  11.624
41258W        W 7667  19.975   7.834  11.235
41259W        W 7668  22.139  11.387  14.676
41260W        W 7669  21.689  42.365   2.740
41261W        W 7670   4.394  38.361  11.223
41262W        W 7671  19.667   1.469   4.398
41263W        W 7672  24.538  18.035  13.670
41264W        W 7673   4.214   2.443   3.650
41265W        W 7674  16.571  37.541   2.241
41266W        W 7675  17.338  34.086   3.735
41267W        W 7676  32.088  34.093   1.671
41268W        W 7677  41.560  15.768  14.323
41269W        W 7678  25.382  10.959  13.351
41270W        W 7679  26.499  10.458  11.128
41271W        W 7680  10.745  31.739   2.286
41272W        W 7681  22.839  38.009   4.871
41273W        W 7682  11.085  34.993  13.560
41274W        W 7683  15.324  36.392   0.046
41275W        W 7684  33.485  42.938   0.235
41276W        W 7685  40.717   9.131   3.562
41277W        W 7686  35.798  28.066  12.593
41278W        W 7687  29.046  12.474   2.223
41279W        W 7688  26.157  13.601  12.930
41280W        W 7689  28.735  40.828  14.353
41281W        W 7690  21.101  32.975  11.711
41282W        W 7691  31.977  40.063  13.100
41283W        W 7692  23.679  39.314   3.815
41284W        W 7693  28.997   6.334  11.632
41285W        W 7694  30.890   7.786  13.463
41286W        W 7695  42.265  16.199   3.917
41287W        W 7696  31.065  35.583  12.401
41288W        W 7697  30.872   8.399  11.831
41289W        W 7698   2.455  24.103  10.583
41290W        W 7699  25.397   0.046  10.866
41291W        W 7700  19.075  34.846  11.540
41292W        W 7701  31.445  38.601  14.462
41293W        W 7702  38.573  37.873  12.665
41294W        W 7703  37.510  35.338   0.766
41295W        W 7704   8.265  28.981   3.400
41296W        W 7705  19.084  43.554   0.020
41297W        W 7706  10.651   1.312  14.356
41298W        W 7707  23.931   4.199   4.019
41299W        W 7708  10.917  26.607   3.696
41300W        W 7709   8.861   3.840  12.133
41301W        W 7710  15.508  14.303  10.752
41302W        W 7711   2.738  16.646  11.307
41303W        W 7712  43.442   8.354   0.665
41304W        W 7713  27.643   6.163   4.652
41305W        W 7714  26.364   0.069  11.772
41306W        W 7715   2.243   7.648   4.072
41307W        W 7716   6.679  32.421   0.741
41308W        W 7717   3.485  40.051   4.571
41309W        W 7718  42.760  15.540   0.962
41310W        W 7719   2.178  43.429  10.529
41311W        W 7720  29.605   8.317  14.026
41312W        W 7721  26.564  34.024   3.029
41313W        W 7722  29.598  31.626   4.795
41314W        W 7723  44.804   7.286  10.639
41315W        W 7724  30.092  11.776   0.766
41316W        W 7725  24.011  40.364   4.469
41317W        W 7726  21.129  17.808  10.886
41318W        W 7727  43.718  25.982  14.266
41319W        W 7728  13.372  37.044   2.860
41320W        W 7729   7.446  30.721  10.682
41321W        W 7730  31.820  26.639  14.127
41322W        W 7731   4.862  21.607   2.189
41323W        W 7732  17.009   5.712   4.155
41324W        W 7733   2.990  18.571  13.275
41325W        W 7734  15.622  10.568   4.590
41326W        W 7735   5.615  11.199  11.751
41327W        W 7736  30.100  22.534  11.001
41328W        W 7737  33.050  12.655   4.123
41329W        W 7738  23.692  15.842  12.490
41330W        W 7739  26.152  18.142  13.072
41331W        W 7740   5.453  38.481  13.326
41332W        W 7741  40.171  21.996  14.383
41333W        W 7742  41.522  10.220  11.985
41334W        W 7743   5.940  35.765   3.226
41335W        W 7744  11.759  35.141  14.595
41336W        W 7745   7.673  12.189  11.573
41337W        W 7746  34.381  31.619  13.404
41338W        W 7747  39.542  31.157   2.699
41339W        W 7748  21.587  31.214   0.127
41340W        W 7749  21.164  36.334   4.095
41341W        W 7750  25.954   2.302  13.931
41342W        W 7751   0.179  38.516   3.505
41343W        W 7752  43.927  38.368  11.919
41344W        W 7753  15.782   3.366  14.972
41345W        W 7754  23.265   0.005   2.979
41346W        W 7755  39.258  19.557   1.726
41347W        W 7756   4.704  35.457  11.491
41348W        W 7757  15.355   0.819   1.357
41349W        W 7758  12.089  39.094   3.339
41350W        W 7759  22.488  31.611   4.743
41351W        W 7760  42.085  18.057  13.401
41352W        W 7761  18.515   9.165  13.566
41353W        W 7762  33.577  16.641  14.126
41354W        W 7763  43.393   4.178   2.265
41355W        W 7764   3.888  20.672   4.649
41356W        W 7765  29.759   9.373   5.390
41357W        W 7766  25.193  40.956   3.694
41358W        W 7767  34.873   3.035   1.809
41359W        W 7768   1.404  37.064   1.960
41360W        W 7769  31.903  40.531   5.241
41361W        W 7770  41.017  40.857  14.698
41362W        W 7771  22.469   3.999  13.496
41363W        W 7772  25.018  22.589  13.485
41364W        W 7773  42.445  23.971  13.400
41365W        W 7774  44.857  32.873  12.454
41366W        W 7775  28.224  30.205  13.956
41367W        W 7776  21.416  25.007   2.396
41368W        W 7777  39.387   9.631   0.411
41369W        W 7778  27.555  13.603  12.635
41370W        W 7779  33.393  25.372  12.521
41371W        W 7780  41.653  32.699   4.656
41372W        W 7781  34.946  37.921   4.452
41373W        W 7782  33.076  17.652   3.608
41374W        W 7783   3.516   0.702  12.152
41375W        W 7784  27.075  39.550  10.852
41376W        W 7785  22.485  15.098   1.618
41377W        W 7786  14.834  30.065   3.618
41378W        W 7787  14.431  29.455   0.332
41379W        W 7788  26.999  24.062   1.685
41380W        W 7789  40.492   7.855   4.417
41381W        W 7790  34.144  12.099  11.419
41382W        W 7791  32.379  29.949   2.379
41383W        W 7792  35.167  41.207  10.138
41384W        W 7793   6.267  29.527   1.283
41385W        W 7794  27.867  34.062  10.762
41386W        W 7795  26.101   4.091  12.566
41387W        W 7796   0.130  36.158   0.012
41388W        W 7797  43.800  17.780   0.011
41389W        W 7798  15.585  29.698   4.758
41390W        W 7799  41.715  23.590   3.747
41391W        W 7800  24.505  13.695   4.866
41392W        W 7801   5.239  29.039   1.634
41393W        W 7802  35.825   2.405  14.381
41394W        W 7803  23.709   8.354   4.582
41395W        W 7804  32.814   6.866  12.020
41396W        W 7805  12.377  37.238   2.904
41397W        W 7806  34.075  12.341   0.371
41398W        W 7807   1.492   6.251  12.375
41399W        W 7808  19.814   9.663   1.819
41400W        W 7809  14.597  12.254   1.361
41401W        W 7810  43.289  44.988   3.619
41402W        W 7811   5.137  37.584   3.111
41403W        W 7812  21.237  19.059   4.722
41404W        W 7813  13.056  35.253  13.849
41405W        W 7814   7.927   7.161   0.938
41406W        W 7815  28.984  23.936   2.575
41407W        W 7816   9.881  40.886  10.738
41408W        W 7817   6.404  27.349   1.760
41409W        W 7818  22.054  25.755  12.157
41410W        W 7819   3.042  12.315   0.889
41411W        W 7820   2.560  35.514   3.375
41412W        W 7821   0.688  40.477  11.514
41413W        W 7822  40.830   8.730   3.251
41414W        W 7823  37.527  13.281  11.700
41415W        W 7824  22.644  40.952   5.035
41416W        W 7825  37.040  44.996  13.062
41417W        W 7826  22.732  27.112   3.380
41418W        W 7827  23.962  35.593  12.981
41419W        W 7828  39.895  41.866   3.614
41420W        W 7829   6.068  10.610  10.701
41421W        W 7830  29.221  27.186  14.898
41422W        W 7831  31.983  19.037   2.734
41423W        W 7832  36.097  27.156  11.245
41424W        W 7833  41.261  35.813  14.427
41425W        W 7834  43.809  25.136   0.825
41426W        W 7835   0.161  26.451  13.805
41427W        W 7836  44.618  42.562  12.437
41428W        W 7837  31.028   9.140  10.896
41429W        W 7838  23.517  29.984   3.622
41430W        W 7839  22.106  27.324   0.858
41431W        W 7840   7.324  11.101   0.826
41432W        W 7841   3.677  26.177   4.723
41433W        W 7842  31.726  20.475   3.224
41434W        W 7843  28.187  35.509  14.072
41435W        W 7844   9.757  22.701   0.351
41436W        W 7845   3.736  34.456  10.745
41437W        W 7846  21.165  14.571   0.781
41438W        W 7847  12.430  29.608   2.435
41439W        W 7848  31.409  14.257   4.866
41440W        W 7849  22.851  15.842   1.740
41441W        W 7850   9.207  31.544  10.758
41442W        W 7851  12.810  39.919  14.370
41443W        W 7852  15.763  25.489  11.621
41444W        W 7853  38.925  31.249  13.356
41445W        W 7854  26.365  29.447   3.153
41446W        W 7855  10.478   5.189  14.942
41447W        W 7856  43.336  11.875  10.612
41448W        W 7857   7.724  32.114  14.479
41449W        W 7858  36.403   3.380  13.471
41450W        W 7859  40.306  21.276  13.025
41451W        W 7860  44.212  30.151  13.440
41452W        W 7861  10.943  13.730  11.644
41453W        W 7862  37.119  41.297   2.654
41454W        W 7863  41.916  10.245  10.783
41455W        W 7864  22.497  19.773  13.015
41456W        W 7865   6.221  13.288  11.612
41457W        W 7866  20.183  12.578   0.530
41458W        W 7867  41.543  34.153  13.025
41459W        W 7868  34.803  35.826   4.632
41460W        W 7869  34.380  27.010  13.476
41461W        W 7870  25.131  34.859   1.827
41462W        W 7871  14.676  11.583  10.722
41463W        W 7872  27.169   7.242   1.309
41464W        W 7873  40.024  34.446  12.011
41465W        W 7874  39.566   4.779  14.320
41466W        W 7875  20.972  43.972  13.853
41467W        W 7876  38.435  15.206   0.309
41468W        W 7877   7.842  39.402  10.980
41469W        W 7878   9.471  36.378  11.663
41470W        W 7879  34.173   1.231  14.277
41471W        W 7880  43.426  36.510   2.667
41472W        W 7881  32.496  44.335   0.806
41473W        W 7882  43.910  32.485  12.814
41474W        W 7883  25.298  15.098   4.392
41475W        W 7884  11.786   3.941   0.365
41476W        W 7885  16.501  13.278  11.167
41477W        W 7886  11.077  27.089  14.825
41478W        W 7887  21.534  32.023  13.901
41479W        W 7888  39.606  36.475  12.895
41480W        W 7889   6.331  25.075  12.789
41481W        W 7890  15.376  24.440  13.976
41482W        W 7891  18.059  41.992  14.538
41483W        W 7892  16.698   8.374  13.815
41484W        W 7893  21.713  15.674   0.337
41485W        W 7894  42.325  10.240   2.680
41486W        W 7895  16.980  28.942   4.075
41487W        W 7896  35.812  15.766   3.698
41488W        W 7897  13.642   2.261  14.344
41489W        W 7898  34.140  26.405  11.564
41490W        W 7899  16.387  32.357  10.995
41491W        W 7900   9.383   3.243  10.338
41492W        W 7901  37.092  37.136   1.246
41493W        W 7902  38.218   4.155   4.136
41494W        W 7903  34.536  35.896   1.586
41495W        W 7904  34.016   7.562   3.338
41496W        W 7905  35.337  23.248  11.669
41497W        W 7906  28.038   4.349  14.900
41498W        W 7907  41.733   3.539   3.270
41499W        W 7908  15.584  30.991   4.060
41500W        W 7909  24.087   2.680   2.172
41501W        W 7910  21.336  12.212   2.332
41502W        W 7911  44.884  44.349  12.866
41503W        W 7912   8.583  15.265   1.893
41504W        W 7913   1.530   3.305   2.240
41505W        W 7914  35.238   9.830  12.475
41506W        W 7915   5.386  10.846  13.432
41507W        W 7916  24.577   9.582   2.174
41508W        W 7917  14.328  35.917  13.794
41509W        W 7918  38.699   6.327  12.919
41510W        W 7919  22.546  37.676   0.324
41511W        W 7920  15.570  42.985   4.963
41512W        W 7921  11.753  12.986  10.382
41513W        W 7922   8.739  10.535  12.884
41514W        W 7923  34.350  44.821   0.946
41515W        W 7924  32.501  16.704   2.707
41516W        W 7925  41.516  24.052   3.422
41517W        W 7926  29.716  38.256  13.972
41518W        W 7927  12.189  19.675  13.457
41519W        W 7928  42.327  19.250   0.916
41520W        W 7929  22.037  28.562   1.158
41521W        W 7930  19.110  36.139   0.895
41522W        W 7931  38.775  43.898   0.453
41523W        W 7932  15.295  44.838   3.056
41524W        W 7933  35.050  18.002  14.118
41525W        W 7934  38.019  21.307   0.051
41526W        W 7935  40.195  34.563  14.972
41527W        W 7936  33.896  22.680   5.214
41528W        W 7937  27.870  11.822   2.502
41529W        W 7938  29.594  41.008   3.808
41530W        W 7939  32.607  33.583   1.010
41531W        W 7940  38.055  43.790  11.183
41532W        W 7941  18.831  13.652   2.631
41533W        W 7942  24.261   8.809   0.453
41534W        W 7943  13.295  44.291  11.202
41535W        W 7944  17.112  15.630   4.179
41536W        W 7945  17.222   2.563   0.764
41537W        W 7946   0.270   5.620  12.473
41538W        W 7947  10.690   3.762  14.273
41539W        W 7948   4.912   3.959  13.794
41540W        W 7949   9.673  11.239  12.920
41541W        W 7950  28.866  36.571   1.868
41542W        W 7951   7.481  20.648   4.410
41543W        W 7952  19.004  10.573   4.770
41544W        W 7953  43.471  38.558  11.443
41545W        W 7954  19.528  34.311   1.414
41546W        W 7955   3.576  11.041   2.757
41547W        W 7956  37.797  32.093  13.871
41548W        W 7957  13.665   3.162  14.996
41549W        W 7958   5.346  11.858   4.885
41550W        W 7959  29.910  14.275   2.935
41551W        W 7960  18.667  40.478   0.792
41552W        W 7961  42.112  17.590   0.477
41553W        W 7962  41.420   9.408  13.485
41554W        W 7963  26.880  13.981   2.757
41555W        W 7964  16.888   9.508   2.221
41556W        W 7965  14.629  24.079   1.152
41557W        W 7966   8.584  13.087   2.376
41558W        W 7967  17.646  15.706   4.092
41559W        W 7968  25.293  44.865  13.166
41560W        W 7969  34.533  29.691   3.166
41561W        W 7970  39.399  11.048  10.769
41562W        W 7971  31.269   0.477   5.339
41563W        W 7972   2.472  43.868  10.595
41564W        W 7973  26.899  31.609   1.339
41565W        W 7974  22.791  20.614  12.619
41566W        W 7975  10.182  32.148   2.792
41567W        W 7976  26.216  30.038  11.957
41568W        W 7977  12.051  39.747  13.833
41569W        W 7978   7.134  30.016  10.570
41570W        W 7979   7.002  28.766  12.774
41571W        W 7980  38.062  33.654   3.250
41572W        W 7981   6.179  42.822  10.691
41573W        W 7982   7.154   4.779   3.084
41574W        W 7983   7.643   4.599  14.362
41575W        W 7984  24.441   4.077  10.640
41576W        W 7985  19.781  34.425  14.526
41577W        W 7986  11.740  37.555   2.584
41578W        W 7987   3.351  42.110   4.260
41579W        W 7988   7.684  10.411   1.326
41580W        W 7989  19.766   7.765   4.409
41581W        W 7990  37.683   5.975   1.752
41582W        W 7991  36.941  14.032   1.211
41583W        W 7992   4.300  15.465  13.908
41584W        W 7993  30.497   3.220  11.615
41585W        W 7994  26.022  25.499  12.196
41586W        W 7995  31.465  15.958   2.655
41587W        W 7996  38.451  34.920   0.923
41588W        W 7997  23.594  21.256  11.958
41589W        W 7998  25.074  19.691  13.822
41590W        W 7999  17.265  41.729   4.595
41591W        W 8000  20.753  34.889   0.317
41592W        W 8001  35.532   2.318   9.601
41593W        W 8002  36.000   7.927  14.067
41594W        W 8003  27.241  31.880  11.185
41595W        W 8004   3.818   3.295   4.402
41596W        W 8005  20.873   8.700  11.935
41597W        W 8006  20.548   9.189  11.217
41598W        W 8007  20.792  11.236  11.719
41599W        W 8008   0.970   4.133  13.575
41600W        W 8009  42.240  30.594   0.829
41601W        W 8010  39.522  13.092  14.703
41602W        W 8011  26.453  44.519  11.778
41603W        W 8012  32.434  27.772  14.770
41604W        W 8013  44.479  18.688  12.174
41605W        W 8014   3.160  34.030   0.857
41606W        W 8015  10.834   7.763  10.746
41607W        W 8016  39.503  39.771  12.726
41608W        W 8017  21.884   8.390   2.188
41609W        W 8018  31.351  29.621   1.901
41610W        W 8019   9.314  43.463   4.166
41611W        W 8020  31.695   5.964   0.400
41612W        W 8021  16.106  36.336   4.549
41613W        W 8022  36.425  26.489   1.457
41614W        W 8023  32.704  16.064  11.878
41615W        W 8024   3.154   6.843   3.076
41616W        W 8025  18.319   3.249   0.768
41617W        W 8026   4.141  43.608   1.750
41618W        W 8027  18.591  37.985  11.748
41619W        W 8028  43.043  24.414  12.018
41620W        W 8029  13.355   3.995   2.737
41621W        W 8030  14.285  10.304  10.636
41622W        W 8031  16.213  22.058  13.328
41623W        W 8032   5.462  37.428   0.391
41624W        W 8033  21.221  25.019   4.613
41625W        W 8034  32.794  20.344  14.112
41626W        W 8035   9.490  10.314   1.869
41627W        W 8036  33.328   5.180   4.675
41628W        W 8037  35.510  42.761  13.970
41629W        W 8038  34.510  20.984   0.202
41630W        W 8039  25.690  21.288   1.616
41631W        W 8040  35.509  37.406  13.406
41632W        W 8041   7.858  18.331  10.833
41633W        W 8042  31.540  34.225   0.738
41634W        W 8043  16.523  25.827   4.996
41635W        W 8044  37.780  29.863   1.460
41636W        W 8045  43.500  31.229   0.667
41637W        W 8046  31.046   1.543  14.730
41638W        W 8047   0.799  13.864   2.251
41639W        W 8048  24.694   2.406   2.888
41640W        W 8049  33.860  30.969  11.868
41641W        W 8050   2.061  35.381  10.756
41642W        W 8051  18.032  17.323   4.041
41643W        W 8052  29.230  23.079   4.132
41644W        W 8053  18.542   2.759  14.673
41645W        W 8054  20.557  42.518   2.812
41646W        W 8055  43.474  26.524   2.364
41647W        W 8056   8.199  23.261  11.204
41648W        W 8057  16.835  10.778   3.568
41649W        W 8058  25.855  29.895   1.255
41650W        W 8059   5.791   2.111   4.139
41651W        W 8060  19.627  16.275  14.752
41652W        W 8061  14.202  14.344   0.680
41653W        W 8062  36.333  12.164   0.348
41654W        W 8063   4.061  23.693   2.246
41655W        W 8064  29.626  37.100  12.485
41656W        W 8065  29.652  13.986   1.268
41657W        W 8066   2.054  37.423   0.491
41658W        W 8067  34.914  26.173   2.189
41659W        W 8068  31.453  12.794   1.062
41660W        W 8069  32.977  13.606   1.776
41661W        W 8070  44.917  18.012  12.509
41662W        W 8071  14.380  44.936   4.589
41663W        W 8072  33.328  18.003  13.895
41664W        W 8073  10.425   5.873   9.988
41665W        W 8074  28.083   1.005  13.460
41666W        W 8075   8.380  21.960   1.260
41667W        W 8076  39.537  16.712   2.710
41668W        W 8077  35.680  11.711   2.734
41669W        W 8078  39.063  27.446  13.133
41670W        W 8079  11.844  16.892   5.070
41671W        W 8080  12.778  23.765  11.220
41672W        W 8081  20.042  23.993  12.347
41673W        W 8082  11.296  19.547  13.184
41674W        W 8083  32.464  43.298   0.705
41675W        W 8084  39.635  41.561  10.710
41676W        W 8085  34.386  17.065   4.048
41677W        W 8086  27.758  21.257   0.324
41678W        W 8087  17.756  14.722  10.736
41679W        W 8088  32.557  34.301   1.716
41680W        W 8089  43.734   4.766   2.251
41681W        W 8090  19.090  22.771   0.577
41682W        W 8091  10.056   2.017   1.336
41683W        W 8092  22.560   1.238  13.416
41684W        W 8093  28.220  23.449   3.746
41685W        W 8094  42.474  19.210  14.142
41686W        W 8095   1.151   0.377  13.517
41687W        W 8096   6.316  26.438   1.978
41688W        W 8097  15.681   9.739  14.024
41689W        W 8098  39.703  14.456   5.006
41690W        W 8099   0.062  16.784   0.291
41691W        W 8100  33.146  33.378  11.080
41692W        W 8101  34.080   7.723  14.569
41693W        W 8102  38.985  36.895   3.060
41694W        W 8103   1.609   4.430  13.940
41695W        W 8104  26.563  13.931   0.789
41696W        W 8105  39.962  20.857   1.481
41697W        W 8106  36.705  22.514   4.200
41698W        W 8107  33.269  43.953  11.754
41699W        W 8108  17.799  18.857  10.747
41700W        W 8109  28.165  20.040   2.967
41701W        W 8110  23.530   6.852  11.241
41702W        W 8111  27.736  39.009   0.506
41703W        W 8112  16.787  16.616   0.318
41704W        W 8113   1.352  25.469   2.443
41705W        W 8114  43.031  38.926  14.551
41706W        W 8115  36.934  17.663  13.795
41707W        W 8116  24.130   6.853   0.352
41708W        W 8117  20.679   0.766   2.855
41709W        W 8118  19.145  38.343  13.528
41710W        W 8119  17.181   7.392  11.178
41711W        W 8120   0.677  12.323  10.659
41712W        W 8121  32.511  43.011   3.630
41713W        W 8122  16.863  12.173  12.869
41714W        W 8123   2.724  11.155  11.454
41715W        W 8124  28.429  28.205  14.985
41716W        W 8125  44.552  20.910  10.326
41717W        W 8126  35.128  35.331   0.302
41718W        W 8127  37.138   8.804  14.214
41719W        W 8128   2.490  25.471  11.246
41720W        W 8129  19.730   5.889  14.822
41721W        W 8130  32.298  23.489  13.846
41722W        W 8131  34.731  17.624  14.389
41723W        W 8132  30.819  16.290   2.414
41724W        W 8133  37.650   1.915  12.268
41725W        W 8134   2.677  43.696   1.756
41726W        W 8135  29.135  30.658  11.207
41727W        W 8136   4.921  22.490   3.642
41728W        W 8137  15.896  31.836   4.503
41729W        W 8138  41.703  33.518   4.498
41730W        W 8139  28.833  34.438   2.676
41731W        W 8140  29.862  21.020  10.526
41732W        W 8141  14.122  19.044   0.078
41733W        W 8142  22.106  40.902  13.355
41734W        W 8143  38.087   7.239  10.831
41735W        W 8144  10.853  22.026  14.539
41736W        W 8145  19.781   8.442  10.559
41737W        W 8146  44.920  44.744  11.088
41738W        W 8147  15.196  24.350   1.347
41739W        W 8148   4.114   0.259  13.892
41740W        W 8149   5.825  32.809  12.420
41741W        W 8150  26.145  36.407  10.643
41742W        W 8151  30.666  12.015  14.766
41743W        W 8152  13.005  37.823   1.897
41744W        W 8153   2.155  37.169  13.401
41745W        W 8154   8.304  13.083   0.630
41746W        W 8155  30.151   1.811   3.297
41747W        W 8156  32.117  16.270   3.878
41748W        W 8157  40.347  17.826   3.602
41749W        W 8158  38.081  38.554  12.934
41750W        W 8159  27.532   1.246   4.005
41751W        W 8160   1.348  41.566  14.367
41752W        W 8161  32.860  10.353   1.448
41753W        W 8162   5.434  21.014  12.483
41754W        W 8163  24.688   2.211  11.988
41755W        W 8164  34.058   1.962  11.865
41756W        W 8165   3.150  20.122   4.392
41757W        W 8166   6.690  28.206  12.664
41758W        W 8167  33.263  27.621   0.612
41759W        W 8168  21.524  30.441   0.308
41760W        W 8169  19.945  20.911  14.019
41761W        W 8170   2.229  22.502   0.369
41762W        W 8171  24.171  44.852  14.470
41763W        W 8172  20.860  24.239  12.523
41764W        W 8173   0.853   5.322   1.914
41765W        W 8174  30.756  22.629  12.070
41766W        W 8175  32.439   5.280  11.410
41767W        W 8176  43.774  33.577  13.508
41768W        W 8177  29.575  36.278  14.916
41769W        W 8178  41.043   3.084  13.807
41770W        W 8179   3.218  36.729   0.189
41771W        W 8180  13.173  19.874  13.277
41772W        W 8181  10.342  17.094   0.473
41773W        W 8182  17.208  15.078   1.337
41774W        W 8183   5.269  14.889  14.941
41775W        W 8184  38.693  24.999  12.336
41776W        W 8185  20.330   9.803   4.741
41777W        W 8186  39.307  20.816  11.989
41778W        W 8187  10.917  14.235  10.448
41779W        W 8188  25.116  34.544   3.232
41780W        W 8189  26.915  33.641   2.330
41781W        W 8190   2.427   2.383   3.339
41782W        W 8191  44.479   6.291   2.292
41783W        W 8192  18.124  23.989  13.698
41784W        W 8193  27.025  21.564   2.727
41785W        W 8194  19.118  10.226   1.856
41786W        W 8195  15.089  31.694  13.899
41787W        W 8196  26.946  23.532  13.344
41788W        W 8197  35.844   1.285   4.904
41789W        W 8198  22.765  43.287   2.662
41790W        W 8199  36.644   2.150   0.904
41791W        W 8200  19.743  13.362   2.610
41792W        W 8201  42.446  15.182  11.905
41793W        W 8202  30.987  43.537   3.637
41794W        W 8203  25.117   3.173   0.468
41795W        W 8204  18.527  34.567   3.263
41796W        W 8205  16.246  10.923   1.652
41797W        W 8206   1.612  20.039   1.312
41798W        W 8207   8.209   8.290   0.839
41799W        W 8208   5.847   2.713   1.880
41800W        W 8209   4.939  36.356   0.723
41801W        W 8210  32.879  32.038  12.450
41802W        W 8211  29.789  35.751  11.560
41803W        W 8212  42.776   3.320   2.115
41804W        W 8213  10.220  32.546   2.453
41805W        W 8214  43.421   9.716  13.296
41806W        W 8215  23.578  30.477  14.325
41807W        W 8216  19.756  12.354   0.706
41808W        W 8217  27.673  22.280   4.324
41809W        W 8218   4.797  11.392   0.476
41810W        W 8219  16.546  23.612   3.314
41811W        W 8220  22.029  32.107   0.311
41812W        W 8221   9.676  43.955   0.934
41813W        W 8222  25.083  38.818  10.867
41814W        W 8223  22.591   1.373  12.410
41815W        W 8224  27.005  11.239  12.304
41816W        W 8225  11.949  13.348   2.873
41817W        W 8226   0.895  25.408  11.768
41818W        W 8227  44.518  18.094  13.225
41819W        W 8228  13.269   3.718  10.585
41820W        W 8229  23.133  38.882   3.279
41821W        W 8230  18.229  21.055  11.092
41822W        W 8231  42.978  41.033  14.980
41823W        W 8232  14.118   6.457   0.794
41824W        W 8233  16.538  19.135   2.250
41825W        W 8234   5.401  26.449  14.455
41826W        W 8235  38.093  44.322   1.967
41827W        W 8236  23.912   8.711  11.616
41828W        W 8237  10.306  30.740  14.822
41829W        W 8238   0.551  42.310   1.303
41830W        W 8239  19.181   3.384  11.087
41831W        W 8240  23.793  44.492   4.340
41832W        W 8241  25.154  23.713  11.564
41833W        W 8242   1.359  35.998  12.772
41834W        W 8243   4.773  20.642  13.174
41835W        W 8244  41.472   1.528  13.999
41836W        W 8245  43.264  12.122  12.373
41837W        W 8246  11.046  36.114   5.017
41838W        W 8247  27.596  11.454  14.264
41839W        W 8248   9.764  14.618  13.013
41840W        W 8249  20.528  25.629   2.083
41841W        W 8250  28.781  10.107  12.842
41842W        W 8251  44.558  36.607   3.188
41843W        W 8252  42.499  34.143  13.027
41844W        W 8253  33.413  17.390  11.075
41845W        W 8254  38.940  18.240  11.980
41846W        W 8255  31.916  27.984  10.754
41847W        W 8256  34.332  14.642   4.112
41848W        W 8257  21.780   7.636   4.660
41849W        W 8258  36.838  32.407  13.922
41850W        W 8259   2.949   9.464   3.753
41851W        W 8260  17.831  28.048  14.235
41852W        W 8261  26.026  23.568   4.556
41853W        W 8262  12.826   4.427  12.610
41854W        W 8263   7.577  21.953  11.955
41855W        W 8264  26.133   2.753   0.565
41856W        W 8265   3.852   9.787  14.487
41857W        W 8266  27.194   9.682   3.495
41858W        W 8267  36.886  13.839   0.274
41859W        W 8268  19.323  22.054   0.235
41860W        W 8269  42.220  36.081   3.349
41861W        W 8270  43.748  24.149   2.425
41862W        W 8271  21.732   8.259   1.158
41863W        W 8272  29.270   9.108  13.282
41864W        W 8273   5.616  30.976   1.204
41865W        W 8274   6.102  32.528  14.890
41866W        W 8275  15.788  17.285  11.631
41867W        W 8276  35.239  34.133  14.914
41868W        W 8277  10.805   6.662  12.718
41869W        W 8278  20.667  32.821  10.726
41870W        W 8279  25.051   0.499   1.794
41871W        W 8280  12.883  17.778  13.939
41872W        W 8281  30.404   7.817  13.849
41873W        W 8282  43.018  16.285  12.768
41874W        W 8283   2.839  23.207   2.430
41875W        W 8284  43.063   1.419  14.192
41876W        W 8285  37.891  15.167   3.933
41877W        W 8286  12.618  24.238   1.552
41878W        W 8287   3.819   1.969   0.507
41879W        W 8288  32.121  31.439  11.599
41880W        W 8289   6.679  17.714   4.537
41881W        W 8290  41.316   0.502   1.366
41882W        W 8291  24.002  26.967   4.210
41883W        W 8292   6.053  42.862   4.148
41884W        W 8293  18.079   3.515   2.435
41885W        W 8294   9.380  13.192  12.907
41886W        W 8295   1.205  11.198  10.809
41887W        W 8296  26.609  36.322  11.576
41888W        W 8297   0.173  29.000  14.861
41889W        W 8298  37.165  33.788  12.085
41890W        W 8299  41.222   4.437  10.801
41891W        W 8300  29.924  25.654   3.198
41892W        W 8301   9.892  18.887  13.878
41893W        W 8302  24.393  27.207  12.530
41894W        W 8303  14.263  30.028   2.130
41895W        W 8304   9.111  11.339  10.597
41896W        W 8305  35.269  22.499   4.870
41897W        W 8306  36.014  36.350  12.505
41898W        W 8307  31.784  17.497   1.292
41899W        W 8308  15.197  42.271  14.671
41900W        W 8309  42.440   8.760  13.827
41901W        W 8310  13.673  29.205   0.779
41902W        W 8311   2.400  32.045   0.323
41903W        W 8312   7.765   9.618   0.987
41904W        W 8313  33.403  40.295   3.251
41905W        W 8314  39.369   5.941   2.251
41906W        W 8315  38.852   4.917  11.893
41907W        W 8316  18.859   0.727   3.779
41908W        W 8317  30.036  29.680  14.411
41909W        W 8318  36.032   6.379  13.851
41910W        W 8319  19.320  33.143   3.632
41911W        W 8320   0.693  35.601   3.966
41912W        W 8321  25.492  21.994  13.932
41913W        W 8322   1.031  22.184  10.382
41914W        W 8323  43.002  35.608  12.030
41915W        W 8324  32.716  19.181  14.940
41916W        W 8325  29.121   8.114  10.727
41917W        W 8326   9.401  10.616  11.764
41918W        W 8327  20.764  41.919  12.202
41919W        W 8328  32.761   8.341   1.403
41920W        W 8329  30.522  26.052  10.711
41921W        W 8330   7.897  21.990   2.922
41922W        W 8331   3.027   1.343  13.891
41923W        W 8332  20.495  19.566   0.057
41924W        W 8333   5.663  11.656  12.027
41925W        W 8334   9.763  28.312   2.725
41926W        W 8335  23.181  44.339  10.277
41927W        W 8336  44.986  38.362  12.975
41928W        W 8337   7.581  32.024   1.341
41929W        W 8338  40.418  36.761   4.761
41930W        W 8339   5.285  37.905   1.364
41931W        W 8340  15.053  31.491   2.798
41932W        W 8341  37.187  12.753  10.442
41933W        W 8342  21.191  32.501  12.923
41934W        W 8343   7.931  25.613   1.348
41935W        W 8344  19.701  22.383  13.814
41936W        W 8345   3.266  40.985   1.367
41937W        W 8346  36.536   7.677   4.484
41938W        W 8347  19.293   5.198  11.147
41939W        W 8348   7.647  25.132   1.243
41940W        W 8349  23.124  27.837  12.299
41941W        W 8350  44.580  42.421  11.520
41942W        W 8351   5.158   4.264   0.698
41943W        W 8352  21.531  30.938  13.662
41944W        W 8353  25.587  14.530  14.292
41945W        W 8354  31.940  28.709  14.843
41946W        W 8355  13.572  26.631   3.210
41947W        W 8356  29.083  11.987  10.780
41948W        W 8357   6.817   9.064  12.003
41949W        W 8358   4.141  37.925   3.195
41950W        W 8359  41.556   6.372  14.265
41951W        W 8360  34.301  12.696   1.323
41952W        W 8361  22.086  37.009   0.398
41953W        W 8362  43.271  40.672  11.101
41954W        W 8363  37.996  12.883  12.123
41955W        W 8364  37.050  17.547  12.915
41956W        W 8365  17.770  44.898  13.531
41957W        W 8366  34.593  18.794   0.495
41958W        W 8367  14.692  41.612  12.974
41959W        W 8368   6.043  22.128   3.153
41960W        W 8369  13.722  12.876   4.277
41961W        W 8370  44.893  25.699  10.744
41962W        W 8371  32.629  24.593  13.452
41963W        W 8372  15.632   7.367  13.402
41964W        W 8373   8.380   9.277  14.799
41965W        W 8374  38.362   4.939  12.819
41966W        W 8375  28.554  19.328  12.624
41967W        W 8376  30.999   3.326  12.961
41968W        W 8377  27.893  30.594  13.909
41969W        W 8378  40.015   2.487  12.459
41970W        W 8379   0.294   8.313   2.349
41971W        W 8380  21.039  42.246   2.084
41972W        W 8381   7.109  29.923  11.824
41973W        W 8382  17.586  39.343  12.500
41974W        W 8383   7.853   7.828   3.918
41975W        W 8384  29.396  32.400  10.731
41976W        W 8385  25.646   6.709   0.463
41977W        W 8386  30.974  34.902  12.855
41978W        W 8387  11.239  24.704   2.735
41979W        W 8388  44.853  34.120  10.810
41980W        W 8389   6.395  15.278  10.396
41981W        W 8390   9.285  30.592   1.316
41982W        W 8391   8.820  21.279  12.995
41983W        W 8392  23.415  26.106   0.356
41984W        W 8393  10.236   4.679   0.598
41985W        W 8394  30.296   0.055  13.849
41986W        W 8395  13.107  35.502   3.124
41987W        W 8396  31.125  25.577   4.061
41988W        W 8397  15.323  18.337  12.577
41989W        W 8398  20.633  21.241  14.979
41990W        W 8399  25.713  18.732  10.459
41991W        W 8400  15.580  17.233   1.302
41992W        W 8401  16.240  17.649  13.061
41993W        W 8402  16.082  41.856  13.396
41994W        W 8403  31.929  22.780   0.043
41995W        W 8404  13.201  25.750  11.655
41996W        W 8405  25.989  31.997  10.582
41997W        W 8406  32.964  44.770  13.522
41998W        W 8407  15.645  30.461   4.076
41999W        W 8408  22.546  15.355  10.493
42000W        W 8409  17.605  39.417  11.067
42001W        W 8410  39.825   9.282   9.855
42002W        W 8411  17.015  16.145   3.200
42003W        W 8412  43.064  26.266  14.868
42004W        W 8413  22.152  12.552  12.154
42005W        W 8414  23.047   1.347  14.947
42006W        W 8415  20.330  18.487  14.250
42007W        W 8416   4.861   0.561   2.331
42008W        W 8417  29.165   1.712  13.380
42009W        W 8418  12.953  41.979   4.435
42010W        W 8419  30.136   8.405  10.504
42011W        W 8420   2.238  24.552   2.241
42012W        W 8421  15.027  24.992  12.924
42013W        W 8422   4.586   8.345  12.979
42014W        W 8423  37.284   8.856   4.178
42015W        W 8424  12.437  32.239   0.362
42016W        W 8425   8.946  41.110   4.445
42017W        W 8426  32.414  11.579   0.768
42018W        W 8427  41.041   4.918  10.727
42019W        W 8428  42.971  40.488  10.070
42020W        W 8429  28.165  42.906  14.081
42021W        W 8430   7.085  23.641  14.579
42022W        W 8431  21.041  27.665   3.270
42023W        W 8432  19.912   0.689  13.053
42024W        W 8433  43.348  30.980  11.366
42025W        W 8434   1.727   7.366   3.710
42026W        W 8435   4.304  10.412   0.327
42027W        W 8436  21.034  30.677   4.963
42028W        W 8437  22.180  21.289  14.855
42029W        W 8438  32.006  10.668  11.594
42030W        W 8439   0.366  10.698  12.883
42031W        W 8440  26.968  21.949  12.040
42032W        W 8441  11.889  33.868  13.918
42033W        W 8442  16.294  15.143   2.155
42034W        W 8443   4.536  25.743   4.070
42035W        W 8444  10.621  21.469  12.562
42036W        W 8445  34.368   7.305  14.501
42037W        W 8446   1.405  15.018  12.044
42038W        W 8447  44.761  16.105   0.916
42039W        W 8448  30.478   8.098  13.423
42040W        W 8449  38.365  39.037   0.836
42041W        W 8450   8.219   8.355  11.805
42042W        W 8451  30.873  14.204   2.795
42043W        W 8452  21.505  21.402  10.362
42044W        W 8453  41.733   6.318   3.807
42045W        W 8454  29.697  34.531  12.599
42046W        W 8455  10.835  19.042  11.547
42047W        W 8456  19.272  26.518  13.033
42048W        W 8457  36.339  28.069   4.374
42049W        W 8458   9.357   7.558  11.411
42050W        W 8459  22.813   6.185   2.617
42051W        W 8460  10.826  30.482   5.294
42052W        W 8461  30.596  43.482  10.445
42053W        W 8462  43.827  32.958   0.742
42054W        W 8463   2.413   2.919  14.208
42055W        W 8464   0.721  32.069  12.148
42056W        W 8465  29.552  17.293   3.686
42057W        W 8466   0.724  14.398   4.482
42058W        W 8467  24.979  39.371  14.059
42059W        W 8468  13.075  10.591  13.464
42060W        W 8469  33.036  34.074  10.753
42061W        W 8470  26.765   6.201  11.645
42062W        W 8471   0.586  11.221  13.957
42063W        W 8472  23.062   7.647  12.073
42064W        W 8473  29.673  13.066  14.786
42065W        W 8474  38.415  28.144  10.764
42066W        W 8475  25.722  36.413  13.455
42067W        W 8476  44.979  28.034   4.965
42068W        W 8477  33.319  43.262  11.203
42069W        W 8478   4.344  13.544   4.061
42070W        W 8479   8.692  28.202  14.335
42071W        W 8480  18.219   3.957   2.673
42072W        W 8481  29.503   2.246   2.749
42073W        W 8482  28.470  36.367   2.790
42074W        W 8483   8.845  25.049   1.950
42075W        W 8484  11.384  40.383   0.728
42076W        W 8485  13.636  27.162  13.088
42077W        W 8486  41.839  39.681  11.370
42078W        W 8487  17.627   9.299   2.746
42079W        W 8488  14.376  23.627  14.071
42080W        W 8489   1.431  22.503  13.117
42081W        W 8490  39.461  34.135   3.384
42082W        W 8491  18.127   6.807   3.659
42083W        W 8492  33.585  24.618   0.377
42084W        W 8493   0.200   5.735  11.112
42085W        W 8494   7.944  18.191   1.335
42086W        W 8495  36.820  10.069  13.735
42087W        W 8496   8.717  21.541   1.658
42088W        W 8497  15.934  14.059  14.375
42089W        W 8498  42.545  39.218  12.983
42090W        W 8499  35.432   9.831   1.687
42091W        W 8500  27.571  14.718  14.542
42092W        W 8501  20.335  41.845  10.565
42093W        W 8502   5.932  17.317  14.947
42094W        W 8503  35.265  37.263   4.976
42095W        W 8504  35.092  28.602  14.593
42096W        W 8505  26.304  17.833   0.776
42097W        W 8506  41.421  21.592   4.742
42098W        W 8507  20.929   5.346   1.016
42099W        W 8508  28.674  33.357   3.237
42100W        W 8509  14.991   5.801   4.620
42101W        W 8510  39.353  14.332  14.052
42102W        W 8511  19.675  43.881   0.049
42103W        W 8512  42.964  44.161   1.399
42104W        W 8513   1.129  23.936  13.959
42105W        W 8514  36.415  14.714   0.533
42106W        W 8515  44.254  19.473   4.628
42107W        W 8516  44.343  12.708  13.506
42108W        W 8517  33.130  21.265   2.115
42109W        W 8518  19.848  37.836  13.961
42110W        W 8519  35.927   2.027   3.602
42111W        W 8520   5.315  26.611  11.533
42112W        W 8521   3.967   4.282  14.748
42113W        W 8522   3.886   4.949  13.494
42114W        W 8523  34.126  36.226   1.482
42115W        W 8524  24.256  19.235  14.954
42116W        W 8525  16.983   9.175   0.482
42117W        W 8526   9.832  31.983  11.291
42118W        W 8527  15.283   6.656   2.150
42119W        W 8528  38.126  41.779   4.707
42120W        W 8529  38.241  15.525  10.567
42121W        W 8530  18.271  36.448   4.730
42122W        W 8531  12.593  33.419   2.295
42123W        W 8532  40.352  10.324   1.731
42124W        W 8533   1.305  15.145   4.693
42125W        W 8534   9.314   9.723   3.501
42126W        W 8535  35.887  35.407   4.402
42127W        W 8536   5.602  25.544   0.747
42128W        W 8537  35.176   0.425   1.693
42129W        W 8538  31.622  44.563   3.140
42130W        W 8539  43.542   2.152   4.140
42131W        W 8540  42.948  27.992  13.934
42132W        W 8541  15.082  29.788  13.879
42133W        W 8542   7.207   1.380  11.530
42134W        W 8543  21.291  21.958   1.648
42135W        W 8544  26.714  18.547  10.510
42136W        W 8545  22.335   0.773  13.565
42137W        W 8546  18.784  39.099  13.916
42138W        W 8547   7.388  44.934   1.193
42139W        W 8548  44.184  28.599   0.209
42140W        W 8549   3.357   5.400   0.299
42141W        W 8550  38.851  30.174  12.493
42142W        W 8551  26.986  36.758   4.269
42143W        W 8552  27.132  44.895   2.379
42144W        W 8553  16.064  12.684  10.580
42145W        W 8554  35.452  36.434   4.537
42146W        W 8555  19.396  31.739  13.360
42147W        W 8556  26.629  36.861   1.863
42148W        W 8557  22.615   3.151   3.346
42149W        W 8558  29.391  23.548  14.894
42150W        W 8559  27.290   6.778   2.227
42151W        W 8560   6.160  14.319  14.269
42152W        W 8561  25.698   7.867   0.966
42153W        W 8562  26.293  36.561  14.975
42154W        W 8563  18.845  34.513   4.561
42155W        W 8564  15.633   2.628   0.205
42156W        W 8565  11.193  10.428  13.362
42157W        W 8566  22.113  17.548  13.410
42158W        W 8567  35.090  21.570   3.151
42159W        W 8568   1.952   6.373  12.206
42160W        W 8569  29.545  20.475  14.569
42161W        W 8570  39.339   8.749   4.384
42162W        W 8571  19.515  29.679   1.659
42163W        W 8572  26.248  34.188   1.227
42164W        W 8573  14.924  22.259  13.731
42165W        W 8574  32.861   1.428  12.971
42166W        W 8575  44.410   2.734   0.682
42167W        W 8576  18.763  10.711  10.951
42168W        W 8577  32.077  12.651   3.875
42169W        W 8578  21.727  21.603  11.652
42170W        W 8579  35.925  16.131  12.531
42171W        W 8580  43.444  15.564   4.954
42172W        W 8581  38.420  29.819   4.614
42173W        W 8582  37.965  20.505  12.052
42174W        W 8583  32.369   2.387   0.024
42175W        W 8584  41.419  16.164  10.418
42176W        W 8585   2.413  34.188  12.029
42177W        W 8586  33.081  38.857   3.365
42178W        W 8587   1.522  40.515   1.269
42179W        W 8588   2.284   9.418   1.181
42180W        W 8589  21.533   6.251   4.857
42181W        W 8590  15.037  44.426   2.797
42182W        W 8591  21.137  23.669  13.359
42183W        W 8592  29.559  31.502  14.925
42184W        W 8593  20.097  26.670   1.503
42185W        W 8594  35.577  30.970  11.205
42186W        W 8595  17.694  29.174   1.776
42187W        W 8596   0.509  35.384  12.023
42188W        W 8597  28.028  42.959   0.863
42189W        W 8598  22.504   9.387  10.642
42190W        W 8599  35.675  16.074   1.769
42191W        W 8600   6.539  23.466  12.910
42192W        W 8601  38.307  40.614  12.890
42193W        W 8602  40.106  26.454  14.288
42194W        W 8603  27.964  26.097   3.125
42195W        W 8604  22.211  12.192  10.717
42196W        W 8605  22.084  12.292   1.336
42197W        W 8606  32.427  43.802   0.871
42198W        W 8607   2.842  19.105   0.943
42199W        W 8608   0.484  21.696   3.958
42200W        W 8609  21.679  12.206  10.607
42201W        W 8610   6.370  35.367   1.435
42202W        W 8611  15.254  41.610   0.445
42203W        W 8612  12.065  29.057   4.164
42204W        W 8613  18.232  22.069   1.827
42205W        W 8614  38.970  29.470  10.661
42206W        W 8615  17.104  20.776  11.577
42207W        W 8616  33.639  15.370   2.198
42208W        W 8617  40.269   0.398  13.403
42209W        W 8618   6.794   7.457  13.343
42210W        W 8619  21.321   6.222  12.289
42211W        W 8620  31.034  34.704   4.353
42212W        W 8621  28.009  38.339  14.298
42213W        W 8622  14.989   1.239  13.585
42214W        W 8623   5.305   4.256  12.541
42215W        W 8624  20.538  36.620   0.719
42216W        W 8625  43.097  28.061   1.431
42217W        W 8626   3.658   4.927   2.098
42218W        W 8627  29.499  30.043  11.460
42219W        W 8628  27.505  34.619   0.671
42220W        W 8629  11.051   8.313   2.762
42221W        W 8630  15.037   2.226   5.713
42222W        W 8631  38.438  24.025   3.789
42223W        W 8632   5.239  43.905   3.652
42224W        W 8633   5.553  24.507   0.403
42225W        W 8634  28.820  29.067   0.756
42226W        W 8635  10.147  19.740  13.872
42227W        W 8636  43.109  20.595   0.890
42228W        W 8637  20.791   0.175  13.401
42229W        W 8638  13.467  34.900  13.834
42230W        W 8639  40.966  36.921  13.826
42231W        W 8640  18.522   1.235  12.926
42232W        W 8641  23.261   8.390  12.952
42233W        W 8642  31.588  31.173   3.300
42234W        W 8643  44.187   4.685  14.886
42235W        W 8644  26.935  36.304  14.065
42236W        W 8645  36.801  44.773  12.482
42237W        W 8646   0.018  35.417   3.152
42238W        W 8647   3.180  19.629   3.204
42239W        W 8648  38.905   7.368   1.837
42240W        W 8649  33.855   7.466   0.928
42241W        W 8650  30.847  36.806  11.181
42242W        W 8651  34.937  11.121   0.293
42243W        W 8652  16.305  20.019   0.362
42244W        W 8653  16.422   2.697  11.739
42245W        W 8654  24.655  22.854  14.998
42246W        W 8655  18.998  38.856   0.326
42247W        W 8656  43.526   8.685  12.046
42248W        W 8657   4.724   8.445  10.977
42249W        W 8658  11.861  40.932  11.218
42250W        W 8659  14.581  32.866   1.692
42251W        W 8660  18.134  41.504   4.464
42252W        W 8661   4.011  27.557   1.304
42253W        W 8662  40.015   6.068   1.173
42254W        W 8663  31.947  17.860  12.023
42255W        W 8664  37.375  14.086   2.295
42256W        W 8665   0.789  11.866   4.701
42257W        W 8666  27.059  44.174  14.298
42258W        W 8667  38.099  26.686  11.692
42259W        W 8668  20.060  17.767   4.487
42260W        W 8669   1.140  22.774  10.876
42261W        W 8670   8.924  43.490  13.836
42262W        W 8671  30.295  40.441  11.220
42263W        W 8672  15.786  19.732  12.181
42264W        W 8673   2.425  41.518  12.976
42265W        W 8674   1.008  29.631  11.979
42266W        W 8675  16.076  35.412  14.318
42267W        W 8676  28.148  35.574  12.513
42268W        W 8677   3.298  24.965   2.756
42269W        W 8678   1.973  24.795  11.532
42270W        W 8679  22.196  30.486  14.772
42271W        W 8680   7.910   6.633   0.897
42272W        W 8681  10.746  22.775   0.431
42273W        W 8682  22.201  18.610   3.281
42274W        W 8683  30.339  25.205   1.905
42275W        W 8684   5.704  15.268   0.206
42276W        W 8685   2.337  13.373  12.119
42277W        W 8686   7.716  37.533   3.245
42278W        W 8687   4.925  39.104   2.736
42279W        W 8688  32.927  41.053  12.574
42280W        W 8689  27.061  30.675   5.073
42281W        W 8690  36.196  17.326   0.649
42282W        W 8691  20.055  31.787  11.188
42283W        W 8692  44.812  14.390  11.177
42284W        W 8693  22.719  13.108   3.596
42285W        W 8694  34.380  18.152  12.138
42286W        W 8695   3.400  19.850  11.172
42287W        W 8696  21.161  18.599   4.508
42288W        W 8697   7.271  13.670  13.941
42289W        W 8698  43.681  10.170   2.853
42290W        W 8699  39.439   1.306  12.479
42291W        W 8700  19.128  40.536  14.609
42292W        W 8701  10.370  24.895   0.294
42293W        W 8702  18.104  23.544   1.797
42294W        W 8703  31.657   3.644   0.936
42295W        W 8704  13.544  15.666  13.622
42296W        W 8705  25.093  33.894   2.256
42297W        W 8706   3.335  31.922  13.969
42298W        W 8707  21.972  22.704   2.155
42299W        W 8708  37.282  19.501   2.800
42300W        W 8709  38.356   0.287  12.081
42301W        W 8710  30.087  23.072   1.183
42302W        W 8711   6.772  12.042  11.683
42303W        W 8712   8.844   1.571  12.960
42304W        W 8713  39.877  44.734  11.106
42305W        W 8714  19.160   1.164  13.330
42306W        W 8715  34.824  39.651   0.392
42307W        W 8716  43.473  20.897   1.237
42308W        W 8717  20.174  41.568   1.791
42309W        W 8718  16.045   9.204  13.531
42310W        W 8719   7.776  30.875   1.888
42311W        W 8720  17.247  43.427  14.948
42312W        W 8721  21.705  23.489  11.528
42313W        W 8722  43.783  41.982   2.767
42314W        W 8723  30.118  31.369   1.956
42315W        W 8724  16.615   0.314  12.555
42316W        W 8725  14.947   0.135   5.337
42317W        W 8726   7.342  30.152   0.097
42318W        W 8727  43.309  16.774  13.450
42319W        W 8728  33.521   9.626  11.120
42320W        W 8729  31.938   6.272  13.047
42321W        W 8730  18.682   3.613   0.756
42322W        W 8731  13.887  12.604  12.784
42323W        W 8732   7.817  20.495  13.296
42324W        W 8733  22.056  20.044  11.077
42325W        W 8734  40.713  40.860   2.290
42326W        W 8735  13.235   7.139  13.372
42327W        W 8736  44.444  26.700   4.322
42328W        W 8737  36.955   3.315  11.300
42329W        W 8738  35.601  27.631   2.158
42330W        W 8739   7.824  44.757  10.412
42331W        W 8740  28.387  44.744   0.980
42332W        W 8741  29.997  43.475  13.196
42333W        W 8742  19.802  21.339  11.060
42334W        W 8743  24.550   5.506   0.439
42335W        W 8744   3.143  22.496  12.438
42336W        W 8745  10.344  23.126  11.723
42337W        W 8746   5.385  43.224   3.312
42338W        W 8747  41.965  24.935  13.327
42339W        W 8748  23.913   5.829   0.952
42340W        W 8749   8.017   4.588   4.551
42341W        W 8750  10.384  14.806   3.369
42342W        W 8751  14.410  20.703  12.538
42343W        W 8752   9.347  38.584   1.865
42344W        W 8753  33.097  24.744  11.059
42345W        W 8754  24.052  28.536   3.641
42346W        W 8755  42.827  10.020   0.388
42347W        W 8756  42.984  28.016   2.687
42348W        W 8757  30.924   3.613  14.624
42349W        W 8758  28.777  36.903  14.769
42350W        W 8759  35.000  30.968  13.882
42351W        W 8760  28.021  12.007   5.091
42352W        W 8761  15.777  16.742   1.265
42353W        W 8762  14.912   6.944  10.604
42354W        W 8763  25.390   1.778   0.964
42355W        W 8764  13.120  23.454   0.445
42356W        W 8765  23.970   3.515  14.753
42357W        W 8766  36.622  38.762  13.887
42358W        W 8767   3.957  20.596   2.770
42359W        W 8768   3.285   2.023  13.447
42360W        W 8769  35.580   2.695  11.134
42361W        W 8770  30.955   4.349  12.973
42362W        W 8771  14.135  20.069  13.729
42363W        W 8772  39.732  24.613   1.394
42364W        W 8773  35.807  33.095  13.403
42365W        W 8774  30.370  21.541  12.790
42366W        W 8775  36.617   1.291   3.727
42367W        W 8776  13.190  33.352  11.928
42368W        W 8777  32.634   5.924  12.149
42369W        W 8778  20.568  41.192  14.887
42370W        W 8779  28.946  26.145   4.608
42371W        W 8780  30.384   3.788  13.592
42372W        W 8781  42.029  25.954   2.686
42373W        W 8782  41.012  16.042  14.863
42374W        W 8783  19.763  13.163   4.142
42375W        W 8784  28.517  13.152   1.402
42376W        W 8785   2.682  33.464  13.024
42377W        W 8786  25.893  37.325  11.130
42378W        W 8787  28.641   0.967   3.845
42379W        W 8788  39.397  36.049   1.303
42380W        W 8789  26.171  44.850  13.039
42381W        W 8790  31.088  35.804  14.847
42382W        W 8791  18.975  26.715  10.830
42383W        W 8792   6.627  33.618  10.055
42384W        W 8793  35.509  41.602  11.130
42385W        W 8794  10.176  41.828  10.721
42386W        W 8795  12.829  25.311   1.487
42387W        W 8796  42.302  19.709  10.943
42388W        W 8797  35.028  37.171  14.301
42389W        W 8798  32.635  44.095   1.255
42390W        W 8799  12.757  37.324   4.148
42391W        W 8800  10.738   6.373   4.354
42392W        W 8801  38.316  34.364   4.390
42393W        W 8802   4.765  25.463  11.998
42394W        W 8803  31.937  22.279  14.898
42395W        W 8804  38.436  29.960   2.167
42396W        W 8805  29.227  14.671  12.628
42397W        W 8806  16.206   0.903   4.158
42398W        W 8807  26.598  26.896   4.015
42399W        W 8808   0.267  14.938   2.029
42400W        W 8809  32.320  39.722   0.772
42401W        W 8810  42.102  15.165  11.483
42402W        W 8811   6.336  22.956  14.902
42403W        W 8812   9.407   7.128   0.506
42404W        W 8813  25.284  25.183   0.263
42405W        W 8814  33.990  29.063  14.931
42406W        W 8815  16.070  17.746  10.923
42407W        W 8816  25.772  32.708   2.229
42408W        W 8817  25.326  24.561   4.943
42409W        W 8818   8.730  11.605  12.825
42410W        W 8819  23.956  44.378   2.531
42411W        W 8820  10.948  34.622  11.987
42412W        W 8821  36.117   2.929  13.461
42413W        W 8822   0.170   5.235   3.137
42414W        W 8823  39.364   4.685  11.188
42415W        W 8824  18.584  18.240  10.417
42416W        W 8825   7.833   7.855   1.430
42417W        W 8826   8.078   1.051   3.635
42418W        W 8827  12.300  15.521   0.039
42419W        W 8828  10.883  41.109   0.260
42420W        W 8829  14.789  10.671  12.887
42421W        W 8830  21.205  39.439  13.791
42422W        W 8831   8.148  27.125   3.369
42423W        W 8832   4.665  13.185  13.803
42424W        W 8833  27.463  24.119   0.051
42425W        W 8834   3.543  22.222  13.160
42426W        W 8835  20.617  42.533   1.861
42427W        W 8836  25.610   0.306  11.270
42428W        W 8837   8.290  34.868  12.439
42429W        W 8838  15.528   1.380   0.917
42430W        W 8839  41.729  34.647  12.661
42431W        W 8840   9.746  13.206   4.203
42432W        W 8841  11.561  28.068   2.305
42433W        W 8842  35.561   2.221   0.918
42434W        W 8843  33.540  35.416   3.413
42435W        W 8844  14.827   9.426   2.319
42436W        W 8845  41.951  19.135  14.972
42437W        W 8846  31.639  27.562  10.624
42438W        W 8847  22.737  20.088   4.131
42439W        W 8848  42.033  14.824   1.285
42440W        W 8849   1.231  39.466  13.525
42441W        W 8850  21.579  35.969  11.210
42442W        W 8851  28.631  21.446  14.976
42443W        W 8852  15.639   7.925   0.293
42444W        W 8853   4.869  19.567   3.879
42445W        W 8854  30.175  30.554  13.495
42446W        W 8855  18.645  34.394  14.897
42447W        W 8856  26.628  43.309  14.511
42448W        W 8857  40.453  23.631  12.492
42449W        W 8858  13.281  14.641   1.907
42450W        W 8859   7.692  16.723   0.366
42451W        W 8860  43.651  21.267  11.482
42452W        W 8861  11.195   5.672   0.457
42453W        W 8862  19.557  36.283   3.382
42454W        W 8863  16.539  44.779  12.469
42455W        W 8864  34.971   7.895   0.027
42456W        W 8865  43.491  23.275  14.276
42457W        W 8866  23.214  24.628   4.433
42458W        W 8867  38.927   3.244   4.587
42459W        W 8868  26.097  29.263  13.095
42460W        W 8869  32.161  14.958  11.500
42461W        W 8870   2.822  39.963  11.286
42462W        W 8871  29.429   5.863   1.486
42463W        W 8872  23.340  39.986   0.423
42464W        W 8873  15.500   9.740  11.309
42465W        W 8874  31.439  42.489   2.294
42466W        W 8875   0.110  18.832  13.393
42467W        W 8876  11.842  39.542   3.684
42468W        W 8877  37.435  15.270   4.157
42469W        W 8878   7.422   7.329  14.736
42470W        W 8879  29.384  24.638  12.803
42471W        W 8880  30.470  16.757   0.323
42472W        W 8881  32.008   7.543   1.085
42473W        W 8882  35.533  25.920   2.896
42474W        W 8883  40.486  21.457  13.478
42475W        W 8884   9.650  10.697   3.735
42476W        W 8885  43.258  32.591   1.906
42477W        W 8886  25.009  27.569   3.847
42478W        W 8887   3.482  11.680   2.474
42479W        W 8888  13.341   8.313  14.233
42480W        W 8889  41.121   3.213  12.474
42481W        W 8890  24.582  14.259   3.077
42482W        W 8891  39.066   5.581  13.904
42483W        W 8892  10.091  10.586  11.036
42484W        W 8893   8.422  35.298   2.309
42485W        W 8894  43.049  16.842   2.707
42486W        W 8895   7.859  35.848  13.031
42487W        W 8896   6.739  37.875  11.952
42488W        W 8897  19.706  33.601   0.085
42489W        W 8898  40.096  36.781  13.737
42490W        W 8899  39.308  24.262  12.063
42491W        W 8900   3.308   0.787  10.973
42492W        W 8901  17.227   9.722   0.347
42493W        W 8902  22.129   2.382   3.173
42494W        W 8903  19.156  18.048  12.484
42495W        W 8904  40.312  41.794   4.184
42496W        W 8905   4.785   3.497  13.030
42497W        W 8906  29.826  16.512   0.390
42498W        W 8907  22.539  28.946  11.414
42499W        W 8908  37.085   7.391  10.325
42500W        W 8909  29.692  44.886  12.552
42501W        W 8910   9.804  30.047   2.782
42502W        W 8911   9.117  17.345   4.223
42503W        W 8912  33.835  18.129   4.311
42504W        W 8913  15.710  12.066  13.963
42505W        W 8914  15.148  28.649  10.744
42506W        W 8915  17.768  43.465  12.479
42507W        W 8916   2.285   1.203   0.216
42508W        W 8917  35.423  43.568   3.228
42509W        W 8918   9.396  10.220   3.663
42510W        W 8919  20.598   2.480  12.974
42511W        W 8920  44.959   0.000  11.575
42512W        W 8921  15.339  11.192  12.673
42513W        W 8922  15.295  11.697  12.513
42514W        W 8923  26.789   2.363   2.948
42515W        W 8924  14.618   7.890   4.681
42516W        W 8925   3.123   1.490   2.580
42517W        W 8926  32.058  11.714   1.137
42518W        W 8927  32.116  20.693   3.470
42519W        W 8928  23.189   4.353   0.876
42520W        W 8929  14.636  14.055   1.344
42521W        W 8930  13.222  15.244   4.633
42522W        W 8931   4.891  15.220  10.612
42523W        W 8932  22.241  28.236   4.518
42524W        W 8933  28.392  28.535  13.313
42525W        W 8934   7.774  28.533  13.931
42526W        W 8935  39.044  30.023  13.600
42527W        W 8936  27.917   7.113  10.644
42528W        W 8937   1.870  19.152   2.939
42529W        W 8938  41.424  43.409   3.806
42530W        W 8939   4.962  34.930   0.410
42531W        W 8940   5.537  13.105  12.400
42532W        W 8941  20.522  18.233  14.839
42533W        W 8942  33.711  24.023   3.265
42534W        W 8943  10.363  35.065  13.553
42535W        W 8944  21.686   3.670   1.240
42536W        W 8945  18.074  40.128  14.451
42537W        W 8946  39.292  44.403   1.404
42538W        W 8947  39.285   9.900   2.876
42539W        W 8948  33.931  43.289   1.445
42540W        W 8949   4.470  43.360  11.778
42541W        W 8950   2.506   3.102   4.703
42542W        W 8951  42.767   4.635   1.637
42543W        W 8952  10.602  37.007   5.419
42544W        W 8953   6.093  35.895   1.718
42545W        W 8954  24.429   1.712  11.562
42546W        W 8955  36.809   3.382   1.339
42547W        W 8956  17.353   7.898   0.013
42548W        W 8957  36.064  24.845   5.229
42549W        W 8958   6.697  41.297   3.714
42550W        W 8959  43.010  27.570  14.222
42551W        W 8960  18.279  37.583   3.643
42552W        W 8961  11.095  38.589  14.061
42553W        W 8962  11.396   0.349  12.962
42554W        W 8963   7.610  37.027   1.435
42555W        W 8964  25.544  24.989   5.205
42556W        W 8965   3.345  11.382  12.681
42557W        W 8966  11.653   3.195   1.689
42558W        W 8967  37.815  42.534  14.798
42559W        W 8968  38.293  40.069  14.312
42560W        W 8969  33.743  27.733   4.520
42561W        W 8970  12.620  42.256   4.060
42562W        W 8971  18.580   8.280  14.113
42563W        W 8972  17.974  32.459  14.065
42564W        W 8973  17.627  42.970  12.501
42565W        W 8974   9.329  14.536  14.875
42566W        W 8975  27.434  30.325   5.026
42567W        W 8976   9.492   7.388   0.024
42568W        W 8977  41.435  38.780  13.425
42569W        W 8978  15.918  38.802  13.287
42570W        W 8979  22.059   5.350  11.861
42571W        W 8980  21.112  33.504  10.484
42572W        W 8981   7.753  14.611  10.483
42573W        W 8982  39.998  20.322   1.445
42574W        W 8983  28.364   5.318  14.806
42575W        W 8984  29.450  32.974  14.883
42576W        W 8985   4.422  21.503   0.833
42577W        W 8986  22.441  11.337   2.295
42578W        W 8987  36.337  35.075   3.659
42579W        W 8988  20.964  17.864  14.058
42580W        W 8989  39.752  14.142   2.313
42581W        W 8990   2.053  37.460  13.921
42582W        W 8991   3.458  18.555   1.224
42583W        W 8992  33.450  32.427   2.349
42584W        W 8993  44.379  36.882  12.047
42585W        W 8994  43.409  18.211  12.679
42586W        W 8995  42.965  37.009   1.380
42587W        W 8996  34.007  30.558  11.548
42588W        W 8997  43.738  16.311   3.899
42589W        W 8998  38.154  12.456   3.759
42590W        W 8999  11.905   9.597   2.910
42591W        W 9000  44.000  29.749  12.025
42592W        W 9001  24.088  34.117  11.708
42593W        W 9002  20.438  15.688  13.910
42594W        W 9003  10.246  25.302  12.059
42595W        W 9004   0.912  26.020  12.575
42596W        W 9005  24.642  38.628  14.741
42597W        W 9006  22.066  44.314  14.367
42598W        W 9007  32.154  25.718  10.679
42599W        W 9008   4.242  13.616  11.598
42600W        W 9009  19.667  31.801   3.337
42601W        W 9010  18.684  42.890   0.875
42602W        W 9011  24.317  38.905   2.167
42603W        W 9012  21.149  28.694   0.213
42604W        W 9013  33.920  19.834   2.112
42605W        W 9014  35.527  16.115  11.875
42606W        W 9015  20.794  35.964  10.563
42607W        W 9016  37.320  37.554  11.161
42608W        W 9017  15.594   7.352   3.256
42609W        W 9018  37.058  13.570  10.628
42610W        W 9019  37.490  28.153  11.723
42611W        W 9020  15.235  36.828  13.957
42612W        W 9021  18.790  29.125  14.432
42613W        W 9022  33.966   8.932   0.279
42614W        W 9023  21.745  10.642  11.022
42615W        W 9024  40.805  38.816   0.902
42616W        W 9025   6.352  37.972   1.364
42617W        W 9026   7.416  37.832  11.574
42618W        W 9027  35.159   2.380  14.976
42619W        W 9028   0.014  42.916   0.426
42620W        W 9029   4.208   8.926  11.092
42621W        W 9030   0.375  25.410  11.603
42622W        W 9031  23.108  23.588   4.282
42623W        W 9032  44.317  33.005   2.650
42624W        W 9033  31.887  22.527  11.687
42625W        W 9034  18.733  30.356  12.050
42626W        W 9035  25.519  16.762   2.491
42627W        W 9036  31.004  28.046   1.410
42628W        W 9037  34.829  35.809  14.816
42629W        W 9038   8.429  25.532  11.922
42630W        W 9039  38.342  23.771   3.330
42631W        W 9040  37.816   8.358   1.721
42632W        W 9041  40.347  10.113   4.306
42633W        W 9042   9.081  42.809   1.832
42634W        W 9043  18.874  44.312   5.008
42635W        W 9044  11.903  38.359  11.656
42636W        W 9045  22.965  15.232  13.454
42637W        W 9046  11.592   1.531  12.383
42638W        W 9047  40.427   0.634  12.053
42639W        W 9048  13.875  28.751  12.881
42640W        W 9049  22.579  44.370  13.120
42641W        W 9050  21.624  11.751   1.298
42642W        W 9051  14.685  43.792  12.984
42643W        W 9052  43.674  41.070   0.369
42644W        W 9053  42.041  35.352  12.859
42645W        W 9054   3.485  40.792   3.713
42646W        W 9055  14.807   8.849   0.086
42647W        W 9056  34.615   6.648  12.363
42648W        W 9057  12.885   5.288  14.787
42649W        W 9058  29.482  15.939  10.221
42650W        W 9059   3.810  26.973   4.249
42651W        W 9060  14.125  40.367   2.891
42652W        W 9061   9.912   2.798   4.078
42653W        W 9062  15.847  42.354   4.551
42654W        W 9063  14.509  27.080  10.693
42655W        W 9064  11.281  17.219  14.971
42656W        W 9065  25.700  16.799   0.974
42657W        W 9066   1.357  44.060   3.675
42658W        W 9067  35.487  40.615   1.477
42659W        W 9068  39.027  10.664   2.159
42660W        W 9069  42.502  13.595   1.434
42661W        W 9070  41.633  15.400   2.910
42662W        W 9071   6.231  23.485   9.887
42663W        W 9072   0.324  35.082  11.619
42664W        W 9073  31.892  37.786  11.377
42665W        W 9074  36.341  13.483   1.697
42666W        W 9075  29.563  14.558   3.225
42667W        W 9076  31.788  42.291  11.428
42668W        W 9077   9.666  35.744  12.001
42669W        W 9078  23.281  22.033   1.377
42670W        W 9079  18.514  36.943  14.386
42671W        W 9080  35.851   2.296  12.278
42672W        W 9081   4.924   8.378   5.152
42673W        W 9082  35.362  16.046  14.787
42674W        W 9083   6.696  31.592   0.516
42675W        W 9084   8.521   2.186   4.676
42676W        W 9085  40.076  10.959   1.289
42677W        W 9086  34.359  28.736   4.027
42678W        W 9087   7.774  37.533  13.673
42679W        W 9088  39.368  43.076  14.502
42680W        W 9089   9.332   2.224  12.022
42681W        W 9090  24.768  10.254  12.053
42682W        W 9091   0.899  17.604   1.671
42683W        W 9092  26.653  16.936  12.675
42684W        W 9093  14.658  13.324   2.351
42685W        W 9094  27.542  44.725  13.272
42686W        W 9095  35.385  28.419   0.349
42687W        W 9096   4.707  44.373   4.316
42688W        W 9097   2.503   4.245  11.993
42689W        W 9098  44.463   0.340  11.646
42690W        W 9099  28.261  20.629  14.901
42691W        W 9100  32.510  10.743   1.864
42692W        W 9101  25.066   7.869   4.769
42693W        W 9102  28.541  38.046  12.895
42694W        W 9103  22.270  19.115  11.103
42695W        W 9104   0.239  14.538   1.712
42696W        W 9105  14.033  17.500  13.268
42697W        W 9106  18.737  26.828   2.777
42698W        W 9107  17.247  25.125  12.541
42699W        W 9108  27.420  17.200   2.366
42700W        W 9109  15.287   0.977   3.607
42701W        W 9110  35.498  27.883  12.992
42702W        W 9111  39.921   3.477   0.578
42703W        W 9112  38.375  24.272   4.264
42704W        W 9113  43.039  36.765  14.521
42705W        W 9114  12.573  16.857   0.145
42706W        W 9115  43.425  21.053   1.734
42707W        W 9116  33.557  19.313  14.917
42708W        W 9117  24.936   1.364  14.845
42709W        W 9118  20.144  31.930  10.291
42710W        W 9119   2.473  34.412   1.378
42711W        W 9120  31.878   9.912   1.391
42712W        W 9121   1.998  37.142  12.502
42713W        W 9122  40.631  15.241   4.781
42714W        W 9123  30.429  15.647   4.335
42715W        W 9124  11.745  43.941  13.290
42716W        W 9125  16.872  22.508   5.361
42717W        W 9126  26.576  25.269  12.822
42718W        W 9127  20.910  25.401   1.746
42719W        W 9128  12.074  12.369  11.472
42720W        W 9129  41.894  25.329   5.079
42721W        W 9130  20.068  27.584   2.865
42722W        W 9131   9.312  38.678  12.350
42723W        W 9132  27.912  14.252   0.393
42724W        W 9133  13.812  18.679  11.056
42725W        W 9134   1.888  40.263   3.719
42726W        W 9135  24.759  10.157   1.052
42727W        W 9136  20.624  39.320  12.594
42728W        W 9137  34.394  32.439   2.164
42729W        W 9138  15.560  18.525  10.567
42730W        W 9139   8.890   6.357   2.385
42731W        W 9140  30.407  23.249  12.613
42732W        W 9141  19.992  35.386  13.416
42733W        W 9142   9.218   1.275  10.613
42734W        W 9143  27.140  44.218   1.324
42735W        W 9144  15.627  16.204   0.056
42736W        W 9145   3.955  34.117   2.339
42737W        W 9146   6.238  43.405  12.520
42738W        W 9147  20.926  17.211   1.233
42739W        W 9148  13.303  17.499  13.064
42740W        W 9149  39.243  12.645  10.828
42741W        W 9150   5.288   0.528   2.684
42742W        W 9151  16.376   1.353   1.730
42743W        W 9152  17.329  13.128   4.096
42744W        W 9153   1.187   6.687   3.546
42745W        W 9154   5.470  17.743   3.115
42746W        W 9155   7.792  23.134  10.778
42747W        W 9156  21.434   0.806   4.452
42748W        W 9157  34.048   1.751   0.349
42749W        W 9158  19.291   6.479  10.830
42750W        W 9159  42.872  36.157  12.095
42751W        W 9160  20.314  26.328   4.172
42752W        W 9161   1.353  15.807  12.705
42753W        W 9162  21.033  30.283  11.303
42754W        W 9163  25.227  15.529   0.872
42755W        W 9164  44.822  14.309  13.492
42756W        W 9165  13.711   6.345   4.044
42757W        W 9166  33.430   4.468  12.933
42758W        W 9167  22.569  24.510   2.295
42759W        W 9168  24.626  38.098  11.161
42760W        W 9169  32.206  14.951  12.943
42761W        W 9170  22.992  28.610   3.732
42762W        W 9171  23.433  32.192  14.993
42763W        W 9172  19.523  30.454  13.422
42764W        W 9173  32.084  24.391   2.128
42765W        W 9174  16.154  27.629  13.042
42766W        W 9175  11.124  33.455   0.011
42767W        W 9176  28.542   7.635  13.534
42768W        W 9177  31.744  26.571  14.964
42769W        W 9178  36.999  33.513  14.368
42770W        W 9179  18.713  26.976  13.321
42771W        W 9180  33.717  23.215   1.026
42772W        W 9181  27.579  11.944  13.490
42773W        W 9182  18.913  28.006   2.082
42774W        W 9183  41.392   0.396  11.748
42775W        W 9184   3.753  26.422  14.048
42776W        W 9185  12.273  21.604  14.892
42777W        W 9186  12.145   2.467   4.090
42778W        W 9187   6.720   7.668   1.797
42779W        W 9188  14.918  26.913   4.230
42780W        W 9189  28.219  42.273  12.104
42781W        W 9190  14.179   2.276  13.364
42782W        W 9191  14.415  22.226  13.944
42783W        W 9192  19.028  44.198   3.711
42784W        W 9193  31.507  11.418   3.626
42785W        W 9194  39.842  10.209   3.769
42786W        W 9195  28.581  41.903  13.044
42787W        W 9196  27.967  28.914   2.685
42788W        W 9197   7.323  42.531  11.214
42789W        W 9198  23.011  43.098  13.594
42790W        W 9199  37.907  38.892   2.657
42791W        W 9200   3.213  21.196  11.103
42792W        W 9201  14.321  25.232   2.730
42793W        W 9202  41.739   0.011  11.569
42794W        W 9203   5.157  38.055  13.320
42795W        W 9204  13.820  25.473  11.936
42796W        W 9205   8.447   4.431  14.636
42797W        W 9206   9.931   4.945   4.844
42798W        W 9207   5.833  26.271   4.547
42799W        W 9208  42.071   3.231   2.036
42800W        W 9209  13.483  44.918   4.963
42801W        W 9210  23.135  23.021   4.442
42802W        W 9211  27.432  16.922   1.017
42803W        W 9212  16.996  15.123   4.087
42804W        W 9213  18.922  27.615  13.918
42805W        W 9214  11.640  36.438   1.871
42806W        W 9215  11.847  16.298  14.119
42807W        W 9216   7.678  20.172   4.995
42808W        W 9217  36.848  40.361  12.670
42809W        W 9218   1.309  43.376   0.680
42810W        W 9219  43.771  37.581   1.924
42811W        W 9220  37.794  17.646  14.714
42812W        W 9221  18.360   6.418   4.712
42813W        W 9222  34.034  36.412   4.703
42814W        W 9223  22.594  37.159   0.298
42815W        W 9224  34.579  17.543   1.858
42816W        W 9225   7.323  20.208   1.823
42817W        W 9226  11.461  37.856  11.176
42818W        W 9227   9.417  43.547   0.728
42819W        W 9228   3.992   6.313  11.589
42820W        W 9229  24.147  40.786  14.368
42821W        W 9230  12.032  12.797   3.574
42822W        W 9231  16.215  11.419   1.494
42823W        W 9232  16.252   5.637   2.025
42824W        W 9233  34.060  25.187   1.269
42825W        W 9234  26.498  27.415  11.951
42826W        W 9235  28.104  33.870  11.402
42827W        W 9236   0.517  23.284   1.722
42828W        W 9237  44.934  34.473  12.038
42829W        W 9238  33.622  43.947  13.423
42830W        W 9239   6.831  43.494   1.953
42831W        W 9240  13.645  17.283  13.969
42832W        W 9241  21.693  42.353   4.112
42833W        W 9242  30.305  12.705   3.695
42834W        W 9243  16.380  42.178   3.890
42835W        W 9244   0.446  30.508   4.147
42836W        W 9245  33.482  28.865  14.930
42837W        W 9246  29.153  32.929   1.628
42838W        W 9247  19.470  34.495  13.571
42839W        W 9248  28.665  17.368   0.974
42840W        W 9249   7.258  43.030  11.278
42841W        W 9250  15.314  41.935  14.294
42842W        W 9251  37.529  24.425  12.289
42843W        W 9252  25.045   2.166  13.545
42844W        W 9253   4.143  31.868  11.142
42845W        W 9254  20.106  24.464   0.563
42846W        W 9255  20.360  23.747  14.941
42847W        W 9256  44.776  33.805  12.610
42848W        W 9257  13.851  22.649  10.142
42849W        W 9258  23.273  23.213   3.959
42850W        W 9259  24.619  14.140  12.514
42851W        W 9260  27.661  36.687  11.168
42852W        W 9261  36.827   4.956   1.458
42853W        W 9262   9.773  27.177  12.667
42854W        W 9263  33.629   5.304   3.363
42855W        W 9264  34.562  30.064   0.524
42856W        W 9265  18.070  25.631   4.614
42857W        W 9266  22.435  20.633   4.097
42858W        W 9267   7.605  12.762   1.286
42859W        W 9268  23.881   1.375   1.274
42860W        W 9269  12.452  35.363  11.433
42861W        W 9270   9.812   0.538   3.688
42862W        W 9271  18.627  10.056  13.491
42863W        W 9272  34.970  14.294   3.240
42864W        W 9273  22.065  31.102   1.874
42865W        W 9274  18.011  26.419   1.873
42866W        W 9275   0.292  31.008   3.270
42867W        W 9276  26.473  12.659  14.535
42868W        W 9277  10.150  43.405   2.816
42869W        W 9278  31.420  30.533  11.293
42870W        W 9279   7.141  38.300   3.687
42871W        W 9280  39.996  32.217   0.717
42872W        W 9281  28.042  31.981  13.619
42873W        W 9282  32.874  10.774  12.950
42874W        W 9283  20.633  35.621   0.762
42875W        W 9284  10.628   8.880   3.227
42876W        W 9285  43.278  25.655   2.724
42877W        W 9286  23.457   1.015  14.891
42878W        W 9287   2.817  23.639   1.135
42879W        W 9288   8.156   6.876   2.595
42880W        W 9289  26.811  17.090   5.074
42881W        W 9290   6.097  16.853  10.505
42882W        W 9291  12.283  19.525   4.228
42883W        W 9292  39.586   6.038  10.838
42884W        W 9293   1.474   8.660   0.201
42885W        W 9294   0.337   5.699   1.451
42886W        W 9295  12.822  15.848   3.577
42887W        W 9296  13.436   7.413  12.974
42888W        W 9297  20.530  28.499   2.526
42889W        W 9298   1.505   6.355  13.582
42890W        W 9299   2.314  43.517   2.788
42891W        W 9300  20.176  33.876  14.905
42892W        W 9301   2.147  10.392  12.647
42893W        W 9302   9.822  38.029  11.196
42894W        W 9303   0.004  42.222  12.426
42895W        W 9304  30.718  20.412  11.920
42896W        W 9305  44.378   5.250  10.095
42897W        W 9306  17.238  26.928   0.801
42898W        W 9307   7.295  34.641  10.244
42899W        W 9308  41.378   3.930  10.812
42900W        W 9309  28.730  31.631   1.932
42901W        W 9310  34.588   9.144   2.816
42902W        W 9311  15.811  12.167  12.910
42903W        W 9312   8.309   8.490   4.917
42904W        W 9313  44.159  10.842   0.244
42905W        W 9314  24.254  25.658  13.076
42906W        W 9315  10.353  27.161   0.169
42907W        W 9316   9.129  15.215  14.268
42908W        W 9317  19.671  40.314  13.841
42909W        W 9318  29.510   4.564  13.326
42910W        W 9319  15.178  44.019  10.675
42911W        W 9320  39.254  16.349   2.055
42912W        W 9321  28.678  24.791  12.719
42913W        W 9322   2.493  39.046   1.667
42914W        W 9323  31.940  16.131  13.816
42915W        W 9324  44.327  16.348   0.746
42916W        W 9325  26.191  31.653   0.005
42917W        W 9326  33.908  13.432   3.465
42918W        W 9327  25.731   0.950  14.089
42919W        W 9328  40.470  22.856  12.934
42920W        W 9329  34.612  43.971   4.007
42921W        W 9330  28.277   8.083   0.878
42922W        W 9331  44.413  12.674   0.411
42923W        W 9332   5.714  37.078  10.723
42924W        W 9333  14.732  26.445  13.062
42925W        W 9334  30.643  43.407  10.952
42926W        W 9335  28.422  30.044   1.033
42927W        W 9336  18.601  33.824   3.799
42928W        W 9337  36.909  14.156   2.102
42929W        W 9338  43.234  13.347  10.835
42930W        W 9339   9.841  36.151   4.498
42931W        W 9340   0.293   2.913  13.856
42932W        W 9341  21.570  33.763   3.595
42933W        W 9342   2.486  20.039  13.507
42934W        W 9343  25.470  28.565  13.955
42935W        W 9344  11.433  41.875  13.380
42936W        W 9345  18.232  30.105  10.433
42937W        W 9346  30.570  11.653  10.459
42938W        W 9347   3.634  31.654  10.448
42939W        W 9348  21.079   6.295   2.163
42940W        W 9349  33.000   8.357   2.037
42941W        W 9350  16.184   6.894  14.480
42942W        W 9351  41.270  16.757   0.752
42943W        W 9352  40.955   7.682   4.597
42944W        W 9353  42.376  25.700   1.430
42945W        W 9354  17.116   2.918  14.471
42946W        W 9355  27.204  41.801   1.894
42947W        W 9356  32.465  23.641   4.494
42948W        W 9357  41.032  35.617  10.488
42949W        W 9358  17.170  16.051  10.504
42950W        W 9359  17.544  32.939   0.746
42951W        W 9360  33.265  38.947  13.998
42952W        W 9361  22.864   3.461   5.068
42953W        W 9362  26.045  12.567  12.052
42954W        W 9363  34.453  16.722  13.876
42955W        W 9364  35.925  36.665  14.330
42956W        W 9365  41.132  25.458   1.803
42957W        W 9366   3.019  11.468  11.130
42958W        W 9367   6.425  35.286  14.057
42959W        W 9368  28.609  35.136   4.819
42960W        W 9369  35.465  19.952   2.878
42961W        W 9370  38.828  17.368  11.649
42962W        W 9371  22.869   2.265  14.728
42963W        W 9372  38.783   1.205  12.135
42964W        W 9373   4.349  29.953  11.777
42965W        W 9374  28.570  34.865   2.722
42966W        W 9375  44.882   5.354  13.969
42967W        W 9376  41.214  38.851   1.201
42968W        W 9377  10.325  34.105  14.948
42969W        W 9378  11.834  39.128   2.817
42970W        W 9379  12.376  15.872   0.444
42971W        W 9380   4.481  21.699   3.205
42972W        W 9381  28.434  12.171  11.521
42973W        W 9382  35.915  24.260   2.212
42974W        W 9383   4.858  23.989   1.635
42975W        W 9384  28.769  23.249  13.579
42976W        W 9385  24.594  40.098   1.011
42977W        W 9386  28.306   9.881  12.797
42978W        W 9387  42.340   1.600  12.543
42979W        W 9388  42.575  26.623   4.570
42980W        W 9389  35.113  22.127  11.406
42981W        W 9390  24.790  39.057   4.223
42982W        W 9391  41.789  16.093   0.426
42983W        W 9392  12.785  42.902  12.060
42984W        W 9393  25.742  35.631  13.176
42985W        W 9394  14.768  40.927   4.727
42986W        W 9395  28.123  43.233  14.537
42987W        W 9396  27.145  14.599   3.382
42988W        W 9397  12.252  40.265  13.712
42989W        W 9398  32.228   6.177   3.525
42990W        W 9399  40.467   1.335   3.826
42991W        W 9400  27.010  37.455   1.190
42992W        W 9401   8.245  16.286  13.983
42993W        W 9402  27.750  25.213   0.293
42994W        W 9403  20.327  30.851   0.331
42995W        W 9404  39.409  32.717  14.675
42996W        W 9405  30.985  10.630  14.605
42997W        W 9406   5.653  10.142  13.904
42998W        W 9407  34.543  38.088  14.023
42999W        W 9408   2.486  24.471  12.387
43000W        W 9409  27.541   0.115   3.646
43001W        W 9410  37.246   5.374   0.547
43002W        W 9411  44.358  42.370   1.280
43003W        W 9412  24.631   9.942  11.254
43004W        W 9413   7.979  16.643  10.969
43005W        W 9414  38.839   9.418  12.943
43006W        W 9415   8.698   4.245  11.398
43007W        W 9416  17.604   3.812  12.599
43008W        W 9417  28.651   7.792  10.752
43009W        W 9418  17.767   7.130  14.010
43010W        W 9419  20.734  40.239  11.579
43011W        W 9420  19.052  16.329   1.194
43012W        W 9421  24.537  41.013   1.159
43013W        W 9422  29.097  30.732   3.496
43014W        W 9423  26.025  35.012   2.420
43015W        W 9424  20.579  20.594  13.395
43016W        W 9425   3.631  40.797  10.575
43017W        W 9426  28.192  24.641  11.998
43018W        W 9427  33.656  23.594  10.219
43019W        W 9428  39.494  32.875  12.911
43020W        W 9429  12.118  39.355   2.459
43021W        W 9430  27.171  16.122  14.796
43022W        W 9431  15.610  36.846  14.947
43023W        W 9432  39.477  28.505  11.692
43024W        W 9433   8.187  20.225  12.784
43025W        W 9434  36.285  40.255  13.990
43026W        W 9435  30.688   0.654  11.584
43027W        W 9436  20.588  33.596  12.889
43028W        W 9437   7.193   7.785  11.707
43029W        W 9438  15.866  23.012   5.560
43030W        W 9439   1.024  15.203  14.349
43031W        W 9440  36.396  13.963   1.892
43032W        W 9441  18.590   1.833   0.809
43033W        W 9442  42.515  15.018  12.428
43034W        W 9443   6.520  35.520   4.751
43035W        W 9444  44.920  36.141   2.228
43036W        W 9445  42.341  37.633  13.766
43037W        W 9446  26.196  41.603   1.913
43038W        W 9447  30.414   0.179   3.630
43039W        W 9448   7.147  33.080  12.519
43040W        W 9449  14.052  13.069  14.010
43041W        W 9450  22.324  12.721   3.796
43042W        W 9451  32.497  21.359   1.391
43043W        W 9452  41.538   5.700   1.164
43044W        W 9453  31.389  27.111   1.250
43045W        W 9454  20.592  26.598  10.889
43046W        W 9455   5.279  18.062  13.315
43047W        W 9456  37.925  41.004  13.955
43048W        W 9457  14.347   4.708   1.586
43049W        W 9458  24.205  29.887  12.133
43050W        W 9459   6.221  16.376  13.914
43051W        W 9460  10.730  43.081  13.701
43052W        W 9461  20.197  35.970   3.886
43053W        W 9462  42.626  27.086   1.331
43054W        W 9463  13.711  36.350   4.114
43055W        W 9464   6.777   7.510  11.198
43056W        W 9465   6.707  38.774   3.049
43057W        W 9466   0.396  27.549  10.723
43058W        W 9467  23.480  16.766   4.257
43059W        W 9468  12.393  27.940  11.815
43060W        W 9469  23.543   6.896   2.747
43061W        W 9470  27.023  33.632   1.420
43062W        W 9471  39.030  39.645  13.467
43063W        W 9472   6.695  36.637   1.411
43064W        W 9473  23.984  14.851  12.049
43065W        W 9474  32.188  11.085   0.030
43066W        W 9475  10.387  34.904  14.481
43067W        W 9476   0.797   7.861   0.035
43068W        W 9477  20.045   3.443   4.348
43069W        W 9478  20.630  15.747  13.020
43070W        W 9479  36.414   5.786  13.926
43071W        W 9480  35.880  37.538   2.645
43072W        W 9481  17.531  41.410   3.677
43073W        W 9482  42.758  16.317   2.503
43074W        W 9483  21.388  35.457   2.482
43075W        W 9484  15.721  33.178   0.962
43076W        W 9485  10.648  13.012  14.451
43077W        W 9486   6.779  38.592  13.572
43078W        W 9487   0.111  40.868   3.941
43079W        W 9488  14.142  39.402   4.561
43080W        W 9489   7.600  20.205  14.528
43081W        W 9490  43.996  32.865   4.772
43082W        W 9491  11.925   9.152   0.544
43083W        W 9492  25.321   4.293   3.368
43084W        W 9493  25.218  30.011  11.986
43085W        W 9494  32.619  19.151   4.077
43086W        W 9495  20.214  39.269   2.262
43087W        W 9496  33.061   9.697  10.670
43088W        W 9497   5.116  28.963   0.793
43089W        W 9498  23.388  40.506  14.336
43090W        W 9499  35.629   7.833   1.958
43091W        W 9500  39.921   6.960   3.848
43092W        W 9501  32.330  34.017   3.843
43093W        W 9502  13.622  25.069  13.520
43094W        W 9503  27.505  12.213  13.965
43095W        W 9504   4.498  19.806  14.422
43096W        W 9505  43.052  41.994   3.341
43097W        W 9506  34.436  42.266  14.933
43098W        W 9507  39.413  42.145   1.287
43099W        W 9508  31.458  19.275  11.605
43100W        W 9509   0.321  41.650   3.260
43101W        W 9510  17.808   7.032   3.291
43102W        W 9511   2.457  42.541  10.346
43103W        W 9512   5.934  32.356  11.526
43104W        W 9513  29.605   6.074   2.309
43105W        W 9514  20.712  12.767   1.385
43106W        W 9515  43.284  30.085  11.736
43107W        W 9516  17.130  22.139  10.832
43108W        W 9517   8.171  43.985  10.806
43109W        W 9518  13.708  10.824   0.243
43110W        W 9519  38.893  22.193  13.424
43111W        W 9520  41.111   2.930   0.343
43112W        W 9521  30.563   9.127   2.484
43113W        W 9522  28.618  31.220  13.991
43114W        W 9523  38.663   5.812  10.664
43115W        W 9524  36.878  10.095  10.803
43116W        W 9525  30.649  11.777   4.142
43117W        W 9526  17.093  15.710  12.922
43118W        W 9527  35.261   2.292  12.336
43119W        W 9528   2.779  28.413   1.227
43120W        W 9529  23.724   6.733   1.853
43121W        W 9530  42.980  12.182  10.278
43122W        W 9531  34.962  10.822   3.291
43123W        W 9532   4.680  22.572  12.519
43124W        W 9533  17.409  28.225   4.493
43125W        W 9534  24.050   7.218   4.064
43126W        W 9535   1.699  30.657   2.352
43127W        W 9536  32.030   6.525  10.722
43128W        W 9537   2.777  19.197  14.014
43129W        W 9538   2.937  35.378   0.365
43130W        W 9539  18.313  43.380   3.274
43131W        W 9540  13.720  17.179   4.192
43132W        W 9541  39.399   4.865  12.854
43133W        W 9542  40.323  42.896   1.866
43134W        W 9543   0.415  12.329   3.236
43135W        W 9544  21.102  24.917   0.931
43136W        W 9545   7.352  10.819   2.163
43137W        W 9546   8.680  28.095   0.355
43138W        W 9547   2.436  11.217   3.679
43139W        W 9548  34.120  37.054  14.830
43140W        W 9549  38.765  15.933  12.891
43141W        W 9550   8.384  10.247   1.623
43142W        W 9551   6.816   7.220   0.205
43143W        W 9552  21.732  20.079   1.465
43144W        W 9553   8.196  44.524   0.347
43145W        W 9554  41.834  21.689   1.564
43146W        W 9555  22.163  34.072  10.725
43147W        W 9556   8.309  44.837  11.815
43148W        W 9557  27.074   7.241  12.404
43149W        W 9558  11.713  43.900   0.593
43150W        W 9559   0.441  22.405   2.314
43151W        W 9560  41.017  38.670  10.819
43152W        W 9561  32.174  44.805   4.848
43153W        W 9562  30.911  14.142  13.841
43154W        W 9563  14.720  14.059  10.301
43155W        W 9564  31.440  32.525  12.199
43156W        W 9565   9.153  14.682   4.278
43157W        W 9566   0.004  37.891  13.411
43158W        W 9567  12.999  13.337   4.531
43159W        W 9568  29.468   4.420  11.218
43160W        W 9569  25.680  29.194  13.460
43161W        W 9570  10.782  30.439  13.910
43162W        W 9571  30.619   0.881   0.245
43163W        W 9572  43.322  22.992   1.423
43164W        W 9573  31.473   0.941   4.531
43165W        W 9574  37.316   4.053  11.110
43166W        W 9575   2.845  42.245   2.751
43167W        W 9576  41.997  37.315  11.479
43168W        W 9577  32.188  28.888   3.854
43169W        W 9578  20.977   9.764  14.779
43170W        W 9579  26.692  42.521   0.791
43171W        W 9580  11.115  12.175   2.392
43172W        W 9581  13.338  24.497  14.457
43173W        W 9582  35.911  43.073  12.885
43174W        W 9583  27.401  11.057  14.534
43175W        W 9584  10.794  42.396  14.948
43176W        W 9585  22.454  38.456  11.069
43177W        W 9586  43.211  27.138   3.155
43178W        W 9587  17.678  13.201  12.102
43179W        W 9588   2.835  30.168  10.728
43180W        W 9589  25.728  44.774  11.153
43181W        W 9590   7.324  14.658   1.765
43182W        W 9591  16.172  33.923   0.756
43183W        W 9592  14.532  33.034  14.499
43184W        W 9593  28.304  38.279   4.640
43185W        W 9594  37.107  13.296   5.014
43186W        W 9595  29.691  20.198  12.985
43187W        W 9596  29.042  43.112  11.151
43188W        W 9597  12.199   6.407  11.043
43189W        W 9598  36.061  15.004   0.217
43190W        W 9599   2.532  31.222   4.581
43191W        W 9600  21.528  44.684   0.449
43192W        W 9601  37.544  36.544  10.755
43193W        W 9602  39.366  14.607   5.383
43194W        W 9603   8.838   6.459  13.604
43195W        W 9604  12.239  28.437  13.147
43196W        W 9605   1.234  38.388   1.950
43197W        W 9606  22.605   2.845  14.322
43198W        W 9607  30.455  28.968  12.904
43199W        W 9608  20.057  40.280   3.835
43200W        W 9609  41.547  14.831  14.304
43201W        W 9610  36.153  34.110   1.833
43202W        W 9611   9.452   1.519  14.822
43203W        W 9612  35.364  42.863   4.928
43204W        W 9613  36.923  34.830   1.469
43205W        W 9614  43.786   7.785   4.648
43206W        W 9615   4.633  42.527   2.854
43207W        W 9616   9.640  44.461  13.299
43208W        W 9617   6.745  15.266  14.468
43209W        W 9618  30.966  35.824  11.160
43210W        W 9619  28.549  23.031  11.231
43211W        W 9620   6.976  39.506  13.393
43212W        W 9621  35.614   2.745  13.350
43213W        W 9622  33.348  36.130   3.716
43214W        W 9623  38.584  40.057  10.087
43215W        W 9624   2.388  43.826   4.140
43216W        W 9625  37.268  26.549   2.781
43217W        W 9626  24.181  12.820  11.678
43218W        W 9627   4.768  16.278   1.970
43219W        W 9628  26.909  20.042   4.038
43220W        W 9629  36.528  41.940  14.317
43221W        W 9630   0.359   2.812   2.308
43222W        W 9631  16.545  21.782  14.335
43223W        W 9632  20.620   9.877   3.310
43224W        W 9633  23.231   0.366   2.162
43225W        W 9634  37.856   0.459   3.001
43226W        W 9635   8.240  15.843  10.612
43227W        W 9636  11.911  42.473  11.164
43228W        W 9637   7.617   4.786   2.669
43229W        W 9638  44.788  15.061  14.528
43230W        W 9639  32.027  40.757  11.681
43231W        W 9640   7.184  26.675  13.780
43232W        W 9641  22.914  10.578   3.502
43233W        W 9642  37.880  20.059   2.802
43234W        W 9643   3.897   2.005   2.776
43235W        W 9644   8.695  39.723   4.689
43236W        W 9645   0.265  25.937   5.097
43237W        W 9646  28.111   1.805   3.173
43238W        W 9647  35.316  40.889  13.313
43239W        W 9648  38.476  35.155  12.556
43240W        W 9649  24.177  14.050  14.123
43241W        W 9650  40.444  26.264  14.766
43242W        W 9651  11.256  26.207  14.973
43243W        W 9652  26.597  10.167   2.357
43244W        W 9653  33.882  21.727  12.555
43245W        W 9654  32.630  29.441   3.746
43246W        W 9655  31.853  25.563   3.165
43247W        W 9656  35.547  17.808  12.733
43248W        W 9657   9.974  33.113  11.243
43249W        W 9658   4.888  10.802   2.236
43250W        W 9659  40.425  35.072  11.377
43251W        W 9660  13.654  36.145   0.036
43252W        W 9661  39.092  25.779  11.115
43253W        W 9662  22.167  11.353  11.679
43254W        W 9663  13.606  41.461   4.315
43255W        W 9664  35.991   0.902  12.892
43256W        W 9665  23.258  27.752   3.807
43257W        W 9666  20.689   8.800   4.574
43258W        W 9667  29.910  34.494   1.818
43259W        W 9668  11.264  28.453   2.515
43260W        W 9669  11.103   3.215   3.620
43261W        W 9670  22.303  24.982  11.496
43262W        W 9671  12.855  23.233  14.808
43263W        W 9672   9.843  44.254   1.469
43264W        W 9673  37.840   2.865  13.780
43265W        W 9674  25.580  23.476   2.329
43266W        W 9675  27.246   7.330  11.933
43267W        W 9676  26.138   6.343   4.659
43268W        W 9677  32.936  34.595   1.873
43269W        W 9678  19.774  10.173  13.862
43270W        W 9679  27.693  22.293  12.141
43271W        W 9680  19.834   0.254   2.174
43272W        W 9681  38.587  21.787   3.165
43273W        W 9682   0.490  33.257   4.546
43274W        W 9683   5.047  13.160   3.686
43275W        W 9684  41.366  31.181  14.506
43276W        W 9685  25.209   1.934  12.695
43277W        W 9686  19.345   6.291   3.438
43278W        W 9687  10.686  30.057   5.023
43279W        W 9688  18.947  30.007   0.573
43280W        W 9689  16.874  15.675   1.167
43281W        W 9690  21.943  24.061   1.333
43282W        W 9691   3.876   2.922  12.103
43283W        W 9692  37.153  12.207  11.047
43284W        W 9693  39.622  12.473  12.968
43285W        W 9694  24.612   4.266  13.007
43286W        W 9695  22.027  36.942   3.331
43287W        W 9696   8.330  10.355  14.684
43288W        W 9697   8.839  43.270   4.216
43289W        W 9698  34.466  21.474   3.166
43290W        W 9699  29.939  31.516   3.996
43291W        W 9700  26.729  10.065  10.301
43292W        W 9701  12.243  20.463   4.443
43293W        W 9702   2.977  23.164   0.474
43294W        W 9703  30.401  34.641   1.769
43295W        W 9704  16.126  11.871   1.286
43296W        W 9705   5.724  43.624  10.619
43297W        W 9706   5.580   4.093   0.430
43298W        W 9707   7.647  15.038   1.507
43299W        W 9708  18.235  43.335  12.657
43300W        W 9709  22.693  30.580   3.233
43301W        W 9710   5.360  14.193   2.859
43302W        W 9711  30.824  17.041   4.055
43303W        W 9712  31.678   9.704  12.916
43304W        W 9713  44.831  38.660   1.843
43305W        W 9714  32.044   8.494  14.532
43306W        W 9715   9.878  27.622   4.668
43307W        W 9716  34.842  39.298   4.969
43308W        W 9717  12.965   1.706  13.221
43309W        W 9718  14.528   0.236   4.087
43310W        W 9719   4.201  42.980  11.545
43311W        W 9720   2.354  41.190  14.025
43312W        W 9721  27.922  32.383   3.729
43313W        W 9722  12.747  16.961   2.845
43314W        W 9723   1.213   6.091   1.381
43315W        W 9724  37.854  14.411  14.471
43316W        W 9725  44.249  38.314   3.719
43317W        W 9726  10.072  19.445   1.628
43318W        W 9727   4.301  43.512   1.260
43319W        W 9728  30.574  24.048  12.012
43320W        W 9729  11.268  12.658  11.088
43321W        W 9730   7.301   9.550  12.418
43322W        W 9731  32.409  15.891  13.806
43323W        W 9732   0.338  42.902  12.909
43324W        W 9733  33.866  29.010   0.433
43325W        W 9734   0.637   1.103   4.678
43326W        W 9735  18.239  22.815  11.599
43327W        W 9736  24.254  31.656   1.204
43328W        W 9737  19.980   1.691  13.071
43329W        W 9738   9.953   3.996   4.702
43330W        W 9739  37.394  42.804  12.928
43331W        W 9740  12.824  29.661   1.077
43332W        W 9741  10.401  16.136   2.821
43333W        W 9742  15.754   8.890   3.688
43334W        W 9743  35.719  14.744   2.805
43335W        W 9744  41.672   9.673  11.749
43336W        W 9745  25.368  25.953  13.495
43337W        W 9746  12.761  36.439  12.910
43338W        W 9747  23.769  17.370   2.649
43339W        W 9748  41.938  28.109   3.103
43340W        W 9749  15.578  10.046   4.657
43341W        W 9750  38.814  35.965  14.435
43342W        W 9751  13.671   8.361   2.697
43343W        W 9752  33.533   1.646  10.316
43344W        W 9753  21.605  43.311   0.127
43345W        W 9754  43.404  23.427   1.695
43346W        W 9755  41.361  15.333   2.351
43347W        W 9756  21.100  25.385  14.035
43348W        W 9757  22.331  25.120  12.843
43349W        W 9758   7.180  37.087   3.240
43350W        W 9759  31.898   6.293   2.113
43351W        W 9760  16.743   0.517   4.792
43352W        W 9761   1.244  36.445   1.496
43353W        W 9762  39.333  10.869  13.058
43354W        W 9763  14.699  27.111   4.680
43355W        W 9764  37.226  29.562  11.502
43356W        W 9765  35.067  42.297  11.598
43357W        W 9766   1.735  36.761  12.207
43358W        W 9767  42.793  12.983   5.343
43359W        W 9768  44.545  36.952   2.811
43360W        W 9769  23.089   8.381   1.792
43361W        W 9770  24.176  25.205  13.391
43362W        W 9771  27.319   6.403  12.491
43363W        W 9772   1.865  29.188  11.165
43364W        W 9773   7.104  27.400  14.210
43365W        W 9774   3.810   1.234  14.396
43366W        W 9775  35.233  38.670   4.763
43367W        W 9776  11.641  34.035   4.122
43368W        W 9777  17.766  19.793  11.975
43369W        W 9778  21.030  13.408   1.140
43370W        W 9779  32.106  29.971  10.525
43371W        W 9780   9.286  26.259   4.265
43372W        W 9781  34.339  14.309   1.862
43373W        W 9782  32.825   3.349   2.236
43374W        W 9783  19.395  18.648   2.148
43375W        W 9784  19.219  28.308   2.665
43376W        W 9785  26.131  21.450  12.153
43377W        W 9786   3.758  36.270   3.835
43378W        W 9787   2.172  21.325  12.919
43379W        W 9788   4.405   0.338  12.543
43380W        W 9789  23.111  30.105   4.368
43381W        W 9790  26.247  42.025  14.369
43382W        W 9791   4.776  40.021   1.300
43383W        W 9792   5.389   0.526   1.685
43384W        W 9793  38.201  28.040   4.489
43385W        W 9794   7.855  42.216   3.198
43386W        W 9795   4.256  24.740   4.121
43387W        W 9796   6.228  18.842  10.837
43388W        W 9797  12.369  23.735  12.500
43389W        W 9798  13.268  25.283   2.639
43390W        W 9799  34.320  13.190   3.694
43391W        W 9800  19.985  15.683   2.402
43392W        W 9801  41.888   0.053   4.671
43393W        W 9802  32.639  33.296   4.632
43394W        W 9803  39.248  24.537   3.787
43395W        W 9804  22.523  33.609   3.751
43396W        W 9805  39.593   3.215   1.795
43397W        W 9806  33.824  33.643  12.356
43398W        W 9807  36.426  10.699  12.958
43399W        W 9808  36.898  30.089  12.751
43400W        W 9809  44.984   0.725  12.559
43401W        W 9810   9.453  11.827   3.801
43402W        W 9811  13.827  33.580  11.388
43403W        W 9812   4.160  29.570   4.076
43404W        W 9813   9.179  26.558  13.896
43405W        W 9814  20.464  43.771   3.122
43406W        W 9815  31.315  14.798  14.232
43407W        W 9816  39.373   9.374  14.950
43408W        W 9817  38.744  14.765  12.870
43409W        W 9818  29.876   2.673  13.753
43410W        W 9819  26.028  10.898   2.246
43411W        W 9820  44.762  22.617  10.386
43412W        W 9821  29.777  38.412  12.509
43413W        W 9822  36.084  35.919  11.576
43414W        W 9823  19.062  38.513   0.755
43415W        W 9824   2.864   6.806  14.788
43416W        W 9825  30.640  28.697   2.975
43417W        W 9826  43.337  12.762   1.003
43418W        W 9827  39.425  37.329  13.943
43419W        W 9828   8.240  22.145   2.088
43420W        W 9829  38.460  33.304   3.166
43421W        W 9830  41.396  32.462   0.289
43422W        W 9831   0.730  39.827  10.284
43423W        W 9832   4.824   0.180   1.025
43424W        W 9833   4.823  38.549   3.445
43425W        W 9834   6.806  25.082   3.669
43426W        W 9835  22.113   9.673   4.048
43427W        W 9836  12.912  10.842   3.333
43428W        W 9837   6.348  35.103   0.515
43429W        W 9838  29.170  15.580  13.956
43430W        W 9839  35.002  35.647   1.559
43431W        W 9840  33.460  21.639   2.007
43432W        W 9841  37.507   5.623   4.032
43433W        W 9842  29.687  41.974   4.588
43434W        W 9843  18.289  18.646  14.386
43435W        W 9844  13.711  39.408   0.457
43436W        W 9845  17.616  33.800  14.790
43437W        W 9846  39.854   0.649   0.086
43438W        W 9847  22.491  13.280  11.199
43439W        W 9848  30.378  25.995  12.340
43440W        W 9849  20.336  19.698  13.467
43441W        W 9850  26.593  19.766  14.111
43442W        W 9851  43.736   7.047  12.903
43443W        W 9852  40.723  43.862   0.559
43444W        W 9853  21.482  14.839   3.312
43445W        W 9854   9.728  19.395  13.965
43446W        W 9855   3.573  24.080  14.613
43447W        W 9856   6.253  30.455  10.939
43448W        W 9857  13.163  22.088  12.966
43449W        W 9858   4.005  15.030   4.791
43450W        W 9859  15.174  23.446   0.296
43451W        W 9860  37.623  21.043  14.844
43452W        W 9861  29.166  33.254   3.425
43453W        W 9862  28.722  38.662  13.913
43454W        W 9863  18.674  40.762  14.706
43455W        W 9864  19.138  11.210  12.097
43456W        W 9865  13.741  39.323  12.880
43457W        W 9866  44.868  43.726  14.289
43458W        W 9867  36.441   4.112  13.987
43459W        W 9868   1.857  12.109   1.686
43460W        W 9869  11.613  28.218   0.896
43461W        W 9870  19.435  35.382  12.368
43462W        W 9871   1.595  31.048   3.404
43463W        W 9872  34.588  13.177   2.765
43464W        W 9873  19.001   5.822   2.153
43465W        W 9874  20.442  40.305   3.359
43466W        W 9875  22.521   7.152   2.692
43467W        W 9876  14.822  14.961  11.370
43468W        W 9877  39.006  36.332   2.184
43469W        W 9878  15.562  22.887  13.357
43470W        W 9879  13.009   5.761   1.326
43471W        W 9880   9.764  23.529  11.572
43472W        W 9881  19.278   4.763   0.560
43473W        W 9882  25.349  23.312  11.874
43474W        W 9883   2.154  26.656   0.438
43475W        W 9884  26.498   8.744  14.991
43476W        W 9885  11.855  25.083   1.422
43477W        W 9886  10.113  19.554  11.255
43478W        W 9887  20.567   0.484   1.412
43479W        W 9888  18.577   4.949   0.243
43480W        W 9889  20.092  27.584   3.409
43481W        W 9890  21.174   1.489   3.374
43482W        W 9891  35.010  16.773   4.398
43483W        W 9892  28.607  14.589   2.782
43484W        W 9893  20.626  18.992   2.441
43485W        W 9894  16.331  36.556  12.130
43486W        W 9895  17.771  19.250  11.988
43487W        W 9896   2.555  11.222  12.694
43488W        W 9897   1.307   6.589   1.271
43489W        W 9898   4.035   0.622  11.965
43490W        W 9899  42.380   3.936   4.159
43491W        W 9900  35.416  42.388   1.902
43492W        W 9901  16.368   3.258  13.633
43493W        W 9902  24.256  19.531  12.021
43494W        W 9903  11.806  13.162  13.562
43495W        W 9904  20.816  27.594  11.185
43496W        W 9905  16.217  26.827  12.491
43497W        W 9906  28.227  23.533   1.188
43498W        W 9907  42.367  41.517  13.258
43499W        W 9908   0.684  37.367  14.549
43500W        W 9909  43.904  31.905  13.979
43501W        W 9910  43.027   6.259   0.012
43502W        W 9911  29.382   5.223   2.757
43503W        W 9912  21.254  13.823  13.025
43504W        W 9913  32.092  13.100  11.009
43505W        W 9914  36.276   2.958  11.634
43506W        W 9915  44.825  10.881  14.111
43507W        W 9916  39.229  32.507   2.225
43508W        W 9917   6.619  21.598  13.869
43509W        W 9918  20.117  27.057  12.943
43510W        W 9919  43.231  19.653  11.130
43511W        W 9920  44.252  36.213  14.718
43512W        W 9921   6.951  36.432   2.711
43513W        W 9922  22.644  44.713   1.821
43514W        W 9923  24.226  32.863   4.327
43515W        W 9924  16.937  20.037   1.841
43516W        W 9925   4.833   2.799   3.303
43517W        W 9926   3.373  44.490   0.877
43518W        W 9927  36.430  34.324   2.219
43519W        W 9928  15.776  23.650   4.536
43520W        W 9929  28.242  29.126   2.239
43521W        W 9930  11.575  23.602  12.884
43522W        W 9931  36.796   3.176   0.064
43523W        W 9932   9.842  44.994   0.457
43524W        W 9933   3.504  23.724  14.975
43525W        W 9934  26.249  15.267   0.321
43526W        W 9935  22.058  32.709   3.760
43527W        W 9936  42.092  19.511  14.373
43528W        W 9937  32.919  34.834   2.337
43529W        W 9938   6.165  18.741  12.650
43530W        W 9939   1.776  41.101   4.598
43531W        W 9940  38.168   5.196   3.723
43532W        W 9941  18.507  14.816  14.734
43533W        W 9942  34.002  42.532   3.268
43534W        W 9943  18.192  19.827   2.282
43535W        W 9944  27.869  17.998  11.141
43536W        W 9945   9.587   4.341   4.151
43537W        W 9946   6.115  31.864   1.186
43538W        W 9947  27.189  32.392  14.743
43539W        W 9948  31.505  28.474   2.407
43540W        W 9949  16.372  32.018  11.398
43541W        W 9950  39.541  42.496   2.835
43542W        W 9951  42.499  40.083  12.816
43543W        W 9952  22.159   3.734   0.287
43544W        W 9953  43.992  36.750  12.476
43545W        W 9954  35.112  16.046   4.627
43546W        W 9955  23.189   7.197   2.423
43547W        W 9956  31.566  34.305  11.713
43548W        W 9957  42.773  24.157  14.907
43549W        W 9958  33.572  42.715  10.360
43550W        W 9959  22.219   3.334  14.898
43551W        W 9960   8.208  44.474   3.358
43552W        W 9961   6.045   9.833   3.967
43553W        W 9962  31.532   0.736   1.756
43554W        W 9963  40.582  13.773   2.307
43555W        W 9964  26.840   9.754  11.587
43556W        W 9965  28.772  34.358  11.419
43557W        W 9966  10.057  29.651   2.559
43558W        W 9967  43.372  27.023   3.648
43559W        W 9968  14.830  15.240   2.278
43560W        W 9969  20.251   7.306   0.437
43561W        W 9970  10.288  29.160   1.815
43562W        W 9971  29.086  12.421  10.501
43563W        W 9972  27.584  36.686   1.419
43564W        W 9973  34.635  22.696  12.164
43565W        W 9974   4.199   8.285  14.962
43566W        W 9975  40.930  34.585  13.327
43567W        W 9976  11.343  43.496   5.038
43568W        W 9977  11.355  23.019   3.824
43569W        W 9978  26.643  11.096  10.077
43570W        W 9979  24.667  30.987   4.453
43571W        W 9980  17.357  27.119  11.974
43572W        W 9981  35.003  31.571  14.462
43573W        W 9982   6.897   0.171  13.914
43574W        W 9983  22.908  25.581  13.848
43575W        W 9984   7.175  29.550  13.820
43576W        W 9985  20.035  34.002  14.397
43577W        W 9986  13.338  32.518  14.957
43578W        W 9987  15.883  26.104  11.146
43579W        W 9988  14.351   5.101   4.746
43580W        W 9989  28.960  29.146  11.553
43581W        W 9990   8.400  35.426   3.635
43582W        W 9991   5.978  23.033   3.220
43583W        W 9992   4.622   1.297  12.631
43584W        W 9993   6.557  14.227  14.579
43585W        W 9994  17.687   8.403  13.443
43586W        W 9995   1.282   9.959   3.876
43587W        W 9996  15.666  38.802   3.322
43588W        W 9997  18.300  10.285   3.626
43589W        W 9998  33.506  31.859  10.688
43590W        W 9999  25.291  16.432  13.366
43591W        W10000  16.544  10.575  12.429
43592W        W10001   8.204   0.208  13.299
43593W        W10002  19.423  36.990  10.744
43594W        W10003  42.547  12.209  10.590
43595W        W10004  18.080  26.747  13.485
43596W        W10005   6.431  23.615   1.214
43597W        W10006   2.025  30.052  13.811
43598W        W10007  40.421  26.977  12.864
43599W        W10008  34.842  19.389  12.325
43600W        W10009  42.226  19.682   0.417
43601W        W10010   3.883   1.789  12.653
43602W        W10011   9.128  40.145   2.769
43603W        W10012  34.010  26.043   2.160
43604W        W10013  11.007  42.185  11.142
43605W        W10014  30.535  12.081   1.859
43606W        W10015  21.438  11.173   1.468
43607W        W10016   9.389  41.341   4.644
43608W        W10017  25.220   1.298  11.573
43609W        W10018  37.326  18.183   1.917
43610W        W10019  38.162  25.314   2.864
43611W        W10020   7.859   3.710   3.374
43612W        W10021   0.813  26.377   3.261
43613W        W10022  23.957  44.970   3.605
43614W        W10023  29.726  25.239   4.262
43615W        W10024  30.781  10.940  13.524
43616W        W10025   6.288  38.533  12.827
43617W        W10026   4.235  20.442   0.949
43618W        W10027  34.743  21.513   0.825
43619W        W10028  15.781   7.579  14.105
43620W        W10029  33.334   0.403  14.907
43621W        W10030  24.005  20.732   3.342
43622W        W10031   5.201  12.504   3.664
43623W        W10032  25.762  11.674  13.438
43624W        W10033  40.323  39.552   3.311
43625W        W10034   8.396   0.833  14.987
43626W        W10035  28.099   0.025  11.179
43627W        W10036   0.435  11.834  14.407
43628W        W10037  42.437  16.352   1.017
43629W        W10038  44.995  43.310  14.006
43630W        W10039  30.105  21.651  10.456
43631W        W10040  25.032  18.504  13.027
43632W        W10041  42.415  17.622  11.503
43633W        W10042  11.326  18.145   2.764
43634W        W10043  24.745   2.334   1.495
43635W        W10044  23.449  22.526   1.319
43636W        W10045  22.148  14.525  10.547
43637W        W10046  26.018  14.709  13.990
43638W        W10047  31.051  21.727  13.416
43639W        W10048  36.525   8.542  13.438
43640W        W10049   3.883  31.705   0.898
43641W        W10050  17.059  26.789  11.646
43642W        W10051  22.653  35.350  14.133
43643W        W10052  30.448  30.612  14.477
43644W        W10053  39.142   1.784  10.294
43645W        W10054  16.184  17.867  14.031
43646W        W10055   0.882  18.879   4.972
43647W        W10056  31.166  44.532   3.696
43648W        W10057  37.071  19.223   1.886
43649W        W10058  15.000   4.536  13.383
43650W        W10059  21.928   0.429   0.494
43651W        W10060  41.178  20.961  14.559
43652W        W10061  11.405  41.209  10.635
43653W        W10062  10.670  33.069   1.722
43654W        W10063   7.601  34.596   4.119
43655W        W10064  26.719  40.934   0.250
43656W        W10065   0.304  10.189   2.178
43657W        W10066  17.744  34.729   2.789
43658W        W10067  12.596  18.171   4.211
43659W        W10068   0.882   8.566   5.348
43660W        W10069  26.919  17.566  13.931
43661W        W10070  36.967  31.353  10.891
43662W        W10071  14.046  23.145  14.374
43663W        W10072   2.644  14.074  14.763
43664W        W10073   6.011  27.665   3.784
43665W        W10074   0.248  36.031  14.488
43666W        W10075   1.205  38.294  13.121
43667W        W10076  34.003  43.358   4.207
43668W        W10077  26.947   3.410  14.745
43669W        W10078  18.761  40.838  13.356
43670W        W10079   2.288  28.648  14.449
43671W        W10080  40.364   3.655  11.177
43672W        W10081  34.824  15.081   2.922
43673W        W10082  34.528  30.647  11.544
43674W        W10083  36.313  28.346  10.970
43675W        W10084  27.420  34.879  13.044
43676W        W10085  22.224  33.088  13.545
43677W        W10086  42.912  28.648   2.036
43678W        W10087   4.793   7.215   1.469
43679W        W10088  33.053  33.524   2.728
43680W        W10089  26.050  34.367  10.526
43681W        W10090   2.469  37.611  12.647
43682W        W10091  37.653  13.816  12.935
43683W        W10092  39.070  29.405  12.829
43684W        W10093  36.613  19.180  13.931
43685W        W10094  25.876  38.956  12.425
43686W        W10095  38.137   3.124  11.994
43687W        W10096  37.809  26.614  12.113
43688W        W10097  35.688  25.303  14.873
43689W        W10098  17.643  24.572  14.589
43690W        W10099  41.579  22.729  14.762
43691W        W10100  10.339   7.285  11.858
43692W        W10101   5.213  32.109  14.734
43693W        W10102  24.243  37.557   3.651
43694W        W10103  42.424  19.661   3.761
43695W        W10104  22.539  41.293   4.657
43696W        W10105  32.545  35.079  11.700
43697W        W10106  41.901  21.779   0.009
43698W        W10107  38.414   1.209  13.368
43699W        W10108   3.838   4.730  14.458
43700W        W10109   0.869  34.100  14.873
43701W        W10110  42.816  37.537  13.111
43702W        W10111  39.407  26.655   2.753
43703W        W10112   0.863  19.999   3.891
43704W        W10113  34.484   6.586   1.376
43705W        W10114  10.077  43.901  13.597
43706W        W10115  31.969   9.147  11.657
43707W        W10116  34.093  32.634  10.876
43708W        W10117  44.445  28.657   4.541
43709W        W10118  15.316  27.926  14.331
43710W        W10119  33.643   6.860   2.924
43711W        W10120  19.574   0.701   2.288
43712W        W10121  36.534  10.070   1.643
43713W        W10122  27.157  28.868  11.182
43714W        W10123  13.674  23.163  12.117
43715W        W10124  38.826  27.196  11.836
43716W        W10125  42.580  35.777   0.225
43717W        W10126   5.411  11.285   0.711
43718W        W10127  16.106   7.731   1.030
43719W        W10128  27.173  24.692  12.972
43720W        W10129   8.651  44.292   0.340
43721W        W10130  34.634  34.309  11.012
43722W        W10131  32.142  18.507   1.406
43723W        W10132  27.998  16.877  14.841
43724W        W10133   2.365  16.522   4.176
43725W        W10134  35.417   1.882   3.382
43726W        W10135  12.653  12.550   4.792
43727W        W10136   9.828   4.716   3.417
43728W        W10137  42.349  37.372   2.703
43729W        W10138  28.806  34.673   4.655
43730W        W10139  23.315  12.559   0.335
43731W        W10140  20.485  29.991   1.347
43732W        W10141  30.352   5.456   2.325
43733W        W10142  43.944  22.678   3.734
43734W        W10143   1.281  21.310   3.278
43735W        W10144  34.361  29.697  11.125
43736W        W10145  17.725  19.825   4.897
43737W        W10146  36.327  24.991   1.658
43738W        W10147  38.013   5.645   1.998
43739W        W10148  13.090  29.477   1.490
43740W        W10149  15.728  29.139   3.676
43741W        W10150  20.254  34.651  11.669
43742W        W10151  20.535  19.252  13.144
43743W        W10152  14.084  11.346  10.819
43744W        W10153  35.752   6.854  10.624
43745W        W10154   0.077  43.451  12.904
43746W        W10155   9.405  21.471   2.775
43747W        W10156  13.541  29.176  12.770
43748W        W10157   8.398  14.280  12.135
43749W        W10158   0.237  41.719  11.547
43750W        W10159  34.954  28.183   1.424
43751W        W10160  23.691   6.277   2.085
43752W        W10161  43.050  36.559   3.809
43753W        W10162   6.547  34.676  14.507
43754W        W10163  17.489  13.115  11.191
43755W        W10164   2.445  27.524  11.044
43756W        W10165  10.918   7.080  13.068
43757W        W10166   7.139  31.086  14.994
43758W        W10167  43.862   7.397   0.946
43759W        W10168   4.855  28.287  14.443
43760W        W10169  27.409  31.987  14.995
43761W        W10170  13.030  29.180  11.959
43762W        W10171   3.580  13.458   2.757
43763W        W10172  35.503  39.282  14.881
43764W        W10173  39.809   8.761   4.544
43765W        W10174  28.655  28.541   1.737
43766W        W10175  15.748  29.581   1.351
43767W        W10176  31.095  21.458  12.471
43768W        W10177   8.673  33.637  11.564
43769W        W10178  17.516   5.421  12.997
43770W        W10179  13.004  24.031  13.212
43771W        W10180  19.563  18.320  12.783
43772W        W10181   9.127   2.374   2.115
43773W        W10182  36.084  35.510   0.380
43774W        W10183  26.084  20.512   3.559
43775W        W10184  17.343  41.376  10.554
43776W        W10185   0.041  41.745  14.382
43777W        W10186   4.186  43.684  12.549
43778W        W10187  19.717   3.817   5.025
43779W        W10188  32.914  10.274   0.377
43780W        W10189  42.282  12.824  13.477
43781W        W10190  20.322  23.017   4.184
43782W        W10191  16.195  44.342   4.469
43783W        W10192  36.925   8.419  12.160
43784W        W10193   9.998  22.179  12.515
43785W        W10194   3.432  28.082   4.614
43786W        W10195  20.950  15.721  14.010
43787W        W10196  18.410  44.817  11.088
43788W        W10197  11.579  43.173  14.970
43789W        W10198  30.483  10.879   1.214
43790W        W10199   2.878  23.292   4.670
43791W        W10200   1.773   9.891  14.349
43792W        W10201  25.679   4.193   1.162
43793W        W10202  14.549  41.448   4.597
43794W        W10203  19.278  20.150  13.816
43795W        W10204   6.813  21.386   2.753
43796W        W10205   2.278   6.300  14.365
43797W        W10206  16.229  14.072   3.718
43798W        W10207  37.954  15.871  10.840
43799W        W10208  23.777  15.183   1.960
43800W        W10209  20.648   9.117  11.715
43801W        W10210   9.828  40.798   0.450
43802W        W10211  26.613  22.109   0.799
43803W        W10212  41.490  41.792   2.034
43804W        W10213  36.856  18.983   4.570
43805W        W10214  26.015  15.884  12.095
43806W        W10215  41.467  16.648  14.529
43807W        W10216  35.314  36.116  12.655
43808W        W10217  19.687  39.524   2.104
43809W        W10218  19.688  42.191   2.335
43810W        W10219  11.308  12.729   0.966
43811W        W10220  26.190  17.648   3.701
43812W        W10221  17.192   2.831   1.233
43813W        W10222  42.570  33.285   1.360
43814W        W10223  34.569  33.921  12.371
43815W        W10224  20.831  12.335  11.115
43816W        W10225  36.461   0.579  11.473
43817W        W10226   3.138   1.162  11.284
43818W        W10227  35.346  17.078  12.119
43819W        W10228  20.798   7.366  11.203
43820W        W10229  35.232  34.445   3.604
43821W        W10230  22.406  16.107   0.793
43822W        W10231  39.033  38.608   3.273
43823W        W10232  15.157  18.374  14.274
43824W        W10233  32.165  34.934   1.242
43825W        W10234  13.680   5.820  12.918
43826W        W10235   1.698  40.520  14.405
43827W        W10236  35.041  29.930   1.836
43828W        W10237  23.346  24.611   1.282
43829W        W10238   1.468  37.450   2.299
43830W        W10239  26.968  18.639  12.922
43831W        W10240   5.677  14.049  13.433
43832W        W10241  36.152  24.694   2.534
43833W        W10242  18.808   4.258   1.293
43834W        W10243  15.322  37.043  13.496
43835W        W10244  10.047  20.502  14.863
43836W        W10245  34.442  36.622  12.697
43837W        W10246   6.165  33.481  12.939
43838W        W10247  11.402  38.957   1.832
43839W        W10248   7.620  16.495  10.200
43840W        W10249   0.018  30.147  13.060
43841W        W10250  36.755  17.742  13.303
43842W        W10251  10.320  10.421  14.846
43843W        W10252   5.839   6.239   0.335
43844W        W10253  24.469  20.503   2.470
43845W        W10254  17.623  17.837   4.496
43846W        W10255  32.646   9.648   1.868
43847W        W10256  11.352  21.668  10.479
43848W        W10257   1.303  15.746  13.936
43849W        W10258  12.311  21.247  14.162
43850W        W10259   5.823  33.610   0.961
43851W        W10260   7.123  11.812   2.128
43852W        W10261  37.282  18.474  14.025
43853W        W10262   7.831  24.730  14.454
43854W        W10263  15.171  31.343  11.012
43855W        W10264  32.420   4.433  12.197
43856W        W10265   7.458  14.161  14.841
43857W        W10266  13.540  24.868   2.725
43858W        W10267  12.815   6.306   3.733
43859W        W10268  20.201  32.334   1.236
43860W        W10269  31.041   4.400   2.345
43861W        W10270  29.136  43.933   3.613
43862W        W10271   0.897  35.509  14.929
43863W        W10272   1.276  25.798   4.685
43864W        W10273  43.360  20.711   2.151
43865W        W10274  30.615  42.247   3.658
43866W        W10275  43.247  16.529  14.908
43867W        W10276   3.443   9.812  11.715
43868W        W10277  39.306  20.528   0.294
43869W        W10278  13.403  26.421   4.694
43870W        W10279   0.986  19.636  12.991
43871W        W10280  21.561   9.818   4.077
43872W        W10281  44.263   6.793  10.743
43873W        W10282  30.558   1.490   3.200
43874W        W10283  37.859   4.006  12.821
43875W        W10284   1.521  24.228   3.691
43876W        W10285  23.742  40.874  13.456
43877W        W10286  40.460  15.241   4.293
43878W        W10287  13.599  14.104  14.154
43879W        W10288  10.850  27.038   1.156
43880W        W10289  23.132  12.305  11.961
43881W        W10290  29.753  18.750  14.794
43882W        W10291  35.509  33.083  13.867
43883W        W10292  20.766   6.194   3.808
43884W        W10293  31.685  36.067  11.809
43885W        W10294  21.908  18.145  10.790
43886W        W10295  11.713  30.188   3.213
43887W        W10296  42.304   3.007  13.531
43888W        W10297  40.612  36.024  13.853
43889W        W10298  12.005   1.709   0.269
43890W        W10299   0.785  16.590   4.578
43891W        W10300  31.433  17.670  11.920
43892W        W10301   5.508  43.024   1.954
43893W        W10302  40.606  33.754   2.675
43894W        W10303  17.339  30.080   4.690
43895W        W10304  30.547  20.334  12.846
43896W        W10305  31.531  26.008   4.192
43897W        W10306  28.584  28.352   3.132
43898W        W10307  15.131  16.340  11.902
43899W        W10308  25.250  21.904  12.124
43900W        W10309  33.643  42.319   0.513
43901W        W10310   6.459  34.862   0.002
43902W        W10311  23.723  20.879  10.208
43903W        W10312  44.038  43.396  12.624
43904W        W10313  36.025  19.640   1.008
43905W        W10314  14.169  35.367   1.418
43906W        W10315  32.506  44.802   1.722
43907W        W10316  13.288   0.883  13.749
43908W        W10317  41.378  31.177  12.669
43909W        W10318  31.256  24.775   2.215
43910W        W10319   1.542   6.678  14.014
43911W        W10320   3.034  41.348   0.099
43912W        W10321  19.757   3.846  14.079
43913W        W10322   2.342  34.217  11.197
43914W        W10323  33.384  14.617   2.163
43915W        W10324  36.594  24.067   0.747
43916W        W10325   3.360  32.787   0.233
43917W        W10326   3.356  11.083  13.083
43918W        W10327  10.763  10.282  11.947
43919W        W10328   2.671  30.778   2.803
43920W        W10329  34.422  32.000   1.907
43921W        W10330  23.965  14.814  13.830
43922W        W10331  21.683   6.889  13.846
43923W        W10332   3.449  12.402  11.578
43924W        W10333   9.800  24.686  12.473
43925W        W10334  31.211  30.494  13.278
43926W        W10335  41.143  30.134   4.325
43927W        W10336  37.350  40.013   0.894
43928W        W10337   9.122   2.237   0.362
43929W        W10338  12.392  23.230  10.784
43930W        W10339  14.050  41.215   4.980
43931W        W10340  13.258   9.707  14.318
43932W        W10341   8.794  34.686  11.586
43933W        W10342  22.599  32.576   1.331
43934W        W10343  28.277  36.669  14.849
43935W        W10344  15.701  12.746   4.926
43936W        W10345  38.550   7.389  10.547
43937W        W10346  14.627  16.746   2.398
43938W        W10347   5.131  20.358  13.584
43939W        W10348   3.067  13.809  13.418
43940W        W10349   7.950  29.359   1.744
43941W        W10350   9.718   5.267   0.455
43942W        W10351  11.085   8.898  13.439
43943W        W10352  13.783  12.812   3.753
43944W        W10353  38.593  10.678   2.478
43945W        W10354  44.435  41.808   0.668
43946W        W10355  36.925  12.638  11.224
43947W        W10356  19.325   3.331  13.337
43948W        W10357  30.223  12.314   0.662
43949W        W10358  11.614  10.102  14.696
43950W        W10359  14.312  20.313   2.974
43951W        W10360  21.663  24.010   3.246
43952W        W10361  24.990  21.574  14.383
43953W        W10362   2.737   6.612  11.201
43954W        W10363  35.827  24.537  13.856
43955W        W10364   3.046   0.448   1.294
43956W        W10365  35.471  19.488   9.719
43957W        W10366  15.577   9.651   3.761
43958W        W10367  37.883  28.087  10.900
43959W        W10368  37.887   6.143   3.761
43960W        W10369  27.484  10.909  11.110
43961W        W10370  18.417   7.945  11.092
43962W        W10371  14.216  39.349   0.326
43963W        W10372  32.262  17.018  14.973
43964W        W10373   0.795   4.720   2.180
43965W        W10374  37.305  10.931  11.040
43966W        W10375   7.275   1.712   3.124
43967W        W10376  21.205  34.657  11.613
43968W        W10377   8.693  35.414  11.099
43969W        W10378  35.373  43.986  14.014
43970W        W10379  41.190  44.320  11.157
43971W        W10380   0.659   0.957  12.010
43972W        W10381  13.500  20.276  13.243
43973W        W10382  40.061  43.814  12.083
43974W        W10383  36.077   2.769  12.391
43975W        W10384   4.712  10.077   1.146
43976W        W10385  19.481  44.160  12.019
43977W        W10386  35.058  20.097   2.579
43978W        W10387   1.260  17.889  10.727
43979W        W10388  17.997  32.533   3.291
43980W        W10389  18.256  14.151   3.649
43981W        W10390   0.914  39.819  14.339
43982W        W10391  26.779  31.487  12.989
43983W        W10392  16.533   2.852  13.306
43984W        W10393  38.681  21.161  12.422
43985W        W10394  34.325  14.698   2.237
43986W        W10395  36.334  32.563   0.812
43987W        W10396  10.457  27.445   2.711
43988W        W10397  35.729  29.494   2.318
43989W        W10398  27.187  17.761   3.743
43990W        W10399  38.925  17.890  11.615
43991W        W10400  13.138  14.312   1.300
43992W        W10401   5.879  19.100   2.803
43993W        W10402   9.105  22.119   0.251
43994W        W10403  10.760  41.445  12.293
43995W        W10404   9.626  35.520  13.484
43996W        W10405  25.757  40.321   1.120
43997W        W10406  11.091  42.743  14.323
43998W        W10407  32.547  37.835  12.542
43999W        W10408  34.660  30.560  13.846
44000W        W10409  12.414  31.822  14.431
44001W        W10410  29.620  20.865  14.215
44002W        W10411  25.050  29.225  12.463
44003W        W10412  17.607  28.846  13.400
44004W        W10413  31.832  21.702  13.936
44005W        W10414   9.645  21.261  10.938
44006W        W10415  33.903  13.893  12.123
44007W        W10416  39.230   0.816   4.207
44008W        W10417  25.039  33.936  12.189
44009W        W10418   7.445  23.124   0.338
44010W        W10419  33.153   3.051   0.210
44011W        W10420  17.203  20.316   3.353
44012W        W10421  29.670   8.689  12.051
44013W        W10422   6.374  38.345   0.502
44014W        W10423   1.198  43.733   3.205
44015W        W10424  24.022  12.856  10.819
44016W        W10425  18.975   7.891   0.749
44017W        W10426   5.251  22.067   2.779
44018W        W10427   7.384  39.846   4.148
44019W        W10428   5.883  33.487  14.916
44020W        W10429  38.981  29.160   2.335
44021W        W10430  28.344   3.994   1.372
44022W        W10431  26.586  39.512   0.976
44023W        W10432  13.385  36.819   5.597
44024W        W10433  12.203  40.926  11.592
44025W        W10434  30.822  21.252  10.699
44026W        W10435  11.430  44.043   3.617
44027W        W10436  30.550   0.508  10.706
44028W        W10437  15.744  27.426  14.783
44029W        W10438  43.418  23.442   1.187
44030W        W10439  37.004  19.045   3.214
44031W        W10440   7.667   0.449  14.446
44032W        W10441  10.624  40.525  11.838
44033W        W10442  33.476  41.791  11.859
44034W        W10443   2.775  23.537  13.714
44035W        W10444  40.558   0.133   0.458
44036W        W10445  17.721  28.138   3.309
44037W        W10446  39.886  31.155   0.779
44038W        W10447   8.178   0.023   0.525
44039W        W10448  37.912  32.888   1.695
44040W        W10449   4.509   5.312  11.050
44041W        W10450   8.843  18.697  10.716
44042W        W10451  35.664  36.828   3.302
44043W        W10452  42.039  37.398   4.959
44044W        W10453  34.601  43.827   3.498
44045W        W10454  27.729  13.662   2.654
44046W        W10455  13.227   4.175  12.818
44047W        W10456  11.692   2.052  14.918
44048W        W10457  41.330   1.403   0.397
44049W        W10458  39.148   6.461  12.073
44050W        W10459  10.309   9.223  10.659
44051W        W10460  23.521  39.497  11.245
44052W        W10461  10.288  18.717  14.183
44053W        W10462   2.852  19.515  13.145
44054W        W10463  39.298   4.967  11.609
44055W        W10464  27.113  33.600  14.368
44056W        W10465   7.680  43.478   1.873
44057W        W10466   3.128  21.822   4.206
44058W        W10467  24.681  18.440   0.179
44059W        W10468   6.464  12.165  14.354
44060W        W10469  32.939  12.290   4.500
44061W        W10470  17.265  23.074   3.083
44062W        W10471  17.953  39.452  13.064
44063W        W10472  36.088   6.227  11.799
44064W        W10473  33.878  13.985  11.213
44065W        W10474   4.437   4.835   3.643
44066W        W10475  17.284  42.456  11.083
44067W        W10476  42.882  43.369  10.751
44068W        W10477  28.425  13.772   0.916
44069W        W10478  43.341  41.921  13.491
44070W        W10479  29.169  17.820  13.537
44071W        W10480   5.863  27.184   0.904
44072W        W10481  14.488  15.459   0.445
44073W        W10482  37.898  19.743  13.821
44074W        W10483  38.813  32.457  13.855
44075W        W10484   0.174  17.683   2.175
44076W        W10485  40.915  32.588   4.022
44077W        W10486   4.382  42.444   4.583
44078W        W10487  25.594   9.743  11.126
44079W        W10488  37.501  42.286   2.811
44080W        W10489  35.740   1.100  11.989
44081W        W10490   1.390   7.106   1.288
44082W        W10491  21.082  32.710   0.800
44083W        W10492   9.642  26.673   0.014
44084W        W10493  21.031  19.385   3.175
44085W        W10494  16.238  26.563  13.623
44086W        W10495  32.981  40.427  14.852
44087W        W10496   4.993   3.296   4.582
44088W        W10497  40.180  33.639  12.609
44089W        W10498  22.265  26.435  10.437
44090W        W10499  40.490  30.411   3.156
44091W        W10500  38.312   2.342  11.458
44092W        W10501  29.959  30.871   0.362
44093W        W10502   3.908   5.672   2.806
44094W        W10503  16.808  28.182  14.039
44095W        W10504  14.694  22.654   1.353
44096W        W10505   0.256  23.428  11.587
44097W        W10506  33.916  13.963   3.371
44098W        W10507  26.455  18.333  13.586
44099W        W10508  35.087  10.118  13.545
44100W        W10509   7.247  21.733  10.612
44101W        W10510  42.301  18.690   2.870
44102W        W10511   2.898  43.563   1.299
44103W        W10512  18.158  40.417  14.925
44104W        W10513   6.202   3.666   1.156
44105W        W10514  43.434  12.245   0.902
44106W        W10515  16.948  33.703  12.023
44107W        W10516  16.212   6.354   1.254
44108W        W10517  41.419  41.361   0.880
44109W        W10518  43.591   1.999  12.621
44110W        W10519  33.387  27.269  11.185
44111W        W10520  43.363   2.791   1.883
44112W        W10521  30.547  33.298   4.560
44113W        W10522  34.206  26.562  13.642
44114W        W10523  16.542  11.118  11.691
44115W        W10524   4.745  22.350   4.115
44116W        W10525   6.365  31.420  11.590
44117W        W10526  12.477  40.874   0.244
44118W        W10527  10.144  23.847   4.782
44119W        W10528  14.174  12.623  14.280
44120W        W10529  22.778  27.171   2.242
44121W        W10530   7.338  27.929  10.590
44122W        W10531  30.573  43.552   1.154
44123W        W10532  12.581  12.846  12.405
44124W        W10533  40.553  16.072   4.471
44125W        W10534  11.252   5.894   3.202
44126W        W10535  40.785  41.737  12.030
44127W        W10536   3.962  17.846   4.527
44128W        W10537  12.863   4.806   2.711
44129W        W10538  44.194  24.685  11.974
44130W        W10539  21.037  24.432  12.959
44131W        W10540  25.138  34.316   3.700
44132W        W10541   9.945   1.652  13.993
44133W        W10542  32.651  27.431  13.451
44134W        W10543  25.027  24.420  11.212
44135W        W10544   7.679  30.283  14.339
44136W        W10545  28.544   5.331   0.299
44137W        W10546  26.605   2.513  14.815
44138W        W10547  40.419  18.866   0.587
44139W        W10548   3.708  31.879   1.742
44140W        W10549   0.658  34.071  13.452
44141W        W10550  11.181  25.321  12.364
44142W        W10551   1.381   7.757  14.219
44143W        W10552  29.965   3.831   2.939
44144W        W10553  34.565   2.756  12.546
44145W        W10554  31.028  11.630  10.178
44146W        W10555  10.843  18.513  11.571
44147W        W10556  35.318  35.974  12.144
44148W        W10557   2.811  30.908  14.512
44149W        W10558  41.403   7.432   3.258
44150W        W10559  41.803   0.545   4.597
44151W        W10560  28.636  35.872   3.420
44152W        W10561  10.964   3.823  14.759
44153W        W10562  14.517  22.962   0.683
44154W        W10563   3.459  35.962  11.687
44155W        W10564  25.035  28.362  13.065
44156W        W10565  42.673   9.720   2.740
44157W        W10566  42.502  25.727   4.805
44158W        W10567  43.992  23.491  14.179
44159W        W10568   1.099   0.448   3.710
44160W        W10569  42.541  33.614  11.374
44161W        W10570  23.579  25.146  12.516
44162W        W10571  25.020  30.440   1.561
44163W        W10572  23.076   1.336   2.601
44164W        W10573  37.961  10.162   0.789
44165W        W10574   7.713  31.208   4.461
44166W        W10575  44.824  22.126   2.836
44167W        W10576  23.489  25.999   1.715
44168W        W10577   0.111  37.778   2.801
44169W        W10578  37.152  10.501  13.886
44170W        W10579   0.316  13.895  14.530
44171W        W10580  36.646  21.533  11.955
44172W        W10581  36.469  40.837   3.080
44173W        W10582  41.402   8.892   0.076
44174W        W10583  39.139  37.665  14.663
44175W        W10584  36.356   4.183   1.383
44176W        W10585  42.811  43.886  12.413
44177W        W10586  20.974  25.460   0.352
44178W        W10587  23.999  33.980  14.939
44179W        W10588  18.061  31.696   1.775
44180W        W10589   7.840  30.476  13.506
44181W        W10590   3.294  28.321  10.765
44182W        W10591  28.105   2.597  14.466
44183W        W10592  24.438  40.540   4.200
44184W        W10593   1.375  20.020  14.418
44185W        W10594  33.038  28.558  10.878
44186W        W10595  15.366  21.421   3.094
44187W        W10596  39.940   7.003   4.376
44188W        W10597  39.315   8.299   1.839
44189W        W10598  38.852  17.006  14.742
44190W        W10599  40.306  19.583  12.385
44191W        W10600  38.289  16.906   3.361
44192W        W10601  43.306  43.893  12.569
44193W        W10602  11.741   9.896  13.848
44194W        W10603  13.767  22.701  11.893
44195W        W10604  37.452   0.929  14.196
44196W        W10605  38.483  23.994  14.501
44197W        W10606  23.041   2.088   2.384
44198W        W10607  28.748  32.626  13.343
44199W        W10608  26.489  32.134   1.000
44200W        W10609  43.993  32.605  11.879
44201W        W10610  31.937  34.071   2.780
44202W        W10611  22.647  23.625   2.791
44203W        W10612  35.897  24.549  12.929
44204W        W10613  19.174  37.760   1.670
44205W        W10614  23.787  30.729   0.733
44206W        W10615  11.802  35.495  11.608
44207W        W10616   3.909  25.505   2.244
44208W        W10617   4.109  20.673   4.162
44209W        W10618  27.626  18.623   0.044
44210W        W10619  42.971   5.438   3.930
44211W        W10620  19.976  38.321   2.375
44212W        W10621  26.906  39.822  12.446
44213W        W10622  28.935  11.544   4.591
44214W        W10623  43.863   3.862   0.888
44215W        W10624  16.613   7.673  12.551
44216W        W10625  36.494  31.963   2.618
44217W        W10626  25.994  31.783  13.967
44218W        W10627  38.404  43.062  12.414
44219W        W10628  42.300  18.534  13.345
44220W        W10629  37.876  23.574   2.064
44221W        W10630  38.556   8.050   3.683
44222W        W10631  27.485  39.369   2.690
44223W        W10632   6.341   8.527   3.214
44224W        W10633  13.747  19.112   4.475
44225W        W10634  18.367  19.590  13.149
44226W        W10635  25.143  10.851  13.840
44227W        W10636  17.363  25.963   1.329
44228W        W10637  42.819  26.004  10.913
44229W        W10638   1.788  38.398   2.062
44230W        W10639   4.023  40.007  13.412
44231W        W10640   9.674  35.400   0.114
44232W        W10641  37.339  20.923   0.286
44233W        W10642  13.926  30.739   3.878
44234W        W10643   9.123  36.556   0.499
44235W        W10644  25.899  15.646  12.862
44236W        W10645  26.158   2.298   3.766
44237W        W10646  12.279  40.718  12.912
44238W        W10647  10.573  26.446   4.087
44239W        W10648  28.225  29.540  12.557
44240W        W10649  41.525  13.109   3.686
44241W        W10650   4.924   3.374  14.557
44242W        W10651  42.031  36.997  12.532
44243W        W10652  41.832  42.961   1.769
44244W        W10653  41.353  32.076  14.448
44245W        W10654   0.683  22.968   4.431
44246W        W10655  29.916  34.078  14.761
44247W        W10656  34.405  25.667   4.845
44248W        W10657   8.435  12.666   0.954
44249W        W10658  32.701   6.132   3.752
44250W        W10659  12.928   8.786  14.430
44251W        W10660  16.747   3.812  13.104
44252W        W10661  29.634  40.258   1.179
44253W        W10662  38.919  30.218   0.112
44254W        W10663  29.202  44.030   2.789
44255W        W10664  42.901   6.652   0.357
44256W        W10665   4.386  37.340   3.961
44257W        W10666  23.492  20.584   3.303
44258W        W10667   3.010  13.834   1.603
44259W        W10668  20.835   7.705  11.592
44260W        W10669   0.382  37.399   2.305
44261W        W10670  42.055  29.260   0.895
44262W        W10671   2.991  32.966  10.829
44263W        W10672   8.739  19.744  13.383
44264W        W10673  42.569   0.411  14.266
44265W        W10674  42.039   6.771   0.330
44266W        W10675   6.598  16.752   4.628
44267W        W10676   0.841  31.032   0.402
44268W        W10677   3.517  27.865   0.045
44269W        W10678   2.274  39.265   4.820
44270W        W10679  42.015   9.324  12.486
44271W        W10680  30.481  19.640   2.843
44272W        W10681  22.078  43.805   4.509
44273W        W10682  40.274  38.519  12.975
44274W        W10683  43.628  27.314   1.238
44275W        W10684  33.683  33.458   4.581
44276W        W10685  35.740  39.986   0.402
44277W        W10686  28.274  42.876   4.268
44278W        W10687  17.687  35.636   3.183
44279W        W10688   6.236   4.012  11.998
44280W        W10689   6.284  36.495  10.610
44281W        W10690  11.202  33.825  12.641
44282W        W10691   1.740   3.224  14.333
44283W        W10692   1.477   1.526  14.793
44284W        W10693  42.358  43.905  12.156
44285W        W10694  27.607  43.481  10.423
44286W        W10695   4.362  12.366  14.483
44287W        W10696  12.150  24.738   4.092
44288W        W10697   0.819  35.803  12.580
44289W        W10698  36.459   6.236  13.621
44290W        W10699  37.055  41.191  13.959
44291W        W10700  41.967  38.317  13.917
44292W        W10701  15.155  40.088   0.833
44293W        W10702  32.687   4.285   2.195
44294W        W10703  27.030  22.608   3.095
44295W        W10704  39.495  26.806   1.155
44296W        W10705  27.611  24.507  13.795
44297W        W10706   1.890  34.881  14.402
44298W        W10707  14.208   0.114  10.657
44299W        W10708  31.983  43.659  11.899
44300W        W10709  10.830   7.458   2.660
44301W        W10710  16.034  40.502  11.622
44302W        W10711  28.997  38.578  14.974
44303W        W10712   5.705  43.818  11.086
44304W        W10713  16.222  28.676  12.631
44305W        W10714  44.797  44.755  11.994
44306W        W10715   4.338  35.358   0.470
44307W        W10716  44.025  10.162   3.709
44308W        W10717  29.480   1.438  13.703
44309W        W10718  31.083  31.656  13.158
44310W        W10719   5.815   4.474  14.220
44311W        W10720   6.661  40.541   3.316
44312W        W10721   6.701   5.323  13.833
44313W        W10722  15.962  27.063   1.196
44314W        W10723  36.019  29.938  10.795
44315W        W10724  41.877  41.443  11.521
44316W        W10725   0.532  30.403   4.651
44317W        W10726  31.459  43.297   3.617
44318W        W10727   5.016  11.183   1.450
44319W        W10728   6.885   1.312   3.069
44320W        W10729  32.087  22.588   0.509
44321W        W10730  39.300  35.896  10.533
44322W        W10731  23.564  17.537   0.724
44323W        W10732  38.326  23.680  11.167
44324W        W10733  22.069  24.436   1.884
44325W        W10734  35.550  27.448  11.611
44326W        W10735  12.126  18.799  12.582
44327W        W10736  34.202  34.219  11.272
44328W        W10737  30.404  26.581  14.764
44329W        W10738  11.615  40.766  10.815
44330W        W10739  10.653  16.626  12.083
44331W        W10740  43.379  11.007  14.017
44332W        W10741  43.103  27.112  13.943
44333W        W10742   5.874  18.340   0.720
44334W        W10743  42.485  23.500  14.900
44335W        W10744  19.112  19.902   1.944
44336W        W10745   1.929  24.332   3.993
44337W        W10746  27.526   9.391   3.228
44338W        W10747   4.359  42.584   1.795
44339W        W10748  10.403  12.588   2.121
44340W        W10749  36.403  20.100   0.497
44341W        W10750  19.728  12.282  12.017
44342W        W10751  30.590  42.034   4.692
44343W        W10752  14.244  28.150   0.504
44344W        W10753  28.831  40.741  10.997
44345W        W10754  10.792  38.347  10.875
44346W        W10755  42.711  43.292   2.320
44347W        W10756  19.165  28.066  11.514
44348W        W10757  38.401  18.927  12.390
44349W        W10758   8.148  29.163   0.034
44350W        W10759  43.424  38.340   0.306
44351W        W10760  30.226  44.106  11.583
44352W        W10761  28.265  16.647  12.285
44353W        W10762  17.695  40.785   0.015
44354W        W10763  18.170   8.289  13.370
44355W        W10764  26.987  22.468  14.535
44356W        W10765  11.982   4.282  12.667
44357W        W10766  22.161   9.488   0.987
44358W        W10767   8.377  44.043   4.635
44359W        W10768   3.810   9.110  12.608
44360W        W10769   7.002  39.548  14.181
44361W        W10770  13.079   3.014   1.807
44362W        W10771  21.645   6.873  12.796
44363W        W10772   0.315  37.300   2.806
44364W        W10773  42.281  15.399  13.386
44365W        W10774  29.082  12.765  13.441
44366W        W10775   2.966  14.246   2.147
44367W        W10776  17.989  23.496   0.802
44368W        W10777  15.523  21.265   0.559
44369W        W10778   7.464  27.106  13.905
44370W        W10779  42.493  17.676   2.316
44371W        W10780  18.819  32.853  10.788
44372W        W10781  13.870  17.821   0.446
44373W        W10782  21.012  32.004  12.939
44374W        W10783   4.888  31.885   0.733
44375W        W10784  12.105  14.005   1.235
44376W        W10785  32.454  32.623   3.348
44377W        W10786   5.444  42.212   2.371
44378W        W10787   6.674  27.126  14.304
44379W        W10788  21.301   6.180   0.887
44380W        W10789  31.927  44.303   1.303
44381W        W10790   2.237  11.069  13.131
44382W        W10791  36.132  26.632   0.056
44383W        W10792  36.495  27.899  13.086
44384W        W10793  22.699  24.225  12.360
44385W        W10794   2.705  38.612   0.923
44386W        W10795   8.407  39.469  12.399
44387W        W10796   9.341  10.843  14.002
44388W        W10797  10.830  28.429  11.081
44389W        W10798  34.977   8.225  12.724
44390W        W10799  18.338  27.451   3.133
44391W        W10800   7.517   9.170   1.739
44392W        W10801  21.913   7.069   3.611
44393W        W10802   2.817   9.945   0.808
44394W        W10803  23.054   4.413  12.971
44395W        W10804  24.716  20.028   2.638
44396W        W10805  18.120  18.545   1.176
44397W        W10806  33.962  44.684  12.975
44398W        W10807  44.841   4.068  10.753
44399W        W10808  43.917  25.051   1.423
44400W        W10809  14.653  10.842   4.190
44401W        W10810  22.400   2.548   1.424
44402W        W10811  42.837  29.597   2.151
44403W        W10812  17.098  18.208  10.874
44404W        W10813  20.401  43.031  14.611
44405W        W10814  29.585  24.009   2.331
44406W        W10815  30.794   2.326   3.333
44407W        W10816  33.594  42.282  13.884
44408W        W10817  40.570   0.003   1.509
44409W        W10818  17.141  19.892   1.118
44410W        W10819  29.484  35.314  13.840
44411W        W10820  12.633  43.016  14.077
44412W        W10821  40.483   0.519   1.925
44413W        W10822  33.730  33.169  14.926
44414W        W10823   2.255  16.100  13.010
44415W        W10824  44.958   8.676   4.087
44416W        W10825  42.779  14.817  12.848
44417W        W10826  35.807  31.693  13.822
44418W        W10827   9.014  22.782  11.462
44419W        W10828  14.383   0.292   0.059
44420W        W10829  32.365  10.262   3.262
44421W        W10830   2.974  35.060   4.656
44422W        W10831  31.559   0.399   0.207
44423W        W10832  18.169  15.105   1.136
44424W        W10833  24.000   0.233  13.812
44425W        W10834  43.207  11.154  10.063
44426W        W10835   0.770  18.009  10.060
44427W        W10836  40.073  33.725  13.101
44428W        W10837   3.914  21.071  13.959
44429W        W10838  15.289  11.620   4.312
44430W        W10839  27.531  25.005  13.879
44431W        W10840  22.907  17.314   3.528
44432W        W10841   4.764   8.954  10.113
44433W        W10842   9.762  43.037  10.976
44434W        W10843   3.829  17.299  13.548
44435W        W10844  24.698  14.923  13.396
44436W        W10845  39.437   5.305  14.421
44437W        W10846   1.826  30.598   3.385
44438W        W10847  34.051  31.963  11.587
44439W        W10848   1.964   1.216   1.121
44440W        W10849  21.749   4.162   1.479
44441W        W10850  35.170  43.844   4.085
44442W        W10851  23.185  12.559  13.031
44443W        W10852  37.601  18.810   4.111
44444W        W10853  34.184  22.097  11.073
44445W        W10854  20.580  27.414   1.471
44446W        W10855  35.213  24.049   1.968
44447W        W10856  35.357   8.764   0.286
44448W        W10857   9.827  17.194   3.241
44449W        W10858  37.645  13.209  14.765
44450W        W10859   5.347  21.270  11.514
44451W        W10860  30.181   1.306   4.507
44452W        W10861  16.253  19.869  10.218
44453W        W10862   5.779  10.205   2.827
44454W        W10863  20.769  10.680   4.434
44455W        W10864   0.867   5.703   0.752
44456W        W10865  22.319   6.358   1.063
44457W        W10866  11.304  17.784  14.952
44458W        W10867  36.936  26.725  12.527
44459W        W10868  32.600  14.698  11.657
44460W        W10869   4.673  25.228  13.412
44461W        W10870  15.118  30.421  10.946
44462W        W10871  43.757  35.643   2.759
44463W        W10872  15.234  15.292   3.948
44464W        W10873  35.706  31.001   4.550
44465W        W10874   2.405  17.619  11.023
44466W        W10875  32.864  31.067  11.983
44467W        W10876  24.726  32.237   0.982
44468W        W10877   3.649  17.315   1.800
44469W        W10878  44.977   6.109  11.598
44470W        W10879  13.210   5.349  12.477
44471W        W10880   9.759  29.359  12.968
44472W        W10881  31.399  27.582   0.851
44473W        W10882  28.873  37.249   2.979
44474W        W10883  12.826  44.713  13.694
44475W        W10884  14.704   9.411  12.444
44476W        W10885  38.981   2.972  11.550
44477W        W10886  30.465  39.762   0.997
44478W        W10887   0.849  21.786  14.609
44479W        W10888  21.342  15.729  10.091
44480W        W10889  11.157  44.745   5.492
44481W        W10890  42.041  24.186  13.082
44482W        W10891  29.261  34.637  14.467
44483W        W10892  26.196   2.103  12.953
44484W        W10893  40.641  22.259  11.201
44485W        W10894   6.002   6.021  14.881
44486W        W10895  43.523   9.376  11.027
44487W        W10896   1.681   9.269   4.407
44488W        W10897  17.555  41.976  12.435
44489W        W10898   4.188  22.519   3.312
44490W        W10899  10.449  41.892  11.703
44491W        W10900  37.301   3.332   0.031
44492W        W10901  20.190   2.268   3.669
44493W        W10902   2.154  24.557   1.397
44494W        W10903   7.279  31.524  12.554
44495W        W10904  40.685  15.666  13.142
44496W        W10905  12.984   3.969  13.539
44497W        W10906  25.084  34.003  11.192
44498W        W10907  25.648  37.687  13.952
44499W        W10908  28.068  34.492   4.521
44500W        W10909  42.960  39.795  13.558
44501W        W10910  34.157  19.710  12.786
44502W        W10911   2.239  26.321   3.286
44503W        W10912  28.195  39.994   3.985
44504W        W10913  34.813   5.257   4.010
44505W        W10914  21.908   2.658   1.300
44506W        W10915  36.691   5.795  13.498
44507W        W10916  36.956   2.596   4.233
44508W        W10917  10.323   3.942  12.118
44509W        W10918  32.168  10.209   2.667
44510W        W10919  32.777  42.521   3.706
44511W        W10920  34.644  34.782  14.825
44512W        W10921   7.753  14.307   4.291
44513W        W10922  23.965  26.710   3.561
44514W        W10923  29.238   9.648  11.671
44515W        W10924  29.623  18.531  13.244
44516W        W10925  28.126  11.083  13.433
44517W        W10926  30.926  15.095  12.115
44518W        W10927   4.838  40.772  14.034
44519W        W10928  17.714  10.139  13.457
44520W        W10929  27.471  37.429   0.874
44521W        W10930  36.824   1.522  12.862
44522W        W10931  15.733   5.672   2.750
44523W        W10932  30.122  38.327   4.254
44524W        W10933  11.963   0.740  13.352
44525W        W10934  44.848  13.512  12.460
44526W        W10935  23.561  27.925  10.709
44527W        W10936   8.773  39.454  12.758
44528W        W10937  35.467  18.646  14.491
44529W        W10938  31.517  17.219  10.994
44530W        W10939  40.004  18.365  14.327
44531W        W10940  17.903  34.306  11.097
44532W        W10941  30.088  29.023  14.823
44533W        W10942   8.745   8.722  12.559
44534W        W10943  28.725  30.983  12.372
44535W        W10944  40.677  44.816  10.625
44536W        W10945  36.419   0.906  10.770
44537W        W10946  32.889   7.327   1.866
44538W        W10947  22.780  31.987   4.514
44539W        W10948   8.245  26.943   2.867
44540W        W10949   0.801  14.336   3.143
44541W        W10950  23.457  23.725  11.104
44542W        W10951  21.176  44.758   2.631
44543W        W10952  25.634   0.327  14.234
44544W        W10953  30.997  22.614   0.018
44545W        W10954  16.019   0.490  11.713
44546W        W10955   0.253   6.019  12.794
44547W        W10956  23.067  12.844  10.616
44548W        W10957  38.916  13.061  12.460
44549W        W10958  33.640  11.678  13.967
44550W        W10959  20.851  23.389   2.335
44551W        W10960  11.704  21.580   4.968
44552W        W10961  10.106  18.958   4.537
44553W        W10962   2.299  13.331   2.714
44554W        W10963  41.466  13.155   0.005
44555W        W10964  25.745  30.105   4.112
44556W        W10965  32.653   0.547  11.152
44557W        W10966   4.946  42.111   2.751
44558W        W10967  24.086  39.850   0.824
44559W        W10968  26.116  27.185  13.752
44560W        W10969   8.433  26.797  11.496
44561W        W10970  15.719   9.646  10.836
44562W        W10971  37.652  44.216   2.704
44563W        W10972   7.148  17.818   3.634
44564W        W10973  33.313  17.185  12.887
44565W        W10974   7.440  16.086   2.387
44566W        W10975  18.259  44.377  14.519
44567W        W10976   4.295  25.248   1.886
44568W        W10977  13.695  25.690  11.486
44569W        W10978  14.204   9.947  11.924
44570W        W10979  15.131  21.141  12.881
44571W        W10980  24.559  14.102  11.489
44572W        W10981  36.111   2.280   0.876
44573W        W10982  18.115  38.534   9.651
44574W        W10983   7.108   2.284  14.373
44575W        W10984  30.539   7.400  12.461
44576W        W10985   9.760  42.070   3.414
44577W        W10986  41.446  40.963  11.297
44578W        W10987  35.824  16.572  12.938
44579W        W10988   6.667  10.256  11.470
44580W        W10989  31.405   7.603  11.471
44581W        W10990  11.383  36.904   0.654
44582W        W10991  21.507   9.370   0.370
44583W        W10992  22.525  44.470   4.134
44584W        W10993  34.377  23.626  14.888
44585W        W10994  37.162  16.687   5.422
44586W        W10995  25.748  16.740  10.630
44587W        W10996  35.261  36.454   1.613
44588W        W10997  20.444   2.362   0.704
44589W        W10998   8.776  43.646  14.582
44590W        W10999  32.323  27.410   0.833
44591W        W11000   4.223   1.886  11.244
44592W        W11001   4.860  29.523   1.989
44593W        W11002  30.187  21.724   3.241
44594W        W11003  13.068  44.442   1.637
44595W        W11004   7.474   0.248   3.848
44596W        W11005  42.370  41.242   2.266
44597W        W11006  34.518  44.572   3.925
44598W        W11007  16.728  40.667   4.166
44599W        W11008  41.541   0.548  12.205
44600W        W11009   1.782  25.430   0.461
44601W        W11010  29.124  10.721  12.151
44602W        W11011   9.248  22.973  12.605
44603W        W11012  11.349  16.206   3.767
44604W        W11013  40.137  21.032  12.598
44605W        W11014  16.414  40.669  11.186
44606W        W11015  21.224  31.844   3.544
44607W        W11016   3.769  13.342  12.562
44608W        W11017  12.305  35.567  11.886
44609W        W11018  30.573  33.422  11.501
44610W        W11019  24.301  39.760   3.267
44611W        W11020  37.522  41.209  12.881
44612W        W11021  38.048  10.131  11.175
44613W        W11022  42.775  44.665   2.803
44614W        W11023  18.543  44.362   0.881
44615W        W11024  13.696  21.825  12.617
44616W        W11025  32.978  20.091   0.384
44617W        W11026   7.123  42.422   0.287
44618W        W11027  23.810  37.147   4.475
44619W        W11028  12.979  18.460  11.640
44620W        W11029  41.432   1.802   3.553
44621W        W11030  10.360  16.321   2.344
44622W        W11031  28.640  43.268   2.601
44623W        W11032  27.100  39.862   1.828
44624W        W11033  24.906  14.161   0.264
44625W        W11034   3.686   0.564  13.846
44626W        W11035  26.396   7.053   2.493
44627W        W11036  37.344  28.478   4.240
44628W        W11037  10.834  12.565   4.345
44629W        W11038  32.796  21.498   2.763
44630W        W11039   9.873   4.698  13.335
44631W        W11040  21.934  12.363   3.692
44632W        W11041  13.208  34.019   3.824
44633W        W11042   0.808  37.561  11.340
44634W        W11043  14.960  10.285  14.823
44635W        W11044   1.922  34.880   2.623
44636W        W11045  24.428   0.404  14.054
44637W        W11046   8.945  32.169   1.857
44638W        W11047  35.051  25.702   3.774
44639W        W11048  39.089  43.184  11.478
44640W        W11049  33.483   5.813  12.399
44641W        W11050  35.561  21.655   4.266
44642W        W11051  40.936  43.935  12.456
44643W        W11052  33.586  27.842  10.400
44644W        W11053  41.394  19.884   3.658
44645W        W11054  30.001  41.376  13.296
44646W        W11055   7.010  13.877   0.416
44647W        W11056  24.860  21.984  14.758
44648W        W11057   3.133  37.544   2.820
44649W        W11058  29.690  36.180   2.258
44650W        W11059  28.446  33.582   1.471
44651W        W11060  37.528  19.075  14.791
44652W        W11061  10.853  41.551  11.793
44653W        W11062  10.876  43.399  11.608
44654W        W11063   4.201  43.450   0.344
44655W        W11064  16.728  27.151  14.208
44656W        W11065  37.527  18.777  10.692
44657W        W11066   7.090   2.986   2.242
44658W        W11067   2.214  35.659  11.182
44659W        W11068   4.175  18.585  12.418
44660W        W11069   0.749  40.015  12.897
44661W        W11070  43.826  20.764   1.896
44662W        W11071  43.078  13.280  13.063
44663W        W11072  39.404  39.862   1.960
44664W        W11073   8.376  25.660  13.056
44665W        W11074  27.684   1.115   3.428
44666W        W11075  36.714   4.354  13.627
44667W        W11076   8.314   4.508  12.640
44668W        W11077  19.976  17.993   0.868
44669W        W11078   9.440   8.202  13.980
44670W        W11079  10.925  32.859   3.108
44671W        W11080  39.054  35.253  11.567
44672W        W11081   1.794  20.706  11.554
44673W        W11082  11.048   7.260  10.536
44674W        W11083  23.709  40.464  12.985
44675W        W11084  34.754  25.060  12.402
44676W        W11085  11.731  33.472   9.297
44677W        W11086  12.741  34.610  12.898
44678W        W11087  34.914  44.992   1.825
44679W        W11088  10.634   4.522  14.819
44680W        W11089  29.026  26.835  10.931
44681W        W11090  40.675  26.299   2.752
44682W        W11091  12.473  40.274  14.569
44683W        W11092  13.077  21.876  13.430
44684W        W11093  34.921  18.134   0.120
44685W        W11094  16.616  26.468  14.996
44686W        W11095  14.779   4.955  13.826
44687W        W11096  32.290  43.269  11.002
44688W        W11097  28.178  22.001   3.120
44689W        W11098  23.559   0.475  13.894
44690W        W11099  14.297  40.549  11.570
44691W        W11100  17.372  34.494   4.548
44692W        W11101   8.711   4.022   2.871
44693W        W11102  17.094  31.406  13.813
44694W        W11103  22.243  19.645  14.394
44695W        W11104   3.402   2.784   0.840
44696W        W11105   5.898   3.104  12.089
44697W        W11106  25.020  12.294   3.772
44698W        W11107  15.835  43.077  14.353
44699W        W11108  29.546  42.221   1.864
44700W        W11109  10.369  12.171  14.366
44701W        W11110   6.255  40.501  11.087
44702W        W11111  12.827  31.349   2.118
44703W        W11112  24.447  10.177   2.822
44704W        W11113  40.789  42.965  12.874
44705W        W11114  23.934   5.816  14.577
44706W        W11115   0.322  44.407   4.590
44707W        W11116  40.420  14.222  10.737
44708W        W11117  23.125  43.913   1.362
44709W        W11118  41.310  36.347  13.468
44710W        W11119   5.928   8.245   3.103
44711W        W11120  40.064  30.451  14.020
44712W        W11121  42.636  22.673  11.438
44713W        W11122  30.961  14.138   4.175
44714W        W11123  35.590  27.962  11.610
44715W        W11124   5.019   9.248  14.830
44716W        W11125  41.560  19.591  14.277
44717W        W11126  16.698  18.077  12.867
44718W        W11127  37.517  36.608   4.145
44719W        W11128   6.344  33.673  12.486
44720W        W11129   2.701  22.017  10.729
44721W        W11130   8.904   1.695  10.620
44722W        W11131  30.186  28.157  11.137
44723W        W11132  12.083  43.142  13.095
44724W        W11133   5.751  35.459   4.282
44725W        W11134  20.002  32.629   2.655
44726W        W11135  17.549   7.872   1.808
44727W        W11136  28.928  13.297   0.399
44728W        W11137   7.781  27.129   5.100
44729W        W11138  23.678  10.309  10.434
44730W        W11139  31.023  35.428   0.530
44731W        W11140  18.190  42.812   0.742
44732W        W11141  41.874  33.370   2.349
44733W        W11142  20.085  22.259  14.595
44734W        W11143  38.679  27.479  14.408
44735W        W11144  42.351  44.697   2.331
44736W        W11145  12.568  32.807  13.438
44737W        W11146  26.000  42.372  14.672
44738W        W11147  38.103  22.972   2.975
44739W        W11148  18.814   7.232  14.478
44740W        W11149  30.196  38.656  13.314
44741W        W11150  25.059  17.827   3.164
44742W        W11151  17.988  30.517  11.703
44743W        W11152  12.353  11.603   2.397
44744W        W11153   8.405  15.218  13.366
44745W        W11154  36.974   2.420  11.542
44746W        W11155  19.687  10.144   1.693
44747W        W11156  36.487   2.713   4.419
44748W        W11157   3.383  27.944   3.690
44749W        W11158  10.131   9.568   0.310
44750W        W11159  11.125  29.177  13.071
44751W        W11160  19.702  32.636  11.940
44752W        W11161  21.314  30.124  12.626
44753W        W11162  23.695  39.094   2.765
44754W        W11163   9.947  30.798  12.480
44755W        W11164   0.371  17.316  10.743
44756W        W11165  24.673   1.228  14.393
44757W        W11166  23.183  44.706  12.531
44758W        W11167  14.698   3.633   9.579
44759W        W11168  44.675  13.881  12.768
44760W        W11169  31.013  33.643  13.674
44761W        W11170  38.639  33.838  13.845
44762W        W11171  42.386  28.556   4.261
44763W        W11172  36.266   6.681  12.059
44764W        W11173  35.325  37.743   1.430
44765W        W11174  39.730  20.332   3.660
44766W        W11175  35.977  33.220   2.711
44767W        W11176   4.481  43.859   0.127
44768W        W11177  24.541  40.988   3.208
44769W        W11178  34.366   9.232   3.702
44770W        W11179  11.810  33.999   2.129
44771W        W11180  10.461  25.099  14.367
44772W        W11181  37.353  34.030  13.472
44773W        W11182  14.324   5.666   0.355
44774W        W11183  44.967  43.361  11.882
44775W        W11184  12.391   2.679  14.418
44776W        W11185   8.133  17.686  12.484
44777W        W11186  31.501  11.612   2.473
44778W        W11187  31.472  38.590   1.278
44779W        W11188   2.192   2.890  12.481
44780W        W11189   4.347  24.993   0.085
44781W        W11190  43.234  29.113  12.597
44782W        W11191  26.448  33.725  13.666
44783W        W11192  34.075  37.148  13.934
44784W        W11193  40.244  24.073   4.300
44785W        W11194  37.850   8.966  14.894
44786W        W11195   1.952  24.781  10.772
44787W        W11196  11.985  34.490  10.736
44788W        W11197  29.952  21.022   2.724
44789W        W11198   3.042  22.012  11.700
44790W        W11199  41.530  23.350   4.525
44791W        W11200  28.711  24.773  10.437
44792W        W11201  30.065   9.942  10.408
44793W        W11202  38.783  31.729  11.187
44794W        W11203  43.289   0.492   4.877
44795W        W11204  34.927  26.699   2.166
44796W        W11205   0.506  14.069   4.156
44797W        W11206  40.247  14.158  13.453
44798W        W11207  24.250  21.230   2.677
44799W        W11208   0.817   1.708   1.396
44800W        W11209  37.862  16.188  14.109
44801W        W11210  31.654  32.317  13.429
44802W        W11211  18.256  11.589  14.334
44803W        W11212  32.606   7.688  14.208
44804W        W11213  35.895  15.553  12.945
44805W        W11214  34.896  19.644  10.825
44806W        W11215   9.812  33.870  14.857
44807W        W11216  30.155   7.372   0.383
44808W        W11217  33.612  35.951  13.039
44809W        W11218   0.516   4.445  11.153
44810W        W11219  13.994  32.703   1.864
44811W        W11220  27.606   7.619   0.905
44812W        W11221  39.801   4.901   0.687
44813W        W11222  39.982   8.752   0.474
44814W        W11223  36.582   5.854   4.538
44815W        W11224  27.421  41.030  11.100
44816W        W11225  21.025   3.849  10.849
44817W        W11226  29.942  16.683   4.123
44818W        W11227  39.006   7.631   2.781
44819W        W11228   3.083  16.644  13.200
44820W        W11229  18.794   9.757   1.728
44821W        W11230  17.735  30.375  13.366
44822W        W11231  36.380  17.497  10.233
44823W        W11232  17.617  44.908   1.657
44824W        W11233  22.379  37.364   1.981
44825W        W11234   8.658  41.029  13.909
44826W        W11235  36.379  31.487   2.378
44827W        W11236  42.134   1.133   5.253
44828W        W11237  11.784   8.968   4.074
44829W        W11238  29.877  36.806  12.889
44830W        W11239  25.189  20.747   4.087
44831W        W11240   8.276  35.596  14.704
44832W        W11241  20.957  13.194   0.341
44833W        W11242   2.422  39.106  11.579
44834W        W11243  38.938  32.071   1.336
44835W        W11244  32.590  16.962   4.991
44836W        W11245  20.794  34.866   3.246
44837W        W11246  41.838  39.460   4.198
44838W        W11247  29.498   3.511  10.787
44839W        W11248  23.813  23.024   2.177
44840W        W11249   0.197   0.363   1.450
44841W        W11250   5.671  43.896   1.306
44842W        W11251  35.366  11.079  14.513
44843W        W11252  34.646  22.363   3.597
44844W        W11253   1.705  43.080   4.255
44845W        W11254  27.128  24.411  14.296
44846W        W11255  22.423  37.468   3.338
44847W        W11256  20.219  36.138   1.313
44848W        W11257  13.781  22.287   1.771
44849W        W11258  37.962  29.827  14.640
44850W        W11259  25.251  39.313   3.414
44851W        W11260  13.880   8.433  13.527
44852W        W11261  10.286  19.125   3.565
44853W        W11262   0.171  36.478  12.085
44854W        W11263  42.976  25.700   4.593
44855W        W11264  31.489   0.676  13.898
44856W        W11265  32.208  31.011  14.804
44857W        W11266  21.064  36.528   3.154
44858W        W11267  30.645   6.889  12.408
44859W        W11268  10.318  10.771  10.598
44860W        W11269  38.442   6.809  10.823
44861W        W11270  31.502  35.055  12.950
44862W        W11271   3.422  37.701   2.410
44863W        W11272  10.257  14.007   5.032
44864W        W11273  44.716   7.520   3.660
44865W        W11274  18.641  36.935  12.271
44866W        W11275  26.657  38.412  12.477
44867W        W11276  14.305   6.557   4.222
44868W        W11277  24.493  13.312   0.340
44869W        W11278  40.868  38.843   0.384
44870W        W11279  27.677  16.131  12.871
44871W        W11280  26.200  25.833  10.678
44872W        W11281  29.129  34.349   2.239
44873W        W11282   1.449  32.596   4.108
44874W        W11283   0.550  25.963   2.911
44875W        W11284  37.853  23.991   2.366
44876W        W11285  28.097  28.618   4.800
44877W        W11286  24.131  25.232  13.956
44878W        W11287  21.263   7.990  11.482
44879W        W11288  29.869  28.455  10.853
44880W        W11289   9.354  27.552  12.012
44881W        W11290  19.714  21.689   0.967
44882W        W11291  37.681  39.784   3.649
44883W        W11292  44.047  23.758  12.376
44884W        W11293  26.574  28.793   2.641
44885W        W11294  22.409   6.275   0.159
44886W        W11295   7.066  25.280  11.508
44887W        W11296   3.717  20.250   0.056
44888W        W11297  14.901   5.851  13.852
44889W        W11298  28.253  25.188   4.130
44890W        W11299  12.863   6.791  13.503
44891W        W11300  32.942   2.632  12.136
44892W        W11301  39.187  42.846   2.706
44893W        W11302  11.293  27.226  11.226
44894W        W11303   2.922  17.268  12.085
44895W        W11304  22.213   5.204  11.381
44896W        W11305  36.413  40.022  11.447
44897W        W11306  25.440  37.611  10.494
44898W        W11307  19.181  43.570   1.488
44899W        W11308  26.132  29.142   3.809
44900W        W11309   9.926   8.689  14.407
44901W        W11310   9.563  11.232  10.798
44902W        W11311  19.956  41.861  13.381
44903W        W11312   1.694  34.560  12.144
44904W        W11313  39.785  36.131  10.688
44905W        W11314   1.444   1.990  14.539
44906W        W11315  10.110   0.713  13.545
44907W        W11316  28.253   9.926   2.660
44908W        W11317  29.293  16.169  12.074
44909W        W11318  40.648  27.870  12.637
44910W        W11319  39.860  44.681  10.587
44911W        W11320  16.033   8.337  12.395
44912W        W11321   0.270  14.298   1.255
44913W        W11322  39.457  15.504  10.120
44914W        W11323  34.693  11.222  11.856
44915W        W11324  10.651  34.399  11.518
44916W        W11325  19.150  26.604   0.666
44917W        W11326   5.936   5.303  11.176
44918W        W11327  15.603  12.275   3.194
44919W        W11328  18.793  30.893   0.385
44920W        W11329   1.374  11.719  14.263
44921W        W11330   9.441  43.928   1.392
44922W        W11331   4.698  38.478  13.847
44923W        W11332  13.022  13.297   3.768
44924W        W11333  23.762  28.407   0.258
44925W        W11334   2.486  38.389  13.634
44926W        W11335  12.193  15.531  12.693
44927W        W11336   2.463  44.054   2.982
44928W        W11337  10.264   0.012   4.068
44929W        W11338  13.388  21.542  11.612
44930W        W11339  11.610  21.237   2.587
44931W        W11340  35.437  32.898   4.151
44932W        W11341  30.009  24.152   4.386
44933W        W11342   5.388  18.774   0.882
44934W        W11343   9.745   6.704   0.647
44935W        W11344  43.423  24.913  10.439
44936W        W11345  21.038  20.204  12.371
44937W        W11346   8.433   5.810  12.911
44938W        W11347   1.422  36.306  14.061
44939W        W11348  27.745  25.183   3.945
44940W        W11349  13.127  37.272   2.449
44941W        W11350  20.684  35.404  12.593
44942W        W11351   5.705  42.189   1.183
44943W        W11352  15.207   1.246  12.771
44944W        W11353  26.378  17.230   2.748
44945W        W11354   4.959   7.886   2.107
44946W        W11355  20.026  25.513   2.007
44947W        W11356  11.409  22.549   3.224
44948W        W11357  12.142   5.120  12.668
44949W        W11358  26.994  33.393  10.082
44950W        W11359  30.595  32.866  13.546
44951W        W11360  29.643  22.540  12.000
44952W        W11361  29.874  11.250  10.122
44953W        W11362  36.068  11.589   3.753
44954W        W11363  12.098  30.351  12.843
44955W        W11364  36.641  40.150   3.642
44956W        W11365  37.481  12.101   2.303
44957W        W11366  36.077  37.013   4.406
44958W        W11367   9.432   0.767   0.373
44959W        W11368  13.465  17.997   3.310
44960W        W11369  22.753  43.129   0.859
44961W        W11370  16.510  25.972   1.788
44962W        W11371   5.464  29.320  11.584
44963W        W11372  19.324   0.662   3.596
44964W        W11373   9.217  16.255  13.138
44965W        W11374  10.368  23.952  13.295
44966W        W11375  44.479  27.086   3.966
44967W        W11376  39.910  37.956   1.797
44968W        W11377  14.485  42.901  13.846
44969W        W11378  32.620   2.694   2.324
44970W        W11379  42.435   0.269  12.394
44971W        W11380   4.962   3.323  12.421
44972W        W11381  35.974   5.362  10.703
44973W        W11382  20.036   1.697   0.989
44974W        W11383  21.142  10.140   1.850
44975W        W11384  33.158  37.050  10.775
44976W        W11385  36.884   6.048  12.455
44977W        W11386  25.649   6.674  12.521
44978W        W11387   2.346  32.413  10.911
44979W        W11388  43.723  43.263  13.042
44980W        W11389  34.450  28.231   4.956
44981W        W11390  16.081  35.861  12.243
44982W        W11391  26.748   7.786   2.092
44983W        W11392  11.223   7.697   3.732
44984W        W11393  39.755  34.560   4.728
44985W        W11394  24.185  14.785  14.689
44986W        W11395  11.682  44.561  14.899
44987W        W11396  30.646  40.065   0.046
44988W        W11397  24.434  24.932   4.518
44989W        W11398   2.978   7.269  13.531
44990W        W11399  21.592  39.160  14.537
44991W        W11400  35.603   3.026  13.796
44992W        W11401   8.209  15.126   1.256
44993W        W11402   6.289  27.231  11.052
44994W        W11403  24.184  30.312  10.270
44995W        W11404  43.107  26.028   4.019
44996W        W11405  30.637   1.413  12.949
44997W        W11406  14.269  16.536   0.423
44998W        W11407  30.893  42.942  12.494
44999W        W11408  23.710  36.208   2.206
45000W        W11409  36.482   1.286  14.721
45001W        W11410  42.342  13.392  14.409
45002W        W11411  25.291   5.078  12.917
45003W        W11412  34.340  30.954  13.731
45004W        W11413  40.364   9.180   3.182
45005W        W11414  15.075  13.907   2.929
45006W        W11415  20.031  40.536   1.279
45007W        W11416  10.347   4.905   1.869
45008W        W11417   2.509  12.265   0.823
45009W        W11418  40.917   8.328  14.955
45010W        W11419   0.364   1.200   1.142
45011W        W11420   1.468   7.920  12.761
45012W        W11421  37.949  20.325  13.021
45013W        W11422   2.262  27.920   2.387
45014W        W11423  40.469   9.142   2.339
45015W        W11424  35.002  43.066  13.996
45016W        W11425  44.921  40.051  11.996
45017W        W11426   6.441  41.996   1.881
45018W        W11427  32.579   0.587  14.300
45019W        W11428  30.543  21.776  11.539
45020W        W11429  34.078  14.508  12.995
45021W        W11430  37.443   3.850  10.606
45022W        W11431  43.945   3.304   3.690
45023W        W11432  43.290  28.058  14.295
45024W        W11433  43.350  37.507   3.168
45025W        W11434  34.353   3.842   4.105
45026W        W11435  14.825  25.125  11.525
45027W        W11436  18.988  13.505   0.880
45028W        W11437  34.806  19.443  14.613
45029W        W11438  30.421   9.398   1.488
45030W        W11439  41.214  43.969  13.947
45031W        W11440  32.545   3.091  13.379
45032W        W11441   3.384  39.750  12.647
45033W        W11442  30.076  36.307  12.012
45034W        W11443  11.279   8.098   2.321
45035W        W11444  22.723  44.967   2.264
45036W        W11445   3.244  34.919   3.815
45037W        W11446  31.692  36.394  13.276
45038W        W11447  26.137   2.238   0.427
45039W        W11448  16.172  17.260   1.759
45040W        W11449  28.422   3.241   2.693
45041W        W11450  39.596  40.118  14.524
45042W        W11451  41.425  35.455  13.551
45043W        W11452  13.197  14.488   9.706
45044W        W11453   8.333  38.836   3.229
45045W        W11454  40.539   3.316   0.932
45046W        W11455  19.622  30.410  14.576
45047W        W11456   0.370  42.305   1.846
45048W        W11457  11.510  24.227   1.174
45049W        W11458  11.148   8.733  14.639
45050W        W11459  39.605  20.056   2.830
45051W        W11460  31.489  19.248   2.323
45052W        W11461  30.403  22.036  12.868
45053W        W11462  25.691  26.526   0.486
45054W        W11463  16.642  25.441   1.805
45055W        W11464  30.805  20.067  13.848
45056W        W11465  39.390   4.172   1.232
45057W        W11466  35.031  29.159   3.681
45058W        W11467  43.820  34.421   3.294
45059W        W11468  36.449  29.725   0.399
45060W        W11469  29.081  29.929   4.150
45061W        W11470  18.466  30.416  14.263
45062W        W11471  19.080  37.858  14.465
45063W        W11472  36.056  35.119   2.789
45064W        W11473  23.028   1.503  12.696
45065W        W11474   8.346  23.281  12.937
45066W        W11475  16.280  23.779  14.162
45067W        W11476  39.991   7.369   0.234
45068W        W11477   1.809  42.393  14.296
45069W        W11478  13.933  42.834  10.893
45070W        W11479  41.383  40.498   4.566
45071W        W11480  19.126  33.975   1.698
45072W        W11481   9.358  31.595  13.478
45073W        W11482  16.179  44.996   1.091
45074W        W11483  15.183  16.958   0.303
45075W        W11484  32.423  12.689  10.419
45076W        W11485   8.691  36.563   3.322
45077W        W11486  29.465  37.842  10.375
45078W        W11487   4.894  28.522   0.489
45079W        W11488  22.017   1.017  11.529
45080W        W11489   2.507  21.997   3.709
45081W        W11490  24.029  27.686  10.624
45082W        W11491  35.467   0.794   0.904
45083W        W11492  44.431  17.741   3.382
45084W        W11493  17.064  21.099  11.986
45085W        W11494  15.832  26.475   4.887
45086W        W11495  10.091  20.566  11.912
45087W        W11496  14.614  14.649   3.583
45088W        W11497   2.402  30.725   4.583
45089W        W11498  36.564  43.047  12.085
45090W        W11499  23.018  15.018   3.315
45091W        W11500   9.241  34.430  11.642
45092W        W11501  38.882  32.589   3.080
45093W        W11502  10.721  10.752   2.791
45094W        W11503   1.498  21.422  12.312
45095W        W11504  30.955  23.234   3.686
45096W        W11505  27.208   2.970  12.539
45097W        W11506   2.907  29.657  13.109
45098W        W11507  36.428   3.547   4.094
45099W        W11508   0.796  37.103   3.646
45100W        W11509  35.328  20.937   4.914
45101W        W11510  24.768  40.609  14.415
45102W        W11511  28.782   8.155   0.792
45103W        W11512  28.853   4.021   1.878
45104W        W11513  24.878  30.283  12.532
45105W        W11514  33.624  11.547  11.971
45106W        W11515  44.239  43.967  12.191
45107W        W11516   0.349   8.859  11.645
45108W        W11517   8.167  19.139   4.139
45109W        W11518  41.448  13.147  13.586
45110W        W11519  32.027   3.880  13.754
45111W        W11520   6.639  40.746   4.703
45112W        W11521  22.492  17.233   1.300
45113W        W11522  34.206   0.051  14.890
45114W        W11523  20.085  40.233  12.010
45115W        W11524  37.779  40.483   2.326
45116W        W11525  28.133  13.569  10.877
45117W        W11526  11.355  44.680   4.228
45118W        W11527   9.140  13.005   1.252
45119W        W11528  12.733   1.166   0.587
45120W        W11529  24.712   3.124  11.570
45121W        W11530  44.336   9.973   0.354
45122W        W11531  26.418  18.587  12.957
45123W        W11532  40.235  25.574  12.762
45124W        W11533  11.721  42.970   1.007
45125W        W11534  26.021  43.250  12.890
45126W        W11535  23.667  10.792   2.362
45127W        W11536  32.329  20.794  12.860
45128W        W11537  36.000  18.123   0.328
45129W        W11538  34.832  14.227  11.473
45130W        W11539  33.064  43.686  11.044
45131W        W11540  31.583  22.723  12.633
45132W        W11541  15.601   3.433  10.060
45133W        W11542   0.611  29.667   0.262
45134W        W11543   3.000   2.773   2.908
45135W        W11544  23.554  17.052   4.763
45136W        W11545  11.857  31.967   3.581
45137W        W11546  16.210  27.616  11.415
45138W        W11547   0.264  11.541   3.892
45139W        W11548   2.283  36.579  12.542
45140W        W11549  37.287  16.869  13.928
45141W        W11550  22.120  34.620  14.056
45142W        W11551   3.161  17.559   1.142
45143W        W11552  43.869  23.615   1.030
45144W        W11553   3.020  10.004  12.477
45145W        W11554  40.480  14.812  13.751
45146W        W11555  30.059  28.592   1.794
45147W        W11556  19.573  12.663   3.188
45148W        W11557   7.237  30.455   3.279
45149W        W11558  37.374  33.486   0.642
45150W        W11559  44.986  36.609   0.418
45151W        W11560  10.375  17.626   1.839
45152W        W11561   6.263  14.315   2.844
45153W        W11562   6.774   7.641  14.502
45154W        W11563  28.122   1.700   4.052
45155W        W11564  28.391   8.257  12.119
45156W        W11565  22.074  39.372  14.452
45157W        W11566  17.695  40.789   1.023
45158W        W11567   0.925  10.093   1.850
45159W        W11568  38.933  24.548  10.567
45160W        W11569   2.775  43.865   0.267
45161W        W11570   3.855  29.166   3.298
45162W        W11571  10.758  12.877   2.412
45163W        W11572  27.945   6.324   2.848
45164W        W11573  33.607  41.971   2.681
45165W        W11574  39.211  18.213  10.151
45166W        W11575  40.644  14.187  11.190
45167W        W11576   0.719   3.951   0.323
45168W        W11577  39.430  23.257   1.914
45169W        W11578   0.818  34.478   2.187
45170W        W11579  27.174  18.782   0.960
45171W        W11580  15.727  35.956  11.211
45172W        W11581  27.134   5.501  12.898
45173W        W11582  21.448   7.232  12.444
45174W        W11583  40.465  34.142   0.890
45175W        W11584  44.319  27.608  13.090
45176W        W11585  37.484   3.909   3.203
45177W        W11586  41.547  27.047  12.487
45178W        W11587  35.495   8.996   1.712
45179W        W11588  42.885  35.308  11.100
45180W        W11589  35.931  33.305   4.592
45181W        W11590  18.022  37.576  11.412
45182W        W11591  20.023   0.242   0.362
45183W        W11592  19.080  31.477  12.967
45184W        W11593  23.218  30.859  13.451
45185W        W11594  11.219  37.178   9.880
45186W        W11595   2.437   7.754  10.515
45187W        W11596  24.242  34.807   1.631
45188W        W11597  22.184  10.092   3.738
45189W        W11598  22.328  23.079   2.449
45190W        W11599  18.565  10.110   4.303
45191W        W11600  38.910  21.319   0.024
45192W        W11601  14.062  40.822   4.170
45193W        W11602  18.326  11.811   1.804
45194W        W11603  25.231   6.741   4.045
45195W        W11604  26.329  10.551  12.510
45196W        W11605   9.113  24.279   1.348
45197W        W11606  32.895  32.141  14.578
45198W        W11607  40.213  12.331  12.044
45199W        W11608   3.713  43.749   0.387
45200W        W11609  34.727  44.018  11.908
45201W        W11610  16.302   1.987  12.517
45202W        W11611  36.912   8.920   0.238
45203W        W11612   8.712   8.331  11.637
45204W        W11613  20.053   9.920   4.289
45205W        W11614  41.901  44.856   2.564
45206W        W11615  40.044  25.046   1.127
45207W        W11616  34.318  21.561   3.657
45208W        W11617  40.493   4.820   0.741
45209W        W11618  15.511   4.464  12.445
45210W        W11619  28.885  34.925  12.422
45211W        W11620   8.192   3.524   1.224
45212W        W11621  11.372   5.404  14.825
45213W        W11622  28.997  32.858  12.570
45214W        W11623  44.523  17.172   5.029
45215W        W11624  20.611  31.642   0.355
45216W        W11625  31.627  31.613  11.726
45217W        W11626  18.820  20.643  13.233
45218W        W11627  17.440  43.738  10.664
45219W        W11628  19.853  36.823  13.919
45220W        W11629   6.698   9.154  12.869
45221W        W11630  24.420  11.895   3.350
45222W        W11631  34.716  32.590  12.695
45223W        W11632  41.947  17.170  13.925
45224W        W11633   7.195  31.615   1.813
45225W        W11634   2.807   6.189  13.043
45226W        W11635   9.354  23.996   0.365
45227W        W11636  31.014  33.046   3.287
45228W        W11637  30.657   4.398  12.352
45229W        W11638   8.435   7.651  13.862
45230W        W11639  14.646  43.709  14.518
45231W        W11640  12.678  28.095  12.496
45232W        W11641  33.923  14.772   0.902
45233W        W11642  40.132   8.377   3.778
45234W        W11643  18.058  25.916   0.745
45235W        W11644  16.046  42.518  11.187
45236W        W11645   7.737  17.082  11.164
45237W        W11646   7.090   5.735  10.597
45238W        W11647   4.368  37.016  11.603
45239W        W11648  28.270  41.504   2.813
45240W        W11649   3.064  12.829  12.430
45241W        W11650  19.168  30.019   3.958
45242W        W11651  10.584  42.841  12.392
45243W        W11652  28.080  38.240  11.614
45244W        W11653  12.453  25.459   0.932
45245W        W11654  24.580  11.840  12.366
45246W        W11655   0.655   4.061  14.287
45247W        W11656  15.888  14.246   2.666
45248W        W11657   2.362   8.962   1.451
45249W        W11658  37.815  15.739  10.367
45250W        W11659  20.301   4.909   0.503
45251W        W11660  42.285  37.133  12.978
45252W        W11661   7.536  29.837   2.514
45253W        W11662  27.891   6.047  11.024
45254W        W11663  10.824  15.143  13.987
45255W        W11664  27.743  10.788   2.829
45256W        W11665   8.124  20.228  14.370
45257W        W11666  33.991  39.058  11.635
45258W        W11667  43.881   8.126   0.442
45259W        W11668  24.616  28.179  14.267
45260W        W11669  33.904  41.285  12.507
45261W        W11670   2.763  17.093   4.234
45262W        W11671  42.372  17.109  11.974
45263W        W11672  29.256  30.456  11.659
45264W        W11673  19.383   0.255   1.910
45265W        W11674  20.334  29.924  14.421
45266W        W11675  40.355  40.332  10.685
45267W        W11676  18.168  13.860  11.641
45268W        W11677  28.150  14.255   4.096
45269W        W11678   8.321   0.575   3.624
45270W        W11679  25.527  15.402   1.317
45271W        W11680   3.361  14.089   1.296
45272W        W11681  22.522  41.475   1.343
45273W        W11682   6.477   0.488  11.085
45274W        W11683  41.896  30.866  11.602
45275W        W11684  41.955   3.784  14.550
45276W        W11685  12.637  25.799   1.521
45277W        W11686   2.533  22.796  11.127
45278W        W11687  24.079   4.434   1.901
45279W        W11688  37.923  16.199  14.628
45280W        W11689  32.540  32.337   2.232
45281W        W11690   4.222  16.019  12.882
45282W        W11691   2.169  25.568  10.834
45283W        W11692  21.744  27.491   1.636
45284W        W11693  23.017  22.859   3.652
45285W        W11694  17.896   6.266  14.999
45286W        W11695  32.291  19.727   0.633
45287W        W11696  37.447  23.165   4.229
45288W        W11697  30.403  30.108  13.348
45289W        W11698  37.490  29.360   1.183
45290W        W11699  40.259  44.929  10.318
45291W        W11700  13.564  17.816  11.129
45292W        W11701  15.303  36.590   5.356
45293W        W11702  11.634   8.720  12.136
45294W        W11703   6.856  14.530   3.795
45295W        W11704  10.215  24.275   3.316
45296W        W11705   0.368  30.021   3.000
45297W        W11706   4.914  19.646  11.153
45298W        W11707  23.535  17.283   1.279
45299W        W11708  32.946  35.485  12.989
45300W        W11709   8.864  10.780   4.150
45301W        W11710  20.450  39.895   1.897
45302W        W11711  26.326  39.368   1.882
45303W        W11712  17.037  12.206  14.351
45304W        W11713  43.501  41.708  13.035
45305W        W11714  18.275  38.539   2.843
45306W        W11715  25.545  41.180  12.900
45307W        W11716  34.753  22.058   4.330
45308W        W11717  30.929  38.792  12.070
45309W        W11718  15.202   6.412  11.602
45310W        W11719   9.525  38.762  11.627
45311W        W11720  10.069  13.331   2.218
45312W        W11721  36.851  27.525  10.356
45313W        W11722  34.067  15.581   1.362
45314W        W11723  13.070  34.246   2.474
45315W        W11724   6.052  10.827   4.082
45316W        W11725  14.201   9.238  13.043
45317W        W11726  41.056  32.530   1.658
45318W        W11727  29.020  16.576   1.031
45319W        W11728  33.946   1.561   5.030
45320W        W11729   2.465  13.692  13.793
45321W        W11730  20.231   1.710  13.681
45322W        W11731  26.752   1.763  13.795
45323W        W11732  37.628  32.854  11.498
45324W        W11733  19.764  19.704  11.690
45325W        W11734  27.990   0.075   0.811
45326W        W11735  41.475  36.355   3.875
45327W        W11736  34.686  27.135  11.206
45328W        W11737  20.648   7.657   0.313
45329W        W11738  22.115   2.042  11.789
45330W        W11739  28.127  29.717   3.711
45331W        W11740  15.952  28.702  12.009
45332W        W11741  18.320  31.201  13.842
45333W        W11742  26.975  39.339   2.665
45334W        W11743  31.501  39.785  11.939
45335W        W11744  13.115  16.122   1.791
45336W        W11745  26.701   6.764  11.169
45337W        W11746   2.682   4.008  12.427
45338W        W11747   4.406  32.543   4.550
45339W        W11748  11.220   6.327   4.114
45340W        W11749  20.811  26.254  14.014
45341W        W11750  36.967  15.309   3.938
45342W        W11751  11.936  14.651   3.855
45343W        W11752  43.236  16.015   4.151
45344W        W11753   9.286  34.567  13.952
45345W        W11754   7.963  25.181   1.684
45346W        W11755  12.677  21.546  13.367
45347W        W11756   4.952  12.948   0.825
45348W        W11757  32.369  30.693  12.525
45349W        W11758  18.099  40.942   3.854
45350W        W11759  44.974   3.806  13.829
45351W        W11760  26.175   1.458  14.445
45352W        W11761  31.121  23.711  13.360
45353W        W11762  23.524  42.175  12.668
45354W        W11763  11.795  24.639   1.689
45355W        W11764  13.563  42.974  14.032
45356W        W11765  44.331  30.002   4.252
45357W        W11766  18.293  28.218  12.038
45358W        W11767  31.946  24.247  11.961
45359W        W11768  32.027  25.593   2.619
45360W        W11769  20.292  10.149   3.597
45361W        W11770  27.922  21.758   0.288
45362W        W11771  17.776  25.196  14.257
45363W        W11772  31.626   9.420  13.362
45364W        W11773  40.253  32.469  11.911
45365W        W11774  29.018  39.459  13.768
45366W        W11775  29.416  38.882  11.999
45367W        W11776  24.060   4.834   2.191
45368W        W11777  16.082  32.098  12.882
45369W        W11778   6.912  43.820   3.999
45370W        W11779  30.214  41.382   4.724
45371W        W11780   4.737   7.694   3.018
45372W        W11781  29.285  11.021   0.408
45373W        W11782  12.166   8.756   0.734
45374W        W11783  14.167  18.924   3.546
45375W        W11784  43.344  14.627   4.882
45376W        W11785   5.211  11.860  14.448
45377W        W11786  43.945  10.648   2.851
45378W        W11787  24.031  30.778   0.024
45379W        W11788  26.232  24.543  12.837
45380W        W11789   0.722  25.125   5.135
45381W        W11790  30.401  38.458   1.351
45382W        W11791  37.358  11.348   3.668
45383W        W11792  42.691   0.925  11.549
45384W        W11793  42.537  32.517   2.042
45385W        W11794  14.021  34.895   1.297
45386W        W11795  33.021  26.784  10.723
45387W        W11796  27.545  44.812  13.768
45388W        W11797   7.863  28.742  13.407
45389W        W11798  32.883   1.741  13.473
45390W        W11799  44.690  24.947  13.235
45391W        W11800  43.771   2.216  10.904
45392W        W11801  20.228  40.491  11.566
45393W        W11802   7.659  37.920   0.762
45394W        W11803  12.850   2.925   3.083
45395W        W11804  38.436   3.351  11.431
45396W        W11805  27.497   9.400  11.157
45397W        W11806  22.133  23.231   3.335
45398W        W11807  38.313  37.279  14.458
45399W        W11808  32.898  33.780  11.733
45400W        W11809   8.804  26.361   1.760
45401W        W11810  37.516  20.547  14.926
45402W        W11811   8.612  42.883  11.609
45403W        W11812   0.866  44.941  14.836
45404W        W11813  18.700  30.099   4.644
45405W        W11814  38.322  23.696   2.353
45406W        W11815  41.785  13.937   1.652
45407W        W11816  42.400  40.752  12.178
45408W        W11817  14.328  44.721   4.131
45409W        W11818  17.706  40.354  13.156
45410W        W11819   9.508  30.104   1.332
45411W        W11820  42.887  32.628   4.201
45412W        W11821   7.111  35.484  14.505
45413W        W11822  14.305   8.356   0.767
45414W        W11823   2.470  38.446   3.801
45415W        W11824  14.977  29.145   4.138
45416W        W11825  16.153  43.926  10.956
45417W        W11826  42.743   4.171   1.970
45418W        W11827   9.774   2.320   3.244
45419W        W11828  42.685  29.650  12.102
45420W        W11829  44.947  19.883   5.027
45421W        W11830  33.309   1.043  13.834
45422W        W11831   0.416  35.588  14.742
45423W        W11832   3.736  26.690  11.156
45424W        W11833  28.939  40.484  11.446
45425W        W11834  11.321  16.960  14.416
45426W        W11835   0.892  32.549  14.556
45427W        W11836   2.322  33.006  11.624
45428W        W11837  38.000  12.581  10.702
45429W        W11838   1.340   5.804   3.858
45430W        W11839   0.828   6.936  11.586
45431W        W11840  44.973   6.349  12.134
45432W        W11841  15.241   5.439   2.773
45433W        W11842  34.048  37.843   3.543
45434W        W11843  17.228   4.977  13.010
45435W        W11844   8.364  31.449  14.453
45436W        W11845   8.258  38.329   2.267
45437W        W11846  28.019  34.779   0.649
45438W        W11847  13.040  22.101   0.932
45439W        W11848   8.878  21.699   4.146
45440W        W11849  32.500  15.289   4.734
45441W        W11850  15.091  25.263   0.088
45442W        W11851   3.170  38.350   1.830
45443W        W11852   5.888  43.408  12.074
45444W        W11853  25.717  14.695   1.727
45445W        W11854  14.897  24.292   4.570
45446W        W11855  10.595  44.762   1.473
45447W        W11856  37.611   2.481   0.005
45448W        W11857  21.224  29.061   2.774
45449W        W11858  44.314  40.912   2.352
45450W        W11859   6.401   9.763  14.141
45451W        W11860  25.703  13.646  12.681
45452W        W11861  36.452   2.197  13.585
45453W        W11862  41.390  30.740  11.143
45454W        W11863  44.123  31.869   4.484
45455W        W11864  26.277  42.395  12.621
45456W        W11865  42.451   0.330   3.834
45457W        W11866  12.759  15.864  14.778
45458W        W11867   5.542  15.731   3.610
45459W        W11868  27.128  41.549   1.334
45460W        W11869  17.356  20.258  14.973
45461W        W11870  31.459  26.722   4.823
45462W        W11871  37.971  41.051  13.124
45463W        W11872  44.790  18.438  13.524
45464W        W11873  24.580  29.659   2.944
45465W        W11874  29.654  13.065  11.944
45466W        W11875  42.142  22.132   2.250
45467W        W11876  42.902  22.214   2.880
45468W        W11877  23.815  35.510  14.936
45469W        W11878   9.772  40.023  10.936
45470W        W11879   3.728  42.169  13.631
45471W        W11880  34.135  31.615   3.920
45472W        W11881   0.301  41.986  13.492
45473W        W11882  15.734  15.207  14.982
45474W        W11883  38.589   1.954  14.428
45475W        W11884  41.330   2.520   2.297
45476W        W11885  11.821  11.450   2.238
45477W        W11886  37.541  39.429  12.677
45478W        W11887  24.274  24.130   3.642
45479W        W11888  24.570  44.237   0.916
45480W        W11889  18.256   6.457  12.542
45481W        W11890  13.301  27.148   4.312
45482W        W11891  14.452  38.034   3.152
45483W        W11892   8.117   4.827   2.759
45484W        W11893  11.796  35.613   0.838
45485W        W11894  19.286  37.951  10.389
45486W        W11895  34.585  11.722  11.904
45487W        W11896  41.637  43.726   2.555
45488W        W11897  22.583  17.140   3.137
45489W        W11898   0.284  38.046   2.374
45490W        W11899   5.150  25.069  12.731
45491W        W11900  36.944  13.844  12.435
45492W        W11901   4.085   1.241   2.253
45493W        W11902  16.615  34.120   1.029
45494W        W11903  27.971  25.717  10.436
45495W        W11904  42.123  16.230  13.715
45496W        W11905  26.204  32.298  12.498
45497W        W11906  28.886   7.958   1.260
45498W        W11907  38.958  34.821   0.822
45499W        W11908  21.322   2.408  14.427
45500W        W11909  31.647   9.812  12.012
45501W        W11910   0.870   7.455   3.582
45502W        W11911  44.436  12.336   2.809
45503W        W11912  15.215   2.431  10.219
45504W        W11913  32.738  31.921  11.891
45505W        W11914   8.350  15.889   1.965
45506W        W11915  39.543  32.054   0.911
45507W        W11916  17.753  35.578  11.705
45508W        W11917  11.713  29.189   2.847
45509W        W11918  38.461  18.939  13.886
45510W        W11919   6.688   4.112  12.345
45511W        W11920  43.706  32.987  12.944
45512W        W11921  32.575  30.181  11.628
45513W        W11922  24.692   0.394  13.369
45514W        W11923  15.383  44.905  13.397
45515W        W11924   8.355  30.195   1.584
45516W        W11925  41.756  38.531  14.971
45517W        W11926  19.502  38.780  11.361
45518W        W11927  18.071  25.012  13.879
45519W        W11928   1.163  26.313  11.204
45520W        W11929  36.412  41.589   1.813
45521W        W11930  35.900  42.374  12.154
45522W        W11931  23.826  30.644   4.256
45523W        W11932  31.146  41.867  13.856
45524W        W11933   1.090  28.996  13.544
45525W        W11934  38.593  33.009   3.763
45526W        W11935  31.529   0.248  12.661
45527W        W11936  36.504  41.610  12.047
45528W        W11937  16.052  38.848   2.737
45529W        W11938   2.464  27.096   0.517
45530W        W11939  19.215  20.675   2.414
45531W        W11940  17.038  33.898   3.356
45532W        W11941  42.899  10.678  12.009
45533W        W11942  18.991  30.046   3.461
45534W        W11943  33.674  15.723  10.873
45535W        W11944  41.381  29.533   3.104
45536W        W11945  21.651  42.831  11.635
45537W        W11946   8.792  42.380  11.477
45538W        W11947  16.557  32.739   2.205
45539W        W11948  23.938   6.169   3.308
45540W        W11949  14.098  32.500   4.772
45541W        W11950  26.626  29.326   2.707
45542W        W11951  35.897  14.720   1.477
45543W        W11952  33.571  21.990   3.319
45544W        W11953   8.040   9.310   1.954
45545W        W11954   2.041  29.673  12.060
45546W        W11955  25.048  26.992  11.125
45547W        W11956   7.123  31.545   4.394
45548W        W11957  24.302  35.460  14.753
45549W        W11958  21.551  31.023  14.660
45550W        W11959  41.418  15.158  12.946
45551W        W11960  41.357  42.970  11.644
45552W        W11961  34.937  29.616  14.750
45553W        W11962  26.886   6.969   2.677
45554W        W11963  10.168  23.028   4.101
45555W        W11964  37.564  38.512  14.882
45556W        W11965  35.334  39.404   1.965
45557W        W11966  22.339   6.889   4.269
45558W        W11967  31.812  15.656  10.127
45559W        W11968   5.878   5.093  11.692
45560W        W11969  26.661  43.265  10.813
45561W        W11970   1.782   6.498  14.466
45562W        W11971  35.911  21.023  14.259
45563W        W11972  39.875  15.635   3.305
45564W        W11973  37.082  18.693  10.948
45565W        W11974   8.760   1.243   4.268
45566W        W11975   5.831  28.625  14.341
45567W        W11976   5.245  44.254   4.491
45568W        W11977  40.618  18.832   4.270
45569W        W11978   5.261  21.188   9.595
45570W        W11979  25.596  21.413   0.746
45571W        W11980  29.355  40.531   0.041
45572W        W11981  33.490  28.665  10.647
45573W        W11982  29.110  34.492  11.775
45574W        W11983  40.319   5.704   3.103
45575W        W11984  17.129  23.705  13.867
45576W        W11985  26.511  32.482  12.886
45577W        W11986  19.815  13.228  12.953
45578W        W11987   6.320  13.280   3.702
45579W        W11988  13.106  41.885   3.167
45580W        W11989   9.651  38.413   1.230
45581W        W11990   6.339  18.571   4.504
45582W        W11991  20.065  43.434  12.955
45583W        W11992  15.622  30.413   2.000
45584W        W11993  15.057  36.623   4.510
45585W        W11994  32.827  40.559  12.670
45586W        W11995   3.681  44.794  14.600
45587W        W11996  10.800  27.373  11.425
45588W        W11997  17.766   2.367  14.424
45589W        W11998  20.316   3.738   1.336
45590W        W11999  38.924   0.741   2.132
45591W        W12000  34.959   4.322  12.892
45592W        W12001  36.686  36.512  14.771
45593W        W12002   4.507   2.381   3.228
45594W        W12003  23.210   5.811   3.369
45595W        W12004  37.566  31.966   4.552
45596W        W12005  35.081  25.952   0.714
45597W        W12006  19.623  35.060  13.273
45598W        W12007  39.282  31.662   1.161
45599W        W12008  28.523  25.565  14.438
45600W        W12009  42.840   6.667   1.805
45601W        W12010  36.446  36.420  10.738
45602W        W12011  12.040  29.074  11.194
45603W        W12012  39.126  26.621  11.597
45604W        W12013  32.428  14.395  14.991
45605W        W12014  29.421  31.464   1.333
45606W        W12015  34.852  18.664   2.846
45607W        W12016   3.991  16.792  13.540
45608W        W12017  25.064  19.313   3.718
45609W        W12018  34.286  15.162  14.787
45610W        W12019  15.765  23.461   3.726
45611W        W12020  17.739  35.817  14.903
45612W        W12021  13.513   5.856   1.243
45613W        W12022  24.593   5.229   3.578
45614W        W12023  17.129  20.707  14.879
45615W        W12024  37.932  29.590  10.791
45616W        W12025   6.880  24.648  13.292
45617W        W12026  15.330  34.939  12.492
45618W        W12027  20.003   2.223   0.903
45619W        W12028  27.234  14.304  14.483
45620W        W12029   0.497   6.948   4.170
45621W        W12030  40.080  13.721   2.318
45622W        W12031  31.473  43.270  13.080
45623W        W12032   9.974  30.467   0.542
45624W        W12033   2.682  27.643  12.923
45625W        W12034  16.727  37.434   1.765
45626W        W12035   1.432   3.524  14.875
45627W        W12036  21.789  33.361  11.144
45628W        W12037  37.362  22.079  11.689
45629W        W12038  25.684  32.640   4.612
45630W        W12039  21.439   9.834   4.593
45631W        W12040  26.958   6.414  12.953
45632W        W12041   0.963  24.584  10.704
45633W        W12042  35.979  18.973  12.761
45634W        W12043  41.762  40.286   0.335
45635W        W12044  30.980  39.694   1.829
45636W        W12045  42.618  14.645   0.028
45637W        W12046  37.485  28.160  14.675
45638W        W12047  25.013  39.601   2.256
45639W        W12048   9.278  41.157   1.697
45640W        W12049  19.268  20.415  14.588
45641W        W12050  24.067  42.105  11.673
45642W        W12051   9.312  37.269  10.991
45643W        W12052  28.040   1.710   1.331
45644W        W12053  43.051  28.944   3.273
45645W        W12054   6.062   3.651   1.658
45646W        W12055  35.874  42.067  13.126
45647W        W12056  29.403  14.267   0.316
45648W        W12057  11.975  25.104   3.654
45649W        W12058  10.238  17.812  11.872
45650W        W12059  27.191   7.924  14.997
45651W        W12060   3.798  21.205   2.135
45652W        W12061  13.947  37.877  13.083
45653W        W12062  23.052  34.178   1.931
45654W        W12063  34.317  30.174   4.186
45655W        W12064  40.738   9.340  14.731
45656W        W12065   7.035  21.151  13.665
45657W        W12066  23.044   1.273   1.741
45658W        W12067  31.626  36.873  14.016
45659W        W12068  22.190  37.095   1.353
45660W        W12069  44.251  16.788  14.428
45661W        W12070  30.374  40.773  13.982
45662W        W12071  33.714  32.015  12.018
45663W        W12072  26.952   5.962   2.756
45664W        W12073  21.643  12.438   1.983
45665W        W12074  14.680  34.944   2.246
45666W        W12075  23.773  41.744  13.483
45667W        W12076   2.460  15.716   3.672
45668W        W12077  41.621   7.145   4.121
45669W        W12078  37.425  23.535   0.704
45670W        W12079  40.338  23.019   1.737
45671W        W12080  27.545  43.272  12.856
45672W        W12081  42.550   5.412   4.248
45673W        W12082  32.118  27.112   2.286
45674W        W12083   6.721  24.398   4.966
45675W        W12084  12.138  21.295   3.359
45676W        W12085  41.512  24.529   2.638
45677W        W12086  23.681  33.732  11.954
45678W        W12087  31.837   7.767   2.734
45679W        W12088  24.284   2.487   1.295
45680W        W12089   2.993  13.186   0.979
45681W        W12090  18.619   4.494  11.246
45682W        W12091  43.972  15.172   3.342
45683W        W12092  20.695  27.705  13.154
45684W        W12093  15.368  41.709  14.782
45685W        W12094   5.384   7.043   0.397
45686W        W12095  42.818   1.255   4.371
45687W        W12096  25.259  18.048  14.575
45688W        W12097  32.149  40.313   4.796
45689W        W12098  34.907  31.936   4.915
45690W        W12099  19.207  27.764   2.681
45691W        W12100  11.396  23.576  11.060
45692W        W12101  20.989   7.791   4.277
45693W        W12102  22.718   4.043  13.017
45694W        W12103  23.023  23.259   0.386
45695W        W12104  19.063  20.590   2.902
45696W        W12105  26.042  17.484   0.455
45697W        W12106  14.712  31.368  12.953
45698W        W12107  40.565  31.569   1.893
45699W        W12108  40.900  39.978   4.069
45700W        W12109  10.622  34.046  14.272
45701W        W12110  23.047   0.382   2.678
45702W        W12111   6.167  16.069   1.921
45703W        W12112  37.684  35.239   1.244
45704W        W12113  39.083  20.206  12.521
45705W        W12114  31.379  43.454  14.845
45706W        W12115   1.932  44.035  13.401
45707W        W12116   5.834   9.456  11.084
45708W        W12117  10.607  28.682  10.681
45709W        W12118  13.566  17.096   0.804
45710W        W12119  19.527  28.069  10.680
45711W        W12120  11.753  21.023   5.025
45712W        W12121  34.802  34.951   0.434
45713W        W12122  22.653  25.289  10.587
45714W        W12123   1.717  14.191  11.958
45715W        W12124  20.903  42.841   3.550
45716W        W12125  39.032   8.400  12.879
45717W        W12126   9.667   0.919  10.135
45718W        W12127  17.588  38.126  11.476
45719W        W12128  20.754   5.638  12.402
45720W        W12129   2.885  37.523  11.371
45721W        W12130  29.885  33.661   1.234
45722W        W12131  27.392  12.765   4.314
45723W        W12132  38.848  32.067  10.820
45724W        W12133  33.614  33.539   3.725
45725W        W12134  36.903  22.043  12.381
45726W        W12135  15.599  15.377  11.034
45727W        W12136  41.388  15.648   3.603
45728W        W12137  11.912   3.375  10.235
45729W        W12138   5.121  35.056   3.645
45730W        W12139   0.853  19.233   2.697
45731W        W12140   7.390  37.293   0.080
45732W        W12141  32.610  32.493  12.448
45733W        W12142  26.539  39.936   1.967
45734W        W12143  33.602  38.522  10.679
45735W        W12144  36.873  40.504   3.277
45736W        W12145  29.098  30.353  12.995
45737W        W12146  25.733   0.956   0.045
45738W        W12147  39.752  31.908  11.243
45739W        W12148  33.708  33.487   1.154
45740W        W12149   9.366  41.077   2.614
45741W        W12150  34.352   9.800   0.015
45742W        W12151  33.955   9.749  12.331
45743W        W12152  43.233  33.410   0.032
45744W        W12153  43.244  20.804  14.492
45745W        W12154  32.109   7.028  13.304
45746W        W12155  28.474  36.249   4.923
45747W        W12156   1.037  36.397   1.971
45748W        W12157  39.810  36.236   1.707
45749W        W12158  12.105  20.500  13.777
45750W        W12159  35.698  27.538  13.410
45751W        W12160  41.434  44.530  12.026
45752W        W12161  37.362  14.882   4.516
45753W        W12162  38.816   6.157   4.170
45754W        W12163  20.698   6.756  11.602
45755W        W12164  38.508  33.057   2.680
45756W        W12165  14.156  43.048   0.797
45757W        W12166  19.475  17.810   0.924
45758W        W12167   6.357  33.341   2.383
45759W        W12168  18.323   0.881   4.032
45760W        W12169  31.641  20.223   2.258
45761W        W12170  23.097  12.458  13.774
45762W        W12171  30.929  40.893   0.290
45763W        W12172  31.188   8.839  14.915
45764W        W12173  27.388   9.707  12.448
45765W        W12174   8.054   4.341   2.295
45766W        W12175  21.715  20.451  14.826
45767W        W12176  10.955  30.589   0.469
45768W        W12177  32.183   3.447   0.175
45769W        W12178  39.413   4.586  14.767
45770W        W12179  14.069  16.556  13.106
45771W        W12180  39.047  11.620  14.292
45772W        W12181   7.180  19.720   1.814
45773W        W12182  25.716  24.586   1.458
45774W        W12183   5.073  44.514  14.856
45775W        W12184  17.833  18.123   1.775
45776W        W12185   1.754  36.847  13.263
45777W        W12186  32.848  39.991   1.611
45778W        W12187  28.815  12.743   1.312
45779W        W12188   0.082  37.325   3.389
45780W        W12189  27.677  12.522   4.710
45781W        W12190  20.235   0.813   0.900
45782W        W12191  10.010   5.159   0.893
45783W        W12192  35.638  32.037   3.748
45784W        W12193  30.937  43.952  14.304
45785W        W12194  20.214  35.884  14.577
45786W        W12195   5.286  30.929   0.788
45787W        W12196  20.537   2.774   1.465
45788W        W12197   3.503  39.441  12.008
45789W        W12198  36.587  41.210  13.752
45790W        W12199  16.959  13.417   2.962
45791W        W12200  33.104  39.381  13.368
45792W        W12201  42.954  33.434   3.386
45793W        W12202  32.423   4.717   2.307
45794W        W12203  39.544  33.584  14.146
45795W        W12204  12.052  42.366   3.067
45796W        W12205  36.687  36.475   2.564
45797W        W12206   1.694   2.474   4.003
45798W        W12207  28.918  42.978   3.718
45799W        W12208  25.293  42.910   2.209
45800W        W12209  34.055   8.585  14.886
45801W        W12210  16.108  12.528   4.181
45802W        W12211   0.565  21.675  11.646
45803W        W12212  29.172  39.364  12.004
45804W        W12213   3.465   5.921   0.133
45805W        W12214  41.820   0.967  11.251
45806W        W12215   0.806  13.125   1.612
45807W        W12216   7.799  36.554   1.511
45808W        W12217  15.202   4.375   2.762
45809W        W12218   5.013  40.955  13.566
45810W        W12219  22.216  29.807   3.330
45811W        W12220  15.116   2.160   2.222
45812W        W12221  42.895   3.732  14.428
45813W        W12222  31.126  13.284   2.873
45814W        W12223  19.003  24.498   3.806
45815W        W12224  41.282   6.606   3.827
45816W        W12225  30.657  28.578  11.566
45817W        W12226  22.632   7.249   1.127
45818W        W12227  10.427  24.974   2.663
45819W        W12228  42.784  34.911  14.845
45820W        W12229  14.817  32.641  11.097
45821W        W12230  40.339   2.045  14.274
45822W        W12231  14.806  43.014   2.298
45823W        W12232  22.717   5.090   2.345
45824W        W12233  13.044   4.432   3.731
45825W        W12234  44.181  31.039  10.744
45826W        W12235  27.013  39.946  12.945
45827W        W12236  43.355  27.004  10.701
45828W        W12237  29.001  15.734  11.344
45829W        W12238   6.426   7.435  12.387
45830W        W12239  19.004   1.370  12.844
45831W        W12240  26.931  19.177   2.162
45832W        W12241  33.130  39.919  14.840
45833W        W12242  22.328  10.051  13.394
45834W        W12243  32.709  25.992   3.708
45835W        W12244  15.751  28.482  12.432
45836W        W12245  42.503  32.560  10.986
45837W        W12246  38.773  17.203  13.834
45838W        W12247   9.384  15.146   3.393
45839W        W12248  30.199  40.361  14.259
45840W        W12249  19.280  17.669  14.302
45841W        W12250  32.416  43.257   1.712
45842W        W12251  10.253  25.502  12.561
45843W        W12252   4.194   6.828  10.939
45844W        W12253  26.953  11.635   0.621
45845W        W12254  40.698  42.714   2.796
45846W        W12255  28.426   0.290  12.384
45847W        W12256  40.963  23.042  14.818
45848W        W12257  22.136  42.337   0.785
45849W        W12258  14.172  34.509  11.190
45850W        W12259  25.654  15.388  14.144
45851W        W12260  13.762  16.594   4.614
45852W        W12261   0.834  37.676  12.534
45853W        W12262  27.139  27.369   2.317
45854W        W12263  38.221  23.011  12.511
45855W        W12264  20.305  37.805  10.602
45856W        W12265  16.318  10.728  10.569
45857W        W12266  36.987  22.790  13.744
45858W        W12267  24.199   6.951   4.873
45859W        W12268  24.081  20.399   1.625
45860W        W12269  20.528  28.097  11.514
45861W        W12270  33.429  36.102  11.590
45862W        W12271  12.216   7.678  13.024
45863W        W12272  10.315  41.972   3.161
45864W        W12273  33.056  16.158   4.668
45865W        W12274   1.239  39.529   1.304
45866W        W12275  13.622  14.541   3.157
45867W        W12276  12.518  28.515  14.841
45868W        W12277  16.546  35.626   3.502
45869W        W12278   5.009   3.785   1.796
45870W        W12279  24.743  27.589  12.507
45871W        W12280   0.806  35.896  14.551
45872W        W12281   6.313  15.698  13.313
45873W        W12282  26.030  33.452  13.069
45874W        W12283  33.633  22.228   1.468
45875W        W12284   9.473  21.154   1.639
45876W        W12285  23.209  34.672  13.349
45877W        W12286  30.441  14.552   3.247
45878W        W12287  41.397  35.912   4.154
45879W        W12288  25.025  37.309  10.702
45880W        W12289  17.089   3.851   0.485
45881W        W12290   6.796   0.836   2.809
45882W        W12291   2.576   6.944  11.603
45883W        W12292  27.455  37.390  12.913
45884W        W12293   1.405  17.207   0.508
45885W        W12294   1.251  30.131  14.451
45886W        W12295   3.949   7.642   3.687
45887W        W12296   5.641  22.540   5.028
45888W        W12297  44.940   3.396   3.348
45889W        W12298  39.860  42.391   2.417
45890W        W12299   9.833  15.677  14.181
45891W        W12300  21.716  17.163   4.525
45892W        W12301  41.023  11.064   0.742
45893W        W12302   3.390  23.645   0.478
45894W        W12303  24.720  34.596   0.212
45895W        W12304  41.424  41.286  11.690
45896W        W12305  29.911  18.942  11.183
45897W        W12306  18.996   9.696   2.769
45898W        W12307   7.455   3.478   2.767
45899W        W12308  23.668  42.395  11.934
45900W        W12309  12.205   1.176  10.819
45901W        W12310  44.751  12.161   1.224
45902W        W12311   2.294  40.301  13.363
45903W        W12312  16.649  27.682   2.621
45904W        W12313  28.049  41.977  14.749
45905W        W12314  35.508  43.856   0.404
45906W        W12315   2.914  37.928  12.540
45907W        W12316  29.462   4.656   4.978
45908W        W12317   4.571  22.885   3.723
45909W        W12318   5.759  33.145   3.645
45910W        W12319  12.499  20.744  10.256
45911W        W12320  43.833  27.013  14.365
45912W        W12321  15.402  32.041  13.662
45913W        W12322  14.800  16.472   2.862
45914W        W12323  21.540  33.306  14.752
45915W        W12324  10.401  23.447   2.907
45916W        W12325  12.972  14.892   3.836
45917W        W12326  37.557  16.361   1.828
45918W        W12327  31.622  39.711  11.038
45919W        W12328  29.318  43.755  10.655
45920W        W12329  35.457   5.138   4.223
45921W        W12330  37.104  15.739   4.278
45922W        W12331  40.062  33.832   3.697
45923W        W12332  40.274  26.915   4.253
45924W        W12333  41.998  15.843   4.952
45925W        W12334  40.464  29.365  12.953
45926W        W12335  14.931  34.651  12.659
45927W        W12336   3.459  35.776   3.327
45928W        W12337  36.905  40.698  13.903
45929W        W12338  43.372  40.062  11.360
45930W        W12339  11.625  36.397  11.030
45931W        W12340  24.474  43.388   2.294
45932W        W12341  41.461   6.773   2.529
45933W        W12342  36.453  41.250   3.558
45934W        W12343   5.317   9.477   0.189
45935W        W12344  15.916   8.799   2.781
45936W        W12345  31.705  40.744  13.484
45937W        W12346  33.496   5.646  11.611
45938W        W12347  40.391  18.053   0.709
45939W        W12348  16.666   3.567   0.515
45940W        W12349  32.142  37.745   4.798
45941W        W12350  17.837  24.314  12.131
45942W        W12351  29.560  27.953   0.831
45943W        W12352  17.284  19.469   1.849
45944W        W12353  42.897   7.759  10.106
45945W        W12354  37.559  25.962   1.680
45946W        W12355   1.570  26.208  13.421
45947W        W12356  13.578  25.988  11.913
45948W        W12357  25.035  40.404   3.678
45949W        W12358   5.365  33.073  12.382
45950W        W12359  31.349  35.523  13.708
45951W        W12360  12.902  12.720   2.236
45952W        W12361  32.441  32.417   4.154
45953W        W12362   6.326  35.949  12.385
45954W        W12363  17.358  35.959   0.244
45955W        W12364   2.929  10.853   2.204
45956W        W12365  22.214   8.287   3.746
45957W        W12366  29.707   6.277  14.032
45958W        W12367  35.301   8.757   1.295
45959W        W12368  22.023  11.408   0.727
45960W        W12369  19.299  10.697   3.341
45961W        W12370  30.062  36.907  13.358
45962W        W12371  20.241  13.622   3.765
45963W        W12372  22.128   2.677  12.429
45964W        W12373  14.281   8.794  12.802
45965W        W12374  18.590  44.704  11.988
45966W        W12375  12.260   1.993  11.917
45967W        W12376  12.839  39.395   1.551
45968W        W12377  35.233  33.528   2.831
45969W        W12378  42.505   3.066   2.859
45970W        W12379  24.734  43.377   0.454
45971W        W12380   3.026  33.678  11.647
45972W        W12381  41.286   7.591  11.139
45973W        W12382  42.590   7.220  11.161
45974W        W12383  17.207  20.813   4.151
45975W        W12384  10.720  25.662  12.401
45976W        W12385  29.015  13.215   2.663
45977W        W12386   8.616  16.946   2.143
45978W        W12387  29.795  21.908   1.878
45979W        W12388  28.593  24.500   4.416
45980W        W12389  32.750  15.662   3.825
45981W        W12390  11.930  20.405  14.571
45982W        W12391   6.484  29.059   2.503
45983W        W12392  25.966  44.841  10.706
45984W        W12393  30.529  42.323   1.802
45985W        W12394  42.325   7.126   4.584
45986W        W12395  33.382  16.895   2.658
45987W        W12396   3.868   6.423   3.279
45988W        W12397  26.067  33.184   2.892
45989W        W12398  11.770  42.674   4.248
45990W        W12399   4.758  24.153   2.127
45991W        W12400  31.626   2.521   3.331
45992W        W12401  26.612  33.016  14.328
45993W        W12402  33.603   9.445   3.279
45994W        W12403  37.575  11.386  13.906
45995W        W12404  19.202   2.405  10.914
45996W        W12405  13.131  18.225  13.813
45997W        W12406  12.736   0.642  11.541
45998W        W12407   6.416  14.739  14.523
45999W        W12408  29.052   7.831  13.547
46000W        W12409  28.168  41.836  13.387
46001W        W12410  21.728   0.897  12.469
46002W        W12411   7.859  12.263  13.735
46003W        W12412   1.984  24.906   3.201
46004W        W12413  16.605  24.952   4.487
46005W        W12414  42.460  11.309  12.390
46006W        W12415  26.066  19.633   1.537
46007W        W12416   4.251   5.322   0.520
46008W        W12417  24.247  33.463  10.504
46009W        W12418  23.454  42.852   3.857
46010W        W12419  32.509   1.315  11.628
46011W        W12420  39.518  40.781   4.215
46012W        W12421  29.593  30.421  11.130
46013W        W12422  27.979  11.418   2.164
46014W        W12423  32.062  12.558   0.931
46015W        W12424  35.576  35.448   2.252
46016W        W12425  31.007  37.524   3.190
46017W        W12426  24.525  15.699  12.161
46018W        W12427  18.115   4.436   1.879
46019W        W12428  11.350  24.675   0.964
46020W        W12429   2.211  17.277  12.539
46021W        W12430   3.428  39.117   4.405
46022W        W12431  39.049  16.119  13.877
46023W        W12432  17.463  44.251  10.735
46024W        W12433  25.078  37.259  13.118
46025W        W12434  39.986   0.771  14.412
46026W        W12435  40.245   4.162  12.050
46027W        W12436   0.800   2.216   1.757
46028W        W12437  32.575  13.103  12.702
46029W        W12438  11.225  42.356   3.861
46030W        W12439  27.519  16.153  13.364
46031W        W12440  29.530   3.184  12.613
46032W        W12441  29.036   4.423   3.623
46033W        W12442   1.839   9.873   0.610
46034W        W12443   1.119  11.686   4.341
46035W        W12444  38.517  33.845   2.427
46036W        W12445  39.853  21.683   0.320
46037W        W12446  13.823   6.136   2.842
46038W        W12447  39.926  10.629   2.838
46039W        W12448  27.929   9.612  13.041
46040W        W12449   1.775  36.146   1.721
46041W        W12450   6.873   5.435  13.365
46042W        W12451   7.415  20.826  13.935
46043W        W12452  34.810  26.517   3.193
46044W        W12453  11.320  33.657   3.668
46045W        W12454  40.311  26.747  12.030
46046W        W12455  15.567  31.515  12.044
46047W        W12456  41.015  13.810   0.358
46048W        W12457  25.859  37.979  12.991
46049W        W12458  40.380  19.963   3.177
46050W        W12459  43.745   6.694   4.526
46051W        W12460   0.467  42.844  13.399
46052W        W12461   7.328  16.852  14.307
46053W        W12462  31.563   0.238   1.570
46054W        W12463  43.409  18.032  13.924
46055W        W12464  32.148  27.820   2.809
46056W        W12465  24.839   9.324  14.715
46057W        W12466   0.366  26.745   4.100
46058W        W12467  36.732  26.102  14.398
46059W        W12468  25.610  12.829   2.113
46060W        W12469  27.589  11.257  11.565
46061W        W12470  41.762  38.696  10.384
46062W        W12471  32.166  22.091   0.358
46063W        W12472   6.248  23.638   1.704
46064W        W12473  14.699  10.330   4.079
46065W        W12474   2.797  15.636  13.048
46066W        W12475  31.676   3.760   0.017
46067W        W12476   2.973  15.878   3.658
46068W        W12477  19.701  14.643   4.447
46069W        W12478  13.273  40.624   9.858
46070W        W12479   2.532  17.760   4.531
46071W        W12480  28.571  14.225   1.156
46072W        W12481  36.981   6.756  13.909
46073W        W12482  19.694  38.750   1.201
46074W        W12483  21.173  11.321   5.010
46075W        W12484  35.477  27.385   3.692
46076W        W12485   3.513  12.611   4.766
46077W        W12486   8.434  37.303   2.465
46078W        W12487   1.688  28.675  11.106
46079W        W12488  42.246  29.140   4.594
46080W        W12489   6.705  40.452  14.373
46081W        W12490  35.509  13.881  13.469
46082W        W12491   0.886  16.698   2.257
46083W        W12492  44.231  20.584   9.931
46084W        W12493  34.954  18.816   4.100
46085W        W12494  21.039   7.170   0.862
46086W        W12495  22.496   7.138  11.692
46087W        W12496   5.387  40.831   2.783
46088W        W12497  15.874  44.423  10.269
46089W        W12498  21.624   9.197  14.466
46090W        W12499  42.583   5.382   1.755
46091W        W12500  17.074  33.138  12.940
46092W        W12501  14.294  34.158   5.257
46093W        W12502  25.696   8.935   0.192
46094W        W12503  15.229  24.092  14.786
46095W        W12504  23.319  16.153  14.527
46096W        W12505   8.784   6.632  12.465
46097W        W12506  37.578  14.774   4.061
46098W        W12507  38.441   5.259  13.793
46099W        W12508   1.983  11.924  12.944
46100W        W12509  15.171  13.571  12.449
46101W        W12510  10.121  15.138  12.626
46102W        W12511  12.785  12.874   4.373
46103W        W12512   0.541   0.003   2.169
46104W        W12513  32.589  23.084  11.911
46105W        W12514  26.746  22.032   1.708
46106W        W12515  43.595  44.396  10.716
46107W        W12516  32.593  43.806  12.670
46108W        W12517  14.359   5.084   2.014
46109W        W12518  38.993   2.634   4.769
46110W        W12519  37.545  42.519  12.540
46111W        W12520  18.087  40.978   4.415
46112W        W12521   8.990  36.673  14.877
46113W        W12522  22.054  36.645  12.483
46114W        W12523  33.408  42.325   1.444
46115W        W12524  43.922  21.116  12.065
46116W        W12525  35.129  24.527   3.244
46117W        W12526  15.161  43.749   4.569
46118W        W12527  25.467  33.119   2.369
46119W        W12528  11.374  40.467   0.219
46120W        W12529   5.686   9.434   4.645
46121W        W12530   9.235  16.840   0.677
46122W        W12531   6.120  35.694  14.123
46123W        W12532   7.391   9.100  11.060
46124W        W12533  26.205   6.309  13.688
46125W        W12534  20.126  10.021  10.681
46126W        W12535   4.235  36.863   3.150
46127W        W12536  44.250  34.386  13.060
46128W        W12537  38.498   1.221   2.823
46129W        W12538   5.790   4.444   3.256
46130W        W12539  10.118  15.507  13.033
46131W        W12540  22.355   5.322  12.962
46132W        W12541  14.584  23.674   1.820
46133W        W12542   0.183  24.512  14.986
46134W        W12543  36.398  17.584   4.972
46135W        W12544  44.618  21.228  14.385
46136W        W12545   7.151  25.417  12.717
46137W        W12546  18.574   3.901  13.428
46138W        W12547   2.204  44.105  11.372
46139W        W12548  35.165   5.358   3.626
46140W        W12549  10.868  25.221  13.412
46141W        W12550  27.032  20.810   3.137
46142W        W12551  10.196   8.607   3.169
46143W        W12552   4.998  44.946  11.508
46144W        W12553  21.809  30.650  11.595
46145W        W12554   6.325  12.511   4.168
46146W        W12555  31.656   2.269   2.850
46147W        W12556  41.394  36.856  14.452
46148W        W12557  31.012  34.690   3.464
46149W        W12558   9.272   7.377   0.935
46150W        W12559  40.404   3.143  10.119
46151W        W12560  28.614  26.486  12.936
46152W        W12561  12.098  10.133  14.855
46153W        W12562  13.312   6.227  14.076
46154W        W12563  31.056  28.559   0.034
46155W        W12564  43.922   7.900   3.084
46156W        W12565  13.139  26.817   0.881
46157W        W12566   8.270   3.656  10.992
46158W        W12567  18.749  36.325   3.804
46159W        W12568  11.588  29.339  10.566
46160W        W12569  38.645  28.591   1.801
46161W        W12570  13.104  33.079   1.621
46162W        W12571   7.004  28.316   4.531
46163W        W12572  21.499  30.093  12.155
46164W        W12573  12.630  16.287  12.372
46165W        W12574   3.302  27.941   0.935
46166W        W12575  29.442  27.048   1.827
46167W        W12576  28.592  25.744   3.703
46168W        W12577   8.274  29.935  13.548
46169W        W12578  36.436   5.866  11.676
46170W        W12579  31.219  26.416   4.149
46171W        W12580  39.462  10.687   3.083
46172W        W12581  15.242  19.275  12.498
46173W        W12582   0.296  23.230  13.048
46174W        W12583  20.830  39.883   3.263
46175W        W12584   0.473  44.889   3.178
46176W        W12585  30.690  19.758   3.670
46177W        W12586  43.505   3.966  11.603
46178W        W12587   4.202  43.240  12.196
46179W        W12588  18.606  15.369   3.511
46180W        W12589  18.894  14.987  12.507
46181W        W12590   7.032  44.936  13.000
46182W        W12591  36.982  25.225   4.360
46183W        W12592  12.542   5.657  12.158
46184W        W12593  41.847   5.276   1.204
46185W        W12594  32.568  32.187   3.589
46186W        W12595  14.096   2.920  12.959
46187W        W12596  38.937  11.097  14.374
46188W        W12597   4.422  29.871   4.474
46189W        W12598  17.071  14.784  14.806
46190W        W12599  42.827  14.937  13.697
46191W        W12600  21.680   8.393   3.825
46192W        W12601  33.593  18.979   0.918
46193W        W12602  26.487  21.931   1.271
46194W        W12603   9.443   7.334   2.874
46195W        W12604   6.577   1.375  12.423
46196W        W12605  17.524   6.020   3.298
46197W        W12606  42.541  25.110   4.228
46198W        W12607  32.478  14.918  11.105
46199W        W12608  26.573   3.029  10.646
46200W        W12609  19.465  18.821   0.870
46201W        W12610  26.760  17.271   4.185
46202W        W12611  41.790   7.696   0.251
46203W        W12612   4.877  38.677  12.524
46204W        W12613   7.932  29.985  11.974
46205W        W12614   5.416   4.827   2.720
46206W        W12615  44.403  30.967   4.209
46207W        W12616  38.931  38.596  14.270
46208W        W12617  33.527   0.393  13.071
46209W        W12618   0.860  19.152  13.798
46210W        W12619  27.008  18.297   1.965
46211W        W12620   5.932  26.600   3.738
46212W        W12621  42.309  34.074  13.567
46213W        W12622  16.765  30.094   4.815
46214W        W12623   8.422  20.659   4.885
46215W        W12624   9.281  13.211   2.870
46216W        W12625  13.227   3.480  14.960
46217W        W12626  22.727  29.465  13.998
46218W        W12627  29.250  19.442  12.508
46219W        W12628  34.811  13.615   4.937
46220W        W12629  14.199  29.903   4.338
46221W        W12630  25.526  28.539   2.958
46222W        W12631  40.502  33.330  14.502
46223W        W12632   7.329  34.182  14.442
46224W        W12633   9.245  44.538  14.771
46225W        W12634  17.036  36.074  11.115
46226W        W12635  28.108  26.743  12.011
46227W        W12636  14.207   7.327   4.438
46228W        W12637  43.289  22.132  13.974
46229W        W12638   0.294   1.644   1.414
46230W        W12639  26.589  24.278   4.523
46231W        W12640   5.757  38.842  10.649
46232W        W12641  19.194   1.429   1.337
46233W        W12642  10.168  17.725   0.366
46234W        W12643  22.084   1.399  14.509
46235W        W12644  14.614  43.932   4.478
46236W        W12645  34.532  22.672  14.877
46237W        W12646  30.509   4.780   1.539
46238W        W12647  32.290  30.422   3.610
46239W        W12648  15.525  32.527  13.436
46240W        W12649  19.729  26.496  12.788
46241W        W12650  17.382  17.214   3.395
46242W        W12651  10.235  16.335  10.270
46243W        W12652  23.070  17.779  13.473
46244W        W12653   8.262  17.831   4.574
46245W        W12654  29.864  28.837   0.759
46246W        W12655  42.221   3.767  12.067
46247W        W12656   3.849  23.592   1.767
46248W        W12657  27.491  12.455  12.003
46249W        W12658   6.842  23.551   3.297
46250W        W12659  27.249  34.594   4.879
46251W        W12660  32.841  41.442  11.336
46252W        W12661  22.459  24.697  14.964
46253W        W12662  23.916  43.304   4.845
46254W        W12663   1.482  37.999  14.328
46255W        W12664  19.167  23.998  12.326
46256W        W12665   1.650  36.961   4.571
46257W        W12666  43.752   7.356   2.817
46258W        W12667   5.525   5.881  12.289
46259W        W12668  14.334  15.251  14.708
46260W        W12669  32.159  11.499   3.160
46261W        W12670  23.292  20.267  11.334
46262W        W12671  37.343   2.245  10.646
46263W        W12672  28.639  44.307   4.573
46264W        W12673  39.579  27.448   3.844
46265W        W12674  26.199  26.193  14.849
46266W        W12675  35.231   6.797  12.008
46267W        W12676  21.460  42.152   1.754
46268W        W12677  26.102  37.566   0.510
46269W        W12678  17.582   2.403  14.903
46270W        W12679  11.422   3.467   3.250
46271W        W12680  41.702   8.841   0.991
46272W        W12681  26.993  36.944  13.295
46273W        W12682  12.827  19.218   2.200
46274W        W12683  14.119  36.767  12.557
46275W        W12684  11.749  10.568   4.658
46276W        W12685  40.179  38.401   1.891
46277W        W12686   7.388  20.295  13.106
46278W        W12687  39.888  43.204   3.877
46279W        W12688  12.798   9.288  12.005
46280W        W12689  26.901  41.813  10.828
46281W        W12690  11.085  40.172  12.536
46282W        W12691  37.040  43.050   0.320
46283W        W12692   7.922  10.522   0.496
46284W        W12693  30.869  18.139  13.035
46285W        W12694  39.788  16.016  14.099
46286W        W12695  39.303   7.218  12.996
46287W        W12696  13.577  32.416   4.663
46288W        W12697  17.032  22.484  11.194
46289W        W12698   5.152  18.329  14.622
46290W        W12699  17.509   1.942   3.472
46291W        W12700  16.689  36.973   2.013
46292W        W12701   7.588  34.444  13.526
46293W        W12702  42.076  44.503  11.560
46294W        W12703  37.659  14.164  12.547
46295W        W12704   6.025  34.752  12.414
46296W        W12705   7.556   6.895  13.088
46297W        W12706  15.312  15.332   5.043
46298W        W12707  18.951  12.176   0.454
46299W        W12708  38.020   4.733  13.386
46300W        W12709  40.558  23.754  11.569
46301W        W12710   1.799   2.309   2.632
46302W        W12711  32.052  15.382   3.610
46303W        W12712   6.079   5.323  14.821
46304W        W12713  32.404  43.330   4.063
46305W        W12714  25.882   2.704   3.944
46306W        W12715  24.702  28.381   0.338
46307W        W12716  29.495  18.244  14.240
46308W        W12717  21.034  30.969   0.926
46309W        W12718  39.695  42.235   3.277
46310W        W12719  25.938  27.630   4.210
46311W        W12720   5.343   8.265  14.883
46312W        W12721  26.566  35.494  12.606
46313W        W12722   7.254  42.894  13.534
46314W        W12723  44.835  13.374   1.732
46315W        W12724   4.221  44.220   4.132
46316W        W12725   2.175  40.398  12.471
46317W        W12726  30.036  30.099   4.644
46318W        W12727   1.431  30.629   4.307
46319W        W12728  34.867  16.136   2.147
46320W        W12729  22.999  35.362  11.152
46321W        W12730  16.803  11.046   0.933
46322W        W12731  16.331  25.194  11.014
46323W        W12732   0.232  32.866  11.546
46324W        W12733   8.883   0.836   9.736
46325W        W12734  21.926  12.714   0.749
46326W        W12735  17.553   9.051  11.162
46327W        W12736  33.970  34.251   2.840
46328W        W12737  15.909   9.094   4.562
46329W        W12738  26.901  44.087  11.132
46330W        W12739  11.443  39.971   2.276
46331W        W12740  17.113  11.337   4.122
46332W        W12741  12.248   4.668  14.460
46333W        W12742   2.735  22.540   3.678
46334W        W12743  10.379  13.571  10.395
46335W        W12744  26.164  15.660  13.572
46336W        W12745  32.087  23.769  12.032
46337W        W12746  43.418  20.789  11.892
46338W        W12747  40.848   5.325  10.445
46339W        W12748  25.592  29.676  10.794
46340W        W12749  41.619  40.025   4.524
46341W        W12750   0.698  19.283   1.781
46342W        W12751  25.225  24.624  13.059
46343W        W12752  24.028  21.390   5.410
46344W        W12753  40.778  10.094   1.886
46345W        W12754  28.566  29.831  13.818
46346W        W12755   1.242  42.913  12.480
46347W        W12756  26.668   9.928   0.623
46348W        W12757   0.377  36.509  14.200
46349W        W12758  39.553  35.003  13.555
46350W        W12759  23.857  36.664  14.403
46351W        W12760   2.416   5.590  13.016
46352W        W12761  40.308  24.135   0.853
46353W        W12762   4.919   1.970   1.298
46354W        W12763  41.982  31.738  14.044
46355W        W12764  21.130  26.733   1.372
46356W        W12765  32.434  18.060  12.032
46357W        W12766  34.866   0.243   2.615
46358W        W12767  33.791  32.974   3.709
46359W        W12768  43.761  14.777  14.080
46360W        W12769  14.241  24.597   0.539
46361W        W12770  39.394  21.424  13.366
46362W        W12771  28.497   3.515  14.784
46363W        W12772  37.972   6.811  14.583
46364W        W12773  32.962  31.013  13.511
46365W        W12774  34.368   0.639  12.056
46366W        W12775  23.178  15.303   2.172
46367W        W12776   2.852  38.800   0.207
46368W        W12777  40.948  24.175  13.445
46369W        W12778   8.901  35.987  10.322
46370W        W12779   6.724  26.579  10.021
46371W        W12780   7.649  18.625   3.464
46372W        W12781  31.116  40.682   0.745
46373W        W12782   0.059  43.823   4.160
46374W        W12783  11.814   1.099   2.636
46375W        W12784  19.065  29.962  11.966
46376W        W12785   8.246  31.143   2.595
46377W        W12786  35.181  11.891   2.703
46378W        W12787  25.595  10.750  12.075
46379W        W12788  26.713   1.416  11.705
46380W        W12789  33.915  25.866  13.004
46381W        W12790  11.932  43.978   3.685
46382W        W12791  28.645  17.795  10.642
46383W        W12792   9.237  13.620   0.267
46384W        W12793  21.590   1.247   3.576
46385W        W12794  26.287  27.888  11.976
46386W        W12795  34.355  19.620  13.832
46387W        W12796  18.534  41.448   3.270
46388W        W12797  42.525  28.882   2.319
46389W        W12798   3.240  23.507   2.576
46390W        W12799  22.500  43.368  11.758
46391W        W12800  31.552   1.519  13.114
46392W        W12801  29.632   1.010  12.410
46393W        W12802  30.503   0.105  12.392
46394W        W12803   2.359  32.539  11.417
46395W        W12804  43.700   0.258  13.400
46396W        W12805   2.151  27.265   3.333
46397W        W12806  24.109   5.218   0.426
46398W        W12807  39.637  25.136  14.752
46399W        W12808  43.240  22.283  14.470
46400W        W12809   2.435  15.796   2.817
46401W        W12810  20.635  35.176   2.873
46402W        W12811  20.750  40.693  14.890
46403W        W12812   7.848  13.833  11.145
46404W        W12813  43.005  20.609   4.278
46405W        W12814   6.923  14.144   4.610
46406W        W12815  37.079  42.895  10.946
46407W        W12816  19.583  16.185  12.794
46408W        W12817  29.570  44.548  11.018
46409W        W12818  23.504  36.357   4.531
46410W        W12819  21.705  37.973  12.131
46411W        W12820  13.157   4.229  14.255
46412W        W12821  19.630  20.861  11.039
46413W        W12822   0.526  37.072   3.201
46414W        W12823  19.866  29.242  10.284
46415W        W12824  31.640  25.920  12.948
46416W        W12825  42.651  19.138   1.313
46417W        W12826   5.076  21.530  11.177
46418W        W12827  12.119  22.395  10.369
46419W        W12828  43.363   6.381   0.387
46420W        W12829  25.708  36.105  10.685
46421W        W12830  15.743  25.863  14.766
46422W        W12831   8.327  39.094   2.792
46423W        W12832  40.747  42.472  11.532
46424W        W12833  14.668  35.291  12.089
46425W        W12834  30.545  27.786  11.148
46426W        W12835  35.377  39.133   3.837
46427W        W12836  12.682  28.895  11.683
46428W        W12837  37.655  42.027  13.908
46429W        W12838  37.175   7.680   1.603
46430W        W12839  27.070   2.318  14.462
46431W        W12840  13.039  28.183   1.351
46432W        W12841  10.768  26.696   9.990
46433W        W12842  33.384   3.084   3.557
46434W        W12843  10.750  21.265   3.565
46435W        W12844  26.987  11.361   2.710
46436W        W12845  38.455  10.208  11.471
46437W        W12846  33.843   8.993   4.975
46438W        W12847  11.825  43.456   0.874
46439W        W12848  30.727  15.538   3.176
46440W        W12849  36.388  35.341   3.154
46441W        W12850  19.247   7.682   3.652
46442W        W12851  20.892  18.495   0.817
46443W        W12852  33.095  28.336   4.513
46444W        W12853  33.106  43.860   1.267
46445W        W12854   8.207  29.631  14.841
46446W        W12855  18.653  21.922  12.583
46447W        W12856  43.543  33.401  12.167
46448W        W12857  42.027   8.365  13.241
46449W        W12858  14.926  26.953  12.844
46450W        W12859  18.806  25.370  12.550
46451W        W12860  38.861   0.530   1.644
46452W        W12861  24.124  31.003   4.661
46453W        W12862  43.734  41.442  11.110
46454W        W12863  31.205   3.779   1.748
46455W        W12864  24.637  39.035  14.415
46456W        W12865  17.695  14.588   0.407
46457W        W12866   8.743  31.517  12.542
46458W        W12867  34.639   8.340  14.976
46459W        W12868  37.589  20.210   1.373
46460W        W12869  37.623  34.474  13.474
46461W        W12870   4.410  44.287  12.764
46462W        W12871  14.569   1.385   2.274
46463W        W12872  14.423   8.979  12.354
46464W        W12873  11.055   3.697  13.853
46465W        W12874  32.036  40.132  13.977
46466W        W12875  23.166   8.559  12.477
46467W        W12876  13.521  44.370  14.942
46468W        W12877  42.837   0.691  11.103
46469W        W12878  28.237  42.533   2.912
46470W        W12879  12.058  29.155  10.699
46471W        W12880  43.427  44.412   1.365
46472W        W12881  18.652  26.773   4.581
46473W        W12882  22.232   5.766   3.937
46474W        W12883  28.699   6.263  12.519
46475W        W12884  11.575  28.440  14.808
46476W        W12885  19.811  29.979  12.603
46477W        W12886  34.780   4.787  11.732
46478W        W12887   2.558  35.992  11.400
46479W        W12888   7.435   6.331  12.107
46480W        W12889  17.063  17.280   2.036
46481W        W12890  17.118   2.374   2.064
46482W        W12891  36.993  26.011  14.851
46483W        W12892  43.942   6.660  13.179
46484W        W12893   3.709   1.349   0.047
46485W        W12894  23.235  14.121   4.583
46486W        W12895  25.594  30.373  14.746
46487W        W12896   8.341   2.370  14.911
46488W        W12897   3.238  42.747   1.392
46489W        W12898   6.456   7.678   3.809
46490W        W12899  27.889  11.833  12.168
46491W        W12900  33.293  40.552  12.861
46492W        W12901  43.851  44.897  14.139
46493W        W12902  22.869  27.451   1.801
46494W        W12903  26.233  39.269   4.477
46495W        W12904   8.650   7.512  10.351
46496W        W12905  29.721   5.901  14.918
46497W        W12906  39.331  15.413   2.241
46498W        W12907  30.083   0.790  12.470
46499W        W12908   6.407  39.488  13.160
46500W        W12909  40.678   8.440  10.262
46501W        W12910   5.892  23.026  13.774
46502W        W12911   3.883  42.457  12.776
46503W        W12912   8.324  19.598   1.944
46504W        W12913  32.019  33.569  13.538
46505W        W12914   5.297  19.073   0.188
46506W        W12915  29.471  39.316   4.643
46507W        W12916  23.190  11.721  13.017
46508W        W12917  20.881  19.668  10.763
46509W        W12918  14.292  20.948  14.296
46510W        W12919  25.623  10.717  12.954
46511W        W12920  40.409  37.238  12.099
46512W        W12921  21.190  23.186   3.245
46513W        W12922  22.434  24.360  10.320
46514W        W12923  16.282   5.848   0.353
46515W        W12924  19.266  37.408   2.140
46516W        W12925  38.999  13.530  11.579
46517W        W12926  30.966  25.933   1.385
46518W        W12927   6.155  10.868   3.571
46519W        W12928  26.967  18.549  12.038
46520W        W12929  39.686  10.103  11.784
46521W        W12930   5.317  29.729   1.349
46522W        W12931   4.406   7.517   3.874
46523W        W12932  16.605   4.543   4.070
46524W        W12933   8.139  14.198   1.912
46525W        W12934  34.467  25.131   0.345
46526W        W12935  37.521  15.202   2.295
46527W        W12936  35.844  38.233  11.663
46528W        W12937  32.659  42.886  14.931
46529W        W12938  18.525  26.084   1.011
46530W        W12939   3.916  21.115  10.747
46531W        W12940   3.394  13.577   0.336
46532W        W12941  24.824  35.503  14.689
46533W        W12942  17.092  10.879  14.593
46534W        W12943  24.521  30.685  14.876
46535W        W12944  26.937   1.248   1.244
46536W        W12945  40.316  16.634  13.576
46537W        W12946   0.894  44.408  12.618
46538W        W12947   4.246   4.916  12.929
46539W        W12948   0.729  36.377   1.483
46540W        W12949  41.765  29.242   1.348
46541W        W12950   3.526  20.661   1.307
46542W        W12951  23.052  22.060  14.437
46543W        W12952   3.916  30.176  11.519
46544W        W12953  25.001  28.466   4.161
46545W        W12954  24.219  38.567  14.371
46546W        W12955  18.780  23.546   2.246
46547W        W12956   9.745  18.087  11.400
46548W        W12957  18.034  10.689  14.295
46549W        W12958  20.009   9.225  12.928
46550W        W12959  25.133   3.859  11.656
46551W        W12960  24.205   6.314   1.382
46552W        W12961  11.690   9.359   4.436
46553W        W12962  38.879  25.712  11.573
46554W        W12963  30.470  32.998  13.061
46555W        W12964  21.032  35.484   4.754
46556W        W12965  43.970  13.321   3.416
46557W        W12966   1.541  16.407   3.444
46558W        W12967  14.416  26.995   4.261
46559W        W12968  15.705  39.092  13.668
46560W        W12969  39.938   9.196  13.788
46561W        W12970  27.616  33.897  11.187
46562W        W12971  23.868   8.638   1.287
46563W        W12972  15.812   1.376  14.919
46564W        W12973   2.264  13.107  11.688
46565W        W12974  15.318  37.095   3.616
46566W        W12975  17.714   7.471   0.305
46567W        W12976   1.597  29.430   1.497
46568W        W12977  23.285   6.441  11.463
46569W        W12978  13.318  24.034  12.820
46570W        W12979  18.198  15.753  11.909
46571W        W12980  21.838  30.195  13.442
46572W        W12981  16.969  43.514  10.731
46573W        W12982  27.024   1.794   1.282
46574W        W12983  28.611   4.000   3.237
46575W        W12984  18.641  11.441  12.169
46576W        W12985  26.615  27.950  11.213
46577W        W12986  18.871   8.805   4.478
46578W        W12987  43.984  25.627   2.154
46579W        W12988  13.628  26.828   2.666
46580W        W12989   5.399  32.649   0.452
46581W        W12990  32.011  13.368   4.593
46582W        W12991  33.094  37.042  11.643
46583W        W12992  13.835  16.217   2.708
46584W        W12993  10.544   2.283   1.909
46585W        W12994  23.511   7.400  11.944
46586W        W12995  22.402  26.655  11.325
46587W        W12996   1.227  23.079   0.875
46588W        W12997  34.379  15.046  13.505
46589W        W12998   9.374  39.994  11.650
46590W        W12999  44.676  36.636   4.427
46591W        W13000  26.702  30.981  12.971
46592W        W13001  24.596  17.766  12.203
46593W        W13002  20.594  41.880  14.455
46594W        W13003  43.825  30.874   0.845
46595W        W13004   2.880  42.051  12.522
46596W        W13005  35.609  19.236  14.748
46597W        W13006   9.433  22.414  13.882
46598W        W13007   3.003   3.698  14.384
46599W        W13008   4.163  37.381  12.942
46600W        W13009   0.722   0.442   2.412
46601W        W13010   3.283   1.168  14.401
46602W        W13011   8.364  31.445   0.123
46603W        W13012   0.876  15.642   4.541
46604W        W13013   8.747  16.168  13.353
46605W        W13014   3.332  36.484  12.490
46606W        W13015  14.255   4.246  13.757
46607W        W13016   6.860  41.076  14.405
46608W        W13017  36.427  15.854   3.177
46609W        W13018  13.746  28.691   0.703
46610W        W13019  18.186  33.073  12.838
46611W        W13020  39.657  23.424  11.439
46612W        W13021   6.348  23.211  10.755
46613W        W13022  24.328  20.051  12.809
46614W        W13023   1.821   1.693   1.898
46615W        W13024  42.074  32.504  11.251
46616W        W13025  30.109  41.021   2.533
46617W        W13026  21.267   3.413   3.670
46618W        W13027  44.066  17.769   0.481
46619W        W13028  21.689  25.262  13.862
46620W        W13029   5.797   8.425   4.585
46621W        W13030  32.000   6.396  12.123
46622W        W13031  28.664   9.750  12.012
46623W        W13032  39.029   9.872  12.821
46624W        W13033  32.078  15.663  10.594
46625W        W13034  38.160  25.190   0.991
46626W        W13035  35.484  30.933   3.608
46627W        W13036  11.704  38.242  13.505
46628W        W13037   8.657  14.759  13.355
46629W        W13038  11.805   2.963  12.808
46630W        W13039   5.944  17.689  10.453
46631W        W13040  30.018  34.862   2.467
46632W        W13041  39.109  24.422   1.945
46633W        W13042  38.508  30.659  14.380
46634W        W13043  38.071   8.003   0.740
46635W        W13044  26.498  12.826   0.023
46636W        W13045   1.457   9.065  14.374
46637W        W13046  21.587   1.967  11.716
46638W        W13047   5.728  31.255   1.720
46639W        W13048   3.405   4.434  10.851
46640W        W13049  42.357  13.321   3.344
46641W        W13050  24.580  21.274  14.490
46642W        W13051  15.693   1.220   3.793
46643W        W13052  29.115  22.987  11.393
46644W        W13053  10.131   7.309  10.921
46645W        W13054  11.991  28.765   2.934
46646W        W13055   1.267  18.745   1.309
46647W        W13056  20.107  20.358   3.418
46648W        W13057  21.893  25.255  11.205
46649W        W13058  38.800  14.832   2.700
46650W        W13059  19.798  35.874  13.604
46651W        W13060  23.974  32.997  10.652
46652W        W13061  40.020  29.658   2.991
46653W        W13062   2.854  11.903   0.253
46654W        W13063  27.449   1.990   3.710
46655W        W13064  23.720  23.421   3.128
46656W        W13065   3.815  23.295   3.335
46657W        W13066  31.455   3.662  11.563
46658W        W13067  11.575  35.950  14.849
46659W        W13068   5.651  19.974   1.180
46660W        W13069  38.325   8.336   0.437
46661W        W13070  20.187  29.953   0.178
46662W        W13071   6.643   6.682  12.992
46663W        W13072   2.032  42.934   4.663
46664W        W13073  32.730   8.087  12.919
46665W        W13074  15.652  12.164   1.409
46666W        W13075  31.607  28.086  13.134
46667W        W13076  33.769  22.057   4.608
46668W        W13077   1.831  34.797  10.502
46669W        W13078  30.830  25.402   1.456
46670W        W13079  16.121  28.036   0.437
46671W        W13080  35.944  28.153   3.847
46672W        W13081   7.195  26.645   3.241
46673W        W13082   7.188  39.585   2.551
46674W        W13083  23.755  31.344   3.109
46675W        W13084  10.193  25.189   4.433
46676W        W13085   3.016  38.113  14.336
46677W        W13086   2.761  10.094  14.339
46678W        W13087   1.026  25.101   1.777
46679W        W13088  25.397  19.155   3.350
46680W        W13089  26.911   5.783  14.353
46681W        W13090  27.578  44.600   4.502
46682W        W13091  33.097   1.042   1.009
46683W        W13092  10.207  42.473   5.088
46684W        W13093  36.312   6.080   2.360
46685W        W13094   5.302  43.752  11.890
46686W        W13095  14.113  17.522   4.499
46687W        W13096  19.739   1.264  10.579
46688W        W13097   8.939  16.308  11.938
46689W        W13098   7.833  23.228  12.509
46690W        W13099  37.577   0.332  10.508
46691W        W13100  36.491  17.891  12.884
46692W        W13101  35.625  42.406  10.910
46693W        W13102  26.678  24.207  14.403
46694W        W13103  17.714  26.398   2.353
46695W        W13104   0.746   8.744  10.244
46696W        W13105  14.410  16.261   1.396
46697W        W13106  39.773  42.467   0.912
46698W        W13107  10.613  24.939  11.328
46699W        W13108   2.917   4.268  10.738
46700W        W13109  44.527  30.901   1.756
46701W        W13110  33.463   7.975  12.518
46702W        W13111  24.064   4.415   1.003
46703W        W13112  37.109  12.288   1.319
46704W        W13113  35.467  22.739   3.244
46705W        W13114   7.250   2.439  12.140
46706W        W13115  43.834  43.999  10.978
46707W        W13116  44.402  43.064   4.146
46708W        W13117   8.185  12.016  11.621
46709W        W13118   7.026  33.417   4.948
46710W        W13119  40.132  35.988   1.403
46711W        W13120  41.562   0.062   1.268
46712W        W13121   8.162  37.760  11.133
46713W        W13122  17.155   4.744   4.585
46714W        W13123   2.454  43.498   2.264
46715W        W13124  13.026  16.625   1.356
46716W        W13125  17.841  13.496   1.855
46717W        W13126  39.896  11.827   0.398
46718W        W13127  36.940  30.029   3.225
46719W        W13128   1.249  44.773  12.424
46720W        W13129   4.416   5.800   0.698
46721W        W13130  33.421  44.802   0.712
46722W        W13131  16.312   2.914  12.817
46723W        W13132  24.283  41.965   3.365
46724W        W13133  19.267  40.106   2.878
46725W        W13134   8.892  27.459  12.888
46726W        W13135  11.194   5.814   4.253
46727W        W13136   8.854  26.437   3.811
46728W        W13137  24.604  43.737   0.835
46729W        W13138   9.875  19.795   3.646
46730W        W13139  39.435  33.968   1.017
46731W        W13140  35.895  17.605   5.020
46732W        W13141  37.426  27.429   4.579
46733W        W13142  10.234  31.829  10.864
46734W        W13143  40.092  12.126   2.814
46735W        W13144   0.706   7.749   1.618
46736W        W13145  33.614   7.263   2.292
46737W        W13146  40.475   6.787   1.308
46738W        W13147  10.854  17.654  14.286
46739W        W13148   2.350   8.182  12.614
46740W        W13149   9.959  42.702   4.123
46741W        W13150  38.289  34.215  11.134
46742W        W13151  20.555  29.503   0.754
46743W        W13152  30.122  19.416  14.040
46744W        W13153  11.129  33.379   1.880
46745W        W13154  17.244  40.683   0.339
46746W        W13155  22.177   7.186  12.097
46747W        W13156  17.848  39.760   2.700
46748W        W13157  25.210  15.920  13.385
46749W        W13158  33.491  36.372  14.847
46750W        W13159  40.390   9.298   0.769
46751W        W13160  27.978  12.568  11.817
46752W        W13161  40.763   6.367  13.886
46753W        W13162  14.386  32.441   4.310
46754W        W13163  17.209  12.688  13.978
46755W        W13164  30.955  13.876  12.553
46756W        W13165  16.347  18.182  12.519
46757W        W13166  38.513  33.394   4.102
46758W        W13167  31.608  18.870  14.542
46759W        W13168  38.153   5.957   0.048
46760W        W13169  40.759  20.534   1.156
46761W        W13170  12.636   5.286  12.527
46762W        W13171   1.398  30.061  12.131
46763W        W13172  11.393  36.496  13.371
46764W        W13173  38.412  23.465   0.663
46765W        W13174  25.727  29.645  11.815
46766W        W13175  30.391  14.844  13.982
46767W        W13176  19.420  19.202   2.754
46768W        W13177  26.730  21.615   2.281
46769W        W13178  27.044  26.381   2.120
46770W        W13179   4.653  17.345  12.994
46771W        W13180  34.921  15.119  12.005
46772W        W13181  30.443  14.029  12.388
46773W        W13182  33.381  23.209  13.659
46774W        W13183  28.559   1.952  11.068
46775W        W13184  39.869  27.541  12.569
46776W        W13185  27.751  41.516  13.440
46777W        W13186   6.444  20.619   0.012
46778W        W13187  26.216   1.437   1.841
46779W        W13188  19.257  17.770   4.360
46780W        W13189  33.839  22.203   2.607
46781W        W13190  14.011  44.708   2.576
46782W        W13191  38.145  19.424   2.411
46783W        W13192  43.528  29.604  11.632
46784W        W13193  25.443  33.974  12.529
46785W        W13194  24.992  43.816   3.851
46786W        W13195   9.236   3.717  13.027
46787W        W13196  26.254  15.362   0.873
46788W        W13197  21.117  34.484  13.647
46789W        W13198  12.864  21.416   2.557
46790W        W13199   3.594  18.229  13.871
46791W        W13200   9.289  10.820   0.538
46792W        W13201  43.438   7.620  12.956
46793W        W13202  32.370  30.986  12.009
46794W        W13203  15.713  22.505  14.348
46795W        W13204  11.920  31.931  14.360
46796W        W13205  14.799  19.715   3.653
46797W        W13206  25.254  39.495  14.934
46798W        W13207   6.928  17.236   1.944
46799W        W13208  23.218  14.910   4.948
46800W        W13209  14.555  28.166  11.203
46801W        W13210  15.340  40.532  14.530
46802W        W13211   3.718  24.753   4.555
46803W        W13212  14.714  20.305  14.876
46804W        W13213   7.933  20.625   4.686
46805W        W13214  32.103  10.313  13.490
46806W        W13215  16.162  22.588   5.311
46807W        W13216  14.202  34.649   0.831
46808W        W13217  28.018   2.052  11.129
46809W        W13218  39.359  44.352  12.152
46810W        W13219  26.875  20.513  14.068
46811W        W13220  21.824   4.578   2.715
46812W        W13221  18.682  38.299   1.389
46813W        W13222  43.345  37.548   0.715
46814W        W13223  40.976  32.596  10.731
46815W        W13224  19.005  26.926  14.804
46816W        W13225  14.320  38.048   0.887
46817W        W13226  39.535  28.557  13.930
46818W        W13227   7.989  21.562  14.583
46819W        W13228  32.847  22.266   2.216
46820W        W13229  32.911  28.650   4.131
46821W        W13230   0.977  11.745   1.663
46822W        W13231  39.068   8.815   0.824
46823W        W13232   4.308  32.021   0.879
46824W        W13233  25.509  40.662  12.935
46825W        W13234  27.493  29.075   2.571
46826W        W13235   6.171  37.659  13.990
46827W        W13236   5.231  40.631   0.827
46828W        W13237  29.432  22.105   4.224
46829W        W13238  25.529  13.892   4.856
46830W        W13239   9.779   0.621   4.522
46831W        W13240   2.477  11.327   4.591
46832W        W13241   6.103   6.674   2.779
46833W        W13242  21.529   8.002   2.131
46834W        W13243  26.262  42.775  12.989
46835W        W13244  20.493   4.517  11.457
46836W        W13245   5.335  12.727  13.869
46837W        W13246  35.420  12.502  11.599
46838W        W13247  37.615  22.306  10.236
46839W        W13248  21.184  27.203  12.058
46840W        W13249  35.947  27.841   4.774
46841W        W13250  15.784   9.132   0.768
46842W        W13251  14.864  39.247   2.922
46843W        W13252  35.050  11.689  13.902
46844W        W13253  42.628   8.640   3.636
46845W        W13254  17.066  18.556   4.079
46846W        W13255   6.802  27.864  12.275
46847W        W13256  34.039   1.461  13.243
46848W        W13257  25.189   1.007  12.363
46849W        W13258  32.044  41.911  10.753
46850W        W13259  35.768  18.776   4.263
46851W        W13260  42.281  16.486  14.673
46852W        W13261  10.415   3.308  14.272
46853W        W13262  39.805  19.663   4.533
46854W        W13263  33.168  42.876  14.841
46855W        W13264  19.417  35.339   0.584
46856W        W13265  10.535  18.592  12.478
46857W        W13266   5.612   9.080   1.048
46858W        W13267  26.456  37.660   2.325
46859W        W13268   6.786   8.744   4.878
46860W        W13269  25.134  38.289  14.556
46861W        W13270  23.666  21.112   3.185
46862W        W13271  10.125  30.679  13.969
46863W        W13272  19.811  28.722   1.852
46864W        W13273  20.492   1.502   1.246
46865W        W13274  29.647  11.218   2.257
46866W        W13275   8.000  16.317  10.571
46867W        W13276  27.518  40.523  11.688
46868W        W13277  40.235   1.133  12.077
46869W        W13278  36.131   8.895  13.340
46870W        W13279  27.907  18.363   1.286
46871W        W13280   6.855  16.626   0.741
46872W        W13281  38.547  34.171  10.242
46873W        W13282  10.914  35.117   9.790
46874W        W13283   2.123  27.571  13.763
46875W        W13284  39.953  33.190   4.720
46876W        W13285   3.861  24.532  13.548
46877W        W13286  42.280  23.720  12.975
46878W        W13287  25.081  38.345  11.092
46879W        W13288  28.535  21.270   1.739
46880W        W13289   9.860   0.246   2.414
46881W        W13290  21.041   5.429  13.941
46882W        W13291   6.763  38.689   4.659
46883W        W13292   1.255  27.143  10.693
46884W        W13293  15.702  10.235   4.176
46885W        W13294  39.285   6.206   3.614
46886W        W13295  29.988   4.026   3.793
46887W        W13296  21.607  26.471  12.379
46888W        W13297  44.811  27.163   0.247
46889W        W13298  28.182  17.515   3.612
46890W        W13299  44.780  37.419  13.389
46891W        W13300  21.737  29.201   4.067
46892W        W13301  22.945  34.115   2.846
46893W        W13302  41.917  34.419   0.222
46894W        W13303  36.474   2.695   3.866
46895W        W13304  15.811   7.275  10.940
46896W        W13305  38.060  16.532   1.638
46897W        W13306   5.901  21.851   1.356
46898W        W13307   6.605  42.549  14.360
46899W        W13308  41.509  25.588  10.476
46900W        W13309  36.072  24.199  10.781
46901W        W13310   6.211   4.224  10.746
46902W        W13311  43.784  39.302  14.489
46903W        W13312  35.028  23.704   1.607
46904W        W13313  12.916   1.140   1.930
46905W        W13314   5.821   1.533   0.749
46906W        W13315  14.371   9.201   0.858
46907W        W13316  19.749   6.467  12.580
46908W        W13317  34.371  12.915  14.621
46909W        W13318   9.973  29.516  13.415
46910W        W13319  41.935  28.917  14.928
46911W        W13320  11.126  36.578  11.006
46912W        W13321  11.686  38.992  12.799
46913W        W13322  22.652  38.586   0.737
46914W        W13323  22.963   5.276  10.458
46915W        W13324  38.348  27.886  11.201
46916W        W13325  39.412  15.379   3.261
46917W        W13326  38.865  10.096  14.826
46918W        W13327  34.070  22.072  12.905
46919W        W13328  29.117  24.893  12.472
46920W        W13329  16.653  19.971  11.586
46921W        W13330  15.964  19.944   3.340
46922W        W13331  17.585  22.541   2.436
46923W        W13332  19.148  36.395  11.550
46924W        W13333  15.164  23.737  11.260
46925W        W13334  41.902  43.841   0.256
46926W        W13335  32.131  17.108   2.250
46927W        W13336   3.322  23.849   3.881
46928W        W13337  32.991  16.264   1.153
46929W        W13338  29.017  27.360  11.103
46930W        W13339  38.861   9.890  11.307
46931W        W13340  41.692   6.717  14.780
46932W        W13341  15.030   9.827  11.612
46933W        W13342  43.138   3.024  12.063
46934W        W13343   1.731   5.991  13.250
46935W        W13344  25.724  33.989   4.025
46936W        W13345  44.016  28.767  11.535
46937W        W13346  44.080  18.595  12.495
46938W        W13347   2.814  12.882  11.063
46939W        W13348  36.868   7.984   1.184
46940W        W13349  33.343  41.521   0.931
46941W        W13350  33.838  39.997  13.535
46942W        W13351   0.929  13.238  12.119
46943W        W13352  41.162  18.708  14.858
46944W        W13353  29.176  23.779  14.412
46945W        W13354   6.701  32.211   3.934
46946W        W13355  30.056  40.851   3.012
46947W        W13356  42.978  38.496   1.415
46948W        W13357   7.400  36.605  10.583
46949W        W13358   4.978  35.028   2.332
46950W        W13359   8.789  16.580   0.838
46951W        W13360  19.758  13.592   1.222
46952W        W13361  16.718  40.574   1.799
46953W        W13362  15.060   2.707   0.826
46954W        W13363  43.280  25.908  11.401
46955W        W13364  29.339  31.581   3.279
46956W        W13365  33.383  19.238   1.313
46957W        W13366  21.938  39.748  11.721
46958W        W13367  41.928  37.302  10.180
46959W        W13368   5.937  17.940   3.178
46960W        W13369  44.866  41.055  10.571
46961W        W13370  43.426  26.704  14.181
46962W        W13371   9.189  13.370   0.896
46963W        W13372   8.831  14.280   1.369
46964W        W13373  37.934  41.600   1.679
46965W        W13374  44.099  42.836  14.307
46966W        W13375  36.172  26.789   4.914
46967W        W13376  37.266  15.730   3.261
46968W        W13377  42.010  29.141  10.333
46969W        W13378  26.143  27.155   4.125
46970W        W13379  12.729  27.205  14.506
46971W        W13380   8.647  11.367  10.317
46972W        W13381  41.993  38.470   2.313
46973W        W13382  23.750  40.946   0.951
46974W        W13383  44.932  21.532  14.925
46975W        W13384  19.740  15.329  11.390
46976W        W13385  24.325  43.269   3.794
46977W        W13386  24.934  38.655   2.334
46978W        W13387   5.781  18.019  14.454
46979W        W13388  11.722  41.671   0.126
46980W        W13389   0.252  43.246   0.771
46981W        W13390  22.640  15.767   3.144
46982W        W13391  27.968  15.711   3.257
46983W        W13392  43.976  38.987  12.682
46984W        W13393   2.986  24.420  13.958
46985W        W13394  43.028  28.637  12.600
46986W        W13395   6.653  30.210   4.764
46987W        W13396   8.296   8.949  12.748
46988W        W13397  35.837  40.061  13.386
46989W        W13398  42.428   9.886   3.183
46990W        W13399  39.045   3.936   3.458
46991W        W13400  28.085  38.590   4.977
46992W        W13401  17.767  22.066   5.053
46993W        W13402  30.608  19.408   4.548
46994W        W13403   8.221  30.198   0.745
46995W        W13404  30.522  36.145   4.059
46996W        W13405   9.403   4.994   1.630
46997W        W13406  35.061  34.092  14.426
46998W        W13407  44.234  34.490   0.314
46999W        W13408   0.696  35.746   3.144
47000W        W13409  32.299  44.066  10.845
47001W        W13410   2.867  20.308   0.811
47002W        W13411   1.947  20.607  12.029
47003W        W13412  41.251  15.068   0.978
47004W        W13413  35.375  33.572   3.349
47005W        W13414   3.189  26.723   3.369
47006W        W13415  38.761  37.483  12.376
47007W        W13416  19.665   5.744  13.934
47008W        W13417  15.786  20.228   4.244
47009W        W13418  22.062   6.796   0.949
47010W        W13419   1.957  34.542   3.505
47011W        W13420   4.874   8.807  12.884
47012W        W13421  30.534   3.747   4.905
47013W        W13422  18.000   0.992   2.703
47014W        W13423  39.952  30.970  10.903
47015W        W13424  32.313  27.015  14.414
47016W        W13425  44.339   4.885   0.347
47017W        W13426   1.236  30.399  13.996
47018W        W13427  32.832  17.572   2.733
47019W        W13428  27.516   6.906  12.460
47020W        W13429  44.199  21.973  12.845
47021W        W13430  34.350  43.900  12.842
47022W        W13431  30.392   3.981   0.487
47023W        W13432  29.655  27.309   2.692
47024W        W13433   1.403  30.720   1.917
47025W        W13434   1.712  11.650  12.018
47026W        W13435   7.689  22.804  13.346
47027W        W13436  15.410  38.830   4.107
47028W        W13437  43.271  39.507   3.279
47029W        W13438  44.309   1.985  12.954
47030W        W13439  25.653  16.216  10.559
47031W        W13440  40.827   9.056   5.122
47032W        W13441  20.059  35.935  11.047
47033W        W13442   4.932  21.590   3.650
47034W        W13443  35.920  43.419  13.634
47035W        W13444  34.865  41.336  11.596
47036W        W13445  32.628  11.245   3.093
47037W        W13446  27.962  32.208   1.988
47038W        W13447   6.755   2.195   3.955
47039W        W13448  32.079  15.138   4.486
47040W        W13449  24.527  25.052  14.323
47041W        W13450  11.039   4.704   1.235
47042W        W13451  26.070  26.155   3.134
47043W        W13452   5.957  30.169   0.711
47044W        W13453  12.318   3.023   5.084
47045W        W13454  27.051  14.215   0.778
47046W        W13455   4.661   8.718  13.326
47047W        W13456  25.200  22.246   1.799
47048W        W13457  19.224   5.871  14.704
47049W        W13458  37.366  40.365  13.028
47050W        W13459  44.438   0.930  11.650
47051W        W13460  30.234  25.143  11.695
47052W        W13461  11.757  36.731  13.071
47053W        W13462  30.053  18.978   0.470
47054W        W13463  19.277  44.899   1.399
47055W        W13464  41.869  32.837   2.364
47056W        W13465  44.549  12.202  13.535
47057W        W13466  44.925   4.933  10.711
47058W        W13467  23.893   1.023   1.670
47059W        W13468  19.704  18.038   0.416
47060W        W13469  13.310  22.772  12.163
47061W        W13470  32.539   4.982   4.959
47062W        W13471  22.771   3.818   4.089
47063W        W13472   2.736  32.273   5.062
47064W        W13473  24.807  13.303  11.109
47065W        W13474  16.080   6.027   1.658
47066W        W13475  11.916  42.139   1.774
47067W        W13476  40.255  23.180   0.238
47068W        W13477   8.378  19.148   2.874
47069W        W13478   6.349  11.098   0.875
47070W        W13479   6.732  35.353   0.824
47071W        W13480  12.331   8.145   2.309
47072W        W13481  14.527   5.877   3.317
47073W        W13482   9.797  11.322   4.887
47074W        W13483   7.888  32.467   3.647
47075W        W13484  33.846  17.587   0.996
47076W        W13485   8.404  43.834   0.269
47077W        W13486   2.470  18.687   2.657
47078W        W13487  11.305  28.149   4.731
47079W        W13488  10.325  14.188   2.658
47080W        W13489  28.439  14.236   0.652
47081W        W13490  24.471   0.816  11.650
47082W        W13491  24.091  30.670  10.649
47083W        W13492   2.970  38.462   1.365
47084W        W13493  28.088  22.173  12.607
47085W        W13494   9.574  35.951   2.152
47086W        W13495   8.094  14.445  13.941
47087W        W13496  32.641  31.573   1.908
47088W        W13497  15.503  17.596   4.376
47089W        W13498  31.026  23.373   4.620
47090W        W13499  20.190  37.453   4.055
47091W        W13500  37.513  15.184   3.591
47092W        W13501  21.036  22.093   1.237
47093W        W13502  20.101  23.183   1.897
47094W        W13503  28.995   7.693   1.692
47095W        W13504   4.412  36.253  11.145
47096W        W13505  42.527  21.381   4.702
47097W        W13506  37.436  21.670  12.386
47098W        W13507  39.576   4.922   2.363
47099W        W13508  29.933  20.724  11.767
47100W        W13509   7.676  38.437  12.657
47101W        W13510  30.411  30.454  12.933
47102W        W13511  27.965  37.468  12.855
47103W        W13512  35.603  30.452   1.021
47104W        W13513  38.373  26.111   3.923
47105W        W13514  18.726   2.883   3.667
47106W        W13515  38.422  22.110   0.444
47107W        W13516   5.318  35.103   0.766
47108W        W13517  22.963  39.621   3.640
47109W        W13518  25.506  35.028   9.497
47110W        W13519  18.959  28.791   4.564
47111W        W13520   6.429  11.304   3.458
47112W        W13521  42.455   8.057  11.464
47113W        W13522  12.307  27.499  12.878
47114W        W13523  41.099  18.075   2.726
47115W        W13524  29.332  44.403  12.429
47116W        W13525  36.952   4.508  11.983
47117W        W13526  11.376   9.346  12.651
47118W        W13527  30.291  19.959   0.430
47119W        W13528  32.969  11.611  14.319
47120W        W13529  35.993  12.901   0.267
47121W        W13530  36.804  42.797  11.700
47122W        W13531  40.850  26.962  11.030
47123W        W13532  13.427   3.939  13.249
47124W        W13533  37.119  14.188  13.824
47125W        W13534  38.094   0.996  12.217
47126W        W13535  32.053   9.441  13.738
47127W        W13536  30.134  13.560  12.357
47128W        W13537  13.924  21.889  12.170
47129W        W13538  33.171  30.690   1.679
47130W        W13539  13.810  16.644  12.658
47131W        W13540  31.195   7.123  12.280
47132W        W13541   4.240  22.675   1.915
47133W        W13542  11.196  24.444  12.473
47134W        W13543  15.017  37.251   1.237
47135W        W13544  10.147  34.102  12.069
47136W        W13545  27.155  34.951   0.858
47137W        W13546  44.592   5.539   0.918
47138W        W13547  43.630  30.567  11.149
47139W        W13548   1.408   9.798  14.708
47140W        W13549  41.885  18.762   2.572
47141W        W13550  33.946   0.661  12.853
47142W        W13551   4.829  12.706  13.961
47143W        W13552  13.518  29.005  11.958
47144W        W13553  29.421  23.849   2.853
47145W        W13554  30.852  23.270  13.398
47146W        W13555  30.207  29.414   0.331
47147W        W13556   6.899   3.157  13.951
47148W        W13557   4.929  18.285   0.760
47149W        W13558  40.008  22.101   4.062
47150W        W13559  31.089  30.390  13.794
47151W        W13560  18.688  32.386  11.657
47152W        W13561   8.299   1.714  12.127
47153W        W13562  10.694   0.225   3.301
47154W        W13563  34.986  22.047   3.324
47155W        W13564  29.364  31.147  11.262
47156W        W13565  22.715  26.453  13.466
47157W        W13566  31.236   9.715   3.759
47158W        W13567  28.491  30.022  11.653
47159W        W13568  35.105   1.903  10.347
47160W        W13569  33.452   2.465   1.899
47161W        W13570  26.456  17.046   2.260
47162W        W13571  19.312  31.584   0.649
47163W        W13572  24.143  36.120  11.637
47164W        W13573  15.110  16.455   0.289
47165W        W13574   8.422   6.500   0.113
47166W        W13575   2.126  11.891   3.430
47167W        W13576  32.243  25.675  12.056
47168W        W13577   4.271  17.370  14.319
47169W        W13578  34.648  35.877   3.411
47170W        W13579   2.998  14.665   0.908
47171W        W13580  39.839  30.533   2.625
47172W        W13581  40.030  33.519   2.383
47173W        W13582   8.250  30.281  10.666
47174W        W13583  15.223  15.964   0.317
47175W        W13584  24.917  36.157   3.686
47176W        W13585  36.440   7.064   2.354
47177W        W13586   1.940  43.916  10.602
47178W        W13587  14.349  10.456  11.995
47179W        W13588  44.216  44.820   2.696
47180W        W13589  18.257  20.577  10.150
47181W        W13590  23.976   8.646  14.077
47182W        W13591  30.057  16.478   3.662
47183W        W13592  27.903   5.568   2.822
47184W        W13593  20.557  10.695  13.837
47185W        W13594  12.306   9.497   3.287
47186W        W13595  10.893  21.178  13.945
47187W        W13596  17.086   8.387   2.363
47188W        W13597  19.054  19.653  13.994
47189W        W13598   5.603   8.874   3.772
47190W        W13599  11.074   4.050   1.817
47191W        W13600  10.299   5.542  10.764
47192W        W13601   0.539   7.629  12.245
47193W        W13602   2.193  40.048   4.094
47194W        W13603   2.794  44.295   2.649
47195W        W13604  18.699  25.022   1.487
47196W        W13605   8.706  20.278  11.564
47197W        W13606  25.157  30.037  12.896
47198W        W13607  23.734  18.835  11.121
47199W        W13608  37.130  32.846   2.429
47200W        W13609  17.781   4.136   2.915
47201W        W13610  31.516  34.258   0.207
47202W        W13611  21.812  39.707  12.753
47203W        W13612   9.406  11.217  13.370
47204W        W13613   9.997  24.237  13.079
47205W        W13614  16.594  39.310  12.557
47206W        W13615   9.760  17.306   1.432
47207W        W13616  20.294  23.765   3.154
47208W        W13617  33.328  34.540   3.245
47209W        W13618  35.390  16.861   0.422
47210W        W13619  38.798  13.648  13.931
47211W        W13620  23.724   8.863   3.213
47212W        W13621  12.765  12.654   1.139
47213W        W13622  44.663  28.174  14.412
47214W        W13623  32.883  32.692   0.283
47215W        W13624  36.053   4.293   2.671
47216W        W13625  16.400  28.033   3.132
47217W        W13626   4.134  36.647  14.685
47218W        W13627   9.437   3.926  14.733
47219W        W13628  29.052  33.004  11.690
47220W        W13629  21.804  17.353  11.941
47221W        W13630  43.045  42.390   1.202
47222W        W13631  35.034   9.474  13.048
47223W        W13632  12.095  31.441   1.814
47224W        W13633  34.433   5.486  10.635
47225W        W13634  22.461   1.051  13.976
47226W        W13635  43.268  10.161  12.454
47227W        W13636   4.356  17.245   4.500
47228W        W13637  42.247  22.951   2.621
47229W        W13638  22.137  39.366  13.908
47230W        W13639  37.201  31.953   1.963
47231W        W13640   9.703  40.819   1.838
47232W        W13641  39.196  26.235   2.480
47233W        W13642  11.974  15.233   1.056
47234W        W13643  14.731  11.810   3.146
47235W        W13644  25.975  37.321   5.018
47236W        W13645   9.264   6.171   4.102
47237W        W13646  14.160   1.684   3.233
47238W        W13647  13.636   2.452  13.429
47239W        W13648  18.002  21.060   4.999
47240W        W13649  12.110  25.960   2.734
47241W        W13650  40.832   5.857   3.891
47242W        W13651  39.546  29.518  14.096
47243W        W13652  34.104  17.593  12.949
47244W        W13653  12.045  23.193  12.063
47245W        W13654  15.171  27.662  13.533
47246W        W13655  34.151  20.146  14.523
47247W        W13656   5.723  25.024  12.034
47248W        W13657   1.857   0.652  12.849
47249W        W13658  27.908  26.658   4.144
47250W        W13659   9.308  18.804   1.382
47251W        W13660  34.163  16.695   4.388
47252W        W13661  42.909   6.297   2.270
47253W        W13662   8.230  41.304  12.138
47254W        W13663   5.127  42.233  13.484
47255W        W13664  21.546  17.274   3.512
47256W        W13665  33.129  10.217  10.753
47257W        W13666  32.557  25.397   4.423
47258W        W13667  37.068  14.818   4.033
47259W        W13668  18.155  26.121   2.820
47260W        W13669  21.793  12.226  11.923
47261W        W13670  13.663  44.320   3.101
47262W        W13671   1.196  22.585   2.052
47263W        W13672   2.532   2.320   4.250
47264W        W13673  22.795   5.009  14.615
47265W        W13674   5.814  43.626  14.448
47266W        W13675  32.494  20.560  10.554
47267W        W13676  16.193  33.079  12.069
47268W        W13677  40.303  28.905   4.250
47269W        W13678  23.145   9.820  12.827
47270W        W13679  25.891  37.587  11.638
47271W        W13680  23.181  36.009  11.581
47272W        W13681  33.967   8.108  12.370
47273W        W13682  28.372  14.830  13.933
47274W        W13683  39.130  15.855   3.780
47275W        W13684  37.406  43.515   0.329
47276W        W13685  38.394   0.377  12.995
47277W        W13686  38.127  22.509  13.742
47278W        W13687  32.924   7.330   0.311
47279W        W13688  19.506  10.288   2.560
47280W        W13689   1.405   9.531   3.586
47281W        W13690   8.348  24.704   1.084
47282W        W13691   2.829  10.440   0.632
47283W        W13692  13.330  28.677  13.506
47284W        W13693  12.610   6.315  13.476
47285W        W13694  37.897   3.874  10.836
47286W        W13695   4.980  39.636  11.036
47287W        W13696   8.940  18.040   3.674
47288W        W13697  21.699  21.497  14.710
47289W        W13698   6.821  28.101   0.130
47290W        W13699  23.231  31.616  10.724
47291W        W13700  42.619  33.368  14.451
47292W        W13701  28.565  18.016  14.587
47293W        W13702  20.135  40.435   4.622
47294W        W13703  25.674   7.671   0.004
47295W        W13704   0.737  44.219   3.543
47296W        W13705  39.804  39.311   2.493
47297W        W13706   7.204  40.492  13.728
47298W        W13707  12.061  14.100   1.750
47299W        W13708  17.220  27.443   0.775
47300W        W13709  12.164   6.836  14.846
47301W        W13710  36.860  14.364  12.475
47302W        W13711   2.057  36.622   0.935
47303W        W13712  42.686  26.551   1.150
47304W        W13713  44.789  33.029   2.444
47305W        W13714  36.103   7.156  11.884
47306W        W13715  34.684  19.314  11.620
47307W        W13716  13.237  35.266  14.324
47308W        W13717   4.159   7.277   2.829
47309W        W13718   4.510  27.696   1.348
47310W        W13719  30.461  14.069   3.079
47311W        W13720   5.728  28.874  11.498
47312W        W13721  19.583  20.572  13.908
47313W        W13722   4.927  41.863   4.170
47314W        W13723  14.780  25.456  10.711
47315W        W13724  13.966  26.824  12.074
47316W        W13725  20.027  29.864  13.088
47317W        W13726  18.926  38.368   2.209
47318W        W13727  20.045  14.546  12.982
47319W        W13728  12.876  22.960   2.265
47320W        W13729   5.142  19.855  13.512
47321W        W13730   5.233   4.290  11.607
47322W        W13731  17.764  23.718  10.808
47323W        W13732  33.081  38.567  12.324
47324W        W13733  30.013  37.587   0.291
47325W        W13734  43.185   1.957  12.972
47326W        W13735   1.741  12.130   0.375
47327W        W13736  21.543  10.136   3.242
47328W        W13737  42.118   3.470   4.209
47329W        W13738  24.675  18.891  14.869
47330W        W13739  11.681   5.318   0.238
47331W        W13740  44.948   9.510   0.870
47332W        W13741   7.207  42.041  12.937
47333W        W13742   5.480   4.779   4.453
47334W        W13743  35.653  20.710   4.114
47335W        W13744  31.968  28.526   2.121
47336W        W13745  25.793   7.072   3.283
47337W        W13746  36.447  37.944   3.908
47338W        W13747  19.981   1.224   0.719
47339W        W13748  32.104  13.118   1.591
47340W        W13749  27.608  19.561  10.583
47341W        W13750   9.096  18.719   0.386
47342W        W13751  43.266  17.535  13.988
47343W        W13752  26.607  26.047  11.300
47344W        W13753  13.815  10.394   4.226
47345W        W13754   0.866  32.501  13.550
47346W        W13755  24.350  43.451  12.346
47347W        W13756   0.001  10.919   0.133
47348W        W13757  25.082  26.607  13.941
47349W        W13758  19.166   2.408   1.155
47350W        W13759  27.047  31.957   4.416
47351W        W13760  22.977  43.451   4.825
47352W        W13761  23.803  41.395  12.992
47353W        W13762  37.874  36.953   0.819
47354W        W13763  23.505   2.297  11.503
47355W        W13764   4.042  44.780   1.440
47356W        W13765  31.132  28.083   2.405
47357W        W13766  38.612  25.534   0.270
47358W        W13767   2.688   2.815  12.535
47359W        W13768   8.680  37.583   3.272
47360W        W13769  13.404  31.467  13.516
47361W        W13770  27.671  35.554   0.313
47362W        W13771   3.422   4.739  13.467
47363W        W13772  24.225  25.169  10.274
47364W        W13773  33.153   8.623  13.190
47365W        W13774  40.913  18.176   0.956
47366W        W13775  34.463  36.250   2.829
47367W        W13776  15.520  32.482  10.641
47368W        W13777  41.441  24.376   1.693
47369W        W13778  15.046  30.624  13.467
47370W        W13779  29.453  23.662  10.489
47371W        W13780  37.775  37.376   1.669
47372W        W13781  18.518  29.704   1.588
47373W        W13782   5.150  40.755   9.738
47374W        W13783   8.966  12.627   0.947
47375W        W13784  40.859  13.219   0.188
47376W        W13785  15.448  44.890   0.641
47377W        W13786  32.039   6.907   0.254
47378W        W13787  20.185  11.405   0.376
47379W        W13788  37.343  38.929  12.760
47380W        W13789  17.892  23.560  13.433
47381W        W13790  31.592   4.852   4.068
47382W        W13791  27.361  35.481   4.260
47383W        W13792  33.635  12.291   1.757
47384W        W13793  34.562  17.044   3.571
47385W        W13794  40.084  31.690   4.194
47386W        W13795  44.865  39.170   1.736
47387W        W13796  20.522  34.204   3.864
47388W        W13797  44.412  37.066  13.317
47389W        W13798  20.018  14.224  11.656
47390W        W13799   6.826  18.361   3.289
47391W        W13800  21.059  20.254   3.080
47392W        W13801   6.442  12.595   2.272
47393W        W13802  41.835  27.032   4.910
47394W        W13803  23.478  32.787   3.341
47395W        W13804  15.757  21.716  11.660
47396W        W13805  37.021  22.458   2.442
47397W        W13806  37.722  10.128   2.730
47398W        W13807  17.564   3.561   4.228
47399W        W13808  24.085  20.004  11.342
47400W        W13809  22.412  13.793   9.790
47401W        W13810  39.549  23.045   3.852
47402W        W13811  33.390  42.955   0.772
47403W        W13812  41.271  18.897   3.798
47404W        W13813  33.872  44.996   4.169
47405W        W13814  12.632   8.773  12.008
47406W        W13815  27.188   4.131  11.136
47407W        W13816  23.954  43.218   2.525
47408W        W13817  14.827  44.923   4.337
47409W        W13818  37.025  17.734   1.886
47410W        W13819  15.244  41.847  12.960
47411W        W13820  33.239  15.763  14.031
47412W        W13821   6.858  17.204  10.631
47413W        W13822  17.611  28.216   0.045
47414W        W13823  38.195  36.136   1.671
47415W        W13824  17.100  25.507   0.992
47416W        W13825  43.684  26.020   1.246
47417W        W13826  38.029  43.420   1.879
47418W        W13827   4.899   8.620  10.524
47419W        W13828  40.460  14.748   4.105
47420W        W13829  29.131  16.132   2.710
47421W        W13830  44.926  31.114   0.779
47422W        W13831   3.792  22.003  13.722
47423W        W13832  39.006  10.685   3.355
47424W        W13833  11.838  44.899   0.302
47425W        W13834   6.305  29.336  13.662
47426W        W13835  42.542  24.517  12.038
47427W        W13836  20.211  10.595   1.871
47428W        W13837  10.433  12.362   4.634
47429W        W13838  12.603  25.056  14.944
47430W        W13839  28.860  11.662  13.101
47431W        W13840  24.238  40.006  13.375
47432W        W13841   9.325  18.845  14.543
47433W        W13842  37.349   0.444   1.276
47434W        W13843   7.622  37.017   2.412
47435W        W13844  27.848  15.563  14.078
47436W        W13845  19.163   0.417   4.120
47437W        W13846  32.036  39.272  13.460
47438W        W13847   0.283   3.464   1.868
47439W        W13848  26.258  16.205   0.500
47440W        W13849  17.727  25.933   2.601
47441W        W13850  15.588   0.023  14.389
47442W        W13851   0.536  15.194  12.046
47443W        W13852   1.259  33.559   3.377
47444W        W13853  36.591  20.186   4.435
47445W        W13854   0.482  32.855  14.756
47446W        W13855  17.983   4.018   1.136
47447W        W13856   6.583   6.256  14.284
47448W        W13857  40.868  39.039   3.733
47449W        W13858  43.478  17.279  13.550
47450W        W13859   8.649   9.997  12.800
47451W        W13860  23.203  41.006  11.246
47452W        W13861   5.406  23.092   0.027
47453W        W13862  15.784  34.083  10.208
47454W        W13863  36.079  35.515  12.204
47455W        W13864  37.334  10.860   0.258
47456W        W13865  35.566  16.967   3.227
47457W        W13866  29.557   5.169   4.926
47458W        W13867  21.179  24.229   2.337
47459W        W13868   1.446  14.127   2.175
47460W        W13869  24.215  16.306   0.165
47461W        W13870  44.871   5.509   1.348
47462W        W13871  11.708  22.999   2.416
47463W        W13872  27.277  10.896   2.545
47464W        W13873  22.893  25.717  10.149
47465W        W13874  43.509  20.076   1.506
47466W        W13875   2.968  36.102  11.865
47467W        W13876  13.343  15.666   3.465
47468W        W13877  15.215   0.305  10.067
47469W        W13878  19.357  36.313  12.472
47470W        W13879   9.629   7.670  12.271
47471W        W13880   3.667   5.616  14.741
47472W        W13881  19.224  14.517  12.237
47473W        W13882  28.849  42.866   1.410
47474W        W13883  38.254  19.824   1.761
47475W        W13884   3.289   3.807  13.466
47476W        W13885   8.902  10.581   3.272
47477W        W13886  16.736  14.769  10.665
47478W        W13887  33.568  21.532   0.462
47479W        W13888  37.403  12.147   3.249
47480W        W13889  17.155   8.333  10.758
47481W        W13890  18.265  31.677   0.733
47482W        W13891  14.916  21.246   1.767
47483W        W13892  18.323  24.748   2.753
47484W        W13893  12.693  13.987   0.487
47485W        W13894  15.288   4.394  12.942
47486W        W13895  12.308  24.792   0.519
47487W        W13896  44.229  30.786  12.149
47488W        W13897  42.784   6.963  12.623
47489W        W13898   6.679  21.992  10.618
47490W        W13899  38.552   6.135  14.265
47491W        W13900  16.159  20.110   5.233
47492W        W13901  42.920  29.443   3.659
47493W        W13902  15.078  19.573  12.918
47494W        W13903  12.392  36.805   2.635
47495W        W13904   1.608   9.787   3.161
47496W        W13905   6.729  26.542  10.586
47497W        W13906  21.692  27.197   1.210
47498W        W13907  12.166   5.884  14.833
47499W        W13908  26.090  31.506   3.215
47500W        W13909   7.776  11.544  14.981
47501W        W13910  41.265  34.411  10.762
47502W        W13911  29.257  34.890   1.200
47503W        W13912  28.006  28.501  14.983
47504W        W13913  37.930  19.135  11.292
47505W        W13914   8.665  39.903  12.508
47506W        W13915   8.277  13.046   4.624
47507W        W13916  42.696  16.723   5.467
47508W        W13917  26.861  28.518   3.173
47509W        W13918  43.058   3.904   2.765
47510W        W13919  27.132  26.621  11.728
47511W        W13920  25.802   3.747  14.838
47512W        W13921  25.909  41.972   2.133
47513W        W13922  12.754  34.687  13.808
47514W        W13923  24.091  15.362  11.987
47515W        W13924  43.909  25.516  12.020
47516W        W13925  18.795  13.302   4.375
47517W        W13926   9.327   7.500  10.793
47518W        W13927  17.184  39.301   2.263
47519W        W13928  44.449  24.455  11.571
47520W        W13929   4.828  36.612  12.423
47521W        W13930  24.035  16.615  14.302
47522W        W13931   3.092   3.144  13.168
47523W        W13932  37.509  44.441   0.360
47524W        W13933  29.996  29.365  10.681
47525W        W13934   6.690  18.179   4.282
47526W        W13935   3.891  35.277   4.518
47527W        W13936  42.978  13.621   4.310
47528W        W13937  21.712  16.878   0.384
47529W        W13938  18.278  13.157  13.097
47530W        W13939   8.224  44.891  14.100
47531W        W13940  36.565  30.733  12.188
47532W        W13941  10.117  29.497  14.546
47533W        W13942  12.754  20.276  14.037
47534W        W13943  33.854  19.688  13.704
47535W        W13944  24.099  16.049  13.421
47536W        W13945  26.373   7.655   5.021
47537W        W13946  10.916  19.535   2.329
47538W        W13947  30.503  31.908   4.055
47539W        W13948  30.973  42.611   1.807
47540W        W13949  35.524  25.481  14.037
47541W        W13950  15.055  41.550   0.931
47542W        W13951  27.020  14.945   1.831
47543W        W13952   6.237   5.849  11.773
47544W        W13953  35.943   2.643   1.891
47545W        W13954  34.927   9.231  11.618
47546W        W13955  39.992  34.040  12.324
47547W        W13956  34.986  22.733  10.313
47548W        W13957  41.322  15.893  12.608
47549W        W13958  28.428  33.877  10.850
47550W        W13959   9.250  18.321   4.515
47551W        W13960  10.089  25.011  11.489
47552W        W13961  14.633  14.670   0.700
47553W        W13962   5.024  10.625  14.513
47554W        W13963  12.764  15.140  12.966
47555W        W13964  17.717   1.378   3.615
47556W        W13965  28.444  35.360   2.751
47557W        W13966  24.253   7.864   0.766
47558W        W13967  37.204  33.079   3.439
47559W        W13968   1.706  19.407  11.573
47560W        W13969  34.072  21.917  12.038
47561W        W13970  12.205  34.996   0.551
47562W        W13971  30.727  11.766  12.364
47563W        W13972  11.845  20.081  14.971
47564W        W13973  26.674  15.220   2.801
47565W        W13974  14.551  43.989   2.281
47566W        W13975   4.549  21.497  11.122
47567W        W13976  29.577  21.567  12.760
47568W        W13977  33.125  34.486   2.712
47569W        W13978   5.988  27.720   1.816
47570W        W13979  34.068  43.434  13.935
47571W        W13980  43.346  20.217  13.841
47572W        W13981  28.554  38.717  11.192
47573W        W13982  26.246  21.780  13.967
47574W        W13983  19.182   8.692   0.373
47575W        W13984  39.151  13.203   0.679
47576W        W13985  12.701  32.028   0.794
47577W        W13986  28.533   2.890  11.096
47578W        W13987   4.761  32.611  10.718
47579W        W13988   3.027  12.837  13.541
47580W        W13989  27.485  40.913   2.145
47581W        W13990  22.764  32.470   2.354
47582W        W13991  43.257  10.357   0.217
47583W        W13992  43.381   7.979  11.482
47584W        W13993  27.529  26.201   2.213
47585W        W13994  28.409   0.972  12.073
47586W        W13995  28.876   3.013   2.767
47587W        W13996  33.669  41.564   2.986
47588W        W13997   9.837  23.925   3.126
47589W        W13998  30.966  13.636   0.511
47590W        W13999  27.493   4.596  11.601
47591W        W14000  20.055   1.939  14.122
47592W        W14001  43.545  33.890   4.141
47593W        W14002  39.136  35.080   3.241
47594W        W14003  34.845  13.820  11.109
47595W        W14004  20.231  30.679   3.615
47596W        W14005  16.351  42.924  11.347
47597W        W14006   8.404  43.860   4.140
47598W        W14007  14.866  34.478   4.950
47599W        W14008  27.614  18.054  13.286
47600W        W14009  14.111  43.415  12.271
47601W        W14010  33.185   1.861  13.082
47602W        W14011  34.059  36.560  11.485
47603W        W14012  32.106  27.360  13.442
47604W        W14013   7.797  16.545   3.374
47605W        W14014   0.282   0.281  12.956
47606W        W14015  29.889   1.958   3.699
47607W        W14016  25.576  12.149  11.203
47608W        W14017  40.771   1.747   2.305
47609W        W14018  42.437  24.982  13.536
47610W        W14019   8.991  44.396  12.368
47611W        W14020  22.492   4.167   2.203
47612W        W14021  30.749  11.473  11.954
47613W        W14022  27.686   2.960   0.808
47614W        W14023  32.813  34.453   3.161
47615W        W14024  24.595  26.989   1.171
47616W        W14025  17.359  11.245  13.828
47617W        W14026   1.870  30.157  11.959
47618W        W14027  44.863  40.313  12.787
47619W        W14028   0.309   2.949  12.977
47620W        W14029   4.808  42.035  12.400
47621W        W14030  19.081  17.071   0.711
47622W        W14031  10.623  34.566   0.812
47623W        W14032  28.134   0.167   2.330
47624W        W14033  17.083  43.944  14.966
47625W        W14034  24.273  44.330  13.826
47626W        W14035  17.341  29.413  12.550
47627W        W14036  17.049   5.443  13.904
47628W        W14037  23.533  35.322  14.079
47629W        W14038  37.026  34.264  12.121
47630W        W14039  30.046  42.685  11.121
47631W        W14040  16.784  16.746   2.152
47632W        W14041   3.657   2.325   0.923
47633W        W14042  14.134  27.178  14.877
47634W        W14043  17.623  36.971   1.725
47635W        W14044  15.314  33.398   4.416
47636W        W14045  43.424  27.081   2.680
47637W        W14046  42.702  18.717   3.181
47638W        W14047  30.339  33.066  11.141
47639W        W14048  44.545  18.597   0.438
47640W        W14049  13.632  31.145  13.881
47641W        W14050  44.918  36.591   0.961
47642W        W14051   0.476  20.467  14.283
47643W        W14052  35.266  12.851   3.821
47644W        W14053  22.466   5.291  12.219
47645W        W14054   4.958  17.674   3.192
47646W        W14055  17.279   0.411  12.383
47647W        W14056  19.704  33.468   2.014
47648W        W14057  29.076  36.044   0.041
47649W        W14058  42.423  44.896  12.030
47650W        W14059  23.559  31.834   3.204
47651W        W14060  10.356   4.033   4.373
47652W        W14061  36.009  39.756   3.619
47653W        W14062  39.712  38.844  12.652
47654W        W14063  19.134   7.358  12.240
47655W        W14064  38.203  21.258  12.553
47656W        W14065   8.132   4.904  13.964
47657W        W14066   5.536  16.058   3.993
47658W        W14067  22.707  19.254   2.282
47659W        W14068   1.529  33.491   2.711
47660W        W14069  42.063  24.109   0.405
47661W        W14070   9.931  26.718  11.460
47662W        W14071   2.806  36.118   4.911
47663W        W14072  16.763  13.254   2.106
47664W        W14073  33.167  23.871   4.615
47665W        W14074  12.821  31.883   0.236
47666W        W14075  29.080  41.412  13.656
47667W        W14076  35.062   7.287   2.272
47668W        W14077  19.668  14.394  10.969
47669W        W14078  22.152  40.594   1.895
47670W        W14079  18.932  35.847   5.024
47671W        W14080  35.811  16.720   1.345
47672W        W14081  17.915  44.928  11.056
47673W        W14082  39.237  39.545  11.773
47674W        W14083   6.720  34.607   4.639
47675W        W14084   8.966   9.537   0.874
47676W        W14085  35.018  12.317  14.270
47677W        W14086  10.861   4.376  11.529
47678W        W14087  42.950   3.278   5.189
47679W        W14088  29.327  20.760   4.942
47680W        W14089  43.412   6.107  14.464
47681W        W14090  17.100  19.956  12.879
47682W        W14091   2.491  13.575  11.671
47683W        W14092   5.425  12.041   3.685
47684W        W14093  13.245  40.934  12.916
47685W        W14094  13.873  44.817   1.560
47686W        W14095  44.335   9.926   2.204
47687W        W14096  35.321  28.740  11.146
47688W        W14097  19.724  34.694   2.678
47689W        W14098  35.918  23.625  12.524
47690W        W14099  25.869   7.521   4.991
47691W        W14100  25.260   9.188   2.181
47692W        W14101  41.922  36.026   2.918
47693W        W14102  11.175  39.623   4.119
47694W        W14103  17.595  26.998  11.512
47695W        W14104  42.268   8.383   4.087
47696W        W14105  19.088   6.862  12.967
47697W        W14106  29.914  14.543  13.048
47698W        W14107  16.375  33.672   3.163
47699W        W14108  37.836  31.523  13.818
47700W        W14109  17.723  30.614   0.524
47701W        W14110   8.803  16.256  12.841
47702W        W14111   0.541  32.381  10.651
47703W        W14112  21.027  23.007   0.307
47704W        W14113  21.763  18.105  11.648
47705W        W14114  28.783  21.634   3.197
47706W        W14115  27.609  17.209  11.088
47707W        W14116  44.129   9.246  13.804
47708W        W14117   2.593  44.453  11.231
47709W        W14118  18.102  29.156   1.431
47710W        W14119  15.127   0.817   2.695
47711W        W14120  18.553  27.958  14.056
47712W        W14121  16.329  15.699  13.565
47713W        W14122  43.290  23.271   3.595
47714W        W14123  28.849  10.216   4.884
47715W        W14124  13.253   7.318  14.297
47716W        W14125  27.218  15.967   1.880
47717W        W14126  10.544   5.636   2.164
47718W        W14127  37.836   5.331   2.406
47719W        W14128  12.045   1.624  12.636
47720W        W14129   4.135  12.676   1.814
47721W        W14130  32.264   2.751  13.955
47722W        W14131   8.417  15.285   3.256
47723W        W14132  39.566  20.838   3.652
47724W        W14133  19.103  32.944  13.897
47725W        W14134   0.063  12.202  14.306
47726W        W14135  25.116  14.499   1.172
47727W        W14136  11.849  33.998  14.825
47728W        W14137  42.735  41.870   4.782
47729W        W14138   5.449   2.170  13.453
47730W        W14139   8.412  10.734   1.389
47731W        W14140   2.217  28.805  11.825
47732W        W14141  36.797  27.554   0.392
47733W        W14142  10.252  17.319  12.020
47734W        W14143  16.828   8.387  12.876
47735W        W14144  37.905  17.116  11.685
47736W        W14145   1.207   7.277  14.409
47737W        W14146  26.010  38.344   4.140
47738W        W14147  23.810  28.474   1.692
47739W        W14148  35.887  41.828   0.367
47740W        W14149  43.527  11.040   2.223
47741W        W14150   2.979   3.389  13.609
47742W        W14151  39.492   6.319  12.510
47743W        W14152  43.254  21.856  14.815
47744W        W14153  41.896  40.323  14.465
47745W        W14154  27.085   0.756  12.705
47746W        W14155  25.485  29.402  14.898
47747W        W14156  16.691  16.578  14.398
47748W        W14157  29.173   1.863   2.620
47749W        W14158  42.495  15.043   0.360
47750W        W14159  29.704  44.951   3.141
47751W        W14160   1.501  11.227  14.985
47752W        W14161  11.978  34.427  14.469
47753W        W14162  26.862   0.194  11.807
47754W        W14163  41.965   7.791  13.781
47755W        W14164  34.729  34.792   4.809
47756W        W14165  35.503  13.139   3.209
47757W        W14166  20.697   7.820  10.711
47758W        W14167  19.530  43.095   4.549
47759W        W14168   8.480  39.440  14.456
47760W        W14169  39.925  40.868  14.744
47761W        W14170  20.468  32.292  12.486
47762W        W14171  10.733  19.981   2.127
47763W        W14172  31.387   7.062   2.833
47764W        W14173  19.762  26.244  11.447
47765W        W14174  26.956  11.038  14.775
47766W        W14175   3.438  22.146   1.426
47767W        W14176  21.011   8.723  13.089
47768W        W14177  14.142  37.968   1.825
47769W        W14178  20.074  16.642   4.592
47770W        W14179  19.779  26.390  10.968
47771W        W14180  11.382  10.215   2.689
47772W        W14181  15.747  15.048   0.935
47773W        W14182   8.544  27.869   4.487
47774W        W14183   1.796   4.751   2.244
47775W        W14184  35.314   3.171   1.574
47776W        W14185  42.626   6.986   9.922
47777W        W14186  30.525  36.161  13.533
47778W        W14187   7.747   2.512  12.000
47779W        W14188   4.717  20.168  12.357
47780W        W14189  16.170  33.882   1.266
47781W        W14190  31.738   6.443  12.567
47782W        W14191  37.331  38.372  13.352
47783W        W14192  21.965  40.413  13.495
47784W        W14193  27.166   0.746  13.779
47785W        W14194  22.755   2.598  11.168
47786W        W14195   3.728  18.880   0.208
47787W        W14196  25.648  33.255  11.901
47788W        W14197   3.504  23.287  10.294
47789W        W14198  29.182  44.908  12.534
47790W        W14199  30.567  28.840  14.873
47791W        W14200   4.773  14.090   4.936
47792W        W14201   1.182  23.213  11.680
47793W        W14202  14.238  25.581  10.755
47794W        W14203  30.045  26.024  11.586
47795W        W14204  15.066   1.434  10.560
47796W        W14205  29.011  40.974  14.922
47797W        W14206  40.895   1.506  11.090
47798W        W14207  35.506   3.277  14.562
47799W        W14208   5.462  28.059   2.651
47800W        W14209  40.987  12.140  10.800
47801W        W14210  36.568  26.398  12.708
47802W        W14211  19.327  20.087   4.132
47803W        W14212  27.957  38.882   3.151
47804W        W14213   6.237  23.185  12.112
47805W        W14214  26.109   1.420   3.958
47806W        W14215  10.883  12.080   4.586
47807W        W14216  13.545  28.925  11.106
47808W        W14217  36.315   1.331   4.146
47809W        W14218  21.744  34.572   2.269
47810W        W14219  24.562   9.859   4.509
47811W        W14220  34.638  26.590  12.457
47812W        W14221   5.154  20.058  14.804
47813W        W14222  18.344  41.095  13.000
47814W        W14223  28.861  32.217   4.594
47815W        W14224  16.115  24.203  13.338
47816W        W14225   1.666  28.360  11.530
47817W        W14226  41.102  24.194  11.903
47818W        W14227  25.905  32.801   1.364
47819W        W14228  38.912  31.007   0.675
47820W        W14229  28.322  13.235   1.902
47821W        W14230  39.854   4.954   4.394
47822W        W14231  29.583   1.954   1.393
47823W        W14232  21.664  40.118  12.485
47824W        W14233  23.477  11.817  14.940
47825W        W14234   8.276  43.937  11.321
47826W        W14235   8.471  23.742   1.947
47827W        W14236  15.363   3.527   0.257
47828W        W14237  34.164  16.207   4.158
47829W        W14238  14.869   0.916   4.624
47830W        W14239  22.808  17.871   1.844
47831W        W14240  25.923  40.706   3.231
47832W        W14241  16.747  12.469  13.853
47833W        W14242  44.620  34.354  11.633
47834W        W14243   1.277   9.397  11.055
47835W        W14244   8.961  38.436   4.577
47836W        W14245  41.759   0.621  12.999
47837W        W14246  25.133  18.361  11.984
47838W        W14247  26.886   0.955   2.909
47839W        W14248  35.087  33.643  13.509
47840W        W14249  38.262  35.346   1.274
47841W        W14250  29.527  25.549  14.806
47842W        W14251  27.159   3.567   4.163
47843W        W14252  32.764  39.751   3.857
47844W        W14253  16.044  32.199   4.160
47845W        W14254  19.622   9.881  10.755
47846W        W14255  12.794  35.362   3.987
47847W        W14256  10.205   5.409  12.881
47848W        W14257  27.600  20.157   4.817
47849W        W14258  36.037   9.762   4.168
47850W        W14259   3.259  30.548  12.056
47851W        W14260  15.380  15.113  11.975
47852W        W14261   7.012   0.791   4.466
47853W        W14262  37.864  32.524  10.611
47854W        W14263  33.242  29.519   3.942
47855W        W14264  12.852  38.123  13.293
47856W        W14265  33.132  37.501   1.700
47857W        W14266   6.152  20.369   3.679
47858W        W14267  40.997  16.050   4.736
47859W        W14268  32.348   5.259  13.105
47860W        W14269  34.032  35.440  12.422
47861W        W14270  43.153   1.220   3.969
47862W        W14271  24.478   7.180   4.372
47863W        W14272  33.164   5.209   9.802
47864W        W14273   4.522  39.867   4.456
47865W        W14274  21.442  18.309   2.097
47866W        W14275  41.967  13.540  12.364
47867W        W14276  24.209  29.885   3.230
47868W        W14277  21.428  30.159   3.263
47869W        W14278  16.652   3.011   2.804
47870W        W14279   4.857  11.432  12.374
47871W        W14280  32.980  34.600  13.442
47872W        W14281  29.199  39.354   2.262
47873W        W14282  44.605  18.950  13.388
47874W        W14283  36.364  15.837  13.687
47875W        W14284  14.509   3.362   2.246
47876W        W14285   9.672  31.201  13.890
47877W        W14286  17.275  35.107   3.717
47878W        W14287  19.186   9.804  11.661
47879W        W14288   5.701  22.695   2.398
47880W        W14289  28.089  40.528   1.356
47881W        W14290  10.767  26.165  14.419
47882W        W14291  13.711  44.998  12.387
47883W        W14292   6.288  13.814  11.586
47884W        W14293  27.506  19.838   0.556
47885W        W14294  13.848   4.132   2.639
47886W        W14295  35.107  24.010   0.734
47887W        W14296  40.547  16.527   0.413
47888W        W14297  12.049   5.435   3.152
47889W        W14298  11.331  22.394   4.634
47890W        W14299  25.031  35.601  12.025
47891W        W14300   2.995  28.554  11.151
47892W        W14301  25.097  10.285  14.857
47893W        W14302  24.458   9.586  12.537
47894W        W14303  18.346   2.780  11.230
47895W        W14304   8.742  14.879  12.858
47896W        W14305  22.584  35.075  12.063
47897W        W14306  16.247  38.066   3.357
47898W        W14307   4.557  24.105   3.718
47899W        W14308  28.710   9.427  11.598
47900W        W14309  38.541  37.889   1.783
47901W        W14310  28.613  16.413  11.111
47902W        W14311  35.670   4.018   3.666
47903W        W14312  34.978  11.383   2.292
47904W        W14313  18.733   2.015  12.463
47905W        W14314  14.762   3.656  11.976
47906W        W14315  22.747   3.336   1.661
47907W        W14316  26.711  22.027  13.826
47908W        W14317   8.226  20.049  10.848
47909W        W14318  38.359  36.987   1.223
47910W        W14319  29.067  23.432   0.281
47911W        W14320  15.265  33.938   0.792
47912W        W14321  26.008  38.736   3.825
47913W        W14322  14.885  27.562   0.027
47914W        W14323  30.412   2.717   3.600
47915W        W14324  44.786  31.650   3.071
47916W        W14325  44.083   3.247  14.559
47917W        W14326  28.759   4.940  11.421
47918W        W14327  29.125   4.828   0.396
47919W        W14328  31.144  36.522   3.356
47920W        W14329   3.253  20.515   1.726
47921W        W14330  43.218  42.199  10.974
47922W        W14331  25.919  17.734   3.263
47923W        W14332   9.825   0.327  11.854
47924W        W14333   5.893   5.149  13.443
47925W        W14334   7.235  17.713  11.987
47926W        W14335  21.235  36.290  13.328
47927W        W14336  41.245  38.520  14.330
47928W        W14337   2.425  17.168  12.085
47929W        W14338   5.810   6.127   4.178
47930W        W14339   9.542  11.684  13.209
47931W        W14340   6.953  33.044  11.163
47932W        W14341  39.592   9.486  12.532
47933W        W14342  13.008  27.039   4.758
47934W        W14343  35.029  28.791   2.468
47935W        W14344  31.996  41.003   2.318
47936W        W14345  41.941  29.418  11.661
47937W        W14346  44.437  19.704  14.318
47938W        W14347  44.890   1.432   2.787
47939W        W14348   4.528  23.873  14.272
47940W        W14349  10.712   5.154   2.203
47941W        W14350  34.161  15.397  13.824
47942W        W14351  44.350   7.252  11.421
47943W        W14352   0.697  17.049  11.507
47944W        W14353  40.838  17.008   4.456
47945W        W14354  22.416  40.302  12.117
47946W        W14355  10.547   1.400   3.023
47947W        W14356  22.602  37.513   4.183
47948W        W14357   5.806  10.761   3.164
47949W        W14358  23.742  35.716   1.259
47950W        W14359  40.205  30.720   9.746
47951W        W14360  34.333   4.881   0.247
47952W        W14361   1.428  26.021   3.813
47953W        W14362  36.039  11.033   4.640
47954W        W14363  20.419   0.563   0.271
47955W        W14364  34.994   9.106   0.964
47956W        W14365   8.653  17.514  11.608
47957W        W14366  15.615  40.821  12.366
47958W        W14367  29.302   5.301   1.139
47959W        W14368   6.349  33.978  11.426
47960W        W14369   8.020  33.872  12.174
47961W        W14370  23.023  10.824  13.129
47962W        W14371  34.876   0.131   5.022
47963W        W14372  34.374   6.388  10.124
47964W        W14373  12.223  31.122   5.065
47965W        W14374  41.313   7.773   2.902
47966W        W14375   3.805  29.763   0.883
47967W        W14376  33.781  40.579  12.992
47968W        W14377   0.880   7.090  13.982
47969W        W14378  31.452   7.239   0.828
47970W        W14379  25.236  32.471  10.430
47971W        W14380  27.904  13.833   4.259
47972W        W14381  40.740  19.232   1.750
47973W        W14382  21.187  10.564   3.173
47974W        W14383  34.874   0.533  10.935
47975W        W14384  20.269  38.502  10.526
47976W        W14385  12.598   7.430  10.677
47977W        W14386  35.956   1.788   0.191
47978W        W14387   8.321  35.789   0.849
47979W        W14388  21.230  23.377  12.937
47980W        W14389  17.192  26.412  13.513
47981W        W14390   8.971   2.850  11.374
47982W        W14391  16.314  31.428  14.442
47983W        W14392  33.112  11.510   0.038
47984W        W14393  16.162  44.251   3.477
47985W        W14394   4.311  15.218  13.312
47986W        W14395   0.948   7.182   4.985
47987W        W14396  37.304  20.240  12.325
47988W        W14397  16.793   4.526  10.377
47989W        W14398  15.037  11.271  14.323
47990W        W14399  10.337  12.715  13.069
47991W        W14400   2.779  19.579  12.465
47992W        W14401   6.335  34.412   2.280
47993W        W14402   9.770  21.924   2.698
47994W        W14403  22.630   7.888  12.255
47995W        W14404  24.121   3.924   3.632
47996W        W14405  13.281   7.754  12.364
47997W        W14406   7.764  11.678  11.567
47998W        W14407   4.437   8.109  12.530
47999W        W14408  10.128  24.325   4.994
48000W        W14409  40.912   3.598  13.682
48001W        W14410   5.247  34.902  10.787
48002W        W14411   1.469   4.328  12.651
48003W        W14412   9.937  34.122   1.137
48004W        W14413   0.953   5.867  14.287
48005W        W14414   3.484  30.461  12.922
48006W        W14415   9.738  34.649  10.241
48007W        W14416   0.412  23.216   0.303
48008W        W14417   9.749  32.811  11.607
48009W        W14418  39.667  42.819  14.833
48010W        W14419  25.919  26.089   0.319
48011W        W14420  14.315   4.413   1.067
48012W        W14421   0.725  11.316   0.317
48013W        W14422  43.288  22.761  14.271
48014W        W14423   7.549   8.051   4.756
48015W        W14424  21.462  40.114  12.960
48016W        W14425   7.294   7.854   0.718
48017W        W14426  12.303  30.284   0.475
48018W        W14427  13.822  44.149  11.134
48019W        W14428  39.372  44.822  10.641
48020W        W14429  20.189   5.145   3.172
48021W        W14430  20.132  39.189  14.223
48022W        W14431  39.258  22.374  10.806
48023W        W14432  30.622  34.057  12.416
48024W        W14433  36.073  43.950  11.183
48025W        W14434  29.295  40.654   4.032
48026W        W14435  26.004  28.210   4.235
48027W        W14436  40.556  17.728  14.061
48028W        W14437  13.322  36.349  11.027
48029W        W14438  12.314   4.689  12.454
48030W        W14439  16.907  21.289   0.775
48031W        W14440  23.080  30.033   2.853
48032W        W14441  14.254  39.621  10.496
48033W        W14442  38.098  10.562   1.873
48034W        W14443  28.973   1.452   2.355
48035W        W14444  39.305  13.083  10.541
48036W        W14445  16.525   4.078   1.400
48037W        W14446   2.367  28.194  12.206
48038W        W14447  10.147  31.082  13.411
48039W        W14448  11.189  22.986   2.346
48040W        W14449   6.663  32.971  12.109
48041W        W14450  31.221  21.125   3.174
48042W        W14451  27.529  37.868  13.661
48043W        W14452   1.980  16.531  13.851
48044W        W14453   8.504  26.608   0.322
48045W        W14454  21.097  21.171   2.133
48046W        W14455  38.389  34.192   2.771
48047W        W14456  40.065   4.345   3.247
48048W        W14457  17.326  32.826   1.841
48049W        W14458  27.789   1.793  11.642
48050W        W14459  15.838  37.768  13.317
48051W        W14460  42.612  40.455  14.108
48052W        W14461  26.497  29.040  10.460
48053W        W14462  37.046  19.464  13.957
48054W        W14463   7.887  14.654   1.780
48055W        W14464  38.386  41.390   0.900
48056W        W14465  15.730   0.744  10.959
48057W        W14466  10.423  35.655  11.939
48058W        W14467  29.052   3.045  11.625
48059W        W14468   9.114  36.478  12.025
48060W        W14469  14.741   8.563  12.863
48061W        W14470  14.853  28.955   2.869
48062W        W14471   0.789  19.659  13.470
48063W        W14472  42.730  35.354   0.462
48064W        W14473   5.677  26.683   0.921
48065W        W14474  20.566  23.464   4.029
48066W        W14475   0.429  37.288   1.382
48067W        W14476  21.989   8.082   2.592
48068W        W14477  30.342  34.581   0.306
48069W        W14478  11.284  41.706  12.049
48070W        W14479  12.913  17.277  12.794
48071W        W14480  22.687  22.065   3.405
48072W        W14481  19.555  23.487  13.960
48073W        W14482  24.218  33.601  11.802
48074W        W14483  40.801  21.677  13.132
48075W        W14484  39.935  40.622   0.645
48076W        W14485  33.870  35.420   1.956
48077W        W14486  13.018  13.439  11.264
48078W        W14487   4.875  28.051   3.881
48079W        W14488  16.348  35.150   3.407
48080W        W14489  15.135   9.409   4.132
48081W        W14490  14.071  21.032   3.166
48082W        W14491  32.705  17.590  14.811
48083W        W14492  28.119  23.803   0.266
48084W        W14493  36.299  29.398   2.987
48085W        W14494  31.867  42.361   3.179
48086W        W14495  39.793  17.881  14.148
48087W        W14496  13.181  40.376   0.715
48088W        W14497  21.756  15.555   2.826
48089W        W14498  41.480  16.499   1.220
48090W        W14499  12.292  41.007   4.461
48091W        W14500  39.908   3.267  10.041
48092W        W14501  26.444  41.163  14.885
48093W        W14502  39.265   7.146   4.189
48094W        W14503  19.048   3.207   2.563
48095W        W14504  37.292  13.620   0.028
48096W        W14505   5.860   1.054  10.449
48097W        W14506  29.042  32.628   4.270
48098W        W14507   2.480  13.688   0.106
48099W        W14508   4.411  17.852  12.927
48100W        W14509   6.827  28.183   5.012
48101W        W14510  22.559  12.876   3.142
48102W        W14511  30.057  44.234   4.299
48103W        W14512  38.270  25.281   4.528
48104W        W14513   0.780  15.007  10.770
48105W        W14514  20.141  38.334   3.751
48106W        W14515  29.213  42.388   0.706
48107W        W14516  37.516  41.256   4.634
48108W        W14517  41.258  10.591   0.773
48109W        W14518   9.650  25.994  14.421
48110W        W14519  28.791   2.163   1.871
48111W        W14520  44.257  11.666   0.889
48112W        W14521  25.630   7.281  11.933
48113W        W14522  42.769  34.323  13.596
48114W        W14523   7.725  40.857   0.717
48115W        W14524  14.287  15.403   3.297
48116W        W14525  31.399  40.999  10.692
48117W        W14526   7.223  20.546  14.322
48118W        W14527  19.565  38.219  11.176
48119W        W14528  37.586   9.297  12.482
48120W        W14529   3.540   4.893  10.497
48121W        W14530   0.912  38.272  11.937
48122W        W14531  42.356  26.986   2.713
48123W        W14532  38.538  44.360   0.351
48124W        W14533  37.921  21.265   4.222
48125W        W14534  36.087  19.662   0.375
48126W        W14535  26.984  36.108  10.346
48127W        W14536  12.523  33.282   0.246
48128W        W14537  16.318  12.093   3.901
48129W        W14538  28.373  42.961  13.497
48130W        W14539  29.896  23.272  11.492
48131W        W14540  29.960  36.888   3.696
48132W        W14541  10.777  37.367  13.844
48133W        W14542  12.246  41.539  13.386
48134W        W14543  27.486  30.796  10.483
48135W        W14544  21.824  19.029  12.816
48136W        W14545   2.473  28.503   0.778
48137W        W14546  13.240  34.564  10.770
48138W        W14547   2.426   3.164  12.851
48139W        W14548  34.013  40.119  13.073
48140W        W14549  41.884  14.735   4.473
48141W        W14550  15.363   5.907  11.510
48142W        W14551  34.538  39.795  11.921
48143W        W14552  19.777  30.962  11.165
48144W        W14553  18.503  39.808  12.834
48145W        W14554  23.941  24.532  13.381
48146W        W14555  15.206  10.264  11.799
48147W        W14556  18.255   2.332  14.528
48148W        W14557  22.910  29.431  12.189
48149W        W14558  12.597  30.795   3.635
48150W        W14559  11.437  26.479  13.997
48151W        W14560  12.843  38.086   2.852
48152W        W14561  29.233   5.037   4.186
48153W        W14562  44.484  35.343   0.702
48154W        W14563  35.110   5.508  14.856
48155W        W14564  37.465  26.427   1.457
48156W        W14565  16.731  34.645   1.270
48157W        W14566   1.289  30.401  13.094
48158W        W14567  28.897  34.858  11.486
48159W        W14568  33.934  41.909   4.632
48160W        W14569   2.940   0.528   2.232
48161W        W14570   9.978  29.300   3.526
48162W        W14571  16.207  36.348   2.329
48163W        W14572   9.261  15.519   3.765
48164W        W14573  20.827  37.936   1.340
48165W        W14574  13.246  36.402  13.163
48166W        W14575  24.069   1.039  11.408
48167W        W14576  21.028  40.487  13.021
48168W        W14577   2.340  13.833   2.602
48169W        W14578   9.147  37.355   4.253
48170W        W14579  36.009  43.952   2.179
48171W        W14580  39.439  11.039  11.632
48172W        W14581  43.821  20.639  10.732
48173W        W14582  18.065  41.058   4.968
48174W        W14583   3.201   6.819  12.507
48175W        W14584   9.648  28.672  10.475
48176W        W14585  23.646   1.307  14.480
48177W        W14586  39.543  32.548  10.668
48178W        W14587   0.079  15.245   3.334
48179W        W14588  37.381  44.288  13.642
48180W        W14589  24.243  37.134  14.989
48181W        W14590  38.599  43.841  14.943
48182W        W14591  19.858  44.388   3.656
48183W        W14592  14.085  32.036   4.151
48184W        W14593   7.726  29.005  14.696
48185W        W14594  39.609  43.621   3.397
48186W        W14595  14.919  19.559  14.275
48187W        W14596   4.795   0.921   1.425
48188W        W14597  43.642  26.886   3.170
48189W        W14598  19.301   1.926   1.312
48190W        W14599  19.602   5.231  13.197
48191W        W14600  33.223  26.631  11.657
48192W        W14601   7.468   6.884   0.966
48193W        W14602  32.947   2.639  14.339
48194W        W14603  42.324  18.010  12.459
48195W        W14604  36.899  39.250  13.478
48196W        W14605  36.721  16.613   5.161
48197W        W14606  30.756  37.963   3.750
48198W        W14607  24.490  21.034   2.227
48199W        W14608  44.916  15.198  12.884
48200W        W14609  28.573   4.854   0.521
48201W        W14610  32.580  24.332   1.397
48202W        W14611   6.018  22.687   1.747
48203W        W14612  40.940  38.986   2.649
48204W        W14613  29.922  18.226  11.979
48205W        W14614  15.364  17.528   3.498
48206W        W14615   3.495  11.213   1.123
48207W        W14616  30.720  44.652  12.451
48208W        W14617  40.101  44.407   5.031
48209W        W14618  33.764   4.739  11.632
48210W        W14619  16.598  18.226  11.041
48211W        W14620  27.791   8.220  12.849
48212W        W14621  42.979  41.240   0.775
48213W        W14622  32.288  42.863   0.915
48214W        W14623  22.066  43.123  11.533
48215W        W14624  20.790  24.849  11.175
48216W        W14625  10.596  20.644  14.797
48217W        W14626  40.971  12.406   2.336
48218W        W14627   7.009  32.133  14.906
48219W        W14628   0.798  42.958  13.971
48220W        W14629   0.801  12.229   1.181
48221W        W14630  21.498  17.134   2.193
48222W        W14631  24.166   9.839  13.841
48223W        W14632  29.591  37.585  12.260
48224W        W14633  12.033  41.048   0.946
48225W        W14634  21.322   1.494  10.790
48226W        W14635  42.050  41.022  14.747
48227W        W14636  24.082   4.577  12.121
48228W        W14637   0.338  28.716  13.121
48229W        W14638  31.492  41.389   4.323
48230W        W14639  21.717   8.852   2.077
48231W        W14640  42.265  23.554  12.035
48232W        W14641  39.016  15.895   0.258
48233W        W14642  40.089  39.571   4.240
48234W        W14643  36.297  20.257  13.823
48235W        W14644  11.324  33.924  14.829
48236W        W14645  20.819  27.042   3.674
48237W        W14646  29.939  15.552   4.184
48238W        W14647  19.310   6.392  13.874
48239W        W14648  19.947  41.919  12.532
48240W        W14649  29.553   8.669   3.653
48241W        W14650  36.569  14.324   0.943
48242W        W14651   2.417  10.441  11.137
48243W        W14652  29.222  36.384   2.173
48244W        W14653  35.272  28.646  13.714
48245W        W14654  37.625   1.211   3.701
48246W        W14655  34.397  36.686  13.906
48247W        W14656  38.057  43.578  13.070
48248W        W14657  26.461  30.004   2.448
48249W        W14658  30.626  40.426   0.908
48250W        W14659  36.796  18.651  14.269
48251W        W14660  24.048   6.033   1.801
48252W        W14661  11.416   3.896  12.897
48253W        W14662  21.980  10.517   0.975
48254W        W14663  35.944  29.002   3.015
48255W        W14664  15.310  33.537   4.900
48256W        W14665  20.698  14.772   4.555
48257W        W14666   0.204  12.516   1.772
48258W        W14667  14.116   1.867   2.386
48259W        W14668  31.568  24.889   2.813
48260W        W14669   0.776  38.021   0.459
48261W        W14670   1.930   9.292   0.028
48262W        W14671  27.773  28.745   0.411
48263W        W14672  17.753  13.327  10.755
48264W        W14673  43.349  38.989  13.411
48265W        W14674  36.131  43.352  11.584
48266W        W14675  21.303  15.693   3.118
48267W        W14676  44.456  36.298   4.105
48268W        W14677  14.138   4.960   3.384
48269W        W14678   6.725   6.835  13.859
48270W        W14679  42.003  20.207  12.571
48271W        W14680   3.725  21.188  11.226
48272W        W14681  22.636  34.861  10.751
48273W        W14682  36.026  13.727  12.577
48274W        W14683  29.263  29.068  13.781
48275W        W14684   1.261  28.190   3.780
48276W        W14685   3.189  19.043  14.366
48277W        W14686  30.249  31.756   2.787
48278W        W14687  32.957   1.782   2.890
48279W        W14688  16.855  29.546  12.654
48280W        W14689  36.641  25.423   1.749
48281W        W14690  38.799  14.071   4.074
48282W        W14691  39.662   3.052   4.104
48283W        W14692  13.226  33.001  14.825
48284W        W14693  32.850  40.881   1.363
48285W        W14694   8.223  35.922   1.707
48286W        W14695  27.833  13.406  12.231
48287W        W14696  39.533  11.667   3.728
48288W        W14697   0.943  20.273   4.855
48289W        W14698  20.921  38.543  11.082
48290W        W14699  35.721  30.910   2.248
48291W        W14700  11.253  29.041  12.527
48292W        W14701  24.598  38.507   1.968
48293W        W14702   9.475  23.284   2.814
48294W        W14703   0.959  25.064  14.909
48295W        W14704  23.966   0.319  12.886
48296W        W14705  19.546  21.038   3.714
48297W        W14706   6.706  43.386   4.176
48298W        W14707  26.094  37.888   3.891
48299W        W14708  44.419   4.540   0.769
48300W        W14709  24.650  14.226   4.986
48301W        W14710  17.207  26.967  12.603
48302W        W14711  21.535  21.761   4.588
48303W        W14712  26.682  43.989   0.121
48304W        W14713  31.374  26.078  12.536
48305W        W14714  22.721  24.725   3.637
48306W        W14715  27.461  15.625   3.157
48307W        W14716   9.149  13.162  14.939
48308W        W14717  19.250  18.058   0.059
48309W        W14718  20.657  32.479  13.766
48310W        W14719  15.320  21.298   1.100
48311W        W14720  28.392  23.711   3.315
48312W        W14721  16.981  20.551   5.008
48313W        W14722  34.009   0.812  14.532
48314W        W14723  17.535  23.067   4.120
48315W        W14724  43.042   9.475   4.046
48316W        W14725  18.213  30.452  14.734
48317W        W14726  40.939  37.432   3.591
48318W        W14727  35.983  24.757   1.139
48319W        W14728  43.899   2.280  11.400
48320W        W14729   9.941  39.894   2.403
48321W        W14730   9.172   3.920   2.699
48322W        W14731   4.766  31.487   1.723
48323W        W14732  38.952  15.401   0.434
48324W        W14733   4.598  11.249  13.907
48325W        W14734   0.150  26.255  11.270
48326W        W14735   7.390  40.342   1.154
48327W        W14736   1.924  34.670   2.129
48328W        W14737  33.308  19.785   0.831
48329W        W14738  22.862   1.347  13.824
48330W        W14739   2.470  33.626   0.254
48331W        W14740  42.109  27.611   3.105
48332W        W14741   9.564  24.990  11.596
48333W        W14742  39.801  38.343  12.628
48334W        W14743  14.359  44.402  11.191
48335W        W14744  29.487  27.066  11.964
48336W        W14745   4.277  19.327  14.145
48337W        W14746   6.158  44.373   2.852
48338W        W14747  26.141  36.864  12.046
48339W        W14748  31.009  26.050  14.055
48340W        W14749  15.131  41.305   2.424
48341W        W14750  43.867  41.870  13.532
48342W        W14751  32.818  38.954   4.182
48343W        W14752  35.395  37.375   4.311
48344W        W14753  37.457  34.098   2.653
48345W        W14754  21.138   3.616   2.181
48346W        W14755  26.515  13.846   3.904
48347W        W14756  26.488  34.131   4.610
48348W        W14757   5.190  25.977  14.079
48349W        W14758  16.291  36.070   4.156
48350W        W14759  10.132  16.160  14.857
48351W        W14760  42.854  28.542  11.273
48352W        W14761  18.532  39.381  11.893
48353W        W14762   6.799  17.729  10.653
48354W        W14763  39.808  43.515   1.422
48355W        W14764  28.101  12.677   1.921
48356W        W14765  26.418  12.130  11.477
48357W        W14766  16.774  40.613  12.128
48358W        W14767  10.284  10.371  11.804
48359W        W14768   8.747   4.194   1.405
48360W        W14769   6.201   5.941   2.144
48361W        W14770   1.977   9.367  12.995
48362W        W14771  33.410  13.587  11.218
48363W        W14772  26.141  18.228   2.913
48364W        W14773  36.786  26.193   5.051
48365W        W14774  31.316   9.308  12.194
48366W        W14775  25.639  12.502   3.026
48367W        W14776  29.085  37.561  10.953
48368W        W14777  19.717  37.993  11.610
48369W        W14778  17.600  32.347  11.467
48370W        W14779  44.681  36.479  10.933
48371W        W14780  39.497  37.857  12.878
48372W        W14781  23.022  32.903   1.022
48373W        W14782   9.204   4.026   1.219
48374W        W14783  40.371  14.455  13.037
48375W        W14784  31.423  38.669   4.432
48376W        W14785   6.888  44.482   4.555
48377W        W14786  33.886  29.382  11.031
48378W        W14787  22.786  17.101   0.886
48379W        W14788  30.113   1.858   1.859
48380W        W14789  26.273   7.681  12.601
48381W        W14790  41.811  30.451  13.394
48382W        W14791  10.443  41.287  13.822
48383W        W14792   7.887  33.441  11.931
48384W        W14793  41.674   9.810  12.678
48385W        W14794  34.602   3.772  11.092
48386W        W14795   1.225  42.167  10.614
48387W        W14796  15.539  43.454  12.807
48388W        W14797  21.570  44.355  14.075
48389W        W14798  24.744  40.363   2.744
48390W        W14799  18.647  38.902   3.742
48391W        W14800  21.531  12.340  14.569
48392W        W14801  44.322  10.138  13.451
48393W        W14802   2.271  44.236  10.889
48394W        W14803  43.907  43.749   2.814
48395W        W14804  34.893  39.001   2.774
48396W        W14805  41.933   7.620   2.215
48397W        W14806  15.358  29.595  13.498
48398W        W14807   6.119  15.074   4.133
48399W        W14808  25.492   8.802   1.881
48400W        W14809  10.262   5.850  12.032
48401W        W14810  33.498  12.356   4.979
48402W        W14811  22.429  29.619  13.094
48403W        W14812   4.801   2.554  11.145
48404W        W14813   8.127  25.294  12.821
48405W        W14814  14.612  37.545   2.282
48406W        W14815  12.892  26.346  10.427
48407W        W14816  35.767  28.469  13.847
48408W        W14817  42.369  32.904   1.731
48409W        W14818   7.417  34.809  11.430
48410W        W14819  36.253  11.407  13.476
48411W        W14820  24.110  10.590  11.127
48412W        W14821  18.845   9.445   3.198
48413W        W14822  24.389  23.823  11.153
48414W        W14823  22.582  13.930   2.200
48415W        W14824  39.250  34.025   4.255
48416W        W14825  19.490  21.127  14.166
48417W        W14826   2.643  35.783   1.721
48418W        W14827   0.302  37.046   0.486
48419W        W14828  42.397  24.472  14.429
48420W        W14829  38.114   3.999   2.201
48421W        W14830   0.320  21.637   1.773
48422W        W14831  25.979  31.508   4.771
48423W        W14832  18.686  29.945   4.158
48424W        W14833  42.771   4.014   3.761
48425W        W14834  33.643  27.831  11.665
48426W        W14835   6.639  43.963  14.317
48427W        W14836  14.972  35.744   1.861
48428W        W14837  16.721  22.998  13.646
48429W        W14838  31.215  28.931   0.353
48430W        W14839  27.117   2.185  13.936
48431W        W14840  10.293  33.883   1.870
48432W        W14841  18.529  22.743  14.124
48433W        W14842   2.148  19.472   4.163
48434W        W14843  18.408  10.990  11.603
48435W        W14844  14.729   6.129  14.527
48436W        W14845  10.214  44.384  11.628
48437W        W14846  22.925  38.154   3.917
48438W        W14847  39.931  19.753  13.367
48439W        W14848   1.044  17.791  11.535
48440W        W14849  42.268   8.604  11.459
48441W        W14850  41.827   1.842   1.928
48442W        W14851  17.202  20.910   9.703
48443W        W14852  29.168  42.008   2.767
48444W        W14853  28.061  34.905   2.672
48445W        W14854   6.238   6.954  13.734
48446W        W14855   8.305  36.081  10.508
48447W        W14856   3.887  35.835   2.836
48448W        W14857  32.617  14.522   0.908
48449W        W14858   7.191  39.516  12.055
48450W        W14859  18.805  26.944  11.514
48451W        W14860  23.740   9.411  11.187
48452W        W14861  13.507  33.595   5.607
48453W        W14862  36.988  36.918   2.600
48454W        W14863  32.801  35.035  14.527
48455W        W14864  35.477  19.007  11.900
48456W        W14865  26.883   3.344   4.686
48457W        W14866  36.577  29.907  13.530
48458W        W14867  37.104   0.241  10.690
48459W        W14868  16.840  24.267  12.051
48460W        W14869  28.252  24.265  11.192
48461W        W14870   5.187  43.797  12.791
48462W        W14871  27.513   1.568  12.936
48463W        W14872  27.454  44.613   3.746
48464W        W14873  43.293  19.810  11.613
48465W        W14874  29.585  25.709  12.553
48466W        W14875  32.953  20.626   2.907
48467W        W14876  24.573   3.480  13.411
48468W        W14877  20.093  26.077  12.916
48469W        W14878   3.518  21.238  12.542
48470W        W14879  14.245   2.896  11.475
48471W        W14880  30.793  23.097  11.390
48472W        W14881  13.982   3.188   2.255
48473W        W14882  26.529   0.228  13.166
48474W        W14883  15.672   5.820   1.950
48475W        W14884  19.796  14.355  14.341
48476W        W14885  42.307  37.172  14.745
48477W        W14886   3.523  27.298   1.317
48478W        W14887  27.980  14.488   3.689
48479W        W14888   7.822  44.680   9.907
48480W        W14889   8.989  37.001   5.025
48481W        W14890  10.621  20.946  12.524
48482W        W14891  25.607  31.978  11.482
48483W        W14892   0.879   7.883  14.353
48484W        W14893  16.959  21.541  14.538
48485W        W14894   2.595  26.974  10.505
48486W        W14895  22.966  15.602  10.680
48487W        W14896   3.968  19.771   3.901
48488W        W14897  42.904  12.854  13.987
48489W        W14898  28.688  42.276   2.812
48490W        W14899  30.180  10.310  11.435
48491W        W14900   0.316  26.522   9.959
48492W        W14901   6.797  42.962  13.286
48493W        W14902   9.161  28.051  14.484
48494W        W14903   7.195  10.356  14.997
48495W        W14904  40.006  43.450   0.922
48496W        W14905  25.946  18.554   1.242
48497W        W14906   6.020  34.409  10.648
48498W        W14907  40.040  17.496   1.809
48499W        W14908   3.098  14.306  11.290
48500W        W14909  34.073   6.110   4.816
48501W        W14910  21.160  35.960   1.344
48502W        W14911   1.991   9.183  10.702
48503W        W14912  39.806  11.100   4.708
48504W        W14913  37.036  29.751  14.480
48505W        W14914   2.076  25.786   4.282
48506W        W14915  22.497  27.509  14.945
48507W        W14916  15.657  13.136   3.172
48508W        W14917  19.328  15.799   1.429
48509W        W14918   0.489  44.748  13.590
48510W        W14919  10.678  28.857  14.983
48511W        W14920  41.150  34.533   0.494
48512W        W14921   0.321   3.486  11.670
48513W        W14922  42.354  34.045   3.704
48514W        W14923   2.796  25.777  14.580
48515W        W14924  28.683  14.197  14.705
48516W        W14925   1.634  23.828   3.988
48517W        W14926  17.861  23.450   2.248
48518W        W14927   9.112  35.704   0.066
48519W        W14928  12.593  27.009  12.949
48520W        W14929   0.819  13.197   3.648
48521W        W14930  27.900   6.660   4.021
48522W        W14931  14.327   0.037   3.659
48523W        W14932  13.305  44.657   0.344
48524W        W14933  40.925  23.542  10.551
48525W        W14934  21.992  37.574  11.976
48526W        W14935   6.821  36.578   0.479
48527W        W14936  30.279  41.480  12.036
48528W        W14937  28.224  17.742   0.272
48529W        W14938  36.797   1.879   3.807
48530W        W14939  37.174  16.406   4.957
48531W        W14940  20.417  25.797  11.048
48532W        W14941  32.879   4.605   5.016
48533W        W14942  44.874   0.136   4.049
48534W        W14943  22.118  42.256  13.978
48535W        W14944  42.078  22.058  13.341
48536W        W14945  26.053  16.740  12.091
48537W        W14946  23.060   0.203  12.697
48538W        W14947  13.657  22.350   3.627
48539W        W14948  32.932  10.370  11.201
48540W        W14949   2.655  10.269  13.005
48541W        W14950  17.669   2.525   4.323
48542W        W14951  29.018  16.416  12.542
48543W        W14952  25.577  21.207  10.277
48544W        W14953   0.847   4.079   3.701
48545W        W14954  30.364  27.667  12.913
48546W        W14955  19.630   8.646   1.709
48547W        W14956  24.353   9.166  10.284
48548W        W14957  15.350  33.434   3.349
48549W        W14958  29.356  38.580   2.859
48550W        W14959  42.265   0.807   3.228
48551W        W14960  34.097  18.250   2.201
48552W        W14961  42.499  42.499  14.362
48553W        W14962   0.485  43.731  12.430
48554W        W14963  39.467  44.397  13.881
48555W        W14964  28.080   3.594   4.098
48556W        W14965  34.496  10.993   0.612
48557W        W14966  14.237   8.926  10.134
48558W        W14967   0.350  25.191   0.314
48559W        W14968  38.283  31.786  13.719
48560W        W14969  18.381  37.283   4.051
48561W        W14970  11.964   7.333   3.542
48562W        W14971  26.383  17.086  12.267
48563W        W14972   9.329  38.586   0.844
48564W        W14973  11.648  39.060   3.661
48565W        W14974   4.804   6.481   4.180
48566W        W14975  43.232  20.200   1.985
48567W        W14976  40.588   9.252  10.551
48568W        W14977  41.788   2.429  13.884
48569W        W14978  36.634   6.773   0.444
48570W        W14979   0.639   8.793  12.059
48571W        W14980  17.071   8.854  11.097
48572W        W14981  30.457  33.977   2.354
48573W        W14982  25.032  30.570   2.269
48574W        W14983  35.716  42.268   2.848
48575W        W14984  35.930  20.527  14.108
48576W        W14985  32.371  41.790   4.153
48577W        W14986  40.089  26.447   2.142
48578W        W14987  26.454   5.625  12.491
48579W        W14988  29.155  35.922  14.078
48580W        W14989  43.709  34.045  13.310
48581W        W14990  44.755  32.411   0.350
48582W        W14991   1.458  41.608  12.052
48583W        W14992  21.752  18.719   2.830
48584W        W14993  41.920   8.379   1.861
48585W        W14994  20.041  39.300  10.438
48586W        W14995  17.182   5.269  10.057
48587W        W14996  39.852  22.219   1.227
48588W        W14997  26.345  16.799  13.074
48589W        W14998  10.279  33.526   4.417
48590W        W14999   9.227  15.082  14.790
48591W        W15000  44.421  34.006   0.530
48592W        W15001  22.263  27.507   2.688
48593W        W15002  26.117  20.623   0.644
48594W        W15003  34.592  15.746  12.379
48595W        W15004  21.339  28.728  13.610
48596W        W15005  10.869  21.989  11.601
48597W        W15006  34.587  33.077  12.943
48598W        W15007  21.077  44.084  11.307
48599W        W15008  12.308  10.332  11.662
48600W        W15009   4.015  32.060  11.619
48601W        W15010  27.299  20.730   2.237
48602W        W15011  25.781  38.220  13.955
48603W        W15012   2.902   3.300   5.036
48604W        W15013   0.898  43.318  12.535
48605W        W15014   9.765  18.297   3.807
48606W        W15015  15.807  28.029  13.056
48607W        W15016  37.106  16.128  11.749
48608W        W15017  38.948  21.826  14.791
48609W        W15018  24.722  31.705  11.171
48610W        W15019  18.295  43.008   1.219
48611W        W15020   0.943   4.383   1.272
48612W        W15021  20.704  26.551   3.848
48613W        W15022  19.228  31.056   1.201
48614W        W15023  21.117   3.930   3.077
48615W        W15024   7.714  24.950   9.931
48616W        W15025  27.602  33.053   2.377
48617W        W15026  11.231   2.247   0.751
48618W        W15027  38.363  39.977   0.778
48619W        W15028   4.860  39.256   0.847
48620W        W15029   1.172   9.218   1.818
48621W        W15030  14.260  27.605   2.794
48622W        W15031  30.908  22.282  11.162
48623W        W15032  19.413  32.054  13.764
48624W        W15033  22.961   3.771  13.873
48625W        W15034  44.741   9.915   1.230
48626W        W15035  20.635  27.601  11.672
48627W        W15036  41.343  13.621   2.828
48628W        W15037  44.448  38.761   4.535
48629W        W15038  33.643  13.000   0.199
48630W        W15039   1.216  33.529  14.357
48631W        W15040  44.405  12.250  14.881
48632W        W15041  38.222  41.572  10.890
48633W        W15042  24.739  33.036  12.897
48634W        W15043  16.304   3.056   5.058
48635W        W15044  18.231  10.176  11.689
48636W        W15045   1.284  26.613  10.478
48637W        W15046   8.012  23.470   1.913
48638W        W15047   6.083   5.390   1.438
48639W        W15048  17.532   8.661  14.779
48640W        W15049  13.291   1.347  13.051
48641W        W15050  29.033  24.690   1.786
48642W        W15051   7.436  19.785   3.803
48643W        W15052  40.025   7.793  13.994
48644W        W15053  36.937   8.360   3.731
48645W        W15054  20.010  26.549  14.602
48646W        W15055  29.888  24.191   3.518
48647W        W15056  13.384  41.665  10.262
48648W        W15057   7.700  13.771  13.020
48649W        W15058   2.977  42.776  13.993
48650W        W15059  43.206  39.072   3.688
48651W        W15060  40.826  13.573   4.067
48652W        W15061  10.342  38.959  13.088
48653W        W15062   6.720  38.050   1.728
48654W        W15063  36.988   6.126   3.660
48655W        W15064  24.946  22.741   4.105
48656W        W15065  38.314  32.419   2.378
48657W        W15066  38.512  18.608   3.480
48658W        W15067  12.977  34.311  10.037
48659W        W15068   0.698  20.051  11.189
48660W        W15069   4.938  28.063   4.610
48661W        W15070  22.565  29.585   2.828
48662W        W15071  31.203  26.280   1.898
48663W        W15072  33.093  18.165   4.912
48664W        W15073  34.951  37.489   0.595
48665W        W15074  24.010  37.564   4.799
48666W        W15075  44.089  13.813  12.031
48667W        W15076  26.616  11.412  12.018
48668W        W15077  31.388  37.439  10.622
48669W        W15078  39.916  27.399  11.083
48670W        W15079  36.373  14.150  12.564
48671W        W15080   1.163  28.617   2.658
48672W        W15081  36.619   3.418  10.387
48673W        W15082  27.727   4.105   1.236
48674W        W15083  44.750  28.053   2.347
48675W        W15084  37.399   1.536  13.820
48676W        W15085   2.425   1.303  14.719
48677W        W15086  24.053   6.800   2.788
48678W        W15087  34.452  33.225  11.959
48679W        W15088  18.533  11.307   2.301
48680W        W15089  16.253  20.406  12.754
48681W        W15090  31.636  32.637   0.652
48682W        W15091   8.609   0.885   4.591
48683W        W15092   7.694   2.246  11.572
48684W        W15093  10.637   3.059  11.644
48685W        W15094   5.938  32.939   4.106
48686W        W15095  13.666  14.404  12.515
48687W        W15096  23.687   4.786  12.378
48688W        W15097   4.389  20.542   4.629
48689W        W15098  15.779  34.692  12.598
48690W        W15099  30.115  22.951  14.686
48691W        W15100  33.834  39.928  10.559
48692W        W15101  15.378  12.004  13.195
48693W        W15102  27.204  28.161   4.471
48694W        W15103  22.691  16.565  12.837
48695W        W15104  28.427  33.816   3.720
48696W        W15105   5.875   3.625  13.435
48697W        W15106  14.246  25.017  14.319
48698W        W15107   9.702  42.536  10.946
48699W        W15108  25.069   0.784   0.471
48700W        W15109  13.546  34.105   4.218
48701W        W15110  13.081  39.450  13.602
48702W        W15111   0.321  27.984   4.592
48703W        W15112  31.429  44.249   1.142
48704W        W15113   8.859  29.213  14.344
48705W        W15114  30.644   6.256   2.727
48706W        W15115  11.210  38.437   0.722
48707W        W15116  37.893   5.230  12.493
48708W        W15117  32.715  24.767   1.122
48709W        W15118  39.054   1.635   4.116
48710W        W15119  35.602   3.013   4.858
48711W        W15120  44.064  13.321  13.014
48712W        W15121  24.450  13.791   2.193
48713W        W15122   4.462  43.731   3.238
48714W        W15123  29.268   0.161  10.442
48715W        W15124  10.746  23.516  11.607
48716W        W15125   5.878   2.666   2.778
48717W        W15126  38.369  11.968   3.117
48718W        W15127   3.166   5.422  14.026
48719W        W15128  41.166   5.611  12.904
48720W        W15129   8.350  34.042   0.339
48721W        W15130  32.553   5.240   1.100
48722W        W15131  36.857   6.849   2.073
48723W        W15132  19.663  26.385   1.517
48724W        W15133  16.843   3.245  12.423
48725W        W15134  21.668  15.330   3.313
48726W        W15135  32.606  10.247  14.905
48727W        W15136   7.883  25.816   4.106
48728W        W15137   2.834  29.196   2.368
48729W        W15138  34.921  38.875   0.816
48730W        W15139  26.190  20.973  14.359
48731W        W15140  31.164  16.141  10.747
48732W        W15141  25.184   6.155   2.316
48733W        W15142   6.958  41.477  13.469
48734W        W15143  12.804  35.074   1.887
48735W        W15144  19.864  37.349  12.202
48736W        W15145  37.343  23.481   2.760
48737W        W15146  39.557  13.050   3.770
48738W        W15147  12.682  34.443   2.200
48739W        W15148  29.920  16.609  11.589
48740W        W15149  27.226  11.768   3.709
48741W        W15150  21.725   3.730   4.901
48742W        W15151   5.883  21.077  14.502
48743W        W15152  39.285  12.826   4.474
48744W        W15153   2.776  28.479  13.831
48745W        W15154  44.135  11.239  12.155
48746W        W15155  22.066  32.940  13.075
48747W        W15156  11.802   5.476   1.243
48748W        W15157   1.156  25.710   1.368
48749W        W15158  17.170  30.027   3.844
48750W        W15159  44.336  26.189   2.965
48751W        W15160  43.805  10.916   3.305
48752W        W15161  27.175   7.605   3.543
48753W        W15162  36.096  26.136   1.313
48754W        W15163  14.213  39.776   2.355
48755W        W15164  28.093   7.704  14.410
48756W        W15165  11.774   2.505   3.559
48757W        W15166  25.093  44.357   4.384
48758W        W15167  41.805   8.689  11.667
48759W        W15168   5.389   3.772  14.047
48760W        W15169   4.697  28.466  13.289
48761W        W15170  33.756  33.326   3.263
48762W        W15171  24.055  11.154  13.315
48763W        W15172   4.661  42.161  11.925
48764W        W15173  42.726  25.129  11.619
48765W        W15174   9.214  37.237  11.516
48766W        W15175  31.869   1.211  11.144
48767W        W15176  19.551   3.149   3.612
48768W        W15177  36.573  34.266   3.955
48769W        W15178  13.947  11.917   0.759
48770W        W15179  16.800  27.938  11.660
48771W        W15180  13.737   0.637   1.646
48772W        W15181  30.906  32.181   0.473
48773W        W15182   2.971  14.199  12.657
48774W        W15183  22.030  26.546  10.935
48775W        W15184  23.955  38.357  12.139
48776W        W15185  43.689   5.623   2.252
48777W        W15186  22.821   3.395  14.222
48778W        W15187  43.893   0.194  12.915
48779W        W15188  39.241  26.349   0.418
48780W        W15189  38.011   8.882   1.763
48781W        W15190  12.843  35.150  11.136
48782W        W15191  36.173  43.820   3.766
48783W        W15192   8.359   7.134  13.865
48784W        W15193   9.407   6.978   1.239
48785W        W15194  22.053  25.969  12.665
48786W        W15195   8.690   2.749  12.367
48787W        W15196  35.044  42.244  14.410
48788W        W15197  34.854  14.694  11.208
48789W        W15198   1.043  15.046  10.327
48790W        W15199  38.432  11.837   4.539
48791W        W15200   4.424  20.711   3.709
48792W        W15201  22.239  43.304   2.706
48793W        W15202  40.795  31.622  13.168
48794W        W15203  33.225  44.408   3.728
48795W        W15204  22.230  15.286   2.645
48796W        W15205   1.584  18.891   1.683
48797W        W15206   3.121   6.752  11.496
48798W        W15207   6.178  27.728  10.800
48799W        W15208  19.407  14.967  12.523
48800W        W15209  43.608  10.225  13.945
48801W        W15210   2.013  23.507   3.134
48802W        W15211  23.764  42.064   4.429
48803W        W15212  37.100  15.810   0.768
48804W        W15213  35.175  20.207   1.234
48805W        W15214  44.906  17.051   2.802
48806W        W15215  32.355  19.680  13.566
48807W        W15216  15.337  44.944   2.025
48808W        W15217  44.201  22.747  14.441
48809W        W15218  20.236  42.409   4.180
48810W        W15219  26.215  28.426   1.374
48811W        W15220   8.262  31.679  11.558
48812W        W15221  35.116  26.652  11.605
48813W        W15222  16.181  38.007  11.621
48814W        W15223  43.955  13.052  13.439
48815W        W15224  21.002  21.516   2.955
48816W        W15225   7.831  41.053   0.246
48817W        W15226   4.872   2.016   0.049
48818W        W15227  12.574  35.474  10.316
48819W        W15228  28.126   7.755  12.340
48820W        W15229   9.901   4.337   0.382
48821W        W15230  25.246  31.987  11.116
48822W        W15231  44.866  31.940   1.251
48823W        W15232  20.326  22.605   4.524
48824W        W15233   6.630  11.723   2.609
48825W        W15234   4.909  27.253  10.827
48826W        W15235  22.679  18.566   3.075
48827W        W15236  34.124   9.451   3.259
48828W        W15237  13.066  12.326  11.716
48829W        W15238  42.350  31.551  11.966
48830W        W15239  40.895  27.897  14.811
48831W        W15240  14.641  32.467  13.909
48832W        W15241  21.080   5.497   3.289
48833W        W15242  30.842   4.505   1.861
48834W        W15243  11.630  18.627   2.437
48835W        W15244  34.811  23.385   0.153
48836W        W15245   6.394  14.279   3.757
48837W        W15246  15.818  28.480   0.470
48838W        W15247  23.955  12.861   5.029
48839W        W15248  17.721  42.132   0.308
48840W        W15249  42.761  24.916   1.218
48841W        W15250  36.458   0.111  14.689
48842W        W15251  16.947  13.273  10.336
48843W        W15252  10.814  42.010   0.487
48844W        W15253  20.110   0.459  10.457
48845W        W15254  17.757  32.840  11.508
48846W        W15255  36.345  19.004  11.971
48847W        W15256  35.924  28.097  14.529
48848W        W15257  11.288  21.131  10.625
48849W        W15258  37.638  15.299   5.159
48850W        W15259   2.639  37.541   2.713
48851W        W15260  26.524  16.779   1.809
48852W        W15261  31.052  41.677   4.904
48853W        W15262  21.659  13.750   0.621
48854W        W15263   6.665  32.600   3.563
48855W        W15264  24.270  32.210  12.780
48856W        W15265  14.641  27.577  13.452
48857W        W15266  15.296   9.213   3.668
48858W        W15267  38.952  37.285  13.727
48859W        W15268  22.599  10.853   0.189
48860W        W15269  37.346  11.856  13.905
48861W        W15270  31.172  21.116  13.891
48862W        W15271  42.516   3.341  12.062
48863W        W15272  20.988  29.124  13.512
48864W        W15273  39.408  28.758  13.444
48865W        W15274  40.363   3.524  14.899
48866W        W15275  25.521  12.164   1.308
48867W        W15276  26.465  12.305  14.099
48868W        W15277  24.736  35.578   0.194
48869W        W15278   8.785  21.502  13.473
48870W        W15279   4.455   4.877  12.051
48871W        W15280  13.460   7.900   2.721
48872W        W15281  24.287  23.663   0.360
48873W        W15282   0.701   7.398  14.366
48874W        W15283  22.684  33.824   2.499
48875W        W15284  26.456  26.631  12.358
48876W        W15285  28.799   9.495   3.184
48877W        W15286  17.037  38.011  14.411
48878W        W15287  28.091  33.617  12.361
48879W        W15288  18.176  33.335  13.401
48880W        W15289  23.646   5.229  12.639
48881W        W15290   7.842  41.907   1.828
48882W        W15291  17.029   6.999  13.517
48883W        W15292  18.946  41.890  10.576
48884W        W15293   6.064  13.775   0.246
48885W        W15294   7.476  19.612  11.104
48886W        W15295  36.985   9.928   1.362
48887W        W15296  22.796  11.598   4.869
48888W        W15297  17.213  42.506   2.708
48889W        W15298   0.816   8.963  13.398
48890W        W15299   8.673  12.270  12.928
48891W        W15300  41.848  33.139   0.524
48892W        W15301  40.385   5.787   3.649
48893W        W15302  22.101  34.076  14.932
48894W        W15303  12.890   3.403  10.366
48895W        W15304   9.451   5.822  14.445
48896W        W15305   7.354  18.102  14.976
48897W        W15306  33.184  12.538  13.365
48898W        W15307  37.624  13.131  13.841
48899W        W15308  23.643  26.102  13.535
48900W        W15309  37.450  23.527  14.220
48901W        W15310  27.011   1.847   1.928
48902W        W15311  22.751  35.415   2.787
48903W        W15312   7.740  19.156  14.153
48904W        W15313  22.275  40.972  10.949
48905W        W15314   4.645  37.438   3.142
48906W        W15315  44.782  24.093   0.454
48907W        W15316   2.684   6.875  12.580
48908W        W15317  16.028  30.708   4.880
48909W        W15318   3.664   5.106  14.874
48910W        W15319  13.142  20.690  10.728
48911W        W15320  28.180  18.056  13.505
48912W        W15321  38.127  29.202   3.743
48913W        W15322  31.639  31.659  10.809
48914W        W15323  12.373  16.318  13.871
48915W        W15324  16.222   1.088  12.912
48916W        W15325  31.563  21.313  11.442
48917W        W15326   2.780  32.669  12.592
48918W        W15327   5.921  39.761  11.136
48919W        W15328  16.632  20.275  13.076
48920W        W15329   1.961  36.893   3.138
48921W        W15330  28.553  34.290  12.602
48922W        W15331  35.973  32.843  12.511
48923W        W15332   6.648  35.973   3.649
48924W        W15333  26.270  18.827  14.431
48925W        W15334  19.169  34.255  14.892
48926W        W15335  40.383  14.881  14.738
48927W        W15336   9.873   9.296   0.952
48928W        W15337  29.944  11.199   1.763
48929W        W15338  28.186  35.230   4.019
48930W        W15339  13.853   9.199   3.275
48931W        W15340  41.464  22.070  14.853
48932W        W15341  16.780  16.312  13.949
48933W        W15342  10.783  16.557  10.937
48934W        W15343  24.966  40.112   1.896
48935W        W15344  15.785   9.720  12.823
48936W        W15345  11.577   2.434   0.404
48937W        W15346  18.010  34.516  10.626
48938W        W15347  30.726  14.878   4.677
48939W        W15348  27.886   2.802  11.808
48940W        W15349   4.400  36.101   2.246
48941W        W15350  32.544  16.101  14.933
48942W        W15351   9.219  41.726   1.505
48943W        W15352  23.692   5.688  12.390
48944W        W15353  26.048  24.012  12.003
48945W        W15354  34.448  23.220  13.036
48946W        W15355   9.598  19.245   1.441
48947W        W15356  36.341   6.869   1.884
48948W        W15357  28.924   0.619  11.258
48949W        W15358  36.454  11.372   3.461
48950W        W15359  44.352  16.843   1.780
48951W        W15360   9.696   9.315   3.632
48952W        W15361  23.299  44.465   1.770
48953W        W15362  15.188  41.038  13.404
48954W        W15363  33.461  13.551  10.694
48955W        W15364  36.588  37.113  11.652
48956W        W15365  17.028  41.978  12.286
48957W        W15366  30.345  27.052   0.432
48958W        W15367  41.845   7.647   1.306
48959W        W15368  19.936  26.186  11.944
48960W        W15369  27.679  28.090  14.485
48961W        W15370  13.139  40.615   0.269
48962W        W15371   4.446  35.112   2.163
48963W        W15372  37.109   4.654   1.791
48964W        W15373  35.631  24.963  12.163
48965W        W15374  19.204  34.922   4.652
48966W        W15375  44.176  35.505   3.714
48967W        W15376  27.954   5.045   2.911
48968W        W15377   9.197  13.214  12.416
48969W        W15378  12.055  34.109   1.681
48970W        W15379   7.296   7.193   4.463
48971W        W15380  18.540   3.031   2.710
48972W        W15381  22.795  30.565  13.570
48973W        W15382  29.929  16.186  10.719
48974W        W15383   3.215  36.426   5.003
48975W        W15384  16.201  17.758  10.422
48976W        W15385  37.636  14.076  12.007
48977W        W15386   1.700  12.938  12.531
48978W        W15387  35.458   3.260  11.740
48979W        W15388  37.923  44.599  10.255
48980W        W15389  37.087   3.933   4.485
48981W        W15390  30.937   9.313   2.875
48982W        W15391  16.748   0.806   2.947
48983W        W15392  43.525  31.084   1.675
48984W        W15393   3.717  27.110   3.758
48985W        W15394   8.293   5.568   1.335
48986W        W15395   9.109  23.641  12.903
48987W        W15396  42.285  30.053   3.135
48988W        W15397  17.800  19.258   4.153
48989W        W15398  21.983   4.218   2.380
48990W        W15399   1.760   4.320   1.090
48991W        W15400  31.782   0.562   5.420
48992W        W15401  31.167   3.879   0.882
48993W        W15402  17.349  11.615   3.196
48994W        W15403   6.570  42.879   4.047
48995W        W15404   1.357   3.750  12.011
48996W        W15405  36.680  28.958   0.804
48997W        W15406  25.485  17.843  10.622
48998W        W15407  41.064  31.447  13.577
48999W        W15408  29.244  24.530  12.065
49000W        W15409   2.697   9.598   0.433
49001W        W15410  15.776  14.817  11.714
49002W        W15411  20.520  26.692   9.856
49003W        W15412  19.861   9.436   3.223
49004W        W15413  18.147  29.974   3.955
49005W        W15414  22.495   2.464   0.523
49006W        W15415  30.988  36.029   3.455
49007W        W15416  26.698  10.773   1.663
49008W        W15417  24.677   0.947  13.461
49009W        W15418  27.129  38.559  14.562
49010W        W15419  35.869  21.582  10.965
49011W        W15420  17.041  18.644   1.866
49012W        W15421  33.340  25.360   0.882
49013W        W15422  10.802  34.403   2.739
49014W        W15423  36.580  10.537  12.497
49015W        W15424   5.881  14.224   4.550
49016W        W15425  25.963  42.908   0.933
49017W        W15426  44.753  17.028   1.472
49018W        W15427  43.500  30.112   2.435
49019W        W15428  37.574  31.500  11.621
49020W        W15429   7.350   8.652   4.073
49021W        W15430  31.148   3.225  14.310
49022W        W15431  33.891   2.852  11.927
49023W        W15432  34.193  14.022  13.446
49024W        W15433  44.243   1.704  12.037
49025W        W15434  27.719  27.670   4.182
49026W        W15435  14.806  29.480  10.512
49027W        W15436  26.905   1.868   2.835
49028W        W15437   1.283  10.651  11.558
49029W        W15438  19.585  17.771  10.797
49030W        W15439  36.143  20.927  10.598
49031W        W15440  22.287  33.843  11.186
49032W        W15441  24.771  37.983   2.916
49033W        W15442  44.873   8.847  12.581
49034W        W15443  27.705  32.877   4.146
49035W        W15444   3.250  36.142  14.310
49036W        W15445  16.177  31.076   1.908
49037W        W15446   3.378  10.297   1.250
49038W        W15447  38.142  44.135   3.608
49039W        W15448  40.732  40.576   1.640
49040W        W15449  26.341  39.448  13.057
49041W        W15450  13.255  39.448  13.098
49042W        W15451   7.785  35.598   0.225
49043W        W15452  27.509  38.253  14.360
49044W        W15453  35.387  21.152  14.302
49045W        W15454   3.131  26.067  11.034
49046W        W15455  20.780   9.169   1.010
49047W        W15456  22.775  13.532  14.944
49048W        W15457  16.583   2.628   1.917
49049W        W15458  35.426  44.819   1.728
49050W        W15459  30.163  20.660   2.365
49051W        W15460  25.355   3.264   1.472
49052W        W15461  14.301   6.398  13.198
49053W        W15462  19.167   4.473   1.915
49054W        W15463  15.158  34.009  12.920
49055W        W15464  21.714  10.310   3.702
49056W        W15465   4.892  23.093   0.333
49057W        W15466   2.827  37.979   2.956
49058W        W15467   0.501  42.734   2.817
49059W        W15468   7.944   2.040  13.201
49060W        W15469  17.301  20.656  13.448
49061W        W15470  22.906  38.653   2.247
49062W        W15471  22.120   3.087   1.517
49063W        W15472  18.139   9.217   4.161
49064W        W15473  18.046  16.272   1.720
49065W        W15474  26.383  31.145  13.378
49066W        W15475  40.270  21.056   1.830
49067W        W15476  22.474  29.969  14.864
49068W        W15477   2.144  14.635   2.683
49069W        W15478  10.201  25.017   2.186
49070W        W15479  17.367   5.807   1.277
49071W        W15480   3.483   4.307   2.304
49072W        W15481  21.516  42.577  11.155
49073W        W15482  15.744  37.987  11.895
49074W        W15483  39.326  16.234   1.068
49075W        W15484   2.542  23.825   5.073
49076W        W15485  36.482  11.587   2.974
49077W        W15486  17.644  17.068  11.070
49078W        W15487  18.743   6.955   3.204
49079W        W15488  28.093  43.372   4.147
49080W        W15489  15.327  36.589   2.715
49081W        W15490  23.189  39.336  14.170
49082W        W15491  27.216  43.960  12.988
49083W        W15492  34.942  12.793   0.485
49084W        W15493  15.773  11.611  11.190
49085W        W15494  20.524  36.653   1.779
49086W        W15495  27.577  39.354   4.116
49087W        W15496  29.878  22.163   1.425
49088W        W15497  22.486  18.158  12.177
49089W        W15498  12.712  30.229  12.454
49090W        W15499   1.286   7.420   2.237
49091W        W15500  25.001  17.832  13.818
49092W        W15501  24.114   5.950  12.157
49093W        W15502  18.335  39.637  10.118
49094W        W15503   0.867  30.123  11.063
49095W        W15504   9.653  33.089   2.333
49096W        W15505  43.202  18.686   3.143
49097W        W15506  18.310  12.247   3.709
49098W        W15507   8.368  28.278  14.985
49099W        W15508   2.983   9.288  10.798
49100W        W15509  19.784   0.901  14.488
49101W        W15510   6.309  29.669   4.451
49102W        W15511  16.009  23.891   4.119
49103W        W15512  21.316  37.256  13.422
49104W        W15513  42.553  28.911   1.772
49105W        W15514  29.368   0.679  12.065
49106W        W15515   9.599  34.995   4.927
49107W        W15516  36.789  39.758   4.114
49108W        W15517   2.798  11.085  13.230
49109W        W15518  32.917  22.626   3.503
49110W        W15519  37.005  44.003  12.926
49111W        W15520   9.839  30.561   4.308
49112W        W15521   4.297   8.251  13.403
49113W        W15522  11.585  13.722   0.761
49114W        W15523  21.835   7.254  11.019
49115W        W15524  11.308  19.289   3.253
49116W        W15525  41.846  19.647   2.475
49117W        W15526   8.381  12.137   2.554
49118W        W15527   8.230  29.006  14.539
49119W        W15528  28.089  35.571   1.912
49120W        W15529  36.039  38.507   1.209
49121W        W15530  28.710   6.724  14.488
49122W        W15531  37.307  15.853   2.741
49123W        W15532  11.215   5.900  14.842
49124W        W15533  33.541  14.259   3.103
49125W        W15534  38.340  42.473   2.241
49126W        W15535  14.392   4.017   1.430
49127W        W15536  11.142  26.197  12.178
49128W        W15537  41.419  41.022  13.335
49129W        W15538  36.190  31.112   1.365
49130W        W15539  37.081   6.330  11.129
49131W        W15540   4.195  16.088   0.471
49132W        W15541   2.354  24.747  11.980
49133W        W15542  29.538   5.796  14.435
49134W        W15543  32.328  30.443   0.350
49135W        W15544  43.467  38.049  11.512
49136W        W15545  39.040  16.153   4.599
49137W        W15546  33.559  37.990  10.709
49138W        W15547  37.509  44.417  14.466
49139W        W15548   9.628  18.573   1.942
49140W        W15549  20.765  17.084  11.730
49141W        W15550   6.155  43.841  10.834
49142W        W15551   0.417   1.962   0.443
49143W        W15552  32.713   8.798  14.902
49144W        W15553  39.381  44.967   3.728
49145W        W15554  35.048  32.432  14.413
49146W        W15555   7.728  33.090   1.940
49147W        W15556  20.428   8.913  12.156
49148W        W15557   0.722  13.101   2.637
49149W        W15558  44.916  40.665   2.285
49150W        W15559  14.960  22.567  11.651
49151W        W15560  40.139  39.008  12.889
49152W        W15561   9.462  37.924  11.999
49153W        W15562  17.481  21.354   2.069
49154W        W15563  38.065  20.920  10.592
49155W        W15564  26.086   3.369   2.709
49156W        W15565  42.199  33.779   3.251
49157W        W15566  27.621  11.919  10.891
49158W        W15567   2.136   1.917   3.276
49159W        W15568  38.280  42.802  12.840
49160W        W15569  25.753  42.801  12.990
49161W        W15570  43.723  27.060   0.801
49162W        W15571  44.409  24.319  14.282
49163W        W15572   1.292  37.971   0.334
49164W        W15573   7.867  21.607  13.300
49165W        W15574  15.039  27.007  13.856
49166W        W15575  38.869  24.966  11.355
49167W        W15576  32.087  38.446  12.783
49168W        W15577  13.920  38.968   4.756
49169W        W15578  39.476  43.507   1.003
49170W        W15579  28.480  41.651   0.372
49171W        W15580  16.658  38.947   1.919
49172W        W15581  40.946  28.346   1.838
49173W        W15582  39.804  12.748   1.329
49174W        W15583  27.414  35.078   3.881
49175W        W15584  17.088   9.984   2.098
49176W        W15585   0.640  40.479  12.471
49177W        W15586   0.648  17.533  11.273
49178W        W15587   8.623  27.750   2.826
49179W        W15588  16.616   1.551   0.255
49180W        W15589  29.026  36.606  12.905
49181W        W15590  31.622   6.716  10.459
49182W        W15591  40.370  27.640   1.664
49183W        W15592  18.186   1.466   4.632
49184W        W15593  44.908  22.213   2.325
49185W        W15594  40.460  44.844   2.499
49186W        W15595   1.657   2.970   4.193
49187W        W15596  44.937  43.090   1.258
49188W        W15597  35.840  37.566   1.126
49189W        W15598  21.129  20.242  14.878
49190W        W15599  14.564  36.970  13.105
49191W        W15600  24.887  15.746  13.022
49192W        W15601  19.511  12.523   2.292
49193W        W15602  13.555  16.084   0.878
49194W        W15603  24.800  26.173  12.371
49195W        W15604  26.303  42.717   5.065
49196W        W15605  20.987  18.664   0.305
49197W        W15606  21.077  42.718   4.444
49198W        W15607  23.045  28.190  11.489
49199W        W15608  19.146   7.628  14.502
49200W        W15609  32.115  17.987   0.379
49201W        W15610  28.860   5.425  14.904
49202W        W15611  23.507  14.572  13.754
49203W        W15612  13.351  30.780   2.611
49204W        W15613  26.582  19.341  11.170
49205W        W15614  18.811  32.609   0.243
49206W        W15615   6.366  18.662   3.256
49207W        W15616  13.266  37.571   1.525
49208W        W15617   6.422   7.909   0.453
49209W        W15618  14.752   9.078   4.230
49210W        W15619  31.558  37.476   1.957
49211W        W15620   9.201  31.771   5.012
49212W        W15621  13.107  26.524   0.464
49213W        W15622  40.827  22.744  11.531
49214W        W15623   0.736  27.048  14.386
49215W        W15624   6.937  15.106   4.611
49216W        W15625   9.606  24.628  14.022
49217W        W15626  21.586  13.683  14.714
49218W        W15627  15.218   0.027  10.824
49219W        W15628  34.099  22.385   1.225
49220W        W15629  14.844   1.415   0.701
49221W        W15630  28.237  27.071   3.806
49222W        W15631  27.540  21.582   2.734
49223W        W15632   2.706  19.623  10.715
49224W        W15633  28.549  29.440  10.201
49225W        W15634   4.452  12.247   4.805
49226W        W15635  22.981  19.008   0.412
49227W        W15636  39.803  40.373   3.311
49228W        W15637  37.973  23.090   2.358
49229W        W15638  10.897  27.477   4.488
49230W        W15639  14.728  30.122  13.732
49231W        W15640  36.923  44.348   2.507
49232W        W15641  14.797  34.957  11.694
49233W        W15642  43.364  22.378   1.456
49234W        W15643  27.154  11.645   3.146
49235W        W15644  28.071  37.661  14.962
49236W        W15645   4.108  22.597  10.400
49237W        W15646   4.308  31.532  13.421
49238W        W15647   6.793  41.562   4.183
49239W        W15648  38.439  10.922  14.027
49240W        W15649  17.077  34.670   4.132
49241W        W15650  37.629  30.517   2.419
49242W        W15651  27.335  21.666  11.411
49243W        W15652  43.280  10.246   1.643
49244W        W15653   8.889  35.184  11.600
49245W        W15654   3.476  33.582   4.153
49246W        W15655  27.143  18.339  11.544
49247W        W15656   9.691  31.014  14.913
49248W        W15657  25.657  20.711   3.806
49249W        W15658  35.891  31.829   0.744
49250W        W15659  22.120   3.007  11.608
49251W        W15660  33.880  38.318   3.223
49252W        W15661  17.771   2.018  13.981
49253W        W15662  29.326  14.273   2.256
49254W        W15663  33.491  16.593  11.401
49255W        W15664  27.678   4.954   2.184
49256W        W15665  26.563  12.428  11.868
49257W        W15666  14.795  13.209   0.537
49258W        W15667  22.753  16.766   1.310
49259W        W15668  25.614  33.418  14.697
49260W        W15669  29.956  13.419   0.496
49261W        W15670  12.745  18.594   3.936
49262W        W15671  20.350  29.831  13.521
49263W        W15672  27.296  10.429   0.482
49264W        W15673  28.106  16.676   2.198
49265W        W15674   5.262  40.553  13.801
49266W        W15675  22.663   4.197  13.945
49267W        W15676  16.338  16.574   2.377
49268W        W15677  37.030  13.192  11.910
49269W        W15678  34.147  34.164   2.256
49270W        W15679  14.599  18.501  13.345
49271W        W15680  33.299  28.153  10.723
49272W        W15681  15.570   0.387  13.293
49273W        W15682  27.739  24.156  11.206
49274W        W15683   6.927  31.176   4.066
49275W        W15684  32.866  25.158  14.375
49276W        W15685  27.643  40.260  14.011
49277W        W15686   0.309  24.196   0.386
49278W        W15687  10.707  11.053   4.936
49279W        W15688  14.663  40.547  11.197
49280W        W15689  27.190  33.041  12.872
49281W        W15690   6.717  26.744  11.986
49282W        W15691   1.291  25.265  13.988
49283W        W15692  36.814  28.263   4.560
49284W        W15693  40.052  23.975  12.385
49285W        W15694  43.383  20.824  11.358
49286W        W15695  39.121  15.110  10.999
49287W        W15696  41.352  35.593  11.213
49288W        W15697  43.537  11.662  12.912
49289W        W15698  29.988   1.865  10.411
49290W        W15699  43.623  18.309  13.537
49291W        W15700   6.278  24.533  13.456
49292W        W15701   1.045   3.861   2.689
49293W        W15702  31.987  40.382   1.450
49294W        W15703  37.475   6.967   0.929
49295W        W15704  28.582   8.915  13.056
49296W        W15705  13.365  33.892   2.746
49297W        W15706  41.824  15.913   2.908
49298W        W15707  28.215   6.382  12.785
49299W        W15708  28.104  23.605  10.637
49300W        W15709  40.766  38.392   0.104
49301W        W15710  32.414  12.107   0.275
49302W        W15711  12.057  10.307   4.202
49303W        W15712   2.996  20.767  14.945
49304W        W15713  43.804   7.117   0.433
49305W        W15714  20.720  38.523   2.255
49306W        W15715  30.749   7.181  11.998
49307W        W15716  14.837  27.323  11.202
49308W        W15717  15.617  40.823   3.352
49309W        W15718  28.449  32.488  12.925
49310W        W15719  40.565  20.963  13.363
49311W        W15720   8.155  14.070  12.537
49312W        W15721  28.203  31.021   3.032
49313W        W15722   2.554  16.098   4.810
49314W        W15723  10.241  21.316  10.105
49315W        W15724  15.848  17.867  13.316
49316W        W15725  17.073  36.767   0.478
49317W        W15726  19.614  23.470   0.318
49318W        W15727  17.110  17.894  13.640
49319W        W15728   6.736   7.730  12.910
49320W        W15729   5.974  33.472   4.103
49321W        W15730  37.105   1.174   2.253
49322W        W15731  35.482  15.158  11.130
49323W        W15732  34.958  23.223  12.476
49324W        W15733   3.962  44.049   0.016
49325W        W15734   3.935  11.462   2.628
49326W        W15735  41.002  17.222  14.834
49327W        W15736  12.753  18.605  12.076
49328W        W15737  10.882  40.490   4.418
49329W        W15738  39.303  36.170  11.243
49330W        W15739  17.777  15.512  12.117
49331W        W15740  17.793  18.318   4.538
49332W        W15741   1.435  23.707   4.455
49333W        W15742  40.855  39.364  11.516
49334W        W15743  18.465  17.656   1.449
49335W        W15744  26.686  34.086   2.512
49336W        W15745  37.843  12.402  12.059
49337W        W15746  38.974  24.465  11.071
49338W        W15747   9.151  30.048   0.441
49339W        W15748   4.798  10.058  13.465
49340W        W15749  41.996  12.522   0.836
49341W        W15750  11.693  31.862   1.128
49342W        W15751  13.401  32.783   1.966
49343W        W15752  11.401   7.769   1.274
49344W        W15753  12.817  38.937  14.798
49345W        W15754  22.785  32.509   1.845
49346W        W15755   0.440  15.871  13.320
49347W        W15756  37.079  44.706   4.352
49348W        W15757   1.831   0.337   4.587
49349W        W15758  20.339  37.518  11.159
49350W        W15759   4.140  20.766  14.318
49351W        W15760   2.502  31.622   2.969
49352W        W15761  30.159  42.335   2.627
49353W        W15762   5.361  21.823  10.849
49354W        W15763  27.815  19.558   2.326
49355W        W15764  43.512  29.625  14.186
49356W        W15765   0.755  36.958   0.232
49357W        W15766  25.929  15.083   3.737
49358W        W15767  32.089  18.346  13.476
49359W        W15768  40.480   5.393   0.925
49360W        W15769  42.330   5.971   0.787
49361W        W15770  15.563  25.136   4.448
49362W        W15771  13.239   2.664   1.447
49363W        W15772  32.541  11.163   2.283
49364W        W15773  26.299  34.548   2.310
49365W        W15774  28.945  22.162  11.518
49366W        W15775  10.092  37.054   4.629
49367W        W15776   7.906  22.270  14.966
49368W        W15777  30.717   1.064  13.760
49369W        W15778  15.846  42.828  11.553
49370W        W15779  22.006  33.592  11.550
49371W        W15780  41.937  35.342   1.214
49372W        W15781   6.309  43.191   3.462
49373W        W15782  14.599  25.409  13.875
49374W        W15783  33.314   0.572  12.032
49375W        W15784  38.130  31.575  11.608
49376W        W15785   9.603  20.186  12.827
49377W        W15786  32.636  36.304  14.085
49378W        W15787  43.428  34.030  12.297
49379W        W15788  27.081  16.754  10.699
49380W        W15789   5.340   5.003   3.585
49381W        W15790  44.275  32.046   4.959
49382W        W15791  33.146  15.829   1.398
49383W        W15792  24.664  42.565  12.019
49384W        W15793  30.585  12.316   3.267
49385W        W15794  17.601  25.761   1.742
49386W        W15795  28.602  25.221  13.551
49387W        W15796   7.166  16.518  11.988
49388W        W15797  44.945  43.969  10.641
49389W        W15798  17.367  22.146   3.126
49390W        W15799  15.026  32.492   0.832
49391W        W15800  33.879   3.364  12.534
49392W        W15801  25.282  18.304  12.566
49393W        W15802  24.570  29.447  10.780
49394W        W15803  41.889  34.551   3.144
49395W        W15804   2.700  33.622  12.100
49396W        W15805  26.260  15.910  12.624
49397W        W15806   4.802  11.155  11.664
49398W        W15807  39.540  10.569   2.193
49399W        W15808  38.556  41.489   0.397
49400W        W15809  36.540   3.935   1.783
49401W        W15810  20.535  40.565  12.897
49402W        W15811  19.695  10.383  10.679
49403W        W15812  32.856  27.156  12.584
49404W        W15813   3.414  43.395  13.078
49405W        W15814   4.476  21.176   0.425
49406W        W15815  28.747  35.654  11.229
49407W        W15816  39.346  30.975  13.507
49408W        W15817  36.526  16.798   2.692
49409W        W15818  17.541  25.405   2.771
49410W        W15819   9.742  14.132   3.873
49411W        W15820  35.177  20.587   3.930
49412W        W15821   2.141  31.830  12.218
49413W        W15822   8.908  21.606   0.338
49414W        W15823  19.666  37.364  10.485
49415W        W15824  34.027  44.714   1.487
49416W        W15825  34.564  32.390  14.574
49417W        W15826   7.687  31.013  13.695
49418W        W15827  29.046  32.341  14.429
49419W        W15828  15.226  19.573  14.995
49420W        W15829   2.866   3.432  11.629
49421W        W15830  43.454  31.404  12.666
49422W        W15831  23.941  22.565   1.752
49423W        W15832  44.450   7.325   4.485
49424W        W15833  41.918  25.478  11.427
49425W        W15834  32.786  26.518   4.480
49426W        W15835  13.113   7.362  12.046
49427W        W15836  42.463  43.808  14.024
49428W        W15837  38.043  19.942   1.307
49429W        W15838   9.357  23.036  13.100
49430W        W15839  16.156  12.358   1.152
49431W        W15840  37.116  12.766  12.222
49432W        W15841  23.837  16.688  13.369
49433W        W15842   4.647  38.098   4.346
49434W        W15843  38.378  26.993   0.652
49435W        W15844  39.480  12.358  12.484
49436W        W15845   9.098  27.713  12.485
49437W        W15846  32.481   2.578  13.469
49438W        W15847  19.304  13.211   3.524
49439W        W15848  36.400  43.456  14.307
49440W        W15849  44.978  31.121   1.693
49441W        W15850  20.230  35.358  14.514
49442W        W15851  11.252  32.140  11.003
49443W        W15852  27.888  39.380   1.763
49444W        W15853  38.408   1.309  12.497
49445W        W15854  18.891  18.611   2.252
49446W        W15855   2.311  40.329   0.749
49447W        W15856  27.897  11.469  10.571
49448W        W15857  26.691  20.712  13.095
49449W        W15858  24.733  26.566  11.135
49450W        W15859  10.403  21.121  13.777
49451W        W15860  14.099  27.016   1.185
49452W        W15861  14.791  14.443  11.270
49453W        W15862  20.611   9.052   5.020
49454W        W15863  12.126  28.642  10.757
49455W        W15864   4.635  43.393  12.428
49456W        W15865   9.627  24.129   1.349
49457W        W15866  10.111   4.593  11.142
49458W        W15867  15.367  26.876   1.992
49459W        W15868  26.844   5.292   4.831
49460W        W15869   2.004  33.051  14.223
49461W        W15870   8.657  20.566   2.791
49462W        W15871  25.658  29.324   2.645
49463W        W15872  32.916  14.626   4.594
49464W        W15873  41.746  44.357  13.380
49465W        W15874  14.453  20.161   3.713
49466W        W15875  15.448  32.877  14.826
49467W        W15876   1.328  16.040   2.459
49468W        W15877  10.647  10.602  11.012
49469W        W15878  33.914   3.928   1.270
49470W        W15879  34.411  22.440  12.566
49471W        W15880  13.333   7.712   4.103
49472W        W15881   0.279  17.561   3.121
49473W        W15882  13.325  12.230  13.071
49474W        W15883  11.684  41.410  12.693
49475W        W15884  33.139  26.118   4.525
49476W        W15885  13.584   7.473   0.327
49477W        W15886  14.680  17.075   1.896
49478W        W15887  27.169  40.837  14.285
49479W        W15888  42.073  18.760   0.740
49480W        W15889  25.751   3.904   0.338
49481W        W15890   6.691  27.262  12.093
49482W        W15891  36.855  36.420   3.868
49483W        W15892   3.952   6.665   4.267
49484W        W15893  40.761   6.704  12.194
49485W        W15894  28.796  39.906  13.947
49486W        W15895  39.837  11.307   0.992
49487W        W15896   2.543  14.593  13.938
49488W        W15897  23.438  21.182   3.725
49489W        W15898   1.204  15.119   0.841
49490W        W15899   7.272  20.465   3.155
49491W        W15900  25.662   3.071  10.267
49492W        W15901  40.295  44.360  14.924
49493W        W15902  32.099  30.925   3.667
49494W        W15903  12.635  10.169  14.789
49495W        W15904  33.938  27.640   5.015
49496W        W15905  16.157  44.077  14.315
49497W        W15906  21.559  31.184   4.632
49498W        W15907  23.639  17.934  11.173
49499W        W15908  13.448  33.429  10.807
49500W        W15909  42.373  35.452  13.545
49501W        W15910  23.236  37.541  11.029
49502W        W15911  19.119  40.794   2.250
49503W        W15912  32.419   9.697  12.423
49504W        W15913  18.553  12.764  12.930
49505W        W15914  16.341  32.003  10.576
49506W        W15915  34.908  17.046  10.327
49507W        W15916  28.460  26.121   0.324
49508W        W15917  42.823  31.151   2.293
49509W        W15918  26.066   8.280  11.882
49510W        W15919   7.250  21.795   3.708
49511W        W15920  13.980  20.326  11.635
49512W        W15921  40.197  43.188   2.676
49513W        W15922   6.435   7.939  11.097
49514W        W15923  29.360  19.466  13.709
49515W        W15924  12.848  13.022   4.911
49516W        W15925  41.439  21.290  11.928
49517W        W15926   4.599  12.712  10.319
49518W        W15927  34.594   5.815   0.343
49519W        W15928  44.955  24.434  11.569
49520W        W15929   2.178  22.614  14.193
49521W        W15930  28.169  44.451  10.957
49522W        W15931  31.926   5.742   3.666
49523W        W15932  23.872   8.219  13.773
49524W        W15933  41.468   7.371  12.595
49525W        W15934  14.128  26.414  11.825
49526W        W15935  10.664  41.292  14.292
49527W        W15936  10.348  38.961  12.489
49528W        W15937   9.926  13.742  12.348
49529W        W15938  32.680  35.904  12.838
49530W        W15939  22.019   5.780   4.862
49531W        W15940  20.458   9.622   0.452
49532W        W15941  28.033  14.618  10.740
49533W        W15942  15.641   3.638  12.675
49534W        W15943  44.541  22.256  11.116
49535W        W15944  31.148   2.669   3.176
49536W        W15945   5.592  25.922   0.339
49537W        W15946  38.957  14.586  12.437
49538W        W15947  34.823  42.559  14.757
49539W        W15948   6.865  42.088  14.409
49540W        W15949  33.604  18.822   2.235
49541W        W15950  25.965  33.561  13.573
49542W        W15951  43.771  11.733  14.105
49543W        W15952  28.459  20.177  12.308
49544W        W15953   7.779  13.142  14.304
49545W        W15954  16.190  33.233  14.493
49546W        W15955  23.550  36.586   3.558
49547W        W15956  35.115  23.966  11.108
49548W        W15957  43.763   4.446  10.684
49549W        W15958  24.008  43.690  13.467
49550W        W15959  25.568   6.409  14.364
49551W        W15960  25.538  37.137  10.672
49552W        W15961   7.278   9.522  14.001
49553W        W15962  43.960   4.934   4.498
49554W        W15963  20.584  14.847   2.386
49555W        W15964  11.462   4.771  13.157
49556W        W15965  24.796  10.763  10.418
49557W        W15966   0.760   0.249   4.052
49558W        W15967  22.144  11.540  12.541
49559W        W15968  43.941  32.203   3.245
49560W        W15969  44.125  18.574   2.118
49561W        W15970  20.700  35.899  13.509
49562W        W15971  17.057  40.290  12.460
49563W        W15972  34.955  16.128   1.203
49564W        W15973  20.149  19.995  12.867
49565W        W15974  20.191  37.178  12.555
49566W        W15975   6.686  29.489   4.136
49567W        W15976  42.241  25.733  11.110
49568W        W15977  14.736  26.678  12.447
49569W        W15978  17.253  15.848  13.385
49570W        W15979  10.574  30.477  11.849
49571W        W15980  38.442   8.549   3.586
49572W        W15981  34.674  16.064   4.918
49573W        W15982  41.934  38.973  14.605
49574W        W15983  16.821  20.073  10.232
49575W        W15984  35.584  44.211   1.375
49576W        W15985  30.576  32.509   3.933
49577W        W15986  35.568  22.233   2.312
49578W        W15987  15.538  21.546  12.107
49579W        W15988  40.342  25.652   1.253
49580W        W15989  30.239  25.113  14.877
49581W        W15990  25.076  14.146   3.195
49582W        W15991  33.441  40.531   3.708
49583W        W15992  20.777  20.639   2.762
49584W        W15993  26.923  26.050  14.365
49585W        W15994  28.621   4.755  12.753
49586W        W15995  15.528   8.363   2.560
49587W        W15996  42.380  43.455  10.887
49588W        W15997   2.644   6.658   1.271
49589W        W15998   4.630  43.209   3.772
49590W        W15999  36.417  15.624  10.231
49591W        W16000   7.373  26.068   0.907
49592W        W16001  31.095  36.314   0.004
49593W        W16002  44.407  28.562   3.704
49594W        W16003  11.082   2.211   0.251
49595W        W16004  14.095  35.527   1.908
49596W        W16005   7.401  22.907  12.416
49597W        W16006  41.760  41.847  14.317
49598W        W16007   8.150  28.972  11.906
49599W        W16008  31.080   0.650  10.454
49600W        W16009  26.187   7.948   0.816
49601W        W16010  37.348  32.391   2.367
49602W        W16011   8.369  33.402   3.126
49603W        W16012  10.732  40.557   0.339
49604W        W16013   5.383  27.033   4.231
49605W        W16014   2.767  43.272   2.664
49606W        W16015   4.135  16.805   4.631
49607W        W16016  16.494  15.620   1.524
49608W        W16017  20.765   0.499   3.299
49609W        W16018  17.210   4.418  11.655
49610W        W16019  26.626  42.369   2.660
49611W        W16020   2.935  36.361  13.871
49612W        W16021  34.328  37.830  11.308
49613W        W16022   3.817  15.190   2.448
49614W        W16023  28.501  37.328  14.830
49615W        W16024  14.247  31.131   5.081
49616W        W16025  41.785  39.039   0.089
49617W        W16026  10.646  14.345   4.809
49618W        W16027  40.843  31.018  14.340
49619W        W16028  25.424  19.032   1.486
49620W        W16029   8.284  40.524  14.494
49621W        W16030  32.583  37.555   1.557
49622W        W16031   0.448  31.529   1.430
49623W        W16032  21.218  37.735   2.247
49624W        W16033  29.733  35.579   4.053
49625W        W16034  22.745   1.534  10.943
49626W        W16035  17.270  37.811  14.837
49627W        W16036  34.687   9.699   0.418
49628W        W16037   4.240  37.996   1.032
49629W        W16038  11.081   6.912   3.251
49630W        W16039  37.246  36.177  12.862
49631W        W16040   5.742  28.409   0.282
49632W        W16041  41.710   4.997   3.343
49633W        W16042   2.719   3.174   0.307
49634W        W16043  23.683   2.860  13.093
49635W        W16044  41.872  27.592   1.226
49636W        W16045  23.845  37.822   0.039
49637W        W16046   2.530  18.907  11.836
49638W        W16047  12.450  32.509  11.791
49639W        W16048  21.152  12.843  13.025
49640W        W16049  44.862  39.609   4.611
49641W        W16050  14.383   6.690   3.042
49642W        W16051  33.988  16.021  13.008
49643W        W16052  33.989   7.826  11.342
49644W        W16053   4.781   9.257  13.129
49645W        W16054   0.931  25.667   2.694
49646W        W16055  13.755  37.677  12.078
49647W        W16056  38.752  18.156   3.346
49648W        W16057  26.147   1.915   4.151
49649W        W16058  34.978   7.710  11.707
49650W        W16059  28.416  19.125  14.980
49651W        W16060  25.218  24.188  14.407
49652W        W16061   2.062  17.412  14.729
49653W        W16062   0.024  19.096  11.133
49654W        W16063   0.388   8.158   4.860
49655W        W16064  42.783  16.044   1.657
49656W        W16065   2.784  11.286   1.948
49657W        W16066  30.692  23.692   3.710
49658W        W16067   1.689   8.650   1.164
49659W        W16068  38.578   9.938   0.232
49660W        W16069   9.312  23.647   5.184
49661W        W16070  20.290  21.765  14.726
49662W        W16071  12.807  12.912   0.663
49663W        W16072  38.834  26.834  12.598
49664W        W16073  30.115   4.994  11.416
49665W        W16074  44.187  32.596  13.623
49666W        W16075  10.864   6.999   0.969
49667W        W16076   0.535  11.704   4.291
49668W        W16077  35.828   7.190   0.737
49669W        W16078   3.842   7.204  11.807
49670W        W16079  43.160  12.175  11.340
49671W        W16080  10.698  17.204   1.786
49672W        W16081  40.385  27.492   2.159
49673W        W16082  39.569   6.216  14.374
49674W        W16083  28.366  34.428   2.914
49675W        W16084  19.817  21.388  13.871
49676W        W16085  35.415  34.243  12.713
49677W        W16086  11.519   2.543   2.567
49678W        W16087   3.075  38.529   0.576
49679W        W16088  35.831  20.715   0.918
49680W        W16089  21.765  13.575   2.746
49681W        W16090  19.542  34.170  11.040
49682W        W16091  15.651  26.559  11.136
49683W        W16092  42.127  40.006   4.555
49684W        W16093  21.059  39.439  11.013
49685W        W16094  28.080  31.955   0.577
49686W        W16095   4.410  20.255  10.548
49687W        W16096  18.447   7.226  14.837
49688W        W16097   3.853  35.497   0.255
49689W        W16098   1.105   0.767   3.308
49690W        W16099  29.966  39.854   1.353
49691W        W16100  41.196  16.308  13.437
49692W        W16101  44.950  30.493  11.075
49693W        W16102  43.936  30.415   2.710
49694W        W16103   8.622  44.689   2.136
49695W        W16104  32.516   8.687  11.200
49696W        W16105  12.828  35.481   2.669
49697W        W16106  30.071  35.819  14.314
49698W        W16107  40.786  22.181   1.688
49699W        W16108  32.347  29.745   1.674
49700W        W16109  24.825  24.255   4.951
49701W        W16110  39.901  35.854   3.772
49702W        W16111  34.073  12.227   0.870
49703W        W16112  10.465  27.238   4.009
49704W        W16113   6.504  24.877  10.802
49705W        W16114  22.051  13.662   4.391
49706W        W16115  39.499  41.477   2.788
49707W        W16116  19.010  41.944   0.167
49708W        W16117  24.207  36.293  14.435
49709W        W16118   0.260   6.818   3.726
49710W        W16119  10.888  16.298   2.847
49711W        W16120  33.171  24.090  13.198
49712W        W16121  19.932   9.516  10.548
49713W        W16122  13.533   4.101  10.227
49714W        W16123  38.859  22.480   2.112
49715W        W16124  37.022  36.714   2.138
49716W        W16125  28.020  13.447   2.261
49717W        W16126  22.499  10.706  14.675
49718W        W16127  24.476  44.309   2.655
49719W        W16128  27.113  19.304  13.367
49720W        W16129  40.415  20.699   2.165
49721W        W16130  28.314  26.961  10.697
49722W        W16131  27.987  26.948  10.264
49723W        W16132  34.908   0.743   4.628
49724W        W16133  22.067  41.008  11.443
49725W        W16134   0.972   8.686   1.816
49726W        W16135  16.161  36.289  12.527
49727W        W16136  38.441   3.502   0.381
49728W        W16137  15.759   1.254  11.083
49729W        W16138   6.608  42.796  11.892
49730W        W16139  32.809   6.622  11.072
49731W        W16140  32.616  29.536   3.225
49732W        W16141  38.838  22.422  11.663
49733W        W16142   8.717   3.861  14.031
49734W        W16143  39.877  10.926   2.392
49735W        W16144   7.866   5.404   3.984
49736W        W16145   5.456  32.385   2.665
49737W        W16146  18.771  39.834   2.762
49738W        W16147   9.890   9.238  12.829
49739W        W16148  38.150  10.251   3.009
49740W        W16149   2.799  32.709   0.030
49741W        W16150  23.643   3.786   3.491
49742W        W16151  22.650  22.228   1.899
49743W        W16152  30.128  38.957  14.269
49744W        W16153  16.813  39.547   2.764
49745W        W16154  43.421  23.117   4.502
49746W        W16155   9.125  23.660  10.936
49747W        W16156  36.321  18.989   2.191
49748W        W16157  36.931  25.986  10.691
49749W        W16158   6.075   0.638  14.027
49750W        W16159   3.236  17.318   3.192
49751W        W16160  17.097   4.287   4.856
49752W        W16161  20.239  40.335  13.438
49753W        W16162  37.086  20.811   4.099
49754W        W16163  43.242  28.537   0.671
49755W        W16164  13.182  39.400   4.080
49756W        W16165  33.785  14.804   4.250
49757W        W16166  17.126  34.944   4.584
49758W        W16167  19.602  42.361  13.770
49759W        W16168   6.791   4.707   0.250
49760W        W16169  20.982   8.282  11.128
49761W        W16170  37.902   4.456   1.326
49762W        W16171  27.994  11.089  12.461
49763W        W16172  40.984  40.768   3.726
49764W        W16173  40.929  25.480  14.846
49765W        W16174   3.001   1.954  14.892
49766W        W16175  13.274  40.835   4.507
49767W        W16176  38.303  34.363   2.269
49768W        W16177  26.909  14.179  12.086
49769W        W16178  26.155  10.606  13.842
49770W        W16179  32.553  44.813   4.038
49771W        W16180  27.146  31.094   3.843
49772W        W16181  16.052  18.067   2.254
49773W        W16182  32.078  14.367   9.860
49774W        W16183  26.935  30.602  11.089
49775W        W16184  16.170   0.601  12.661
49776W        W16185  11.131  24.785  11.117
49777W        W16186   2.196   8.604  12.986
49778W        W16187   3.158  16.637  14.604
49779W        W16188  36.136   4.468  14.442
49780W        W16189  22.138  17.068  10.385
49781W        W16190   7.485  24.175  13.517
49782W        W16191   4.477  24.416  12.348
49783W        W16192   0.955  36.858  10.616
49784W        W16193  38.298  39.905  14.835
49785W        W16194   1.716  30.967  10.494
49786W        W16195  26.574  11.922  11.954
49787W        W16196  43.803   0.915   0.784
49788W        W16197  44.535  14.238   2.923
49789W        W16198  33.899  18.580   1.765
49790W        W16199  25.969  38.501  10.725
49791W        W16200   4.265  12.113  14.049
49792W        W16201  26.146  33.288  13.977
49793W        W16202  34.114  34.765   2.924
49794W        W16203  30.964  21.236  14.412
49795W        W16204   2.885  40.326  13.941
49796W        W16205  18.690  21.655  10.704
49797W        W16206   7.303   5.881   0.831
49798W        W16207  12.102   5.710  10.533
49799W        W16208  11.185  17.389   3.423
49800W        W16209  13.748  32.202   5.092
49801W        W16210  13.758  22.878  14.714
49802W        W16211  34.554  11.142  12.975
49803W        W16212   6.916  13.219   4.606
49804W        W16213  11.189  31.997   2.856
49805W        W16214  34.904  14.680  11.717
49806W        W16215   0.549   1.795  10.482
49807W        W16216   6.555  31.863   5.178
49808W        W16217  40.404  40.963   4.378
49809W        W16218  39.196  29.952  12.869
49810W        W16219   2.849  10.326   1.161
49811W        W16220  18.192  26.526  11.129
49812W        W16221  24.725  28.586   1.989
49813W        W16222   9.880   3.041  11.157
49814W        W16223  12.588  12.604   2.664
49815W        W16224  25.931  14.885  14.455
49816W        W16225  17.799  40.576  13.640
49817W        W16226  19.312  20.911   4.151
49818W        W16227  26.929  38.504   4.212
49819W        W16228  15.330  32.124   3.693
49820W        W16229  41.827  14.605   3.157
49821W        W16230  32.511  34.860  13.622
49822W        W16231   5.193  14.627   4.134
49823W        W16232  26.016  20.768   2.061
49824W        W16233  20.621  42.472  11.124
49825W        W16234  33.520  18.535  12.558
49826W        W16235   8.359  13.227  12.151
49827W        W16236  26.244  20.581   1.152
49828W        W16237  26.387   6.985  10.781
49829W        W16238  29.847   3.732  11.839
49830W        W16239  28.426  23.074   0.955
49831W        W16240  31.574  24.380   1.998
49832W        W16241   4.037  36.573   1.947
49833W        W16242  39.056  11.230  11.923
49834W        W16243  36.161  23.533  12.064
49835W        W16244  16.172  29.232  13.467
49836W        W16245   6.201  21.261   1.254
49837W        W16246  44.787  18.269   2.773
49838W        W16247  19.121  23.450   3.866
49839W        W16248  29.483  42.075  13.351
49840W        W16249  43.423  31.883   4.003
49841W        W16250  24.034  38.677   1.365
49842W        W16251  17.351  31.901   3.296
49843W        W16252  27.156   8.878   4.323
49844W        W16253   8.752  34.576   4.846
49845W        W16254  35.550  21.456   0.453
49846W        W16255  17.300   6.244   4.630
49847W        W16256  41.405  25.745   4.625
49848W        W16257  12.140  25.008   0.983
49849W        W16258   7.233  31.611  13.355
49850W        W16259  17.790  17.757  13.837
49851W        W16260   0.814  28.973  12.995
49852W        W16261  35.653   1.403   3.107
49853W        W16262  33.213  36.117   1.903
49854W        W16263  19.347  12.819  14.574
49855W        W16264  31.157  25.422   2.352
49856W        W16265  41.359  10.649   2.096
49857W        W16266  37.301   6.120   4.081
49858W        W16267  28.184   9.058  13.368
49859W        W16268  34.847  43.516   3.872
49860W        W16269  39.571  24.700   0.572
49861W        W16270  23.750   0.887  13.620
49862W        W16271  20.243  33.422  12.132
49863W        W16272   5.189  42.904  10.753
49864W        W16273   1.977  26.043   1.420
49865W        W16274  15.765  31.650   2.291
49866W        W16275  12.021  10.731  13.950
49867W        W16276   4.027   9.280   0.090
49868W        W16277  33.883   7.776   2.849
49869W        W16278  10.359  11.450   4.944
49870W        W16279  26.005  16.351   4.765
49871W        W16280  31.471  16.864   2.273
49872W        W16281  24.977  41.830  12.419
49873W        W16282  21.338   2.561  10.513
49874W        W16283  42.058   8.368   4.780
49875W        W16284  11.808   2.184   0.814
49876W        W16285  20.277  17.000  10.766
49877W        W16286  44.857  13.193   4.600
49878W        W16287  15.859  11.060  14.006
49879W        W16288   4.165  12.308  13.043
49880W        W16289  36.998  21.279  10.712
49881W        W16290  16.809  14.081  11.159
49882W        W16291  28.141   3.272   3.689
49883W        W16292  25.523   3.841   4.594
49884W        W16293   2.956   2.408   3.306
49885W        W16294   1.739   9.417  12.467
49886W        W16295   0.026  16.558  11.986
49887W        W16296  20.185  31.606  14.012
49888W        W16297   4.267   9.124  12.886
49889W        W16298  16.713  28.234  12.655
49890W        W16299  43.655  43.218  14.899
49891W        W16300  40.097  11.793   3.284
49892W        W16301  44.509  29.257   3.211
49893W        W16302   1.368   8.831   5.323
49894W        W16303  14.798  16.328  11.047
49895W        W16304  24.268  17.083  14.270
49896W        W16305  28.504  42.021  10.779
49897W        W16306  32.852  13.501   4.088
49898W        W16307  44.990  30.882  12.492
49899W        W16308   6.388  13.237   2.626
49900W        W16309  32.349  27.607  13.848
49901W        W16310  12.854   2.927  10.143
49902W        W16311  33.395  22.701  13.842
49903W        W16312  27.599  29.236  14.423
49904W        W16313  43.972  33.047   4.281
49905W        W16314  13.194   6.427  12.008
49906W        W16315  24.531  11.641   4.324
49907W        W16316  40.855   6.854   3.632
49908W        W16317  15.587  38.296  10.976
49909W        W16318  14.712   3.560   1.801
49910W        W16319  16.794  37.830   0.373
49911W        W16320  22.162   6.014  10.708
49912W        W16321  20.145  16.065  10.838
49913W        W16322  24.358  26.823  10.912
49914W        W16323  12.687  25.908  14.056
49915W        W16324  43.940  43.445  12.074
49916W        W16325  32.759   3.463  14.246
49917W        W16326  45.000  38.282   2.773
49918W        W16327   8.915  30.157  10.129
49919W        W16328   3.773  42.723   0.290
49920W        W16329  17.006  12.429   3.356
49921W        W16330   7.500  29.993  11.155
49922W        W16331   4.432  27.596  13.906
49923W        W16332  17.542   2.956  13.710
49924W        W16333  14.707  38.856  11.802
49925W        W16334   2.975  27.485   4.263
49926W        W16335  40.020  39.934   3.142
49927W        W16336  17.711  35.165  13.467
49928W        W16337  22.073   0.525  10.156
49929W        W16338  31.475  32.899  11.497
49930W        W16339  23.412  18.079   1.837
49931W        W16340  27.218  40.354   4.691
49932W        W16341  26.830  32.657   2.335
49933W        W16342   2.107  17.931  14.883
49934W        W16343   9.684  10.460  10.221
49935W        W16344  33.285  44.822   2.137
49936W        W16345   1.426  23.541   2.212
49937W        W16346  19.597  10.334   3.065
49938W        W16347  35.285  15.655   3.648
49939W        W16348   6.115  18.242  11.067
49940W        W16349   8.095  15.760  12.888
49941W        W16350  38.848  42.796   0.839
49942W        W16351  34.837   8.220  14.409
49943W        W16352   8.167  35.599  11.939
49944W        W16353  27.674   8.141   0.923
49945W        W16354  17.969   9.450   1.936
49946W        W16355  43.295  35.575   4.915
49947W        W16356  23.810  27.912   1.812
49948W        W16357  35.847  18.047  13.146
49949W        W16358  24.810  42.334  12.518
49950W        W16359   8.617  20.078  14.539
49951W        W16360  21.343  37.488   3.552
49952W        W16361  15.040  25.926   1.394
49953W        W16362  11.104  10.139  14.565
49954W        W16363   0.178  31.438  12.904
49955W        W16364  37.983  14.277   3.747
49956W        W16365  18.811  42.006   1.977
49957W        W16366  30.375  11.233  11.204
49958W        W16367  24.538  24.079   3.197
49959W        W16368   2.786  30.357  12.106
49960W        W16369  28.432  14.627  14.842
49961W        W16370  42.138  43.228   4.907
49962W        W16371  27.462  44.432   0.016
49963W        W16372  12.879  42.040  14.353
49964W        W16373   4.906  25.141  13.894
49965W        W16374   8.626  40.816  12.571
49966W        W16375  12.148  27.127  11.131
49967W        W16376  43.971   5.898  12.478
49968W        W16377   5.285  37.368  11.035
49969W        W16378  39.065   1.216   0.390
49970W        W16379   7.296  18.272   0.462
49971W        W16380  24.885   7.549   1.363
49972W        W16381  33.988   8.884  13.467
49973W        W16382  16.456  28.520  11.941
49974W        W16383  18.243  25.823  14.409
49975W        W16384  31.900  12.997   0.720
49976W        W16385  42.567  29.221   0.909
49977W        W16386  32.453  16.675   2.181
49978W        W16387   7.099  33.175   2.790
49979W        W16388  29.850  30.580  12.527
49980W        W16389  13.209  19.021   4.989
49981W        W16390  19.290  21.352  11.055
49982W        W16391  36.595  20.667  14.756
49983W        W16392  16.775  29.870  10.507
49984W        W16393  42.380  24.227   2.441
49985W        W16394   3.200  16.768  10.401
49986W        W16395  43.947  24.508   0.702
49987W        W16396  11.389   6.118  13.050
49988W        W16397  36.268  30.997  12.521
49989W        W16398  15.655  30.313  10.140
49990W        W16399  24.111   4.423  13.076
49991W        W16400  39.600  13.428   0.787
49992W        W16401  41.767  43.109  12.922
49993W        W16402  17.241  18.910  13.450
49994W        W16403  22.169  14.780   1.327
49995W        W16404  17.694   5.376   0.662
49996W        W16405   1.436  28.486   4.164
49997W        W16406  34.757  16.723   3.176
49998W        W16407  33.101  23.738   1.304
49999W        W16408   0.050  13.623  12.012
50000W        W16409  10.738  19.836   3.702
50001W        W16410  39.558  39.193   0.690
50002W        W16411  28.131  38.004   1.003
50003W        W16412  26.954  38.493  12.879
50004W        W16413   3.355  40.890  14.407
50005W        W16414  11.618  28.924  13.797
50006W        W16415  28.171  44.156  14.519
50007W        W16416   3.809   0.745   1.293
50008W        W16417  13.576  35.903   4.343
50009W        W16418   4.057  24.587  10.200
50010W        W16419   0.793  11.364  13.171
50011W        W16420  24.483   7.971  13.528
50012W        W16421  30.818   4.260   2.794
50013W        W16422   1.208   5.981  13.295
50014W        W16423  11.240  15.919   2.780
50015W        W16424  13.218  11.365  14.584
50016W        W16425  29.246  35.823   4.030
50017W        W16426  29.647   4.787   2.809
50018W        W16427   3.752  34.005   3.274
50019W        W16428  23.197  32.166   2.284
50020W        W16429   3.446  35.320   1.969
50021W        W16430  36.079   0.494  10.800
50022W        W16431  24.317  38.764   4.140
50023W        W16432  37.657  35.300  11.565
50024W        W16433  18.296  35.202   1.876
50025W        W16434  37.209  43.508   4.909
50026W        W16435  36.291  44.348   3.766
50027W        W16436  43.327  12.036  13.906
50028W        W16437  27.375  27.404  12.341
50029W        W16438   8.839  13.308  14.329
50030W        W16439  43.557  39.048   4.074
50031W        W16440  32.971  33.336  12.009
50032W        W16441   4.752  32.510  11.655
50033W        W16442   5.867  11.644  11.555
50034W        W16443  43.796  21.006   3.131
50035W        W16444  38.020  19.707   3.384
50036W        W16445  11.313  37.972  10.699
50037W        W16446  42.797  18.806  11.248
50038W        W16447  14.392  29.693  12.812
50039W        W16448  27.271  30.573  11.491
50040W        W16449  27.749  11.629  12.624
50041W        W16450  17.944   9.921   3.748
50042W        W16451  17.486  19.825   0.708
50043W        W16452  22.539  14.179   2.713
50044W        W16453  19.084  28.148  12.607
50045W        W16454   3.329  12.642  13.932
50046W        W16455  21.676  27.406   0.269
50047W        W16456   3.224  20.597  10.479
50048W        W16457  30.634  44.911   1.296
50049W        W16458   5.509  35.576   1.748
50050W        W16459  37.058   8.414   2.667
50051W        W16460   5.393  38.909   2.893
50052W        W16461  41.286  25.484   4.164
50053W        W16462  18.760  11.883  13.134
50054W        W16463  19.262  32.972  11.035
50055W        W16464   8.269  28.134  10.335
50056W        W16465  26.933   0.434   4.133
50057W        W16466  44.849  11.083   1.870
50058W        W16467   7.698   6.548  14.431
50059W        W16468   7.878  27.847  10.559
50060W        W16469  24.545  28.043  11.567
50061W        W16470   3.192  23.187  12.919
50062W        W16471  14.769  43.759   0.961
50063W        W16472  35.372  40.089  11.996
50064W        W16473   8.187   4.964   3.246
50065W        W16474  14.699  11.623   2.192
50066W        W16475  20.575  30.431   4.967
50067W        W16476  40.982  16.409   1.008
50068W        W16477  43.373   3.680   0.884
50069W        W16478  21.073  17.542   3.603
50070W        W16479   1.450   7.425   0.856
50071W        W16480  21.879  12.349  12.851
50072W        W16481  42.008  30.733  13.802
50073W        W16482  19.809  11.791   2.667
50074W        W16483  28.725   5.931   2.711
50075W        W16484  32.167  33.466   0.760
50076W        W16485  39.815  23.625  12.703
50077W        W16486  43.622   5.198   0.895
50078W        W16487  23.668   0.394   3.491
50079W        W16488  24.483  33.887  14.601
50080W        W16489  24.543   2.821   1.637
50081W        W16490  26.251  17.625  13.221
50082W        W16491  32.242   4.819  11.538
50083W        W16492   3.270  32.895   1.848
50084W        W16493   3.046   4.652  12.005
50085W        W16494  34.892  31.621  13.464
50086W        W16495  13.532  40.340  12.244
50087W        W16496   7.462   8.638  11.675
50088W        W16497  30.302  43.171   1.404
50089W        W16498  41.668  26.020   0.777
50090W        W16499  21.121  41.315  13.856
50091W        W16500  33.303  11.741   4.529
50092W        W16501  28.623  42.556   3.275
50093W        W16502   2.514  26.026  12.528
50094W        W16503  15.732  13.523   0.587
50095W        W16504  21.005  14.677  11.065
50096W        W16505   8.302   5.869  13.465
50097W        W16506  16.327  36.634   1.227
50098W        W16507  27.141  23.750  13.766
50099W        W16508  44.350   7.179   3.450
50100W        W16509  32.093  22.597  14.365
50101W        W16510  42.032  41.988  10.680
50102W        W16511  29.384   9.300   0.013
50103W        W16512  30.894  33.306   4.148
50104W        W16513  21.610  43.386  11.660
50105W        W16514  24.999   1.006  11.192
50106W        W16515   5.973  29.562   1.799
50107W        W16516  28.314  16.133  12.995
50108W        W16517  38.396  39.872   1.817
50109W        W16518   9.138  27.418   3.637
50110W        W16519  19.949  40.040  11.547
50111W        W16520  24.248   8.766   3.201
50112W        W16521  18.686   6.452  13.467
50113W        W16522  40.260  20.948  12.087
50114W        W16523  44.155  41.742  12.107
50115W        W16524   3.502   8.713  12.137
50116W        W16525  26.511   4.042   1.459
50117W        W16526   8.710  22.011   1.904
50118W        W16527   1.409  18.282   2.149
50119W        W16528  39.280  14.315  13.532
50120W        W16529  31.999   6.427   1.613
50121W        W16530   0.516   3.584   1.401
50122W        W16531   1.721  42.082  10.700
50123W        W16532  14.786  22.491  13.296
50124W        W16533   9.764  15.872   0.159
50125W        W16534  26.649  34.080   1.550
50126W        W16535  38.007  28.483  11.770
50127W        W16536   3.481  36.904   0.930
50128W        W16537   7.260  16.712   4.078
50129W        W16538   5.412  33.577  12.081
50130W        W16539  14.479  13.267   0.963
50131W        W16540  30.152  31.232   0.001
50132W        W16541  31.092   3.941   3.649
50133W        W16542  26.530  30.215   3.684
50134W        W16543   5.985   4.466  13.732
50135W        W16544  15.216   6.262   4.589
50136W        W16545  22.515   6.464  13.477
50137W        W16546  29.340  20.613  13.139
50138W        W16547  17.811   7.407  14.453
50139W        W16548  40.102  11.735  14.863
50140W        W16549  36.730  44.045   0.330
50141W        W16550  42.223  42.711   5.004
50142W        W16551  16.824  37.555   2.686
50143W        W16552   7.122  28.924   3.926
50144W        W16553  44.400   9.277  14.593
50145W        W16554  42.746  14.143   2.323
50146W        W16555  12.895  17.263   3.769
50147W        W16556  19.522  25.993   2.959
50148W        W16557  35.390  12.311   0.901
50149W        W16558   0.088  18.307   4.529
50150W        W16559  28.722   0.429  13.951
50151W        W16560  22.222  41.745  12.782
50152W        W16561  15.685  29.598   2.335
50153W        W16562  12.677  35.888  10.594
50154W        W16563  44.524  17.361   1.146
50155W        W16564  17.051  36.905  13.631
50156W        W16565  42.529  41.597   3.925
50157W        W16566  19.103  24.119  11.323
50158W        W16567  27.726   2.609   3.225
50159W        W16568  24.164  10.400   0.204
50160W        W16569   3.544  36.489   2.226
50161W        W16570  29.195  33.193  11.184
50162W        W16571  31.180  20.280  11.657
50163W        W16572  30.404  22.630   1.782
50164W        W16573  36.353  14.875  13.446
50165W        W16574  12.774   4.334   2.875
50166W        W16575   6.307   7.451  10.974
50167W        W16576  15.734  16.989   1.743
50168W        W16577  18.365  36.599  12.004
50169W        W16578  28.489   3.211  12.363
50170W        W16579   8.675  16.561   3.609
50171W        W16580  36.592  25.078  11.662
50172W        W16581   9.170  41.327   3.817
50173W        W16582  18.705   6.150  13.907
50174W        W16583  35.515  16.778   0.909
50175W        W16584  27.937  13.251  12.877
50176W        W16585  28.119  17.018  12.591
50177W        W16586  26.695  17.637   3.784
50178W        W16587  31.927  37.896   4.332
50179W        W16588  12.096  29.452   3.762
50180W        W16589  10.303  15.306   3.379
50181W        W16590  35.356  30.469  14.784
50182W        W16591   0.825   0.219   5.086
50183W        W16592  37.942  16.564   9.946
50184W        W16593  20.547  34.641  14.892
50185W        W16594   5.939  34.906  11.145
50186W        W16595  37.658  22.814  10.025
50187W        W16596   7.605   9.105  11.512
50188W        W16597  18.646  40.331  13.361
50189W        W16598  10.757  40.411  11.324
50190W        W16599  23.266   3.696   3.975
50191W        W16600   4.515   6.111  14.899
50192W        W16601   6.223  19.745   5.065
50193W        W16602  43.882  38.470   1.178
50194W        W16603  30.894   2.893  11.717
50195W        W16604   4.663  28.707   0.912
50196W        W16605  44.316  15.162  14.845
50197W        W16606   1.822   8.295  13.248
50198W        W16607   2.151  39.072  14.855
50199W        W16608   7.405  36.710  13.854
50200W        W16609  10.672  22.792  12.318
50201W        W16610  20.658  32.055   1.393
50202W        W16611   7.940   0.921  11.663
50203W        W16612  43.973  11.386   4.641
50204W        W16613  36.843  11.770  13.370
50205W        W16614   1.451  38.365  11.184
50206W        W16615  34.460  44.820  10.807
50207W        W16616  35.764   1.540  13.467
50208W        W16617  30.201  35.355  13.459
50209W        W16618  36.295  17.067  11.186
50210W        W16619  35.917   6.341   4.416
50211W        W16620  16.651  24.166  14.280
50212W        W16621  34.557   9.377   0.812
50213W        W16622  26.494  19.966   1.407
50214W        W16623  28.908  18.188  12.131
50215W        W16624  28.454  19.588  13.821
50216W        W16625  23.296  40.004  11.253
50217W        W16626  13.722  35.371   2.269
50218W        W16627  30.216  24.604   0.453
50219W        W16628  42.566  37.936   1.787
50220W        W16629  42.503   6.677  13.477
50221W        W16630  40.987  18.637  14.369
50222W        W16631   4.479  19.306  14.595
50223W        W16632   5.605  27.410  12.984
50224W        W16633  21.717  18.162   2.524
50225W        W16634  13.522  44.462   4.726
50226W        W16635  41.418   6.788   4.821
50227W        W16636  41.594  13.138   2.787
50228W        W16637  11.651   1.789   2.267
50229W        W16638  38.412   2.283   3.636
50230W        W16639  19.276  43.907  14.702
50231W        W16640  32.424  11.687   3.828
50232W        W16641   6.678  32.054   3.431
50233W        W16642  17.742  18.644   9.771
50234W        W16643  40.090  43.354   1.836
50235W        W16644   5.799   0.293   1.880
50236W        W16645  44.428   4.923  10.518
50237W        W16646  13.160  43.265  14.177
50238W        W16647  16.099  24.592  14.767
50239W        W16648  32.997  42.937   2.316
50240W        W16649  28.206  32.396  14.806
50241W        W16650  20.543  16.766   3.711
50242W        W16651   0.898  40.913   4.917
50243W        W16652  10.116  40.540  11.946
50244W        W16653  36.780  14.395  10.748
50245W        W16654  22.331  29.160  12.870
50246W        W16655  33.872  26.195  12.023
50247W        W16656   4.225  14.076   2.674
50248W        W16657   0.222  25.465   3.713
50249W        W16658  39.736  18.147  10.071
50250W        W16659  10.767  12.645  13.470
50251W        W16660  17.295   3.899   4.551
50252W        W16661  27.328   2.460  12.409
50253W        W16662   6.683   6.654  11.882
50254W        W16663   6.695  29.196  10.616
50255W        W16664  27.619  35.442   2.054
50256W        W16665  37.326  36.325   4.746
50257W        W16666   4.659  12.739   5.052
50258W        W16667  33.670  38.419   4.098
50259W        W16668  29.593  28.603   4.204
50260W        W16669  20.798  41.425  12.082
50261W        W16670   1.959   2.268  10.727
50262W        W16671  11.397  35.823  11.722
50263W        W16672   8.497  23.206   2.674
50264W        W16673   3.918  40.793   1.864
50265W        W16674   1.632  25.065   2.814
50266W        W16675  37.282   6.961  11.188
50267W        W16676  23.196   2.020   1.282
50268W        W16677  13.353  16.813   4.910
50269W        W16678   7.941  41.988  11.279
50270W        W16679  26.420   4.903  11.048
50271W        W16680  22.936  39.006   0.914
50272W        W16681  15.633   8.512   1.257
50273W        W16682  20.572   2.953   1.934
50274W        W16683  13.337  40.311   4.633
50275W        W16684  12.857  25.530  10.919
50276W        W16685   4.874  27.077   0.530
50277W        W16686  44.981  38.747  14.378
50278W        W16687   9.369   0.460   0.830
50279W        W16688  25.607  42.877  10.041
50280W        W16689  33.391  20.386  11.974
50281W        W16690  40.485  27.505   3.688
50282W        W16691  12.160  32.607  10.686
50283W        W16692   1.621  26.710   4.889
50284W        W16693  31.669  24.669   3.694
50285W        W16694  30.530  17.569  10.898
50286W        W16695  39.860  37.574  10.985
50287W        W16696  42.543   4.317  12.848
50288W        W16697  17.772  26.414   4.149
50289W        W16698  28.520  24.673  14.307
50290W        W16699  40.820  43.068   3.282
50291W        W16700  32.909  18.641  13.991
50292W        W16701   8.620  42.607  13.371
50293W        W16702  17.451   8.802   1.381
50294W        W16703  39.995  26.472   0.730
50295W        W16704  36.612  41.859  11.612
50296W        W16705  12.529  10.441  13.444
50297W        W16706   0.472  10.385  11.230
50298W        W16707  35.763   7.229  14.212
50299W        W16708  24.974  28.481  14.033
50300W        W16709  33.424  23.951  10.575
50301W        W16710   8.337  34.554   0.501
50302W        W16711   7.285  34.397   0.347
50303W        W16712   8.991  24.436   3.129
50304W        W16713  34.323   4.449  10.382
50305W        W16714  27.064  44.782  13.576
50306W        W16715  32.576  22.487   4.265
50307W        W16716  10.412  43.250  11.497
50308W        W16717  16.686  36.330  12.484
50309W        W16718   4.500  41.350  11.924
50310W        W16719  12.662  20.211   1.423
50311W        W16720  31.130  27.062  13.810
50312W        W16721   0.415   3.180   2.718
50313W        W16722  16.794  36.319  10.731
50314W        W16723  30.331   5.609  12.096
50315W        W16724  21.676  15.772  10.591
50316W        W16725  21.178  30.060  10.798
50317W        W16726   2.459  12.681   1.942
50318W        W16727  18.455  16.635   0.393
50319W        W16728  29.715  37.844   3.610
50320W        W16729   6.714  28.713   4.681
50321W        W16730  15.779   0.530   1.455
50322W        W16731   8.842  17.690  14.854
50323W        W16732  37.300   3.079  11.018
50324W        W16733  25.121  34.429   0.520
50325W        W16734  39.960  41.831  13.722
50326W        W16735  20.842  11.762  10.562
50327W        W16736  27.412  10.679   4.562
50328W        W16737   1.007  39.055   1.321
50329W        W16738  31.071  23.948   1.269
50330W        W16739  24.446  32.261  14.648
50331W        W16740  23.949  22.402  14.884
50332W        W16741  43.458  15.626  11.822
50333W        W16742  42.353  15.097  10.654
50334W        W16743  17.792  29.330  13.394
50335W        W16744  38.460  38.094  11.155
50336W        W16745  14.376   2.447   3.595
50337W        W16746  37.868   6.448  11.625
50338W        W16747  41.272  35.389   2.809
50339W        W16748  35.698   3.563   0.367
50340W        W16749  28.979   7.294   0.667
50341W        W16750  30.476  38.850   2.185
50342W        W16751  11.677  25.019  12.922
50343W        W16752   8.327  24.362  11.213
50344W        W16753  17.546   2.720  13.250
50345W        W16754  41.512  16.667   3.105
50346W        W16755   7.456  21.927  13.357
50347W        W16756  20.605  29.565  12.404
50348W        W16757   1.813  33.094   3.363
50349W        W16758  39.893  42.697   3.145
50350W        W16759  18.701  19.498   5.264
50351W        W16760  32.618  43.314  11.435
50352W        W16761  31.962  39.828   4.734
50353W        W16762  27.237  33.324  13.902
50354W        W16763  27.729  23.756  12.971
50355W        W16764  38.494  36.479   1.384
50356W        W16765   8.930   3.497   2.908
50357W        W16766  13.183   3.833   2.270
50358W        W16767  26.503  37.199   4.136
50359W        W16768  17.036  19.124  12.078
50360W        W16769  40.368  12.090  14.538
50361W        W16770  12.059  41.381  11.408
50362W        W16771   2.262  29.957  14.264
50363W        W16772  39.348  44.979  12.614
50364W        W16773  40.897  15.211  12.996
50365W        W16774   5.072  27.681  14.722
50366W        W16775   8.651  11.774  13.297
50367W        W16776  34.894  33.586  10.731
50368W        W16777   6.674  17.629   0.387
50369W        W16778  14.111  33.997  14.781
50370W        W16779  25.187  26.532  10.904
50371W        W16780  34.951  37.834   1.799
50372W        W16781  22.755  15.688  12.033
50373W        W16782  43.488  19.579   3.538
50374W        W16783  16.039  11.294   0.376
50375W        W16784  36.908  24.951   3.457
50376W        W16785  17.331  19.205  11.628
50377W        W16786  40.725  16.524  11.650
50378W        W16787  19.826  15.384  11.894
50379W        W16788  17.201  29.991   0.290
50380W        W16789  31.430  26.290  14.323
50381W        W16790  11.374   0.804   1.820
50382W        W16791   9.199  27.461   1.768
50383W        W16792   6.309  35.350   0.049
50384W        W16793  36.112  44.082   1.266
50385W        W16794  27.568   7.347   9.808
50386W        W16795  28.645  17.806  13.457
50387W        W16796  35.426  29.609   0.997
50388W        W16797  33.480  24.698   4.658
50389W        W16798   7.068  14.687  13.456
50390W        W16799  13.197  42.979   1.203
50391W        W16800   4.289  22.698  12.151
50392W        W16801  25.939  16.535   2.689
50393W        W16802   7.829  36.177   4.000
50394W        W16803  27.993   2.634  10.449
50395W        W16804  31.847   9.245  14.722
50396W        W16805   3.678  11.904   0.153
50397W        W16806  41.868  39.577  11.894
50398W        W16807  24.032   9.802  12.166
50399W        W16808  43.828  44.796  12.072
50400W        W16809  21.521  17.710   3.822
50401W        W16810  42.552  38.616  12.953
50402W        W16811  41.247  31.508   3.194
50403W        W16812  31.086  28.603   2.699
50404W        W16813  27.017  35.071  11.419
50405W        W16814  38.808  23.528   2.185
50406W        W16815   6.480  37.532  11.660
50407W        W16816  36.453  15.024  11.939
50408W        W16817  32.715   3.511   4.010
50409W        W16818   4.007  34.918  14.549
50410W        W16819  26.509  19.444   1.340
50411W        W16820  26.693  43.969   0.638
50412W        W16821   2.458  21.472   3.721
50413W        W16822  16.326  28.737  10.656
50414W        W16823  39.409  32.497   3.994
50415W        W16824   3.363  22.356   0.032
50416W        W16825   0.162  28.119  14.348
50417W        W16826   1.266  37.301  13.917
50418W        W16827  36.497   8.947  12.518
50419W        W16828  44.143  16.135   2.171
50420W        W16829  22.909  14.096  12.392
50421W        W16830   9.148  11.816   4.543
50422W        W16831   6.808  26.073  14.299
50423W        W16832   2.550  29.951  13.798
50424W        W16833  27.642  38.228  11.161
50425W        W16834  10.753   1.906  14.969
50426W        W16835  17.254  37.396   3.645
50427W        W16836  26.499   6.287   0.488
50428W        W16837  23.931  22.478   3.540
50429W        W16838   2.528  18.630  13.559
50430W        W16839   4.649  41.983   4.593
50431W        W16840  27.999  19.989   0.744
50432W        W16841  18.668  42.216  14.895
50433W        W16842  13.551  16.620  13.119
50434W        W16843  25.981  40.020  14.477
50435W        W16844  41.841  26.459   4.161
50436W        W16845  43.349  41.581  12.504
50437W        W16846  11.347  14.501  11.673
50438W        W16847  19.013   9.153  10.939
50439W        W16848  22.051  16.713  12.187
50440W        W16849   2.388   1.773   1.156
50441W        W16850   8.676  41.300   2.708
50442W        W16851  20.990  24.931  12.909
50443W        W16852  43.533   9.075  14.523
50444W        W16853  44.063  35.495  12.097
50445W        W16854  15.401  37.726  12.183
50446W        W16855  42.901  29.842  14.746
50447W        W16856  41.241  44.265  13.473
50448W        W16857  29.543  35.036  14.284
50449W        W16858  33.617   8.239   2.774
50450W        W16859  25.425  17.603   4.119
50451W        W16860  13.813   0.192   2.377
50452W        W16861  14.566   0.863   2.447
50453W        W16862   9.191  20.416   1.953
50454W        W16863   6.168  25.920  12.068
50455W        W16864  31.583  39.102   0.282
50456W        W16865   0.991  33.000  14.264
50457W        W16866  34.073  10.708   1.207
50458W        W16867  15.360  15.216  10.598
50459W        W16868  40.060   1.661  12.080
50460W        W16869  20.569  10.097  13.151
50461W        W16870  30.897  17.612   4.768
50462W        W16871   3.288  19.222  13.861
50463W        W16872  39.458   8.585   4.954
50464W        W16873  22.002  39.786   0.184
50465W        W16874  38.947  32.968  13.072
50466W        W16875  15.705   9.020   1.259
50467W        W16876   1.983  39.083  12.527
50468W        W16877   2.663  30.549   2.340
50469W        W16878  15.572  35.893   0.786
50470W        W16879  42.978  36.262  14.437
50471W        W16880  10.296   1.961   0.883
50472W        W16881  12.476  40.096   4.478
50473W        W16882   9.485   0.451  12.522
50474W        W16883   7.864  32.875  13.583
50475W        W16884  20.220   0.691   3.575
50476W        W16885  13.687  19.630   4.505
50477W        W16886  42.991  44.003  14.692
50478W        W16887  31.666  16.672  13.477
50479W        W16888  42.409  21.477  12.509
50480W        W16889  18.587   1.467  11.593
50481W        W16890   6.334   2.916  14.939
50482W        W16891  28.626  17.657  11.953
50483W        W16892   9.433  18.013   3.555
50484W        W16893  39.916   4.418   3.740
50485W        W16894  24.079  25.680   0.443
50486W        W16895  41.745  28.114   0.337
50487W        W16896  20.544  24.475   1.437
50488W        W16897  16.875  16.388  14.864
50489W        W16898  34.660   8.490   1.945
50490W        W16899  31.994   8.934   4.667
50491W        W16900   0.144  13.576  12.894
50492W        W16901  29.984  23.856   1.154
50493W        W16902  20.399   4.861  11.876
50494W        W16903  33.855  31.343   2.352
50495W        W16904  41.186  17.975  11.101
50496W        W16905  31.379   5.610  12.968
50497W        W16906   3.868  23.776   0.395
50498W        W16907  21.331  22.140  10.938
50499W        W16908  19.793  41.111  12.116
50500W        W16909  20.521   3.306   4.506
50501W        W16910   6.800  17.234   4.695
50502W        W16911  41.764  11.291  11.732
50503W        W16912  33.451  12.608  11.178
50504W        W16913  43.447  13.804   4.401
50505W        W16914  19.504   9.755  14.950
50506W        W16915  23.415  21.733   9.735
50507W        W16916  22.654   9.208   3.563
50508W        W16917  19.578  23.334   3.526
50509W        W16918  39.414  14.786   1.278
50510W        W16919  18.162  43.406   3.955
50511W        W16920  11.803  39.809  13.387
50512W        W16921  22.707   5.728  13.062
50513W        W16922  38.907  16.626   4.786
50514W        W16923  13.803  16.587   3.592
50515W        W16924   7.467  43.441  13.338
50516W        W16925  17.749  33.475   4.347
50517W        W16926   8.246  23.796  11.196
50518W        W16927  22.158   9.390   3.620
50519W        W16928   3.223  44.343  14.296
50520W        W16929  14.624   3.244   3.103
50521W        W16930  23.752  13.784   1.425
50522W        W16931   7.840  33.876   3.582
50523W        W16932  15.445  20.656   1.305
50524W        W16933  28.408  37.605   4.020
50525W        W16934   0.463   7.785  14.617
50526W        W16935  28.555   5.982  12.941
50527W        W16936  31.760  22.795   4.512
50528W        W16937  34.031  26.587   5.088
50529W        W16938   4.911  15.565  11.189
50530W        W16939  22.188  33.810   2.316
50531W        W16940  44.276  10.273  14.409
50532W        W16941   1.187  17.491  11.145
50533W        W16942  14.679  23.181   2.066
50534W        W16943   7.377  35.335   1.521
50535W        W16944  41.752  35.455   1.722
50536W        W16945   4.180  27.576   2.247
50537W        W16946  44.308  44.688  13.465
50538W        W16947  18.773  33.557  12.490
50539W        W16948   5.573  21.846   0.096
50540W        W16949  10.423   0.633  12.507
50541W        W16950  32.278   8.966  13.843
50542W        W16951   9.190  22.643  13.477
50543W        W16952  44.712  33.945   2.688
50544W        W16953  32.892  38.632   0.060
50545W        W16954  43.436  43.824  14.480
50546W        W16955  38.514   0.908  12.924
50547W        W16956  14.743  40.053  12.125
50548W        W16957  10.732   7.184  12.593
50549W        W16958   5.275  19.272  11.601
50550W        W16959  18.195  22.008  12.851
50551W        W16960  33.764  17.985  12.971
50552W        W16961  39.329  31.921   1.852
50553W        W16962   2.402  38.374   4.315
50554W        W16963   6.603  27.197  12.839
50555W        W16964   0.784  19.755   1.001
50556W        W16965  35.121  44.373  11.838
50557W        W16966  31.210  19.820   0.521
50558W        W16967  18.330  36.488  12.497
50559W        W16968  13.872  15.356  11.414
50560W        W16969  22.602  12.304   3.136
50561W        W16970  22.527  31.422  11.171
50562W        W16971  21.530   7.773  13.102
50563W        W16972  15.127  22.817  12.086
50564W        W16973  12.246  27.664   3.305
50565W        W16974  20.085   8.102   4.654
50566W        W16975  19.803   1.663  11.747
50567W        W16976  28.135  30.941  11.665
50568W        W16977  38.651  43.894   4.150
50569W        W16978  32.900  40.073   0.255
50570W        W16979  37.516   1.485   2.315
50571W        W16980   2.013  25.010   0.753
50572W        W16981  34.339  29.162  11.137
50573W        W16982  12.754  33.683  11.929
50574W        W16983  44.036  30.581   4.221
50575W        W16984  39.081  24.041  10.734
50576W        W16985  36.634  30.846   1.295
50577W        W16986  27.199  43.106  13.199
50578W        W16987   0.483  24.987   4.566
50579W        W16988   5.201  25.279  14.851
50580W        W16989  20.669  44.529   4.749
50581W        W16990  15.269  36.764   3.185
50582W        W16991   1.807  13.756   2.646
50583W        W16992  44.826  33.073   1.919
50584W        W16993  41.083  28.046   2.252
50585W        W16994   6.772  28.232  11.826
50586W        W16995  23.893  43.735   0.284
50587W        W16996  39.852  23.039  10.693
50588W        W16997  13.170  43.632   0.465
50589W        W16998  16.088  30.343  11.464
50590W        W16999   4.310  14.769   1.250
50591W        W17000   1.794  33.214   3.871
50592W        W17001  18.094  18.971  14.714
50593W        W17002  23.040  25.851  14.325
50594W        W17003  43.687   3.261  12.443
50595W        W17004   5.629  33.109   0.201
50596W        W17005  26.066  22.633   3.162
50597W        W17006  36.566   7.721  11.120
50598W        W17007  33.410  14.132   3.581
50599W        W17008  24.198  44.236  10.731
50600W        W17009  16.868  38.304   3.891
50601W        W17010  41.288  42.914   4.589
50602W        W17011   3.195  40.343  13.509
50603W        W17012  38.041  16.787  13.493
50604W        W17013  41.423  30.990   0.464
50605W        W17014  24.464  31.222  14.982
50606W        W17015   6.297  15.355  11.648
50607W        W17016  18.690   0.909  13.399
50608W        W17017  32.484  42.443  13.588
50609W        W17018  44.248  35.125  13.575
50610W        W17019   0.263  27.078  11.409
50611W        W17020  32.902  14.715   3.715
50612W        W17021  28.634  21.735  11.659
50613W        W17022  17.542  15.287  11.599
50614W        W17023  18.609   7.355  12.046
50615W        W17024   7.999  12.828  10.096
50616W        W17025  12.723  35.853   4.063
50617W        W17026  12.133   3.886  11.262
50618W        W17027  32.784  28.344   1.707
50619W        W17028  33.748  29.025   2.219
50620W        W17029   6.252  16.588   4.237
50621W        W17030  40.877   6.556   0.667
50622W        W17031  21.145  17.970   9.925
50623W        W17032  11.296  44.880  10.081
50624W        W17033   5.153  28.579  12.133
50625W        W17034   9.497   6.650   4.171
50626W        W17035   2.957   5.164   2.589
50627W        W17036  30.396  34.119   1.854
50628W        W17037  21.926   3.280   0.367
50629W        W17038   5.723  17.649   3.567
50630W        W17039   9.867  34.098  13.546
50631W        W17040  24.504  35.898  12.078
50632W        W17041   1.750  13.167   3.435
50633W        W17042   5.342  10.570  12.488
50634W        W17043   9.119  25.888   1.798
50635W        W17044  35.086   9.314  14.949
50636W        W17045  26.335   1.448  13.532
50637W        W17046  35.555  24.755   3.064
50638W        W17047   1.057  36.842   2.275
50639W        W17048  10.841  34.138  12.898
50640W        W17049  14.112   9.932   3.288
50641W        W17050   1.976  32.414  12.715
50642W        W17051  39.437   3.275  14.413
50643W        W17052  11.576  14.562   4.866
50644W        W17053   3.376  30.443   1.802
50645W        W17054   7.354  18.758  12.084
50646W        W17055  25.963   5.185   3.402
50647W        W17056  40.752  38.468  12.806
50648W        W17057  32.832  15.478  11.130
50649W        W17058   6.415   0.119   1.322
50650W        W17059   5.849   1.422  11.236
50651W        W17060  19.636  33.183   3.205
50652W        W17061  17.264  25.776  11.873
50653W        W17062  18.959   0.925   2.227
50654W        W17063  11.300  31.159  11.962
50655W        W17064  42.268  43.472   0.290
50656W        W17065  28.667  41.459   0.818
50657W        W17066  30.676  15.801   2.404
50658W        W17067  41.392   1.564   2.121
50659W        W17068   9.707  24.829  11.142
50660W        W17069   2.188  38.851  12.079
50661W        W17070  30.512   7.884   3.261
50662W        W17071  23.760  32.492  13.485
50663W        W17072  42.253   7.162  10.305
50664W        W17073  36.831   3.184  10.814
50665W        W17074  12.625  26.024   2.748
50666W        W17075  38.530  38.331   4.148
50667W        W17076  39.574  27.519  10.697
50668W        W17077  10.919  31.812   5.476
50669W        W17078  11.102   3.914  11.604
50670W        W17079  30.935  24.143   3.678
50671W        W17080  20.633  12.643  10.328
50672W        W17081  36.157  30.643   1.177
50673W        W17082  27.610   3.836   4.232
50674W        W17083  23.954   6.277   0.373
50675W        W17084   8.931  25.660  11.714
50676W        W17085  21.030  19.129  12.545
50677W        W17086   7.821  20.514  13.800
50678W        W17087  27.666  33.955  12.905
50679W        W17088  41.059   5.804   4.886
50680W        W17089  34.107  29.673  10.659
50681W        W17090  27.130  20.730   1.392
50682W        W17091  14.766  42.514   1.364
50683W        W17092  26.081  23.186  12.546
50684W        W17093  34.963  12.139   1.816
50685W        W17094  20.269   3.957  13.976
50686W        W17095  16.555   4.865   1.267
50687W        W17096  25.543  21.674   1.209
50688W        W17097  34.174  27.419   3.777
50689W        W17098   5.947  15.738   2.370
50690W        W17099  35.401  13.578   4.064
50691W        W17100  43.439   4.184   0.914
50692W        W17101  38.462  13.044  11.921
50693W        W17102  13.748  21.707   0.219
50694W        W17103  37.013  26.163   3.324
50695W        W17104  32.377  11.646   4.336
50696W        W17105   3.838  22.109   0.195
50697W        W17106  12.322   8.913   4.017
50698W        W17107  21.402  44.954  11.406
50699W        W17108  32.028  34.660   0.029
50700W        W17109  30.640   1.291   0.895
50701W        W17110  26.372  13.897   3.006
50702W        W17111  12.055  43.610  14.950
50703W        W17112  21.687   3.341  13.439
50704W        W17113  34.604  20.985  13.867
50705W        W17114  30.772  26.996   3.264
50706W        W17115  30.978  34.985  11.539
50707W        W17116   1.699  25.090  12.384
50708W        W17117  15.441  34.044  14.294
50709W        W17118  31.929   7.473   4.518
50710W        W17119  42.339  31.038  13.021
50711W        W17120  27.607  30.776   4.794
50712W        W17121   3.835  28.199   3.746
50713W        W17122  38.798  37.550   2.522
50714W        W17123  32.690  42.346  10.613
50715W        W17124  22.060  31.768   4.944
50716W        W17125  35.926  44.749   1.927
50717W        W17126   7.647  14.042  12.578
50718W        W17127  39.626   6.870  11.467
50719W        W17128  38.263   4.182  11.060
50720W        W17129  12.285  40.963   3.950
50721W        W17130  37.940  44.930   4.890
50722W        W17131  26.063  19.598  11.551
50723W        W17132  44.831  39.023   2.226
50724W        W17133   9.946  35.015  11.063
50725W        W17134  32.917  14.480   2.348
50726W        W17135  35.829  13.824  12.092
50727W        W17136  17.617  14.767   4.706
50728W        W17137  17.235  27.277   4.691
50729W        W17138  20.527  23.447   1.356
50730W        W17139  40.623  20.850  12.517
50731W        W17140  26.470  10.112  10.738
50732W        W17141   1.919  15.161  11.961
50733W        W17142  34.795  43.765  10.720
50734W        W17143   6.107  43.909  13.841
50735W        W17144   6.860  29.114   0.290
50736W        W17145  37.857  12.086   0.311
50737W        W17146   9.159  10.869  13.019
50738W        W17147   9.098   4.202   4.131
50739W        W17148   7.913  15.556  10.948
50740W        W17149  28.425   5.231   3.041
50741W        W17150  25.171  38.325   3.617
50742W        W17151  27.974  22.850   5.293
50743W        W17152  24.256   9.349  12.140
50744W        W17153  33.237   1.232  14.347
50745W        W17154  17.092   1.373   0.183
50746W        W17155  38.106  38.681   4.233
50747W        W17156  26.179  19.147   3.778
50748W        W17157   4.393  34.513  14.067
50749W        W17158   5.566  28.559   2.695
50750W        W17159  43.979  32.401  14.058
50751W        W17160  30.307  36.676   1.767
50752W        W17161  28.474  37.454   0.371
50753W        W17162  34.526   3.438  14.863
50754W        W17163  44.267  26.202   1.061
50755W        W17164   4.451  14.575   2.659
50756W        W17165   2.144  29.128  14.619
50757W        W17166  37.860  31.456  10.731
50758W        W17167  39.393  26.014   3.473
50759W        W17168  19.334  22.557  11.671
50760W        W17169   0.524   4.187   4.359
50761W        W17170  22.510  23.956  10.640
50762W        W17171  24.978   9.152   1.750
50763W        W17172   4.006  15.216   4.300
50764W        W17173  43.347   8.675   2.449
50765W        W17174  28.492  30.461   3.759
50766W        W17175  32.857  17.449  12.811
50767W        W17176  42.034  15.793  11.623
50768W        W17177   1.727  34.947  14.893
50769W        W17178  36.599  35.040   9.894
50770W        W17179   6.276  32.697   4.919
50771W        W17180  43.830  12.633   4.173
50772W        W17181   4.196   8.710   1.701
50773W        W17182  30.989  28.867  14.028
50774W        W17183  12.225  36.380   0.813
50775W        W17184   7.659   6.768   3.734
50776W        W17185  37.571  30.360  14.516
50777W        W17186  25.608  20.531   1.853
50778W        W17187   6.860  18.241  13.472
50779W        W17188  19.031  35.126   3.815
50780W        W17189  39.149  26.277  11.163
50781W        W17190  20.186  16.574   3.193
50782W        W17191  22.696   9.868  12.562
50783W        W17192  38.751   6.217   3.666
50784W        W17193  43.818  21.593  13.480
50785W        W17194   9.732  18.669   1.009
50786W        W17195  26.297  39.832   2.970
50787W        W17196  32.611  30.873  13.933
50788W        W17197   5.067  10.010   4.234
50789W        W17198   7.613   4.996  11.612
50790W        W17199   5.625   2.827   2.374
50791W        W17200  37.851  16.379   0.707
50792W        W17201   6.902  14.753   0.389
50793W        W17202   9.432  42.829  13.841
50794W        W17203  15.759  31.746   1.346
50795W        W17204  23.791  44.907  13.131
50796W        W17205  33.900  42.844   1.061
50797W        W17206  37.101  29.404   2.380
50798W        W17207  10.668   9.110   4.882
50799W        W17208   0.497  21.741  13.869
50800W        W17209  35.600  16.556  11.157
50801W        W17210   0.018   5.743   0.701
50802W        W17211  31.788   0.484   2.911
50803W        W17212   1.526  11.194  12.405
50804W        W17213  31.995   2.502   1.581
50805W        W17214  43.099   7.328   1.144
50806W        W17215  29.568  16.074  13.491
50807W        W17216  37.044  29.880  10.520
50808W        W17217  30.593  13.570   1.763
50809W        W17218   1.779  27.146   3.661
50810W        W17219  19.115  35.623  11.028
50811W        W17220  11.120  33.919  14.329
50812W        W17221  24.508  42.401   1.306
50813W        W17222  27.715  22.284   1.741
50814W        W17223   8.554  25.066  13.842
50815W        W17224  44.937  31.474  14.313
50816W        W17225  28.191  12.278  10.270
50817W        W17226  36.596  24.028  13.493
50818W        W17227   9.799   9.958   2.153
50819W        W17228  18.051  14.852  11.584
50820W        W17229  28.139   9.372   1.849
50821W        W17230   1.215  35.028  14.809
50822W        W17231  41.781  42.387   1.965
50823W        W17232   0.432  14.064   1.738
50824W        W17233  12.344  12.619  11.104
50825W        W17234  17.555   3.938  11.628
50826W        W17235  40.667  28.055   0.263
50827W        W17236  34.469  34.979   1.253
50828W        W17237   4.751  15.596  11.676
50829W        W17238  24.724  33.567  13.672
50830W        W17239  12.191   5.165  14.376
50831W        W17240  18.995  40.062  13.918
50832W        W17241  28.126  17.850   1.360
50833W        W17242   7.937  30.374   1.878
50834W        W17243  12.185  14.316   2.188
50835W        W17244  38.523  26.595  13.359
50836W        W17245  23.240  13.221   3.632
50837W        W17246  15.718  22.856  14.727
50838W        W17247  27.844  22.644   0.982
50839W        W17248   4.233  33.611   1.914
50840W        W17249  26.503  12.927   3.974
50841W        W17250  29.567  26.860   0.101
50842W        W17251  35.540   8.315   1.062
50843W        W17252  28.137   3.455  12.862
50844W        W17253  33.925   6.294  13.818
50845W        W17254  13.867  39.451  14.011
50846W        W17255  29.521  14.710   0.045
50847W        W17256  39.339   1.729   3.694
50848W        W17257  26.265  21.245  13.914
50849W        W17258  38.911  29.514  13.762
50850W        W17259  35.554   4.685   2.914
50851W        W17260   2.891  13.301  14.319
50852W        W17261   5.823   4.957   1.308
50853W        W17262  25.034  36.659   2.345
50854W        W17263   0.419   7.322   3.823
50855W        W17264  34.051  26.991   0.942
50856W        W17265  11.219  33.919   1.890
50857W        W17266  12.706  12.366  12.205
50858W        W17267  43.369  30.648   4.770
50859W        W17268  15.081  28.545  13.892
50860W        W17269  33.979  12.614   1.912
50861W        W17270  44.875  41.004  12.162
50862W        W17271  13.123  17.299   0.991
50863W        W17272  39.815  42.905   1.758
50864W        W17273  14.847  42.358  13.232
50865W        W17274  43.438  39.067   1.737
50866W        W17275  33.440  36.815  13.570
50867W        W17276  43.717   3.290   0.178
50868W        W17277  44.441  43.873  10.731
50869W        W17278  18.662   5.821  11.140
50870W        W17279  41.376  30.097  12.543
50871W        W17280  23.366  25.268  12.976
50872W        W17281   7.646  18.269   4.965
50873W        W17282   8.329   3.915  10.521
50874W        W17283   5.175  14.643   1.928
50875W        W17284   1.942  21.346   1.749
50876W        W17285  14.335  39.493  11.578
50877W        W17286  32.812  41.637  11.788
50878W        W17287  42.303  11.819  12.418
50879W        W17288   9.176  38.346   4.111
50880W        W17289   2.419  39.992   2.615
50881W        W17290  41.242  12.728   3.474
50882W        W17291   6.896  32.176   9.512
50883W        W17292  18.476   8.573   0.733
50884W        W17293  39.829  38.799   1.914
50885W        W17294  13.570  16.623  13.633
50886W        W17295   3.277  32.332  10.363
50887W        W17296  12.839  27.481  11.146
50888W        W17297  26.923   3.700  11.181
50889W        W17298  19.702  44.507  14.224
50890W        W17299  20.311  29.051   3.656
50891W        W17300  16.719  44.528   2.330
50892W        W17301   7.865  30.441  14.963
50893W        W17302   1.284  19.937   0.901
50894W        W17303  30.713  30.635   2.266
50895W        W17304   9.055  41.329  11.649
50896W        W17305  24.534  21.073   0.823
50897W        W17306  13.170   0.952   0.449
50898W        W17307   3.370  29.487   0.844
50899W        W17308  19.055   0.591   0.996
50900W        W17309  39.077  30.841   3.212
50901W        W17310   4.759   1.001  13.022
50902W        W17311  17.497  20.474   4.986
50903W        W17312  23.011  32.942   3.204
50904W        W17313  18.326  36.093   2.753
50905W        W17314  41.344  15.967   1.161
50906W        W17315  25.797  30.014   3.231
50907W        W17316  44.481  12.453  11.133
50908W        W17317  20.939   0.366   0.234
50909W        W17318  44.787  17.619   4.946
50910W        W17319  13.286  38.766  12.495
50911W        W17320  24.437  17.263   1.886
50912W        W17321  17.716   2.424   3.347
50913W        W17322   5.745  34.720  12.856
50914W        W17323   8.945  39.823  13.077
50915W        W17324  10.316  39.130  14.022
50916W        W17325  32.381  37.151   4.150
50917W        W17326  34.112  12.106   1.889
50918W        W17327   5.484  38.886   1.315
50919W        W17328  31.788  14.340   5.178
50920W        W17329  10.845  13.341   2.995
50921W        W17330  12.720  11.983   1.706
50922W        W17331  27.394  36.368   4.010
50923W        W17332  13.731  24.149   2.399
50924W        W17333  30.361   2.387  14.876
50925W        W17334  19.097  15.053  14.031
50926W        W17335   2.469  18.993   4.127
50927W        W17336  11.449  13.129   0.441
50928W        W17337  13.549  15.348  12.560
50929W        W17338  15.607  32.615   0.784
50930W        W17339   0.492  41.481  11.096
50931W        W17340   3.165  36.970   1.857
50932W        W17341  39.485  29.693   4.168
50933W        W17342  29.952   3.813  13.244
50934W        W17343  20.768  23.906   2.278
50935W        W17344   9.610  18.783  12.566
50936W        W17345  31.652  26.625   3.992
50937W        W17346  40.892  23.002   2.945
50938W        W17347  29.612   6.803   3.191
50939W        W17348  15.634  35.050  12.966
50940W        W17349   1.751   8.877  14.790
50941W        W17350  26.485  33.363  13.317
50942W        W17351  18.259  26.655   2.670
50943W        W17352   9.762  33.431   3.538
50944W        W17353  17.754  21.852  10.309
50945W        W17354  43.429  40.592  13.743
50946W        W17355   9.143  23.666  10.426
50947W        W17356   9.136   3.953   3.672
50948W        W17357  35.455  43.834   1.732
50949W        W17358   3.263  38.797   3.516
50950W        W17359   0.666   9.837   2.257
50951W        W17360   4.431  41.511   2.789
50952W        W17361   0.183  21.427   3.262
50953W        W17362  21.080   1.635   2.806
50954W        W17363  41.596  21.872   3.050
50955W        W17364   8.329  35.248  14.294
50956W        W17365   6.643   8.825  13.619
50957W        W17366  11.265  41.468  13.081
50958W        W17367  12.627  39.874  12.953
50959W        W17368  33.955  41.417   2.236
50960W        W17369  25.410  30.084   1.453
50961W        W17370  25.341   7.799   2.296
50962W        W17371  10.813  42.868   2.826
50963W        W17372   2.102  38.839  11.172
50964W        W17373   8.295  43.425  13.119
50965W        W17374  36.258  10.666   2.333
50966W        W17375  13.163  14.102   0.305
50967W        W17376  42.778  38.363  12.543
50968W        W17377  25.595   3.374  13.142
50969W        W17378   1.948  37.964   0.840
50970W        W17379  41.968  22.710  13.912
50971W        W17380  39.067  25.407   4.917
50972W        W17381  25.709   1.339   3.628
50973W        W17382   5.255  39.145  11.444
50974W        W17383  19.708   9.931  13.405
50975W        W17384   4.102  15.599   0.818
50976W        W17385  11.729  16.628  11.588
50977W        W17386   0.720  33.814   1.345
50978W        W17387   5.775  30.476   1.355
50979W        W17388   4.207  26.074  11.326
50980W        W17389  14.479  42.759  10.509
50981W        W17390  39.460  42.062  13.510
50982W        W17391  39.800  22.007  12.416
50983W        W17392  10.427  35.948  13.592
50984W        W17393   6.113  33.350   1.921
50985W        W17394  31.069  15.699  13.932
50986W        W17395  41.456  16.294  14.899
50987W        W17396   6.766  23.764  13.272
50988W        W17397  34.793  10.301   3.319
50989W        W17398  42.270  23.029  10.653
50990W        W17399  42.542  31.095  12.109
50991W        W17400  26.208  23.290  13.444
50992W        W17401  27.949  34.712  13.395
50993W        W17402  25.193  42.899  11.353
50994W        W17403   2.371  16.094   0.359
50995W        W17404   8.740   5.177  11.053
50996W        W17405  14.848  21.058  12.461
50997W        W17406  33.530   8.392  13.997
50998W        W17407  28.976   1.441  12.940
50999W        W17408  26.560  12.496   4.775
51000W        W17409   8.896  20.683   1.197
51001W        W17410  10.606  23.508  14.923
51002W        W17411  38.472   9.602  12.090
51003W        W17412  43.775  19.707   1.771
51004W        W17413   5.982   9.690  14.455
51005W        W17414  28.723  42.076   0.564
51006W        W17415   9.993  22.553  11.644
51007W        W17416  35.335  30.134  11.073
51008W        W17417  11.909   2.739   4.445
51009W        W17418   9.460  31.787   9.932
51010W        W17419   3.755   1.264   1.353
51011W        W17420   2.197  34.125  12.529
51012W        W17421  44.742   8.389  13.911
51013W        W17422   8.645  42.900   3.211
51014W        W17423  37.059  26.190   1.834
51015W        W17424   3.810  12.831   3.941
51016W        W17425   7.149  15.659   2.006
51017W        W17426  14.543  35.854   0.975
51018W        W17427   6.612  19.119   0.208
51019W        W17428  25.488  15.999  11.244
51020W        W17429  44.196  32.136  11.793
51021W        W17430  40.517  38.977   5.260
51022W        W17431  13.924  25.834   2.887
51023W        W17432  42.990  21.158  13.351
51024W        W17433  44.850  13.858  14.251
51025W        W17434   0.853  42.130   4.745
51026W        W17435  15.397  37.855  13.054
51027W        W17436  28.568  21.779  14.544
51028W        W17437  15.099  33.519  13.501
51029W        W17438   5.531   4.500  12.990
51030W        W17439   7.171  27.014   1.188
51031W        W17440  17.570   9.282  13.193
51032W        W17441  12.779   2.699  13.057
51033W        W17442  43.049  18.312   2.398
51034W        W17443  13.419  28.133   2.709
51035W        W17444  43.345  27.610   4.635
51036W        W17445  40.778  11.409   2.001
51037W        W17446  39.722  13.525  13.805
51038W        W17447  12.889  30.922  11.634
51039W        W17448  11.190  11.873  10.423
51040W        W17449  35.929  30.400   3.078
51041W        W17450  27.478  19.590   3.601
51042W        W17451   9.282  43.001   4.363
51043W        W17452  10.334  33.607   9.844
51044W        W17453   3.763  43.877   3.628
51045W        W17454  42.803  15.904   2.176
51046W        W17455  16.280  29.480   4.067
51047W        W17456  43.468  32.621  13.956
51048W        W17457   1.427  22.053  11.278
51049W        W17458  25.608  43.055  10.643
51050W        W17459  11.702   0.615  13.787
51051W        W17460  33.593   2.686   1.464
51052W        W17461  29.837  29.192  14.401
51053W        W17462  28.072  20.937   4.115
51054W        W17463  40.879  21.650   4.629
51055W        W17464   4.255  38.370   4.072
51056W        W17465  34.131  35.523  13.612
51057W        W17466  27.636  41.527   1.085
51058W        W17467  22.986  20.137  12.642
51059W        W17468   7.030  18.832  11.682
51060W        W17469  23.400  19.492  11.501
51061W        W17470   3.880  27.870   0.426
51062W        W17471   2.859  28.270  13.353
51063W        W17472  14.861  35.134  11.222
51064W        W17473  31.221  25.100   3.216
51065W        W17474   8.883  30.546  11.419
51066W        W17475   2.935  18.597  11.640
51067W        W17476  25.633   7.909   1.852
51068W        W17477  29.192  40.017   1.889
51069W        W17478  19.263  32.488  13.139
51070W        W17479  21.342  39.098   5.032
51071W        W17480  29.500   6.284  11.728
51072W        W17481  31.915  40.993   0.286
51073W        W17482  30.115  40.488  12.067
51074W        W17483  41.570   4.238   2.773
51075W        W17484  27.467  34.014   3.411
51076W        W17485   7.518  21.297  13.809
51077W        W17486   2.644   4.249  13.721
51078W        W17487  33.583  21.267  14.690
51079W        W17488   2.747  19.949   4.124
51080W        W17489  24.395  15.680  11.048
51081W        W17490  18.565  10.978   3.251
51082W        W17491   8.767   8.141  11.154
51083W        W17492  25.037  40.901  14.113
51084W        W17493  28.010  11.384  11.946
51085W        W17494  39.286  29.911   2.462
51086W        W17495  20.934  38.412   1.154
51087W        W17496  16.797   6.504  13.862
51088W        W17497  28.331  12.402   9.779
51089W        W17498  17.837  24.675   0.056
51090W        W17499  29.150  32.601  12.016
51091W        W17500  23.807  17.063   3.819
51092W        W17501  28.321  19.568   4.188
51093W        W17502  41.721  24.062  10.311
51094W        W17503   8.210  11.702  13.930
51095W        W17504   8.487  28.243   0.806
51096W        W17505   7.137  26.417  12.047
51097W        W17506  13.433   2.213   1.261
51098W        W17507   3.915  43.935  10.377
51099W        W17508  26.689  23.065  13.391
51100W        W17509  14.592   3.577   2.710
51101W        W17510  28.798  30.391   4.163
51102W        W17511   5.468  43.383  11.152
51103W        W17512  42.861   7.338  14.567
51104W        W17513  24.461  33.131   3.358
51105W        W17514  41.852  38.784   0.511
51106W        W17515   7.814   3.936   1.032
51107W        W17516   8.310  15.316  10.660
51108W        W17517  35.908  23.775  11.671
51109W        W17518  43.612  32.878  14.393
51110W        W17519   4.739  37.172  10.364
51111W        W17520   1.784  37.919   3.298
51112W        W17521  12.054   0.066  10.206
51113W        W17522  37.094  27.060   3.157
51114W        W17523  14.616   5.243  14.835
51115W        W17524  22.508   0.694   3.840
51116W        W17525   7.484  32.978   0.021
51117W        W17526  30.413   5.887   3.659
51118W        W17527   5.344  21.382   0.209
51119W        W17528  10.772  42.312  12.946
51120W        W17529   6.185  12.917   1.305
51121W        W17530  21.606  30.632   3.394
51122W        W17531   2.390  35.612  12.188
51123W        W17532  40.912  36.907  11.524
51124W        W17533   5.849  27.173  10.766
51125W        W17534  24.638   3.415   2.049
51126W        W17535   2.841   6.756   3.943
51127W        W17536   2.777  36.750  14.739
51128W        W17537  26.001  35.043  12.116
51129W        W17538   6.425  19.779  14.956
51130W        W17539   9.352  25.745   4.147
51131W        W17540  36.977   4.734   4.085
51132W        W17541  31.441  24.196   3.789
51133W        W17542   2.349  42.023   3.815
51134W        W17543   3.801   2.837   3.067
51135W        W17544  44.464  29.924   1.398
51136W        W17545  12.280  25.039  10.663
51137W        W17546  28.977  39.079  14.847
51138W        W17547  36.769  12.835  14.849
51139W        W17548  20.669  12.261   1.728
51140W        W17549  17.265  34.547   2.760
51141W        W17550  40.415  12.813  13.932
51142W        W17551  20.465  32.089  11.179
51143W        W17552  38.288  22.602   0.594
51144W        W17553   6.256   3.656  13.802
51145W        W17554  38.127  11.229   0.559
51146W        W17555  33.919  27.380  11.643
51147W        W17556  13.252  38.229   2.141
51148W        W17557   0.671  31.845   4.571
51149W        W17558  13.563  25.348   5.101
51150W        W17559  23.142   7.797  11.586
51151W        W17560   5.735   4.839  11.176
51152W        W17561  39.465  40.300  13.596
51153W        W17562   4.577   8.190   1.839
51154W        W17563  35.079  26.197   3.513
51155W        W17564  37.020  28.244  11.510
51156W        W17565  44.416  39.007   3.092
51157W        W17566  11.787  20.254   4.556
51158W        W17567  41.118  11.249   0.247
51159W        W17568  23.098  29.681  11.790
51160W        W17569   8.916   4.479   2.603
51161W        W17570   7.360   9.165   4.188
51162W        W17571   1.204  24.568   3.933
51163W        W17572  25.563   4.053  11.892
51164W        W17573  35.319  21.561  13.956
51165W        W17574   4.744  27.613  14.344
51166W        W17575  35.908   8.927  12.875
51167W        W17576   4.827  11.629  11.897
51168W        W17577   7.780  14.557  12.457
51169W        W17578   2.073  34.356   0.494
51170W        W17579   4.269  29.711   2.571
51171W        W17580  39.407  23.815   0.462
51172W        W17581   9.186  41.578   0.781
51173W        W17582  43.122  32.491   3.771
51174W        W17583  39.051  43.825   1.018
51175W        W17584   3.376  40.049   2.923
51176W        W17585  37.875  17.618   2.514
51177W        W17586  21.288  25.412   3.784
51178W        W17587  32.790  15.886   4.286
51179W        W17588   9.879  29.540   0.101
51180W        W17589  36.624  34.056   1.012
51181W        W17590  18.483  44.510  13.230
51182W        W17591  41.789  31.603   3.761
51183W        W17592  22.647  33.212   1.198
51184W        W17593  25.026  35.905   2.824
51185W        W17594  18.313  37.983  13.865
51186W        W17595  23.641  24.189   4.121
51187W        W17596  41.950  28.392   1.783
51188W        W17597  13.562  26.952   4.718
51189W        W17598  42.265  39.335  12.105
51190W        W17599  43.046  25.388   0.341
51191W        W17600   1.778  15.311   1.568
51192W        W17601   4.641  25.374   4.946
51193W        W17602  23.510  27.974  13.372
51194W        W17603   0.478  43.715   0.835
51195W        W17604   3.368  34.390  14.280
51196W        W17605  24.434  44.426  14.299
51197W        W17606  33.464   6.411  12.084
51198W        W17607  18.660   3.173   4.171
51199W        W17608  29.444   0.537   4.485
51200W        W17609  17.296  22.819  11.450
51201W        W17610   8.012  14.180   4.718
51202W        W17611  21.542   9.885  10.738
51203W        W17612  31.694  38.483  13.137
51204W        W17613   1.650  13.699  13.124
51205W        W17614  39.335  25.791   2.235
51206W        W17615  14.102   7.282  13.761
51207W        W17616  35.517   1.158  14.239
51208W        W17617  14.787  15.084   2.818
51209W        W17618  32.500   7.283   0.011
51210W        W17619  13.246  16.595  14.559
51211W        W17620  33.596  31.605  14.896
51212W        W17621  15.724  24.921  12.506
51213W        W17622  21.087  10.792  12.074
51214W        W17623  18.601  23.641   4.082
51215W        W17624   9.708  21.537   1.908
51216W        W17625  30.650  12.489   0.921
51217W        W17626   5.659  13.224  10.735
51218W        W17627  22.048  34.155   3.215
51219W        W17628  27.770  39.687  12.562
51220W        W17629  40.095   9.328   1.328
51221W        W17630  34.955  34.383   2.768
51222W        W17631  15.048  20.538   0.264
51223W        W17632   0.254   0.327   0.919
51224W        W17633  42.233  18.149   4.633
51225W        W17634  33.156  32.234   0.656
51226W        W17635  39.006  19.694   2.179
51227W        W17636  16.505  35.377  13.926
51228W        W17637  44.460   3.501  12.833
51229W        W17638  24.465  30.419   1.720
51230W        W17639  21.042  33.369  14.708
51231W        W17640   0.409  11.114  10.511
51232W        W17641  31.822  28.872  13.426
51233W        W17642  33.214  31.971  12.050
51234W        W17643  26.099  20.674   4.075
51235W        W17644  41.892  41.363  14.073
51236W        W17645   0.548  36.920   2.232
51237W        W17646  26.123  17.725   0.011
51238W        W17647  40.361  21.755  12.843
51239W        W17648  42.442  26.009  12.561
51240W        W17649   2.835  11.850   0.749
51241W        W17650  13.161   3.458  11.057
51242W        W17651  14.239  35.880   1.420
51243W        W17652  34.083  32.488   0.816
51244W        W17653  39.242   2.963   0.401
51245W        W17654  25.830  25.683   3.664
51246W        W17655  16.173  17.291  10.669
51247W        W17656  24.747  31.699   1.056
51248W        W17657  44.676  23.592  10.400
51249W        W17658  40.604  37.537  11.550
51250W        W17659  11.830  14.339  14.054
51251W        W17660  32.699  23.080  13.101
51252W        W17661  24.246  43.474  14.292
51253W        W17662  23.980  14.883  11.156
51254W        W17663  10.777  44.460  13.069
51255W        W17664  43.871  42.553   1.185
51256W        W17665  18.846  22.695  14.785
51257W        W17666  38.976  11.269   1.329
51258W        W17667  44.753  25.088   0.524
51259W        W17668  43.017  25.075   3.950
51260W        W17669  28.014  16.374   2.591
51261W        W17670  42.721  38.495  14.574
51262W        W17671  16.357  14.056   2.713
51263W        W17672  12.155   9.810   1.206
51264W        W17673   3.305   7.801   2.929
51265W        W17674  18.603  15.024  14.256
51266W        W17675  10.828   7.405   4.041
51267W        W17676  22.711   1.977   0.491
51268W        W17677  24.631  11.661  10.445
51269W        W17678  20.894  41.808   0.325
51270W        W17679  24.259  28.073   3.649
51271W        W17680  22.480   4.954  13.319
51272W        W17681   7.245   0.930   3.135
51273W        W17682   4.814   4.934  14.091
51274W        W17683  36.361  44.074   0.711
51275W        W17684   1.878  18.607  13.739
51276W        W17685  36.472   4.369   2.959
51277W        W17686  18.384   6.629  10.830
51278W        W17687  23.416  22.533  11.690
51279W        W17688   5.853  15.076  11.586
51280W        W17689  12.369  27.413  14.797
51281W        W17690  27.540  34.430   1.644
51282W        W17691  38.682   4.193  12.571
51283W        W17692  33.409  14.804   3.833
51284W        W17693   7.454   1.694   2.137
51285W        W17694  44.290   4.477  10.733
51286W        W17695   1.729  22.937   3.773
51287W        W17696   0.777  13.082   4.155
51288W        W17697  35.988   6.489  10.268
51289W        W17698  30.024  40.073   4.806
51290W        W17699  18.543  18.942  11.626
51291W        W17700  41.504   2.306   4.364
51292W        W17701  16.217  18.395   2.649
51293W        W17702   3.463  26.237   1.288
51294W        W17703  13.560  22.158   0.949
51295W        W17704  44.803  16.059   2.790
51296W        W17705  16.512  21.566   1.662
51297W        W17706  18.630  38.982  13.404
51298W        W17707  36.888  18.157  13.981
51299W        W17708  22.789  30.460   2.755
51300W        W17709  29.521  31.940  13.398
51301W        W17710   3.449  10.262   3.537
51302W        W17711  31.701  13.817  12.096
51303W        W17712  42.475   8.507   9.982
51304W        W17713  26.343  10.945  10.986
51305W        W17714  16.791  41.972   1.798
51306W        W17715  41.577   8.058   2.128
51307W        W17716  26.752   7.440  12.023
51308W        W17717  15.908   7.768  10.810
51309W        W17718  24.942  41.344   1.206
51310W        W17719  43.457   4.958   2.730
51311W        W17720  16.210  14.201   2.232
51312W        W17721  32.000  11.653  12.462
51313W        W17722  10.734  25.135  12.168
51314W        W17723   3.077  18.326  13.965
51315W        W17724  29.182  29.399   2.884
51316W        W17725  32.621  38.801  11.071
51317W        W17726  14.788  18.254  10.989
51318W        W17727  31.409   7.914  14.522
51319W        W17728  41.559  11.378   3.031
51320W        W17729  32.368   4.791   1.420
51321W        W17730   9.625   4.864  10.593
51322W        W17731  19.534  14.135   4.305
51323W        W17732  29.313  12.529   4.578
51324W        W17733  14.342  38.586   2.598
51325W        W17734  17.584  39.256   3.180
51326W        W17735  24.475   3.023   9.880
51327W        W17736  11.878   0.368   3.788
51328W        W17737  14.115  36.614   3.203
51329W        W17738  27.471  43.661   0.670
51330W        W17739  36.074  38.931   2.421
51331W        W17740  22.090  10.892  13.068
51332W        W17741   9.405  31.101   2.163
51333W        W17742  24.480  29.837  13.881
51334W        W17743  43.241  14.644   0.784
51335W        W17744  27.101  36.311   1.307
51336W        W17745  27.627  39.571   1.339
51337W        W17746   8.096  33.286  12.365
51338W        W17747  13.510  32.477  12.899
51339W        W17748  44.521   8.596   4.965
51340W        W17749  44.697   1.477  12.151
51341W        W17750  39.940  22.271  13.404
51342W        W17751  30.888   3.869   0.454
51343W        W17752   0.510  14.680  13.804
51344W        W17753  14.820   2.137  14.522
51345W        W17754  18.483  38.059   2.247
51346W        W17755  41.771  10.863  11.431
51347W        W17756   3.817  12.523  12.364
51348W        W17757   1.255   8.874  11.170
51349W        W17758   0.187  43.306  13.505
51350W        W17759   6.075  22.522  13.969
51351W        W17760   1.049   5.190   2.382
51352W        W17761   5.162  40.045   0.074
51353W        W17762   9.407  39.393   1.338
51354W        W17763  43.744  10.529  14.441
51355W        W17764  37.390   5.453  13.882
51356W        W17765  12.565  19.790   1.772
51357W        W17766  11.545  12.905   1.823
51358W        W17767  33.807  38.631  14.846
51359W        W17768  16.428   4.965  12.510
51360W        W17769  34.987  11.640   0.454
51361W        W17770  21.260  25.961   4.463
51362W        W17771  14.048   9.698  13.888
51363W        W17772  23.469   9.336   3.254
51364W        W17773  27.667  29.024   4.067
51365W        W17774  12.666  15.074   4.725
51366W        W17775  43.645  14.158  14.804
51367W        W17776   0.091  38.475   3.994
51368W        W17777   8.708  23.992  11.051
51369W        W17778  37.336  12.767  14.944
51370W        W17779  32.007  30.969   5.082
51371W        W17780  11.241  31.697  13.914
51372W        W17781   2.693   4.727  12.794
51373W        W17782  11.671  19.186  11.989
51374W        W17783  33.356  37.871  12.141
51375W        W17784  10.228   4.952   2.621
51376W        W17785  21.469  15.128   3.776
51377W        W17786  35.884  32.490  12.946
51378W        W17787   5.642  39.820   0.347
51379W        W17788  28.167  13.976   5.048
51380W        W17789  43.325  25.731  10.918
51381W        W17790  35.538  40.302  10.701
51382W        W17791  40.277  14.191   2.334
51383W        W17792  18.055  15.295  12.538
51384W        W17793  22.741  37.638  10.278
51385W        W17794  32.559  44.135   2.716
51386W        W17795  15.929   5.481   1.285
51387W        W17796   3.002   0.872  12.115
51388W        W17797  40.216  39.843  12.628
51389W        W17798   4.189  43.012   1.241
51390W        W17799  27.385  24.582   0.317
51391W        W17800   0.784  14.487   1.724
51392W        W17801  32.692  35.611  11.628
51393W        W17802  17.267  17.813  12.137
51394W        W17803   2.407  40.778   1.780
51395W        W17804  22.347  33.885   4.548
51396W        W17805  29.017   3.147  13.617
51397W        W17806  23.447   4.322   4.683
51398W        W17807   7.483  28.646  11.606
51399W        W17808   1.543  11.474  11.065
51400W        W17809  40.007  35.647  11.565
51401W        W17810  37.461  23.030   0.465
51402W        W17811   8.960  21.980  11.159
51403W        W17812  26.350  44.225   1.054
51404W        W17813  37.871  41.464   2.180
51405W        W17814  15.765   6.078  14.501
51406W        W17815   8.199  37.564  13.303
51407W        W17816  26.650  35.488   2.959
51408W        W17817  24.497  35.914  14.691
51409W        W17818  29.004  11.140  12.931
51410W        W17819   5.333  17.957  13.873
51411W        W17820  12.444  40.849  12.038
51412W        W17821  11.286  38.509  10.813
51413W        W17822  44.757  27.967  13.943
51414W        W17823  20.138  31.411  10.246
51415W        W17824   0.302  44.308   1.683
51416W        W17825  17.038   5.184  14.372
51417W        W17826   8.372   7.128   0.682
51418W        W17827  29.653  14.458   1.516
51419W        W17828  27.167  24.748  11.168
51420W        W17829   9.921  42.491   0.933
51421W        W17830  34.470  11.073   0.053
51422W        W17831   8.409   6.187   3.777
51423W        W17832  28.466   6.484   1.551
51424W        W17833  10.711  16.518  10.424
51425W        W17834  30.247  36.323   1.243
51426W        W17835  12.891   6.933  14.333
51427W        W17836  34.587  16.541  13.408
51428W        W17837   7.933  28.027   0.934
51429W        W17838  39.907  15.090  12.573
51430W        W17839  19.678  30.309  11.139
51431W        W17840  12.644  38.820  12.026
51432W        W17841  37.745  25.764  11.120
51433W        W17842  16.229  32.880  10.679
51434W        W17843  24.901  19.065  10.474
51435W        W17844  44.787  18.144   4.928
51436W        W17845  41.015   0.238   0.699
51437W        W17846   6.352  30.940  11.157
51438W        W17847  36.990  34.073  11.628
51439W        W17848  18.311  24.243   2.412
51440W        W17849  42.994  14.578   2.201
51441W        W17850  27.612  34.747  12.582
51442W        W17851  17.474  22.759  12.124
51443W        W17852  44.313   8.106   2.436
51444W        W17853  37.052   3.857  12.412
51445W        W17854   9.107   8.605   5.421
51446W        W17855  21.644  41.832   2.722
51447W        W17856  36.734  41.361  12.448
51448W        W17857  41.370  19.128   4.339
51449W        W17858  35.245  10.292  14.113
51450W        W17859  16.536  43.844  10.586
51451W        W17860  16.072  18.687   4.033
51452W        W17861  44.521  39.598  14.895
51453W        W17862  38.968  16.391   5.249
51454W        W17863  44.886  43.030  13.142
51455W        W17864   8.147  17.611   1.693
51456W        W17865  28.396  35.008  11.609
51457W        W17866  13.722  39.060  13.305
51458W        W17867  21.114  39.532   2.034
51459W        W17868  20.885  33.749   5.026
51460W        W17869   7.463  15.566   2.401
51461W        W17870   2.259   2.442   2.406
51462W        W17871   7.165   3.842  13.842
51463W        W17872  24.618  35.310   2.426
51464W        W17873  34.484  36.070   1.089
51465W        W17874  22.985  38.028   3.407
51466W        W17875  25.025  26.112  11.238
51467W        W17876  18.177  43.017   3.618
51468W        W17877  39.988  24.183   2.199
51469W        W17878  38.285   4.696   2.854
51470W        W17879  43.350   5.258   1.356
51471W        W17880   8.365  35.080  12.903
51472W        W17881   9.676   4.266   3.228
51473W        W17882  33.137  29.542  14.475
51474W        W17883  39.230   5.790  12.384
51475W        W17884  18.763  14.725  12.019
51476W        W17885   1.056  21.558   3.677
51477W        W17886  27.239  33.867   0.239
51478W        W17887  26.425   1.211  13.068
51479W        W17888  36.559  36.922   0.440
51480W        W17889   3.892  15.054  12.981
51481W        W17890   6.943  16.671  14.809
51482W        W17891  29.715  12.517   1.140
51483W        W17892  11.742  35.739  13.347
51484W        W17893  12.091  21.559  11.470
51485W        W17894  41.538  14.910   2.657
51486W        W17895  23.007  36.809   0.289
51487W        W17896  26.533  10.689   2.332
51488W        W17897   1.595  29.981   2.154
51489W        W17898  37.096  39.799  12.941
51490W        W17899  34.128  31.948   0.728
51491W        W17900  34.039  13.832   0.624
51492W        W17901  41.975  38.515   4.630
51493W        W17902  41.012  44.212   4.721
51494W        W17903   8.960   0.100  11.698
51495W        W17904  33.430  22.864   0.765
51496W        W17905  10.882  36.673   4.687
51497W        W17906  20.175   6.389   1.452
51498W        W17907  41.490  41.146  12.170
51499W        W17908  28.110  39.377   0.419
51500W        W17909   6.828   9.359   2.409
51501W        W17910  36.431  31.876   3.671
51502W        W17911   4.323  11.762   2.355
51503W        W17912  25.616  20.662   2.362
51504W        W17913  19.637  20.309   0.789
51505W        W17914  38.327  26.218  10.847
51506W        W17915  35.796  33.918  12.963
51507W        W17916  17.026  36.005   1.390
51508W        W17917  37.142  29.195   0.799
51509W        W17918  41.966  22.578   4.623
51510W        W17919   8.027  24.739   3.330
51511W        W17920  43.984  10.694  12.988
51512W        W17921  27.832  44.491   3.384
51513W        W17922  12.331  32.057  12.008
51514W        W17923  34.896  30.429   1.718
51515W        W17924   2.938  23.771   4.758
51516W        W17925  40.499  31.184  12.540
51517W        W17926   3.990   5.850   4.666
51518W        W17927  36.853  10.798  13.276
51519W        W17928  34.053   3.856   1.787
51520W        W17929  18.696  26.510   2.358
51521W        W17930  19.778  13.643  12.600
51522W        W17931  43.634   3.793   4.736
51523W        W17932  14.215  10.309   4.537
51524W        W17933  29.913  37.483  12.649
51525W        W17934  44.429  19.810  12.885
51526W        W17935  37.485  10.719  11.574
51527W        W17936   7.107  20.723  12.944
51528W        W17937  13.137  11.003  11.251
51529W        W17938  21.009   1.815  10.511
51530W        W17939  20.772  43.792  14.852
51531W        W17940  18.974  26.061  12.004
51532W        W17941  26.570   9.112  14.643
51533W        W17942  15.401  39.652   5.003
51534W        W17943  14.402   6.410   4.797
51535W        W17944   2.427   2.061  14.296
51536W        W17945  14.970  28.137  13.397
51537W        W17946  37.786  38.148   1.893
51538W        W17947  17.666  21.258  13.005
51539W        W17948  43.176  36.547  14.040
51540W        W17949   6.911  10.843   3.168
51541W        W17950  15.927  31.006  13.971
51542W        W17951  21.459  37.011   3.335
51543W        W17952  35.463  37.020   3.790
51544W        W17953  34.626  11.013   2.295
51545W        W17954  16.908  14.986  11.178
51546W        W17955  26.463  11.218   2.357
51547W        W17956  35.191  44.868  12.075
51548W        W17957  15.826   6.690   4.509
51549W        W17958   2.374  17.480   1.359
51550W        W17959  38.673  13.296   3.133
51551W        W17960  42.878  28.530   2.524
51552W        W17961  12.668  28.270  11.147
51553W        W17962  17.134  34.139  13.106
51554W        W17963  31.186  25.530  14.760
51555W        W17964  29.686  15.837  14.742
51556W        W17965  24.567  13.108  13.864
51557W        W17966  17.086  42.731   3.274
51558W        W17967  31.169  31.445  10.786
51559W        W17968  39.471  26.693  14.832
51560W        W17969  43.319  18.287   4.757
51561W        W17970  35.101   4.985  14.834
51562W        W17971  14.563  19.753  11.550
51563W        W17972  17.217   1.979   1.663
51564W        W17973   5.842   9.396   2.366
51565W        W17974  22.271  16.781   2.397
51566W        W17975   6.840  19.369   3.016
51567W        W17976  33.573  42.284  12.879
51568W        W17977  24.718  16.068   1.620
51569W        W17978   7.647  17.811   2.858
51570W        W17979  19.756  44.702  14.710
51571W        W17980  30.674  11.946  13.366
51572W        W17981  22.610  32.348  10.692
51573W        W17982  42.816  33.711   0.046
51574W        W17983  16.013   7.940  14.451
51575W        W17984  24.476   5.016  14.241
51576W        W17985  10.017  32.082   5.031
51577W        W17986  26.054  10.192  14.589
51578W        W17987  16.749  11.950  13.834
51579W        W17988   8.450  38.917  13.342
51580W        W17989  14.090  43.829   1.236
51581W        W17990  35.950  23.442   0.038
51582W        W17991  36.045  24.445  13.397
51583W        W17992  29.468  23.114   0.281
51584W        W17993  36.321  29.982   0.818
51585W        W17994  36.925   3.956   0.486
51586W        W17995  23.322  25.885  11.917
51587W        W17996  16.763  42.293  12.640
51588W        W17997  21.637   8.519   1.652
51589W        W17998  34.289   4.867   4.114
51590W        W17999   8.426  28.207   2.674
51591W        W18000   5.277  41.703   3.257
51592W        W18001  15.837  30.712   3.663
51593W        W18002  30.504  13.332  11.585
51594W        W18003  39.023   1.027  10.713
51595W        W18004  13.690  42.819   2.833
51596W        W18005   0.508  20.306  11.676
51597W        W18006  14.204  21.495   0.448
51598W        W18007  37.613   0.278  12.398
51599W        W18008   1.440   0.428  10.654
51600W        W18009  33.118   7.272  13.229
51601W        W18010  21.228  13.185  12.408
51602W        W18011   5.901   3.896   0.794
51603W        W18012   0.528   3.275  12.125
51604W        W18013  11.096  21.314  10.155
51605W        W18014  16.195  22.582   3.813
51606W        W18015  43.967   5.672  10.316
51607W        W18016  36.194  30.894  11.604
51608W        W18017   5.884   0.918   3.841
51609W        W18018  19.825  30.571   2.734
51610W        W18019   9.777  28.564   4.487
51611W        W18020   9.432  20.426  11.993
51612W        W18021  28.474  25.748   2.272
51613W        W18022  13.262   3.481   2.673
51614W        W18023  26.114  38.015  11.886
51615W        W18024   7.684  38.945  10.679
51616W        W18025  23.543  27.131  11.121
51617W        W18026  28.030   6.165  10.542
51618W        W18027  12.655   3.644  11.149
51619W        W18028   3.255  16.861  12.021
51620W        W18029  28.808  26.603   2.709
51621W        W18030  16.762  19.654   0.077
51622W        W18031  13.844  33.446   4.237
51623W        W18032  17.817  36.627  13.399
51624W        W18033  39.528   2.518   4.783
51625W        W18034   0.921  18.544  12.093
51626W        W18035  40.799  40.060  14.119
51627W        W18036  17.149  16.899   0.578
51628W        W18037   8.375  27.767   0.067
51629W        W18038  19.028  11.287   2.168
51630W        W18039  32.150   5.718   0.337
51631W        W18040  11.753  32.944  11.543
51632W        W18041   1.999  21.706  14.053
51633W        W18042  30.130   5.517  14.984
51634W        W18043  20.571  24.015  12.901
51635W        W18044  31.465  37.800   3.369
51636W        W18045  38.338   0.762   4.712
51637W        W18046  12.617  15.917  12.022
51638W        W18047  31.000  22.653  10.835
51639W        W18048  41.567  34.115  13.949
51640W        W18049  33.902  33.407  13.529
51641W        W18050   4.351  19.254   3.113
51642W        W18051   5.189  41.403  13.423
51643W        W18052  15.769  40.834   2.453
51644W        W18053  14.013   5.772   3.418
51645W        W18054  44.366  17.792   0.921
51646W        W18055  27.279  30.920   0.346
51647W        W18056   5.935  34.958  10.639
51648W        W18057   8.306  22.530  10.903
51649W        W18058  27.229   0.852   2.106
51650W        W18059   2.161  33.385   2.127
51651W        W18060   0.080   8.696   4.953
51652W        W18061  20.599   7.435   0.813
51653W        W18062  28.371  42.857   0.488
51654W        W18063  15.131  31.841  11.142
51655W        W18064  15.596  42.407   3.200
51656W        W18065   6.725  11.232  11.001
51657W        W18066  33.448   2.686  11.694
51658W        W18067  28.441  10.470   1.926
51659W        W18068   1.779   1.015  11.160
51660W        W18069  43.914  37.773   1.406
51661W        W18070  14.714  34.202  12.571
51662W        W18071  33.640  13.617   0.864
51663W        W18072   9.264  26.252   3.159
51664W        W18073  40.260  11.148   0.742
51665W        W18074  21.619  21.212   3.361
51666W        W18075  22.993  33.474  14.768
51667W        W18076   2.827  28.219   4.524
51668W        W18077   1.358  30.193  12.621
51669W        W18078  44.056  29.624  11.513
51670W        W18079  24.173  25.149  10.785
51671W        W18080   1.984  44.710   1.002
51672W        W18081  24.263  27.492  13.394
51673W        W18082  15.887  18.864   0.285
51674W        W18083   9.305  38.844   4.695
51675W        W18084  23.096  23.615  14.316
51676W        W18085  10.593  27.297  12.432
51677W        W18086  35.779  26.662   3.364
51678W        W18087  18.154  40.587  12.888
51679W        W18088  29.511  42.357   0.232
51680W        W18089   1.797  27.061  12.897
51681W        W18090  32.666  24.051  13.086
51682W        W18091  11.948  35.088   0.081
51683W        W18092  38.887  27.651   2.798
51684W        W18093  16.297   4.783  14.027
51685W        W18094  19.311  10.382  13.773
51686W        W18095  15.293  35.934   0.359
51687W        W18096  40.580   4.306   1.823
51688W        W18097  32.550   2.989  14.330
51689W        W18098  42.597  23.572   1.785
51690W        W18099  43.701  41.179   1.241
51691W        W18100  16.588   6.262  11.370
51692W        W18101  25.709  40.420   2.399
51693W        W18102  40.963  33.812  13.975
51694W        W18103  23.566  41.003   2.913
51695W        W18104  17.134   3.245   2.133
51696W        W18105  17.788  43.511   0.369
51697W        W18106  19.417  18.343   2.895
51698W        W18107   7.841  11.326  13.802
51699W        W18108  32.785  28.111  10.175
51700W        W18109  16.807  28.409  14.509
51701W        W18110  29.652  16.299   4.819
51702W        W18111  20.221   2.874  13.857
51703W        W18112  33.172  31.637   1.287
51704W        W18113  16.284  21.745   0.272
51705W        W18114  33.170   8.110  13.218
51706W        W18115   6.236  31.515   2.388
51707W        W18116  44.938  41.388   0.874
51708W        W18117   9.244  36.138   5.120
51709W        W18118  42.780  17.858   1.692
51710W        W18119  43.823  10.867   0.680
51711W        W18120   8.337  12.023   4.940
51712W        W18121  35.949   0.385  13.136
51713W        W18122  39.716  22.344   2.663
51714W        W18123   0.049  34.994  12.049
51715W        W18124  28.913  28.006   0.044
51716W        W18125  25.175  35.408   0.445
51717W        W18126  39.374  37.881   4.380
51718W        W18127  17.328  14.551   1.377
51719W        W18128  37.093   5.691   3.279
51720W        W18129  39.926  18.682   0.575
51721W        W18130  20.323  32.173  13.437
51722W        W18131  12.680  37.119  13.345
51723W        W18132   1.370  12.574  13.099
51724W        W18133  26.021  42.697   1.447
51725W        W18134  43.311  21.452  10.584
51726W        W18135  42.045  35.523   2.157
51727W        W18136  26.792  31.479   3.782
51728W        W18137  10.248  38.328  14.281
51729W        W18138   3.716  31.086  11.579
51730W        W18139  18.176   7.488  10.998
51731W        W18140   7.449  13.627   0.932
51732W        W18141   5.941  13.681  10.647
51733W        W18142  27.524  12.078   0.386
51734W        W18143  11.118  10.574   3.821
51735W        W18144  16.067   8.945  11.192
51736W        W18145   9.237  13.236   4.346
51737W        W18146  26.219  17.561   1.229
51738W        W18147  34.448  38.789   1.516
51739W        W18148  37.077  38.866  11.570
51740W        W18149   3.905  31.067   3.301
51741W        W18150  21.207  12.766  14.554
51742W        W18151   0.490  15.192  14.333
51743W        W18152   9.852  25.183  12.419
51744W        W18153   9.609  35.013  12.005
51745W        W18154  27.695  26.616   0.233
51746W        W18155  36.237  11.331  14.303
51747W        W18156   4.971   3.231  11.566
51748W        W18157   6.658  26.423   3.242
51749W        W18158  40.728  21.146  12.083
51750W        W18159  17.900  29.601   2.323
51751W        W18160  27.706   5.921   1.960
51752W        W18161  20.136  16.321  14.966
51753W        W18162  26.150  28.921  13.481
51754W        W18163   9.110  36.513   4.251
51755W        W18164  41.790   3.018  13.419
51756W        W18165  14.682  43.570  12.485
51757W        W18166   3.251  36.915  13.820
51758W        W18167  21.199  28.450  10.604
51759W        W18168   6.182  38.937  10.305
51760W        W18169   6.468  11.301   4.887
51761W        W18170   0.318  30.308   2.119
51762W        W18171  33.375  43.696   0.826
51763W        W18172  21.551  16.744  11.536
51764W        W18173  23.250  18.642  13.877
51765W        W18174  37.873  22.514   3.136
51766W        W18175  25.987  20.300  13.879
51767W        W18176  32.663  31.536   4.670
51768W        W18177  15.360   5.824   3.646
51769W        W18178  22.362   2.975  12.075
51770W        W18179  22.042  20.962   4.086
51771W        W18180  18.836  17.382   3.596
51772W        W18181  38.096  38.628  11.072
51773W        W18182   3.348  31.446  11.598
51774W        W18183  24.310  11.242   4.071
51775W        W18184  23.083  40.881   1.690
51776W        W18185  30.500  39.251   2.786
51777W        W18186  19.483  11.132   4.174
51778W        W18187  25.133  36.238  12.950
51779W        W18188  14.267   2.341  13.890
51780W        W18189  26.118  15.981  13.187
51781W        W18190   2.421  31.012   2.387
51782W        W18191  26.404  10.429  13.412
51783W        W18192  11.339   7.196  13.889
51784W        W18193  31.724  31.899   3.648
51785W        W18194  10.932  43.894  11.397
51786W        W18195  25.492  14.646   0.324
51787W        W18196  37.390  38.969   2.865
51788W        W18197  21.687  13.090  13.401
51789W        W18198  38.821  35.388  11.125
51790W        W18199  23.376  21.472   0.504
51791W        W18200   2.926  34.110   2.107
51792W        W18201  38.858  27.381   4.452
51793W        W18202   9.199  37.470   0.528
51794W        W18203  39.586  15.047   3.670
51795W        W18204  14.626  16.235   3.708
51796W        W18205  26.455  10.757   3.734
51797W        W18206  33.817   8.824  13.965
51798W        W18207  22.008  31.418  11.214
51799W        W18208  14.959  34.229  12.116
51800W        W18209  43.043  22.948  11.203
51801W        W18210  13.083  15.756   2.586
51802W        W18211  22.200  17.238   4.095
51803W        W18212  37.351  15.690  12.782
51804W        W18213  16.977  40.854  13.773
51805W        W18214  41.437  30.506  14.396
51806W        W18215   1.876  42.450   4.789
51807W        W18216  36.437   7.911   2.335
51808W        W18217  32.037  35.715  14.026
51809W        W18218   3.099  17.534  10.942
51810W        W18219  11.823  34.383  13.987
51811W        W18220  19.535  31.099   0.803
51812W        W18221  23.687  37.858  14.524
51813W        W18222  21.711  36.313  14.043
51814W        W18223  30.834  43.349   2.140
51815W        W18224  37.390  14.740  13.370
51816W        W18225  26.174  41.100  13.442
51817W        W18226   2.997  29.474   1.399
51818W        W18227  30.910  13.622   1.346
51819W        W18228  15.856  41.410  10.713
51820W        W18229  36.621   3.711   2.218
51821W        W18230  11.152   9.887   0.857
51822W        W18231   4.271  33.914   3.296
51823W        W18232   5.205  42.355   4.153
51824W        W18233   3.473  38.821  12.414
51825W        W18234   3.290  30.683   4.960
51826W        W18235  13.320  43.971   0.829
51827W        W18236  43.019  39.344  12.836
51828W        W18237  12.538   2.689   5.427
51829W        W18238  37.685  33.996   3.355
51830W        W18239  33.491   1.330  11.586
51831W        W18240  10.239  23.203   2.036
51832W        W18241  11.311  23.612  13.556
51833W        W18242  38.542  21.688   2.130
51834W        W18243  12.137  40.404   1.516
51835W        W18244  11.414  17.174  13.330
51836W        W18245   1.795   0.294   1.717
51837W        W18246  37.490  35.553   1.848
51838W        W18247  18.652   7.119   0.729
51839W        W18248  34.392   1.969  14.853
51840W        W18249   6.660  23.783   2.870
51841W        W18250  19.922  12.822   0.944
51842W        W18251   7.363  32.797  10.955
51843W        W18252  37.715  30.055   2.166
51844W        W18253  33.949  43.210   3.710
51845W        W18254  39.586  27.980   4.692
51846W        W18255  34.488  27.205   1.842
51847W        W18256  24.418   4.365  13.483
51848W        W18257  12.924  10.412  13.944
51849W        W18258   2.589   9.360   3.017
51850W        W18259  10.898  14.317   0.009
51851W        W18260   5.295  11.057   3.785
51852W        W18261   5.754  16.286   2.275
51853W        W18262  12.333   6.622   2.258
51854W        W18263  17.413  14.303  14.033
51855W        W18264  17.269  10.498  14.920
51856W        W18265  21.631  27.473  12.120
51857W        W18266  37.584  15.218  12.836
51858W        W18267   1.344   7.247  13.372
51859W        W18268   8.162  10.207  11.472
51860W        W18269  24.385   0.249   3.709
51861W        W18270  27.976  24.187  10.751
51862W        W18271  43.930  35.435   4.159
51863W        W18272  20.649  17.689   0.243
51864W        W18273   6.179  23.686  10.713
51865W        W18274  32.108  42.260  14.537
51866W        W18275   9.273  43.464   1.214
51867W        W18276  40.244  23.606  11.198
51868W        W18277   9.368   9.215  12.949
51869W        W18278  25.513   7.147  10.637
51870W        W18279  44.580  22.006   4.104
51871W        W18280  22.546  43.503   4.495
51872W        W18281  21.540  13.983  13.958
51873W        W18282  21.678  30.247  10.822
51874W        W18283  13.549   7.156  10.831
51875W        W18284  22.018  17.219   2.214
51876W        W18285  33.614   4.696   0.894
51877W        W18286  34.892  23.040  14.750
51878W        W18287  34.321   3.459   2.340
51879W        W18288  10.966  33.477  12.937
51880W        W18289  38.115  39.223  10.183
51881W        W18290  16.248  24.300   4.889
51882W        W18291  43.216  33.915  13.332
51883W        W18292   7.485  39.100  12.015
51884W        W18293  40.006  41.621   0.573
51885W        W18294  44.998  20.682   0.470
51886W        W18295   5.639   4.351   0.912
51887W        W18296  32.197  39.678  14.860
51888W        W18297  32.031   7.225  13.755
51889W        W18298  40.787  29.064   3.656
51890W        W18299  16.800  40.959   0.519
51891W        W18300  23.959  21.606   3.361
51892W        W18301   1.436  26.997  14.663
51893W        W18302  21.743   6.709   3.218
51894W        W18303  12.268  38.301   2.716
51895W        W18304   2.799  27.867   1.097
51896W        W18305  20.526  20.341   3.123
51897W        W18306  23.976  25.664  13.549
51898W        W18307  20.312  26.162  13.971
51899W        W18308  24.133  37.217  10.538
51900W        W18309  18.689  41.624  12.963
51901W        W18310  39.598  44.056  14.732
51902W        W18311  21.302  34.540   1.946
51903W        W18312  31.095  17.164  13.905
51904W        W18313  33.882  27.504  10.713
51905W        W18314  40.760  18.779  12.057
51906W        W18315  33.827   0.374   0.393
51907W        W18316   1.414  31.674   3.217
51908W        W18317  25.911  20.850  13.925
51909W        W18318   2.719   7.887  11.086
51910W        W18319  13.781   4.483   5.025
51911W        W18320  23.007  41.026  12.948
51912W        W18321   7.476  24.100  12.634
51913W        W18322  13.088  31.549  12.268
51914W        W18323  43.367  36.485   0.774
51915W        W18324  31.884  41.316   1.315
51916W        W18325  43.969  25.449   0.330
51917W        W18326  32.685  11.103  13.499
51918W        W18327  11.351  38.628  13.599
51919W        W18328  36.074  34.930  11.525
51920W        W18329  14.185  41.332   2.649
51921W        W18330  41.886  28.411   4.118
51922W        W18331  41.568   4.922  12.513
51923W        W18332  34.945  17.989   2.850
51924W        W18333  36.516  36.912  13.024
51925W        W18334  36.342  19.755   4.374
51926W        W18335  34.582  31.896   3.728
51927W        W18336  26.834  13.615   3.099
51928W        W18337  22.855  18.663  11.188
51929W        W18338  16.232   9.893  14.278
51930W        W18339  33.687  25.762  10.043
51931W        W18340  19.826   2.902   0.914
51932W        W18341  20.088  17.321  13.931
51933W        W18342  39.596  31.640   2.848
51934W        W18343  16.351  18.571   0.296
51935W        W18344  11.909  30.071  14.333
51936W        W18345   4.997  10.168  14.737
51937W        W18346  32.516  30.611  10.776
51938W        W18347  30.457  43.918  10.937
51939W        W18348  16.123  15.837   3.297
51940W        W18349  41.026  10.743   1.243
51941W        W18350   1.451   9.926   0.968
51942W        W18351  33.619  19.238  13.466
51943W        W18352  29.775  10.311  11.723
51944W        W18353  42.341  41.291  11.332
51945W        W18354   9.163  21.439   4.477
51946W        W18355  15.820  23.032   2.840
51947W        W18356   1.791  12.335   4.014
51948W        W18357  35.069  28.645   4.586
51949W        W18358  22.877  32.215  12.617
51950W        W18359   8.132   2.362   3.267
51951W        W18360  13.607  15.629   3.926
51952W        W18361   6.596  42.035   4.190
51953W        W18362  41.426  43.852   4.621
51954W        W18363  22.545  32.972   2.982
51955W        W18364  22.576  20.595  14.490
51956W        W18365   8.582  29.862   1.242
51957W        W18366  32.535  37.860  14.408
51958W        W18367  23.658  22.032   3.076
51959W        W18368   0.381   7.816  13.550
51960W        W18369  31.216  43.405  12.589
51961W        W18370  31.892  10.141   0.326
51962W        W18371  14.762  26.700   5.026
51963W        W18372  12.154  31.361  13.027
51964W        W18373   3.291   3.277  14.511
51965W        W18374  21.227  22.414  10.521
51966W        W18375  28.167  13.521   1.308
51967W        W18376  38.447  35.695   1.783
51968W        W18377  28.529  22.664   2.708
51969W        W18378  43.564  22.560  13.803
51970W        W18379  42.380  36.772  10.850
51971W        W18380  15.675   9.618   1.015
51972W        W18381  44.972  44.167   3.756
51973W        W18382   0.871  33.333  10.749
51974W        W18383  13.098  19.587   2.690
51975W        W18384   5.310  16.535  13.967
51976W        W18385  36.947   1.084  14.485
51977W        W18386  18.148  43.193   1.700
51978W        W18387  34.720  12.324   2.567
51979W        W18388   6.930  20.913   0.387
51980W        W18389  18.251   7.783  11.667
51981W        W18390   2.681  31.150   3.216
51982W        W18391  25.086  39.419   0.423
51983W        W18392  30.481  19.996  11.064
51984W        W18393  14.478   4.866   3.804
51985W        W18394  36.036  19.136  13.239
51986W        W18395  25.562   9.793   5.055
51987W        W18396  39.842   3.763  14.231
51988W        W18397  20.822  13.699   1.885
51989W        W18398  29.995  23.967   0.656
51990W        W18399   8.928  31.171   3.998
51991W        W18400  39.570   0.507   4.462
51992W        W18401  34.064   3.818  12.389
51993W        W18402   0.130  17.718   3.662
51994W        W18403  21.173  29.194   4.072
51995W        W18404  40.187  40.994   2.208
51996W        W18405  18.706  37.958   1.776
51997W        W18406   1.816  26.202   1.887
51998W        W18407  41.915  21.784  10.805
51999W        W18408  40.028  15.730  10.748
52000W        W18409  17.074  41.468   1.793
52001W        W18410  10.950   8.754  12.949
52002W        W18411  11.057  28.218   3.775
52003W        W18412  11.117  38.522   3.976
52004W        W18413  21.198  41.520  11.644
52005W        W18414  31.697  16.006   2.183
52006W        W18415   7.525  29.080   4.222
52007W        W18416  11.904   7.039  10.092
52008W        W18417  13.194   9.315   0.075
52009W        W18418  20.469  29.015   2.312
52010W        W18419   9.111  29.083  12.109
52011W        W18420  20.167  20.860  14.509
52012W        W18421  39.716  13.134   4.424
52013W        W18422   5.467  24.413  14.386
52014W        W18423  38.551  42.225  10.633
52015W        W18424  30.881  42.448  11.865
52016W        W18425  36.379  25.183  14.023
52017W        W18426  16.356  13.193   3.800
52018W        W18427  36.562  28.895  11.532
52019W        W18428  17.474  13.144   1.788
52020W        W18429  26.858  26.096   4.261
52021W        W18430   6.227  15.514   5.054
52022W        W18431  33.165  31.745   2.765
52023W        W18432  42.738  42.885  10.917
52024W        W18433  39.051  18.761  12.745
52025W        W18434  19.713  40.311   2.687
52026W        W18435  16.959  29.735   1.215
52027W        W18436  35.045  17.092   2.272
52028W        W18437  37.970  36.200   3.351
52029W        W18438  44.858   8.142   4.102
52030W        W18439  37.817  41.386  14.877
52031W        W18440  17.757  11.822  14.838
52032W        W18441  44.316  44.647  12.251
52033W        W18442  40.243  29.633  11.150
52034W        W18443  16.593   3.793  10.722
52035W        W18444  10.303   0.187   1.711
52036W        W18445  21.081   4.570   0.645
52037W        W18446  36.547   4.031   2.602
52038W        W18447  21.133   9.710  12.866
52039W        W18448   3.293  11.396  10.692
52040W        W18449  37.800  14.812   1.703
52041W        W18450  12.318  43.330  12.662
52042W        W18451  23.459  12.662  12.122
52043W        W18452  25.195  31.383   0.886
52044W        W18453  40.844  29.019  14.084
52045W        W18454  15.404  28.732  13.392
52046W        W18455  36.287  35.418   1.466
52047W        W18456   1.828   5.207   1.039
52048W        W18457   0.890   0.520  11.640
52049W        W18458  11.906  23.510  12.449
52050W        W18459  37.399  34.027   0.558
52051W        W18460   0.068   2.458  14.382
52052W        W18461  28.685  10.869   2.124
52053W        W18462  15.780   9.753   2.775
52054W        W18463  30.859  43.061   3.753
52055W        W18464  12.385  26.201   2.319
52056W        W18465  20.428  12.386   2.307
52057W        W18466  28.677  41.218  11.160
52058W        W18467  26.121  29.235   4.304
52059W        W18468  31.576   9.886   3.387
52060W        W18469   0.755  11.107  11.902
52061W        W18470  14.867  30.765  11.674
52062W        W18471  34.167   0.494   3.237
52063W        W18472  22.237  42.674  14.248
52064W        W18473  23.579  29.964  11.409
52065W        W18474  35.170   3.266   4.981
52066W        W18475  15.558  43.405   3.080
52067W        W18476  31.881  36.379   0.783
52068W        W18477  32.851  12.171  11.677
52069W        W18478  19.017  24.997  14.923
52070W        W18479  33.850  39.008  10.680
52071W        W18480   3.759  31.518   1.370
52072W        W18481   9.293  11.379  14.296
52073W        W18482   3.347   3.423   4.232
52074W        W18483   9.376  40.103   0.756
52075W        W18484  44.797  41.708   2.361
52076W        W18485  22.534  32.090   0.439
52077W        W18486  19.218   9.405  14.687
52078W        W18487   2.379   2.419  11.669
52079W        W18488   3.226  22.490   3.467
52080W        W18489   3.299   8.989   2.636
52081W        W18490  38.824   0.019   4.749
52082W        W18491   9.826  26.882   2.224
52083W        W18492  39.441  34.055  14.441
52084W        W18493  20.790  43.426   0.594
52085W        W18494   1.825  13.852  10.631
52086W        W18495  39.277  17.173  14.032
52087W        W18496  15.435  30.854  11.605
52088W        W18497  12.179  28.623   3.396
52089W        W18498  13.766  35.630  14.982
52090W        W18499  31.359  17.306   0.804
52091W        W18500  22.671  24.057   0.610
52092W        W18501  33.643  37.467  12.009
52093W        W18502   7.770  43.850   1.501
52094W        W18503   1.654  39.763   2.842
52095W        W18504  37.513   1.926  13.488
52096W        W18505  18.023  11.691  10.489
52097W        W18506   9.715  35.043   2.688
52098W        W18507  29.676  13.186   4.093
52099W        W18508  13.095  39.768  14.850
52100W        W18509  38.426  21.045  10.212
52101W        W18510  24.007  13.777   1.932
52102W        W18511   8.491   6.947   4.132
52103W        W18512  40.976   4.331  13.817
52104W        W18513  16.304  21.845   3.211
52105W        W18514  21.633  34.497  12.788
52106W        W18515  26.593  12.800  12.224
52107W        W18516  13.745   9.896  14.275
52108W        W18517  42.058   5.282   4.108
52109W        W18518  32.549   3.938   3.731
52110W        W18519  42.529   5.190  12.747
52111W        W18520  26.529  42.476  13.521
52112W        W18521  36.532  38.287  12.925
52113W        W18522  40.288   7.790   0.407
52114W        W18523  29.599  19.025  10.754
52115W        W18524  20.149  35.144  10.769
52116W        W18525  19.065   2.070  13.519
52117W        W18526   6.508  10.781   2.602
52118W        W18527  13.549  43.394   1.381
52119W        W18528  27.600  23.636   0.288
52120W        W18529  32.465  32.850   2.154
52121W        W18530  23.516   0.181  11.465
52122W        W18531  27.385  42.997  13.673
52123W        W18532  13.358  43.515  13.569
52124W        W18533  10.236   9.579   3.178
52125W        W18534  24.002  36.029   3.298
52126W        W18535  40.051   1.964   2.960
52127W        W18536  24.906  36.567   1.004
52128W        W18537  44.346  17.097   2.340
52129W        W18538  44.917  12.238  14.804
52130W        W18539  22.974  24.525   0.009
52131W        W18540   3.131  24.474   2.498
52132W        W18541   7.327  13.006   2.922
52133W        W18542   6.468  34.477   0.826
52134W        W18543  14.623  18.093   4.970
52135W        W18544  18.630   4.983  13.390
52136W        W18545  39.023  12.670   0.054
52137W        W18546   7.617  42.254  12.723
52138W        W18547  14.250  14.807   4.667
52139W        W18548  43.030  11.617   4.144
52140W        W18549  19.639  10.174  14.363
52141W        W18550  42.449  31.843   2.911
52142W        W18551  17.310  38.792  11.956
52143W        W18552   7.251   0.887  13.865
52144W        W18553  30.952   0.305   2.349
52145W        W18554  43.051   6.027   2.678
52146W        W18555  44.649  10.967   3.711
52147W        W18556   6.165  11.090  10.910
52148W        W18557  11.893  22.552   2.250
52149W        W18558  42.821  11.853  14.984
52150W        W18559   1.379  21.533  12.797
52151W        W18560  24.198  10.158   3.602
52152W        W18561  30.776  20.066   1.396
52153W        W18562  18.233   7.567   0.272
52154W        W18563  36.302  24.329  13.834
52155W        W18564   5.266  16.614  13.071
52156W        W18565   6.326  22.856   5.486
52157W        W18566  22.597  27.134  14.454
52158W        W18567  25.183  23.074  14.414
52159W        W18568   0.942  30.166  11.945
52160W        W18569  34.441   4.924   3.263
52161W        W18570  40.411  28.923  11.718
52162W        W18571  19.223  39.581   2.878
52163W        W18572   1.345  22.917  12.751
52164W        W18573  38.555  12.811   1.851
52165W        W18574  39.841  22.153   4.989
52166W        W18575   2.586  11.259   0.997
52167W        W18576  36.800  31.351   0.757
52168W        W18577  17.509  17.286  14.961
52169W        W18578  38.532  42.498  14.302
52170W        W18579  32.331  34.626  10.792
52171W        W18580  40.763   8.086  13.599
52172W        W18581  26.913  44.349  11.578
52173W        W18582  22.692   9.264  12.994
52174W        W18583  10.836  35.709   4.729
52175W        W18584   8.628  36.352  12.091
52176W        W18585  11.675   1.258   2.155
52177W        W18586  43.103  26.404  10.716
52178W        W18587  20.641  33.322  12.445
52179W        W18588  43.788   5.511  14.893
52180W        W18589  14.556  22.048  13.448
52181W        W18590  43.400  31.116  13.970
52182W        W18591  41.032  44.796   3.278
52183W        W18592  40.269  22.508   3.279
52184W        W18593  15.572  16.370   0.541
52185W        W18594  15.612  10.790   4.128
52186W        W18595  32.323  33.234   0.312
52187W        W18596  32.911  11.865   3.728
52188W        W18597  29.355  13.164   1.761
52189W        W18598  15.372   3.310   3.833
52190W        W18599  17.646  16.255   2.437
52191W        W18600  14.233  21.485  12.098
52192W        W18601  25.120  32.301  13.113
52193W        W18602  23.148  16.760  11.294
52194W        W18603  18.585  26.415  12.054
52195W        W18604  38.569  31.258   1.221
52196W        W18605  32.100  32.483  12.367
52197W        W18606  36.454  10.513  14.573
52198W        W18607  25.095  11.842  10.169
52199W        W18608  25.957  11.053  14.046
52200W        W18609  40.606   2.198   3.707
52201W        W18610  13.522   5.869   3.162
52202W        W18611  35.524  13.561   1.839
52203W        W18612   8.580   1.786  13.873
52204W        W18613   8.897  11.892   5.059
52205W        W18614  22.568  16.189   4.767
52206W        W18615  20.718  14.202  11.181
52207W        W18616  35.596  33.557  13.449
52208W        W18617  42.237   1.315   0.248
52209W        W18618   9.722  15.824   2.322
52210W        W18619  21.547  34.966   1.162
52211W        W18620  34.143  17.831   1.358
52212W        W18621  32.400  35.368   1.371
52213W        W18622  22.531  43.754   2.729
52214W        W18623  24.098  18.736   1.976
52215W        W18624   6.900  33.496   4.050
52216W        W18625  26.618  42.766  12.540
52217W        W18626  36.108  16.552   2.887
52218W        W18627  19.811  42.321   4.816
52219W        W18628  31.785   2.141   1.935
52220W        W18629   8.387  32.030  12.918
52221W        W18630  38.443  41.816   3.553
52222W        W18631  40.685  27.801   5.056
52223W        W18632  32.593  27.583  12.674
52224W        W18633  17.602   2.460  10.693
52225W        W18634   2.492  35.792   3.802
52226W        W18635  41.989  42.459  11.622
52227W        W18636   1.531   6.415   0.836
52228W        W18637  31.475  39.861  13.281
52229W        W18638  44.204  11.349   0.121
52230W        W18639  32.076   6.348  14.069
52231W        W18640  39.295   6.197   0.319
52232W        W18641  14.814  36.188  12.470
52233W        W18642  30.963  35.948   0.350
52234W        W18643   5.905  38.365  13.548
52235W        W18644  34.393   1.914   2.607
52236W        W18645   2.614   3.622   4.685
52237W        W18646   7.920  19.780   3.495
52238W        W18647  40.685  22.306   0.557
52239W        W18648  25.755   3.739   3.155
52240W        W18649  34.041   9.866   2.931
52241W        W18650   0.333  15.374   3.746
52242W        W18651  41.720  16.330  13.413
52243W        W18652   6.383   3.765   0.676
52244W        W18653   7.182  44.425  14.898
52245W        W18654  22.572  17.380  12.536
52246W        W18655  14.747  26.989   3.314
52247W        W18656   2.204  44.969   0.055
52248W        W18657  15.865   4.502  12.073
52249W        W18658  30.983  29.123  14.945
52250W        W18659  20.428  13.261  11.407
52251W        W18660  17.927   3.275   1.579
52252W        W18661   7.798   5.113  14.304
52253W        W18662   6.653  41.855  14.830
52254W        W18663  24.878  35.394   3.775
52255W        W18664  36.630  36.000  10.495
52256W        W18665  25.735  13.837  13.156
52257W        W18666  32.456  19.779  13.063
52258W        W18667  37.625  27.800   3.351
52259W        W18668  15.940  32.618  13.719
52260W        W18669   2.324  39.372  14.172
52261W        W18670  26.246  34.601   4.686
52262W        W18671   5.661  29.013  12.907
52263W        W18672  44.238  34.519  14.054
52264W        W18673  35.639  28.469  11.565
52265W        W18674  10.821  31.332   1.359
52266W        W18675  19.115  35.833   4.529
52267W        W18676   7.695   1.451  13.520
52268W        W18677   9.815  38.896  12.476
52269W        W18678   7.391  25.711   3.893
52270W        W18679  15.632  19.820   0.226
52271W        W18680  10.626   4.462   4.402
52272W        W18681  35.044  43.602   0.417
52273W        W18682  29.954   7.834  13.612
52274W        W18683  38.642   6.265   2.761
52275W        W18684  16.223  34.993  12.475
52276W        W18685   1.922   7.856  13.000
52277W        W18686  38.049  40.595   1.825
52278W        W18687   7.196  29.056  10.539
52279W        W18688   6.525  22.920   1.741
52280W        W18689  18.602   9.432  11.106
52281W        W18690  35.003  31.667   4.497
52282W        W18691  44.549  29.699  14.479
52283W        W18692   2.215   8.391   3.796
52284W        W18693  12.115  13.424   4.254
52285W        W18694  25.960  29.981  12.394
52286W        W18695  43.187  37.710  11.985
52287W        W18696   3.758  14.158  14.599
52288W        W18697  36.813  33.857  12.459
52289W        W18698  44.561  19.292  11.359
52290W        W18699   2.392   6.161  10.512
52291W        W18700  13.314  25.928   4.628
52292W        W18701  11.269  33.181   2.338
52293W        W18702  16.270  24.021   1.505
52294W        W18703  10.699  30.108  12.620
52295W        W18704  34.622  29.950  14.517
52296W        W18705  25.993  17.186   3.846
52297W        W18706  43.772  32.655   0.302
52298W        W18707  24.296  29.665   2.294
52299W        W18708  26.635  11.385   4.427
52300W        W18709   0.416  38.018   1.849
52301W        W18710  13.026   5.851  14.340
52302W        W18711   8.746   0.227   4.253
52303W        W18712   3.858  15.616   2.798
52304W        W18713   8.813  26.972  12.042
52305W        W18714  16.511  34.556   0.778
52306W        W18715  21.373   1.681  12.111
52307W        W18716  24.682  36.512  12.890
52308W        W18717  16.213  30.085  14.862
52309W        W18718   8.782  31.656   3.746
52310W        W18719  44.996  32.816  13.406
52311W        W18720  35.334  36.517  12.968
52312W        W18721   8.994  28.983   0.036
52313W        W18722  10.054  13.721   2.579
52314W        W18723   8.627   4.873   2.821
52315W        W18724  29.567  19.143   0.485
52316W        W18725  41.747  26.925   0.888
52317W        W18726  22.121  39.673   4.558
52318W        W18727  22.738  28.030  14.965
52319W        W18728  31.373  40.616   0.264
52320W        W18729  27.171   8.052  10.721
52321W        W18730   5.674  10.698   3.665
52322W        W18731  18.284  19.804   0.420
52323W        W18732  28.691  13.664   1.362
52324W        W18733  30.094  28.930   2.992
52325W        W18734  17.110  20.840   0.938
52326W        W18735   0.722  23.200  14.888
52327W        W18736  25.734  16.074  12.573
52328W        W18737  18.786  37.575   0.782
52329W        W18738  33.976   4.927  11.212
52330W        W18739  32.489   3.166   1.449
52331W        W18740  43.791   2.258  10.393
52332W        W18741  24.421  18.496   4.531
52333W        W18742  17.155  14.310  13.007
52334W        W18743   5.243  20.759  12.060
52335W        W18744  33.247  21.416  11.956
52336W        W18745   7.353  31.867   2.278
52337W        W18746  16.995  42.794   0.288
52338W        W18747  33.096  36.537  11.483
52339W        W18748   8.898   1.896  14.320
52340W        W18749  40.553   8.425   1.286
52341W        W18750  30.650  40.619  12.135
52342W        W18751  19.207   2.989   3.226
52343W        W18752  14.445  29.948   2.607
52344W        W18753  16.873   0.383  14.570
52345W        W18754  29.895  22.447   3.583
52346W        W18755  27.305  38.630   4.607
52347W        W18756  40.609  39.376  13.375
52348W        W18757  37.604  34.606  14.935
52349W        W18758   4.240   1.483   1.806
52350W        W18759  43.369   7.739   5.075
52351W        W18760  42.642  18.517  11.641
52352W        W18761  41.298  32.311   3.751
52353W        W18762  12.821  24.523   3.262
52354W        W18763  23.207  32.895  14.318
52355W        W18764  10.173  10.629   0.562
52356W        W18765   6.926  11.903   0.845
52357W        W18766  31.495  13.887   0.552
52358W        W18767  30.828  40.966   4.140
52359W        W18768  32.806  29.701   4.168
52360W        W18769  35.479  41.288   4.395
52361W        W18770  25.763  41.328   2.729
52362W        W18771   9.854  20.419  11.260
52363W        W18772   4.945  23.107  14.770
52364W        W18773   2.280  30.431  13.523
52365W        W18774  17.009   8.440   1.441
52366W        W18775  23.686  21.618   2.366
52367W        W18776  15.288  19.854  14.541
52368W        W18777  36.167  28.507   2.111
52369W        W18778  22.943  21.965   2.271
52370W        W18779  29.754  41.834  11.553
52371W        W18780  30.366  35.556  10.575
52372W        W18781  17.971  38.360  13.762
52373W        W18782  17.313  43.440  12.170
52374W        W18783  30.008  32.535  13.821
52375W        W18784  12.582  25.222   0.444
52376W        W18785  27.937   9.136  11.135
52377W        W18786  24.839   1.209   3.471
52378W        W18787  17.693  21.757  14.841
52379W        W18788  36.900  32.353  11.032
52380W        W18789  38.643  15.206   5.094
52381W        W18790   7.712   7.567  14.285
52382W        W18791  24.628  20.825  10.153
52383W        W18792  10.871  35.638  14.418
52384W        W18793  39.517  10.579  10.610
52385W        W18794  37.311  19.395   0.743
52386W        W18795  23.506  28.274   4.137
52387W        W18796   3.531   1.705   2.330
52388W        W18797  16.620   6.105  13.480
52389W        W18798   5.204  14.802  13.622
52390W        W18799  16.619  35.216   3.833
52391W        W18800  43.470  21.784  11.826
52392W        W18801  28.141  20.787  13.799
52393W        W18802  10.254  40.768   4.593
52394W        W18803  43.517  10.719   4.936
52395W        W18804  12.795  13.670  11.675
52396W        W18805   7.791   6.299  13.570
52397W        W18806  37.108   3.460   0.494
52398W        W18807  23.347  33.023  12.502
52399W        W18808  25.321  20.137  12.945
52400W        W18809  18.581  35.173  14.328
52401W        W18810  10.545  33.578  13.755
52402W        W18811  14.842   1.341   0.171
52403W        W18812  16.776  36.818   0.986
52404W        W18813  36.395  19.111  14.410
52405W        W18814  27.372  19.013  11.529
52406W        W18815  15.343  34.913  14.331
52407W        W18816   8.216  27.695   1.870
52408W        W18817  15.741   2.887  14.757
52409W        W18818  36.865  12.130  14.607
52410W        W18819  15.666   4.153   2.698
52411W        W18820  17.478  21.745   1.402
52412W        W18821  23.415  16.530   1.656
52413W        W18822  41.902  41.762  13.321
52414W        W18823  21.774  37.871   1.207
52415W        W18824  27.413  23.157   1.719
52416W        W18825   0.687  25.021  12.456
52417W        W18826  36.879  42.432   4.262
52418W        W18827  27.204  41.061  12.450
52419W        W18828  33.204  44.905  14.811
52420W        W18829  27.584  17.711   4.644
52421W        W18830  25.924  29.516  14.043
52422W        W18831   9.259  10.395  14.295
52423W        W18832  21.063  26.678   3.391
52424W        W18833  23.434   1.974   4.234
52425W        W18834  13.799  28.479  11.188
52426W        W18835  42.039  13.203   4.288
52427W        W18836   7.500  33.694   4.937
52428W        W18837  15.137  34.956  10.606
52429W        W18838  29.080  32.672  11.073
52430W        W18839  24.038  15.742  11.596
52431W        W18840  12.573   4.142  11.002
52432W        W18841  29.923  32.178  11.662
52433W        W18842   5.835  32.804   3.255
52434W        W18843  10.812  30.585  12.822
52435W        W18844   4.953  33.335  12.611
52436W        W18845  12.812  26.097   4.307
52437W        W18846  44.939   7.091   2.650
52438W        W18847   8.918  13.295  11.449
52439W        W18848  37.784  44.372  14.907
52440W        W18849   8.436  41.972   2.306
52441W        W18850  24.031   9.513  13.463
52442W        W18851  38.928  30.682   3.686
52443W        W18852  32.262   8.124   2.768
52444W        W18853   5.899   0.249   1.350
52445W        W18854   8.464  24.256   1.890
52446W        W18855   6.468  29.079   1.132
52447W        W18856   2.259  38.099   0.039
52448W        W18857  16.770   6.687  12.144
52449W        W18858  13.145   4.410  13.785
52450W        W18859   5.244   7.707  13.928
52451W        W18860  22.607  19.346  13.383
52452W        W18861  44.007  13.313   0.835
52453W        W18862  23.446  39.563   1.523
52454W        W18863   6.877  39.254   2.825
52455W        W18864  33.838  31.671   1.048
52456W        W18865  44.946  20.629  14.958
52457W        W18866   5.719  44.657  14.035
52458W        W18867  21.051  17.856  11.399
52459W        W18868   1.856  19.565   2.137
52460W        W18869   7.457  11.371  13.002
52461W        W18870  24.099  36.834   2.737
52462W        W18871  26.361   4.456  14.952
52463W        W18872  11.745  31.963  11.184
52464W        W18873   6.877  16.101  12.161
52465W        W18874  44.776   1.998   3.792
52466W        W18875   0.222  22.989  11.290
52467W        W18876  24.611  19.318   0.329
52468W        W18877  17.749  43.241  14.880
52469W        W18878  33.329   0.559  13.997
52470W        W18879  23.790  29.601  13.330
52471W        W18880  15.404  14.272   1.686
52472W        W18881  21.145  28.585   4.237
52473W        W18882   5.426  18.468   4.186
52474W        W18883  21.677  16.246  14.029
52475W        W18884  35.672   2.292   2.208
52476W        W18885  12.227  44.192   5.126
52477W        W18886  34.230  23.100   1.696
52478W        W18887  37.308  31.503   0.729
52479W        W18888   5.922   6.715   0.975
52480W        W18889  18.108  22.370   4.289
52481W        W18890  39.025   0.727  12.983
52482W        W18891  22.512  35.616  11.207
52483W        W18892  31.711  36.655   1.329
52484W        W18893  21.922  32.955  13.935
52485W        W18894  24.449   1.501   3.271
52486W        W18895  18.234  26.262   2.329
52487W        W18896  36.133  28.110  14.049
52488W        W18897  36.854  23.009  14.894
52489W        W18898  14.605  16.338  11.840
52490W        W18899  44.284  35.027   3.624
52491W        W18900   4.723  25.700  12.507
52492W        W18901  12.377  21.535   2.408
52493W        W18902   5.776  28.915   2.370
52494W        W18903  23.224   9.906  14.225
52495W        W18904  24.213  14.910   4.161
52496W        W18905  44.522   0.079   2.255
52497W        W18906  15.892  17.001   3.114
52498W        W18907  33.112  21.236  12.857
52499W        W18908  19.574   3.920  12.041
52500W        W18909  11.943  12.897   0.295
52501W        W18910   5.491  44.983  11.521
52502W        W18911  38.353   6.023   0.534
52503W        W18912  21.091  38.927  14.600
52504W        W18913  27.611   6.307   1.180
52505W        W18914  34.472   1.807   2.114
52506W        W18915  25.005   5.251   0.512
52507W        W18916   1.440  43.829  10.744
52508W        W18917  15.536   1.669  10.669
52509W        W18918  14.652  19.263   5.380
52510W        W18919  15.159  25.058  14.608
52511W        W18920  39.954  17.373  13.456
52512W        W18921  25.571  39.372  12.331
52513W        W18922   9.892  11.712  12.832
52514W        W18923  13.866   6.714   1.296
52515W        W18924  14.656  29.588   3.695
52516W        W18925  41.448  27.669  13.113
52517W        W18926  11.153  41.961  12.928
52518W        W18927  38.643  12.627   2.325
52519W        W18928  19.458  26.202   0.822
52520W        W18929   3.282   0.352  14.100
52521W        W18930   6.776  44.866  14.304
52522W        W18931  35.676  26.547   4.595
52523W        W18932   4.266  25.209  10.301
52524W        W18933  12.691  19.145  14.309
52525W        W18934   5.596  27.549   4.074
52526W        W18935  28.076  22.965   0.066
52527W        W18936  37.659   4.957   4.627
52528W        W18937  34.990  39.117   0.343
52529W        W18938  17.468  39.872   1.821
52530W        W18939   5.917  17.654   2.739
52531W        W18940   6.940  26.871   4.882
52532W        W18941  17.598  27.341   2.795
52533W        W18942  23.524  15.125  11.124
52534W        W18943  24.512  20.517  12.587
52535W        W18944  16.386  40.445   3.479
52536W        W18945   8.758  17.541   4.546
52537W        W18946  24.412  16.176   0.663
52538W        W18947  12.526  13.450  11.280
52539W        W18948  12.863  12.750  12.834
52540W        W18949   3.940  29.419  11.045
52541W        W18950   2.706  35.671   0.019
52542W        W18951  32.053  43.258  12.206
52543W        W18952  37.884   9.586  12.059
52544W        W18953  35.960  27.633  12.914
52545W        W18954  23.783  34.783  13.301
52546W        W18955  44.149  14.282  14.870
52547W        W18956  20.204   6.905   1.419
52548W        W18957   1.797   0.522  12.354
52549W        W18958  37.021  34.384   1.691
52550W        W18959   8.382   0.339  10.043
52551W        W18960  23.475   9.045   2.794
52552W        W18961  26.460  25.638   1.785
52553W        W18962  18.354   9.347   3.303
52554W        W18963  31.573  40.383  14.820
52555W        W18964  12.221  35.337  14.418
52556W        W18965   3.841  11.898   3.105
52557W        W18966  29.159  25.415  12.500
52558W        W18967  21.286  21.865  10.496
52559W        W18968  11.593  19.517   2.885
52560W        W18969  11.236  34.709   1.682
52561W        W18970  12.754   9.744   3.166
52562W        W18971   0.249   0.843   0.760
52563W        W18972   6.716  35.918   0.821
52564W        W18973  19.784  16.030   3.739
52565W        W18974  23.426  15.716  13.340
52566W        W18975  31.618  29.317   0.154
52567W        W18976  41.081  20.295   3.092
52568W        W18977  35.762  21.740   0.852
52569W        W18978  17.285  28.038  12.034
52570W        W18979  24.491   6.129  12.932
52571W        W18980  37.609   1.147  12.434
52572W        W18981  25.275  30.417   2.746
52573W        W18982  39.744  30.672   2.124
52574W        W18983  31.522   5.670   1.654
52575W        W18984  22.693  41.400  14.060
52576W        W18985  12.563  29.212   4.159
52577W        W18986  30.667  41.767   1.484
52578W        W18987  32.885  41.248   0.799
52579W        W18988  23.195  35.093   0.728
52580W        W18989   8.809  34.379   1.331
52581W        W18990  20.776   4.239   4.170
52582W        W18991  30.168  38.598   3.413
52583W        W18992  29.685  12.514   3.332
52584W        W18993  41.637  31.572   1.885
52585W        W18994  29.292  30.535  10.730
52586W        W18995   8.408  36.812  11.185
52587W        W18996   0.326  32.891   1.676
52588W        W18997   3.207   4.009   3.319
52589W        W18998  33.993  21.538   4.629
52590W        W18999  12.232  16.887   3.165
52591W        W19000  31.360  15.819  11.103
52592W        W19001  33.837  14.399   1.832
52593W        W19002  38.932  21.538  12.143
52594W        W19003   2.333  38.615   0.127
52595W        W19004  13.328  32.002  12.446
52596W        W19005  17.089  15.707  10.857
52597W        W19006  29.882  40.448   3.268
52598W        W19007   0.716  24.581  14.986
52599W        W19008  10.715  18.610   1.896
52600W        W19009  16.086   6.185   0.788
52601W        W19010   0.241  42.645   0.802
52602W        W19011  19.115  38.393   3.086
52603W        W19012   0.876  25.899   0.139
52604W        W19013  41.585  30.489   3.193
52605W        W19014   5.173  19.814  10.667
52606W        W19015  34.309  33.536  13.836
52607W        W19016  10.912  23.199  10.620
52608W        W19017  43.689   9.207   1.208
52609W        W19018  40.305  31.736   4.670
52610W        W19019  44.024   4.533  11.158
52611W        W19020  27.647  23.623   1.714
52612W        W19021  34.662  33.710   0.996
52613W        W19022  39.813   7.361   1.749
52614W        W19023  13.310  19.292   1.888
52615W        W19024  14.822  40.058  11.151
52616W        W19025   3.926  16.993  13.064
52617W        W19026  44.764   0.263  11.165
52618W        W19027  21.168  33.428   3.654
52619W        W19028  24.083   4.832  14.507
52620W        W19029  15.631  39.776   3.067
52621W        W19030  31.027  31.855   4.153
52622W        W19031  23.781  16.830   1.347
52623W        W19032   6.968  13.733   1.837
52624W        W19033  35.725  26.496  13.717
52625W        W19034  22.366  23.803   5.003
52626W        W19035  23.744  27.507  13.241
52627W        W19036  44.370  20.349   3.237
52628W        W19037  16.338  29.385   0.581
52629W        W19038  31.676  36.934  14.890
52630W        W19039  25.165   7.318  14.524
52631W        W19040   3.513  33.162  14.333
52632W        W19041  13.300  26.228   4.178
52633W        W19042  13.431  10.607  13.862
52634W        W19043  31.536   8.361   1.157
52635W        W19044  30.931  32.787   4.202
52636W        W19045  35.906  12.731  10.697
52637W        W19046  12.430  15.594  11.671
52638W        W19047   8.804  35.150   1.664
52639W        W19048  25.244  26.466   1.408
52640W        W19049  21.569  39.316  12.451
52641W        W19050   7.014  43.941   0.894
52642W        W19051   2.596   0.475   4.041
52643W        W19052  43.417   2.467   4.552
52644W        W19053   4.830  17.011   4.487
52645W        W19054  22.999   0.957  11.432
52646W        W19055  14.618   1.870   0.853
52647W        W19056  41.464  23.984  13.509
52648W        W19057  12.258   4.328  13.765
52649W        W19058  15.563  16.617  14.733
52650W        W19059   7.183  11.197   0.343
52651W        W19060  38.248   0.718  13.343
52652W        W19061  44.367   4.721  11.971
52653W        W19062  43.071   4.792  12.393
52654W        W19063  29.280   5.477   3.958
52655W        W19064  35.062   3.985  10.887
52656W        W19065   9.152  26.165  14.422
52657W        W19066  26.655  23.178   9.760
52658W        W19067  12.749   8.680   4.199
52659W        W19068  44.081  10.403  12.587
52660W        W19069  30.390   6.332   4.034
52661W        W19070   4.081  11.664  10.086
52662W        W19071  25.927   2.895  12.022
52663W        W19072  42.882  21.237  12.461
52664W        W19073  36.519  26.042  13.389
52665W        W19074   5.550  21.796   4.297
52666W        W19075  31.411   8.831   0.407
52667W        W19076   1.523   9.692   9.694
52668W        W19077   5.782  19.092  11.023
52669W        W19078   8.768  35.050  12.508
52670W        W19079  36.327  17.330   4.517
52671W        W19080  29.967  38.540  11.215
52672W        W19081  35.553   9.827   4.418
52673W        W19082  27.132  37.811  11.083
52674W        W19083   7.723  36.133  11.220
52675W        W19084  25.486  33.428  13.723
52676W        W19085  27.357  15.065   1.429
52677W        W19086   6.363  16.511  14.840
52678W        W19087  41.350  23.344   1.325
52679W        W19088  30.663  28.955   1.113
52680W        W19089  15.163   1.965  10.493
52681W        W19090  35.771  43.093   2.345
52682W        W19091  29.262   8.437   2.174
52683W        W19092  17.661  20.534   0.291
52684W        W19093  39.847  39.948  13.546
52685W        W19094  37.018  25.472   0.809
52686W        W19095  12.229   1.450  10.366
52687W        W19096  34.555  25.205   2.493
52688W        W19097  32.306  36.065   0.678
52689W        W19098  31.439  24.754   4.619
52690W        W19099  21.700  43.003   1.449
52691W        W19100  44.416  27.190   1.397
52692W        W19101  44.378  10.283   1.053
52693W        W19102  44.020  15.335   2.852
52694W        W19103  12.867  21.185  13.896
52695W        W19104   3.160  10.513  12.520
52696W        W19105  21.223   3.382  13.626
52697W        W19106   7.185  41.348   2.133
52698W        W19107  40.099  24.902  11.161
52699W        W19108  20.465  28.675  12.241
52700W        W19109  39.163  17.272  13.025
52701W        W19110  10.875   2.806   3.434
52702W        W19111  15.847  17.280  12.891
52703W        W19112  31.635   6.488   0.359
52704W        W19113  40.691   8.243  14.491
52705W        W19114  28.042  30.647   3.590
52706W        W19115  42.705  27.041   4.237
52707W        W19116  11.548  44.615   4.715
52708W        W19117  34.438   4.359   4.157
52709W        W19118  28.975   7.754   5.247
52710W        W19119  22.066   4.134  12.439
52711W        W19120  34.393   4.879   1.310
52712W        W19121  21.600  24.983   3.747
52713W        W19122  18.735  36.076  14.779
52714W        W19123  35.967  20.734  11.757
52715W        W19124   9.428   3.464   2.768
52716W        W19125  13.653  32.143   2.801
52717W        W19126  18.262   5.378  14.034
52718W        W19127  35.213   3.769   0.840
52719W        W19128  32.119  30.144   2.757
52720W        W19129  19.705  12.766  13.802
52721W        W19130  11.469  31.398  13.556
52722W        W19131  29.121  42.511  12.540
52723W        W19132  29.865  43.084  14.489
52724W        W19133  29.289  35.845   3.171
52725W        W19134   4.098  32.534   0.805
52726W        W19135  29.418   9.477   4.369
52727W        W19136  36.477  14.225   3.847
52728W        W19137  24.084  20.103  14.686
52729W        W19138  30.490  29.343  14.910
52730W        W19139  38.829   1.527  14.306
52731W        W19140  36.675  24.640  12.451
52732W        W19141   3.602  34.496   3.210
52733W        W19142  21.404   0.375  11.100
52734W        W19143  35.064  21.661   4.460
52735W        W19144  23.517  18.230  14.059
52736W        W19145  42.342  37.983  10.573
52737W        W19146   8.655  26.162   3.160
52738W        W19147  37.767  42.362  13.524
52739W        W19148  34.062  30.537  13.831
52740W        W19149  34.424  27.993  14.434
52741W        W19150   7.380  33.451  11.045
52742W        W19151  40.715  35.307   0.431
52743W        W19152  14.036  10.224   2.318
52744W        W19153  20.119  19.781   2.222
52745W        W19154   8.267  24.209   3.556
52746W        W19155  37.258  42.333  13.431
52747W        W19156  43.878  24.174   3.471
52748W        W19157  40.315  36.475   1.740
52749W        W19158  43.340  44.101   3.303
52750W        W19159  11.759  16.221  12.577
52751W        W19160  23.139   6.560  10.432
52752W        W19161  39.487  40.904   0.736
52753W        W19162  43.828  39.706   4.146
52754W        W19163  42.435  11.612   0.785
52755W        W19164   1.227   9.331  12.451
52756W        W19165  24.919   2.857  12.008
52757W        W19166  33.394   7.443  11.444
52758W        W19167   9.968  29.469  10.544
52759W        W19168  33.159  13.691   3.722
52760W        W19169  11.120  44.005   1.250
52761W        W19170  31.116  16.217  14.827
52762W        W19171  36.881  21.607  11.084
52763W        W19172  24.142  25.766   4.581
52764W        W19173  32.305   6.567  11.171
52765W        W19174   0.691  31.928   0.255
52766W        W19175  36.550  11.058  12.543
52767W        W19176  26.567  34.647   1.851
52768W        W19177  28.263  19.659   5.030
52769W        W19178  41.797  38.936   4.931
52770W        W19179   1.412   6.407  11.899
52771W        W19180  27.204  44.780  11.630
52772W        W19181  11.696  16.807  14.008
52773W        W19182   1.386  39.320   4.980
52774W        W19183  19.085  25.476   0.828
52775W        W19184  43.511  20.700  13.987
52776W        W19185   7.174  27.159   3.063
52777W        W19186  32.321  12.906   2.696
52778W        W19187   8.608  36.439   4.207
52779W        W19188  41.370  25.563  13.039
52780W        W19189  31.521  32.980   3.412
52781W        W19190  20.794  19.320  11.122
52782W        W19191  29.770  18.545  10.869
52783W        W19192   8.143  43.366   0.324
52784W        W19193   8.514  24.451   0.244
52785W        W19194  19.637  31.974   0.747
52786W        W19195  21.450  39.461  11.943
52787W        W19196  11.412  10.961  10.653
52788W        W19197  25.448  39.507   1.944
52789W        W19198  31.275  20.193   1.376
52790W        W19199  26.639  25.068  13.850
52791W        W19200  41.530  20.923   4.391
52792W        W19201  12.504   8.448  14.437
52793W        W19202  26.259  39.246  14.916
52794W        W19203  13.578   9.126   1.310
52795W        W19204  23.190  39.097  13.007
52796W        W19205   9.215  33.098  12.722
52797W        W19206   3.021  34.820   1.306
52798W        W19207  29.382   7.977   1.379
52799W        W19208  19.016   6.745  14.393
52800W        W19209  27.970  18.189  13.962
52801W        W19210  12.549  18.276  11.413
52802W        W19211  34.468  26.700   1.865
52803W        W19212  34.823  22.208  14.686
52804W        W19213   6.155   7.904  12.345
52805W        W19214  25.659   8.395   0.235
52806W        W19215  27.673   4.247  12.924
52807W        W19216   6.729  43.183  12.467
52808W        W19217  16.028  17.027   2.217
52809W        W19218  16.830  38.607  13.295
52810W        W19219  17.348  27.604  10.967
52811W        W19220   7.808  21.765   0.026
52812W        W19221  11.421   9.094   0.444
52813W        W19222   8.989  16.255   0.505
52814W        W19223  12.073  28.021   1.068
52815W        W19224  17.547   6.256  14.312
52816W        W19225  18.610  18.261  14.792
52817W        W19226  13.706  14.859  11.596
52818W        W19227  38.344  41.249  14.955
52819W        W19228  43.546  28.684  11.718
52820W        W19229   4.760   5.157   2.808
52821W        W19230  19.852   5.588  14.420
52822W        W19231  23.575  13.732  11.569
52823W        W19232  32.587  10.706   0.186
52824W        W19233  11.219  36.097  10.929
52825W        W19234  23.616  44.004  13.331
52826W        W19235  43.850   8.401  14.987
52827W        W19236  36.009  25.309  12.233
52828W        W19237  26.113  11.326  14.462
52829W        W19238  41.968  20.005  14.349
52830W        W19239  22.146   3.419   3.358
52831W        W19240  25.545  33.117  10.722
52832W        W19241  37.451  21.621   3.616
52833W        W19242   4.394  36.725   5.104
52834W        W19243  38.965  32.733   0.426
52835W        W19244  24.664  29.184   0.841
52836W        W19245  19.682  30.690  12.932
52837W        W19246  41.407  10.703   1.598
52838W        W19247  35.109  12.806   3.302
52839W        W19248  30.349   1.862  12.889
52840W        W19249   4.192  14.741   3.066
52841W        W19250  44.547  41.956  14.286
52842W        W19251  13.012  18.709  13.971
52843W        W19252  34.843   5.628  10.260
52844W        W19253   1.631  12.849  10.686
52845W        W19254  11.670  21.596  11.753
52846W        W19255  27.976  17.629  11.668
52847W        W19256  36.713  10.746  13.784
52848W        W19257  23.204   4.722   2.656
52849W        W19258   9.108   1.356  11.659
52850W        W19259  38.128   1.355  10.674
52851W        W19260  31.831  12.698   1.402
52852W        W19261  11.875  39.515   1.141
52853W        W19262   4.378  38.893  12.907
52854W        W19263  35.507  44.959   3.698
52855W        W19264  23.962  36.587  12.328
52856W        W19265  12.650   7.737   2.345
52857W        W19266  41.097  22.381   1.304
52858W        W19267   6.340  14.037   3.271
52859W        W19268  11.864  43.198  10.564
52860W        W19269  35.477  41.834   3.674
52861W        W19270  18.232  29.157  10.904
52862W        W19271  31.060   1.849  12.464
52863W        W19272  39.271  18.815   0.030
52864W        W19273   0.633  12.772  10.358
52865W        W19274  28.067   7.816   1.826
52866W        W19275  13.877  23.531   0.784
52867W        W19276   3.450  34.878   2.250
52868W        W19277  22.965  41.958   3.757
52869W        W19278  30.976  43.164  12.985
52870W        W19279  37.256   6.646  13.449
52871W        W19280  39.951  22.687   4.529
52872W        W19281  38.196   6.002  13.572
52873W        W19282   7.853  36.963  13.743
52874W        W19283   0.892  15.860  13.597
52875W        W19284   9.509   2.204  11.238
52876W        W19285  16.151  11.638   0.774
52877W        W19286  34.997  18.984  14.430
52878W        W19287   0.201  12.664   4.193
52879W        W19288  34.521   1.952  13.929
52880W        W19289  32.713   0.933  13.082
52881W        W19290   8.473  25.539   1.286
52882W        W19291  11.323  26.919   4.086
52883W        W19292  36.093  21.280  13.828
52884W        W19293  25.195  25.719  14.355
52885W        W19294  20.171  11.598   1.773
52886W        W19295  26.601  43.933  13.017
52887W        W19296  21.072  19.130  11.512
52888W        W19297  12.257  44.809   9.805
52889W        W19298   6.702  14.637  12.900
52890W        W19299  21.039   9.216  11.046
52891W        W19300  41.775  27.138  12.931
52892W        W19301   8.843  40.916   1.346
52893W        W19302  37.108  18.458   4.168
52894W        W19303  42.528  18.288   1.640
52895W        W19304   2.373   1.316   1.434
52896W        W19305  25.451   1.393   0.029
52897W        W19306   1.244  36.413   3.681
52898W        W19307  36.554  39.872   2.259
52899W        W19308  17.540   8.669   2.464
52900W        W19309   0.461  12.274   2.126
52901W        W19310  32.957  29.925   3.164
52902W        W19311  16.549  29.958  14.465
52903W        W19312   7.510  38.963   4.304
52904W        W19313  43.161   8.216  10.334
52905W        W19314  19.245  22.713  12.582
52906W        W19315   9.677  42.544   4.978
52907W        W19316  44.765   0.745  11.279
52908W        W19317  14.235   0.015  11.995
52909W        W19318  10.785   1.497  13.464
52910W        W19319  13.830  28.424   0.258
52911W        W19320  27.043  29.057  13.546
52912W        W19321  19.651   7.840   3.900
52913W        W19322  31.885  41.598   4.089
52914W        W19323   1.218  34.480  10.714
52915W        W19324  17.523  35.636   1.289
52916W        W19325  41.701   3.742   2.672
52917W        W19326  18.864  41.151  12.975
52918W        W19327   7.672   2.204   1.448
52919W        W19328  29.431  38.577   3.764
52920W        W19329  14.078  24.587   4.095
52921W        W19330  34.677  34.214   0.846
52922W        W19331  30.950  16.539   4.208
52923W        W19332  21.251  28.515   1.601
52924W        W19333   4.282  35.872  12.086
52925W        W19334  35.544  27.901  14.785
52926W        W19335  39.795  28.422   1.211
52927W        W19336  10.213  31.185  13.914
52928W        W19337  20.630  12.828   1.902
52929W        W19338  43.089   0.835   4.525
52930W        W19339   5.759  29.223  10.622
52931W        W19340  13.694   9.179  12.888
52932W        W19341  32.946  39.142   2.794
52933W        W19342  34.322  15.651  14.984
52934W        W19343  35.069  21.344  11.173
52935W        W19344   3.585   5.598  11.229
52936W        W19345  21.751  28.125   1.280
52937W        W19346  35.420  14.787   3.220
52938W        W19347  41.936  18.855   9.938
52939W        W19348   5.393   4.898   1.738
52940W        W19349   4.205  32.025  14.971
52941W        W19350  42.230  40.248   1.770
52942W        W19351   9.924  13.091   0.411
52943W        W19352  11.478  34.065  11.310
52944W        W19353  15.815  15.738  12.664
52945W        W19354  43.741   0.343  12.420
52946W        W19355   2.682  14.664   1.969
52947W        W19356  43.280  43.539  12.963
52948W        W19357  42.357  39.424  10.704
52949W        W19358  30.070  34.373   3.234
52950W        W19359  42.801  24.848   2.615
52951W        W19360   0.694  40.991  11.532
52952W        W19361   8.175  36.362  11.406
52953W        W19362  25.889   7.718   1.432
52954W        W19363  31.059  25.234  10.956
52955W        W19364  10.724  26.988  12.861
52956W        W19365  29.566  24.593  10.435
52957W        W19366   9.903   5.154   3.652
52958W        W19367  39.573  43.110  13.479
52959W        W19368  30.830  11.173   1.461
52960W        W19369   4.302  27.349  14.338
52961W        W19370   9.727  37.637  13.092
52962W        W19371  41.304  26.659  13.745
52963W        W19372  24.623  29.319  13.701
52964W        W19373   5.474   3.494   4.544
52965W        W19374  39.863  44.295   2.067
52966W        W19375   9.418  27.045  11.112
52967W        W19376  20.142  30.801  11.999
52968W        W19377  44.048   8.209  11.493
52969W        W19378  32.710  21.301  13.972
52970W        W19379  26.050  24.626  14.920
52971W        W19380  25.188  22.283   4.072
52972W        W19381  37.788   7.110  11.240
52973W        W19382   4.450  29.630  13.109
52974W        W19383  31.511  41.990   0.858
52975W        W19384   2.707  10.577  14.580
52976W        W19385   0.440  12.532   3.718
52977W        W19386  42.286   4.950   1.906
52978W        W19387   3.380  11.587   3.718
52979W        W19388   6.089  25.317  13.536
52980W        W19389  13.772   1.087  13.849
52981W        W19390  18.137  34.866  14.245
52982W        W19391  38.410  25.226  10.627
52983W        W19392  22.321  35.589   4.185
52984W        W19393   9.351  36.469   4.726
52985W        W19394   9.007  20.250   0.502
52986W        W19395  40.130  16.296  10.832
52987W        W19396  41.770  26.697   1.336
52988W        W19397  34.945   3.674   3.282
52989W        W19398  36.328  21.479  11.112
52990W        W19399  16.866  13.559   1.175
52991W        W19400   5.800  11.952   2.264
52992W        W19401  41.550  20.621   0.793
52993W        W19402  31.696  20.197   4.267
52994W        W19403  37.491   8.773  11.138
52995W        W19404  16.288  42.072   4.540
52996W        W19405  19.040   3.717   2.415
52997W        W19406  36.592   7.261   0.213
52998W        W19407  11.266   1.474  13.246
52999W        W19408   1.993  10.459   2.740
53000W        W19409   5.496   1.265  13.580
53001W        W19410  43.388  37.698  11.148
53002W        W19411  28.230  19.143   5.068
53003W        W19412  30.061  16.599  12.420
53004W        W19413  34.926  24.155   2.920
53005W        W19414  44.978  22.557  14.832
53006W        W19415  11.797  29.547  11.011
53007W        W19416  20.796   4.228  11.106
53008W        W19417  21.042  17.797   4.069
53009W        W19418  35.982   4.431   1.678
53010W        W19419  34.952  12.394  12.787
53011W        W19420  33.703  23.469  12.367
53012W        W19421  37.010  17.623  12.396
53013W        W19422  26.238  14.723   2.525
53014W        W19423  43.699  30.173  13.417
53015W        W19424   9.649  12.697   0.214
53016W        W19425  16.018  23.722   3.334
53017W        W19426  41.925  26.836   3.791
53018W        W19427   5.800  30.614  12.039
53019W        W19428   6.467  44.791  10.602
53020W        W19429  41.806  27.539  13.867
53021W        W19430  38.727  34.948  13.839
53022W        W19431  26.574   2.088   0.184
53023W        W19432  26.564  22.310  12.020
53024W        W19433  11.174  37.620   0.290
53025W        W19434  18.567  40.063  10.323
53026W        W19435  22.274  43.838   3.183
53027W        W19436  35.079  31.673  13.956
53028W        W19437  24.973   6.835   1.578
53029W        W19438  41.277  18.636  10.693
53030W        W19439   2.376  12.368   0.007
53031W        W19440  29.971  17.261  13.550
53032W        W19441  22.126   7.650   1.764
53033W        W19442   8.675  15.751   3.234
53034W        W19443  20.611  44.045  11.081
53035W        W19444  26.209  23.729  12.856
53036W        W19445  20.416  11.350  13.512
53037W        W19446  20.345  31.022   3.177
53038W        W19447  15.701  32.021  11.936
53039W        W19448   7.443  24.249   1.805
53040W        W19449  26.684  10.583  13.870
53041W        W19450  18.403   3.417  13.934
53042W        W19451  37.802   3.381  10.658
53043W        W19452  22.329   2.255   1.841
53044W        W19453  42.862  38.126  10.500
53045W        W19454  16.664   3.549   4.252
53046W        W19455   7.564   3.593  14.154
53047W        W19456  31.523  41.758   2.363
53048W        W19457  23.030   8.144  13.405
53049W        W19458   9.210  19.742  14.819
53050W        W19459   2.150  43.282  14.317
53051W        W19460  41.613  32.046  12.147
53052W        W19461  20.030  18.276  12.606
53053W        W19462  22.543  18.118   3.353
53054W        W19463  40.415  42.028   3.744
53055W        W19464   6.639  37.859  14.829
53056W        W19465   5.907  40.882  14.417
53057W        W19466  14.751  26.611  13.598
53058W        W19467  35.153   1.455   3.215
53059W        W19468  31.501  40.904  14.776
53060W        W19469  10.421  40.293  12.745
53061W        W19470  14.978  11.864  13.512
53062W        W19471   0.787   3.537  11.454
53063W        W19472  31.010  37.795   0.365
53064W        W19473  29.665  36.779  14.842
53065W        W19474  37.221  37.204   2.209
53066W        W19475  14.845  41.703   4.295
53067W        W19476   6.391  27.887   4.189
53068W        W19477  25.477   2.001   1.757
53069W        W19478  41.084  35.872  13.437
53070W        W19479   8.785   1.980  10.211
53071W        W19480  44.780  20.683   3.140
53072W        W19481   0.487  31.621   3.816
53073W        W19482   2.967  43.858  10.751
53074W        W19483  37.521  39.520   2.154
53075W        W19484  42.480  26.263  13.116
53076W        W19485  26.492  40.454   4.134
53077W        W19486  14.858  35.149  12.539
53078W        W19487  37.096  36.082   0.621
53079W        W19488  20.802  34.470  14.221
53080W        W19489  14.577  10.636   4.667
53081W        W19490   2.196  27.236  12.120
53082W        W19491  16.342  28.966  12.196
53083W        W19492  23.182   0.293   3.391
53084W        W19493  32.025  24.931   2.088
53085W        W19494  10.175  34.297   0.730
53086W        W19495   2.517  44.893  13.681
53087W        W19496  28.723  37.584   4.492
53088W        W19497  13.158  10.340  14.988
53089W        W19498   6.639  38.351   2.384
53090W        W19499  15.892  29.022  11.610
53091W        W19500  20.271  29.004  11.229
53092W        W19501  28.190  32.099  12.552
53093W        W19502  33.809  39.386   2.355
53094W        W19503  43.910   8.362  11.022
53095W        W19504  23.672   5.801  12.903
53096W        W19505   8.335  12.145  13.497
53097W        W19506  16.508  29.105  12.664
53098W        W19507  40.340  39.435  10.564
53099W        W19508  10.623  22.961  10.967
53100W        W19509  11.591  43.468  13.113
53101W        W19510   5.609  26.787   4.664
53102W        W19511   3.801  33.653  10.408
53103W        W19512  26.058   5.412   2.664
53104W        W19513  43.425  31.431  11.107
53105W        W19514  10.741   0.611   0.135
53106W        W19515  23.020  24.775   2.286
53107W        W19516  42.179  22.942  11.486
53108W        W19517  34.730  31.124  11.600
53109W        W19518  22.287   0.729   0.258
53110W        W19519  15.638  39.471   4.597
53111W        W19520   3.990  19.725  14.392
53112W        W19521  44.465   5.365  12.977
53113W        W19522  25.931  23.274  13.021
53114W        W19523  17.403  30.447   0.944
53115W        W19524   0.533   3.031   1.317
53116W        W19525   9.457   9.384   4.117
53117W        W19526  34.771  36.452   1.841
53118W        W19527   4.842  31.474   3.225
53119W        W19528  31.719   9.623  10.846
53120W        W19529  28.544  43.339  14.316
53121W        W19530  37.959   4.838  11.565
53122W        W19531  40.032  16.418   2.256
53123W        W19532   9.169   3.227  14.287
53124W        W19533  37.005  41.292   4.855
53125W        W19534  16.317  19.862  12.894
53126W        W19535   5.091  14.097   4.150
53127W        W19536   1.255  22.681   3.691
53128W        W19537  23.184  32.637  12.874
53129W        W19538   2.078   5.749  10.613
53130W        W19539  19.992   7.294  11.647
53131W        W19540  41.230   7.182   2.278
53132W        W19541  18.268  10.305  10.829
53133W        W19542  39.967  41.953   2.137
53134W        W19543  31.563   6.197  14.055
53135W        W19544   6.509   1.701   2.224
53136W        W19545   9.692   3.320  10.767
53137W        W19546  40.825  30.158   1.431
53138W        W19547  42.403   6.693   2.672
53139W        W19548  18.849   0.851  14.337
53140W        W19549   8.748  32.573   3.317
53141W        W19550  16.345  44.406   3.971
53142W        W19551   6.344  18.164  13.441
53143W        W19552  29.858  25.160   3.417
53144W        W19553  12.935  11.899   0.788
53145W        W19554  13.563  31.727   3.827
53146W        W19555  44.103  32.107  11.277
53147W        W19556   0.568  10.092  10.217
53148W        W19557  43.889   6.009  14.797
53149W        W19558  11.713  20.024   3.309
53150W        W19559  14.713   1.737   9.710
53151W        W19560  42.506  36.154   2.410
53152W        W19561  11.321  18.313  10.434
53153W        W19562  27.882   9.630  12.524
53154W        W19563   2.307  14.391   1.355
53155W        W19564  22.047   3.646  12.608
53156W        W19565  18.756  38.054   4.051
53157W        W19566   5.312   6.180  13.524
53158W        W19567  36.496  33.098  11.195
53159W        W19568   2.517  18.925   0.023
53160W        W19569  15.322  32.484   0.372
53161W        W19570   1.326  33.411  11.027
53162W        W19571   1.695  30.464  12.344
53163W        W19572   9.945  16.663   5.027
53164W        W19573  17.233  24.209   3.136
53165W        W19574  20.872  23.097  11.204
53166W        W19575   1.419  37.515   1.381
53167W        W19576  41.912   6.198  11.240
53168W        W19577  26.112  16.759  14.154
53169W        W19578  43.272  17.198   0.406
53170W        W19579  19.538  27.691   0.498
53171W        W19580  41.121   1.668   3.149
53172W        W19581  32.512  28.462   3.822
53173W        W19582  26.659  20.451   1.474
53174W        W19583   8.863   7.615   1.972
53175W        W19584  40.373   3.274   0.397
53176W        W19585  26.212  27.009  12.078
53177W        W19586  19.503   4.863   3.237
53178W        W19587   5.179  23.045   1.050
53179W        W19588  19.943  37.505  11.557
53180W        W19589  33.255   7.067   1.558
53181W        W19590  43.980   1.708  14.302
53182W        W19591   4.276  35.485  14.972
53183W        W19592  11.245   1.741   0.086
53184W        W19593  18.606  25.727  12.917
53185W        W19594  29.172   4.029   2.325
53186W        W19595  32.380  22.575  13.898
53187W        W19596  16.684  24.140   0.220
53188W        W19597  43.036  11.197  12.214
53189W        W19598  26.565  31.104   2.955
53190W        W19599  37.679  13.302  11.223
53191W        W19600  29.046  15.537   0.744
53192W        W19601   9.642  14.309  11.537
53193W        W19602  10.296  37.779   1.056
53194W        W19603  16.980  12.114  13.381
53195W        W19604  23.382  13.739   3.727
53196W        W19605  13.357   0.701   1.283
53197W        W19606  16.763  11.673   1.385
53198W        W19607  18.642   9.864   1.255
53199W        W19608  23.131  17.095   3.104
53200W        W19609  39.065  10.187   3.411
53201W        W19610  39.510   8.219  12.637
53202W        W19611  21.270  12.249  11.979
53203W        W19612  40.362  25.961  11.540
53204W        W19613  20.932   3.360   4.128
53205W        W19614  26.701  10.773   0.138
53206W        W19615   7.193   6.772  12.130
53207W        W19616  28.537  27.195   1.292
53208W        W19617  17.042  25.909  14.351
53209W        W19618  30.146  21.183  11.724
53210W        W19619  35.793  11.294  14.719
53211W        W19620  31.768   6.786  11.812
53212W        W19621  24.694   9.762   2.630
53213W        W19622  40.678  14.236  12.616
53214W        W19623  31.476  25.585   0.225
53215W        W19624   2.501  22.689  11.951
53216W        W19625  42.477  20.639   3.353
53217W        W19626  35.430  12.332  13.000
53218W        W19627   8.112  28.531   3.611
53219W        W19628  12.565  14.214   1.383
53220W        W19629  21.796   2.038  13.359
53221W        W19630   3.270  34.000   1.747
53222W        W19631  25.480  43.731   0.751
53223W        W19632  21.537  17.032   0.860
53224W        W19633  31.974  37.458  12.378
53225W        W19634   6.117  34.347   3.290
53226W        W19635  21.026  17.280   4.250
53227W        W19636  35.878  19.256  10.231
53228W        W19637  19.982   0.115  14.475
53229W        W19638   3.413   7.755  10.608
53230W        W19639  40.645  18.308   9.949
53231W        W19640  39.025   5.744   1.941
53232W        W19641  37.750  26.717   1.839
53233W        W19642  32.451   6.282  14.912
53234W        W19643  20.210  20.349  14.660
53235W        W19644  21.180  11.524  11.413
53236W        W19645   8.617  37.961  11.017
53237W        W19646  15.858  29.575   0.366
53238W        W19647   4.406   2.421  12.794
53239W        W19648   9.822  13.347  11.498
53240W        W19649  28.492  44.317   0.324
53241W        W19650  29.109   1.094  14.952
53242W        W19651  28.442  42.390   0.284
53243W        W19652  19.712  37.333   0.874
53244W        W19653   1.885   1.015  12.473
53245W        W19654  15.665  25.993   2.964
53246W        W19655  18.597  33.608  13.501
53247W        W19656  24.752   1.515   1.521
53248W        W19657   6.775  41.587  14.364
53249W        W19658   8.035  19.721   4.824
53250W        W19659  29.677  11.347   0.258
53251W        W19660  39.012   3.536   3.767
53252W        W19661   0.764  24.089  11.564
53253W        W19662   8.930   6.876  11.560
53254W        W19663  39.537  32.429   4.502
53255W        W19664  39.358  11.802  11.987
53256W        W19665  22.068  15.924  12.638
53257W        W19666   1.392  19.220   2.622
53258W        W19667  33.840   2.838  11.393
53259W        W19668   9.709  29.860   4.572
53260W        W19669  35.094   7.423  13.774
53261W        W19670   2.822  34.044  14.955
53262W        W19671  22.070  11.827   1.024
53263W        W19672  35.462  22.560   0.924
53264W        W19673   8.861  19.015   3.676
53265W        W19674  33.924  25.662  10.622
53266W        W19675  39.404  15.231  13.870
53267W        W19676  36.403  13.661   0.294
53268W        W19677  19.102   4.136  12.257
53269W        W19678  23.123   3.383  12.010
53270W        W19679   6.266  31.571  12.475
53271W        W19680  41.846  41.356   4.433
53272W        W19681   0.239  12.642  10.701
53273W        W19682   4.380   7.698   2.639
53274W        W19683  17.026  30.492   4.614
53275W        W19684  30.583  28.531   0.287
53276W        W19685  21.521   5.246   3.221
53277W        W19686   3.308  44.015  12.532
53278W        W19687  14.645  18.101  12.965
53279W        W19688  12.135  34.456   3.567
53280W        W19689  25.588  43.841  14.524
53281W        W19690  25.256  41.270   2.759
53282W        W19691  39.879  28.849   3.625
53283W        W19692  29.211  41.402   4.472
53284W        W19693  34.999   9.441  14.099
53285W        W19694  11.673  21.169   4.178
53286W        W19695  24.329  12.306  12.475
53287W        W19696  13.258  31.505   3.260
53288W        W19697  28.873  11.543  10.929
53289W        W19698  37.254  22.675   3.310
53290W        W19699  27.951  26.179   0.383
53291W        W19700  22.171  26.104  13.140
53292W        W19701  31.494  23.202  14.624
53293W        W19702  30.566  32.053  14.362
53294W        W19703  14.446  38.793  10.402
53295W        W19704  19.702  43.850  13.941
53296W        W19705  42.669  35.866  11.249
53297W        W19706  17.625  35.290  11.304
53298W        W19707  24.129  22.570  13.440
53299W        W19708  15.324  20.314  10.217
53300W        W19709  40.522  33.435   2.288
53301W        W19710  18.985   0.016   3.275
53302W        W19711  42.932  23.734  10.655
53303W        W19712  27.652  44.856  12.410
53304W        W19713  40.942  14.333   3.566
53305W        W19714   3.746   4.731   1.206
53306W        W19715   5.673   8.964  11.120
53307W        W19716  17.737  14.137   4.806
53308W        W19717  38.896  10.594  14.697
53309W        W19718  18.365  37.510  11.008
53310W        W19719  42.785  42.579  14.803
53311W        W19720   5.434  39.571  14.705
53312W        W19721  16.396  14.772   1.391
53313W        W19722  32.966  33.573  13.849
53314W        W19723  26.150  22.360   0.281
53315W        W19724  41.382  30.582   4.108
53316W        W19725   1.496  19.319  13.905
53317W        W19726  36.590  32.000  10.772
53318W        W19727  23.239  31.593   0.422
53319W        W19728  34.121  15.730  14.411
53320W        W19729  30.816  26.478   5.011
53321W        W19730  37.571  35.387   4.498
53322W        W19731  22.748  14.217   3.420
53323W        W19732  16.774  20.695   4.561
53324W        W19733  36.447  20.480  14.283
53325W        W19734  34.190  28.003   1.561
53326W        W19735  38.488  20.231  13.495
53327W        W19736  39.560   9.661   4.736
53328W        W19737  11.659  33.794   1.672
53329W        W19738  32.587  18.269   3.777
53330W        W19739  29.745  14.484   4.687
53331W        W19740   7.794  19.616   2.091
53332W        W19741   2.656  42.004   2.340
53333W        W19742  39.259  25.119   4.538
53334W        W19743   8.889  27.185   2.307
53335W        W19744  16.543  13.515   4.311
53336W        W19745  12.437  36.467  14.886
53337W        W19746  31.094  31.824  14.079
53338W        W19747   3.751   4.411  10.470
53339W        W19748  19.932  16.025   3.242
53340W        W19749  37.577  30.521  12.512
53341W        W19750   1.492   9.204  12.869
53342W        W19751  21.741  24.994   4.639
53343W        W19752   2.613  35.509   2.201
53344W        W19753  18.532  32.993   2.565
53345W        W19754  44.923  11.627  12.183
53346W        W19755  41.981  11.632   0.500
53347W        W19756   3.346  25.227   0.356
53348W        W19757  37.001   4.900   0.427
53349W        W19758  31.447   7.894   3.065
53350W        W19759  34.883  31.613   1.336
53351W        W19760  17.240  42.283   1.785
53352W        W19761  42.188  19.771   5.280
53353W        W19762  43.747  40.091   4.913
53354W        W19763   9.094  21.783   3.072
53355W        W19764  14.185   5.334   3.723
53356W        W19765  30.921  13.687   2.132
53357W        W19766  14.612  32.175   3.261
53358W        W19767   9.760  18.094  13.779
53359W        W19768   6.699   7.506   4.239
53360W        W19769  42.431   0.433  10.904
53361W        W19770   6.764   6.466  13.441
53362W        W19771  33.009  37.095  12.432
53363W        W19772  28.075  14.338  13.591
53364W        W19773  32.544   3.587   0.537
53365W        W19774   0.989  13.701  11.896
53366W        W19775   5.797  37.537  11.012
53367W        W19776  27.465  38.037   3.769
53368W        W19777  31.714  13.210   1.170
53369W        W19778  29.214  21.055   0.242
53370W        W19779  27.023  37.966   4.431
53371W        W19780  16.225  18.370  13.957
53372W        W19781  11.640  35.918  11.264
53373W        W19782  30.799  34.289  11.119
53374W        W19783   5.938  20.080   4.141
53375W        W19784   9.173  34.328   3.181
53376W        W19785  11.931  26.451  12.586
53377W        W19786  26.687  36.984  11.177
53378W        W19787  43.415  28.566   2.397
53379W        W19788  24.522  28.940   0.405
53380W        W19789   6.209   6.807  12.763
53381W        W19790  39.000   7.157   0.258
53382W        W19791   7.896   3.659  10.649
53383W        W19792   1.053  29.955   4.281
53384W        W19793   0.320  26.493   2.796
53385W        W19794  13.647  11.351  14.286
53386W        W19795  16.806  14.133   1.979
53387W        W19796  13.129   2.110   3.264
53388W        W19797  41.853  12.684   2.836
53389W        W19798  25.211  30.396  13.373
53390W        W19799  25.621  17.354   1.711
53391W        W19800  12.380  30.442   5.168
53392W        W19801  28.754  23.805  13.011
53393W        W19802  28.134   5.862  12.677
53394W        W19803   9.672   7.842   0.285
53395W        W19804  33.186  20.125   1.302
53396W        W19805  28.192  18.382  13.113
53397W        W19806  17.043  27.701   0.382
53398W        W19807  25.546  25.003  12.869
53399W        W19808  43.463  40.279  12.876
53400W        W19809  18.708  17.276   1.200
53401W        W19810  28.262  18.655   4.923
53402W        W19811  41.817  44.054  11.469
53403W        W19812   6.816  40.785   3.763
53404W        W19813  19.711  27.501  14.339
53405W        W19814  15.606  21.548  10.320
53406W        W19815   1.318  19.947   4.613
53407W        W19816  25.391  41.022  11.608
53408W        W19817  34.667   7.262   2.651
53409W        W19818  26.143  13.820  12.443
53410W        W19819   9.602   1.154  10.954
53411W        W19820  28.403  44.091   4.162
53412W        W19821  37.816  10.095   5.095
53413W        W19822  40.034  43.528   4.286
53414W        W19823  29.094  40.419   2.682
53415W        W19824  16.086  33.950   4.748
53416W        W19825  36.351  43.688  12.887
53417W        W19826  20.757  34.403  11.547
53418W        W19827  37.442   5.904   3.617
53419W        W19828  14.221  18.856  13.332
53420W        W19829   5.487   6.246  13.997
53421W        W19830  12.813  14.716  13.924
53422W        W19831  30.479  21.778   0.813
53423W        W19832  13.301  10.149  10.232
53424W        W19833  26.238  30.035  12.810
53425W        W19834  10.395  16.840   2.307
53426W        W19835   4.708  14.273   1.955
53427W        W19836  29.218  18.098  11.488
53428W        W19837  37.304  26.709  12.053
53429W        W19838   1.838   7.846  11.518
53430W        W19839  37.533   9.366  11.666
53431W        W19840  36.202  43.027   3.744
53432W        W19841  17.828  38.812   4.588
53433W        W19842   3.440   8.846   2.166
53434W        W19843   9.297   4.371  12.531
53435W        W19844   2.646  35.440  11.443
53436W        W19845   1.431  14.136   3.137
53437W        W19846  26.350  37.527   4.577
53438W        W19847  27.419  13.704  12.064
53439W        W19848  32.486   0.872  13.873
53440W        W19849  37.965  20.296  14.795
53441W        W19850   6.761  27.370   1.196
53442W        W19851  37.750  28.105   4.755
53443W        W19852  12.591  19.535   2.739
53444W        W19853  39.573   1.365  13.980
53445W        W19854  28.086   8.894  14.228
53446W        W19855  44.393  20.297  10.998
53447W        W19856   3.232  39.625   2.595
53448W        W19857  38.027  41.004   4.299
53449W        W19858   0.600  42.782   1.912
53450W        W19859  18.264  28.666   1.314
53451W        W19860  15.278  10.784   0.493
53452W        W19861  13.269  31.069   2.202
53453W        W19862  17.307   8.748   3.729
53454W        W19863   3.492  37.086  14.265
53455W        W19864   2.320  38.568   2.776
53456W        W19865  25.988  34.866  10.666
53457W        W19866  43.258  29.936  12.485
53458W        W19867  33.056  19.478  11.190
53459W        W19868  14.759  23.664   4.220
53460W        W19869  35.469  22.811   1.371
53461W        W19870  33.556  24.599  14.496
53462W        W19871  40.337   9.125  11.226
53463W        W19872  44.829  29.113   1.216
53464W        W19873  41.912  35.539  13.309
53465W        W19874  33.898  35.971  13.790
53466W        W19875  43.974  29.364  12.983
53467W        W19876  28.990  42.963  12.099
53468W        W19877   8.832  23.190  10.717
53469W        W19878   7.687  41.371   1.924
53470W        W19879  39.777   9.435   3.066
53471W        W19880  36.894   2.239  13.331
53472W        W19881  35.460  28.866   3.787
53473W        W19882  11.777   4.519  13.546
53474W        W19883  32.424  32.781  11.548
53475W        W19884  36.027  30.013  11.299
53476W        W19885  40.988  29.590   3.466
53477W        W19886   6.677   8.909  11.169
53478W        W19887  44.722   8.696  11.104
53479W        W19888  15.997  30.216   0.757
53480W        W19889  34.457   5.715  12.811
53481W        W19890  14.231  27.489   4.303
53482W        W19891  22.007   4.360  12.899
53483W        W19892  30.626  35.678   1.922
53484W        W19893  15.176  12.672   0.820
53485W        W19894  23.524  28.128   1.401
53486W        W19895   1.877  23.785  11.620
53487W        W19896   2.711  32.161   1.869
53488W        W19897  33.621  11.069   1.494
53489W        W19898  38.360   2.552   2.267
53490W        W19899   8.263  43.438  11.484
53491W        W19900  23.073  11.602   3.074
53492W        W19901  35.627  36.465   5.095
53493W        W19902   6.958   1.998  13.391
53494W        W19903  24.725  22.253   1.585
53495W        W19904  15.269  28.884   3.696
53496W        W19905   5.191  43.992   2.758
53497W        W19906  32.500  33.975   1.322
53498W        W19907   2.638   9.854  14.948
53499W        W19908  33.459   7.874  14.868
53500W        W19909  42.468  27.512   3.459
53501W        W19910  43.801  28.285  11.454
53502W        W19911  15.218  24.603   4.845
53503W        W19912  16.719  14.282   1.484
53504W        W19913  27.446  18.708   3.610
53505W        W19914  25.085  33.509   2.609
53506W        W19915  44.523  22.922  13.530
53507W        W19916   1.665   8.893  13.919
53508W        W19917   8.834  36.345  13.050
53509W        W19918  29.370   4.328   2.804
53510W        W19919  42.584   3.717   4.582
53511W        W19920  22.601  29.689  13.560
53512W        W19921  37.129  23.073   1.833
53513W        W19922  12.911  10.099  13.455
53514W        W19923  37.362   8.482   1.956
53515W        W19924  32.389   1.757   4.998
53516W        W19925  19.098  27.602   0.222
53517W        W19926  30.582  41.063   2.168
53518W        W19927  30.188  26.461   4.627
53519W        W19928  37.000  41.860  14.558
53520W        W19929  17.005   2.918  11.634
53521W        W19930  40.653  44.054   1.307
53522W        W19931   6.836  15.057  14.956
53523W        W19932  40.278  23.984  14.277
53524W        W19933  11.090  17.899  12.671
53525W        W19934  39.423   1.629   0.326
53526W        W19935   2.654  39.617   4.663
53527W        W19936  27.913   7.626  10.600
53528W        W19937  16.857   9.495   1.425
53529W        W19938  41.486  37.288   2.376
53530W        W19939   2.090  19.762  11.596
53531W        W19940  40.299  14.805   3.143
53532W        W19941  29.391   5.942   3.802
53533W        W19942  20.904   9.939  11.528
53534W        W19943  42.440  43.883   4.587
53535W        W19944  27.157  12.554  11.432
53536W        W19945  28.515   3.857  13.580
53537W        W19946   0.716  27.667  14.884
53538W        W19947  15.356   8.873  10.643
53539W        W19948  27.345  15.565  13.979
53540W        W19949  37.677  28.294  12.605
53541W        W19950  15.222  15.095   0.062
53542W        W19951  30.379   4.573   4.592
53543W        W19952  27.723   2.426   0.773
53544W        W19953   9.679  37.418  11.355
53545W        W19954  37.974  24.957  10.773
53546W        W19955  31.242  28.088   3.649
53547W        W19956  39.327  23.264   0.496
53548W        W19957  26.964   1.250  13.948
53549W        W19958  19.425  31.767   3.792
53550W        W19959  33.635   1.922  13.947
53551W        W19960  10.952  26.227  12.672
53552W        W19961  37.561  42.187  10.725
53553W        W19962  10.141  37.910   3.253
53554W        W19963  29.625  44.819   2.240
53555W        W19964   1.843  14.604   4.081
53556W        W19965  37.781  14.409   0.313
53557W        W19966  20.207  41.298   4.942
53558W        W19967  36.592  31.407   1.256
53559W        W19968  18.494  17.939  12.537
53560W        W19969  26.007  15.264  13.293
53561W        W19970  19.029  35.384   4.772
53562W        W19971  44.918  30.593  14.552
53563W        W19972  14.722  29.705  14.527
53564W        W19973  36.918   5.887  11.859
53565W        W19974  44.309  22.695   4.146
53566W        W19975  25.122   9.865   0.865
53567W        W19976  37.969  19.062  13.694
53568W        W19977  28.418  24.138  12.039
53569W        W19978  25.927  20.065   3.756
53570W        W19979   7.678  15.296  11.706
53571W        W19980  31.451  20.511   1.764
53572W        W19981  41.983  40.013  14.954
53573W        W19982  27.899  36.419   3.889
53574W        W19983  36.595  36.852   2.924
53575W        W19984   9.268  38.359  11.839
53576W        W19985   3.681  15.453  10.680
53577W        W19986  26.535  11.845  11.042
53578W        W19987  24.714  25.141  13.314
53579W        W19988  42.272  27.700   4.675
53580W        W19989  35.359   5.012   0.382
53581W        W19990  41.816  33.537  14.779
53582W        W19991  32.504  35.589   0.480
53583W        W19992  17.138  16.956   2.446
53584W        W19993  15.082  21.768   1.820
53585W        W19994  17.345   8.209  14.578
53586W        W19995   1.266  26.152  14.397
53587W        W19996  37.200  43.858   3.724
53588W        W19997  44.284  32.191   2.862
53589W        W19998  20.774   5.232  13.013
53590W        W19999  24.023   8.111  12.473
53591W        W20000  10.320   4.225   2.339
53592W        W20001  25.422   4.230  12.632
53593W        W20002  22.075   8.755  14.897
53594W        W20003  37.200  38.104  11.773
53595W        W20004   8.705  41.422  14.253
53596W        W20005  12.650  29.545  14.127
53597W        W20006  18.532   7.681   4.147
53598W        W20007  11.276  28.555   4.416
53599W        W20008  41.290   4.845   1.312
53600W        W20009  33.385  30.050  10.424
53601W        W20010  10.421  33.349  11.566
53602W        W20011  29.498  39.574  13.642
53603W        W20012  13.762  24.569  13.779
53604W        W20013  39.950  10.173  12.194
53605W        W20014  32.082  42.827  11.201
53606W        W20015   9.613  42.378   0.297
53607W        W20016   2.807  28.990  13.975
53608W        W20017   4.260  37.391  12.427
53609W        W20018  13.924   8.661   1.209
53610W        W20019  13.511  42.045  13.416
53611W        W20020  16.402  13.220   4.713
53612W        W20021  37.058  27.954  11.955
53613W        W20022  39.320  40.200  14.105
53614W        W20023  32.370  13.575  12.841
53615W        W20024  29.699   9.879  11.460
53616W        W20025  41.391  39.096   2.887
53617W        W20026  22.498  35.369  12.498
53618W        W20027  27.024  26.551   3.026
53619W        W20028  32.603   0.815   1.799
53620W        W20029  33.668  25.491  11.469
53621W        W20030   1.450  35.530  12.993
53622W        W20031  12.867   4.231  11.612
53623W        W20032   5.719  10.145   0.220
53624W        W20033  31.785  17.482   4.500
53625W        W20034  15.664  44.384   3.456
53626W        W20035  14.636   0.551   5.391
53627W        W20036   8.775   3.333  13.962
53628W        W20037  42.828  18.839  14.028
53629W        W20038  42.911   7.208   0.083
53630W        W20039  34.643  10.770   4.147
53631W        W20040   9.249  39.739  10.218
53632W        W20041  18.490  20.690  12.830
53633W        W20042  29.307  33.441  11.635
53634W        W20043  33.555   1.493  13.030
53635W        W20044  31.476  22.152  13.900
53636W        W20045  32.259   2.470   0.587
53637W        W20046  23.706  30.641   2.962
53638W        W20047   0.869  11.447  10.470
53639W        W20048  15.242   4.672   0.078
53640W        W20049   2.413   9.574  12.047
53641W        W20050  39.070  24.716  12.063
53642W        W20051  37.606  37.567  14.785
53643W        W20052   3.430  31.108   2.250
53644W        W20053  31.181  26.748  13.384
53645W        W20054  22.033  16.756   1.941
53646W        W20055  28.521  13.169   2.819
53647W        W20056  44.368  38.111  11.627
53648W        W20057  34.951  15.608   1.257
53649W        W20058  26.633  44.054  12.472
53650W        W20059  24.130  11.020   2.379
53651W        W20060  38.884  33.060  14.569
53652W        W20061  30.557  13.655   0.897
53653W        W20062  30.492  26.505  12.420
53654W        W20063  20.128  17.074   1.823
53655W        W20064   1.391  27.522  11.734
53656W        W20065   4.824  43.329   1.887
53657W        W20066  12.728  41.884  13.892
53658W        W20067  18.278  26.576   3.174
53659W        W20068   4.226  26.226   1.793
53660W        W20069   6.336  17.796  11.221
53661W        W20070  18.294  34.504  13.911
53662W        W20071   2.157   1.275   2.875
53663W        W20072  39.532  31.012   0.401
53664W        W20073  32.494   8.240  10.979
53665W        W20074  36.942  24.809   0.385
53666W        W20075  37.574  36.438   0.904
53667W        W20076  10.733  44.960  14.499
53668W        W20077   5.169   5.659   4.047
53669W        W20078  17.714  24.211  10.645
53670W        W20079  25.732  30.103  11.081
53671W        W20080  29.486   0.723  15.000
53672W        W20081  39.944  23.377   1.779
53673W        W20082  34.572   6.906   3.074
53674W        W20083  19.786  11.875  13.455
53675W        W20084  25.114   0.270   1.339
53676W        W20085  13.236  12.307  14.479
53677W        W20086   1.783  32.082   0.934
53678W        W20087  13.276  33.567   1.463
53679W        W20088  31.310   0.216  14.783
53680W        W20089   9.648  17.163  10.674
53681W        W20090  16.156  20.919  12.828
53682W        W20091  20.111  39.775   2.268
53683W        W20092  42.145  11.148  12.023
53684W        W20093  41.042  20.042  12.560
53685W        W20094  35.388  43.571  11.929
53686W        W20095  25.304  11.492  13.537
53687W        W20096  37.549  10.203  11.364
53688W        W20097   0.932   8.316   0.939
53689W        W20098   0.737   1.150  12.900
53690W        W20099   8.271  31.793  12.465
53691W        W20100  24.543  32.388  11.608
53692W        W20101  33.691  41.409  12.950
53693W        W20102   8.225  41.283   4.137
53694W        W20103   7.897  32.038  12.146
53695W        W20104  23.053  25.468  13.338
53696W        W20105  42.392  26.521  14.556
53697W        W20106   5.321   0.803  12.305
53698W        W20107   6.099  20.883   3.691
53699W        W20108  29.538  43.305   0.259
53700W        W20109  34.090  11.861   3.634
53701W        W20110   5.341   2.163   3.393
53702W        W20111  43.340   7.232  14.751
53703W        W20112  10.180  35.625  12.401
53704W        W20113   2.410  29.512  13.004
53705W        W20114  15.484  17.733   0.851
53706W        W20115  30.574   4.330  13.810
53707W        W20116  43.532  30.533  13.077
53708W        W20117  16.664   5.813  12.083
53709W        W20118   7.748  38.480  13.592
53710W        W20119  25.626  42.256  13.481
53711W        W20120  17.524  27.696  13.318
53712W        W20121  11.688  37.762  12.049
53713W        W20122  39.979  34.073  11.639
53714W        W20123  31.410   2.450  12.059
53715W        W20124  20.817   6.964  14.650
53716W        W20125  13.384  20.489  12.459
53717W        W20126  20.967  33.177   3.143
53718W        W20127   7.256  21.538  11.958
53719W        W20128  31.673   9.755   1.871
53720W        W20129  27.984  41.707   3.317
53721W        W20130   9.182  19.488   5.359
53722W        W20131   9.644  15.538   0.941
53723W        W20132  27.467  13.151  13.897
53724W        W20133  40.910  36.382  14.731
53725W        W20134  33.655   6.498   3.929
53726W        W20135  36.433   8.287  13.884
53727W        W20136   3.926   1.823  14.963
53728W        W20137  35.227  30.618   0.713
53729W        W20138   4.484  39.369  13.043
53730W        W20139  20.068  41.050   1.848
53731W        W20140  19.822  24.588  11.112
53732W        W20141   9.628  12.180   1.942
53733W        W20142  18.555  15.529  13.375
53734W        W20143  32.614  14.734   0.409
53735W        W20144  38.286   6.453   3.658
53736W        W20145   2.301  17.498  14.060
53737W        W20146  13.217  41.131   5.023
53738W        W20147  10.217  13.190  10.697
53739W        W20148   7.855   8.657  12.557
53740W        W20149  19.163  32.175  11.644
53741W        W20150   3.452  16.008   1.228
53742W        W20151  29.044  43.277  12.926
53743W        W20152  44.941  34.750  11.598
53744W        W20153  42.379   3.946  13.617
53745W        W20154  30.589  21.709   2.634
53746W        W20155  18.295   8.416   3.324
53747W        W20156  10.786  29.492   4.383
53748W        W20157  15.703  40.047   5.130
53749W        W20158  13.925  14.800  13.450
53750W        W20159   0.393  20.675   1.322
53751W        W20160   3.869  18.334   3.614
53752W        W20161   5.180   0.928  11.519
53753W        W20162  11.757   7.699   0.445
53754W        W20163  17.146   4.272  14.702
53755W        W20164  25.637  43.037   1.310
53756W        W20165   2.433  34.336  12.968
53757W        W20166  10.270  18.293   3.074
53758W        W20167  24.784  29.525   2.489
53759W        W20168  11.183  42.258   3.363
53760W        W20169  39.353  33.008   2.382
53761W        W20170  28.584  34.673  14.015
53762W        W20171  38.513  31.119   2.602
53763W        W20172  22.011  30.076   0.061
53764W        W20173  16.411  20.644   1.248
53765W        W20174  41.142  15.779   2.125
53766W        W20175  32.609  25.986  12.652
53767W        W20176  43.813  28.439  14.864
53768W        W20177  40.326  31.167  14.412
53769W        W20178  44.649  16.769  13.948
53770W        W20179   1.749  32.019  11.944
53771W        W20180  14.218  40.775  11.087
53772W        W20181  11.444  41.935  11.167
53773W        W20182  17.689  35.431   3.691
53774W        W20183  10.297  37.806  11.926
53775W        W20184  44.712  23.670  10.909
53776W        W20185  39.961  38.627  12.053
53777W        W20186  44.924  25.650   4.584
53778W        W20187  15.754   3.795   0.992
53779W        W20188   0.002  14.707  11.554
53780W        W20189  14.348  25.314   3.628
53781W        W20190  28.601  17.858  12.433
53782W        W20191  29.013  28.622  14.433
53783W        W20192  41.198  24.458   0.052
53784W        W20193  28.719  35.174   2.330
53785W        W20194  12.318  36.025  12.113
53786W        W20195  27.950  34.945  12.931
53787W        W20196  17.966  21.205   2.457
53788W        W20197   4.564  11.757  13.634
53789W        W20198  33.740  25.963   3.865
53790W        W20199  34.643  13.640  10.619
53791W        W20200  44.542  26.585  10.657
53792W        W20201  43.695  31.629   4.671
53793W        W20202   6.190  11.851  11.196
53794W        W20203  38.794  21.447  11.646
53795W        W20204  27.214   4.960  13.946
53796W        W20205   6.147  26.051   1.634
53797W        W20206  29.515  37.019  10.971
53798W        W20207  35.146  10.672   4.198
53799W        W20208  26.111   6.911  11.867
53800W        W20209  42.358  42.093  11.065
53801W        W20210  11.737  27.421  12.395
53802W        W20211  17.135  17.853   1.385
53803W        W20212  44.452  22.477  14.847
53804W        W20213  41.328   2.429   2.814
53805W        W20214  22.213   6.164   3.532
53806W        W20215  23.718  30.992   2.123
53807W        W20216  38.477  21.275  14.284
53808W        W20217   5.949   4.891   4.284
53809W        W20218  11.239  36.224  11.430
53810W        W20219  34.310  32.918  10.439
53811W        W20220  28.233  41.497  14.850
53812W        W20221  18.169  44.354   3.173
53813W        W20222  22.527  41.373   3.306
53814W        W20223  12.721  26.261   1.745
53815W        W20224  35.500  39.898   4.724
53816W        W20225  20.855   4.398   2.387
53817W        W20226  28.933  26.959   0.264
53818W        W20227  42.557  40.148   4.273
53819W        W20228   2.398   6.956  11.076
53820W        W20229  24.904  34.620  13.601
53821W        W20230   2.799   7.797  14.881
53822W        W20231  26.995  13.783   4.078
53823W        W20232  18.242   2.373   3.097
53824W        W20233  11.176  16.731   0.751
53825W        W20234   0.722  19.759  11.620
53826W        W20235  10.301  22.385   0.855
53827W        W20236  31.888   9.518  14.249
53828W        W20237  15.909  30.484  12.151
53829W        W20238  27.699   0.492   3.321
53830W        W20239  26.635  42.564  14.028
53831W        W20240  19.784   2.711   0.424
53832W        W20241  23.625  36.414  13.994
53833W        W20242  20.020  16.287   4.176
53834W        W20243   5.372  10.333  12.012
53835W        W20244  21.313  43.938  10.421
53836W        W20245  23.123  16.213  13.589
53837W        W20246   2.529  42.464  12.339
53838W        W20247  24.239  35.142  11.544
53839W        W20248  15.706   0.780  14.183
53840W        W20249  30.045  34.493   0.737
53841W        W20250  26.994  28.881  12.535
53842W        W20251  17.169  34.522  12.642
53843W        W20252  39.397  19.828  12.180
53844W        W20253  36.153  18.573  12.135
53845W        W20254  15.547   3.640   4.537
53846W        W20255  12.483  21.487  11.978
53847W        W20256  19.901  10.729   1.449
53848W        W20257   5.817  24.287   2.602
53849W        W20258  36.800  21.158  12.604
53850W        W20259  20.490  36.802  13.456
53851W        W20260  22.085   5.146  10.874
53852W        W20261  30.053  20.715   1.343
53853W        W20262  13.906  33.320   1.222
53854W        W20263  41.417  44.935   0.796
53855W        W20264  39.856  28.135  14.842
53856W        W20265  20.256  18.676  11.535
53857W        W20266  31.282  39.484  14.055
53858W        W20267   4.069   3.652  11.612
53859W        W20268   4.821  28.461   3.130
53860W        W20269  16.590   5.447   4.242
53861W        W20270  13.546   4.005  10.946
53862W        W20271  30.743   5.201  10.526
53863W        W20272  34.064  28.033  11.895
53864W        W20273  15.048   7.716  11.172
53865W        W20274   7.203  34.918   4.511
53866W        W20275  12.445   4.255  11.930
53867W        W20276  23.314   7.782   2.569
53868W        W20277  12.414  36.411  11.451
53869W        W20278  24.992  18.456  14.753
53870W        W20279  33.426  14.335   0.124
53871W        W20280   0.706  22.156  11.872
53872W        W20281  43.646  43.423   1.334
53873W        W20282  41.780  25.123  11.796
53874W        W20283   0.248  22.743   3.700
53875W        W20284  39.253  10.080  11.543
53876W        W20285  42.489   3.884  11.648
53877W        W20286   6.973  42.484   0.760
53878W        W20287  22.728  32.491   4.391
53879W        W20288  23.691  39.021   0.422
53880W        W20289  42.592  26.652   3.118
53881W        W20290  30.063  30.185  11.093
53882W        W20291  20.578  44.461   0.906
53883W        W20292   9.925  34.113   0.309
53884W        W20293  17.548  16.281   1.922
53885W        W20294  40.928   2.011  11.047
53886W        W20295   8.190  32.187  11.583
53887W        W20296  16.580   2.349  14.852
53888W        W20297  36.239  39.449  12.865
53889W        W20298   5.986  33.542  13.505
53890W        W20299   0.860  23.024   3.670
53891W        W20300  16.667   4.049   4.165
53892W        W20301  31.682  27.218   2.873
53893W        W20302  42.890  36.084   4.066
53894W        W20303  33.907  43.840   2.798
53895W        W20304  33.438  43.966   2.590
53896W        W20305  35.272  13.117   1.742
53897W        W20306  44.014   1.683   1.320
53898W        W20307  29.666  12.228   4.313
53899W        W20308  33.280  25.089   2.025
53900W        W20309   3.540  40.870   4.729
53901W        W20310  16.649  36.803   5.448
53902W        W20311   5.019   6.952  11.057
53903W        W20312  35.260  14.766   4.680
53904W        W20313  12.307  12.761   1.330
53905W        W20314  35.943  35.390   3.730
53906W        W20315  20.657  21.598   4.716
53907W        W20316  27.580   6.198  14.486
53908W        W20317   7.171   2.277  13.026
53909W        W20318  41.491   0.033   2.298
53910W        W20319  19.027  11.797  13.887
53911W        W20320  24.276  16.124   2.818
53912W        W20321  19.613  11.351  13.551
53913W        W20322  13.383  31.689   1.014
53914W        W20323   1.279   6.895  10.816
53915W        W20324   0.212  39.926  12.888
53916W        W20325  37.828  36.590  13.924
53917W        W20326  19.172   5.375   3.459
53918W        W20327  33.035  14.135   1.906
53919W        W20328  42.498  40.768  14.979
53920W        W20329  12.931  17.762  14.859
53921W        W20330  35.626   8.981   2.210
53922W        W20331  25.779  13.252  11.191
53923W        W20332  16.047   9.293   3.817
53924W        W20333  10.845  44.280   3.596
53925W        W20334  23.712  38.507   4.565
53926W        W20335  27.915  15.247   2.332
53927W        W20336   0.803  43.266  14.410
53928W        W20337  19.595   0.307  12.938
53929W        W20338   5.045  24.190   3.556
53930W        W20339  26.557  32.618   1.780
53931W        W20340  20.068  39.983  13.797
53932W        W20341  21.410  26.387   0.562
53933W        W20342  29.068  43.560   2.635
53934W        W20343  34.798  30.265  12.518
53935W        W20344  20.996  37.915  14.942
53936W        W20345  41.324  14.364   2.290
53937W        W20346  24.399  24.578  14.494
53938W        W20347   4.508  39.466  12.057
53939W        W20348  41.944   8.323   2.753
53940W        W20349   1.955  27.159   0.430
53941W        W20350  44.990  26.528   2.353
53942W        W20351  19.159  21.054  10.190
53943W        W20352  32.404   9.377  14.256
53944W        W20353  12.163   3.798   2.184
53945W        W20354  34.416  31.445  10.580
53946W        W20355  26.917  44.911   1.004
53947W        W20356  28.751  30.481  11.718
53948W        W20357  43.048  40.733  14.058
53949W        W20358   9.211  44.872  13.908
53950W        W20359  25.281  33.506  12.347
53951W        W20360  42.517  17.270  10.572
53952W        W20361  42.069   1.463  14.377
53953W        W20362   5.763  29.100   1.787
53954W        W20363  39.034   3.926   2.464
53955W        W20364  26.947  14.762   4.410
53956W        W20365   2.005  25.098  11.958
53957W        W20366  28.737  11.733  10.438
53958W        W20367  16.795  33.376   3.130
53959W        W20368   9.345   4.970  11.672
53960W        W20369  27.844   8.316   3.138
53961W        W20370  28.881   8.370   3.903
53962W        W20371  17.104  44.505   2.752
53963W        W20372  15.776  36.080  13.946
53964W        W20373  12.313  27.218   4.099
53965W        W20374  35.788   6.699   2.723
53966W        W20375  14.909  21.311   2.282
53967W        W20376  10.978  26.267  13.946
53968W        W20377  27.091   3.023  11.630
53969W        W20378  14.871  15.004  10.658
53970W        W20379  11.940  37.941  14.865
53971W        W20380  39.452   0.695   2.713
53972W        W20381  17.709  39.444  13.546
53973W        W20382  24.009   3.980   2.170
53974W        W20383  24.998  30.946   3.541
53975W        W20384  33.514  39.337  13.750
53976W        W20385  23.125  44.075  13.445
53977W        W20386   6.738  32.093  13.960
53978W        W20387  38.459  41.799   2.370
53979W        W20388  25.176   8.680   5.377
53980W        W20389   6.497  11.667  14.753
53981W        W20390  43.864   5.384   1.361
53982W        W20391  31.387   8.421  11.923
53983W        W20392  12.170  21.010   4.284
53984W        W20393  24.660  23.356  13.598
53985W        W20394  33.013  37.288  12.926
53986W        W20395  33.526  37.475   0.902
53987W        W20396   3.815   7.321   2.324
53988W        W20397  36.333  39.749  11.892
53989W        W20398  11.139   8.909   4.739
53990W        W20399  14.211   9.399  12.571
53991W        W20400  18.568  15.263   4.914
53992W        W20401  12.643  42.920   0.467
53993W        W20402   2.272   7.798   4.573
53994W        W20403  36.839  10.379  12.970
53995W        W20404  22.549  43.283  13.445
53996W        W20405   9.634  14.875  13.451
53997W        W20406  43.989  40.285  12.965
53998W        W20407  18.696  32.141   0.844
53999W        W20408  21.675  40.853   2.164
54000W        W20409  18.642  11.429  14.686
54001W        W20410  34.714  10.859  14.187
54002W        W20411   1.495  10.463  12.001
54003W        W20412  33.902  12.923   3.582
54004W        W20413  21.175  24.583   0.302
54005W        W20414  24.428  34.590   4.181
54006W        W20415  14.610  11.656  13.066
54007W        W20416   2.215  39.609   4.379
54008W        W20417  14.726   6.266   4.429
54009W        W20418   4.492  38.170   3.640
54010W        W20419  18.277   1.147   3.589
54011W        W20420  36.083   3.907   4.937
54012W        W20421  20.082  31.159   3.710
54013W        W20422  18.753  33.274   2.181
54014W        W20423  28.722   8.878  14.817
54015W        W20424  39.983  26.048  13.908
54016W        W20425  30.338  18.002  11.078
54017W        W20426  30.552  27.525   1.178
54018W        W20427  40.621   8.625   3.848
54019W        W20428   6.401   4.256   0.188
54020W        W20429  10.389  44.384   4.190
54021W        W20430  15.911  12.259   3.639
54022W        W20431  14.162   3.358  14.925
54023W        W20432  26.150  39.474  14.433
54024W        W20433  31.795  39.377  13.946
54025W        W20434  38.529  43.948  11.059
54026W        W20435  10.763  42.658   1.207
54027W        W20436  16.312  17.885  12.085
54028W        W20437  26.842   2.566  12.551
54029W        W20438   3.970  37.965  14.637
54030W        W20439  32.658  36.311   2.979
54031W        W20440  20.504  21.363  14.480
54032W        W20441  35.448  14.338   2.958
54033W        W20442  32.495  34.190   0.393
54034W        W20443   7.322  36.898  12.402
54035W        W20444  28.945  26.746  14.785
54036W        W20445  39.986  12.306   3.310
54037W        W20446  30.089  14.621   2.297
54038W        W20447   7.646  25.129  11.620
54039W        W20448  35.982   2.399  13.476
54040W        W20449  11.374   4.380  11.638
54041W        W20450  12.122  31.183   2.533
54042W        W20451  10.803  14.626   2.587
54043W        W20452  20.145  33.558   2.622
54044W        W20453  26.199   1.527  11.616
54045W        W20454  25.195   8.700  13.503
54046W        W20455  20.958   2.309   0.724
54047W        W20456  29.034   9.163  12.545
54048W        W20457  29.250  19.402   5.260
54049W        W20458   0.959   3.531  10.469
54050W        W20459  33.045  22.507   2.654
54051W        W20460  33.970  19.680   3.039
54052W        W20461  34.385  44.824  13.256
54053W        W20462  11.945  35.263  12.085
54054W        W20463  18.679  23.281  14.104
54055W        W20464  25.450   2.412  13.924
54056W        W20465   9.788  40.051   4.968
54057W        W20466  14.120  37.834  12.416
54058W        W20467   9.916  28.054  12.263
54059W        W20468  42.927  14.201  10.446
54060W        W20469  40.693  27.037   2.214
54061W        W20470  44.933  12.660  12.965
54062W        W20471  22.845  43.209   1.773
54063W        W20472   9.100  11.905  13.028
54064W        W20473   7.597   6.354  13.073
54065W        W20474   4.754  44.798   1.879
54066W        W20475  39.004  40.008  10.525
54067W        W20476  17.717   2.695   3.816
54068W        W20477  21.187  12.145   1.786
54069W        W20478   1.931  31.051  14.001
54070W        W20479  30.898  31.563  13.631
54071W        W20480  29.637  39.869   0.785
54072W        W20481  31.993  25.263   1.662
54073W        W20482  17.108  38.801   2.259
54074W        W20483  29.683   9.805   1.757
54075W        W20484  33.423  30.117  10.991
54076W        W20485  30.911   4.508  11.899
54077W        W20486   4.914  16.754  14.889
54078W        W20487  38.978  23.141  10.470
54079W        W20488  36.105  43.999  11.978
54080W        W20489  29.896  25.530  11.668
54081W        W20490   1.900  36.127  13.940
54082W        W20491  43.585  27.154  11.138
54083W        W20492   9.602   4.437  13.937
54084W        W20493  24.761  40.150   4.075
54085W        W20494  10.239   1.441   0.471
54086W        W20495  29.700  11.769   2.402
54087W        W20496  11.836  32.312  14.020
54088W        W20497  41.851   8.391  10.676
54089W        W20498   5.460  13.065   3.084
54090W        W20499  16.476  27.487   4.808
54091W        W20500  39.538   3.844  10.655
54092W        W20501  39.498  23.145  11.055
54093W        W20502   0.497  43.989   0.392
54094W        W20503  28.355  27.555   2.880
54095W        W20504  20.765  12.816   3.700
54096W        W20505   5.672   2.709  12.325
54097W        W20506  12.256  13.717  14.729
54098W        W20507  27.666  13.763   0.381
54099W        W20508  28.045  14.373   2.764
54100W        W20509  36.366  29.749   1.275
54101W        W20510  21.194   0.801  11.282
54102W        W20511   3.511  41.449  14.880
54103W        W20512   5.360   8.893  10.516
54104W        W20513  21.071  11.103   0.894
54105W        W20514  35.132   8.654  14.369
54106W        W20515  21.674  17.249  14.487
54107W        W20516   8.666  32.488  14.694
54108W        W20517   6.292  28.639  10.991
54109W        W20518  14.182   3.226  13.479
54110W        W20519  31.236  22.268   1.910
54111W        W20520  19.522   6.696   2.104
54112W        W20521  15.183  33.896   3.117
54113W        W20522  39.251  38.620   2.801
54114W        W20523   5.720  37.958  10.695
54115W        W20524  25.538   5.067  13.360
54116W        W20525  11.726  31.432   2.313
54117W        W20526   0.226  28.566   1.205
54118W        W20527  21.587   1.679  12.939
54119W        W20528  24.740  21.223   0.357
54120W        W20529  33.451  44.856   3.913
54121W        W20530  29.655   9.910   2.900
54122W        W20531  19.743  35.117  10.447
54123W        W20532  39.039  44.937  14.884
54124W        W20533   3.480  25.786  11.945
54125W        W20534  40.946  19.345   0.286
54126W        W20535  12.260  23.746   1.405
54127W        W20536  15.248   2.723  14.860
54128W        W20537   2.944  14.260  13.158
54129W        W20538   2.335  42.841   1.424
54130W        W20539  17.591   1.881  13.516
54131W        W20540  44.248  22.463  13.577
54132W        W20541  21.628  34.240   0.639
54133W        W20542   7.673  31.136  10.868
54134W        W20543  31.299  37.087  11.187
54135W        W20544  15.556   2.157  10.875
54136W        W20545   2.717   6.859   1.766
54137W        W20546   4.768  29.687  11.960
54138W        W20547  41.169   8.249   0.378
54139W        W20548  44.215   0.252   3.410
54140W        W20549  35.407   4.253   4.510
54141W        W20550  21.726  39.304  11.539
54142W        W20551  22.024  22.651   0.001
54143W        W20552  43.036  25.772  10.496
54144W        W20553  25.966   0.779   2.811
54145W        W20554  44.584  36.525  13.862
54146W        W20555  28.530   5.813  14.747
54147W        W20556   6.522  27.360  14.903
54148W        W20557  21.181   6.875   0.425
54149W        W20558  24.722   8.676   0.273
54150W        W20559  19.631  43.358  12.324
54151W        W20560  26.587  37.144  12.038
54152W        W20561  23.218  39.288  11.629
54153W        W20562  27.912  41.464  11.544
54154W        W20563  18.679  15.528  14.250
54155W        W20564  44.774  26.465   2.821
54156W        W20565  32.871  34.586  12.911
54157W        W20566  30.654  28.131  12.852
54158W        W20567  24.593  12.526  11.561
54159W        W20568   5.328  28.633   3.153
54160W        W20569  16.402  32.190   3.619
54161W        W20570   0.253   4.361   1.727
54162W        W20571  26.223   3.815   3.335
54163W        W20572   4.546  14.191   1.439
54164W        W20573  41.794  15.634   4.543
54165W        W20574  15.826   2.113   0.162
54166W        W20575  35.912  12.886   2.337
54167W        W20576  26.856   2.777   4.723
54168W        W20577  13.294   9.176  12.137
54169W        W20578  33.542  35.568   2.915
54170W        W20579  43.847   9.831  10.315
54171W        W20580  14.617  39.284  10.282
54172W        W20581   9.729  34.821  13.991
54173W        W20582   4.651  16.491  10.849
54174W        W20583  33.919  36.379  14.558
54175W        W20584  41.888   3.445   0.021
54176W        W20585   8.495  38.033  13.319
54177W        W20586  15.848  30.084   0.277
54178W        W20587  23.376  11.173   2.194
54179W        W20588  44.314  18.592   1.614
54180W        W20589   2.642  10.400  12.506
54181W        W20590  29.528   2.365   3.747
54182W        W20591  27.710  26.570   1.523
54183W        W20592  32.431  44.492  11.923
54184W        W20593  12.372  27.658   2.221
54185W        W20594  31.191  27.942  11.989
54186W        W20595  12.394  41.964   0.032
54187W        W20596  28.052  36.523   4.851
54188W        W20597  15.423  31.976   0.242
54189W        W20598  33.585  31.441   2.778
54190W        W20599  25.664   3.522  11.993
54191W        W20600  41.906  43.411  14.465
54192W        W20601  34.391  22.034   3.922
54193W        W20602  13.864  39.408   3.298
54194W        W20603  32.970  30.868  12.987
54195W        W20604  21.745   5.812  14.847
54196W        W20605  27.382  28.051  13.897
54197W        W20606  28.616  30.839  11.366
54198W        W20607  34.054  37.434   2.186
54199W        W20608  37.203  33.998   3.160
54200W        W20609   1.032  11.416  14.917
54201W        W20610  21.509  23.672   1.684
54202W        W20611   0.272  10.116  13.866
54203W        W20612  33.531  36.348  13.809
54204W        W20613  20.569  23.917  12.255
54205W        W20614  42.756   6.395  11.191
54206W        W20615  31.453  20.691  13.819
54207W        W20616  37.258  22.160   1.905
54208W        W20617  26.764  27.626  10.793
54209W        W20618  33.969  13.677  14.613
54210W        W20619  23.230  31.239  13.909
54211W        W20620  12.529   3.822  11.619
54212W        W20621  37.007  20.322  14.829
54213W        W20622  10.532  35.122  10.266
54214W        W20623  43.061  39.568   3.730
54215W        W20624  31.504  12.657  12.968
54216W        W20625  24.279  17.790  14.847
54217W        W20626  40.844   4.790   3.026
54218W        W20627   6.099   9.828   2.669
54219W        W20628   4.348   6.474  10.562
54220W        W20629  40.761   3.715   2.526
54221W        W20630  18.203  41.947  13.077
54222W        W20631  17.832  44.357   4.541
54223W        W20632  27.275  29.574   0.364
54224W        W20633   5.150  28.179  12.498
54225W        W20634   6.682   5.186  12.966
54226W        W20635  23.137  26.617   2.827
54227W        W20636  12.103   8.336  11.346
54228W        W20637  23.229   6.219   2.304
54229W        W20638  37.532  17.424   0.135
54230W        W20639  22.276  35.836   3.690
54231W        W20640  14.511  36.233   3.221
54232W        W20641  15.168  33.212  14.052
54233W        W20642  12.702  28.181  13.506
54234W        W20643   4.742  39.509   1.273
54235W        W20644  26.987  17.297  13.487
54236W        W20645  14.919  38.779  13.091
54237W        W20646  11.737  23.695  12.025
54238W        W20647  32.603  10.397   3.771
54239W        W20648  35.072  31.435   1.819
54240W        W20649  10.047  26.105   4.861
54241W        W20650  15.666  29.461  12.671
54242W        W20651   3.438   5.120  14.402
54243W        W20652  14.284  42.099   3.733
54244W        W20653  23.804   4.425   2.370
54245W        W20654  12.696   3.822   1.319
54246W        W20655  24.966  33.969   2.857
54247W        W20656  21.188  32.937  14.973
54248W        W20657   5.753   2.310  11.157
54249W        W20658  26.649   3.647   0.493
54250W        W20659  17.534  39.365   1.833
54251W        W20660  44.460  33.638  10.940
54252W        W20661  32.534  27.459  11.200
54253W        W20662  16.101  30.089  13.537
54254W        W20663  32.119  44.398  14.057
54255W        W20664  41.084  11.472   3.177
54256W        W20665  17.757  31.403  11.655
54257W        W20666  20.922  33.512  13.328
54258W        W20667  26.401  25.211   5.548
54259W        W20668  32.559  43.335   3.125
54260W        W20669  28.439  27.798   2.269
54261W        W20670  36.491   5.345  11.938
54262W        W20671  14.921   8.942  12.475
54263W        W20672  27.033   9.409   0.359
54264W        W20673  22.515  41.063  11.706
54265W        W20674   1.069  12.351  14.804
54266W        W20675   8.616  37.144  14.411
54267W        W20676   3.818   6.689   3.764
54268W        W20677  20.724  21.551  13.833
54269W        W20678  32.473  44.531   2.311
54270W        W20679  13.857  31.100  11.241
54271W        W20680  15.661  28.690   3.401
54272W        W20681  42.877   4.794  13.932
54273W        W20682  36.625  20.064   2.289
54274W        W20683   3.035  25.774  11.710
54275W        W20684   3.222  23.590  13.982
54276W        W20685   9.632  24.599  10.662
54277W        W20686  38.295  36.092  11.627
54278W        W20687  27.522  29.525  10.724
54279W        W20688   8.628  38.243   1.406
54280W        W20689  14.098   7.561   0.404
54281W        W20690  31.580  10.170  14.143
54282W        W20691  15.321  34.258   2.725
54283W        W20692  36.642   8.991  14.307
54284W        W20693  38.447  32.804   3.308
54285W        W20694   1.793  30.263  11.448
54286W        W20695  29.608  42.583  14.499
54287W        W20696  38.622  34.726   4.159
54288W        W20697   6.844  35.387  10.283
54289W        W20698  16.531  31.309  11.987
54290W        W20699  44.649  31.606  12.911
54291W        W20700   3.983  37.393  10.645
54292W        W20701  15.592  11.282  10.798
54293W        W20702  37.862  19.001   1.259
54294W        W20703  24.460  37.539  13.887
54295W        W20704  17.727  29.413   4.217
54296W        W20705  12.034  41.874   2.229
54297W        W20706  18.123  17.755   4.355
54298W        W20707   8.157  23.526  10.769
54299W        W20708  36.673  40.084  12.071
54300W        W20709  27.932  39.549  14.963
54301W        W20710   8.688  38.530   4.123
54302W        W20711  40.590   1.265  12.432
54303W        W20712  37.351   4.242   0.044
54304W        W20713  35.112  16.681  14.444
54305W        W20714  27.525  43.642   3.555
54306W        W20715  29.663  42.156   2.352
54307W        W20716  15.045   2.451   4.238
54308W        W20717  38.235  38.150  14.448
54309W        W20718  25.051  43.243  13.968
54310W        W20719  21.130   3.874   0.330
54311W        W20720  17.242  44.813  11.680
54312W        W20721  14.906  44.157   0.041
54313W        W20722  22.006  35.061   0.915
54314W        W20723  37.400  35.868  13.387
54315W        W20724   5.416   8.217   3.223
54316W        W20725  35.460  27.892   3.611
54317W        W20726  11.992   2.644  10.778
54318W        W20727  26.974  43.569   0.835
54319W        W20728  32.025  13.522   1.901
54320W        W20729  38.956   4.707  10.881
54321W        W20730  10.282  27.027   2.434
54322W        W20731  17.109  28.731  13.277
54323W        W20732  24.701  25.105   4.917
54324W        W20733  13.512   8.789   4.598
54325W        W20734  23.655   3.339   2.582
54326W        W20735  30.626  38.472  10.764
54327W        W20736  39.959  38.136  13.078
54328W        W20737  42.353   0.824  14.500
54329W        W20738  14.308  12.362  12.950
54330W        W20739  41.647   8.852   3.597
54331W        W20740  23.179  28.034   2.640
54332W        W20741  18.116  28.172  10.634
54333W        W20742  21.126   6.086   4.608
54334W        W20743  39.533  35.481  11.443
54335W        W20744  22.086   1.423   4.856
54336W        W20745  15.348  41.824   3.071
54337W        W20746   9.688  35.531   5.093
54338W        W20747  16.665  36.750   2.895
54339W        W20748  31.626   1.228   1.696
54340W        W20749  35.152  20.219   4.793
54341W        W20750  27.194  38.047   1.438
54342W        W20751  43.918  13.416   5.310
54343W        W20752  40.842   0.931  14.403
54344W        W20753  24.748  27.804  11.968
54345W        W20754  42.849   9.600  13.837
54346W        W20755   6.388  19.992  13.887
54347W        W20756  43.729  44.714   2.900
54348W        W20757  35.849  29.610  12.034
54349W        W20758  32.037  14.685   0.230
54350W        W20759   3.384  26.612   5.069
54351W        W20760   5.466  43.953  12.376
54352W        W20761  42.221  33.572   4.599
54353W        W20762   6.856   0.354   1.046
54354W        W20763  15.142  23.335  12.051
54355W        W20764  16.264   6.868  11.373
54356W        W20765  20.197  41.319  10.392
54357W        W20766  24.904  26.869  13.535
54358W        W20767   7.847   4.850  10.781
54359W        W20768   8.767  30.757   1.889
54360W        W20769  13.342  32.207  13.344
54361W        W20770  29.584  42.183  11.907
54362W        W20771   1.479  13.090  13.014
54363W        W20772  27.157  44.012  14.861
54364W        W20773   7.242  10.191   2.865
54365W        W20774  40.523  43.527  13.566
54366W        W20775  31.123   4.765   0.730
54367W        W20776  28.253  17.204   2.831
54368W        W20777  26.538  30.642  13.308
54369W        W20778   3.292  33.693   2.751
54370W        W20779  40.533  18.349  14.317
54371W        W20780  32.625  15.374   1.971
54372W        W20781   9.443  27.489   3.192
54373W        W20782  31.175  30.935  11.557
54374W        W20783  25.735  23.096  12.153
54375W        W20784   2.960  40.055   4.634
54376W        W20785  24.183  24.715  13.916
54377W        W20786  15.187  31.564  14.604
54378W        W20787  11.104   6.297   1.728
54379W        W20788   4.287   5.190   2.013
54380W        W20789  23.303  18.789   2.670
54381W        W20790  21.719  36.843   1.372
54382W        W20791  13.308   8.242  12.127
54383W        W20792  34.957   5.609  12.618
54384W        W20793  29.590  18.162   4.694
54385W        W20794  39.314  19.096  13.312
54386W        W20795  39.255   6.204   5.123
54387W        W20796  42.623  40.082  11.157
54388W        W20797  26.547   3.889   1.965
54389W        W20798  12.016  29.755  14.761
54390W        W20799  28.217  19.968   3.904
54391W        W20800  15.636  10.809  12.482
54392W        W20801  30.853  30.291   3.687
54393W        W20802  24.210   0.265   1.406
54394W        W20803  17.814  17.492   0.343
54395W        W20804  12.790  12.760  13.797
54396W        W20805  37.333   2.187   3.623
54397W        W20806  44.292  20.855   3.299
54398W        W20807  11.846   3.904  14.363
54399W        W20808   0.269   5.168   1.395
54400W        W20809  44.282   5.855   1.226
54401W        W20810   8.988   4.965  14.334
54402W        W20811  34.855  33.876  11.190
54403W        W20812  27.687  21.585   9.619
54404W        W20813   3.399   7.221  11.520
54405W        W20814  28.478   3.810  13.050
54406W        W20815  34.956  35.248   3.972
54407W        W20816  12.549  16.899  11.165
54408W        W20817   4.281  25.405   0.830
54409W        W20818  13.357  21.550   0.515
54410W        W20819   6.821  31.723  10.254
54411W        W20820   9.046  33.372   1.692
54412W        W20821  14.669   5.255  12.060
54413W        W20822  15.616  34.494  14.472
54414W        W20823  23.940  30.088  14.253
54415W        W20824  22.525  22.518   0.200
54416W        W20825  22.412   5.851   2.704
54417W        W20826   6.189  13.603  14.778
54418W        W20827  21.191  23.079  12.492
54419W        W20828   4.696  39.014   3.231
54420W        W20829  22.076  27.185   0.010
54421W        W20830  21.270  22.818   0.723
54422W        W20831  24.571  36.038  14.198
54423W        W20832  26.811  16.330  13.918
54424W        W20833  17.075  20.612   1.841
54425W        W20834  22.741  28.535   2.341
54426W        W20835  15.455   6.389   3.171
54427W        W20836  18.382  34.596   4.260
54428W        W20837  27.972  24.126  14.305
54429W        W20838  10.897  36.769   0.587
54430W        W20839  41.275  13.532   3.797
54431W        W20840  31.568  23.118  10.662
54432W        W20841   9.818   4.763  11.566
54433W        W20842  27.213   0.222   1.269
54434W        W20843  36.100  10.519   4.534
54435W        W20844   9.248   7.412   4.623
54436W        W20845  29.192  16.210  11.504
54437W        W20846  33.441   3.921   3.168
54438W        W20847  34.001  22.513   4.657
54439W        W20848  20.111  39.318   4.854
54440W        W20849   4.531  21.471  12.550
54441W        W20850   8.724  33.985   2.452
54442W        W20851  10.127  35.794   4.207
54443W        W20852   8.870   1.044  14.251
54444W        W20853  20.168   5.670  11.114
54445W        W20854   4.638  20.755   0.982
54446W        W20855  33.674   5.019   1.806
54447W        W20856  23.054  42.714  13.200
54448W        W20857   0.936  30.523  10.689
54449W        W20858  28.764  33.003   3.666
54450W        W20859  17.112  43.926  11.044
54451W        W20860  29.293  15.761  14.412
54452W        W20861  37.089   2.737  10.687
54453W        W20862  28.010  39.760  14.507
54454W        W20863  12.020   5.814   4.439
54455W        W20864  41.414  18.767   2.379
54456W        W20865  20.958   7.328  13.791
54457W        W20866  30.226  30.139  14.558
54458W        W20867  40.833  33.642  10.449
54459W        W20868  40.489  29.031  12.570
54460W        W20869  12.804   9.824  12.083
54461W        W20870  18.651  31.985   4.210
54462W        W20871  32.587   2.171   2.371
54463W        W20872  34.019  32.214   4.532
54464W        W20873  27.582  12.842  11.632
54465W        W20874   9.604  27.657  11.563
54466W        W20875  12.868  31.872   3.204
54467W        W20876  13.259  37.060   0.333
54468W        W20877  22.529  27.097   4.352
54469W        W20878   5.869   9.782   3.134
54470W        W20879   1.574  15.081  11.137
54471W        W20880  26.250   0.791   1.173
54472W        W20881   8.121  24.669  13.826
54473W        W20882  17.140   8.832  12.936
54474W        W20883  34.789  11.523  14.969
54475W        W20884   0.010  43.437   0.336
54476W        W20885   7.523   5.518  11.513
54477W        W20886  26.487  17.805  11.928
54478W        W20887  16.262  40.008  14.774
54479W        W20888  25.580   2.490   4.589
54480W        W20889  44.334  34.076  10.714
54481W        W20890   0.897  16.165   2.225
54482W        W20891  31.458  38.923  12.162
54483W        W20892  15.583   7.544   2.335
54484W        W20893  25.679  13.591  10.818
54485W        W20894  28.771  44.408  10.279
54486W        W20895  10.080  28.974  10.397
54487W        W20896  31.982  44.027   1.784
54488W        W20897  24.270  27.993  12.003
54489W        W20898  21.118  20.734  12.307
54490W        W20899  14.073  40.015   1.644
54491W        W20900   5.890  21.636   3.323
54492W        W20901  16.609  44.189  13.065
54493W        W20902  42.184  15.628  11.147
54494W        W20903   7.910  18.020  11.967
54495W        W20904   4.313   5.713   2.148
54496W        W20905  12.159  42.791   3.390
54497W        W20906  12.904  41.107   0.385
54498W        W20907   5.908  19.730  11.759
54499W        W20908   8.144  37.275  12.062
54500W        W20909  12.231  43.243   3.122
54501W        W20910  18.091   6.784  12.916
54502W        W20911  35.284   3.301   4.059
54503W        W20912  31.861  26.027  13.420
54504W        W20913  33.055  27.058  11.906
54505W        W20914  27.652  14.186  13.867
54506W        W20915   4.704  26.351  13.027
54507W        W20916  18.170  37.514  14.770
54508W        W20917   8.703  23.945  12.007
54509W        W20918  19.864  36.051   4.271
54510W        W20919  29.831  16.821  12.031
54511W        W20920  32.983   9.779   4.348
54512W        W20921   7.613  30.168   1.400
54513W        W20922   6.646  17.167   2.398
54514W        W20923  25.916  21.153   2.410
54515W        W20924   9.407  25.394   5.027
54516W        W20925  33.185   5.254   2.184
54517W        W20926   3.356  43.845  14.370
54518W        W20927  14.229   3.446  13.021
54519W        W20928  30.485  17.583   1.546
54520W        W20929   7.685  15.744   3.122
54521W        W20930  16.708  12.190   0.317
54522W        W20931  16.647   7.205  14.330
54523W        W20932  11.440   1.263  12.806
54524W        W20933   0.306  27.174   2.334
54525W        W20934   8.746  12.881  12.201
54526W        W20935  37.598  36.963  10.435
54527W        W20936   0.944  17.850   1.205
54528W        W20937  18.962  22.205  10.597
54529W        W20938   7.396  15.325  10.744
54530W        W20939   7.767   6.135   0.865
54531W        W20940  36.428   6.278   1.394
54532W        W20941   2.224  18.225  14.484
54533W        W20942  10.191   7.436   5.016
54534W        W20943  17.625   4.925   0.353
54535W        W20944  21.147  11.327  12.186
54536W        W20945  42.218  19.216   4.601
54537W        W20946  13.657  35.045   3.057
54538W        W20947  36.986  19.379  11.582
54539W        W20948   6.425  10.040   3.632
54540W        W20949   9.654  28.853  14.371
54541W        W20950   4.346  14.695   0.700
54542W        W20951   3.455  33.495  14.731
54543W        W20952  27.764  27.091  12.842
54544W        W20953   3.351  43.739  11.064
54545W        W20954   2.048  43.817   4.918
54546W        W20955  38.317  27.135  10.682
54547W        W20956   9.411  10.467  12.803
54548W        W20957  23.138  34.527   4.568
54549W        W20958   3.940  16.285   1.291
54550W        W20959  43.476  17.136   2.797
54551W        W20960  29.857  11.476  12.359
54552W        W20961  35.049   7.364   0.297
54553W        W20962  10.682  14.855  14.943
54554W        W20963  42.563  30.098   4.057
54555W        W20964  13.910  27.235  12.368
54556W        W20965  11.341   2.213   2.908
54557W        W20966   1.587  31.430   1.239
54558W        W20967   4.348  20.950   2.778
54559W        W20968  26.162  37.060   4.564
54560W        W20969  26.686  38.421   3.603
54561W        W20970   8.671  44.945   4.708
54562W        W20971  44.926  44.356   2.507
54563W        W20972  19.367  32.538   4.226
54564W        W20973   6.200  28.189   1.626
54565W        W20974  23.395  44.267  11.043
54566W        W20975  21.746  35.908  10.705
54567W        W20976  22.508  36.280  12.117
54568W        W20977  22.392  11.326   3.099
54569W        W20978  21.175  23.939   0.803
54570W        W20979   7.909   3.042   5.022
54571W        W20980  15.324  14.437  13.930
54572W        W20981  32.911  34.560  14.364
54573W        W20982  25.133  29.394   4.576
54574W        W20983  21.544  16.668   3.787
54575W        W20984  37.624   0.359   4.321
54576W        W20985  27.059  34.934   1.470
54577W        W20986   6.497  21.280  10.665
54578W        W20987  37.903   1.018   1.540
54579W        W20988   4.166  30.404  11.105
54580W        W20989   1.736   5.774   4.849
54581W        W20990  28.372   7.720  10.318
54582W        W20991  42.551  16.604   0.491
54583W        W20992  14.873  17.144   4.670
54584W        W20993  12.604   9.131   2.431
54585W        W20994  42.861  14.748  10.572
54586W        W20995  25.064  23.918   3.162
54587W        W20996  25.524  20.624  12.961
54588W        W20997  42.572  39.586   0.436
54589W        W20998  20.725  41.321  11.075
54590W        W20999  44.050  30.279   1.308
54591W        W21000   8.873   7.184  13.915
54592W        W21001  29.121  11.675   3.312
54593W        W21002  31.955  31.986  12.495
54594W        W21003  36.886  23.567  13.508
54595W        W21004  25.154  43.871  12.375
54596W        W21005  39.369  39.502   1.567
54597W        W21006   7.415  42.740  13.999
54598W        W21007   8.785  21.686   1.128
54599W        W21008  12.838  38.196   1.048
54600W        W21009  42.302   5.215  10.429
54601W        W21010  40.284  32.474  13.826
54602W        W21011   8.155  18.217  12.582
54603W        W21012   8.328  24.062   0.518
54604W        W21013  40.594   9.948   1.336
54605W        W21014   6.707  30.488  14.320
54606W        W21015  31.106  18.777  10.948
54607W        W21016  43.863  43.936   1.871
54608W        W21017  41.509  11.854  12.836
54609W        W21018   9.467  39.345  10.461
54610W        W21019  30.210   8.288   1.243
54611W        W21020  28.547  37.357  12.158
54612W        W21021  38.829  12.835  12.914
54613W        W21022  37.574  24.047   1.921
54614W        W21023  30.487  26.665  14.209
54615W        W21024  44.552   3.283   1.406
54616W        W21025  42.278  16.082   1.484
54617W        W21026  34.403  35.924  11.970
54618W        W21027  31.139   4.305  10.594
54619W        W21028  42.691  40.849   2.311
54620W        W21029   2.882   0.635   0.281
54621W        W21030  17.086  27.727  13.942
54622W        W21031  19.697  33.403  12.669
54623W        W21032   2.848  44.839  14.820
54624W        W21033  34.047   2.264  10.328
54625W        W21034   9.941  11.807   3.629
54626W        W21035  31.996  13.235   4.086
54627W        W21036   4.234  41.493   0.730
54628W        W21037  15.049  33.392   2.888
54629W        W21038   5.130  10.296   4.762
54630W        W21039   8.612  25.434  13.445
54631W        W21040  30.142  37.012  12.480
54632W        W21041  17.305  29.115  12.077
54633W        W21042  37.176  33.049  11.631
54634W        W21043  25.978  44.198   0.357
54635W        W21044   9.077  12.590   1.574
54636W        W21045   6.905  14.748  11.921
54637W        W21046  36.818  13.728   5.051
54638W        W21047  13.210   4.966  11.105
54639W        W21048  10.088  39.102  11.559
54640W        W21049  13.871  10.049   9.953
54641W        W21050  20.854   1.911   2.393
54642W        W21051  22.228  23.738   0.505
54643W        W21052  20.028   2.975   2.753
54644W        W21053   9.661  22.730  14.785
54645W        W21054  24.109  42.391   0.759
54646W        W21055  34.997   1.255   3.696
54647W        W21056   9.345  16.184   2.379
54648W        W21057  11.637  41.895   1.382
54649W        W21058  13.566   4.461  14.461
54650W        W21059  40.855  12.478   3.248
54651W        W21060  44.532  33.354  13.096
54652W        W21061   3.124  16.205   2.692
54653W        W21062  11.973  20.852  10.297
54654W        W21063   2.005  36.186   1.219
54655W        W21064  40.648  21.149  14.655
54656W        W21065   3.408   6.226   0.855
54657W        W21066   5.775  31.582   2.129
54658W        W21067  22.235  34.475   1.479
54659W        W21068  39.747  43.843  14.288
54660W        W21069  43.744  36.824   2.388
54661W        W21070  32.137  26.689   1.913
54662W        W21071  16.701  36.002  14.987
54663W        W21072  26.002  31.609  12.110
54664W        W21073  23.239  28.452   2.319
54665W        W21074   6.804  37.373   4.717
54666W        W21075  26.662  26.688   2.309
54667W        W21076  30.939  21.323   3.568
54668W        W21077  40.057  36.261  11.970
54669W        W21078  26.227  10.184  12.054
54670W        W21079  32.192  19.253  11.241
54671W        W21080  35.579  44.591  10.630
54672W        W21081   6.234   0.974   2.040
54673W        W21082  43.283  35.998   0.970
54674W        W21083  15.288  40.943   4.786
54675W        W21084   1.035  43.396  13.957
54676W        W21085  35.647  37.981  10.735
54677W        W21086  17.721  41.602   4.796
54678W        W21087   3.983  10.144   0.003
54679W        W21088  26.057  27.511  14.929
54680W        W21089  36.667  22.402   0.387
54681W        W21090  11.705  29.424   0.459
54682W        W21091  36.670  18.735   4.146
54683W        W21092  36.938  32.445   2.069
54684W        W21093  24.305  14.763   2.379
54685W        W21094  30.345  23.490   2.343
54686W        W21095  40.209  30.891   2.270
54687W        W21096  44.811  29.966   3.745
54688W        W21097  42.354  42.821  11.681
54689W        W21098  35.086  42.794  10.368
54690W        W21099   3.718  41.606  11.153
54691W        W21100  44.377  42.598  13.444
54692W        W21101  31.213  13.163   1.349
54693W        W21102   2.017   1.034   2.400
54694W        W21103   8.752  44.929  12.129
54695W        W21104  39.834  28.467  13.418
54696W        W21105  38.380   1.784   4.717
54697W        W21106   1.815  25.417   3.158
54698W        W21107  12.419  39.299   2.975
54699W        W21108  40.669   6.073   2.935
54700W        W21109  29.127  36.100  13.362
54701W        W21110  44.797   2.764  11.170
54702W        W21111   5.905   9.671  13.917
54703W        W21112  10.709   6.897  11.792
54704W        W21113   1.916  29.903   4.627
54705W        W21114   7.907  11.728  10.715
54706W        W21115  31.608  42.344  14.468
54707W        W21116  20.771   4.830   0.315
54708W        W21117  31.366  26.879   4.348
54709W        W21118   5.021  16.180   4.100
54710W        W21119  34.215  19.056  11.608
54711W        W21120  37.293  10.357   2.909
54712W        W21121  18.329  19.142   3.956
54713W        W21122  19.711   5.240   4.088
54714W        W21123  20.569  22.472   1.409
54715W        W21124  16.149   3.744   1.341
54716W        W21125  14.714  31.070   3.829
54717W        W21126  12.697  29.505   1.983
54718W        W21127  16.305   0.504  12.153
54719W        W21128  19.097  31.495   3.097
54720W        W21129   3.924  33.708  14.666
54721W        W21130  21.580  17.170  13.932
54722W        W21131  10.148   6.456   0.851
54723W        W21132  16.059  29.986   4.109
54724W        W21133  24.733   5.330   0.991
54725W        W21134   9.349  40.699  13.642
54726W        W21135   2.715  23.639  12.291
54727W        W21136  38.403  36.858  12.887
54728W        W21137  17.976  31.104  12.402
54729W        W21138  44.431  32.693  14.065
54730W        W21139  25.633  41.540   5.052
54731W        W21140   4.296   5.708   3.580
54732W        W21141   5.178   3.985  11.150
54733W        W21142  39.277   6.846  12.404
54734W        W21143  10.362  34.262   3.633
54735W        W21144  38.028  30.163  11.573
54736W        W21145  39.507  12.760  11.281
54737W        W21146  25.610   7.759   5.569
54738W        W21147  40.024  21.308   2.789
54739W        W21148  31.035  20.606   2.270
54740W        W21149  29.989  18.005   2.504
54741W        W21150  17.718  17.225  11.547
54742W        W21151  29.229   4.525   4.112
54743W        W21152  40.890   6.611  14.792
54744W        W21153   0.842   8.268   3.989
54745W        W21154  35.498   3.149   1.096
54746W        W21155  37.563  43.747  12.990
54747W        W21156  22.909  10.200   4.233
54748W        W21157   3.846  40.073  11.143
54749W        W21158  15.425  28.666  12.060
54750W        W21159  33.797  31.991   4.127
54751W        W21160  29.569  40.362  11.979
54752W        W21161  28.705  25.977  13.990
54753W        W21162  19.620  18.794  13.957
54754W        W21163  36.498  36.782  12.508
54755W        W21164  24.494  29.848   1.568
54756W        W21165   9.642  38.300  14.875
54757W        W21166  19.712  32.930   0.911
54758W        W21167   9.691   3.025   2.690
54759W        W21168   9.590  15.736  11.514
54760W        W21169  36.455  21.207   0.813
54761W        W21170  23.154  21.516   2.363
54762W        W21171  35.260  26.456   2.931
54763W        W21172  16.509  31.457   0.753
54764W        W21173  18.667  32.746   4.887
54765W        W21174   5.815  27.198  12.159
54766W        W21175  33.376  12.828   1.043
54767W        W21176   9.401  41.104   0.417
54768W        W21177   2.442  31.483  11.974
54769W        W21178  35.559  22.327  11.229
54770W        W21179  31.349  42.307  11.142
54771W        W21180  38.940   8.213  10.851
54772W        W21181   6.751  16.411  11.193
54773W        W21182  23.440  43.458  12.660
54774W        W21183  28.744  16.251  13.293
54775W        W21184  12.253  36.662   4.942
54776W        W21185  15.110  19.219  11.638
54777W        W21186  19.318  15.541   4.550
54778W        W21187  39.112  33.221   0.545
54779W        W21188  19.026  37.629   5.025
54780W        W21189   9.597  40.543  11.010
54781W        W21190   6.922  29.120   4.931
54782W        W21191  31.158   5.308   3.803
54783W        W21192  39.927  39.027   2.982
54784W        W21193  32.935   1.988   1.203
54785W        W21194  38.034  20.009  13.417
54786W        W21195  44.749  29.680   4.180
54787W        W21196   9.567  35.047   0.478
54788W        W21197  26.598   9.264   0.149
54789W        W21198  30.367   0.503  14.971
54790W        W21199   7.751  26.173  14.365
54791W        W21200  19.043   0.114  13.303
54792W        W21201  39.296  32.432   0.111
54793W        W21202  31.058  37.076  11.621
54794W        W21203  35.879  12.453   1.613
54795W        W21204  39.602  25.968  11.187
54796W        W21205  11.161  35.984  10.417
54797W        W21206  21.643  23.841   9.936
54798W        W21207  41.290  24.761   1.368
54799W        W21208  37.274  43.887  13.952
54800W        W21209  20.625  33.077  11.987
54801W        W21210  25.676   2.918   3.336
54802W        W21211   0.675  34.016  11.162
54803W        W21212  19.975  38.741   0.449
54804W        W21213  20.709  17.440   1.730
54805W        W21214   5.909  41.536   4.876
54806W        W21215  27.356  29.649   4.081
54807W        W21216   5.851  14.787   3.207
54808W        W21217  28.678  13.763   0.423
54809W        W21218  26.439  20.358   2.297
54810W        W21219  44.634  43.072   3.239
54811W        W21220  22.727  39.572  12.881
54812W        W21221   4.473   9.877   4.367
54813W        W21222   0.029  41.577  12.968
54814W        W21223   2.798   1.910   1.441
54815W        W21224  14.077  41.622  14.765
54816W        W21225  20.731  25.235   4.615
54817W        W21226  15.320   0.272   1.420
54818W        W21227  43.297  29.425   3.286
54819W        W21228  18.755  12.223  11.194
54820W        W21229  30.262   5.652   1.387
54821W        W21230   3.242   0.858  13.982
54822W        W21231  21.967  11.351   1.258
54823W        W21232  41.401   8.644  13.937
54824W        W21233  30.187  15.553  13.065
54825W        W21234  28.524  23.033   3.675
54826W        W21235   1.492  26.630  14.259
54827W        W21236  31.905  11.731   2.777
54828W        W21237  14.472  41.760   2.836
54829W        W21238  24.086  20.163   1.172
54830W        W21239  39.559   1.130   0.459
54831W        W21240  11.772  26.480   1.867
54832W        W21241   8.613  43.865   2.263
54833W        W21242   9.257  35.091  13.876
54834W        W21243  11.186   5.220  13.047
54835W        W21244  23.224  20.730   3.729
54836W        W21245  20.195  17.234   2.715
54837W        W21246   8.561  43.573   4.534
54838W        W21247  24.514  11.824  13.483
54839W        W21248  13.290  34.549  12.892
54840W        W21249  37.493  31.314   3.568
54841W        W21250  22.559  18.096   2.833
54842W        W21251  11.739  24.590   4.359
54843W        W21252  34.582  12.991   4.128
54844W        W21253  44.407  18.652  10.665
54845W        W21254  40.739  20.131   0.765
54846W        W21255  36.115  43.993  13.356
54847W        W21256   1.488  14.020   0.473
54848W        W21257  37.844  17.153  14.826
54849W        W21258   0.001  44.727  13.757
54850W        W21259  17.812  33.989   2.254
54851W        W21260  29.443  27.446  14.508
54852W        W21261   2.165   5.212  14.723
54853W        W21262  38.541  39.172   1.312
54854W        W21263  29.850  18.727   3.675
54855W        W21264   6.174  17.177  12.924
54856W        W21265  27.194  24.404   1.219
54857W        W21266  22.719  26.399   1.730
54858W        W21267   9.276  40.073  11.158
54859W        W21268  23.989  29.207  11.558
54860W        W21269  31.414  42.253   1.308
54861W        W21270  34.841  40.685  14.900
54862W        W21271   3.812  19.750   5.118
54863W        W21272  33.649   4.341   4.480
54864W        W21273  27.485  19.351  14.564
54865W        W21274   3.236  13.181   1.905
54866W        W21275  31.376  23.206  13.428
54867W        W21276   6.847   0.300  11.400
54868W        W21277  42.732  18.610  13.034
54869W        W21278  18.498  24.880   0.812
54870W        W21279  43.088   0.819  12.503
54871W        W21280  31.110  37.577  11.102
54872W        W21281  28.210  44.195  13.788
54873W        W21282   5.783  11.261  12.316
54874W        W21283  33.107  35.138   3.930
54875W        W21284  41.769   7.518  12.993
54876W        W21285  21.140  10.098   5.090
54877W        W21286  27.446  30.158  14.480
54878W        W21287  17.030  26.768  14.912
54879W        W21288   8.715  37.084  11.539
54880W        W21289  12.391  36.009  14.035
54881W        W21290  26.478   0.960  11.896
54882W        W21291  25.009  35.266  14.231
54883W        W21292   3.491  21.958  10.483
54884W        W21293  18.430  14.538  14.253
54885W        W21294  14.306   3.734  12.606
54886W        W21295   5.095  28.961   9.841
54887W        W21296   8.564  33.855  12.906
54888W        W21297  27.273   1.733  13.371
54889W        W21298  41.761  19.218  12.406
54890W        W21299  17.619  43.940  11.115
54891W        W21300  26.565  17.536  14.756
54892W        W21301  37.011  38.869   2.458
54893W        W21302   5.206   8.386  12.156
54894W        W21303  34.556   2.148  10.250
54895W        W21304  43.322  15.152  10.591
54896W        W21305   0.832  34.891   1.367
54897W        W21306  23.590   8.206   1.525
54898W        W21307   8.692  27.749  13.562
54899W        W21308  17.575   0.699   2.685
54900W        W21309  25.954  28.250  12.856
54901W        W21310  34.471  33.186   0.920
54902W        W21311  38.992  19.451   1.297
54903W        W21312  35.586  28.448  14.836
54904W        W21313  14.876  39.766   2.879
54905W        W21314  30.405  24.211   1.013
54906W        W21315  44.438   4.986  11.030
54907W        W21316  27.989  29.688   1.914
54908W        W21317  16.905  32.552   4.500
54909W        W21318  29.958  23.016   2.719
54910W        W21319  41.917  34.429  13.684
54911W        W21320  16.288  27.472   3.910
54912W        W21321  37.027  20.527  11.967
54913W        W21322  21.105  38.709  10.638
54914W        W21323   0.047  27.961   0.304
54915W        W21324  34.565   3.522  13.976
54916W        W21325  24.776  42.389   2.003
54917W        W21326  32.608  10.439   2.830
54918W        W21327  12.129   9.675   3.768
54919W        W21328  39.485   1.308  10.604
54920W        W21329  42.812  10.257   2.446
54921W        W21330  43.453  39.981   3.116
54922W        W21331  12.749  10.583  11.583
54923W        W21332  44.299   2.505   0.210
54924W        W21333  24.425   9.932   4.014
54925W        W21334  28.442  34.952   3.253
54926W        W21335   5.778  41.041   2.082
54927W        W21336  23.503  28.187  12.392
54928W        W21337   7.832  26.873  12.540
54929W        W21338  21.721  24.742  13.870
54930W        W21339  31.835   1.355   9.863
54931W        W21340  34.120   4.501  10.841
54932W        W21341  41.571  11.842  13.353
54933W        W21342  13.451  17.062  12.004
54934W        W21343  20.495   7.905   3.025
54935W        W21344  15.226   8.791   9.842
54936W        W21345  22.086  39.079   3.663
54937W        W21346   7.994   6.646  13.246
54938W        W21347  40.545   4.892  10.844
54939W        W21348  13.520  22.145   4.957
54940W        W21349  29.726  27.497   1.847
54941W        W21350   3.404  36.511   1.259
54942W        W21351  22.062  44.684   4.068
54943W        W21352  28.733  28.795   2.220
54944W        W21353  14.286  44.476  12.038
54945W        W21354  20.570  33.855  12.388
54946W        W21355  28.645  28.053  13.248
54947W        W21356  24.128   0.224   4.741
54948W        W21357  35.628  38.533   2.733
54949W        W21358  24.282  12.852  12.464
54950W        W21359  35.400   9.100  14.328
54951W        W21360  30.067  27.231   2.316
54952W        W21361  15.933  36.586  12.893
54953W        W21362   9.848  30.653   3.371
54954W        W21363   1.535   7.904   5.041
54955W        W21364  19.242  43.568   2.414
54956W        W21365  19.827  32.179   3.694
54957W        W21366  24.368  11.483   3.055
54958W        W21367  12.201  42.480  10.718
54959W        W21368  33.853  20.330  11.201
54960W        W21369  44.754  32.962   2.957
54961W        W21370  19.406  37.989   3.173
54962W        W21371  21.001  36.182  12.411
54963W        W21372  39.122  17.064   4.593
54964W        W21373  40.511  21.104   2.769
54965W        W21374  13.350  21.438   3.207
54966W        W21375  44.688  20.193   1.804
54967W        W21376  28.023  44.143   2.166
54968W        W21377  23.463   6.365   0.218
54969W        W21378   3.006   2.196  13.916
54970W        W21379  16.132   9.097  12.620
54971W        W21380  12.739   2.141   1.987
54972W        W21381  14.908  38.760   4.703
54973W        W21382  29.705  20.436   2.243
54974W        W21383   7.909  24.231  14.596
54975W        W21384  19.641   9.588   4.179
54976W        W21385  23.970  33.039   1.243
54977W        W21386  29.593  44.459   4.227
54978W        W21387  23.201  30.532   3.071
54979W        W21388   0.287  31.644  11.120
54980W        W21389  22.701   2.465  10.683
54981W        W21390  14.659  19.292   4.471
54982W        W21391  34.533  40.421  13.419
54983W        W21392  20.311  25.087  13.457
54984W        W21393  11.600  31.484  14.821
54985W        W21394  28.898  36.976  14.222
54986W        W21395   9.821  37.210   1.668
54987W        W21396  21.774  44.744  14.374
54988W        W21397  22.014   4.791  10.490
54989W        W21398  42.399  40.575   1.380
54990W        W21399  11.798  10.572  14.915
54991W        W21400  23.508   5.822   4.719
54992W        W21401  32.009  26.109  14.893
54993W        W21402  36.713  23.225   2.722
54994W        W21403   5.176  16.563  10.862
54995W        W21404   7.259  19.182  13.882
54996W        W21405  20.171  31.663   4.664
54997W        W21406  14.457  20.797   2.887
54998W        W21407  30.418   6.149   3.174
54999W        W21408  20.252  39.835  13.304
55000W        W21409   7.733  20.295  10.667
55001W        W21410  26.993  30.984   2.456
55002W        W21411   9.581  32.324  14.894
55003W        W21412  21.548  25.757   0.926
55004W        W21413  30.300  30.896   3.174
55005W        W21414  32.048  14.568   2.237
55006W        W21415  14.058  36.165  14.674
55007W        W21416  21.099  35.455   0.677
55008W        W21417  38.935   4.423  13.109
55009W        W21418  31.660   8.478   3.841
55010W        W21419  33.408  33.689  13.528
55011W        W21420  26.506  42.439   4.185
55012W        W21421  37.309   9.397   2.957
55013W        W21422  22.216  20.210   1.607
55014W        W21423  22.463  13.296   9.934
55015W        W21424  35.431  37.432   2.429
55016W        W21425  15.432   0.759   9.965
55017W        W21426  26.701  38.968  12.000
55018W        W21427  43.796  11.174  12.906
55019W        W21428  18.729  37.116   0.448
55020W        W21429  41.002  42.758   2.380
55021W        W21430  37.619  25.700   0.383
55022W        W21431  31.621  18.134  10.610
55023W        W21432  27.710  40.884  14.273
55024W        W21433  34.080   3.525   3.256
55025W        W21434  19.960  21.020   1.375
55026W        W21435  13.268  43.524   1.852
55027W        W21436  17.951  37.027   0.290
55028W        W21437  15.128  28.532  11.600
55029W        W21438  14.312  24.237  11.221
55030W        W21439  22.887  18.367  12.609
55031W        W21440  38.076  44.852  11.984
55032W        W21441  32.386  39.018   4.492
55033W        W21442  24.347  34.372  12.098
55034W        W21443   8.869   6.158   3.255
55035W        W21444  44.349  23.187  13.954
55036W        W21445  21.763  14.751  10.851
55037W        W21446  31.549  28.037  11.589
55038W        W21447  17.620  25.520   4.364
55039W        W21448   9.163  20.935   1.995
55040W        W21449  15.255  32.906   1.064
55041W        W21450  11.634  16.207   3.265
55042W        W21451  17.791  25.323  11.113
55043W        W21452  22.975   8.363   4.071
55044W        W21453  22.067  25.286   3.192
55045W        W21454  19.028  38.664  13.127
55046W        W21455  37.794  37.366   3.732
55047W        W21456  28.428  39.972  10.740
55048W        W21457  38.216   5.387  11.989
55049W        W21458  23.461  33.696   4.187
55050W        W21459  30.670  24.593   3.728
55051W        W21460  41.340  11.453   1.625
55052W        W21461  36.872  21.801  11.552
55053W        W21462  13.189  22.973   0.613
55054W        W21463  23.766  24.901  12.091
55055W        W21464  15.325  43.603  11.533
55056W        W21465   9.933   4.960  12.868
55057W        W21466  41.016  43.373  13.781
55058W        W21467  35.990  26.204  13.350
55059W        W21468  35.894  20.609  13.597
55060W        W21469   6.294  14.845  10.701
55061W        W21470  21.079  30.551  12.810
55062W        W21471  25.502  12.398   4.005
55063W        W21472  22.494  18.284  14.967
55064W        W21473  28.654   7.426  11.124
55065W        W21474   2.369  10.826  14.895
55066W        W21475   0.288   0.401  13.817
55067W        W21476  34.702  40.757   3.248
55068W        W21477  10.601  30.546   0.863
55069W        W21478  25.758  23.983   3.423
55070W        W21479  27.290   3.631  13.490
55071W        W21480  29.890   5.937   3.715
55072W        W21481  13.415  12.279   3.690
55073W        W21482  13.730  26.976   2.148
55074W        W21483  44.444  37.901  14.258
55075W        W21484  27.400  21.645   0.288
55076W        W21485  30.993  25.986   2.332
55077W        W21486  35.448   7.979  14.812
55078W        W21487   9.679  33.602  13.505
55079W        W21488   4.764  26.867  12.992
55080W        W21489  40.566  26.438  12.926
55081W        W21490   1.389  19.218   3.169
55082W        W21491  36.025  21.062  11.073
55083W        W21492  21.587  34.875  12.420
55084W        W21493   5.689  34.445  11.056
55085W        W21494   0.897  16.283  11.009
55086W        W21495  16.097  20.869   0.680
55087W        W21496  19.593  28.765  11.688
55088W        W21497  26.057  39.826  12.856
55089W        W21498  25.806  43.532  10.564
55090W        W21499  32.632  38.359  12.586
55091W        W21500   0.748  39.247  13.409
55092W        W21501   9.882  14.844  14.324
55093W        W21502  36.331  17.735   9.775
55094W        W21503  28.941   6.799   4.057
55095W        W21504   9.262  32.418   2.879
55096W        W21505  43.120   8.645   3.778
55097W        W21506  13.806  21.422  13.906
55098W        W21507  40.485  25.177   1.966
55099W        W21508  27.471  32.649   3.757
55100W        W21509  31.479  40.122   0.317
55101W        W21510   1.950  42.378  11.070
55102W        W21511  17.487  36.321  11.226
55103W        W21512   1.974  44.238   3.003
55104W        W21513   8.404  20.947   4.028
55105W        W21514  13.163  13.307  13.036
55106W        W21515  29.592  27.561  12.064
55107W        W21516  37.588   7.890  11.227
55108W        W21517  14.718  39.967   2.432
55109W        W21518  16.807   7.862  14.942
55110W        W21519  36.305  26.085  12.028
55111W        W21520  36.550  34.091   4.461
55112W        W21521  20.154  33.984   1.774
55113W        W21522  13.405  30.476   5.301
55114W        W21523  24.921  22.754   1.806
55115W        W21524  34.011  14.172  12.598
55116W        W21525  35.687   5.676  14.884
55117W        W21526  15.739   1.289   0.430
55118W        W21527  43.297  23.448  12.224
55119W        W21528  15.194  39.105  13.492
55120W        W21529  23.663  21.637   1.394
55121W        W21530  40.559  20.793  11.185
55122W        W21531  21.566  23.712  11.988
55123W        W21532   9.200  13.994  12.854
55124W        W21533   6.744  42.300  12.643
55125W        W21534  15.760  22.880   5.070
55126W        W21535  12.612   9.351   4.001
55127W        W21536  32.309  30.000   0.881
55128W        W21537  39.005   4.824   3.912
55129W        W21538   4.228  36.082   3.741
55130W        W21539   6.230   0.896  12.366
55131W        W21540  42.731   1.796  14.348
55132W        W21541  36.827   8.391   0.758
55133W        W21542   8.898  14.571   0.939
55134W        W21543  25.697   4.009   1.710
55135W        W21544   6.654  31.412   2.879
55136W        W21545  24.048  39.900   1.822
55137W        W21546  33.461  11.844  13.513
55138W        W21547  28.225  39.822  12.407
55139W        W21548  14.561   7.294  14.007
55140W        W21549  21.696  43.316   2.761
55141W        W21550  14.698  42.048  13.839
55142W        W21551  22.200  30.180  10.786
55143W        W21552  15.479  12.631  12.140
55144W        W21553   2.538   1.565  10.518
55145W        W21554  21.023   5.837   1.189
55146W        W21555  36.877  37.206  12.091
55147W        W21556  23.975  34.990   1.201
55148W        W21557  20.339  25.979   3.302
55149W        W21558  23.215  28.996  12.100
55150W        W21559   5.318  11.074  12.442
55151W        W21560  44.832  42.390  11.969
55152W        W21561  35.778  26.730   4.107
55153W        W21562   8.116   3.332   4.133
55154W        W21563  28.018  16.295  14.718
55155W        W21564   0.173  19.579  10.633
55156W        W21565   5.510  18.736   4.782
55157W        W21566  30.218  28.936  11.566
55158W        W21567   2.362  32.437   2.132
55159W        W21568  29.779  43.241   3.617
55160W        W21569  26.495  28.935   1.723
55161W        W21570  42.724   3.852  12.130
55162W        W21571  27.709  30.020  12.103
55163W        W21572  23.217  32.180  13.833
55164W        W21573   4.736  23.517  10.628
55165W        W21574   2.194  34.468  10.777
55166W        W21575  15.637  41.112   4.442
55167W        W21576  30.353  36.109   1.706
55168W        W21577  21.192  16.317   0.329
55169W        W21578  44.900  27.243   1.223
55170W        W21579  31.986   0.755  13.920
55171W        W21580   2.265  20.088   3.393
55172W        W21581  12.358  13.648   3.062
55173W        W21582   2.167  44.333  12.991
55174W        W21583  37.098   9.406   1.381
55175W        W21584   4.512  32.168   2.853
55176W        W21585  42.926  29.155  11.198
55177W        W21586  10.438   1.532  14.786
55178W        W21587  17.160   9.475  13.750
55179W        W21588  38.310  21.271   5.128
55180W        W21589  31.562  12.358  12.098
55181W        W21590  33.819  41.229   4.253
55182W        W21591  12.822  19.092   4.659
55183W        W21592  20.990  37.919   4.249
55184W        W21593  42.264   6.209  10.446
55185W        W21594   9.640  18.747   0.498
55186W        W21595  36.945   3.658   0.930
55187W        W21596  19.596  14.227   0.755
55188W        W21597  42.681   8.969  11.467
55189W        W21598   3.993  25.255  14.797
55190W        W21599  42.275  39.482  11.592
55191W        W21600  29.519  31.897  10.803
55192W        W21601  18.027  34.479   2.389
55193W        W21602   9.308  16.088   4.947
55194W        W21603  30.286  17.168   4.134
55195W        W21604  28.562  25.562  11.690
55196W        W21605   4.750  44.404  14.041
55197W        W21606  42.933  13.182   2.705
55198W        W21607  23.096   0.445  11.297
55199W        W21608   2.691  37.979   4.462
55200W        W21609  11.636  40.933   1.286
55201W        W21610  12.231  30.166  14.986
55202W        W21611  25.030   3.824   2.679
55203W        W21612   4.306   0.459  14.327
55204W        W21613  33.042   9.878  11.143
55205W        W21614  11.337   8.172  13.994
55206W        W21615   2.349  39.981   2.104
55207W        W21616   2.920  20.086  10.488
55208W        W21617  40.011   0.337  14.696
55209W        W21618   0.407  39.555  13.165
55210W        W21619  20.035   4.822   4.086
55211W        W21620   4.194  29.042   1.907
55212W        W21621  24.303  19.819   3.592
55213W        W21622  43.908  28.585   1.763
55214W        W21623  30.080  15.646   0.039
55215W        W21624  21.488  25.545   0.464
55216W        W21625  22.798   3.852   2.858
55217W        W21626  22.345  13.886  14.964
55218W        W21627   0.207  19.121  12.157
55219W        W21628  29.135  22.409   0.461
55220W        W21629   1.275  13.066   0.468
55221W        W21630   1.230  25.809  12.933
55222W        W21631  25.845  23.899   3.980
55223W        W21632   1.253  36.855  12.973
55224W        W21633   9.224  25.675  14.263
55225W        W21634  14.630  16.126   4.932
55226W        W21635   5.367  44.846   2.443
55227W        W21636  11.316  24.106   1.666
55228W        W21637   1.378  20.487   1.910
55229W        W21638   2.885  32.186  10.722
55230W        W21639  26.955  32.968  10.503
55231W        W21640  29.599  42.319   2.825
55232W        W21641  11.792  29.443  11.705
55233W        W21642  20.933   7.780   1.725
55234W        W21643   6.665  44.990  11.026
55235W        W21644  26.938  14.303   2.359
55236W        W21645  41.999  33.086   4.497
55237W        W21646  32.099  39.986   2.413
55238W        W21647  33.656  29.708   0.173
55239W        W21648  17.750  22.809  13.012
55240W        W21649  27.483  18.684  12.895
55241W        W21650   0.126   5.595  11.589
55242W        W21651  40.947   3.737   0.031
55243W        W21652  32.005  23.572   3.626
55244W        W21653  20.034  31.433   1.189
55245W        W21654   4.443   5.204  14.585
55246W        W21655  42.300  30.679  13.383
55247W        W21656  33.186  35.902  12.779
55248W        W21657  44.485  30.362  11.277
55249W        W21658  42.880  16.743   3.182
55250W        W21659  23.565  23.239  10.950
55251W        W21660  24.338  24.696   0.302
55252W        W21661  32.126  16.559  14.776
55253W        W21662  40.476  13.482   3.690
55254W        W21663  31.213  11.433  14.899
55255W        W21664   6.488  23.650   3.654
55256W        W21665  14.951  20.120  11.492
55257W        W21666   7.906  41.878   3.594
55258W        W21667  28.668   7.147  12.023
55259W        W21668  10.001  40.281   4.538
55260W        W21669  42.535  32.172  14.889
55261W        W21670  27.213   7.486   2.725
55262W        W21671   6.672  30.061   3.421
55263W        W21672  13.199  38.264   0.200
55264W        W21673  13.785  13.031  13.017
55265W        W21674  23.348  44.822  11.780
55266W        W21675  32.490   5.699   2.419
55267W        W21676   4.729  20.163  11.866
55268W        W21677  12.366  17.888   2.078
55269W        W21678  39.892   2.904  12.861
55270W        W21679  15.766  21.101   2.367
55271W        W21680  37.464  19.088  14.289
55272W        W21681   5.370   0.963  10.621
55273W        W21682   7.961  39.749  11.686
55274W        W21683  36.478  14.503   2.478
55275W        W21684   1.798  28.413   2.748
55276W        W21685  23.205  13.845  14.988
55277W        W21686  30.400  19.073   1.359
55278W        W21687  37.279  11.766  12.519
55279W        W21688  29.804  11.372   2.723
55280W        W21689   3.226  37.001  10.936
55281W        W21690  16.710  26.181  12.038
55282W        W21691  33.202  16.222  13.734
55283W        W21692  32.328  28.451  13.998
55284W        W21693  26.928  22.570  12.518
55285W        W21694  22.192  12.575   3.308
55286W        W21695  14.306  31.125   1.363
55287W        W21696  18.289  38.576   4.620
55288W        W21697  14.838  37.260   1.913
55289W        W21698  10.406  26.511  14.529
55290W        W21699  19.851   1.735  11.224
55291W        W21700  28.491  30.645   1.840
55292W        W21701  36.721  10.395   0.425
55293W        W21702  17.169  37.927  11.716
55294W        W21703  31.062   8.892  14.396
55295W        W21704  15.742   0.394  12.820
55296W        W21705  14.100   6.419   1.684
55297W        W21706  41.318  44.437   0.803
55298W        W21707  14.849  32.699   0.388
55299W        W21708  22.354  32.421  14.527
55300W        W21709  31.825  23.566  10.529
55301W        W21710  21.694  41.707  10.749
55302W        W21711  34.955  21.255   5.243
55303W        W21712  36.153  33.044   3.191
55304W        W21713  12.834  21.717  14.772
55305W        W21714  11.770  35.722   2.106
55306W        W21715  29.924  18.290  14.551
55307W        W21716  41.519  43.709  14.300
55308W        W21717  44.662  36.438   1.405
55309W        W21718  20.260   8.672  10.673
55310W        W21719  37.063  14.187   4.674
55311W        W21720  27.055  34.923  10.926
55312W        W21721  24.511  33.217   1.874
55313W        W21722  33.088  33.312   1.660
55314W        W21723  17.015  42.262  14.387
55315W        W21724  22.860  44.363   1.502
55316W        W21725  27.753  30.568  13.331
55317W        W21726   2.038  19.519  13.975
55318W        W21727  23.320  37.771  12.457
55319W        W21728  14.793  25.659   4.779
55320W        W21729  44.189   6.792  13.646
55321W        W21730   0.675  11.412   3.165
55322W        W21731   5.162  33.489   0.360
55323W        W21732  10.348  15.243  11.227
55324W        W21733   7.320  37.602   3.936
55325W        W21734   3.174   4.521   3.355
55326W        W21735  13.370  44.816   1.412
55327W        W21736  42.305   4.768  12.088
55328W        W21737  38.390  17.308   4.163
55329W        W21738   1.841  36.646  14.084
55330W        W21739  16.768  43.909  10.091
55331W        W21740  24.275   7.358   0.305
55332W        W21741  42.319  10.334  14.295
55333W        W21742  24.759  19.101   2.724
55334W        W21743  27.105  41.062  10.419
55335W        W21744  37.762   7.844   1.526
55336W        W21745  23.062  43.456  14.927
55337W        W21746  17.827  32.344  11.963
55338W        W21747  31.588   1.680   1.471
55339W        W21748  21.791  14.069  14.421
55340W        W21749   3.024   1.748  13.096
55341W        W21750  33.923  17.344  11.125
55342W        W21751  10.522  15.223   4.335
55343W        W21752  40.041  12.633   0.894
55344W        W21753  14.239   8.712   1.626
55345W        W21754  29.607  17.612   0.943
55346W        W21755  12.222   9.434  13.524
55347W        W21756   8.078   8.632  13.132
55348W        W21757   9.796   8.281  14.971
55349W        W21758   3.173  39.935   4.163
55350W        W21759  44.581  29.088   0.763
55351W        W21760  31.811  36.626   2.794
55352W        W21761  12.337  41.879   3.882
55353W        W21762  13.860  33.895   3.321
55354W        W21763  29.959   3.370  10.545
55355W        W21764   9.821  11.686  10.766
55356W        W21765  17.799   7.369   1.303
55357W        W21766  21.574   6.941   2.732
55358W        W21767  41.985  22.615  12.990
55359W        W21768  12.897   0.769   1.560
55360W        W21769  29.180  36.140   0.895
55361W        W21770  41.395  18.526   1.353
55362W        W21771   5.250  44.775  11.082
55363W        W21772  21.166   1.401  12.956
55364W        W21773  21.786  28.658   3.167
55365W        W21774  15.644  19.023  10.452
55366W        W21775   8.190   8.988   1.486
55367W        W21776   2.026  32.912  13.388
55368W        W21777  26.191  20.052   1.837
55369W        W21778  34.623  27.885  10.668
55370W        W21779  43.942  40.104   4.436
55371W        W21780   8.387  36.598  12.936
55372W        W21781   7.180  11.810   1.301
55373W        W21782  32.578  23.613  12.056
55374W        W21783  20.110   8.831  12.557
55375W        W21784  19.770  37.303   2.450
55376W        W21785  16.100  16.222  14.231
55377W        W21786  20.190  15.476  12.896
55378W        W21787  15.705  44.879  10.067
55379W        W21788  20.087  18.254  12.089
55380W        W21789  42.504  16.694   4.053
55381W        W21790  10.312  40.532   2.833
55382W        W21791   3.242   6.871   1.805
55383W        W21792   7.203  38.561   2.386
55384W        W21793  42.527  34.959  11.159
55385W        W21794  28.489  23.954   1.381
55386W        W21795   6.397  34.986   1.021
55387W        W21796   9.882   3.509   3.801
55388W        W21797   2.804  15.093  11.631
55389W        W21798  28.034  25.600  14.253
55390W        W21799   4.324  40.766  12.689
55391W        W21800  41.569   2.464   4.896
55392W        W21801  14.698   0.408   2.643
55393W        W21802  16.660   2.494   2.876
55394W        W21803  22.241  12.187   4.570
55395W        W21804  17.401  31.877   2.788
55396W        W21805  14.068  42.523  12.631
55397W        W21806   4.851  41.843  14.745
55398W        W21807  16.629  33.256   2.220
55399W        W21808  38.149  37.228  13.178
55400W        W21809  13.193  36.725  11.707
55401W        W21810  14.147  17.023  11.058
55402W        W21811  36.977  43.170   2.419
55403W        W21812  22.739  36.993  10.557
55404W        W21813  32.351  24.466  13.032
55405W        W21814  38.789  15.722  10.673
55406W        W21815  13.649   0.243   3.333
55407W        W21816   5.607  44.964   3.622
55408W        W21817  19.061  39.401  10.707
55409W        W21818   0.471   9.690   0.827
55410W        W21819  12.708  29.726   4.160
55411W        W21820   4.038   3.240   0.061
55412W        W21821  34.616  15.401  14.461
55413W        W21822  41.034  17.550  13.912
55414W        W21823  11.954   0.757  11.851
55415W        W21824  26.592  41.964  13.548
55416W        W21825  18.621  20.306   4.697
55417W        W21826  44.748   4.786  14.027
55418W        W21827  10.751  26.261   0.331
55419W        W21828   2.114  30.006   1.971
55420W        W21829  26.529  22.943   2.180
55421W        W21830  36.045   9.425  14.972
55422W        W21831  19.131  39.827  12.025
55423W        W21832   8.839  14.275   4.245
55424W        W21833   3.315  15.533  12.391
55425W        W21834  44.309   8.805   2.884
55426W        W21835  21.809  24.243   2.793
55427W        W21836  29.126   9.893   1.288
55428W        W21837  24.395  42.943   2.587
55429W        W21838   0.309  38.887   1.744
55430W        W21839  17.079   6.047   0.887
55431W        W21840   1.230  13.824   4.869
55432W        W21841  36.751  28.688  11.103
55433W        W21842  44.463  32.741   3.701
55434W        W21843  32.546  20.816  12.389
55435W        W21844  39.907  43.214   3.217
55436W        W21845  33.464  16.098   1.808
55437W        W21846  44.328  37.076   0.363
55438W        W21847  19.546  25.546   3.228
55439W        W21848  41.298  44.028  14.938
55440W        W21849  22.952  30.030   0.044
55441W        W21850  35.151  12.252   2.282
55442W        W21851  26.258   7.322  12.157
55443W        W21852  39.288  15.323  10.579
55444W        W21853  20.783  26.160   4.280
55445W        W21854   1.985  14.463  11.568
55446W        W21855  34.819   4.820  12.725
55447W        W21856  36.348  28.009  14.936
55448W        W21857  41.498   5.882   2.101
55449W        W21858   4.759  34.225   2.708
55450W        W21859  35.649  36.220  14.310
55451W        W21860  18.215  17.597   3.322
55452W        W21861  30.038  17.707   1.237
55453W        W21862   0.346  34.210   2.155
55454W        W21863  11.176  10.914   1.811
55455W        W21864  43.547  32.606   0.993
55456W        W21865  21.572  32.089   3.249
55457W        W21866   2.490  35.247  11.006
55458W        W21867  42.235   3.756   2.105
55459W        W21868   7.915  44.811   1.398
55460W        W21869   1.431  35.619   0.276
55461W        W21870   2.918  22.168  14.841
55462W        W21871   5.757  20.998   2.490
55463W        W21872  27.490  11.414  13.045
55464W        W21873   3.760  31.183   0.905
55465W        W21874  29.744  15.327  12.012
55466W        W21875  20.050  35.566  10.394
55467W        W21876  40.917   2.512   1.876
55468W        W21877  32.676  39.855  12.921
55469W        W21878  31.918  42.813   0.421
55470W        W21879  20.505  44.229  10.246
55471W        W21880  25.027  31.627  12.494
55472W        W21881  42.457  37.938  12.426
55473W        W21882  12.530  16.389  11.255
55474W        W21883  10.108   6.141  14.847
55475W        W21884  11.383  26.281  11.537
55476W        W21885  14.395  14.299  13.787
55477W        W21886   0.234  11.376   0.241
55478W        W21887  11.781  43.774   4.895
55479W        W21888  28.125  35.652  10.209
55480W        W21889  22.212   8.966   3.297
55481W        W21890  42.501  13.684  11.181
55482W        W21891  35.688  13.154   3.793
55483W        W21892   7.942  16.154   2.189
55484W        W21893   0.893  28.186   4.143
55485W        W21894  44.965   1.256   1.939
55486W        W21895  24.079  39.796  13.822
55487W        W21896  10.176  20.080   3.226
55488W        W21897  42.484  27.908  13.717
55489W        W21898   2.192  17.497   3.187
55490W        W21899   4.332   3.389  12.823
55491W        W21900  20.184  37.433   0.712
55492W        W21901   9.339  28.621   1.304
55493W        W21902  29.730   6.500  12.548
55494W        W21903   6.421   6.354   3.523
55495W        W21904  35.550  22.390  13.419
55496W        W21905  33.508   9.109  11.109
55497W        W21906   2.396   3.418   5.113
55498W        W21907  30.571   9.831  11.144
55499W        W21908  44.531  26.702   3.254
55500W        W21909  24.206  41.123   0.773
55501W        W21910  18.769  11.830   4.921
55502W        W21911  36.808  21.716  14.772
55503W        W21912  30.976  41.223   0.741
55504W        W21913  20.594  20.956   2.372
55505W        W21914  24.444   6.437   0.320
55506W        W21915  21.279  17.576  13.790
55507W        W21916   7.988  32.850  13.070
55508W        W21917  18.762   3.024  13.998
55509W        W21918  40.153  40.080   4.465
55510W        W21919   3.293   7.351  12.506
55511W        W21920  42.815  36.354  13.601
55512W        W21921  22.817  33.143   4.405
55513W        W21922  15.314   9.413  11.717
55514W        W21923  34.845   6.145  10.173
55515W        W21924  44.271  20.649  11.367
55516W        W21925  16.133  10.970  12.439
55517W        W21926  32.042  24.969  10.866
55518W        W21927  33.047   8.751   1.296
55519W        W21928   9.866  30.890  14.427
55520W        W21929  32.101  37.566   1.259
55521W        W21930  31.483  13.985  12.847
55522W        W21931   3.805  19.340   1.607
55523W        W21932  16.324   2.496   0.799
55524W        W21933  30.077  30.128  12.619
55525W        W21934  41.892   8.291  12.069
55526W        W21935  18.706  27.149  13.792
55527W        W21936  25.625  41.745   3.630
55528W        W21937   8.273  28.422   2.199
55529W        W21938  23.618   7.709   1.647
55530W        W21939  19.669   4.288   3.305
55531W        W21940  11.293  18.554   0.662
55532W        W21941  39.122  25.954   4.747
55533W        W21942   0.821  26.653  12.820
55534W        W21943   4.402  25.451  14.487
55535W        W21944   2.241  26.665   4.253
55536W        W21945  23.967  32.163  14.853
55537W        W21946  22.604  10.368   3.852
55538W        W21947  26.898  36.362  11.153
55539W        W21948  18.071  33.514  10.695
55540W        W21949  14.224  40.321   3.385
55541W        W21950  32.648   1.865   0.155
55542W        W21951   2.559  44.495   1.238
55543W        W21952  20.777  38.613  13.383
55544W        W21953  13.977  26.018   2.376
55545W        W21954  27.837  10.414   4.970
55546W        W21955  41.490  42.336   0.237
55547W        W21956  13.661  15.708   1.347
55548W        W21957   0.723  19.241   0.754
55549W        W21958  28.436  12.882  11.228
55550W        W21959  38.510  41.462  14.495
55551W        W21960  19.056  22.704   3.194
55552W        W21961   6.477   9.177   0.005
55553W        W21962  10.375  20.781   2.414
55554W        W21963  20.784  19.169   3.766
55555W        W21964  30.642  38.161   1.715
55556W        W21965   4.053  10.403  12.866
55557W        W21966  26.837   3.965   4.066
55558W        W21967  10.435  36.525   3.780
55559W        W21968  42.908  33.053   2.603
55560W        W21969  21.920  19.322  11.905
55561W        W21970  42.618  18.089  13.361
55562W        W21971  36.241  13.124   4.525
55563W        W21972  16.299  40.978   2.817
55564W        W21973  19.503  16.663  11.553
55565W        W21974   0.215   9.938  13.369
55566W        W21975  42.069  39.484   4.650
55567W        W21976  10.806   2.790  14.954
55568W        W21977   0.602  26.398  12.418
55569W        W21978  32.925  18.094  10.510
55570W        W21979  18.833   7.863   2.881
55571W        W21980  20.819  33.874  10.734
55572W        W21981  34.751  31.792  12.980
55573W        W21982  11.406  11.835  12.046
55574W        W21983  31.936  18.763   0.995
55575W        W21984  42.256   6.888   1.226
55576W        W21985  26.673  11.150  11.563
55577W        W21986  15.520   9.449   1.474
55578W        W21987  40.977  44.230   2.318
55579W        W21988  28.666  10.780  14.006
55580W        W21989  29.345  27.022  11.277
55581W        W21990  22.251  27.043   3.578
55582W        W21991   0.716  17.507   9.907
55583W        W21992  21.747  12.737  11.838
55584W        W21993  10.625   2.880  14.064
55585W        W21994  13.402  29.465  12.245
55586W        W21995   2.882  34.445  12.691
55587W        W21996  27.585  36.937   4.259
55588W        W21997  39.520  31.138  14.891
55589W        W21998  28.651  22.829   3.199
55590W        W21999  14.398  27.907   1.748
55591W        W22000  39.902  25.599  13.158
55592W        W22001  14.986  10.078  13.261
55593W        W22002  42.916  32.092  13.566
55594W        W22003  43.754   4.228   0.492
55595W        W22004  12.850  20.656   4.859
55596W        W22005   7.875   0.177  10.099
55597W        W22006  39.532  42.588  13.391
55598W        W22007  42.805  37.062  14.904
55599W        W22008  40.997  26.113  12.314
55600W        W22009  37.107  44.675  14.072
55601W        W22010   4.371  40.571   4.707
55602W        W22011   1.959  41.050   1.789
55603W        W22012  27.798  38.487  13.484
55604W        W22013  44.301   7.171  14.044
55605W        W22014  30.233  29.991  12.135
55606W        W22015  20.735  34.580   0.740
55607W        W22016  35.697   6.050  10.917
55608W        W22017  14.205  37.012   1.944
55609W        W22018  25.988  15.802   3.371
55610W        W22019   1.831  38.512  10.785
55611W        W22020  24.051  11.748  11.621
55612W        W22021  44.745  11.837   0.822
55613W        W22022   8.819  20.486  12.435
55614W        W22023  38.551   3.046   2.263
55615W        W22024  25.129   7.943   2.788
55616W        W22025  12.098   7.688   2.456
55617W        W22026  16.064   0.402   4.132
55618W        W22027  23.747  44.092   0.614
55619W        W22028  28.284  38.456   1.884
55620W        W22029  34.389  11.170  12.462
55621W        W22030   1.353  40.481   2.333
55622W        W22031  24.212  21.186   3.178
55623W        W22032  23.698  34.051  13.843
55624W        W22033  40.581  40.382   2.812
55625W        W22034  34.636   1.445   2.448
55626W        W22035  38.225  21.065   1.922
55627W        W22036  31.998  44.711  12.064
55628W        W22037   9.903  41.274   0.244
55629W        W22038  39.472  42.685  10.796
55630W        W22039  16.851  28.901  11.929
55631W        W22040  33.192  23.209  13.195
55632W        W22041  15.683  16.540  14.218
55633W        W22042  39.660  17.272  11.914
55634W        W22043  21.317  44.103   4.093
55635W        W22044  12.334   8.867  11.126
55636W        W22045  42.945  13.059  12.180
55637W        W22046  28.886  11.820   4.168
55638W        W22047  31.093  37.319  14.676
55639W        W22048  41.936   6.744  14.312
55640W        W22049  12.380  14.960  10.688
55641W        W22050  31.546  28.416   4.753
55642W        W22051  41.904   1.760  13.804
55643W        W22052  40.435   0.798  11.270
55644W        W22053  37.862  40.769  10.573
55645W        W22054  39.546  17.511   0.465
55646W        W22055   5.713   5.519  13.059
55647W        W22056  44.524   2.723   2.640
55648W        W22057  25.577   2.488  13.439
55649W        W22058  17.282  40.265   3.062
55650W        W22059  37.133   1.611   1.959
55651W        W22060  24.060  25.260   4.579
55652W        W22061  42.618  18.159   2.135
55653W        W22062  20.090   6.632   4.567
55654W        W22063  26.692   0.803  13.992
55655W        W22064  10.749  40.193   4.020
55656W        W22065   9.841   1.236  12.352
55657W        W22066   7.801  21.504  11.825
55658W        W22067  38.346  38.816   1.856
55659W        W22068  44.960  17.821   0.299
55660W        W22069  34.502   0.010   1.466
55661W        W22070  17.209  14.542  10.664
55662W        W22071  35.883  31.405   2.232
55663W        W22072  30.942  17.605   2.949
55664W        W22073  20.367   5.902  10.701
55665W        W22074   5.898  26.508   1.693
55666W        W22075  28.011  20.667  12.373
55667W        W22076  16.586  30.590  14.821
55668W        W22077  44.765  13.731  11.582
55669W        W22078  17.022  17.415  12.440
55670W        W22079  36.958  42.286  11.772
55671W        W22080  32.322  15.288  10.327
55672W        W22081   0.399  30.252  14.021
55673W        W22082  27.286   0.176  10.546
55674W        W22083  32.654  12.038   4.149
55675W        W22084  23.721   7.870   0.746
55676W        W22085  33.431  43.278   3.386
55677W        W22086  37.435  11.233   0.779
55678W        W22087  28.906  34.290   4.321
55679W        W22088   9.567   3.304   0.965
55680W        W22089   2.882   8.948  12.405
55681W        W22090  32.973  16.187  10.681
55682W        W22091  13.351  31.919   4.579
55683W        W22092   1.631  24.976  12.878
55684W        W22093   2.881  38.030  12.045
55685W        W22094  11.222  25.509   0.378
55686W        W22095  17.734  16.060   0.459
55687W        W22096  37.759  43.167  12.948
55688W        W22097   6.269  28.931  11.546
55689W        W22098  34.906  17.043  12.882
55690W        W22099   5.804   7.811  14.236
55691W        W22100  31.644  25.135   2.374
55692W        W22101   6.882   0.903   1.245
55693W        W22102  17.598  34.103   1.366
55694W        W22103  14.670   3.164  11.116
55695W        W22104  43.845  38.258  13.831
55696W        W22105  19.779  34.499  12.601
55697W        W22106  34.074   2.950   1.351
55698W        W22107  34.884  22.533   4.518
55699W        W22108  10.909  44.777   3.433
55700W        W22109  32.067  38.751  13.503
55701W        W22110  11.451   7.185   3.579
55702W        W22111  38.304   1.704   0.274
55703W        W22112  21.704   8.163   4.673
55704W        W22113  20.121  19.365   3.249
55705W        W22114  26.743  15.707   2.659
55706W        W22115  40.079  33.392   0.618
55707W        W22116   0.694  36.955  11.418
55708W        W22117  18.836   6.136   3.390
55709W        W22118  12.386  39.008   0.597
55710W        W22119  34.991  10.722   0.885
55711W        W22120  39.444   0.391   3.431
55712W        W22121  19.390  30.901  12.524
55713W        W22122  40.245  32.155  11.146
55714W        W22123   5.836  31.500  11.527
55715W        W22124  13.647  39.409   4.677
55716W        W22125  21.640   9.751  14.435
55717W        W22126   5.507   0.320   3.215
55718W        W22127   5.659  43.879   4.470
55719W        W22128  23.097   7.133  13.414
55720W        W22129  20.904  30.166   3.229
55721W        W22130   2.914   1.914  10.874
55722W        W22131   7.358  14.818   3.739
55723W        W22132   5.799   4.543  10.740
55724W        W22133  42.855  23.804   4.268
55725W        W22134  22.807   4.546   2.363
55726W        W22135  14.351  25.733   2.628
55727W        W22136  30.649   9.330  11.190
55728W        W22137  43.429  29.632  14.691
55729W        W22138  28.716  23.143   4.152
55730W        W22139  37.607  28.342   0.889
55731W        W22140   8.121  40.212   0.329
55732W        W22141  27.422  26.052  14.416
55733W        W22142  20.516  28.405  10.742
55734W        W22143  33.107   3.775   1.842
55735W        W22144  23.164  30.913   0.267
55736W        W22145  26.238  16.089  14.828
55737W        W22146  13.260  18.395  14.307
55738W        W22147  35.510  27.754   4.111
55739W        W22148  21.020   5.705   2.162
55740W        W22149   5.426  42.742   2.419
55741W        W22150  34.039  31.650   4.428
55742W        W22151  19.168  25.416   2.252
55743W        W22152  43.246  33.334   3.808
55744W        W22153   0.817  41.803   0.537
55745W        W22154   5.385  16.897  12.608
55746W        W22155  19.383  30.554  10.782
55747W        W22156  10.500   2.362   0.001
55748W        W22157   3.464  19.697  11.672
55749W        W22158  38.255  40.458  11.988
55750W        W22159  24.158  26.122  13.321
55751W        W22160  12.877  39.438  14.071
55752W        W22161  22.101  18.326   2.850
55753W        W22162  33.440   1.981  10.703
55754W        W22163  43.134   5.608   4.957
55755W        W22164  14.357   5.157   0.321
55756W        W22165  14.764  37.800  11.571
55757W        W22166  39.602   0.887   3.591
55758W        W22167  35.851  36.542  12.967
55759W        W22168  29.849   1.314   2.686
55760W        W22169  25.997  39.781  14.021
55761W        W22170  13.292  34.451   0.897
55762W        W22171   7.482  23.921  14.376
55763W        W22172   0.398  25.727   0.232
55764W        W22173  29.261  37.302   3.285
55765W        W22174  30.185  21.246   4.100
55766W        W22175   8.212   0.264   4.239
55767W        W22176  31.156  37.478   1.124
55768W        W22177   8.313  44.809  13.596
55769W        W22178  25.421   5.324  11.903
55770W        W22179  35.178  26.480   0.508
55771W        W22180  44.851  32.955  13.899
55772W        W22181  25.705   0.837   3.735
55773W        W22182  42.489  23.172  12.377
55774W        W22183  44.840   7.845   4.542
55775W        W22184  17.335  31.337  11.111
55776W        W22185  12.223  19.495  11.030
55777W        W22186  26.317  33.908  10.526
55778W        W22187  35.123  24.250  11.563
55779W        W22188   9.962  26.006  13.996
55780W        W22189   6.267  13.813  14.303
55781W        W22190  32.816   6.859   3.193
55782W        W22191  21.155  40.053   3.734
55783W        W22192  31.869   4.734   1.188
55784W        W22193   6.135  40.084  12.345
55785W        W22194   9.193   1.424  11.151
55786W        W22195  37.797  43.902   1.758
55787W        W22196  44.768  18.114   3.678
55788W        W22197  11.940  28.592   0.768
55789W        W22198   3.030  41.316   1.722
55790W        W22199  31.186  10.262  12.493
55791W        W22200  39.013   5.787   3.445
55792W        W22201  41.888  18.475   1.139
55793W        W22202   4.377  17.645   4.843
55794W        W22203  37.481  42.800   2.861
55795W        W22204  44.544   0.558  10.790
55796W        W22205  18.066   5.424  10.595
55797W        W22206   5.699  28.862  10.246
55798W        W22207  35.328  27.102   1.448
55799W        W22208   3.607   3.026  14.100
55800W        W22209  43.195  17.982  14.768
55801W        W22210   9.370   4.698   3.203
55802W        W22211  34.846  13.755   3.247
55803W        W22212  27.599  10.924  12.888
55804W        W22213  25.501  19.505   0.739
55805W        W22214   6.922  16.837  10.995
55806W        W22215  16.713   9.648   0.318
55807W        W22216  18.849  41.054   3.181
55808W        W22217  33.946   7.271   2.905
55809W        W22218  44.832   2.315   1.918
55810W        W22219   5.484   3.978   2.837
55811W        W22220  24.935  12.609  10.687
55812W        W22221  25.154  26.177   3.602
55813W        W22222  40.994  43.717   4.926
55814W        W22223  34.931  17.133   0.318
55815W        W22224  28.666  12.118  12.928
55816W        W22225   8.308  16.736   0.784
55817W        W22226  17.874  25.977   2.104
55818W        W22227  41.016  20.666  14.943
55819W        W22228   4.748  40.805   0.832
55820W        W22229  43.886  18.679  10.677
55821W        W22230   1.847   4.190  13.006
55822W        W22231  24.917  11.164  13.462
55823W        W22232  18.221  18.029   0.705
55824W        W22233  37.334  38.814   0.839
55825W        W22234  10.764  30.761  10.153
55826W        W22235  42.466  41.605  10.942
55827W        W22236  20.830  32.406   4.882
55828W        W22237   2.501  15.846  13.426
55829W        W22238  10.497  31.906   5.166
55830W        W22239  39.090  28.953  10.668
55831W        W22240  22.915  41.038  13.770
55832W        W22241  12.017  19.175  13.499
55833W        W22242  28.945  18.533  11.571
55834W        W22243  42.794  22.509  14.305
55835W        W22244  23.419  37.553   1.195
55836W        W22245  13.155  18.064  11.363
55837W        W22246  37.394  42.625   2.368
55838W        W22247  26.068  32.817  12.503
55839W        W22248  34.192  39.015  10.254
55840W        W22249  10.214   3.553   4.499
55841W        W22250   8.335   7.241  11.915
55842W        W22251  36.963   9.392  14.987
55843W        W22252  34.177  18.648  12.103
55844W        W22253  21.356  22.659   4.467
55845W        W22254  15.627  17.753   2.340
55846W        W22255  41.354  22.680  11.486
55847W        W22256  36.084  10.838  11.542
55848W        W22257  17.800  11.097  11.175
55849W        W22258  26.889  24.430  13.342
55850W        W22259  20.730   4.720  12.943
55851W        W22260   9.351  30.510   4.496
55852W        W22261  43.380  44.870  10.640
55853W        W22262  26.772   5.824   0.470
55854W        W22263   4.966   8.592   0.359
55855W        W22264  24.428   3.306  11.161
55856W        W22265  29.188  19.105   2.345
55857W        W22266   3.885  26.575   2.785
55858W        W22267  35.094   6.145  12.824
55859W        W22268  16.177  14.548  12.701
55860W        W22269  39.429   5.488  10.732
55861W        W22270  32.534   7.384  13.443
55862W        W22271  22.096  24.691   4.902
55863W        W22272  35.780  11.336   5.034
55864W        W22273  12.890  31.078   4.502
55865W        W22274   4.993   3.824   2.742
55866W        W22275  43.224   4.779   1.193
55867W        W22276  34.649  43.618   4.828
55868W        W22277   4.590  41.698   3.653
55869W        W22278   3.804  39.299  14.059
55870W        W22279  28.688  44.408  10.787
55871W        W22280   7.624  17.747  12.340
55872W        W22281  33.945  16.036  14.804
55873W        W22282  14.349   9.924  10.149
55874W        W22283  38.377  31.805  10.883
55875W        W22284  13.568  42.630  12.612
55876W        W22285  43.530  33.555   2.881
55877W        W22286   3.375   5.376   1.897
55878W        W22287  19.703  22.676  10.696
55879W        W22288  12.742  41.027   2.682
55880W        W22289   2.320  20.163   0.296
55881W        W22290   2.764  38.665  11.566
55882W        W22291  18.267  32.971   1.384
55883W        W22292  21.232  37.791  12.065
55884W        W22293  13.300  16.443   3.933
55885W        W22294   9.648  44.392   3.769
55886W        W22295  41.710  36.115   3.417
55887W        W22296  25.763  10.829   1.737
55888W        W22297  23.860  21.608   2.855
55889W        W22298  12.356  29.333  12.914
55890W        W22299  38.740   3.959  12.054
55891W        W22300  27.423  30.510   1.666
55892W        W22301  29.931  25.518   1.297
55893W        W22302  10.825  44.072  14.050
55894W        W22303  12.278  26.071   4.441
55895W        W22304  36.393  27.891   3.772
55896W        W22305  12.831  35.556  11.842
55897W        W22306  31.372  16.731  10.785
55898W        W22307  36.555  42.719  13.662
55899W        W22308  19.128   2.511   4.592
55900W        W22309  26.398   4.840  13.581
55901W        W22310  38.191  43.440  10.459
55902W        W22311   7.471   2.720  11.601
55903W        W22312  31.593  37.584   3.826
55904W        W22313  35.895  26.168   0.040
55905W        W22314   6.678   7.817   0.913
55906W        W22315  36.849   7.866  11.521
55907W        W22316  31.636  28.302  14.795
55908W        W22317  18.687   8.073  11.507
55909W        W22318  40.880  20.599  10.448
55910W        W22319  25.174  22.973  14.929
55911W        W22320  23.671   7.134  14.423
55912W        W22321   2.416   2.670  13.416
55913W        W22322  21.338  23.992   2.790
55914W        W22323  16.589   2.709  13.801
55915W        W22324   2.938  21.019  10.703
55916W        W22325  15.540  22.866  10.242
55917W        W22326  33.125  28.620  11.381
55918W        W22327  42.494  29.694   2.854
55919W        W22328  12.566   4.853   1.367
55920W        W22329   5.281   5.684   2.365
55921W        W22330  33.084  39.549   0.255
55922W        W22331   6.353  32.632  14.421
55923W        W22332   1.296  11.118   3.197
55924W        W22333   9.252   9.346  14.242
55925W        W22334  12.556   5.213  13.932
55926W        W22335  38.407   9.733  14.796
55927W        W22336  21.679  32.955   0.711
55928W        W22337   0.833  40.307   3.226
55929W        W22338  18.032  22.691   1.164
55930W        W22339  27.626  37.353   3.633
55931W        W22340  17.292  31.958  11.629
55932W        W22341   8.301   5.873   2.880
55933W        W22342   6.328  35.149  12.243
55934W        W22343   2.893  25.415  14.172
55935W        W22344  41.001  11.876   4.570
55936W        W22345   1.400  12.160  12.337
55937W        W22346   9.170  40.856   4.059
55938W        W22347   5.899  29.969   0.239
55939W        W22348   8.428   5.449  11.581
55940W        W22349  39.012  40.365  11.082
55941W        W22350   7.125  30.471  12.513
55942W        W22351  36.137   4.810   4.599
55943W        W22352  18.527  22.477  11.351
55944W        W22353  29.361   4.358  11.751
55945W        W22354  41.037  39.102   2.160
55946W        W22355  31.833   8.540  11.682
55947W        W22356  10.408  20.409  11.531
55948W        W22357   1.302  15.660   4.870
55949W        W22358  37.070  30.935  13.045
55950W        W22359  42.179  42.164   3.313
55951W        W22360  22.670  37.682  14.427
55952W        W22361  40.827   1.727  10.626
55953W        W22362  36.641  30.806  13.313
55954W        W22363   7.917  27.646  11.250
55955W        W22364  16.062  30.622  14.825
55956W        W22365  28.059  14.309  12.163
55957W        W22366   7.341   8.661  12.177
55958W        W22367  10.703  31.085   2.735
55959W        W22368   1.220   2.406  13.721
55960W        W22369   8.192  31.425   4.524
55961W        W22370  26.697  27.105  13.031
55962W        W22371  31.905  33.091  14.262
55963W        W22372  13.643  36.681   3.729
55964W        W22373  33.520  24.075  14.183
55965W        W22374  23.156  15.093   2.813
55966W        W22375  30.048  29.538   3.208
55967W        W22376   8.221  29.780   2.529
55968W        W22377  42.555  39.236   1.753
55969W        W22378  39.219  28.000  12.121
55970W        W22379  38.562  15.603  12.000
55971W        W22380  42.251  36.099   0.987
55972W        W22381  34.422  39.113  13.047
55973W        W22382  29.947  23.323  12.819
55974W        W22383  30.666  14.089   1.797
55975W        W22384   1.668   8.529  14.384
55976W        W22385   3.816  41.253  11.501
55977W        W22386  22.697  15.502   1.358
55978W        W22387  26.130  29.614   5.289
55979W        W22388  19.273  25.104  11.534
55980W        W22389  44.964  40.194  13.278
55981W        W22390  33.477  30.883  13.087
55982W        W22391   7.432  28.219   2.734
55983W        W22392  11.103  41.970   4.162
55984W        W22393  11.256  14.744  12.121
55985W        W22394   0.251  17.790   4.543
55986W        W22395  19.466   7.734   0.750
55987W        W22396   2.079  30.065  14.751
55988W        W22397  18.079   8.255  13.878
55989W        W22398  29.983  25.264   2.295
55990W        W22399  26.998  19.548  13.808
55991W        W22400  33.569  44.854   1.700
55992W        W22401  38.047  24.008  12.493
55993W        W22402  37.730  10.503   0.188
55994W        W22403  29.733  30.088  14.443
55995W        W22404   6.745  44.950  13.463
55996W        W22405  16.724  25.959  11.567
55997W        W22406  28.184   8.651  12.871
55998W        W22407  15.766  19.992  14.733
55999W        W22408   3.814  15.604  14.022
56000W        W22409  35.514  31.512  14.731
56001W        W22410   3.515   4.198  14.962
56002W        W22411  20.127  38.239  11.857
56003W        W22412  22.417  16.785  13.907
56004W        W22413  19.569  31.941   0.220
56005W        W22414  37.018  36.081  11.223
56006W        W22415  42.402   4.042   0.358
56007W        W22416  24.048   3.242   2.913
56008W        W22417  36.872   0.219  11.565
56009W        W22418  31.297  13.123   4.843
56010W        W22419  18.785  13.322  13.025
56011W        W22420  19.092  40.281   2.159
56012W        W22421  22.070  28.176  13.797
56013W        W22422   4.875   9.680   4.585
56014W        W22423  42.298  40.059  14.253
56015W        W22424  27.879  32.740   2.063
56016W        W22425  24.604  42.642  14.372
56017W        W22426  34.023  38.439  14.401
56018W        W22427  40.081  38.065  10.839
56019W        W22428  41.953  21.000  14.268
56020W        W22429  11.729  36.745  11.806
56021W        W22430  27.936  28.037  10.655
56022W        W22431   0.795   9.188   0.700
56023W        W22432  44.466   4.191   2.370
56024W        W22433  32.675   7.838   1.450
56025W        W22434  36.482  25.454   2.249
56026W        W22435  34.627  33.224  14.956
56027W        W22436  27.677  33.989   2.435
56028W        W22437   3.829  10.151   4.547
56029W        W22438  36.649  29.706   2.411
56030W        W22439   3.854  27.125  13.573
56031W        W22440   5.873  12.060   0.198
56032W        W22441  34.107   9.918  13.180
56033W        W22442  22.680  39.949   3.358
56034W        W22443   9.121  24.475  13.925
56035W        W22444  19.031  23.855  10.397
56036W        W22445  15.155  16.829   3.321
56037W        W22446  25.038  27.943   4.193
56038W        W22447  30.901  11.140  13.969
56039W        W22448  13.871  41.250  12.043
56040W        W22449  38.013   9.749  12.887
56041W        W22450  36.411   3.898  11.614
56042W        W22451  44.872  16.732   3.715
56043W        W22452   0.085   6.299   9.893
56044W        W22453  44.579  10.555  12.475
56045W        W22454  37.397  26.125   0.181
56046W        W22455  26.759  16.758   3.565
56047W        W22456  31.177   1.330  10.659
56048W        W22457  30.919  24.494   3.161
56049W        W22458  23.483  36.670  13.566
56050W        W22459   4.413   4.253   3.572
56051W        W22460  43.182   5.743   3.074
56052W        W22461   2.769  33.894   4.366
56053W        W22462   1.516  40.771   1.705
56054W        W22463  32.563  39.559   1.433
56055W        W22464  11.417  43.196   9.679
56056W        W22465  34.129   6.196  11.407
56057W        W22466  23.562   5.318   4.542
56058W        W22467  27.165  21.040   1.829
56059W        W22468  27.002  15.164  14.167
56060W        W22469   1.612  16.032   0.667
56061W        W22470  36.035   2.746   0.473
56062W        W22471   3.233  21.592  11.435
56063W        W22472   7.288   6.832  14.562
56064W        W22473  26.684  18.015  14.426
56065W        W22474  10.000  43.173   1.770
56066W        W22475   7.912   3.502   1.982
56067W        W22476   4.454  42.878  14.452
56068W        W22477  25.718  18.616   0.291
56069W        W22478  20.711  39.122  13.283
56070W        W22479  25.609  16.624   0.449
56071W        W22480  12.372  24.706   2.316
56072W        W22481   7.632   3.226  10.683
56073W        W22482  12.543  33.995   1.779
56074W        W22483  15.237  23.789   2.165
56075W        W22484  43.298  18.716   1.796
56076W        W22485  35.600  39.175  13.470
56077W        W22486  29.097  26.339  10.814
56078W        W22487  28.638   2.422   1.429
56079W        W22488   3.644  41.510  14.378
56080W        W22489  18.513  36.697   1.365
56081W        W22490  30.350  26.746   5.059
56082W        W22491  44.493  40.243   3.724
56083W        W22492  34.354  27.436  13.752
56084W        W22493  34.793  42.564   2.706
56085W        W22494  37.907  22.552   2.625
56086W        W22495  29.226  35.297   3.206
56087W        W22496  36.664  17.181   0.422
56088W        W22497  18.327  27.141   4.827
56089W        W22498   5.450  24.526  11.908
56090W        W22499  40.558  41.967  12.920
56091W        W22500  16.671  25.476   3.668
56092W        W22501  16.704  41.815  11.211
56093W        W22502  37.769  42.071   3.247
56094W        W22503  41.565   3.510   4.246
56095W        W22504  10.358  10.171   1.265
56096W        W22505   2.465   8.263   4.230
56097W        W22506  11.630   1.141   4.304
56098W        W22507   1.386  38.621   2.854
56099W        W22508  13.284   1.770   3.649
56100W        W22509  14.274  20.711   0.778
56101W        W22510  10.650  37.366  11.175
56102W        W22511  43.846   5.296  13.567
56103W        W22512  18.967  19.210  14.287
56104W        W22513   6.901  14.316   1.268
56105W        W22514  31.175  11.946   1.671
56106W        W22515  25.620   9.402  14.273
56107W        W22516   6.872  17.632  14.009
56108W        W22517  12.154  17.180  11.460
56109W        W22518   6.490  20.686   0.513
56110W        W22519  19.979   8.315  11.054
56111W        W22520  28.238  12.803  13.942
56112W        W22521  23.951  27.416  14.501
56113W        W22522  21.032  29.088   1.429
56114W        W22523  37.901  36.319  10.433
56115W        W22524   7.360  27.198  10.109
56116W        W22525  39.093  30.077   4.281
56117W        W22526   1.452  34.026  10.818
56118W        W22527  43.907  10.839   5.282
56119W        W22528   0.455  35.768  12.937
56120W        W22529   2.396  26.675  14.357
56121W        W22530  42.913  21.122   1.867
56122W        W22531   7.428  39.042   3.323
56123W        W22532   7.917   2.018   0.991
56124W        W22533  40.044   0.200   3.182
56125W        W22534  44.068  31.302   4.451
56126W        W22535  35.577  34.087  10.520
56127W        W22536  38.420   5.884  11.108
56128W        W22537   1.512  39.918  14.880
56129W        W22538   8.952  28.195  13.464
56130W        W22539  14.693  26.423   2.600
56131W        W22540  36.902  18.570   1.367
56132W        W22541  43.937   4.403   0.981
56133W        W22542  18.512  31.532   3.786
56134W        W22543  40.162  44.305   9.927
56135W        W22544  30.388  36.160  14.527
56136W        W22545   0.932  14.440  13.361
56137W        W22546  34.118  32.892  11.747
56138W        W22547  28.410  14.360   2.362
56139W        W22548  41.851   5.348  14.727
56140W        W22549  44.117  42.515  12.489
56141W        W22550   3.145  17.584   3.645
56142W        W22551   9.227   6.846   1.705
56143W        W22552   6.702  31.846  13.487
56144W        W22553  37.504  10.727   3.195
56145W        W22554  33.144  27.965   3.516
56146W        W22555  21.813  29.978  12.566
56147W        W22556  12.066  44.031   0.931
56148W        W22557  36.423  23.830  13.942
56149W        W22558  10.856  42.947   3.834
56150W        W22559  19.653  18.894   1.773
56151W        W22560  25.238   0.778   1.374
56152W        W22561  42.961  42.994   0.505
56153W        W22562  16.068  41.485   9.691
56154W        W22563  33.704   8.402   1.792
56155W        W22564   2.398  43.567   4.602
56156W        W22565  30.249  15.781  10.651
56157W        W22566  33.558  11.231   3.220
56158W        W22567  18.256   6.894  13.923
56159W        W22568   5.797  29.557  11.049
56160W        W22569  22.645  35.175   4.127
56161W        W22570  32.477  16.152  10.465
56162W        W22571   2.737  22.035  12.546
56163W        W22572   4.983  26.130   0.819
56164W        W22573   4.233  16.061  12.356
56165W        W22574   7.127  25.645   4.531
56166W        W22575  31.886  20.288   3.718
56167W        W22576   7.673  26.930   3.187
56168W        W22577  26.054  17.992   2.130
56169W        W22578   7.671  24.556  12.857
56170W        W22579  39.259  43.071   3.651
56171W        W22580  10.708  28.625   3.822
56172W        W22581  27.386   5.690   2.748
56173W        W22582  15.540  35.934  14.865
56174W        W22583  27.064   9.721  12.935
56175W        W22584  34.465  40.118   1.036
56176W        W22585   9.628   3.862  10.749
56177W        W22586  30.177  41.822  14.748
56178W        W22587  17.174  42.774   1.662
56179W        W22588   5.460  38.245   4.165
56180W        W22589  40.344  22.567  11.479
56181W        W22590  32.936   4.472   1.791
56182W        W22591  38.551   1.232   0.368
56183W        W22592  18.804   1.872   1.290
56184W        W22593  35.092   7.257  12.874
56185W        W22594  39.663   1.282  12.980
56186W        W22595   1.059  27.275  14.866
56187W        W22596  43.023  41.839  12.163
56188W        W22597  30.844  16.631   4.700
56189W        W22598   8.123  20.288   3.383
56190W        W22599   0.830  23.097  13.018
56191W        W22600  11.887  41.381  10.414
56192W        W22601   6.325  21.233   2.742
56193W        W22602   1.423   4.785   4.682
56194W        W22603  42.115  30.492   3.310
56195W        W22604  27.575  43.601  12.453
56196W        W22605  41.535  16.137   4.604
56197W        W22606   1.459   5.226   2.791
56198W        W22607  36.828  41.265   2.215
56199W        W22608  19.087  13.709  13.285
56200W        W22609  38.365  10.536  11.904
56201W        W22610  30.045  23.103  13.253
56202W        W22611   6.661   4.247   2.227
56203W        W22612  34.822  24.729  10.665
56204W        W22613  15.553   2.478   4.966
56205W        W22614  44.232   5.968  11.114
56206W        W22615   0.853  42.960   1.492
56207W        W22616   0.873  13.196  11.617
56208W        W22617   1.511  32.090  10.722
56209W        W22618  22.626   8.584  14.314
56210W        W22619  27.252  34.588   3.688
56211W        W22620  31.809  19.505  14.766
56212W        W22621  31.048  24.276  12.049
56213W        W22622   1.679  17.793  12.110
56214W        W22623  33.543  19.946   4.128
56215W        W22624  21.353  41.410   4.215
56216W        W22625  21.864  16.205  13.044
56217W        W22626  26.551   2.612   0.313
56218W        W22627  43.899  39.347  11.617
56219W        W22628  10.689  42.946   4.937
56220W        W22629  15.089   9.584   1.217
56221W        W22630  35.107   5.133  12.411
56222W        W22631  25.487  33.121   4.788
56223W        W22632  43.399  12.250   9.969
56224W        W22633  30.374  18.681   2.833
56225W        W22634   3.899  22.248   3.814
56226W        W22635  39.043  29.778   3.460
56227W        W22636  12.846   6.837   3.677
56228W        W22637  33.417   9.856  13.904
56229W        W22638  21.589  38.183  14.358
56230W        W22639  42.524  19.161   0.024
56231W        W22640   7.835  34.577  11.161
56232W        W22641  42.255   7.419   3.310
56233W        W22642  44.245   2.767   2.221
56234W        W22643  39.569  17.993  12.438
56235W        W22644  41.847  27.405   4.548
56236W        W22645  35.422  23.085  11.178
56237W        W22646  32.925   4.572   4.227
56238W        W22647   4.914   4.393   1.870
56239W        W22648   0.553   8.703   0.965
56240W        W22649  42.714  16.596  12.519
56241W        W22650  32.935   4.760   2.273
56242W        W22651  37.508  16.621   0.404
56243W        W22652  21.766   3.713  12.190
56244W        W22653   7.312  16.556   3.181
56245W        W22654  14.981   3.000   1.238
56246W        W22655  27.749  17.323   2.818
56247W        W22656  22.103  23.927  10.247
56248W        W22657  24.580  10.084  12.522
56249W        W22658   1.723   8.426   3.836
56250W        W22659  28.361  35.275  12.937
56251W        W22660   7.608  34.865  13.856
56252W        W22661  44.545  17.588   0.469
56253W        W22662  20.040  18.429  13.094
56254W        W22663  19.529  11.319  14.948
56255W        W22664  24.112  13.367  10.799
56256W        W22665  26.783  24.767   2.812
56257W        W22666  23.174  35.056  12.969
56258W        W22667  13.600  35.943  14.573
56259W        W22668   6.571   8.160   1.793
56260W        W22669  44.263  38.534   3.246
56261W        W22670  42.216   3.671   1.258
56262W        W22671  23.226  22.560  14.418
56263W        W22672   9.736  12.332   2.569
56264W        W22673  37.401  11.916   2.780
56265W        W22674  26.379  36.427  11.139
56266W        W22675   4.369   8.866   3.247
56267W        W22676   8.215  37.143  14.074
56268W        W22677  15.182  16.256  12.828
56269W        W22678  28.982  44.404  14.577
56270W        W22679   5.957  41.811  11.014
56271W        W22680  35.399  19.132   3.878
56272W        W22681  10.033  39.474   0.206
56273W        W22682  38.444   0.165   3.696
56274W        W22683   7.690  13.223  11.448
56275W        W22684  44.567   1.972  10.781
56276W        W22685  23.870  34.898   1.984
56277W        W22686  12.780   3.370   2.817
56278W        W22687   1.770   6.658   2.885
56279W        W22688  12.698  20.176   4.511
56280W        W22689  26.407  34.360  10.909
56281W        W22690  29.803  41.411  10.321
56282W        W22691  26.676  36.844   3.821
56283W        W22692   6.670  16.926  13.023
56284W        W22693  33.868  12.810  14.435
56285W        W22694  30.581   9.096  13.363
56286W        W22695  24.376  28.898  13.579
56287W        W22696   4.288  22.768  14.163
56288W        W22697  37.436  19.894   0.530
56289W        W22698   3.564  38.585  11.936
56290W        W22699  11.698  14.106   0.427
56291W        W22700  29.008   4.313   0.271
56292W        W22701   4.387  30.841  11.266
56293W        W22702  12.349  38.973   0.077
56294W        W22703  24.039  19.217  13.523
56295W        W22704  11.370  23.028   2.830
56296W        W22705  36.065  32.655  11.112
56297W        W22706  14.587  22.680  13.764
56298W        W22707  20.505  17.005   4.192
56299W        W22708  37.086   1.445   1.390
56300W        W22709  37.761  23.956   9.883
56301W        W22710  16.401  15.170  10.597
56302W        W22711  16.133  19.279  14.539
56303W        W22712  34.354  25.962   3.101
56304W        W22713  17.176  30.750   1.269
56305W        W22714  16.864  15.877  14.896
56306W        W22715  28.377  38.434   2.811
56307W        W22716  30.512  35.481   1.331
56308W        W22717  19.898  30.625  10.791
56309W        W22718   4.317  10.274  11.929
56310W        W22719  12.775  25.386  14.062
56311W        W22720  42.416  35.865   2.856
56312W        W22721  21.308  31.535  14.739
56313W        W22722   9.896  35.977   0.830
56314W        W22723   5.855   6.309  13.559
56315W        W22724  21.610  40.070   0.004
56316W        W22725  40.372  33.491   4.348
56317W        W22726  36.357   0.071   2.692
56318W        W22727  19.751  35.531   4.294
56319W        W22728   7.237  18.811   2.696
56320W        W22729  18.345  13.142  14.013
56321W        W22730   5.799   9.259   3.308
56322W        W22731  28.946  41.285  14.503
56323W        W22732   9.011  26.523   0.258
56324W        W22733   9.760  13.616  11.056
56325W        W22734  38.889  13.035  11.590
56326W        W22735  29.641   2.083   3.276
56327W        W22736   7.729   1.390  11.562
56328W        W22737  34.609  20.114   2.275
56329W        W22738  39.808  21.977   0.761
56330W        W22739  10.379  25.701  14.947
56331W        W22740  21.033  30.708   0.376
56332W        W22741  26.429  38.912   3.575
56333W        W22742  35.174  31.495  13.024
56334W        W22743  15.288  42.056   0.149
56335W        W22744  24.555  37.052  10.964
56336W        W22745   5.937  22.193   4.185
56337W        W22746   7.582  38.278  11.763
56338W        W22747  20.613  10.596   0.009
56339W        W22748   2.659  40.217  12.978
56340W        W22749  27.054  36.536  14.520
56341W        W22750  33.956   6.431  14.319
56342W        W22751  34.897  26.917   4.226
56343W        W22752   8.163  27.132   3.885
56344W        W22753   2.694  38.538  14.306
56345W        W22754  24.801   3.788   0.258
56346W        W22755   5.347   2.699   3.270
56347W        W22756  37.738  17.773  13.519
56348W        W22757  15.571  36.527   4.521
56349W        W22758   1.751  12.140  11.837
56350W        W22759  16.352   8.440   2.783
56351W        W22760  16.661   9.371  13.803
56352W        W22761   4.244  17.565   2.768
56353W        W22762  23.949  28.011  13.103
56354W        W22763  23.722  19.797   1.264
56355W        W22764  43.504   6.667  11.131
56356W        W22765  33.553  43.989   3.156
56357W        W22766  35.559   0.400  11.536
56358W        W22767  22.730  11.323   1.864
56359W        W22768  40.301   4.602  12.965
56360W        W22769   0.357   2.820  12.360
56361W        W22770  15.674  13.526  14.345
56362W        W22771   9.614  19.116  10.769
56363W        W22772  24.787   7.680  12.395
56364W        W22773  33.093   0.905   5.387
56365W        W22774  29.402  29.568  13.616
56366W        W22775  20.293   8.265  14.888
56367W        W22776  13.237  38.524   4.361
56368W        W22777  15.918  41.296  14.262
56369W        W22778  12.030  12.454  12.361
56370W        W22779  33.373  42.737  13.858
56371W        W22780   1.356  44.749   4.734
56372W        W22781  27.563  36.767  10.676
56373W        W22782   2.768  38.150  11.563
56374W        W22783  29.623  23.779   1.870
56375W        W22784  22.628  13.291  12.075
56376W        W22785  26.140  10.505  10.730
56377W        W22786  38.264  29.869   2.875
56378W        W22787  36.923   4.374   4.749
56379W        W22788   1.844  40.494   3.257
56380W        W22789  14.099  14.289  11.098
56381W        W22790   9.232  18.804   0.870
56382W        W22791  21.520  37.159  14.347
56383W        W22792  42.757   2.228   1.890
56384W        W22793  14.059   6.047   4.965
56385W        W22794  38.133  30.200   3.241
56386W        W22795  13.737  36.457  12.386
56387W        W22796  27.400   5.769  14.143
56388W        W22797  30.782  38.098  14.946
56389W        W22798  20.632  38.127  14.374
56390W        W22799  14.677  24.995  14.846
56391W        W22800  13.706  28.945   4.587
56392W        W22801  13.762  12.847   2.206
56393W        W22802  38.277  30.066   9.958
56394W        W22803  22.678  42.188  14.918
56395W        W22804   8.633  39.432   1.002
56396W        W22805  14.866  21.112  11.623
56397W        W22806   2.632  30.542  12.574
56398W        W22807   3.684  44.343   3.867
56399W        W22808  39.317  37.057   0.394
56400W        W22809  27.618   9.229   9.728
56401W        W22810  19.610   5.387   1.774
56402W        W22811  32.915  18.295   4.421
56403W        W22812  30.085  10.247   3.847
56404W        W22813  16.353   2.207   1.238
56405W        W22814  14.669  44.372   3.210
56406W        W22815  28.572   8.906  11.640
56407W        W22816  25.417  18.750  12.782
56408W        W22817  43.763  24.604   2.111
56409W        W22818  15.791  10.891   3.313
56410W        W22819  12.568  28.001   1.231
56411W        W22820  29.933  30.032   1.454
56412W        W22821  23.092  26.651   4.695
56413W        W22822   3.509  14.834  14.149
56414W        W22823  11.355  32.441  14.776
56415W        W22824  13.912  15.611   5.020
56416W        W22825   1.837  16.190  10.796
56417W        W22826  21.901  20.085  14.475
56418W        W22827  40.767  26.200   4.059
56419W        W22828  31.532   2.779   0.222
56420W        W22829  41.746  37.453  14.343
56421W        W22830  23.618  42.423  14.905
56422W        W22831  25.190  11.364  13.040
56423W        W22832  41.061  35.585   3.257
56424W        W22833  18.628  19.224  11.205
56425W        W22834  27.256  36.018  14.376
56426W        W22835  13.359  19.666   1.317
56427W        W22836   0.121  43.940   4.670
56428W        W22837   8.938  17.354  14.476
56429W        W22838   4.816   2.545  14.111
56430W        W22839  25.993  36.527   0.415
56431W        W22840  29.931   7.967   4.165
56432W        W22841  33.618  37.411   4.626
56433W        W22842  34.194  26.660   0.297
56434W        W22843   9.860  21.517   3.061
56435W        W22844  12.313  14.249   2.681
56436W        W22845  22.279  40.504  14.446
56437W        W22846  19.521  19.235  12.432
56438W        W22847  20.522  18.034  11.964
56439W        W22848  23.246  21.005  13.285
56440W        W22849  25.279  29.656   0.353
56441W        W22850  25.557   7.640   2.762
56442W        W22851  25.478  28.002  12.847
56443W        W22852   3.583   8.395  10.971
56444W        W22853  23.502  19.264  10.649
56445W        W22854   9.933  11.352  11.148
56446W        W22855   9.664   5.463  12.907
56447W        W22856   5.918  17.147  14.276
56448W        W22857  24.692  29.482  14.195
56449W        W22858  37.406  23.077  11.991
56450W        W22859  40.358  32.859   1.460
56451W        W22860  29.435   8.133   4.172
56452W        W22861  22.234  39.306  11.653
56453W        W22862  28.121   9.931   4.980
56454W        W22863  40.549  18.640  12.511
56455W        W22864  25.186  25.492  12.047
56456W        W22865  41.961   9.624   0.064
56457W        W22866  20.671  13.583   4.057
56458W        W22867  31.717  20.518  12.204
56459W        W22868  22.993  21.568  14.261
56460W        W22869  43.023  17.751   1.261
56461W        W22870   3.757   4.651  13.067
56462W        W22871  20.230  12.222  10.292
56463W        W22872  22.259   9.242  13.987
56464W        W22873   7.522  28.594  14.934
56465W        W22874  17.146  26.930  14.412
56466W        W22875  16.752   2.375   4.468
56467W        W22876  41.654  15.232  14.998
56468W        W22877  29.320  37.728  14.807
56469W        W22878  14.897  29.878  12.850
56470W        W22879  17.792  16.897   2.243
56471W        W22880  34.715   0.436  12.828
56472W        W22881  35.105  13.314  12.258
56473W        W22882  37.965   8.716   3.344
56474W        W22883  25.812   0.853   4.774
56475W        W22884  34.166  20.086  13.491
56476W        W22885  12.183  40.133   0.908
56477W        W22886  34.341  15.472  11.607
56478W        W22887  34.896  18.931  12.539
56479W        W22888   6.231  17.835  12.262
56480W        W22889  19.914   6.308  12.104
56481W        W22890  18.330  36.177   2.241
56482W        W22891   9.816  29.022  13.353
56483W        W22892   7.249   9.433   0.295
56484W        W22893  26.006  35.641   1.184
56485W        W22894  44.728  36.049   1.756
56486W        W22895  44.436  12.375  10.203
56487W        W22896  43.858  35.766   2.235
56488W        W22897  32.889  11.362   3.668
56489W        W22898  34.350  32.829  14.361
56490W        W22899  36.285  26.539   3.370
56491W        W22900  19.184  39.576   4.699
56492W        W22901  28.272  24.113  13.365
56493W        W22902  38.337  41.409   3.877
56494W        W22903  14.438  31.296  12.532
56495W        W22904  18.965  37.839   2.218
56496W        W22905  25.688  30.907  12.823
56497W        W22906  23.778  23.414  13.243
56498W        W22907   2.152  25.471   0.056
56499W        W22908  29.541  15.805   4.728
56500W        W22909  33.898  30.460   5.023
56501W        W22910   6.208   3.170   1.315
56502W        W22911   7.185   0.434   1.966
56503W        W22912   4.969  31.092   2.295
56504W        W22913  32.572  39.822  11.060
56505W        W22914   6.773  15.608  11.501
56506W        W22915  30.052  31.880   2.327
56507W        W22916  20.656   2.339   4.493
56508W        W22917  38.013  38.075   0.698
56509W        W22918   3.428   9.172  14.013
56510W        W22919   2.699  40.853  12.155
56511W        W22920  25.152  22.894  13.050
56512W        W22921  24.165  43.835  13.929
56513W        W22922  28.341  28.652   3.461
56514W        W22923  31.345   8.395   0.153
56515W        W22924   3.675  21.162   0.617
56516W        W22925   2.124  20.056   1.251
56517W        W22926   4.715  43.823   2.803
56518W        W22927  25.082  40.187   0.772
56519W        W22928  25.703  11.285  13.085
56520W        W22929   2.963   4.633   2.865
56521W        W22930  39.334  16.256   1.572
56522W        W22931  28.561  23.363   9.614
56523W        W22932  11.938  44.995   3.406
56524W        W22933   5.170  37.422   4.046
56525W        W22934  13.152   3.205  13.781
56526W        W22935  36.371   8.233   0.274
56527W        W22936  30.508  24.407   0.049
56528W        W22937  44.437  35.325  11.324
56529W        W22938   1.377  26.682  11.473
56530W        W22939  29.201   5.677  13.598
56531W        W22940  22.112  34.169   1.871
56532W        W22941   8.804   1.896   4.081
56533W        W22942   4.713  37.963  10.651
56534W        W22943  39.080   7.904   3.732
56535W        W22944  34.206  13.733   3.752
56536W        W22945  44.723  43.211   0.784
56537W        W22946   8.499  14.080   4.578
56538W        W22947   3.085   0.369   3.192
56539W        W22948  20.085  24.467  13.476
56540W        W22949  37.376  33.081  12.499
56541W        W22950  15.624  44.463  13.528
56542W        W22951  28.063  30.097   3.332
56543W        W22952  11.529   5.451   3.287
56544W        W22953   9.702  17.343   3.731
56545W        W22954  39.550  30.553   1.651
56546W        W22955  14.335  35.746   3.284
56547W        W22956  12.693   7.080  12.413
56548W        W22957   8.954  14.094  13.931
56549W        W22958   0.315   0.972   3.977
56550W        W22959  40.589  34.965  13.272
56551W        W22960  11.561   5.640  12.795
56552W        W22961  34.896  33.946   3.728
56553W        W22962  26.285  36.356  11.986
56554W        W22963  27.691  19.998   3.841
56555W        W22964  40.029  24.312   5.210
56556W        W22965   7.725  29.704   4.653
56557W        W22966  24.706  24.725  14.939
56558W        W22967  19.950  40.020   1.828
56559W        W22968   2.753  41.736   1.631
56560W        W22969  19.330  29.152   3.681
56561W        W22970  28.699  20.938   0.031
56562W        W22971   4.956  30.493  11.559
56563W        W22972  37.493  11.260   1.309
56564W        W22973  38.611  44.468  12.600
56565W        W22974  24.697  22.275  14.343
56566W        W22975  32.520  21.465  13.386
56567W        W22976  20.551   4.805   2.266
56568W        W22977  18.821  10.858   2.377
56569W        W22978  26.779  41.586   0.798
56570W        W22979  35.935  33.164  12.076
56571W        W22980  14.864  40.033   0.389
56572W        W22981  27.521  18.807   1.380
56573W        W22982  12.276   3.330  11.931
56574W        W22983   9.897  24.759  13.589
56575W        W22984  31.541   6.995   0.379
56576W        W22985  38.615  37.034   3.846
56577W        W22986  36.393   9.183   0.710
56578W        W22987  15.523  18.127  12.140
56579W        W22988  30.236  18.478   4.131
56580W        W22989   4.927  43.446   0.841
56581W        W22990  17.566   3.932   3.320
56582W        W22991  37.069  30.256  14.562
56583W        W22992  29.066   7.162   2.567
56584W        W22993   8.213  40.293   1.209
56585W        W22994  12.873  40.241  14.915
56586W        W22995  19.672  28.473   2.912
56587W        W22996  18.198  37.112   1.253
56588W        W22997  39.864  43.992  12.532
56589W        W22998  29.374  14.727  10.789
56590W        W22999  34.824   4.737   4.077
56591W        W23000   5.561   7.395   1.847
56592W        W23001  11.919  11.383  13.539
56593W        W23002   8.739  13.610  13.927
56594W        W23003  42.362   9.884   1.419
56595W        W23004  23.378  35.564  13.632
56596W        W23005  15.084  23.192  14.467
56597W        W23006  12.436  31.527   0.797
56598W        W23007  30.743  17.832  14.528
56599W        W23008   9.216  44.256   4.730
56600W        W23009  16.521  44.469   0.549
56601W        W23010  12.063  34.130   4.517
56602W        W23011  38.864  39.219  11.638
56603W        W23012  23.002  44.243   4.162
56604W        W23013  21.016  37.008  14.366
56605W        W23014   9.810  17.048  11.861
56606W        W23015  35.409  23.522  12.489
56607W        W23016  17.070   8.675  14.536
56608W        W23017  44.487   4.233  14.898
56609W        W23018  10.692  34.140  11.995
56610W        W23019  14.174   5.409   0.786
56611W        W23020  17.130  31.926  13.114
56612W        W23021  34.416  39.344  11.545
56613W        W23022  24.752  34.075   0.431
56614W        W23023  30.476  15.797   3.822
56615W        W23024  23.882  25.528  11.031
56616W        W23025  44.922  29.539   4.661
56617W        W23026  28.134  18.987   0.650
56618W        W23027  35.024  20.111  12.610
56619W        W23028  42.945   2.986   0.632
56620W        W23029  33.040  11.334   2.333
56621W        W23030   1.989  13.579   1.691
56622W        W23031  44.945  12.721   3.765
56623W        W23032  12.774  20.094  11.958
56624W        W23033   8.312   2.170  13.584
56625W        W23034  33.378  23.854   1.795
56626W        W23035  31.094  33.293  12.161
56627W        W23036   1.944   1.530  12.585
56628W        W23037  24.538  26.575   4.638
56629W        W23038  15.216  44.380   1.240
56630W        W23039   2.862  35.083  12.039
56631W        W23040  30.584   1.760   2.167
56632W        W23041  40.638   4.666   4.894
56633W        W23042  17.206  11.122   4.572
56634W        W23043  24.194   6.877  12.283
56635W        W23044  26.950  11.159   3.163
56636W        W23045   2.241  37.952   4.063
56637W        W23046  38.526   0.314   4.409
56638W        W23047   3.751  11.927   3.608
56639W        W23048  44.991   2.531  11.596
56640W        W23049  11.335   4.529   4.636
56641W        W23050  40.491  19.808  14.569
56642W        W23051  31.895  35.343   1.030
56643W        W23052   3.771  12.904  14.030
56644W        W23053  17.748  27.133  13.434
56645W        W23054  35.254  20.580  13.432
56646W        W23055  38.096  34.586  12.758
56647W        W23056  39.428  27.174   0.729
56648W        W23057  21.413   1.882   3.144
56649W        W23058  13.320  18.008   2.199
56650W        W23059  26.972   5.824  10.366
56651W        W23060  11.885  16.261   4.658
56652W        W23061  13.990  44.575  12.458
56653W        W23062  12.723  17.265  14.814
56654W        W23063  44.451  40.789   1.257
56655W        W23064   8.394  40.034  11.517
56656W        W23065  37.932  23.971   3.088
56657W        W23066  38.602   4.900  14.728
56658W        W23067  28.921  37.315   4.090
56659W        W23068  21.969   6.595  14.511
56660W        W23069  31.179  35.017   1.310
56661W        W23070  10.105  37.930  10.758
56662W        W23071  37.740  18.607  13.817
56663W        W23072   0.840  13.415  10.107
56664W        W23073  36.496  29.517   4.399
56665W        W23074   9.929   6.892  13.240
56666W        W23075  15.730  40.281   0.911
56667W        W23076  16.140   3.416   1.792
56668W        W23077   9.811  43.398  10.597
56669W        W23078  28.242  14.122   4.571
56670W        W23079  33.614  22.724  14.345
56671W        W23080   0.864  11.851  13.389
56672W        W23081  32.189   3.961   1.805
56673W        W23082   4.696  29.006  11.499
56674W        W23083  20.061  39.870   3.527
56675W        W23084   0.887  28.408  11.488
56676W        W23085  21.313  30.972   1.370
56677W        W23086  12.109  30.875   2.941
56678W        W23087   6.153  14.232   0.489
56679W        W23088  36.618  44.828  11.992
56680W        W23089   0.134  19.622   2.908
56681W        W23090  37.153  34.171  13.963
56682W        W23091  19.477  44.966  14.330
56683W        W23092   1.109  44.426  13.486
56684W        W23093   6.213   7.760   1.858
56685W        W23094   7.198  33.495  12.180
56686W        W23095   1.292  42.518   0.733
56687W        W23096   3.845  14.751   0.454
56688W        W23097  33.005  41.923  10.654
56689W        W23098  37.379   3.335   4.461
56690W        W23099  18.418  38.482  14.034
56691W        W23100  42.420  40.410  14.603
56692W        W23101   1.067   6.165   0.871
56693W        W23102  15.876   4.370  11.160
56694W        W23103  38.034  29.710   2.439
56695W        W23104  10.684   1.535  12.496
56696W        W23105  22.697   2.232  12.928
56697W        W23106  38.924  30.568   4.169
56698W        W23107  29.477  20.044  10.677
56699W        W23108  19.217  27.442   3.140
56700W        W23109  27.024  21.407  14.331
56701W        W23110   2.249  18.325  12.531
56702W        W23111  34.547   3.282  13.510
56703W        W23112  21.317  18.102   4.534
56704W        W23113   1.033   8.836   1.078
56705W        W23114  24.464  24.435   1.838
56706W        W23115  37.905  42.104   1.612
56707W        W23116  29.673   5.251   1.785
56708W        W23117   9.376  22.760   2.807
56709W        W23118  12.512  32.792  14.430
56710W        W23119  28.110  10.149   2.202
56711W        W23120  17.294  18.822   0.245
56712W        W23121  35.508  14.350   3.479
56713W        W23122  44.303  37.467  13.593
56714W        W23123  34.551  14.290  11.055
56715W        W23124  35.951  10.576  11.093
56716W        W23125   9.640  11.814   0.574
56717W        W23126   5.752   5.650   0.141
56718W        W23127   2.014   8.443   5.139
56719W        W23128   6.739   5.240   0.237
56720W        W23129  40.376   3.310   4.720
56721W        W23130   9.813  36.036   4.988
56722W        W23131   1.495  37.818  11.440
56723W        W23132   4.826  20.733   3.353
56724W        W23133  40.422  26.946  11.559
56725W        W23134   0.205   9.008   1.772
56726W        W23135  29.975  17.624   4.306
56727W        W23136   3.520  20.229   2.054
56728W        W23137   3.098  21.394  14.941
56729W        W23138  32.666  22.820   1.276
56730W        W23139   2.215   7.279   0.412
56731W        W23140  42.052  31.693  10.659
56732W        W23141  24.945  26.307  14.373
56733W        W23142  17.510  22.275  14.861
56734W        W23143  40.290   9.240  14.477
56735W        W23144  40.625  32.416  14.207
56736W        W23145  24.410  16.188  11.999
56737W        W23146  36.030  10.840  14.556
56738W        W23147  36.339  33.081  13.461
56739W        W23148  29.929  38.694  14.785
56740W        W23149   1.275   3.513   4.965
56741W        W23150  43.372  28.187   1.005
56742W        W23151   9.374   1.910  13.377
56743W        W23152  32.170  11.587   0.234
56744W        W23153  44.279   2.240  14.744
56745W        W23154  35.998  39.863   1.381
56746W        W23155   0.122  15.805  10.064
56747W        W23156  42.888  11.247  12.692
56748W        W23157   9.622  14.003   0.419
56749W        W23158  29.775  33.557  14.938
56750W        W23159   6.786  38.369  11.270
56751W        W23160   5.710  29.792  11.521
56752W        W23161   6.704  12.653   0.389
56753W        W23162  42.244  37.854   2.932
56754W        W23163   9.924  28.135  10.933
56755W        W23164  38.925  31.510   4.485
56756W        W23165   2.188  16.806  13.459
56757W        W23166  26.977  16.529   2.747
56758W        W23167  16.488  18.688  10.743
56759W        W23168   4.353  41.600  14.867
56760W        W23169  30.173  29.174  12.221
56761W        W23170  44.818   6.082   4.711
56762W        W23171  42.010  18.639  14.604
56763W        W23172  15.620   3.592   1.891
56764W        W23173  40.272  11.771   4.153
56765W        W23174  35.169  31.147  13.424
56766W        W23175  21.973  14.781   2.277
56767W        W23176  19.865   2.914  13.049
56768W        W23177  41.003  20.144  14.935
56769W        W23178   7.219  35.840  12.456
56770W        W23179  12.368  37.049   1.658
56771W        W23180  25.521  13.538   0.353
56772W        W23181  22.461  17.507  11.674
56773W        W23182  25.165  21.634   2.140
56774W        W23183  36.932  43.054   1.587
56775W        W23184  28.525  28.517   4.480
56776W        W23185  22.750  17.995  14.399
56777W        W23186  43.036  26.378  12.412
56778W        W23187   7.395  11.617   0.861
56779W        W23188   8.691  40.601  11.934
56780W        W23189  18.242  25.032   1.810
56781W        W23190  20.812  15.167  14.530
56782W        W23191  44.855   5.901  12.392
56783W        W23192  34.851  38.085  11.945
56784W        W23193  35.215  18.722  14.013
56785W        W23194  14.377   4.154  14.287
56786W        W23195  21.730   6.444  12.501
56787W        W23196  13.316  24.452   2.339
56788W        W23197  39.860  42.009  11.674
56789W        W23198  37.082  34.531  14.342
56790W        W23199  44.246  18.010   3.776
56791W        W23200  35.099  17.083  10.792
56792W        W23201  11.400   7.875  13.489
56793W        W23202  13.440   8.749  13.058
56794W        W23203   6.836  34.293   2.256
56795W        W23204   0.791  23.085  13.902
56796W        W23205  26.081  30.076   2.103
56797W        W23206   8.276  41.576  14.481
56798W        W23207  12.290  11.085   3.670
56799W        W23208   0.512  35.285   2.961
56800W        W23209  12.614   4.825   3.186
56801W        W23210  27.458   1.939   4.590
56802W        W23211   5.518  18.619   1.354
56803W        W23212  12.890   1.652   1.851
56804W        W23213  20.507   9.593  11.582
56805W        W23214  30.428  22.095   4.229
56806W        W23215   8.207  14.240  14.394
56807W        W23216  36.546  23.245   4.530
56808W        W23217  23.876  42.549  11.489
56809W        W23218  40.590  41.622  11.218
56810W        W23219  31.375   8.694  13.993
56811W        W23220  42.504  43.472  12.448
56812W        W23221   2.734  20.804  11.218
56813W        W23222   8.373   2.476  14.043
56814W        W23223  37.776   2.850   4.065
56815W        W23224   8.229  19.541  10.677
56816W        W23225  23.766   7.322   0.311
56817W        W23226  19.656  16.004   2.746
56818W        W23227  24.949   9.805   1.362
56819W        W23228  31.627   4.707   0.735
56820W        W23229  41.139   0.030   4.145
56821W        W23230   9.201  34.852   3.121
56822W        W23231  24.296  31.699  12.946
56823W        W23232  34.656  26.881  11.657
56824W        W23233   6.308  13.088   5.075
56825W        W23234  40.915   9.081  11.898
56826W        W23235  14.729  31.362  10.760
56827W        W23236  34.848  29.520  12.003
56828W        W23237  40.809  36.016  10.720
56829W        W23238  43.519  40.874  14.919
56830W        W23239  32.475  18.348   0.511
56831W        W23240   4.668  41.409   4.092
56832W        W23241  10.634   7.156   4.496
56833W        W23242  37.643  11.292   0.268
56834W        W23243  19.159  36.238  11.054
56835W        W23244  10.063   7.569   2.246
56836W        W23245  30.352  35.551   2.756
56837W        W23246  43.051  43.229   2.962
56838W        W23247  19.192  28.363   0.693
56839W        W23248   6.360  36.648  14.300
56840W        W23249   5.827  19.216   4.098
56841W        W23250   7.796  41.309  13.855
56842W        W23251  26.070  31.499  10.767
56843W        W23252  32.747   6.196  12.565
56844W        W23253  30.617  18.099  10.639
56845W        W23254  39.147  16.094   2.789
56846W        W23255  39.064  44.257   2.876
56847W        W23256  43.227  27.343  12.462
56848W        W23257  28.434  34.111   4.142
56849W        W23258  39.384  12.116   3.936
56850W        W23259   2.798   3.676  12.062
56851W        W23260   9.865  16.364  12.470
56852W        W23261   6.854   1.506  13.324
56853W        W23262   5.826  24.656   2.262
56854W        W23263   8.143   0.762  14.006
56855W        W23264  43.544   6.389   1.298
56856W        W23265  37.124  28.432  13.402
56857W        W23266  29.699  19.641   3.958
56858W        W23267  38.070  15.059  11.176
56859W        W23268  42.497   6.177  13.649
56860W        W23269   3.416  33.529  12.570
56861W        W23270  16.388  28.913  11.192
56862W        W23271  23.025  35.036   1.216
56863W        W23272  17.033   9.153   3.522
56864W        W23273  18.234  40.522   4.104
56865W        W23274  32.097  30.701  13.900
56866W        W23275  31.008  33.593  11.255
56867W        W23276   6.692  22.830  14.417
56868W        W23277  18.174   4.078  12.019
56869W        W23278   1.303  27.911  12.078
56870W        W23279  27.556  23.157  11.571
56871W        W23280   3.676  37.258  13.064
56872W        W23281   2.786  44.383   4.416
56873W        W23282  16.566  12.807   4.131
56874W        W23283  11.630  26.663   0.411
56875W        W23284  22.315  30.710  11.578
56876W        W23285  36.506  30.978   3.743
56877W        W23286  38.327   2.362  14.288
56878W        W23287   4.627  23.580  13.516
56879W        W23288  10.768  43.936  13.115
56880W        W23289   4.543   1.506   2.236
56881W        W23290  18.787  35.959  10.839
56882W        W23291  24.491  28.482  11.306
56883W        W23292   1.073  36.368  13.019
56884W        W23293  11.217  28.148  12.460
56885W        W23294   1.777  11.156   3.341
56886W        W23295  22.846  25.068  12.849
56887W        W23296   6.770  22.799  13.562
56888W        W23297  36.932  11.642   4.673
56889W        W23298  11.544   2.979  11.457
56890W        W23299  14.045  14.364  14.222
56891W        W23300  30.211  12.072   4.127
56892W        W23301  43.679  44.310   0.870
56893W        W23302  10.707   0.160   3.819
56894W        W23303  28.391  16.679  10.738
56895W        W23304  17.761   0.196  14.030
56896W        W23305  41.810  24.691   3.181
56897W        W23306   1.314  16.317  12.502
56898W        W23307  44.155   7.050   9.798
56899W        W23308  23.285  27.246  11.600
56900W        W23309  29.935   9.544   4.320
56901W        W23310   3.217  20.657   2.241
56902W        W23311  23.417   5.316   3.282
56903W        W23312  10.878   6.802  10.755
56904W        W23313  16.542  19.543   0.522
56905W        W23314   5.996  13.090  13.320
56906W        W23315  36.982   6.182   0.742
56907W        W23316  38.561  24.564   4.744
56908W        W23317  11.855   2.690   0.788
56909W        W23318  25.925   7.116  12.497
56910W        W23319   3.863   5.363   1.757
56911W        W23320   1.315  28.713  10.747
56912W        W23321  35.279  38.821   0.022
56913W        W23322  29.130   1.948   4.112
56914W        W23323  42.108  25.539  10.618
56915W        W23324   5.784  22.835  14.761
56916W        W23325  26.011  10.086   0.119
56917W        W23326  21.783  33.811  10.485
56918W        W23327  25.717  20.660  12.044
56919W        W23328  18.511  23.564   0.784
56920W        W23329   5.814  27.693   3.061
56921W        W23330  33.435  31.288   0.942
56922W        W23331  33.560   4.027   1.667
56923W        W23332  27.293  28.403  14.291
56924W        W23333   9.569   7.284  12.898
56925W        W23334  10.107  33.342   2.352
56926W        W23335  18.200  17.176  13.054
56927W        W23336  31.225  33.443   1.651
56928W        W23337   9.744  39.052   2.929
56929W        W23338   1.418  20.776   2.362
56930W        W23339  27.613   5.323  13.776
56931W        W23340  25.840   4.215   2.461
56932W        W23341   3.424  10.518   4.954
56933W        W23342  29.973  27.032   1.824
56934W        W23343  35.509   2.083  10.069
56935W        W23344   8.343  40.313  13.654
56936W        W23345  24.676  33.565  14.968
56937W        W23346  11.328   1.699   1.874
56938W        W23347  32.779  17.631   1.064
56939W        W23348  20.173  23.771   4.777
56940W        W23349   9.276  34.153  12.450
56941W        W23350  12.041   3.809  11.776
56942W        W23351  35.515  18.672   2.453
56943W        W23352  35.849   5.847  13.853
56944W        W23353  39.032  44.723  13.838
56945W        W23354  14.120   4.330  12.781
56946W        W23355  17.114  41.950  13.322
56947W        W23356   0.005  20.675  13.603
56948W        W23357  13.727  38.344   2.667
56949W        W23358   4.267  31.027  10.774
56950W        W23359  34.431   0.981  11.569
56951W        W23360  22.839  18.802  14.891
56952W        W23361  10.634  28.364   2.383
56953W        W23362  35.354   6.938  14.934
56954W        W23363  43.786  27.014  10.411
56955W        W23364  32.482  10.505  10.081
56956W        W23365  28.572  25.196   4.556
56957W        W23366  15.629  18.867   1.430
56958W        W23367   7.885   4.320   2.790
56959W        W23368  38.592  35.794   4.138
56960W        W23369  43.981  19.136   3.234
56961W        W23370  11.601  16.621   3.585
56962W        W23371  21.684  41.477   0.257
56963W        W23372   7.635  25.670   4.529
56964W        W23373  21.631  40.818   2.686
56965W        W23374  37.744  24.050  12.017
56966W        W23375  14.198   3.526   1.413
56967W        W23376  24.103  40.829   2.263
56968W        W23377  33.335  27.951   4.256
56969W        W23378   1.905  31.864  10.957
56970W        W23379  15.624   6.880   0.030
56971W        W23380  18.239   8.239   1.387
56972W        W23381  11.701  22.165   3.072
56973W        W23382  28.406  30.781   4.179
56974W        W23383  10.133  15.299  14.402
56975W        W23384   8.978  37.341   1.463
56976W        W23385  39.668  31.268   4.146
56977W        W23386  13.295  30.989  10.519
56978W        W23387  42.404  37.937   0.324
56979W        W23388  30.212  22.052   3.649
56980W        W23389  44.924  16.651   2.460
56981W        W23390   7.193  35.462   1.049
56982W        W23391  13.132  14.067  14.405
56983W        W23392  23.057   2.411  12.549
56984W        W23393  39.028   7.246   2.329
56985W        W23394  39.024  31.075  10.654
56986W        W23395  42.245  21.780   1.869
56987W        W23396  13.735  15.646   2.337
56988W        W23397  34.106  39.370   4.112
56989W        W23398   2.855  19.605  13.668
56990W        W23399   6.410  33.364   1.477
56991W        W23400  41.920   8.101   3.851
56992W        W23401  12.942  16.602   0.420
56993W        W23402  19.760  19.169  11.959
56994W        W23403  27.702   1.700  10.754
56995W        W23404  33.926  35.890  10.773
56996W        W23405  30.456   9.580  11.604
56997W        W23406  25.668  39.881   0.813
56998W        W23407  36.350  14.228  11.677
56999W        W23408  37.657  37.084  13.069
57000W        W23409  38.918   9.273  14.208
57001W        W23410  40.895  11.710  11.110
57002W        W23411  30.004  28.042  12.797
57003W        W23412  37.229  28.501  11.120
57004W        W23413  17.491  28.938   3.204
57005W        W23414   9.218  11.549   3.425
57006W        W23415  12.049  36.809  14.935
57007W        W23416  23.736   8.190  12.892
57008W        W23417  12.612  19.490   3.260
57009W        W23418  31.949  21.898   2.233
57010W        W23419   1.415  19.003  13.473
57011W        W23420  42.434  14.686  12.053
57012W        W23421   1.838  12.145   3.076
57013W        W23422  38.056  21.971  10.667
57014W        W23423   2.547  16.585  13.086
57015W        W23424  37.413   9.227  14.781
57016W        W23425  18.130   8.720   1.081
57017W        W23426  30.229   6.871   2.182
57018W        W23427   0.894  33.560   4.658
57019W        W23428  32.320  13.436  13.947
57020W        W23429  44.399  25.113  11.030
57021W        W23430  27.622   9.412   2.424
57022W        W23431  33.291   6.744  10.976
57023W        W23432  35.416  22.463   1.861
57024W        W23433   0.221  18.371   1.053
57025W        W23434  38.117   1.183  11.155
57026W        W23435  32.989  12.842  12.933
57027W        W23436  21.640  11.220   3.585
57028W        W23437  42.397  25.615  12.186
57029W        W23438  32.963  20.779  12.688
57030W        W23439  37.665  11.658  14.371
57031W        W23440  17.834  14.015  11.258
57032W        W23441  11.920  17.767   2.997
57033W        W23442   7.697  33.771  12.978
57034W        W23443   9.861  39.006  14.982
57035W        W23444  40.727  44.301  13.541
57036W        W23445  20.097  31.139   4.572
57037W        W23446  22.139  21.453  10.738
57038W        W23447  14.878  28.501   0.115
57039W        W23448  38.344   7.291   0.536
57040W        W23449  12.703  11.163  12.460
57041W        W23450  34.903  11.432  11.110
57042W        W23451  14.707  36.807  10.646
57043W        W23452  39.410  37.471   3.607
57044W        W23453  42.810   0.822   4.090
57045W        W23454  22.605  37.937   3.072
57046W        W23455  17.264  44.008   2.776
57047W        W23456  17.157   6.253   1.435
57048W        W23457  30.822  18.862   3.654
57049W        W23458  38.081  43.904   2.747
57050W        W23459   8.047  42.391   3.648
57051W        W23460   4.282   9.637   3.677
57052W        W23461  32.600  35.411   3.303
57053W        W23462  18.830   9.036   0.797
57054W        W23463  30.035   5.783  10.718
57055W        W23464  26.384   6.313   3.276
57056W        W23465   4.658  11.881   0.410
57057W        W23466   7.172   5.175  13.688
57058W        W23467  22.138  11.816   4.219
57059W        W23468  18.682   2.303   1.015
57060W        W23469   6.786  37.667  13.394
57061W        W23470  10.034   1.823   3.239
57062W        W23471  17.078  13.723   3.861
57063W        W23472  19.710   7.444   3.578
57064W        W23473   1.375  26.677  13.357
57065W        W23474  42.859  31.871  13.112
57066W        W23475  41.669   8.215  13.711
57067W        W23476  23.674   4.911   0.414
57068W        W23477   1.795   3.239   0.770
57069W        W23478  38.861  43.992  12.484
57070W        W23479  19.913  32.974  14.001
57071W        W23480  42.718   6.847  14.731
57072W        W23481  10.705  38.281  13.153
57073W        W23482   5.340  10.610   2.370
57074W        W23483  35.444   0.875   2.456
57075W        W23484   6.437  43.937  13.443
57076W        W23485   8.186  20.210   4.880
57077W        W23486  30.780  39.566  14.266
57078W        W23487  18.614  11.204  10.669
57079W        W23488  29.120  41.242  13.166
57080W        W23489  18.202  18.583   4.372
57081W        W23490   0.902  35.050  13.825
57082W        W23491  12.750  33.141  11.077
57083W        W23492   9.924   4.279   0.928
57084W        W23493  25.260  13.970   2.209
57085W        W23494  34.784   2.225   5.474
57086W        W23495   7.668  35.659   1.193
57087W        W23496   8.435  28.951  11.458
57088W        W23497  29.371  39.906  12.845
57089W        W23498  12.289  12.299  13.174
57090W        W23499  17.943  37.922   2.168
57091W        W23500  41.782  36.622   1.675
57092W        W23501  24.252  39.795  12.092
57093W        W23502  21.045  39.173  11.923
57094W        W23503  24.336  25.702  14.027
57095W        W23504  38.472  29.052  12.322
57096W        W23505   0.851  25.140   4.131
57097W        W23506   9.938  25.205   2.601
57098W        W23507  22.640  15.206   4.453
57099W        W23508   9.186  26.748   4.104
57100W        W23509   3.018   9.851   1.297
57101W        W23510  22.570  31.266  14.587
57102W        W23511  16.267  34.483  12.597
57103W        W23512  33.143  25.541  13.441
57104W        W23513  20.554  12.297   4.637
57105W        W23514   4.955  22.524   1.372
57106W        W23515   5.004  12.850  11.261
57107W        W23516  40.196  23.625   2.163
57108W        W23517  22.993  22.486   2.276
57109W        W23518  22.308  31.232  11.610
57110W        W23519  38.789  24.979  10.874
57111W        W23520   4.992  26.042   4.046
57112W        W23521  40.490   5.200  14.506
57113W        W23522   5.476   7.269   3.250
57114W        W23523   6.261   0.464   1.724
57115W        W23524  39.274  37.970   4.885
57116W        W23525   4.670   6.400  12.333
57117W        W23526  43.461  44.945  13.093
57118W        W23527  36.988  25.118  14.470
57119W        W23528  19.485   4.138   3.771
57120W        W23529  28.624   0.085   4.906
57121W        W23530  14.830  30.046  10.723
57122W        W23531  39.858   6.448  12.172
57123W        W23532  18.138  28.929  13.367
57124W        W23533  39.463  40.927  13.371
57125W        W23534  26.188  24.165  14.040
57126W        W23535  14.423   1.267   4.897
57127W        W23536   6.859  36.370   3.223
57128W        W23537  27.624  21.579   5.092
57129W        W23538  30.045  25.652   4.148
57130W        W23539  15.738   1.359   2.334
57131W        W23540  33.661  24.144   0.216
57132W        W23541   4.217  30.406  14.839
57133W        W23542  23.602  11.812  14.378
57134W        W23543   6.932  11.097  13.228
57135W        W23544  41.844   5.752   4.197
57136W        W23545   1.852  26.984  14.344
57137W        W23546  32.351  41.933  13.528
57138W        W23547  14.176   5.267  11.256
57139W        W23548  21.720  44.722   1.903
57140W        W23549   3.894  36.191  12.125
57141W        W23550  28.593   7.882  13.095
57142W        W23551   3.755  38.853  14.875
57143W        W23552  17.877   7.545   3.402
57144W        W23553  16.311   1.617  12.902
57145W        W23554  41.439  42.549  14.748
57146W        W23555  12.848  33.891  11.453
57147W        W23556  36.303  13.222  12.477
57148W        W23557  35.104  35.749   3.814
57149W        W23558  38.994  29.683   3.958
57150W        W23559  14.108  28.749   1.926
57151W        W23560  11.225  33.640   1.435
57152W        W23561   0.252   1.466   4.843
57153W        W23562   4.782  41.033  12.675
57154W        W23563  44.778  26.898   1.618
57155W        W23564  19.016  42.489   0.862
57156W        W23565  26.071  13.615  14.064
57157W        W23566  13.089  12.766  11.472
57158W        W23567  19.425  44.883  11.066
57159W        W23568  42.451  14.823   4.377
57160W        W23569  36.092  38.813   3.451
57161W        W23570  19.701  42.031   3.613
57162W        W23571  27.376  19.326   0.499
57163W        W23572  36.935  29.761   4.568
57164W        W23573  21.999  39.176   4.594
57165W        W23574  43.094  28.150  11.014
57166W        W23575  15.117  19.065  12.974
57167W        W23576  20.642  12.806   4.555
57168W        W23577  24.046  14.401   0.025
57169W        W23578  21.745   1.882   0.748
57170W        W23579   0.191   2.604   1.248
57171W        W23580  12.855  13.071  14.418
57172W        W23581  25.391  32.962   0.012
57173W        W23582  16.650  38.164  13.521
57174W        W23583  40.048  13.873  10.726
57175W        W23584  17.175  29.037  10.104
57176W        W23585  43.991  43.945   3.775
57177W        W23586  33.026  37.571   0.785
57178W        W23587  24.533  37.438   4.087
57179W        W23588  22.061  42.006   2.432
57180W        W23589  28.296  36.471  12.298
57181W        W23590  40.698  18.202  10.978
57182W        W23591  25.061  39.249  11.143
57183W        W23592   1.777  25.679   2.690
57184W        W23593   1.008  37.355  14.973
57185W        W23594   6.843  16.339   3.227
57186W        W23595  27.362  43.894  11.189
57187W        W23596  19.187  44.031  10.773
57188W        W23597  41.866  38.569  12.050
57189W        W23598   2.943  40.298  10.685
57190W        W23599   3.230  10.234   4.021
57191W        W23600  27.946  28.716   3.776
57192W        W23601  34.983   4.737  13.201
57193W        W23602  31.689  21.188  13.938
57194W        W23603  38.221   6.825  13.541
57195W        W23604  33.582  10.216   3.829
57196W        W23605  11.263  42.813   4.091
57197W        W23606  16.917  26.638   0.418
57198W        W23607  42.998   2.766  11.636
57199W        W23608  30.514   2.227  14.400
57200W        W23609  26.865  28.706   0.616
57201W        W23610   4.393  27.647  11.549
57202W        W23611  28.399  21.473   4.612
57203W        W23612   9.354  23.361   4.220
57204W        W23613  29.807  14.152   2.453
57205W        W23614  20.168  40.848  13.442
57206W        W23615  34.027   7.546   4.244
57207W        W23616  12.319   0.761  14.812
57208W        W23617  37.402  11.330   4.592
57209W        W23618  12.644  30.630   4.391
57210W        W23619   3.983  23.456   1.281
57211W        W23620   6.372  44.602   3.279
57212W        W23621  15.094  22.988  12.594
57213W        W23622  42.396  17.469  12.400
57214W        W23623   6.202   4.920  14.446
57215W        W23624  44.474  21.943  14.821
57216W        W23625   0.164  34.788  12.794
57217W        W23626   4.249  34.920   0.005
57218W        W23627   7.391  35.497  10.401
57219W        W23628  20.546  30.025  13.077
57220W        W23629  17.560   0.775  10.940
57221W        W23630  25.983  36.886   4.078
57222W        W23631  44.513  42.205   4.422
57223W        W23632  18.091  33.418   3.658
57224W        W23633  37.056  12.769   4.807
57225W        W23634  23.185   1.418   3.098
57226W        W23635  32.155  36.225   2.842
57227W        W23636   1.021   2.003   4.390
57228W        W23637  40.415   6.412  14.884
57229W        W23638   8.334  33.381  14.637
57230W        W23639   8.147  17.002  10.574
57231W        W23640  42.499   2.584  12.582
57232W        W23641  32.106  12.602   0.398
57233W        W23642   9.804  25.641  12.237
57234W        W23643  31.467  26.047   1.524
57235W        W23644  27.248  34.608  12.148
57236W        W23645  18.118   0.237  14.438
57237W        W23646  37.030  15.331  13.490
57238W        W23647  32.617  13.690  11.934
57239W        W23648  12.186  26.124  13.049
57240W        W23649   3.995   1.536  13.982
57241W        W23650  31.039  40.021   2.826
57242W        W23651  31.050   9.242   3.853
57243W        W23652  36.582  11.163  11.649
57244W        W23653  10.629  35.294   4.118
57245W        W23654  28.428   5.242  13.440
57246W        W23655  33.613   8.209  13.493
57247W        W23656  18.591  44.564   1.828
57248W        W23657  12.604  18.161  13.700
57249W        W23658   9.021  22.573  11.945
57250W        W23659  12.708   5.351   1.224
57251W        W23660  28.380  14.112   3.661
57252W        W23661  12.352  34.029  11.531
57253W        W23662  14.216   5.002   4.229
57254W        W23663  28.054   5.112  10.786
57255W        W23664  39.167  25.690  13.858
57256W        W23665  43.416  11.959   2.520
57257W        W23666  31.494  42.567  10.698
57258W        W23667  28.087  21.548   2.884
57259W        W23668  25.728  17.770  12.282
57260W        W23669  11.177   0.010   0.840
57261W        W23670   9.323  12.246  12.476
57262W        W23671   6.888  36.437   3.724
57263W        W23672   2.116  28.561  11.383
57264W        W23673  10.141   4.412  14.692
57265W        W23674   0.445  16.488   0.515
57266W        W23675  13.230  17.218  11.563
57267W        W23676  29.031  25.909   1.077
57268W        W23677  30.970  43.357   4.398
57269W        W23678  31.598  25.598  12.513
57270W        W23679  43.896  30.586  12.519
57271W        W23680   0.959   2.014  10.766
57272W        W23681   4.993  26.237   2.748
57273W        W23682  14.747  39.426   0.668
57274W        W23683  18.344  30.504  10.768
57275W        W23684  33.383  27.180  10.666
57276W        W23685  42.465  41.330   0.874
57277W        W23686  17.683   8.816   0.839
57278W        W23687   7.337  36.600   3.311
57279W        W23688  24.981  23.752  14.250
57280W        W23689  35.370   7.307  13.331
57281W        W23690  26.160   7.251   3.602
57282W        W23691   8.297  36.412   1.454
57283W        W23692  14.406  22.037   3.086
57284W        W23693  25.539   7.153   2.839
57285W        W23694   8.558   2.865  14.864
57286W        W23695   5.904  30.705   2.672
57287W        W23696  29.111  13.378  14.119
57288W        W23697   5.774  38.811   4.593
57289W        W23698  10.704   5.227  13.622
57290W        W23699  29.690  24.222  12.751
57291W        W23700  18.083  32.378  12.512
57292W        W23701  10.743  21.766   2.704
57293W        W23702  10.459  23.519   2.394
57294W        W23703   5.837   7.949   4.023
57295W        W23704  27.652   2.304   4.151
57296W        W23705  32.830  41.501  14.307
57297W        W23706  23.060   8.320  11.645
57298W        W23707  13.887  25.940  14.057
57299W        W23708  35.305  23.312   1.364
57300W        W23709  11.952  42.758   1.975
57301W        W23710  26.752  30.677  12.373
57302W        W23711   6.616   9.639   0.249
57303W        W23712  25.150  28.784   2.206
57304W        W23713  12.395  18.136  12.833
57305W        W23714  24.450  21.088   5.391
57306W        W23715  31.837  30.614   2.731
57307W        W23716  38.808  25.414  14.798
57308W        W23717   9.617  30.995   2.623
57309W        W23718  21.089  26.628  11.131
57310W        W23719  22.071  37.950   0.293
57311W        W23720   3.604  19.264  13.033
57312W        W23721  37.612  30.334   1.670
57313W        W23722  32.390  12.096   2.458
57314W        W23723  27.410  19.576  13.050
57315W        W23724   3.755  28.951  13.979
57316W        W23725  14.366  18.210   1.179
57317W        W23726  13.460   5.328   2.390
57318W        W23727  11.764  12.709   0.735
57319W        W23728  21.676  41.517   3.750
57320W        W23729  18.541  43.454  11.472
57321W        W23730   5.886  12.464   2.180
57322W        W23731   2.292  31.136   2.883
57323W        W23732   5.809   4.930   2.314
57324W        W23733  21.891  41.925  14.824
57325W        W23734  35.629  29.399  12.554
57326W        W23735  10.904   7.501  14.956
57327W        W23736  42.502  22.774  12.779
57328W        W23737  30.574  37.211   3.076
57329W        W23738  41.536  12.257   0.929
57330W        W23739  17.204  25.611  12.985
57331W        W23740  23.751  31.647  10.858
57332W        W23741  18.941  25.904   4.313
57333W        W23742  13.761   6.889  13.619
57334W        W23743  32.426   9.842  13.544
57335W        W23744  29.983  27.167  11.988
57336W        W23745  42.266  26.880   0.973
57337W        W23746  27.609  27.332  11.155
57338W        W23747  11.387  17.713  13.090
57339W        W23748   1.540  37.266   5.009
57340W        W23749  29.300  21.108   5.313
57341W        W23750  16.179   5.982  11.229
57342W        W23751  32.046  29.128  12.168
57343W        W23752  41.326  40.985   0.518
57344W        W23753   8.661  30.826   0.917
57345W        W23754  27.119  35.426   2.723
57346W        W23755  28.237  13.596   2.780
57347W        W23756  40.153  25.648   0.335
57348W        W23757  36.811  35.565  12.643
57349W        W23758  18.093  39.952   3.146
57350W        W23759  24.237  11.608   0.426
57351W        W23760  17.196  12.935  12.550
57352W        W23761  21.021  21.113   2.639
57353W        W23762  40.554  14.631  10.455
57354W        W23763   5.660  34.026   4.567
57355W        W23764  17.839  24.918   4.049
57356W        W23765   5.088  16.614  14.430
57357W        W23766  37.386   2.564  11.084
57358W        W23767   1.458   7.370  10.933
57359W        W23768  31.950  40.324   0.932
57360W        W23769  12.085  28.117   2.133
57361W        W23770  22.570  32.570  12.431
57362W        W23771  41.690  23.835   4.777
57363W        W23772  24.594  13.062  14.375
57364W        W23773  27.991  18.535  11.161
57365W        W23774  31.701  20.210  11.568
57366W        W23775  41.161   9.700  11.780
57367W        W23776  26.239  37.104  14.745
57368W        W23777  42.332   5.872   4.325
57369W        W23778  35.857  13.729   1.146
57370W        W23779   6.237  19.691   3.205
57371W        W23780  27.435  14.655   1.753
57372W        W23781  32.511   7.037  12.414
57373W        W23782  44.389  13.386   4.190
57374W        W23783  11.438  15.726   3.227
57375W        W23784  27.192   9.775  14.312
57376W        W23785  16.882  30.947  13.944
57377W        W23786  12.725   6.662  11.204
57378W        W23787   1.912  13.120   1.933
57379W        W23788  43.992   2.303   3.864
57380W        W23789   9.133  21.022   2.564
57381W        W23790   0.366  12.708  11.206
57382W        W23791  43.519  16.772   3.739
57383W        W23792  37.668  10.013   0.371
57384W        W23793  29.502  24.128   0.388
57385W        W23794  19.662  21.181  10.571
57386W        W23795  15.130   2.008   9.937
57387W        W23796  26.244   5.108  13.124
57388W        W23797   3.432  36.944  12.312
57389W        W23798  14.767  22.253  12.013
57390W        W23799  16.487  13.405   2.572
57391W        W23800  40.444  27.259   1.301
57392W        W23801  41.960  35.857   4.568
57393W        W23802  12.108  31.116   1.023
57394W        W23803  20.785  25.771   4.644
57395W        W23804  14.089  24.432  11.653
57396W        W23805  16.792  15.844   2.561
57397W        W23806  32.627  37.874   3.662
57398W        W23807  16.649  17.500  12.031
57399W        W23808  13.797  14.067  14.642
57400W        W23809  31.470  29.654  12.541
57401W        W23810   2.955  43.829  13.342
57402W        W23811  40.465  16.582  14.526
57403W        W23812  41.168   4.602  14.680
57404W        W23813  15.886  20.647  12.462
57405W        W23814  42.312   0.869   1.334
57406W        W23815   0.600  35.627   4.466
57407W        W23816  17.824  39.359   1.397
57408W        W23817  38.939  11.649   1.707
57409W        W23818  44.213  16.791  10.221
57410W        W23819  31.820  26.412   5.002
57411W        W23820  17.567  32.962   2.269
57412W        W23821  26.655  27.151  13.538
57413W        W23822   1.248   8.223  14.446
57414W        W23823  27.193   4.926   4.706
57415W        W23824  24.723  42.429   0.250
57416W        W23825  34.911  18.550   1.911
57417W        W23826  10.874  12.784   1.288
57418W        W23827  37.962  20.750   4.081
57419W        W23828  18.694  39.499  12.394
57420W        W23829   1.337  16.368   2.876
57421W        W23830  32.324  35.055   2.787
57422W        W23831   5.292  37.847  12.281
57423W        W23832  20.650  40.723   2.818
57424W        W23833  23.578  32.874   1.550
57425W        W23834  34.090  20.621   3.466
57426W        W23835   4.836   3.874  10.735
57427W        W23836  39.223   0.449  13.422
57428W        W23837  40.658   5.363   4.404
57429W        W23838  16.656   4.956   4.377
57430W        W23839  31.876  18.485  11.382
57431W        W23840  10.851  37.900  14.968
57432W        W23841  39.371   4.423  10.676
57433W        W23842  12.259  34.597   2.723
57434W        W23843  21.317  33.611  14.288
57435W        W23844   7.173  42.124  11.565
57436W        W23845  39.026  28.438  11.944
57437W        W23846  39.765   3.619  13.749
57438W        W23847  19.025  42.595   2.280
57439W        W23848   8.625  27.005   3.213
57440W        W23849  34.112   9.343   1.643
57441W        W23850  21.667  24.399   5.010
57442W        W23851  20.851  23.073  10.696
57443W        W23852  10.293  32.327   3.256
57444W        W23853   8.384  29.448   3.139
57445W        W23854  15.705   5.505   0.405
57446W        W23855  25.547  41.489   3.166
57447W        W23856  26.554  29.116  11.932
57448W        W23857  14.696  24.466  14.836
57449W        W23858  12.820  13.818   4.362
57450W        W23859  14.749   5.952  10.721
57451W        W23860   1.184  43.961   1.930
57452W        W23861  28.083  31.466  13.438
57453W        W23862  37.967  39.386  10.658
57454W        W23863  24.629  41.563   2.399
57455W        W23864   5.461  23.614  11.968
57456W        W23865  42.456   2.881   0.844
57457W        W23866   1.512  27.533   3.855
57458W        W23867  26.940   1.261  14.900
57459W        W23868  44.670  34.962   3.966
57460W        W23869  20.652   7.521  13.404
57461W        W23870  21.834   1.710   2.168
57462W        W23871  13.729  38.956   0.201
57463W        W23872  34.139  41.004   1.936
57464W        W23873   8.037  31.541  12.032
57465W        W23874  34.989  17.535  13.946
57466W        W23875  32.081  41.592  12.046
57467W        W23876  37.442  41.073   2.210
57468W        W23877   5.968   0.318  11.928
57469W        W23878  10.625   3.896  12.533
57470W        W23879  13.297   7.436   4.556
57471W        W23880  14.269   3.018  12.073
57472W        W23881  12.155   5.008   4.000
57473W        W23882  25.958  15.847  11.559
57474W        W23883   5.615  16.822   4.535
57475W        W23884  19.088  18.578   1.178
57476W        W23885   1.190  37.086  11.415
57477W        W23886  13.027   9.736  13.837
57478W        W23887   9.820   7.057  10.138
57479W        W23888  28.969   5.953  12.192
57480W        W23889   2.383   0.823   2.725
57481W        W23890  22.931  44.743  12.088
57482W        W23891  27.188   7.261  11.089
57483W        W23892  30.703   0.794  11.101
57484W        W23893   3.497  11.124   4.353
57485W        W23894   3.361   0.428   0.878
57486W        W23895  32.472  40.802  12.967
57487W        W23896  25.805  30.728   0.872
57488W        W23897  42.059  37.678   3.498
57489W        W23898  29.890  26.893  10.667
57490W        W23899  31.442  37.646   4.306
57491W        W23900   5.154  34.148  13.427
57492W        W23901  13.563  29.970  14.341
57493W        W23902  42.020   8.183   0.053
57494W        W23903  33.602  21.292  14.149
57495W        W23904  24.392   9.264   1.808
57496W        W23905  39.247  31.561  14.751
57497W        W23906  21.975  19.909  12.997
57498W        W23907  34.986  32.266   0.804
57499W        W23908  23.763  15.329  12.386
57500W        W23909  11.049  32.735  12.487
57501W        W23910  38.370  12.396   4.627
57502W        W23911  19.704  25.673  13.819
57503W        W23912  16.497  41.638   9.462
57504W        W23913  34.766  38.522   3.742
57505W        W23914  16.046  29.112   1.871
57506W        W23915   6.352   8.665   2.425
57507W        W23916  13.892  10.245   3.740
57508W        W23917  17.503   0.711   1.324
57509W        W23918  23.224  33.838  11.117
57510W        W23919  21.617  31.001  12.639
57511W        W23920  31.149  41.803  11.115
57512W        W23921  43.655  35.100  14.534
57513W        W23922  35.127   0.013   0.434
57514W        W23923  15.654  44.191  10.729
57515W        W23924  38.875  36.219  10.549
57516W        W23925  39.791  32.433   0.296
57517W        W23926  31.380   5.739  12.348
57518W        W23927  30.252  28.261   3.676
57519W        W23928  11.724   8.156   1.420
57520W        W23929  23.445   8.850  12.829
57521W        W23930  36.908  32.847  12.610
57522W        W23931  35.054  15.773  13.511
57523W        W23932  38.457  23.767   4.245
57524W        W23933   0.616  19.714   2.777
57525W        W23934   9.802   7.418  14.012
57526W        W23935  26.659  40.292  12.207
57527W        W23936  16.007  25.442   1.287
57528W        W23937  40.046  14.744  14.368
57529W        W23938  25.449  38.545  13.747
57530W        W23939  18.615  21.553  11.740
57531W        W23940  25.457  20.250  11.160
57532W        W23941  32.013   2.835   3.335
57533W        W23942  30.297  20.000  13.706
57534W        W23943  17.304   4.837   3.650
57535W        W23944  10.575  34.563  14.832
57536W        W23945  21.299  22.144   4.297
57537W        W23946   6.597  44.620   5.019
57538W        W23947  41.330  24.523  12.667
57539W        W23948   3.227  29.785  14.044
57540W        W23949  39.855  25.520   1.317
57541W        W23950   1.757  19.699   5.116
57542W        W23951  23.073  28.591   2.799
57543W        W23952   4.811  11.279  14.976
57544W        W23953   4.933  41.770  13.700
57545W        W23954  19.674  43.494   2.712
57546W        W23955  31.656  41.795  13.844
57547W        W23956  30.192  36.362  10.509
57548W        W23957   2.387  22.745   2.775
57549W        W23958  26.929  11.758   2.130
57550W        W23959  36.901  29.432  14.923
57551W        W23960  26.082  14.146   0.713
57552W        W23961  26.615  40.309   1.431
57553W        W23962  20.972   9.291   2.802
57554W        W23963  27.472   7.593   1.826
57555W        W23964  10.702  27.078   2.135
57556W        W23965   6.495  20.139   3.370
57557W        W23966  23.444   8.456  12.005
57558W        W23967   4.921  21.170   4.182
57559W        W23968  20.722  32.397   3.401
57560W        W23969  35.396  41.992   3.186
57561W        W23970  38.485  26.570   1.402
57562W        W23971  15.688  32.075  12.449
57563W        W23972  10.793  12.608  12.163
57564W        W23973  23.367  43.978  10.615
57565W        W23974  35.949  16.044  13.961
57566W        W23975  10.238  26.209   0.884
57567W        W23976  13.881   1.879   2.850
57568W        W23977   8.314   9.349  11.934
57569W        W23978  44.857  36.277  12.490
57570W        W23979  35.032  22.708  12.523
57571W        W23980   8.423  16.028  12.604
57572W        W23981  25.859  19.185   1.705
57573W        W23982   4.302  27.478   0.298
57574W        W23983   8.735  19.216  10.744
57575W        W23984   4.823  14.913   2.834
57576W        W23985  41.680   5.688  12.954
57577W        W23986  23.054  30.510  14.429
57578W        W23987  10.598  36.470   2.095
57579W        W23988  27.995  30.045   2.297
57580W        W23989  13.631   4.349   3.095
57581W        W23990   0.553   5.887   2.722
57582W        W23991  28.197   6.730  11.632
57583W        W23992  28.002  33.603   2.363
57584W        W23993  17.090   6.364  11.510
57585W        W23994  13.853   9.276   3.792
57586W        W23995  30.546  16.169  13.508
57587W        W23996  35.950  36.820   3.939
57588W        W23997  29.734   4.700   9.835
57589W        W23998  21.617   2.185  11.239
57590W        W23999  33.602  23.782  11.974
57591W        W24000  35.442  40.746   4.334
57592W        W24001  41.821   7.283  13.870
57593W        W24002  42.474  30.187   2.663
57594W        W24003   1.833  36.394  13.500
57595W        W24004  24.457  38.924   1.684
57596W        W24005  27.420  38.986  11.471
57597W        W24006  11.133  21.578  11.823
57598W        W24007  33.394  38.595   3.704
57599W        W24008  12.363  29.716   4.748
57600W        W24009  18.695  19.237   4.816
57601W        W24010  22.284  27.084  11.581
57602W        W24011  43.305   2.684   0.876
57603W        W24012   3.336   2.672  11.048
57604W        W24013  43.387  35.892  10.735
57605W        W24014  19.774  24.423   2.796
57606W        W24015  13.544   6.357  11.439
57607W        W24016  15.941  34.095  14.386
57608W        W24017  34.234  18.169  13.010
57609W        W24018   9.886  32.117  13.058
57610W        W24019   9.771   5.723  14.866
57611W        W24020  21.719  10.761   4.411
57612W        W24021   3.962  13.857  13.780
57613W        W24022  37.478   6.179  13.429
57614W        W24023  32.696  28.217   0.878
57615W        W24024  40.314   6.844  11.013
57616W        W24025  22.979  19.520  13.966
57617W        W24026  17.361  15.365   3.825
57618W        W24027   0.397  23.102   2.264
57619W        W24028  30.060  38.015   0.562
57620W        W24029  30.384  37.122  14.407
57621W        W24030   5.622  32.624  11.219
57622W        W24031  10.594   2.271   1.391
57623W        W24032  29.159  14.243   1.238
57624W        W24033  14.403  19.679  12.526
57625W        W24034  38.891  40.748   3.327
57626W        W24035  24.606  34.069  12.403
57627W        W24036  41.544  35.415   2.290
57628W        W24037  43.106  18.211  13.523
57629W        W24038  23.162   7.186  12.323
57630W        W24039  42.901  22.404   4.544
57631W        W24040   1.418  18.803  13.951
57632W        W24041  37.229  28.087   3.484
57633W        W24042   1.403   5.008  13.014
57634W        W24043  16.281  38.761  12.026
57635W        W24044  12.267  11.201  13.896
57636W        W24045   7.227   9.638   3.932
57637W        W24046   4.205   5.678  14.701
57638W        W24047   2.436  18.803   0.801
57639W        W24048  27.423  17.465   1.923
57640W        W24049   4.688  33.354  12.190
57641W        W24050  24.018   0.972   2.801
57642W        W24051  25.180  31.969  10.208
57643W        W24052  11.780  36.880   1.395
57644W        W24053  43.725  18.695  14.397
57645W        W24054  38.173  18.624  13.529
57646W        W24055  13.212  44.537  13.370
57647W        W24056   4.422   0.927  13.439
57648W        W24057   5.348  29.930  12.593
57649W        W24058  22.035  24.763  11.125
57650W        W24059   6.436  13.287  14.438
57651W        W24060   3.963  33.743   3.683
57652W        W24061   9.714   1.558   2.739
57653W        W24062  11.848   8.580   2.674
57654W        W24063  27.581  30.821   3.769
57655W        W24064  32.956  43.022   3.298
57656W        W24065  34.166  38.593  11.563
57657W        W24066  18.219  27.263   1.393
57658W        W24067   8.832  37.665  14.881
57659W        W24068   5.672  36.055   1.988
57660W        W24069  16.703  37.435   3.498
57661W        W24070  14.637  38.711  13.526
57662W        W24071  44.545   2.800  13.563
57663W        W24072  38.071  31.350   2.768
57664W        W24073  22.853  29.544   4.076
57665W        W24074  30.872  15.478   4.533
57666W        W24075  10.736  40.551   2.210
57667W        W24076  37.239  27.133   2.154
57668W        W24077   1.912  26.693  12.095
57669W        W24078  32.063  21.881  13.482
57670W        W24079  23.484  34.103  14.847
57671W        W24080  12.249  22.575  12.601
57672W        W24081  22.233  11.432  13.909
57673W        W24082  33.423  24.503   3.259
57674W        W24083  28.703  26.686   1.376
57675W        W24084  11.658   6.844  12.386
57676W        W24085  43.264  42.409  14.894
57677W        W24086  28.539  24.069   0.562
57678W        W24087  39.375  32.047  10.732
57679W        W24088  31.336   9.753   0.893
57680W        W24089  13.543  29.253   4.180
57681W        W24090  33.970  28.485  12.181
57682W        W24091  17.084  13.545   4.348
57683W        W24092  25.953   2.307  12.533
57684W        W24093  24.014   8.153  14.315
57685W        W24094  43.434   1.720   0.874
57686W        W24095  35.725  38.488   3.598
57687W        W24096   7.505  35.731  11.641
57688W        W24097  36.059   4.389  12.578
57689W        W24098  41.939  44.756  11.153
57690W        W24099  33.345  20.466   2.577
57691W        W24100  12.743  36.110  14.560
57692W        W24101  21.815   4.242  11.198
57693W        W24102  25.166  42.048   3.723
57694W        W24103  25.593  38.518   3.403
57695W        W24104   4.759  36.026  10.223
57696W        W24105  15.322  34.138  11.149
57697W        W24106  29.635  20.344  11.943
57698W        W24107  18.965  42.160  12.083
57699W        W24108  18.582  43.930   2.656
57700W        W24109   9.317  29.969   1.862
57701W        W24110   2.544   4.198  11.213
57702W        W24111  38.350  22.616   0.083
57703W        W24112  11.164  41.005   1.525
57704W        W24113  36.447  28.234   5.336
57705W        W24114   2.864  28.820  13.430
57706W        W24115  35.388  31.008   4.110
57707W        W24116  32.921   4.064  13.495
57708W        W24117  37.801  39.067  11.020
57709W        W24118   7.632  24.823  13.953
57710W        W24119  10.564  42.567   3.249
57711W        W24120  16.357  42.885  14.397
57712W        W24121   0.750  25.546   3.815
57713W        W24122  25.308   3.014   5.180
57714W        W24123  37.709  11.215  10.403
57715W        W24124  32.496  28.632   3.322
57716W        W24125  30.761   9.169   4.617
57717W        W24126  20.682  44.265   2.826
57718W        W24127  23.751   0.964  12.507
57719W        W24128  21.313  19.010  12.966
57720W        W24129  24.382  33.020  14.924
57721W        W24130  22.137  28.812  12.513
57722W        W24131  13.019  34.795  12.504
57723W        W24132  22.168  35.918   1.251
57724W        W24133  33.194  40.805  12.085
57725W        W24134   0.893  24.616  12.666
57726W        W24135  20.494   8.263  13.702
57727W        W24136  20.807  22.252  11.020
57728W        W24137  30.044  34.770  11.637
57729W        W24138   8.700  14.344  14.302
57730W        W24139  39.025  10.719  11.710
57731W        W24140  21.533  15.282  11.577
57732W        W24141  18.746  18.360  12.393
57733W        W24142  32.926  24.398   3.982
57734W        W24143   3.715  19.673   2.330
57735W        W24144   0.006  19.039   4.148
57736W        W24145   4.907  27.201  12.094
57737W        W24146  32.043  16.103   1.279
57738W        W24147   1.128   8.252   4.417
57739W        W24148  31.384  27.156   1.805
57740W        W24149   1.467  34.513   4.225
57741W        W24150  34.647   2.825   3.025
57742W        W24151   3.174  27.088   3.733
57743W        W24152   1.477  16.625  14.889
57744W        W24153  11.707  18.379  14.315
57745W        W24154  20.844  12.447  12.776
57746W        W24155  17.702  30.189   3.810
57747W        W24156  35.462  18.843  11.063
57748W        W24157  10.057   4.160  13.842
57749W        W24158   5.212  27.243  13.309
57750W        W24159  31.142  13.725  14.063
57751W        W24160   8.366  40.711   1.977
57752W        W24161  16.216  15.614  10.407
57753W        W24162  12.647  19.583  10.259
57754W        W24163  13.827  17.791   1.420
57755W        W24164  22.603  30.246   3.625
57756W        W24165  43.897   5.405  12.236
57757W        W24166  34.967  27.410  12.943
57758W        W24167  42.359  12.252   1.731
57759W        W24168  39.983  30.825  10.398
57760W        W24169  39.144  18.321   0.854
57761W        W24170  41.024  34.107   2.767
57762W        W24171  35.423  22.477   3.850
57763W        W24172  19.628  41.314   0.243
57764W        W24173  30.948  25.117  14.302
57765W        W24174  40.583  21.323  11.128
57766W        W24175  35.024  38.331   1.923
57767W        W24176  43.525  30.420   4.313
57768W        W24177   3.375  20.196  10.780
57769W        W24178  30.693  26.906  13.335
57770W        W24179  31.381  13.208  14.820
57771W        W24180  35.421  38.057   3.672
57772W        W24181  21.066  43.343  13.411
57773W        W24182  13.858  27.482   1.286
57774W        W24183   2.761  19.548   2.255
57775W        W24184  21.323   3.735   4.574
57776W        W24185  39.038  43.247  12.854
57777W        W24186  37.360  32.597  12.664
57778W        W24187  12.821  16.480   4.223
57779W        W24188  17.241  42.888  12.831
57780W        W24189   5.467  41.835   4.143
57781W        W24190  34.851  24.163  13.887
57782W        W24191  40.899  28.972  11.144
57783W        W24192  19.114  16.168  14.775
57784W        W24193  11.327  20.648   2.602
57785W        W24194  32.452  22.029   3.327
57786W        W24195  31.393  34.986  11.153
57787W        W24196  35.083  44.129   0.273
57788W        W24197  30.723   6.355  12.402
57789W        W24198  32.098  15.466  11.648
57790W        W24199   4.337   5.989  12.172
57791W        W24200  12.549  42.316  11.948
57792W        W24201  16.764  38.551  11.325
57793W        W24202  24.627  33.498   0.866
57794W        W24203  14.119   1.456  14.036
57795W        W24204  40.609  42.945  14.390
57796W        W24205  44.308  32.143   0.402
57797W        W24206  11.646   8.888   2.309
57798W        W24207  42.767  22.275  12.506
57799W        W24208  21.661  26.755  11.938
57800W        W24209  13.768  19.773   0.394
57801W        W24210  30.541  43.363  14.634
57802W        W24211  14.582   2.987  14.982
57803W        W24212  24.037  37.344   1.814
57804W        W24213  17.742  37.331   1.369
57805W        W24214  20.157  29.176   2.708
57806W        W24215  25.945  36.342   2.177
57807W        W24216   3.166  35.416  12.844
57808W        W24217   7.497  36.436   1.905
57809W        W24218  17.503  25.177  12.992
57810W        W24219  36.536  34.557   1.766
57811W        W24220  23.757  25.552  14.970
57812W        W24221  17.368  13.671   2.775
57813W        W24222   0.460   3.874   3.974
57814W        W24223   6.927  44.622  13.869
57815W        W24224  37.498  33.494   3.301
57816W        W24225  41.987   2.245   2.576
57817W        W24226   3.808  11.048  14.901
57818W        W24227   0.795  15.163   4.751
57819W        W24228  12.437   9.405   2.026
57820W        W24229  39.450   8.228  12.030
57821W        W24230  24.246  31.943  14.253
57822W        W24231  31.008  33.468  13.193
57823W        W24232  38.551  30.148  14.315
57824W        W24233   3.872  24.565  13.034
57825W        W24234  39.707  38.307   0.850
57826W        W24235  25.804  36.618   0.891
57827W        W24236  32.416  23.540   1.784
57828W        W24237   4.200  19.193   2.623
57829W        W24238  30.421   1.653  11.101
57830W        W24239  38.045   5.940   3.235
57831W        W24240  35.099  25.486   1.906
57832W        W24241  17.080   0.196   1.958
57833W        W24242   9.624  44.903  11.651
57834W        W24243  43.060  15.678  13.304
57835W        W24244  16.158  34.789   2.238
57836W        W24245  16.442  13.777   0.791
57837W        W24246  42.735  19.682  11.245
57838W        W24247  11.866  16.357   2.726
57839W        W24248  29.035  34.439  10.545
57840W        W24249  41.310  29.992   0.288
57841W        W24250  31.896  37.234  10.683
57842W        W24251   0.335  30.036  11.042
57843W        W24252  30.003  44.729   4.442
57844W        W24253   4.212  32.077   4.116
57845W        W24254   4.377  44.020  10.661
57846W        W24255  13.813  17.101   4.695
57847W        W24256  27.250  16.241   4.580
57848W        W24257  30.072  18.766  13.455
57849W        W24258  11.720  28.826   4.486
57850W        W24259  34.299  17.501   3.457
57851W        W24260  37.389  18.401  12.583
57852W        W24261   8.110  18.560  11.205
57853W        W24262  19.634  11.881   3.690
57854W        W24263  22.443   8.176   2.828
57855W        W24264  34.799  41.728  12.569
57856W        W24265  13.153   4.220   3.211
57857W        W24266  41.932  44.024   4.698
57858W        W24267  35.663  34.130   0.828
57859W        W24268   2.860  14.678  13.525
57860W        W24269   5.785  32.918   4.606
57861W        W24270  33.695  16.622   4.168
57862W        W24271  24.267  34.548   2.640
57863W        W24272  25.115  33.417  14.069
57864W        W24273  14.026  24.107   0.296
57865W        W24274   1.401  24.218   1.605
57866W        W24275  42.986  14.872  14.727
57867W        W24276  30.114  40.808  14.989
57868W        W24277  34.978  15.200  11.040
57869W        W24278   0.446  11.931  11.578
57870W        W24279  19.508  11.444   2.877
57871W        W24280  25.540  33.618   2.204
57872W        W24281  39.560  41.147  12.541
57873W        W24282  19.158  18.371  12.043
57874W        W24283  25.709  29.001   3.042
57875W        W24284  44.205  21.183   0.201
57876W        W24285  17.293  10.993   0.056
57877W        W24286  24.974   2.243  14.421
57878W        W24287   3.795  27.358  13.089
57879W        W24288  21.361  37.953  11.584
57880W        W24289   5.552  10.758   4.152
57881W        W24290  42.113  17.635  14.097
57882W        W24291  29.697   5.337  14.261
57883W        W24292   5.947  36.868  12.994
57884W        W24293  39.899   9.568   4.321
57885W        W24294  30.841  25.945  11.156
57886W        W24295   4.658  34.752  12.506
57887W        W24296  36.325  26.102  14.739
57888W        W24297  33.971  21.677  10.720
57889W        W24298  30.823  32.359  11.762
57890W        W24299  10.909  30.092  14.535
57891W        W24300  28.815  12.637  10.897
57892W        W24301   9.069   3.985  10.755
57893W        W24302  20.122  28.544   4.868
57894W        W24303  40.821  33.838   1.250
57895W        W24304  39.514  39.013   0.207
57896W        W24305   2.203  15.105  12.627
57897W        W24306  30.627   5.390   3.729
57898W        W24307  20.677  25.525  14.919
57899W        W24308  28.699  31.175  14.883
57900W        W24309   5.240   4.953   0.305
57901W        W24310   0.516  39.635  11.482
57902W        W24311  30.070   3.673  12.401
57903W        W24312  12.433  14.547  13.585
57904W        W24313   1.809  39.466   4.681
57905W        W24314  20.364  20.568  10.672
57906W        W24315  37.744  37.049  12.237
57907W        W24316  20.083  22.263  12.944
57908W        W24317  24.469  32.610   3.520
57909W        W24318  28.912  19.244   0.110
57910W        W24319  33.332  20.517  10.670
57911W        W24320   7.163  10.645  12.110
57912W        W24321  42.801  11.783  11.531
57913W        W24322  10.357  14.672   2.851
57914W        W24323  18.011  40.096  13.919
57915W        W24324   2.304   9.135   2.655
57916W        W24325   2.984  25.021  13.839
57917W        W24326   0.196  31.975  14.353
57918W        W24327  32.693  36.048   0.323
57919W        W24328   9.307  43.646   3.107
57920W        W24329  12.704  18.095   0.885
57921W        W24330  30.015  37.159   0.656
57922W        W24331  25.675  28.678  13.426
57923W        W24332  16.315  30.148  13.018
57924W        W24333  24.018   9.002   0.906
57925W        W24334  31.403   9.228   1.675
57926W        W24335  17.325   2.115  10.330
57927W        W24336  10.288   9.630  13.855
57928W        W24337  41.936   0.174   0.932
57929W        W24338   7.678  33.938  10.615
57930W        W24339   9.246  37.023   2.630
57931W        W24340  29.885  17.042   0.445
57932W        W24341   9.390   1.478  12.450
57933W        W24342  21.570  33.375  10.694
57934W        W24343  37.279  43.353  10.813
57935W        W24344  34.440   0.536   1.275
57936W        W24345  24.279  20.128  13.315
57937W        W24346  33.695  38.385  13.998
57938W        W24347  43.328  30.627  14.897
57939W        W24348   5.003  20.471  11.186
57940W        W24349  28.709  15.339  11.185
57941W        W24350  40.324  40.380  13.333
57942W        W24351  28.002   8.376   0.071
57943W        W24352   2.123  23.584   1.862
57944W        W24353   7.265  36.375  12.428
57945W        W24354  26.045  37.421   4.154
57946W        W24355  31.162   0.880  10.905
57947W        W24356   4.916  41.686  12.019
57948W        W24357  25.064  16.006   3.972
57949W        W24358  15.107   8.572   1.247
57950W        W24359  38.106  15.224   3.490
57951W        W24360  17.566  39.399   0.230
57952W        W24361  38.887  43.833  11.438
57953W        W24362  44.494  35.471  13.922
57954W        W24363   4.426   9.377  13.921
57955W        W24364   6.203  18.303   4.936
57956W        W24365   3.905   2.325  12.555
57957W        W24366  22.544   0.818  13.077
57958W        W24367  19.612  38.049  12.093
57959W        W24368  29.933   0.739   1.800
57960W        W24369   1.272   1.971   0.030
57961W        W24370  37.572  12.534   0.329
57962W        W24371   2.977  38.494  11.130
57963W        W24372  42.613  12.720  11.918
57964W        W24373  17.672  34.789   0.062
57965W        W24374  30.069  19.728   0.012
57966W        W24375  10.246  40.023   2.815
57967W        W24376  37.913   9.678   3.287
57968W        W24377  33.392  21.999   2.393
57969W        W24378  21.585  38.624  14.052
57970W        W24379  35.087  27.671  10.758
57971W        W24380  41.406  11.789  11.117
57972W        W24381   3.709  38.290  12.345
57973W        W24382  23.910  18.355  11.136
57974W        W24383  29.629   2.763   1.863
57975W        W24384  28.147   3.829   2.383
57976W        W24385  24.943  12.699   3.250
57977W        W24386  23.117  33.250   4.849
57978W        W24387  25.231  10.207  11.182
57979W        W24388   3.770  40.028   3.284
57980W        W24389  43.971  22.073  11.891
57981W        W24390  37.098  22.693   1.459
57982W        W24391   3.495  11.821  10.368
57983W        W24392  17.956  35.873   1.155
57984W        W24393  10.783  29.337   0.187
57985W        W24394   6.230  31.224   1.934
57986W        W24395  19.117  29.442  11.549
57987W        W24396  42.714  33.066   3.100
57988W        W24397  31.983  39.104  12.476
57989W        W24398  22.275  25.551  14.879
57990W        W24399  30.045  12.564  13.005
57991W        W24400  22.077   9.442  14.439
57992W        W24401  15.698  33.892  11.503
57993W        W24402  37.602  39.889  12.918
57994W        W24403  16.155  19.110  10.688
57995W        W24404  20.440  42.036   1.821
57996W        W24405  28.137  43.790   4.474
57997W        W24406  37.366  15.129  10.235
57998W        W24407  31.712  40.985  14.303
57999W        W24408  28.510  40.532  13.414
58000W        W24409  20.083  39.358  10.960
58001W        W24410  14.273  14.746  12.979
58002W        W24411  34.658   2.345   3.223
58003W        W24412  37.926  31.927   1.351
58004W        W24413  44.607  28.380   4.147
58005W        W24414   7.100  36.555   4.175
58006W        W24415  35.616   4.754   4.575
58007W        W24416  37.569  33.681  12.980
58008W        W24417  16.694  10.850   4.526
58009W        W24418  24.188  24.717  12.943
58010W        W24419  42.347  19.796  11.972
58011W        W24420   3.853   1.424   0.703
58012W        W24421  16.614  11.705  12.952
58013W        W24422  34.820   1.697   2.876
58014W        W24423  30.616  21.610   4.165
58015W        W24424  20.745   5.295   0.541
58016W        W24425  43.193  40.832  11.988
58017W        W24426  13.119  41.371   1.830
58018W        W24427  15.754  13.393  11.658
58019W        W24428   6.671  18.713   1.593
58020W        W24429  42.889   3.882  13.494
58021W        W24430  16.225   5.751  10.773
58022W        W24431  40.367   3.377  11.643
58023W        W24432   1.945   9.198  13.500
58024W        W24433   1.207  32.185  14.362
58025W        W24434  20.238  43.578  11.483
58026W        W24435  34.510  25.227  12.840
58027W        W24436  18.647  22.426   1.289
58028W        W24437  42.783   0.424   3.404
58029W        W24438  13.190  38.155   1.490
58030W        W24439  19.078  44.859   4.097
58031W        W24440   4.972  35.239   2.824
58032W        W24441  28.687  19.464  14.691
58033W        W24442  29.734   1.431  10.641
58034W        W24443   7.156  40.024   2.814
58035W        W24444  11.733   5.356  11.104
58036W        W24445  12.699  25.671   3.701
58037W        W24446   4.749  10.064  12.107
58038W        W24447  29.182   2.765  10.272
58039W        W24448  26.320  19.866   2.295
58040W        W24449  36.854  35.346   1.453
58041W        W24450  38.468  19.124  11.150
58042W        W24451  35.999  39.313  11.187
58043W        W24452  12.238  38.295   2.182
58044W        W24453  25.773  37.144   0.757
58045W        W24454   3.469  38.275   1.243
58046W        W24455  37.410  33.298   4.087
58047W        W24456  40.923  19.055  12.938
58048W        W24457  10.134  13.411  12.663
58049W        W24458  11.746  42.731  10.731
58050W        W24459  37.108  20.995  12.980
58051W        W24460   5.441  41.833  13.455
58052W        W24461   7.882  32.195  14.970
58053W        W24462  23.206  16.816   2.640
58054W        W24463  15.811  15.790   3.732
58055W        W24464  38.375  44.006  11.545
58056W        W24465  33.057  43.379  10.552
58057W        W24466  30.965  44.794   2.713
58058W        W24467  15.085  29.056  12.072
58059W        W24468  36.511  39.617   0.856
58060W        W24469  27.596   6.010   0.003
58061W        W24470  10.146  11.831  14.067
58062W        W24471  44.973  27.697  12.199
58063W        W24472  40.442  41.647  10.318
58064W        W24473   7.756  40.747  12.475
58065W        W24474   5.934  29.069  11.940
58066W        W24475  11.329  32.404  12.769
58067W        W24476  33.372  31.789   0.821
58068W        W24477  38.331   5.420   2.394
58069W        W24478  24.682   4.467   4.711
58070W        W24479  31.124  31.278  14.047
58071W        W24480  36.283  21.684   0.915
58072W        W24481   7.182  33.826   3.732
58073W        W24482  31.961  13.270   2.622
58074W        W24483  26.099  24.707   3.511
58075W        W24484   5.742  39.397   1.110
58076W        W24485  26.719  25.283   2.763
58077W        W24486  11.598   8.600  10.649
58078W        W24487  35.661  44.333   2.765
58079W        W24488  12.938  21.840   5.326
58080W        W24489  30.590  19.607  14.014
58081W        W24490   4.145  11.888   0.357
58082W        W24491  14.042  23.934  11.521
58083W        W24492  34.392  43.804   1.655
58084W        W24493  21.671  37.986   2.209
58085W        W24494  22.769  14.066  14.764
58086W        W24495   7.367   8.204  11.951
58087W        W24496  25.131  36.995  12.262
58088W        W24497  32.888  28.110   3.974
58089W        W24498  17.529  11.764  10.643
58090W        W24499  44.312  29.173  11.490
58091W        W24500  39.872  34.967   2.203
58092W        W24501  17.643  35.458  10.822
58093W        W24502  27.204  32.899   4.129
58094W        W24503  27.701  38.654  14.001
58095W        W24504  34.640  42.434  11.966
58096W        W24505  14.464  31.352   0.085
58097W        W24506  20.535  44.988   4.540
58098W        W24507   1.720  16.171  12.813
58099W        W24508  41.595  43.761   0.700
58100W        W24509   9.462  25.812   3.329
58101W        W24510  25.297  27.076  14.796
58102W        W24511  42.625   6.915  12.109
58103W        W24512  40.093  44.081   2.886
58104W        W24513  29.618   6.412   2.753
58105W        W24514  36.904   2.693  14.807
58106W        W24515  39.585  27.135   1.539
58107W        W24516  11.129   2.713  14.459
58108W        W24517  26.090  31.185  14.809
58109W        W24518  36.773   1.192   0.855
58110W        W24519  20.192  12.912  13.492
58111W        W24520  12.141  27.731   0.130
58112W        W24521  28.490   4.266  11.618
58113W        W24522  43.801  14.154   0.318
58114W        W24523  42.006  34.374   4.606
58115W        W24524   4.769  33.934   3.153
58116W        W24525   5.447  23.920   3.794
58117W        W24526   7.905  35.334  13.005
58118W        W24527   3.776  43.509  12.158
58119W        W24528  16.188  41.563   4.612
58120W        W24529  38.211  33.596   1.661
58121W        W24530  22.507  12.892   2.289
58122W        W24531  18.600  35.164   1.135
58123W        W24532  41.352   8.648   3.210
58124W        W24533   3.309  13.281  12.339
58125W        W24534  19.086  41.487  14.947
58126W        W24535  37.422  17.177   2.354
58127W        W24536  23.496  37.548   0.697
58128W        W24537   2.673  36.553   4.127
58129W        W24538  28.121   5.152  13.847
58130W        W24539   0.347  24.273  13.301
58131W        W24540  14.852  20.067  10.223
58132W        W24541   9.433   5.726  12.497
58133W        W24542  41.364  32.029  10.247
58134W        W24543   0.877  36.463  14.367
58135W        W24544  16.996   0.506   4.258
58136W        W24545   4.021  34.835   1.371
58137W        W24546  16.274   9.167  12.122
58138W        W24547  38.892  10.623  14.192
58139W        W24548  43.483  41.386  14.289
58140W        W24549  20.618   5.692   3.219
58141W        W24550   3.048  43.713  12.865
58142W        W24551  14.087   0.484   5.174
58143W        W24552  19.229   5.843   3.692
58144W        W24553  10.116  12.938   4.502
58145W        W24554  23.484   3.703   2.020
58146W        W24555  24.085  13.161  14.084
58147W        W24556  32.544   0.878  10.745
58148W        W24557  12.134  34.434  14.971
58149W        W24558  21.661  28.792  14.372
58150W        W24559  24.475   1.509  11.066
58151W        W24560  18.643  44.894  13.555
58152W        W24561  29.088  42.860   1.887
58153W        W24562  14.915  35.569  13.479
58154W        W24563  15.117  29.433  11.573
58155W        W24564   8.678  10.224  11.200
58156W        W24565  44.592  18.421  13.998
58157W        W24566  16.015  37.057   1.334
58158W        W24567  17.768   9.506  12.650
58159W        W24568   0.499  39.010   2.787
58160W        W24569   8.229  32.070   1.896
58161W        W24570   0.757  44.620   3.897
58162W        W24571  14.113  16.261   3.866
58163W        W24572  14.705   1.800  10.714
58164W        W24573   1.173  42.202  14.848
58165W        W24574  38.384   5.083  13.303
58166W        W24575  24.100  30.184  10.775
58167W        W24576  37.834  22.088   3.835
58168W        W24577   9.741  23.216  13.966
58169W        W24578  19.382  24.670   0.967
58170W        W24579   7.600  42.375   2.757
58171W        W24580  33.759  11.792  11.537
58172W        W24581  18.508  12.796  10.375
58173W        W24582  24.963  14.618   3.750
58174W        W24583  43.952  25.753  10.565
58175W        W24584   1.846  18.082   0.822
58176W        W24585   4.270  32.589   4.041
58177W        W24586  41.665  17.692   0.727
58178W        W24587  25.393   1.296  13.892
58179W        W24588  35.156   5.700  10.718
58180W        W24589  11.486  34.849  13.273
58181W        W24590  32.013   1.267  13.884
58182W        W24591  33.003   0.532  11.528
58183W        W24592   5.530  34.985  13.711
58184W        W24593   3.829  34.577   0.127
58185W        W24594  38.419  30.206   1.342
58186W        W24595  12.588  21.254  10.241
58187W        W24596   6.251   0.359  14.916
58188W        W24597  14.197  20.573   3.884
58189W        W24598   4.741  12.181   2.918
58190W        W24599  37.524  13.619   0.489
58191W        W24600  44.594  21.508  13.953
58192W        W24601  26.363   2.598  12.904
58193W        W24602  16.099  31.693   3.473
58194W        W24603  38.245  35.224  12.082
58195W        W24604  27.883  33.939   3.694
58196W        W24605  37.762  36.110   3.812
58197W        W24606  41.919  12.601  10.376
58198W        W24607  18.780  13.066  11.610
58199W        W24608   2.189  36.895  12.948
58200W        W24609  19.407  36.107  13.856
58201W        W24610  11.919  19.011   0.499
58202W        W24611  24.144  38.660  14.907
58203W        W24612   8.449   1.547   2.358
58204W        W24613  12.302  32.529  12.330
58205W        W24614  11.731  25.710  11.779
58206W        W24615  41.305   3.398   0.232
58207W        W24616   4.938  20.225  10.405
58208W        W24617   2.965  24.005  13.513
58209W        W24618  33.172  38.618   0.516
58210W        W24619  13.315  24.502   4.570
58211W        W24620  11.211  39.105   0.332
58212W        W24621  44.068   1.847  13.433
58213W        W24622  39.112  12.068   1.956
58214W        W24623  34.171  16.247  13.446
58215W        W24624  20.059  34.421  13.024
58216W        W24625  21.784  17.647  13.796
58217W        W24626  22.118  20.564   3.717
58218W        W24627  43.239  23.697  13.913
58219W        W24628  30.703  23.678  11.662
58220W        W24629  41.619  40.899   3.225
58221W        W24630   0.671  40.243   0.935
58222W        W24631  43.138  27.306   1.436
58223W        W24632   5.219  16.736   0.312
58224W        W24633  23.994   3.421   4.380
58225W        W24634   6.610  23.711   0.449
58226W        W24635  44.348  39.520   2.721
58227W        W24636  21.732  21.857   0.096
58228W        W24637   7.419  11.185  14.421
58229W        W24638  44.828   8.813  13.619
58230W        W24639  20.873  20.701   3.292
58231W        W24640   4.939  27.745   5.035
58232W        W24641  37.837  28.307   3.248
58233W        W24642  27.096  27.059   1.359
58234W        W24643  10.760   2.920  12.127
58235W        W24644  34.658  39.299  12.006
58236W        W24645  30.951  23.990   1.804
58237W        W24646  27.882  11.858  14.441
58238W        W24647  42.146  12.760  12.618
58239W        W24648   0.229   4.725   2.181
58240W        W24649  24.634  36.176  10.785
58241W        W24650  43.554  35.198  13.005
58242W        W24651  41.009   1.409  14.555
58243W        W24652  42.063   9.189   3.585
58244W        W24653  37.270  40.423   2.301
58245W        W24654   6.221  19.837   4.545
58246W        W24655   0.413  31.875   0.723
58247W        W24656   4.000  11.135   1.250
58248W        W24657  24.488   5.601  14.861
58249W        W24658  21.510  23.100   2.834
58250W        W24659   3.303  11.617   0.395
58251W        W24660  16.385  13.527   3.046
58252W        W24661  26.657   3.544  10.758
58253W        W24662  41.829  36.959   3.296
58254W        W24663  17.888   0.546   4.072
58255W        W24664  16.280  10.846  11.091
58256W        W24665  44.855  29.189  11.995
58257W        W24666  23.529  23.349   4.500
58258W        W24667   5.928  29.467   4.759
58259W        W24668  15.345  36.354  12.219
58260W        W24669  14.670   2.428   0.100
58261W        W24670  25.198  38.256   2.587
58262W        W24671  19.878   5.056   4.535
58263W        W24672   2.364  12.833  12.123
58264W        W24673  28.414  26.312   3.276
58265W        W24674  31.234  20.822   0.710
58266W        W24675  12.892   8.830   3.732
58267W        W24676  14.574  33.868  12.172
58268W        W24677   3.496  25.124  14.858
58269W        W24678  41.951   5.703  12.507
58270W        W24679  26.676  18.902  10.890
58271W        W24680  21.000  32.034   0.266
58272W        W24681  21.217  14.873  11.532
58273W        W24682  21.255  30.100   0.896
58274W        W24683  34.112  18.343  11.257
58275W        W24684  37.983  41.139  14.453
58276W        W24685  12.302  30.083   1.483
58277W        W24686  37.952   0.980   2.886
58278W        W24687  41.324  43.278   0.285
58279W        W24688  16.752  18.342   2.742
58280W        W24689  28.682   2.227  10.572
58281W        W24690  21.092  25.735  12.042
58282W        W24691   3.155  33.348  12.143
58283W        W24692  39.928  14.119  12.999
58284W        W24693  15.033   5.325   1.425
58285W        W24694  19.525  15.742  11.680
58286W        W24695  34.657  34.210  14.108
58287W        W24696   8.148  31.006   3.600
58288W        W24697  17.903  28.048  13.300
58289W        W24698  32.126  34.431  10.339
58290W        W24699  32.068   2.911  11.357
58291W        W24700  44.334  14.809   0.852
58292W        W24701  24.470  13.880  13.108
58293W        W24702   7.431  40.915   1.862
58294W        W24703  17.550  37.497   0.905
58295W        W24704  25.771  19.249   4.663
58296W        W24705  22.171  38.474  12.447
58297W        W24706  35.060  17.570  12.876
58298W        W24707  32.598  32.790   4.489
58299W        W24708  41.620   3.502  13.332
58300W        W24709  44.303  33.770   1.517
58301W        W24710  26.056  29.463  10.582
58302W        W24711  28.760  31.828  11.197
58303W        W24712  44.916  44.014   1.254
58304W        W24713  10.566  39.264  11.170
58305W        W24714  30.558   6.156  11.964
58306W        W24715  24.868   9.272  10.280
58307W        W24716  39.413  16.352  12.092
58308W        W24717   7.312  13.265   4.273
58309W        W24718  26.407  16.684  11.433
58310W        W24719  29.974  14.648   3.576
58311W        W24720  32.317   7.689  13.786
58312W        W24721  42.598  31.369  11.538
58313W        W24722  19.641   3.612  14.540
58314W        W24723   1.508  40.091   3.237
58315W        W24724  44.797  19.296   2.637
58316W        W24725   7.601  29.051  10.196
58317W        W24726  22.003  27.424  10.379
58318W        W24727  34.987  10.797  11.970
58319W        W24728  23.546  11.638   4.327
58320W        W24729  22.734  21.335  10.092
58321W        W24730  43.008  32.837  11.926
58322W        W24731  41.938  30.474  14.239
58323W        W24732  18.572   3.152   5.038
58324W        W24733  15.139  35.122  12.041
58325W        W24734   4.909   3.195   0.565
58326W        W24735  44.964  14.139   1.963
58327W        W24736  16.010  31.732  12.214
58328W        W24737  28.685  43.903  11.492
58329W        W24738   7.203  15.496  13.760
58330W        W24739   7.656  20.250  12.643
58331W        W24740   4.193  25.254  13.613
58332W        W24741  42.913  42.292  11.914
58333W        W24742  18.854   1.997   5.015
58334W        W24743   8.155  17.557   0.261
58335W        W24744   9.805  43.557  13.850
58336W        W24745  37.416  10.045   4.111
58337W        W24746  41.956  23.309   2.407
58338W        W24747  37.252   9.697   0.415
58339W        W24748  22.624   6.638   2.784
58340W        W24749   6.560   3.096  13.181
58341W        W24750  39.086  32.529  12.799
58342W        W24751  40.452   0.599  14.567
58343W        W24752  22.081  35.443   4.714
58344W        W24753  11.152  44.859  10.580
58345W        W24754  17.788   3.199   3.791
58346W        W24755   6.038   7.794   3.561
58347W        W24756   3.904  21.585   0.873
58348W        W24757  24.793  27.955   0.630
58349W        W24758  44.369  21.123   4.287
58350W        W24759  26.693  25.223  14.362
58351W        W24760   9.132  44.273   0.195
58352W        W24761  31.952  11.448  12.947
58353W        W24762   2.501  28.840  14.940
58354W        W24763   7.095   6.693   4.529
58355W        W24764  15.244  18.245   1.757
58356W        W24765  32.630  34.875   3.779
58357W        W24766  38.627  44.229   3.740
58358W        W24767   4.032   3.858  14.411
58359W        W24768   8.457  25.023   2.889
58360W        W24769  35.318   5.920   1.929
58361W        W24770   4.654  43.476  13.884
58362W        W24771   2.828  21.942  13.378
58363W        W24772  13.729  22.175  11.287
58364W        W24773   7.380  26.590  10.688
58365W        W24774  42.536   7.940   4.070
58366W        W24775  19.923  23.259  13.045
58367W        W24776  10.118  38.629   1.328
58368W        W24777  37.194   8.223  10.690
58369W        W24778  26.016  39.022  10.717
58370W        W24779  44.870  19.943   1.202
58371W        W24780  32.493  23.263   4.069
58372W        W24781  11.839  29.050   1.958
58373W        W24782  13.376   3.230   1.433
58374W        W24783  33.912  18.547   4.617
58375W        W24784  18.011   4.901  11.705
58376W        W24785  34.620  37.998  13.515
58377W        W24786  18.069  40.243   0.407
58378W        W24787  36.439  23.893  11.059
58379W        W24788  17.681  30.908  14.345
58380W        W24789  17.609  31.133   0.553
58381W        W24790   0.642  31.355   3.103
58382W        W24791   2.205  15.609   4.103
58383W        W24792  29.765  42.335   0.693
58384W        W24793  16.125  18.158  11.233
58385W        W24794   6.890  21.388  14.614
58386W        W24795   2.265  41.776   3.336
58387W        W24796   4.718  34.585  13.265
58388W        W24797  14.135   9.762  12.951
58389W        W24798  17.836  43.979   3.328
58390W        W24799   3.468   3.236  12.817
58391W        W24800   6.983  32.748  14.826
58392W        W24801   8.826   9.693  12.430
58393W        W24802  29.909  39.329  12.434
58394W        W24803  32.805   8.545   0.810
58395W        W24804  32.502  10.713  11.979
58396W        W24805  20.178   2.358  13.822
58397W        W24806  30.581  31.394   0.829
58398W        W24807  33.468  33.335  12.125
58399W        W24808  12.822  40.678  13.571
58400W        W24809  38.272  23.105  11.185
58401W        W24810  24.133  32.501   2.248
58402W        W24811  13.656  36.960  14.322
58403W        W24812  24.908  37.330   0.314
58404W        W24813  44.947  30.352  12.502
58405W        W24814  16.096  44.885  10.503
58406W        W24815   6.760  16.632   2.774
58407W        W24816  33.682  11.846   4.907
58408W        W24817   8.909  29.140   1.832
58409W        W24818  10.817  19.381   0.891
58410W        W24819  10.534  41.581   3.713
58411W        W24820  23.171  22.704   5.315
58412W        W24821   7.615  18.156  13.111
58413W        W24822   4.213  22.952  11.093
58414W        W24823  42.859  18.980  11.762
58415W        W24824  12.859  34.928  10.666
58416W        W24825  24.967   9.700  12.521
58417W        W24826  23.243  34.526   2.614
58418W        W24827  34.314  44.816  11.546
58419W        W24828  30.679  44.440   1.932
58420W        W24829  24.425  36.274   3.453
58421W        W24830  16.690  13.403   3.451
58422W        W24831  43.303   5.373  13.530
58423W        W24832  21.696  26.886  13.509
58424W        W24833  13.104  18.319   1.821
58425W        W24834  25.651  20.654   4.320
58426W        W24835  28.143  38.767  11.643
58427W        W24836  14.403   7.249   1.910
58428W        W24837  35.027   0.262   3.564
58429W        W24838  14.802  23.858  13.828
58430W        W24839   9.398  43.925   3.945
58431W        W24840  31.035  24.862  10.591
58432W        W24841  35.023   3.477  10.860
58433W        W24842  28.129  29.347  14.374
58434W        W24843  14.356  30.680  12.981
58435W        W24844  31.058   2.811  12.899
58436W        W24845   3.470  40.923  12.636
58437W        W24846  37.839  30.451  11.154
58438W        W24847  12.379  10.307   0.262
58439W        W24848   0.468   9.617  14.840
58440W        W24849  17.761  29.422  10.485
58441W        W24850  27.401   6.173   4.196
58442W        W24851  17.228  31.403  11.606
58443W        W24852   2.493  15.818   1.938
58444W        W24853   7.099   7.673  14.955
58445W        W24854   0.549  12.764  14.485
58446W        W24855  31.006  25.016  12.859
58447W        W24856  23.527   8.760   0.841
58448W        W24857  22.731  28.722   1.396
58449W        W24858  44.798  11.390   4.042
58450W        W24859  23.216  42.686  11.069
58451W        W24860  25.827   9.891  11.562
58452W        W24861  14.703   3.225  13.469
58453W        W24862  42.248  44.449  13.414
58454W        W24863  23.289  38.463  14.289
58455W        W24864  19.502   6.955  10.924
58456W        W24865   5.866  26.968   3.394
58457W        W24866  27.908  23.216   1.486
58458W        W24867  28.348  35.552  11.617
58459W        W24868  17.238  10.950  12.439
58460W        W24869  43.628  13.093  12.043
58461W        W24870   9.205  44.140  11.385
58462W        W24871   3.019  29.384   2.823
58463W        W24872  37.645  28.220  13.860
58464W        W24873  38.839  29.496   4.414
58465W        W24874  27.570  30.653  14.337
58466W        W24875   6.230  32.882   2.136
58467W        W24876  29.156  39.011   2.649
58468W        W24877  20.179   3.302   0.895
58469W        W24878  29.472  17.555  13.118
58470W        W24879  19.934   9.372  13.465
58471W        W24880  35.602   3.548   5.091
58472W        W24881  21.524   9.951  13.077
58473W        W24882  39.940  26.981   0.532
58474W        W24883   9.307  33.049  11.730
58475W        W24884   1.289  35.552  12.451
58476W        W24885   4.611  36.475   3.846
58477W        W24886  39.945  29.894   0.302
58478W        W24887  26.024  19.629   3.450
58479W        W24888  35.392  24.627  11.828
58480W        W24889   2.514  16.489  13.933
58481W        W24890  34.655  17.921   4.276
58482W        W24891   0.012  23.233   1.941
58483W        W24892   6.299   1.868  12.489
58484W        W24893  44.793   8.019   0.354
58485W        W24894  36.383  43.853  10.785
58486W        W24895   0.328  28.934  11.765
58487W        W24896  12.311   6.107  12.414
58488W        W24897  29.125  16.619  11.181
58489W        W24898  22.267  29.205   4.114
58490W        W24899  20.981   7.882   3.268
58491W        W24900  38.473  38.662   1.239
58492W        W24901  18.757   1.018  10.832
58493W        W24902  42.079  23.628   1.790
58494W        W24903  19.394  36.104  12.990
58495W        W24904  43.884  39.057  13.249
58496W        W24905  39.504  36.534  11.570
58497W        W24906  37.803  34.962  13.343
58498W        W24907  21.180  41.942   0.766
58499W        W24908   3.451   9.768  13.095
58500W        W24909  38.856  17.744   3.044
58501W        W24910  14.882  31.968   1.829
58502W        W24911  28.611  44.911  14.631
58503W        W24912  16.262   3.670   2.247
58504W        W24913  34.604  26.869  14.927
58505W        W24914  28.757  33.800   4.426
58506W        W24915   7.064  14.348   0.782
58507W        W24916   4.727   0.002   3.229
58508W        W24917  26.343  18.461  10.163
58509W        W24918  33.355  12.587  14.294
58510W        W24919   3.665  36.118  12.612
58511W        W24920  27.241   5.249   0.837
58512W        W24921  27.173  41.023   3.177
58513W        W24922  31.708  13.159  10.672
58514W        W24923   3.897  35.400   0.747
58515W        W24924  33.319  28.494  14.080
58516W        W24925  23.748  14.331   3.135
58517W        W24926  36.656  17.677  10.654
58518W        W24927  44.296  12.147  14.012
58519W        W24928  30.380  10.254  12.083
58520W        W24929  19.752  12.710   0.266
58521W        W24930  16.030   2.753   4.104
58522W        W24931   2.391   9.155   0.754
58523W        W24932  31.551  26.177  10.431
58524W        W24933  39.373  24.461  12.835
58525W        W24934  12.625   5.200   3.892
58526W        W24935  14.868   8.340   4.676
58527W        W24936   3.242   1.774   1.757
58528W        W24937  14.184  33.810   4.077
58529W        W24938  12.729  14.603   4.942
58530W        W24939  30.666  35.448   3.355
58531W        W24940  16.984  29.159  14.804
58532W        W24941   1.844   6.954   2.363
58533W        W24942  32.759   0.471   1.379
58534W        W24943  23.091  32.689   1.473
58535W        W24944  18.136  11.207  13.056
58536W        W24945  22.161  41.307  13.037
58537W        W24946  24.935   5.776   0.839
58538W        W24947  43.024  33.024   4.497
58539W        W24948  28.380  12.158   0.008
58540W        W24949  21.585   4.169  13.099
58541W        W24950  32.544   9.117  10.950
58542W        W24951  25.956  22.205  14.010
58543W        W24952   7.609  31.104  10.351
58544W        W24953  21.576  14.335  12.139
58545W        W24954  23.253  28.386   0.300
58546W        W24955  21.250  42.018  11.597
58547W        W24956  33.068  35.785   2.295
58548W        W24957  11.769   1.883  12.040
58549W        W24958   7.665  34.305  13.040
58550W        W24959  43.465  41.246   5.182
58551W        W24960  35.617   9.829  10.721
58552W        W24961   3.281   6.349   0.373
58553W        W24962  40.956  35.588  12.572
58554W        W24963  13.181  17.362   0.080
58555W        W24964  12.906   6.302   0.762
58556W        W24965  14.436  30.413  10.802
58557W        W24966   1.778  26.011   0.940
58558W        W24967   3.231   6.865  13.388
58559W        W24968  32.602  15.041  14.435
58560W        W24969  31.076   9.735  14.665
58561W        W24970  39.105  26.715   2.294
58562W        W24971  17.317   6.805   4.591
58563W        W24972  27.392   5.259  11.888
58564W        W24973  13.752   0.016   5.404
58565W        W24974   4.284   3.198   0.959
58566W        W24975  20.273  39.364  14.745
58567W        W24976  12.307  11.176  11.253
58568W        W24977  12.630   8.731   3.204
58569W        W24978  22.785   9.868   0.472
58570W        W24979  16.880  43.950   3.193
58571W        W24980  16.496  18.710  12.490
58572W        W24981  30.370  38.777   0.830
58573W        W24982  26.008  10.272   0.615
58574W        W24983   9.357   9.505  14.757
58575W        W24984  31.966  31.705   4.099
58576W        W24985  24.761  32.196  11.195
58577W        W24986  43.367  32.070   2.610
58578W        W24987   7.390   3.902   4.118
58579W        W24988  38.479  36.863  12.379
58580W        W24989  29.030   6.247   1.421
58581W        W24990  32.240  33.070  11.991
58582W        W24991  21.141  21.240   3.593
58583W        W24992  31.185  28.977   2.346
58584W        W24993   3.711  44.794   0.484
58585W        W24994  22.356  44.430   1.444
58586W        W24995  36.228   8.171  11.128
58587W        W24996  35.357  14.546  14.728
58588W        W24997  28.147  22.672   3.298
58589W        W24998  28.932  22.172  14.489
58590W        W24999  42.146  31.129   1.355
58591W        W25000  37.912  12.052  10.652
58592W        W25001   2.931  37.890   2.467
58593W        W25002  23.095  36.268   2.862
58594W        W25003  43.226  42.488  14.002
58595W        W25004  18.956  28.516  13.598
58596W        W25005  31.137  14.929   3.928
58597W        W25006  37.645   1.198   4.573
58598W        W25007  12.841   8.732  11.037
58599W        W25008  28.878  34.378   0.407
58600W        W25009  11.161  39.434  13.267
58601W        W25010  15.787  34.508   4.512
58602W        W25011  20.827  32.960   1.830
58603W        W25012  22.715   1.945  10.639
58604W        W25013  40.421   9.647  11.204
58605W        W25014  33.220  14.613   2.833
58606W        W25015  42.795  23.764  12.972
58607W        W25016   9.759  29.436  11.893
58608W        W25017  10.223  40.024  14.445
58609W        W25018  10.817   4.028   0.585
58610W        W25019   0.323  33.880   0.798
58611W        W25020  35.568  12.116   1.359
58612W        W25021  20.680  20.466  14.833
58613W        W25022  25.609  23.467  11.438
58614W        W25023   8.277  14.952  13.805
58615W        W25024  12.167   7.919  11.068
58616W        W25025  21.790  30.441  12.849
58617W        W25026  38.835  24.512  14.911
58618W        W25027  14.676  35.918   2.836
58619W        W25028   4.224  43.570   2.756
58620W        W25029  31.871   6.235  11.640
58621W        W25030   2.313  33.849  12.989
58622W        W25031  43.862  13.816   1.807
58623W        W25032   9.799  41.978   0.867
58624W        W25033  14.673  13.251  10.689
58625W        W25034   9.389   9.371  11.052
58626W        W25035   0.839  15.547   5.074
58627W        W25036  34.805   1.765   1.199
58628W        W25037  30.219  11.946   2.265
58629W        W25038  13.187  15.842   1.175
58630W        W25039  34.037  17.691   4.461
58631W        W25040  44.383  18.273   1.198
58632W        W25041  26.469  38.556  13.015
58633W        W25042  25.961  37.807   2.314
58634W        W25043  33.286  14.357  13.621
58635W        W25044   3.622  37.887   4.509
58636W        W25045  20.895   6.329  14.964
58637W        W25046  31.301  43.479  11.141
58638W        W25047  19.679  37.370  11.015
58639W        W25048   5.201   6.858   3.782
58640W        W25049   3.783  38.633   3.323
58641W        W25050  22.481   5.668   3.175
58642W        W25051  23.615  13.128   2.743
58643W        W25052  38.325  39.090  10.963
58644W        W25053   7.737  22.050   0.458
58645W        W25054  23.175   3.821  10.694
58646W        W25055  32.383   0.384  10.739
58647W        W25056  20.521  41.434   0.363
58648W        W25057  43.787   3.834  12.206
58649W        W25058  39.984   1.706  11.209
58650W        W25059  33.091  29.772  13.060
58651W        W25060  38.244   9.816   2.694
58652W        W25061  34.066  21.010  14.931
58653W        W25062  44.866  30.667   3.342
58654W        W25063  14.263  41.999  12.901
58655W        W25064  21.319  20.376  13.885
58656W        W25065  12.374  13.167   0.538
58657W        W25066  18.891   7.007  11.488
58658W        W25067  10.064  26.550   1.306
58659W        W25068  22.923   5.800   2.936
58660W        W25069  15.858  23.632   1.321
58661W        W25070  28.478  44.459  14.817
58662W        W25071  32.793  42.516   1.527
58663W        W25072  28.555  35.075   1.279
58664W        W25073   8.202  41.339  14.939
58665W        W25074  14.307  13.937   3.495
58666W        W25075  40.798   6.680  11.138
58667W        W25076  13.071  29.151  11.021
58668W        W25077  22.187  38.423  11.515
58669W        W25078  23.689  36.753   2.286
58670W        W25079  10.999  10.268   3.058
58671W        W25080  10.748   4.891  11.421
58672W        W25081   2.356  17.473   4.134
58673W        W25082   9.571  11.488  10.349
58674W        W25083  13.648  39.076   1.335
58675W        W25084  26.035  16.610   1.680
58676W        W25085   4.280  37.873   1.529
58677W        W25086  36.499  28.010   9.866
58678W        W25087  24.616   4.354   1.925
58679W        W25088  26.235  38.469  14.014
58680W        W25089  36.154  24.163  14.331
58681W        W25090  39.947  43.025   4.378
58682W        W25091   1.764  13.258   4.450
58683W        W25092  32.845  43.012   1.809
58684W        W25093  30.803  32.085   1.240
58685W        W25094  33.364  37.003  12.083
58686W        W25095   3.683  35.032   4.087
58687W        W25096  32.184  27.553   1.947
58688W        W25097  18.983  35.630  14.406
58689W        W25098  26.940  42.049   2.316
58690W        W25099  40.326   5.667   4.138
58691W        W25100  31.645  16.727  11.207
58692W        W25101  11.067  12.224   4.039
58693W        W25102   8.799  40.375   5.088
58694W        W25103  26.726  43.005  13.011
58695W        W25104   2.341  25.073   2.313
58696W        W25105  10.630  38.458   4.799
58697W        W25106  16.610   8.325   1.773
58698W        W25107   5.994  21.470   4.173
58699W        W25108  12.640  12.910   3.558
58700W        W25109   2.744   1.526   2.244
58701W        W25110  18.135  27.916   3.117
58702W        W25111   6.340   2.891  12.753
58703W        W25112  14.324  42.435   1.608
58704W        W25113  10.792  34.374   0.275
58705W        W25114  18.803  18.727  14.424
58706W        W25115  28.125  17.709   2.698
58707W        W25116  37.883  34.968   3.704
58708W        W25117  10.034  44.290  11.163
58709W        W25118  39.945  33.701  13.813
58710W        W25119  35.660  37.793  11.927
58711W        W25120  30.254  22.695   2.435
58712W        W25121  36.448  27.987   4.884
58713W        W25122   1.970  22.065  13.366
58714W        W25123  15.829  18.512   4.704
58715W        W25124  22.614   7.806  14.844
58716W        W25125  13.805  13.595  14.873
58717W        W25126   2.402  28.645   1.932
58718W        W25127  18.282   2.911   2.222
58719W        W25128  30.882  16.601  10.733
58720W        W25129  10.307   4.386   4.798
58721W        W25130  12.474  28.224   4.131
58722W        W25131   9.361  26.704  13.404
58723W        W25132  31.954  38.911  13.012
58724W        W25133  34.451  17.893   0.278
58725W        W25134   2.914  41.271  13.046
58726W        W25135  41.829   5.863   2.547
58727W        W25136  34.969  22.059   4.802
58728W        W25137  39.528  29.074  10.405
58729W        W25138  26.076  30.458   3.308
58730W        W25139   3.522   9.809   2.216
58731W        W25140   7.650  26.126   0.417
58732W        W25141  34.007  32.990  11.253
58733W        W25142  34.098   2.822   0.276
58734W        W25143   3.419  40.898  11.437
58735W        W25144   7.610   7.394   1.301
58736W        W25145   3.141  29.166  11.003
58737W        W25146  41.341  27.457  14.087
58738W        W25147  34.014  35.345   3.680
58739W        W25148  21.082   7.727   2.802
58740W        W25149  20.538  20.111   4.340
58741W        W25150  26.571  30.611  14.291
58742W        W25151  28.095  29.193   3.659
58743W        W25152  26.421  27.264  10.671
58744W        W25153  10.674  13.335  10.944
58745W        W25154  35.792  14.341   4.163
58746W        W25155  34.129  29.157  10.615
58747W        W25156  35.669   0.202  14.280
58748W        W25157  17.722  41.768   4.307
58749W        W25158   9.252   6.490   1.289
58750W        W25159   6.695  29.723  10.710
58751W        W25160  13.126  10.601   3.735
58752W        W25161  28.418  19.598   0.213
58753W        W25162  15.566  20.562  12.057
58754W        W25163   1.488   5.795   4.370
58755W        W25164   6.141  39.439   1.500
58756W        W25165  28.953  27.578   1.228
58757W        W25166  36.552  17.249   2.428
58758W        W25167  16.789  34.123  11.160
58759W        W25168   6.018  22.750   2.788
58760W        W25169  13.647  33.256   0.749
58761W        W25170  36.529  33.547  13.409
58762W        W25171  37.912  17.957   3.357
58763W        W25172  13.649  38.807  14.725
58764W        W25173   6.730  39.725  13.799
58765W        W25174  32.026  30.181  13.851
58766W        W25175   1.452  36.402  11.184
58767W        W25176  35.709   5.424   0.379
58768W        W25177  40.042  15.133   1.887
58769W        W25178   0.219  39.438   1.008
58770W        W25179  40.406  42.513   4.802
58771W        W25180  42.221  13.159   1.355
58772W        W25181  41.369  25.068   0.947
58773W        W25182  16.952  43.492   0.830
58774W        W25183   4.238  21.086  11.135
58775W        W25184  42.665   5.320  10.796
58776W        W25185  13.118  15.571  14.470
58777W        W25186  29.135   5.733   3.418
58778W        W25187  39.656  35.110   3.362
58779W        W25188  33.631  14.112  10.478
58780W        W25189  17.649  26.069  10.586
58781W        W25190  18.012  31.847   0.270
58782W        W25191  36.145   3.667   1.995
58783W        W25192  30.237  27.098   3.226
58784W        W25193  39.530   1.951   0.729
58785W        W25194  19.533   3.918  11.508
58786W        W25195  29.531  27.542  11.132
58787W        W25196  22.264  26.010   2.755
58788W        W25197  27.083  10.831   9.904
58789W        W25198   3.996  24.995   1.561
58790W        W25199  41.385  12.302  11.142
58791W        W25200  21.615  38.506   2.289
58792W        W25201  42.380   2.706   4.684
58793W        W25202  12.757  44.450   4.034
58794W        W25203  25.923  25.846  13.355
58795W        W25204  10.101  13.750   0.885
58796W        W25205   7.878  44.837   4.207
58797W        W25206  30.411  35.091  13.869
58798W        W25207  26.672  18.501  14.683
58799W        W25208  40.522  31.618  14.533
58800W        W25209  15.658  43.255   0.919
58801W        W25210  21.026  13.110  14.222
58802W        W25211  12.422  35.312  14.897
58803W        W25212  41.019  31.523   4.071
58804W        W25213  33.099   6.937   1.096
58805W        W25214   2.846  16.172  12.958
58806W        W25215  25.460   6.616  11.546
58807W        W25216   4.284  13.349   1.254
58808W        W25217  29.090  12.720   1.749
58809W        W25218  10.306  37.538   3.693
58810W        W25219  31.936  30.127   1.748
58811W        W25220  33.960   3.348   0.954
58812W        W25221  23.885  18.577  14.657
58813W        W25222  10.772   9.151  12.087
58814W        W25223  34.465  13.253  11.941
58815W        W25224  15.811  27.092  12.061
58816W        W25225  21.659  23.291  12.426
58817W        W25226  32.940  26.160   0.946
58818W        W25227  32.524  18.331   1.953
58819W        W25228  11.757  39.717   1.897
58820W        W25229  34.954  18.891   4.606
58821W        W25230  36.909  25.050   2.944
58822W        W25231  21.499   1.241  14.954
58823W        W25232  16.190  34.843  10.732
58824W        W25233   2.913  19.664  14.185
58825W        W25234  12.081  36.709  10.909
58826W        W25235   1.532   7.298   9.943
58827W        W25236   6.615  39.458   4.328
58828W        W25237  21.460  41.580  11.203
58829W        W25238  23.405   6.870   1.462
58830W        W25239  14.852  20.822   2.091
58831W        W25240  36.808  10.922   0.390
58832W        W25241  12.778  11.338  11.113
58833W        W25242   8.340   1.218  11.148
58834W        W25243   5.287  33.426   3.624
58835W        W25244   4.310  31.615  11.546
58836W        W25245  23.567   4.305  13.077
58837W        W25246  10.734  33.574  10.730
58838W        W25247  35.457  23.994  10.626
58839W        W25248  18.835  35.914   1.657
58840W        W25249  16.116  23.403  13.831
58841W        W25250  29.103  38.886   4.694
58842W        W25251  20.987  11.251  14.484
58843W        W25252  37.587  30.343   0.319
58844W        W25253  41.169  33.461   1.390
58845W        W25254  39.649   5.291   2.731
58846W        W25255  13.653  18.458   4.066
58847W        W25256  18.027   5.320  11.286
58848W        W25257   0.625  16.675  11.154
58849W        W25258  39.347  25.629  12.421
58850W        W25259   3.545   6.990   2.646
58851W        W25260   5.484  26.130   2.597
58852W        W25261  17.018  16.643  13.082
58853W        W25262  14.693  29.702  11.515
58854W        W25263  23.565   7.341  13.273
58855W        W25264   3.615  29.969   0.449
58856W        W25265  37.798   1.441  13.499
58857W        W25266  40.322  29.220  12.125
58858W        W25267  40.744  11.699  12.438
58859W        W25268   3.857  17.537   0.016
58860W        W25269   1.355  21.453  11.829
58861W        W25270  11.731  36.856   5.038
58862W        W25271   9.349  41.041  12.662
58863W        W25272  44.271  11.189  13.680
58864W        W25273  41.899  31.177   0.382
58865W        W25274   4.135  24.081  10.354
58866W        W25275  40.220  38.461   0.847
58867W        W25276  28.046  40.801  12.654
58868W        W25277  40.292  28.241  13.525
58869W        W25278  18.193   2.233   0.862
58870W        W25279   2.163  36.906   4.536
58871W        W25280  36.646  26.876  12.922
58872W        W25281  33.431  31.119   1.871
58873W        W25282   5.128  10.521   4.291
58874W        W25283  35.172  15.707  10.083
58875W        W25284   6.973  16.282  10.748
58876W        W25285  39.727  36.871   0.044
58877W        W25286  32.941   7.271  14.768
58878W        W25287  21.893  30.572   4.257
58879W        W25288  28.074  36.020   0.977
58880W        W25289   1.305  13.300   3.728
58881W        W25290  24.806  18.250  12.363
58882W        W25291  28.480  11.693   0.615
58883W        W25292  15.729  27.007   1.659
58884W        W25293   0.234  24.226  12.781
58885W        W25294  30.078  36.060   0.819
58886W        W25295  30.407  42.905   0.432
58887W        W25296  27.897  15.512  14.622
58888W        W25297  23.544  32.076   1.891
58889W        W25298  29.966  39.432  11.572
58890W        W25299  30.592  37.524   3.982
58891W        W25300  36.606   0.522   4.174
58892W        W25301  36.152  28.869   1.734
58893W        W25302  40.959  41.250  11.207
58894W        W25303   5.108  26.240  11.219
58895W        W25304  25.026  14.122   2.680
58896W        W25305  11.557  30.353  11.916
58897W        W25306  25.509  12.651  11.957
58898W        W25307  22.052   6.249  13.595
58899W        W25308  22.024  24.330   9.916
58900W        W25309  33.360   3.979   0.413
58901W        W25310  40.503  24.172   0.303
58902W        W25311  16.601  44.303  11.659
58903W        W25312  22.741   0.906  14.404
58904W        W25313  38.856  16.542   4.251
58905W        W25314  40.953   6.254  10.889
58906W        W25315   6.623  42.781   3.371
58907W        W25316  16.821  23.267  10.609
58908W        W25317  43.584   2.587  13.339
58909W        W25318  32.450   4.992   0.234
58910W        W25319  34.608  24.606   0.440
58911W        W25320  34.931  22.435   4.015
58912W        W25321  43.467   4.759   3.751
58913W        W25322  37.080  23.259   4.584
58914W        W25323  44.275  17.722  12.935
58915W        W25324  25.665  30.758   5.162
58916W        W25325  34.309  40.901  13.413
58917W        W25326  31.012  40.469   4.274
58918W        W25327  18.820  24.452   0.846
58919W        W25328  25.255  36.613   3.732
58920W        W25329   6.114   0.991   3.328
58921W        W25330  24.167  43.781   2.445
58922W        W25331  16.794   7.886  12.061
58923W        W25332  31.386  32.184   1.895
58924W        W25333  17.627  37.201   5.582
58925W        W25334  42.391  12.110  14.846
58926W        W25335   6.388  41.908  12.442
58927W        W25336  36.382  18.702   3.715
58928W        W25337  18.742  21.105  10.505
58929W        W25338  31.005  36.414   1.077
58930W        W25339  39.925  33.970   3.198
58931W        W25340  40.238  20.243   0.842
58932W        W25341  22.715  16.303   4.133
58933W        W25342  38.120  22.162  14.546
58934W        W25343  38.922  18.111  11.144
58935W        W25344  31.100  10.662  12.160
58936W        W25345  24.731  31.900  14.431
58937W        W25346  38.257   8.724   1.310
58938W        W25347  42.167  40.917  12.964
58939W        W25348  33.012   0.498  12.462
58940W        W25349  36.673  43.119  13.377
58941W        W25350  20.036   7.203   1.823
58942W        W25351   2.777  37.865  13.909
58943W        W25352  16.450  40.340   2.970
58944W        W25353   7.240  36.622   2.329
58945W        W25354  39.083  41.971  11.030
58946W        W25355  43.785  42.745   4.351
58947W        W25356  17.417  12.775  11.997
58948W        W25357  31.925  41.310  12.477
58949W        W25358   6.777   6.608  11.373
58950W        W25359  36.854  42.525   1.632
58951W        W25360   8.226   9.382   4.797
58952W        W25361  33.249  26.075   2.735
58953W        W25362  26.514  19.652   1.834
58954W        W25363  36.076  12.432  13.520
58955W        W25364  17.731  38.837  11.060
58956W        W25365  21.225  21.469  13.922
58957W        W25366   3.902  11.979   2.602
58958W        W25367  35.343  21.093   3.940
58959W        W25368  43.894  30.916   2.696
58960W        W25369  19.727  14.570  12.546
58961W        W25370  17.251   2.214   1.161
58962W        W25371  34.493   3.350   0.752
58963W        W25372  24.720  42.016   3.105
58964W        W25373  19.465  21.579  11.691
58965W        W25374  11.395   3.407   2.656
58966W        W25375  18.586  39.906  11.912
58967W        W25376  19.751   0.692   4.907
58968W        W25377  29.732  15.576   3.215
58969W        W25378  44.369  38.809   1.627
58970W        W25379  11.596  28.886   3.278
58971W        W25380   1.664   5.643   1.363
58972W        W25381  36.631  17.773   4.543
58973W        W25382  24.561  32.814   2.209
58974W        W25383  18.761   3.691   4.128
58975W        W25384  38.610  14.195  14.770
58976W        W25385   0.881  12.376  13.351
58977W        W25386  19.525  24.524  13.492
58978W        W25387  16.870   2.299  11.129
58979W        W25388  22.609  12.347  12.514
58980W        W25389  29.381  10.145  13.435
58981W        W25390   8.514  19.258  11.428
58982W        W25391   0.542  26.384   4.999
58983W        W25392  36.655  26.535   0.974
58984W        W25393  12.409  40.595   4.767
58985W        W25394  22.681  15.012  10.863
58986W        W25395  35.450   8.667  13.016
58987W        W25396   7.140  18.101  14.015
58988W        W25397   0.758  22.683  14.332
58989W        W25398  14.336   8.295   1.969
58990W        W25399   7.373  10.070   1.883
58991W        W25400  32.609  42.042  12.640
58992W        W25401  42.344  11.944  11.733
58993W        W25402   8.287  11.202   1.196
58994W        W25403  35.881  31.899  11.477
58995W        W25404   5.749  28.538   4.182
58996W        W25405  24.443  44.004   1.357
58997W        W25406   2.253   7.687   0.801
58998W        W25407   6.207  15.195   0.333
58999W        W25408  35.443  21.931   1.795
59000W        W25409  34.067  11.372  13.066
59001W        W25410   5.188  40.407   2.541
59002W        W25411  10.568  40.853  14.045
59003W        W25412  16.487   9.638  10.429
59004W        W25413  13.051  29.052   4.171
59005W        W25414  24.175  36.619  11.549
59006W        W25415   9.703   4.922  11.093
59007W        W25416  34.852  43.898   2.588
59008W        W25417  27.025  32.977  12.350
59009W        W25418  39.123  27.400   0.379
59010W        W25419  30.094   8.513   4.922
59011W        W25420   1.019  28.646  14.943
59012W        W25421   0.983  28.411  14.284
59013W        W25422  42.608  10.105  13.919
59014W        W25423  15.474  34.126  11.999
59015W        W25424  27.551   3.242   2.153
59016W        W25425  24.086  28.713   4.139
59017W        W25426   7.672   0.514  13.466
59018W        W25427  33.989  36.089   5.141
59019W        W25428  12.454  16.418   0.500
59020W        W25429  43.932  18.935  11.117
59021W        W25430  31.046  16.653  14.044
59022W        W25431   8.954  20.636   5.018
59023W        W25432  38.938   8.919  12.931
59024W        W25433  31.939  42.964   3.722
59025W        W25434  44.830  23.070  12.143
59026W        W25435   1.489  11.819  12.871
59027W        W25436  12.733  44.821   2.798
59028W        W25437  44.726  41.243  12.678
59029W        W25438   4.319  11.167  14.855
59030W        W25439   7.629  15.775  13.662
59031W        W25440  27.087  31.429  10.987
59032W        W25441  29.630  35.869  13.882
59033W        W25442  15.462  41.402  10.375
59034W        W25443   6.676   1.385   1.373
59035W        W25444  12.679  25.223  13.569
59036W        W25445  10.072  36.053  12.158
59037W        W25446  32.366  37.495  10.688
59038W        W25447   5.021  18.200   0.104
59039W        W25448  26.704   4.369  14.438
59040W        W25449   1.174   7.088   2.639
59041W        W25450  16.224  27.563   2.916
59042W        W25451  28.544  20.733   4.081
59043W        W25452   9.519  13.623  12.649
59044W        W25453  15.250   5.118  12.144
59045W        W25454  29.008   6.387  13.427
59046W        W25455  36.863   4.278   3.738
59047W        W25456  39.427  30.683   3.573
59048W        W25457   4.731  36.006   3.642
59049W        W25458  43.986  10.902   4.776
59050W        W25459  15.936  20.766   1.378
59051W        W25460  15.167  34.011   4.755
59052W        W25461   1.267  39.457  14.878
59053W        W25462  34.806  12.739   1.526
59054W        W25463  37.865  27.487   2.653
59055W        W25464  32.578  26.587   1.030
59056W        W25465  12.003  28.032   4.142
59057W        W25466  19.240  10.644   1.105
59058W        W25467  25.485  13.074  14.420
59059W        W25468  20.030  43.312  14.349
59060W        W25469  38.294  23.537  14.743
59061W        W25470  16.605  22.651  14.244
59062W        W25471   3.946  29.194  11.537
59063W        W25472  25.152  36.691  13.990
59064W        W25473  29.330   2.762  13.482
59065W        W25474  35.348  18.608   3.831
59066W        W25475  14.058  37.035  13.005
59067W        W25476  32.041  26.078   4.198
59068W        W25477  27.480  12.921  13.437
59069W        W25478   4.333  33.887   4.294
59070W        W25479  31.077  12.642   4.135
59071W        W25480  36.211  27.559  13.373
59072W        W25481  41.439  20.696  11.536
59073W        W25482  21.797  23.082  11.128
59074W        W25483   7.280  17.705  13.101
59075W        W25484  32.082  30.492   0.800
59076W        W25485  37.881  31.166  14.829
59077W        W25486   3.769  44.925  11.635
59078W        W25487  23.276  40.395   0.753
59079W        W25488   7.780  43.007  14.258
59080W        W25489   7.339  19.752  11.589
59081W        W25490  11.914   0.839   1.818
59082W        W25491  25.697  33.636   0.203
59083W        W25492  23.718  37.047  12.148
59084W        W25493  23.426  29.129  13.307
59085W        W25494   5.947  23.122  12.551
59086W        W25495   9.674  17.150  13.935
59087W        W25496   3.493   1.735   3.779
59088W        W25497   8.241  41.678  13.077
59089W        W25498  34.127  16.681   1.484
59090W        W25499  24.444  10.375   1.939
59091W        W25500  35.224  29.164   4.552
59092W        W25501  41.455  34.627   0.086
59093W        W25502  36.512  32.599  13.448
59094W        W25503  11.619  12.693  11.469
59095W        W25504  11.709   4.205   3.725
59096W        W25505  21.988  17.656  11.548
59097W        W25506  17.684  22.103   4.521
59098W        W25507  19.261  31.579  11.059
59099W        W25508  30.962  22.000   4.200
59100W        W25509  31.960  20.282  11.103
59101W        W25510   1.426  15.565   0.744
59102W        W25511  40.955  21.654  12.643
59103W        W25512   9.817  40.819  12.549
59104W        W25513   2.569   3.524  12.521
59105W        W25514  41.478  20.358  11.136
59106W        W25515   4.422   0.926  12.070
59107W        W25516  34.954  27.989  12.086
59108W        W25517  10.347   4.198  14.269
59109W        W25518   0.453  37.206  12.514
59110W        W25519  26.747  39.102   0.052
59111W        W25520   0.820  33.909   2.748
59112W        W25521  17.613   3.814  11.125
59113W        W25522   9.815  23.629   5.109
59114W        W25523  43.976   3.236  11.982
59115W        W25524  25.281  27.731   4.625
59116W        W25525  22.128  29.468   3.705
59117W        W25526  30.552   0.603  12.507
59118W        W25527  20.642   2.802   2.798
59119W        W25528  29.621  10.864   3.296
59120W        W25529   2.560  30.724   0.391
59121W        W25530  20.246  23.995   2.257
59122W        W25531  12.509   2.799  10.554
59123W        W25532  11.685   8.345   4.611
59124W        W25533  12.333  38.511  10.203
59125W        W25534  43.425  15.033   1.564
59126W        W25535  26.493  30.416   2.134
59127W        W25536   0.210  18.386   3.741
59128W        W25537  30.512  41.371   4.096
59129W        W25538  10.307  31.214  12.941
59130W        W25539   5.419  43.183  12.070
59131W        W25540  19.740  36.123   1.578
59132W        W25541  27.989   1.208   1.319
59133W        W25542  43.780   4.474  14.028
59134W        W25543  22.275  31.429  14.994
59135W        W25544  21.680  27.742   4.052
59136W        W25545   1.825  11.390   2.291
59137W        W25546  11.247   5.078   2.131
59138W        W25547  24.997  22.797  13.988
59139W        W25548   3.330  26.722  13.884
59140W        W25549   6.152  21.920   0.687
59141W        W25550  34.176  37.350  11.203
59142W        W25551  42.787  18.682   2.131
59143W        W25552  24.170  19.726  13.728
59144W        W25553  25.121  24.226  10.284
59145W        W25554   3.536  26.965  12.726
59146W        W25555  18.082   1.737   0.758
59147W        W25556  19.867  18.657  11.886
59148W        W25557  22.563  13.664   4.158
59149W        W25558   4.949  42.773  14.643
59150W        W25559  31.007  17.457  11.110
59151W        W25560   2.910   5.358  10.702
59152W        W25561  20.260  44.958   0.847
59153W        W25562  41.852  12.087   2.224
59154W        W25563   3.494  34.925   4.557
59155W        W25564   9.138  12.743   4.229
59156W        W25565  22.417  34.383   4.658
59157W        W25566  37.153  10.773   0.733
59158W        W25567  23.206  18.285  13.488
59159W        W25568   7.671  29.323  10.650
59160W        W25569  24.560  33.444   3.767
59161W        W25570  19.245  23.492  13.530
59162W        W25571  21.088   2.195  11.319
59163W        W25572  35.686  18.127   0.770
59164W        W25573  28.897  20.597  12.897
59165W        W25574  40.884   9.289   2.076
59166W        W25575  38.005  33.049   2.760
59167W        W25576  35.586  38.952   3.383
59168W        W25577  33.570  25.228  12.992
59169W        W25578   9.180  32.515   1.038
59170W        W25579  38.587  13.269   1.570
59171W        W25580  32.497  40.182   2.092
59172W        W25581  44.039   5.273   3.142
59173W        W25582  26.339  43.815   4.094
59174W        W25583  28.975   4.831   3.345
59175W        W25584   6.840  42.480   4.285
59176W        W25585  35.238  12.801  13.059
59177W        W25586  23.213  41.471  13.835
59178W        W25587  18.035  34.554  12.962
59179W        W25588   7.576  38.524   3.831
59180W        W25589  19.695  43.318  13.379
59181W        W25590  17.258   1.637  12.049
59182W        W25591   1.699  17.641  10.733
59183W        W25592  30.952   3.836  13.136
59184W        W25593   6.865   6.183  13.001
59185W        W25594  12.791  22.708  11.956
59186W        W25595   6.889  28.074  14.601
59187W        W25596  40.732   4.136   1.288
59188W        W25597   2.752   9.391  12.642
59189W        W25598  12.646  26.420  14.100
59190W        W25599   9.149   8.497   0.989
59191W        W25600   5.586  25.918   4.849
59192W        W25601  36.454  27.149   0.331
59193W        W25602  11.224  21.292   0.714
59194W        W25603  20.806  36.371   3.594
59195W        W25604   8.860  10.474   0.531
59196W        W25605   9.264  14.829  10.722
59197W        W25606   5.175   3.188  13.277
59198W        W25607   8.367   8.865  11.778
59199W        W25608  42.774  10.206  13.109
59200W        W25609  12.160  26.829  10.719
59201W        W25610  33.923  14.262   0.880
59202W        W25611  11.318  40.567   1.747
59203W        W25612  34.904  23.596  14.708
59204W        W25613  10.251   2.447   1.053
59205W        W25614  15.439  17.630   4.909
59206W        W25615  13.919  43.949  14.933
59207W        W25616  24.589  26.819   2.982
59208W        W25617  14.794  23.320   4.640
59209W        W25618  24.850  13.919  13.570
59210W        W25619  24.491   0.920   0.865
59211W        W25620  34.496   0.284   5.335
59212W        W25621  22.355  34.086   3.639
59213W        W25622  41.397  30.014  13.934
59214W        W25623  10.864  15.835  13.196
59215W        W25624  35.868  21.905   2.716
59216W        W25625  10.184  32.987  12.308
59217W        W25626  25.526  40.335   3.932
59218W        W25627  39.397  29.894  14.425
59219W        W25628  12.570  44.765  10.223
59220W        W25629  20.681  24.728  13.406
59221W        W25630  27.123  32.385   4.110
59222W        W25631  22.225   8.226   0.823
59223W        W25632  28.286  25.753   4.164
59224W        W25633  41.266   2.012   2.349
59225W        W25634  18.003  44.373   2.263
59226W        W25635  22.070  33.686   3.510
59227W        W25636   6.336  23.542  14.900
59228W        W25637   2.008  40.169   2.878
59229W        W25638  18.459  28.652   0.083
59230W        W25639  17.273  12.248  14.828
59231W        W25640  20.554  22.727  11.041
59232W        W25641  29.482  11.214  11.584
59233W        W25642  34.184   5.748   2.439
59234W        W25643  38.869  33.958  14.317
59235W        W25644  38.931  39.384   4.521
59236W        W25645  23.656  18.994  13.799
59237W        W25646   2.988  26.471  14.916
59238W        W25647  44.740  27.114  11.412
59239W        W25648  35.285  28.489  12.500
59240W        W25649  12.203  22.703  14.110
59241W        W25650  16.375   4.494  12.001
59242W        W25651  34.347   7.272   0.922
59243W        W25652  29.564   8.041  12.966
59244W        W25653  13.057   7.180  10.671
59245W        W25654  17.745  36.115  11.623
59246W        W25655  13.265  29.460   0.928
59247W        W25656  34.366  23.537   0.402
59248W        W25657   4.009  40.245  13.971
59249W        W25658  22.472  32.102   4.941
59250W        W25659   2.230  13.858   4.688
59251W        W25660  24.250  16.791   1.586
59252W        W25661   6.404   5.625  13.493
59253W        W25662  25.980   5.848  11.965
59254W        W25663  36.805  16.701   4.666
59255W        W25664  15.519   0.816   0.033
59256W        W25665  36.648  19.352  10.673
59257W        W25666   9.738  14.237   4.906
59258W        W25667   1.563  31.333   2.201
59259W        W25668   4.757  41.987   2.278
59260W        W25669  20.046  17.125  12.121
59261W        W25670  34.708  14.792   0.625
59262W        W25671   4.627  15.631  14.483
59263W        W25672  22.850  29.040  10.979
59264W        W25673  12.099   6.134  11.474
59265W        W25674  35.646  23.075  14.037
59266W        W25675  40.945  28.994  13.572
59267W        W25676   6.217  39.443   4.725
59268W        W25677  11.511  15.784   4.049
59269W        W25678  39.336  27.902  10.421
59270W        W25679  18.129   9.987   2.727
59271W        W25680  37.371  10.831   1.595
59272W        W25681  30.136  23.259   3.234
59273W        W25682  33.555  18.033   0.960
59274W        W25683   2.968  33.546  14.934
59275W        W25684  43.968  38.724  13.990
59276W        W25685  35.290  42.729   0.428
59277W        W25686  16.380  34.612  13.990
59278W        W25687  34.542   1.441  13.901
59279W        W25688  26.264  24.017   3.670
59280W        W25689  18.983  11.569  10.682
59281W        W25690  43.774  17.572   0.901
59282W        W25691   1.660   1.389   3.768
59283W        W25692  37.538  11.715   0.556
59284W        W25693  32.478   1.778  11.389
59285W        W25694  39.402  12.037  14.379
59286W        W25695  13.959   0.669   9.965
59287W        W25696   0.922   3.508  12.396
59288W        W25697  12.913  18.768  13.022
59289W        W25698  40.321  33.690   4.822
59290W        W25699   1.888  28.884   4.600
59291W        W25700   6.904  28.872  10.996
59292W        W25701  28.867   5.830   3.878
59293W        W25702  22.147  37.506  14.578
59294W        W25703  31.934  29.390  12.614
59295W        W25704   2.817  19.260   1.479
59296W        W25705  38.454   2.472   0.792
59297W        W25706  12.264   7.428  11.070
59298W        W25707  35.910  21.121  13.371
59299W        W25708  12.640  33.696   3.581
59300W        W25709  26.722  42.907   4.128
59301W        W25710  37.857  14.921   0.335
59302W        W25711  43.307   9.343   1.678
59303W        W25712   3.113  40.602   3.329
59304W        W25713  24.694  38.337  12.575
59305W        W25714   4.280   0.998  14.362
59306W        W25715  24.671  39.537  11.981
59307W        W25716  36.662  23.572  11.899
59308W        W25717  34.578  28.935   3.592
59309W        W25718  36.845  44.874   2.385
59310W        W25719  11.180   1.253   0.237
59311W        W25720   0.987  16.434   3.249
59312W        W25721  24.093  28.275  11.589
59313W        W25722  15.491   9.169   1.908
59314W        W25723  19.638  14.438  10.462
59315W        W25724  31.973  12.031   3.204
59316W        W25725  23.571  31.481   2.225
59317W        W25726   1.294  29.687   1.872
59318W        W25727  24.238   0.248  14.818
59319W        W25728  20.247  15.538  10.747
59320W        W25729  23.757  31.519   0.392
59321W        W25730  13.290   5.214   3.314
59322W        W25731  27.206  40.312  14.297
59323W        W25732  18.589  38.905  14.353
59324W        W25733   2.916  24.150   2.001
59325W        W25734  36.365  23.578   4.136
59326W        W25735  13.423   0.151  14.303
59327W        W25736  33.393   9.820   3.587
59328W        W25737  38.982  41.902   2.427
59329W        W25738  29.680   6.891   3.717
59330W        W25739  17.859   4.873   0.811
59331W        W25740  38.617  34.433   0.016
59332W        W25741   4.254  25.599   3.658
59333W        W25742  38.903  21.867  14.103
59334W        W25743  15.829  37.452  12.181
59335W        W25744   8.771  29.195   3.368
59336W        W25745  31.637   6.073   2.773
59337W        W25746   0.076  36.626  13.772
59338W        W25747  37.051  27.063  13.806
59339W        W25748  17.275  21.826  12.613
59340W        W25749  43.294  11.401   0.313
59341W        W25750  42.987  32.400  14.857
59342W        W25751   1.855  41.861  11.160
59343W        W25752  44.356   7.270  10.894
59344W        W25753  24.973   6.931   3.653
59345W        W25754  26.761   9.786  13.900
59346W        W25755   1.032  16.643   1.346
59347W        W25756  27.725   7.843  11.536
59348W        W25757   5.218  28.254   3.498
59349W        W25758   5.381  32.393  11.917
59350W        W25759   7.975  11.642   4.982
59351W        W25760  34.389   7.107  12.320
59352W        W25761   0.539   1.788  11.497
59353W        W25762   6.264   3.364  14.698
59354W        W25763  22.168  40.978   2.251
59355W        W25764  25.782  13.035  12.150
59356W        W25765  17.750   8.969  14.300
59357W        W25766   5.096  39.588  13.753
59358W        W25767  27.218   4.428  14.382
59359W        W25768  16.517  19.913   4.938
59360W        W25769   1.327  16.137  13.481
59361W        W25770   2.851  35.899  14.093
59362W        W25771  15.103  20.924   4.400
59363W        W25772  30.020  14.780   0.164
59364W        W25773  11.448  39.480   0.828
59365W        W25774  14.740  13.616  13.781
59366W        W25775  36.629  43.282  11.618
59367W        W25776  36.773  22.559   3.500
59368W        W25777   3.874  28.110   1.723
59369W        W25778   0.367   4.428   0.893
59370W        W25779  24.082   1.844   3.093
59371W        W25780  23.985   0.250  10.739
59372W        W25781  15.243  36.590  10.754
59373W        W25782  38.247  16.354   2.879
59374W        W25783  25.267  42.275  11.176
59375W        W25784  31.962  24.686   3.104
59376W        W25785  28.612  35.924  13.367
59377W        W25786  44.598  23.438  13.568
59378W        W25787  39.811  42.337  14.500
59379W        W25788   6.412  25.779  10.996
59380W        W25789  36.648  17.601   0.758
59381W        W25790  17.098   8.305  14.144
59382W        W25791  42.513  35.638   2.374
59383W        W25792   2.333  19.904  14.841
59384W        W25793  26.508  32.627  13.957
59385W        W25794   9.682  15.631  12.788
59386W        W25795   5.724  22.995   1.442
59387W        W25796   4.390  38.427   0.783
59388W        W25797  44.945   1.238   3.259
59389W        W25798  27.214   5.876   1.377
59390W        W25799  37.877  23.769   4.055
59391W        W25800  30.699  35.159   4.238
59392W        W25801  21.952   7.492   0.407
59393W        W25802  32.465  34.836  13.113
59394W        W25803  29.839   1.285   4.125
59395W        W25804  31.000  33.110   2.242
59396W        W25805  37.294  29.913  13.065
59397W        W25806  37.876  21.761  14.820
59398W        W25807  22.831   6.275   1.934
59399W        W25808   1.852  20.493   1.182
59400W        W25809  26.041   2.692  10.563
59401W        W25810   1.913  23.742   2.303
59402W        W25811  37.574  13.423   1.759
59403W        W25812  31.689  22.304   4.647
59404W        W25813  17.763  33.450  12.528
59405W        W25814  10.337  33.918  13.424
59406W        W25815   6.386   3.033   1.790
59407W        W25816   1.366  41.346   4.275
59408W        W25817  21.282   5.666   3.737
59409W        W25818  34.673  24.181  11.287
59410W        W25819  35.433   6.738   3.084
59411W        W25820  26.168  38.977  12.006
59412W        W25821  24.427   7.635  14.397
59413W        W25822  38.553  19.207   1.470
59414W        W25823  39.574   1.750  12.200
59415W        W25824  23.146  14.785   1.471
59416W        W25825  35.642   4.079   0.783
59417W        W25826  34.669  34.630  12.002
59418W        W25827   9.318  38.902  11.141
59419W        W25828  28.817  23.463   2.420
59420W        W25829  16.158   6.231  12.550
59421W        W25830  42.308  31.901   0.476
59422W        W25831  40.476  42.393   2.327
59423W        W25832  29.171  36.623   3.667
59424W        W25833   3.638  28.419  13.886
59425W        W25834  14.388  35.479   2.819
59426W        W25835  39.974  40.741  12.426
59427W        W25836  37.324   8.522  12.883
59428W        W25837  36.870  21.357  13.550
59429W        W25838  37.339  16.988   3.746
59430W        W25839  30.214   2.909  11.255
59431W        W25840  34.117  18.282   0.388
59432W        W25841  40.312  30.456   4.055
59433W        W25842  13.303  30.559   4.211
59434W        W25843   1.808  26.923  13.388
59435W        W25844  33.013  35.637   4.785
59436W        W25845   7.602  27.972   3.144
59437W        W25846  43.778  20.729   2.671
59438W        W25847  19.259  34.316  12.563
59439W        W25848  40.944   9.515  12.224
59440W        W25849  30.123   4.177  10.991
59441W        W25850  18.081  34.053   0.574
59442W        W25851  25.585  35.589  12.138
59443W        W25852  14.616  37.793  13.830
59444W        W25853   5.914  12.984   3.850
59445W        W25854  27.441  35.959   2.169
59446W        W25855   2.786  31.149   0.071
59447W        W25856  15.789  14.187  13.819
59448W        W25857   1.568   7.110   4.171
59449W        W25858  34.349  24.742  14.093
59450W        W25859  25.184  44.707   2.262
59451W        W25860  10.806  12.328  11.046
59452W        W25861  44.833  15.284  10.684
59453W        W25862  13.300  25.611  11.172
59454W        W25863  24.573  44.713   1.857
59455W        W25864  10.893   9.647   4.178
59456W        W25865  19.651  17.850  12.518
59457W        W25866  27.906   5.445   1.383
59458W        W25867  38.531  10.046  14.373
59459W        W25868  23.872  15.736  13.007
59460W        W25869  43.477  39.038  12.909
59461W        W25870   2.911  42.814   4.772
59462W        W25871  26.467  25.294   1.405
59463W        W25872  33.334  33.638   3.157
59464W        W25873  17.578  25.085  10.719
59465W        W25874  33.669  18.808  14.968
59466W        W25875  19.276  26.944   2.259
59467W        W25876  26.615  13.371  11.250
59468W        W25877  30.105  32.803   1.429
59469W        W25878  24.919  21.076  11.822
59470W        W25879   4.254   8.611  14.549
59471W        W25880  22.540  43.334  11.262
59472W        W25881  37.987  15.700  14.236
59473W        W25882  31.334  30.076   3.810
59474W        W25883   8.303  13.249  14.326
59475W        W25884   7.326   4.468   4.910
59476W        W25885   2.723  28.512   2.785
59477W        W25886  30.689  43.397  12.597
59478W        W25887  22.019  21.606   4.669
59479W        W25888  32.075  40.214  14.840
59480W        W25889  33.042  30.165   4.094
59481W        W25890  22.974  18.270  12.113
59482W        W25891  34.416  44.476   0.490
59483W        W25892  18.351  32.850   3.743
59484W        W25893  21.828  29.119   1.075
59485W        W25894  26.507  29.781  13.552
59486W        W25895  14.046  21.185   0.844
59487W        W25896  40.562  26.985   3.809
59488W        W25897   0.802   9.294   4.026
59489W        W25898  43.572  35.789  13.969
59490W        W25899  22.448   4.475   0.359
59491W        W25900  18.730  25.099   2.008
59492W        W25901  39.356  32.919   4.413
59493W        W25902   9.297  10.384  13.745
59494W        W25903  20.024  35.530   4.761
59495W        W25904   8.282  44.042   1.443
59496W        W25905   6.983  36.882  13.015
59497W        W25906  16.524   7.436   0.738
59498W        W25907  22.045  18.525  11.728
59499W        W25908  29.779  14.672  11.107
59500W        W25909   6.064   3.528   4.443
59501W        W25910  12.842  30.843   0.304
59502W        W25911  35.555   9.621   0.696
59503W        W25912   7.679  27.629   4.889
59504W        W25913  16.095   0.523  13.886
59505W        W25914   6.420  12.623  12.454
59506W        W25915  36.800  16.706  11.993
59507W        W25916   9.888  44.952  14.577
59508W        W25917  40.371  35.854  11.942
59509W        W25918   0.732   0.727  13.856
59510W        W25919   4.443  34.529   4.640
59511W        W25920  10.707  22.301  12.094
59512W        W25921  32.576  43.417  13.833
59513W        W25922  17.581  15.235   4.300
59514W        W25923  41.810  10.552  13.694
59515W        W25924  20.596   4.922  13.403
59516W        W25925  43.867  31.699  13.501
59517W        W25926  10.911  27.192   0.314
59518W        W25927   8.769  23.179  12.493
59519W        W25928  38.514  21.421   4.090
59520W        W25929  35.468  41.764  12.976
59521W        W25930  19.071  10.239   4.208
59522W        W25931  38.383  18.817  11.576
59523W        W25932   9.452   5.940  13.012
59524W        W25933  18.618  24.444   3.382
59525W        W25934   9.561  40.816  12.077
59526W        W25935  27.320  26.579   1.187
59527W        W25936   6.064  44.777   1.158
59528W        W25937  20.010  10.356   3.999
59529W        W25938  17.286  29.157  10.598
59530W        W25939  30.703  35.404  13.370
59531W        W25940  23.260  16.095   2.578
59532W        W25941  18.297  22.009  11.131
59533W        W25942  32.211  32.315  13.987
59534W        W25943   0.013   8.854   0.168
59535W        W25944  18.147  16.076  13.809
59536W        W25945   0.251  32.907   2.206
59537W        W25946  17.307  39.119  13.481
59538W        W25947  22.722  38.920   1.391
59539W        W25948  41.837  39.585  10.810
59540W        W25949  40.833  11.875   2.299
59541W        W25950  14.256  18.084   2.234
59542W        W25951  10.885   5.899   3.679
59543W        W25952  32.919   7.929   4.870
59544W        W25953   7.000  27.183  14.693
59545W        W25954  31.427   4.482  13.820
59546W        W25955  41.666  37.054   2.807
59547W        W25956   6.644  20.062   2.486
59548W        W25957   9.999  19.730   9.890
59549W        W25958   1.699  42.583   4.313
59550W        W25959  17.705  38.431   0.657
59551W        W25960  42.482  40.337   2.233
59552W        W25961  37.730   5.468   4.466
59553W        W25962  15.314   8.106   3.523
59554W        W25963  13.189  27.337   0.838
59555W        W25964  35.466  27.560   1.670
59556W        W25965  20.797   2.257  14.383
59557W        W25966  10.622  10.079   4.511
59558W        W25967  34.865  11.384  13.306
59559W        W25968  27.260  35.637  12.650
59560W        W25969  37.912  18.893  10.325
59561W        W25970  29.458  39.386  12.644
59562W        W25971  19.329  37.053  12.847
59563W        W25972  40.429  23.928  13.482
59564W        W25973  38.440  16.626   1.945
59565W        W25974   5.475  35.127  11.250
59566W        W25975  40.254  44.271   3.334
59567W        W25976   1.420  40.285   1.827
59568W        W25977  17.010  12.659   0.386
59569W        W25978  36.626  44.651  12.960
59570W        W25979  15.230   7.972  11.578
59571W        W25980  15.715  41.315   1.639
59572W        W25981  31.391   4.152  12.023
59573W        W25982  39.115  19.577   3.110
59574W        W25983  23.941  30.209   2.795
59575W        W25984  37.942  39.355   3.645
59576W        W25985   8.104   6.416   2.833
59577W        W25986   0.830  18.408   4.644
59578W        W25987   8.214  23.030   3.632
59579W        W25988  30.574   1.157  11.503
59580W        W25989  21.603  35.862   1.608
59581W        W25990  12.361  19.044   4.452
59582W        W25991  29.496   0.379  12.479
59583W        W25992  18.976  20.106  10.710
59584W        W25993  31.293  44.032  10.615
59585W        W25994   1.405  44.031   2.820
59586W        W25995  34.969  37.414   4.600
59587W        W25996  24.529  33.393  11.474
59588W        W25997  32.324  18.552  12.920
59589W        W25998  36.188  13.566  13.052
59590W        W25999  18.254  10.667   4.407
59591W        W26000   9.257  42.807  10.805
59592W        W26001  25.404  37.030   4.065
59593W        W26002  38.751  26.025  14.399
59594W        W26003   1.806  24.163   1.252
59595W        W26004  27.003  28.184  11.579
59596W        W26005  12.208  28.123  10.802
59597W        W26006  14.362  17.080   4.644
59598W        W26007   0.261  41.160   0.060
59599W        W26008  44.402  40.529  14.975
59600W        W26009   7.654  18.198   0.895
59601W        W26010  39.952   0.431   2.665
59602W        W26011  25.242  19.876   3.708
59603W        W26012  23.466  26.232   4.117
59604W        W26013   1.885  34.354   4.573
59605W        W26014  31.549  41.722   4.707
59606W        W26015  13.579  28.184   3.334
59607W        W26016  29.557  31.846  11.711
59608W        W26017  13.375  39.806  12.378
59609W        W26018  20.779  15.637   1.199
59610W        W26019  15.734  40.567  10.094
59611W        W26020  39.074  39.920   1.428
59612W        W26021  14.690  24.220   3.236
59613W        W26022  16.715  30.190   1.930
59614W        W26023   8.333  14.055   0.410
59615W        W26024  26.183  44.409  10.490
59616W        W26025  32.499  29.543   0.636
59617W        W26026   7.717   6.954   0.500
59618W        W26027  19.639  32.193  12.908
59619W        W26028  20.996  39.702  11.929
59620W        W26029  29.067  28.133  14.103
59621W        W26030  28.756  24.978   0.529
59622W        W26031   2.365  23.673  11.131
59623W        W26032   9.185   6.148  11.117
59624W        W26033  35.136  14.045   5.039
59625W        W26034   7.090  14.687  13.981
59626W        W26035   7.430   8.339  10.397
59627W        W26036  33.067  23.166  11.707
59628W        W26037  27.350   3.886   3.781
59629W        W26038   6.738  13.581  11.683
59630W        W26039  13.334  21.593  13.061
59631W        W26040  28.338   6.611   2.020
59632W        W26041  33.945  39.090   1.485
59633W        W26042  31.243  39.274   1.099
59634W        W26043  15.313  23.373   4.476
59635W        W26044   1.296  25.327  11.148
59636W        W26045   4.319  14.679  10.470
59637W        W26046  44.005  28.600  14.243
59638W        W26047   7.162  34.091  14.928
59639W        W26048  38.354  15.952  13.260
59640W        W26049   7.233  39.089   2.402
59641W        W26050  12.344   7.242  14.056
59642W        W26051  28.575  21.998   3.504
59643W        W26052  31.981   6.770  12.881
59644W        W26053  42.788  18.173   4.714
59645W        W26054   4.196  34.074   0.920
59646W        W26055   2.791  24.042  12.989
59647W        W26056  42.471  42.786  13.934
59648W        W26057  43.034   6.435   4.188
59649W        W26058  27.982   4.481   3.701
59650W        W26059   8.244  31.458   2.171
59651W        W26060   6.498  29.504   0.809
59652W        W26061  38.970  36.414   3.228
59653W        W26062  25.162  12.249  13.011
59654W        W26063  39.604   5.589  12.071
59655W        W26064  33.726   8.561  13.113
59656W        W26065  18.196  28.158   3.824
59657W        W26066  27.453  13.277  13.047
59658W        W26067  20.399  29.601  14.826
59659W        W26068  25.571   5.671   3.537
59660W        W26069  18.569  44.670   3.209
59661W        W26070  17.685   9.424   4.324
59662W        W26071  27.414  35.770  13.919
59663W        W26072  35.495   3.736   3.255
59664W        W26073  44.364  27.914   4.162
59665W        W26074  26.804  23.753   2.703
59666W        W26075  37.875  21.062  13.512
59667W        W26076  19.374  43.640  13.614
59668W        W26077  33.289  39.435  14.793
59669W        W26078  14.061  16.716   3.149
59670W        W26079  33.743  41.111  11.152
59671W        W26080  39.633  35.895  14.049
59672W        W26081  20.182  17.268   4.497
59673W        W26082  33.948  35.854   2.718
59674W        W26083  28.620  27.016  12.916
59675W        W26084   5.962  29.025  11.060
59676W        W26085  43.459  42.986  12.699
59677W        W26086  29.626  35.353  11.262
59678W        W26087  20.650  35.858   1.214
59679W        W26088  14.281  12.667   4.035
59680W        W26089   9.247  33.984  11.944
59681W        W26090  42.257  19.641  10.080
59682W        W26091  13.668  27.605  11.578
59683W        W26092   7.413  23.021  14.790
59684W        W26093  16.233  21.205   2.084
59685W        W26094  11.759  23.655   4.830
59686W        W26095   0.011  43.150   3.586
59687W        W26096   4.012  11.484   3.672
59688W        W26097   7.754  27.201   4.594
59689W        W26098  37.345  15.121  14.722
59690W        W26099  26.747  34.009   0.308
59691W        W26100   5.426  44.950  14.932
59692W        W26101  34.813  21.474  13.994
59693W        W26102  36.983   4.689   0.961
59694W        W26103  38.440   7.522   3.789
59695W        W26104  15.388  22.143   3.571
59696W        W26105   3.887  29.072   4.822
59697W        W26106  40.297  13.854  14.833
59698W        W26107  24.257   5.775   1.343
59699W        W26108  21.221  18.183  14.371
59700W        W26109  34.502  16.843   0.264
59701W        W26110  37.735  27.788  14.333
59702W        W26111  37.862  44.550   3.459
59703W        W26112  17.765  10.328  14.783
59704W        W26113  19.967  23.668   0.813
59705W        W26114  33.958  14.751   3.739
59706W        W26115  12.962  44.964  14.157
59707W        W26116   4.748  13.614   4.508
59708W        W26117  12.237  30.044  12.423
59709W        W26118   1.618  40.902   2.189
59710W        W26119   3.661   1.698   5.219
59711W        W26120  15.641  12.333  13.512
59712W        W26121  11.269   5.197  11.346
59713W        W26122  11.040  41.490   3.936
59714W        W26123  40.346   9.955  10.743
59715W        W26124  33.643   5.006  12.056
59716W        W26125  28.092  23.785  11.117
59717W        W26126   3.837  41.884   2.854
59718W        W26127  23.535  18.753   4.090
59719W        W26128  37.943  16.246  13.380
59720W        W26129   8.684  38.626   2.259
59721W        W26130   2.104  28.500  14.973
59722W        W26131  41.306  23.547   4.075
59723W        W26132  10.402  17.714   2.731
59724W        W26133  29.350  18.295   0.237
59725W        W26134   2.346  12.282   2.801
59726W        W26135  43.185  12.826  12.585
59727W        W26136   5.922  39.277  12.999
59728W        W26137   2.032  18.463  14.906
59729W        W26138  16.536   4.812  10.712
59730W        W26139  20.475  24.108   0.333
59731W        W26140  29.636   4.221  10.779
59732W        W26141  39.983  10.348  10.804
59733W        W26142  22.861   7.691  14.405
59734W        W26143  25.123  25.912  13.030
59735W        W26144  40.298   8.858  12.972
59736W        W26145  34.922  28.682   1.210
59737W        W26146   1.708   4.334   4.567
59738W        W26147  39.172  26.792  11.124
59739W        W26148  16.511  29.407   1.949
59740W        W26149  36.933   9.944   0.089
59741W        W26150  38.308   6.813   2.330
59742W        W26151  33.040  18.564  13.499
59743W        W26152  22.369   6.784   2.341
59744W        W26153  35.480  14.245  10.687
59745W        W26154  33.569  26.166  13.902
59746W        W26155  23.252   8.704   0.354
59747W        W26156  29.610  16.282   3.852
59748W        W26157   9.510  20.118   0.548
59749W        W26158  15.856   3.353   2.276
59750W        W26159  44.263   4.374  14.464
59751W        W26160  40.653  22.580   2.011
59752W        W26161  15.352  27.383  11.122
59753W        W26162  31.592  12.888  12.071
59754W        W26163  35.622   6.333  11.623
59755W        W26164  19.445  12.649   1.019
59756W        W26165  25.879   9.749   0.586
59757W        W26166  20.236  12.055   1.976
59758W        W26167   6.417  31.089   3.285
59759W        W26168  10.263   2.769  10.855
59760W        W26169  40.780  39.803   0.527
59761W        W26170  21.898  40.680  11.080
59762W        W26171  44.393  17.931  11.704
59763W        W26172  10.463  29.096  14.488
59764W        W26173  14.620   7.289   0.969
59765W        W26174  21.078  20.770   4.307
59766W        W26175   5.480   3.446   3.644
59767W        W26176  23.128  33.911  14.508
59768W        W26177   1.794  28.679  12.897
59769W        W26178  42.769  35.489   2.905
59770W        W26179  21.469   2.681  14.005
59771W        W26180   8.918  37.529  10.683
59772W        W26181  30.808  41.286  10.398
59773W        W26182  32.359  18.535  11.790
59774W        W26183  26.617   2.584   1.214
59775W        W26184   3.858   7.576  10.789
59776W        W26185   8.782  13.578   0.645
59777W        W26186   4.232  16.761   2.412
59778W        W26187  10.939  43.557   2.340
59779W        W26188  38.112  21.805   0.850
59780W        W26189  21.032   5.398  10.771
59781W        W26190   5.330  29.495  10.734
59782W        W26191  32.200  33.473   2.129
59783W        W26192  39.807  15.231   2.340
59784W        W26193  33.012   3.976   1.328
59785W        W26194  32.832  25.118   2.274
59786W        W26195  30.949   1.817  10.193
59787W        W26196  42.500   0.351  12.926
59788W        W26197   6.140  26.443  12.031
59789W        W26198  28.518  11.796   1.144
59790W        W26199  13.944   5.337  10.782
59791W        W26200  15.617  19.604   3.476
59792W        W26201  25.608  30.756   0.393
59793W        W26202  13.623  43.213  12.138
59794W        W26203  21.974  36.650  11.577
59795W        W26204  38.999  14.315  12.001
59796W        W26205   4.246  35.061   2.637
59797W        W26206  13.616  19.974  10.673
59798W        W26207  26.218  41.062   1.848
59799W        W26208  20.848  37.996   2.528
59800W        W26209  31.108  16.770   3.221
59801W        W26210   7.880  24.641  11.591
59802W        W26211  36.764  15.592  14.942
59803W        W26212  30.973   7.992   1.395
59804W        W26213  26.770  37.323   3.627
59805W        W26214   9.175  19.386   4.829
59806W        W26215  40.858  29.642   2.369
59807W        W26216  14.680   7.205  12.390
59808W        W26217  40.141  14.135  11.185
59809W        W26218   1.840  34.385  14.504
59810W        W26219  15.449  39.088  10.559
59811W        W26220  34.172   2.447  14.806
59812W        W26221  31.631  15.457  11.366
59813W        W26222  36.033   9.044   3.605
59814W        W26223  23.963  15.334   1.182
59815W        W26224  35.595  13.627  10.680
59816W        W26225  35.322  44.940  11.575
59817W        W26226   0.253   1.331   4.358
59818W        W26227  26.052  11.927  11.182
59819W        W26228  15.829  34.159  11.082
59820W        W26229  15.300  24.212   1.869
59821W        W26230  44.955   7.881  13.952
59822W        W26231  38.451   1.408  11.444
59823W        W26232  18.271  42.455  14.685
59824W        W26233   2.746   2.386   2.669
59825W        W26234   7.366  36.953   1.948
59826W        W26235  33.989  37.357   3.738
59827W        W26236  43.079  15.818  12.112
59828W        W26237  40.843  31.562   1.465
59829W        W26238  43.256  21.540   4.073
59830W        W26239  34.050  36.580   1.059
59831W        W26240  21.998  20.521   4.364
59832W        W26241  42.131   5.486   4.589
59833W        W26242   6.080  31.667   1.693
59834W        W26243  43.015   6.452  14.526
59835W        W26244  12.798  13.672   1.970
59836W        W26245  12.148  20.643  14.969
59837W        W26246  23.673  37.425  10.710
59838W        W26247  35.974   9.399   0.907
59839W        W26248  15.814  30.189   3.672
59840W        W26249  13.980  29.611   1.438
59841W        W26250  32.074   7.953   4.501
59842W        W26251  18.481  38.478  12.009
59843W        W26252  22.480  35.877   1.668
59844W        W26253  28.712  38.524  13.412
59845W        W26254  26.500   8.015   1.218
59846W        W26255  33.045  30.442  14.874
59847W        W26256  36.941  27.208  10.759
59848W        W26257  35.917  39.575  13.259
59849W        W26258   6.936  32.551  10.807
59850W        W26259  14.978  18.707  11.672
59851W        W26260  16.132  16.012   4.980
59852W        W26261  31.508  28.631  14.380
59853W        W26262   5.411   7.214  11.581
59854W        W26263  13.335  24.066  10.684
59855W        W26264  42.945  31.848  14.004
59856W        W26265  12.295  24.621   4.651
59857W        W26266  24.555   3.661   3.665
59858W        W26267  33.984  15.218  11.948
59859W        W26268  23.065  18.537  11.642
59860W        W26269  11.670  26.946  10.974
59861W        W26270  30.148  28.584   2.295
59862W        W26271   2.520   1.424  13.803
59863W        W26272  36.577  19.733   4.831
59864W        W26273  28.896   3.213  11.159
59865W        W26274   2.008   6.693   0.777
59866W        W26275  28.482  16.625  13.547
59867W        W26276   3.257  39.977  11.015
59868W        W26277  25.959   8.918  13.086
59869W        W26278   8.756   3.991   0.924
59870W        W26279  42.603  43.437   2.829
59871W        W26280  27.409  44.898   0.224
59872W        W26281  20.075  21.835   1.571
59873W        W26282  13.836  33.999   2.321
59874W        W26283  10.143  26.135   1.610
59875W        W26284   5.645  21.151   3.303
59876W        W26285  26.593  13.422   0.867
59877W        W26286  31.489  31.532   2.866
59878W        W26287  27.402  39.709  12.203
59879W        W26288  35.621  23.111   0.330
59880W        W26289   5.009   5.414   3.213
59881W        W26290  30.063  42.183   4.074
59882W        W26291  19.476  35.521  14.310
59883W        W26292  31.906  43.465   3.849
59884W        W26293  25.591  17.151  13.810
59885W        W26294   9.646  24.335  11.123
59886W        W26295   1.668  25.661   0.005
59887W        W26296  34.396  11.219  13.477
59888W        W26297  21.776   0.469   0.003
59889W        W26298  12.757  42.037   3.585
59890W        W26299  15.053  35.096   2.581
59891W        W26300  33.808  17.282  11.975
59892W        W26301  37.087  35.953  12.415
59893W        W26302  23.663  18.201   1.389
59894W        W26303  22.670  25.961  13.314
59895W        W26304  38.531   5.680   1.962
59896W        W26305  27.667   4.287  10.406
59897W        W26306  41.059  17.427  10.543
59898W        W26307  27.170  22.817  10.381
59899W        W26308  42.228  29.411  12.102
59900W        W26309   4.143  28.842  12.783
59901W        W26310   5.401  40.243   3.802
59902W        W26311  38.614  43.711  10.584
59903W        W26312  15.853  32.721  11.001
59904W        W26313  27.600  16.662   1.430
59905W        W26314  16.583  43.108   4.509
59906W        W26315  34.921   6.251   1.849
59907W        W26316   2.035  38.182  13.464
59908W        W26317  31.004  27.865   4.096
59909W        W26318  13.667  20.087   4.712
59910W        W26319   1.678  10.641   3.360
59911W        W26320   7.991  15.826  14.021
59912W        W26321  33.709   7.135   3.367
59913W        W26322   0.948  42.127  13.047
59914W        W26323  38.606  21.749  13.500
59915W        W26324  10.326  12.131   0.314
59916W        W26325  38.911   8.200  11.356
59917W        W26326   3.683  28.744  12.609
59918W        W26327   5.281  29.148   3.127
59919W        W26328  25.889  15.227   2.226
59920W        W26329  11.260   5.026  13.544
59921W        W26330   7.447  40.028   3.230
59922W        W26331  17.018  25.974  12.658
59923W        W26332  28.393   9.316   1.411
59924W        W26333  35.156  19.822  12.210
59925W        W26334  31.776  27.974   3.701
59926W        W26335  44.869  26.445   1.431
59927W        W26336   4.735  11.740   3.187
59928W        W26337  37.062  36.194   4.297
59929W        W26338  41.398   1.828  12.120
59930W        W26339  33.886   9.281   1.181
59931W        W26340  30.170  30.888  10.716
59932W        W26341  11.661  30.660   4.126
59933W        W26342  20.669   3.768   2.853
59934W        W26343   0.840  43.427   2.291
59935W        W26344  43.435  43.882   1.487
59936W        W26345   2.837  27.428  10.755
59937W        W26346  21.661   0.996   4.028
59938W        W26347  29.708  35.057  13.413
59939W        W26348  40.154  42.340  13.040
59940W        W26349  37.543  39.426   2.682
59941W        W26350  37.323  25.339   4.974
59942W        W26351  33.879  18.803  11.188
59943W        W26352  31.404  27.629   3.842
59944W        W26353  42.328  32.396   0.335
59945W        W26354  14.589  21.655   1.862
59946W        W26355   4.627  27.645   4.098
59947W        W26356  13.034  21.287   0.810
59948W        W26357   4.847   4.000   2.241
59949W        W26358  20.906  35.482  10.815
59950W        W26359  15.867  25.563  12.957
59951W        W26360  22.257  35.658   0.323
59952W        W26361  35.570  23.787   2.256
59953W        W26362  17.847  31.304  11.174
59954W        W26363  20.999  16.743   2.850
59955W        W26364  39.770   8.285  14.260
59956W        W26365  28.057  18.187   1.764
59957W        W26366   2.974   8.200   4.118
59958W        W26367  25.033  26.732   1.838
59959W        W26368  13.096  24.377   5.015
59960W        W26369  40.923  32.002   1.733
59961W        W26370  12.154  22.693  10.798
59962W        W26371  17.217  12.190  13.861
59963W        W26372  30.144  10.100  10.976
59964W        W26373  29.882  25.731  14.423
59965W        W26374  23.958  37.077   4.965
59966W        W26375  37.574   1.915   2.034
59967W        W26376   0.005  13.662   3.392
59968W        W26377  14.179   6.686  11.108
59969W        W26378  28.005  11.625  11.046
59970W        W26379  26.981  27.200  13.933
59971W        W26380  14.799   5.005  13.310
59972W        W26381  39.266  44.030  14.284
59973W        W26382  37.396   5.304  13.387
59974W        W26383  37.292  23.520  11.197
59975W        W26384  35.591  38.388  12.976
59976W        W26385   3.588  39.618  11.166
59977W        W26386  11.255  33.453  14.493
59978W        W26387  19.695  31.875   2.604
59979W        W26388  14.127  37.550   0.816
59980W        W26389  40.794   2.874   0.767
59981W        W26390  10.391  25.410   3.479
59982W        W26391   3.874   3.545  14.040
59983W        W26392   8.842  23.049   0.397
59984W        W26393   7.276  15.534   4.748
59985W        W26394   9.449  29.106  11.626
59986W        W26395  34.488  12.073   4.403
59987W        W26396  39.483  12.932   1.678
59988W        W26397   3.258   7.683   2.007
59989W        W26398  33.274  10.715  12.621
59990W        W26399  13.029  10.503  11.167
59991W        W26400  10.695   2.523   0.440
59992W        W26401   1.519  19.233  14.874
59993W        W26402  22.133  22.171   0.173
59994W        W26403  23.767  36.927  14.931
59995W        W26404  36.963  11.922  12.901
59996W        W26405   6.809  22.576   3.306
59997W        W26406  34.120  14.677  14.949
59998W        W26407  32.609  14.217   4.660
59999W        W26408  19.191  25.930   2.322
60000W        W26409  13.307  43.470   3.944
60001W        W26410  12.768   4.844   5.067
60002W        W26411  13.733  18.150   1.879
60003W        W26412  39.933  16.906   3.623
60004W        W26413  19.354   3.429  10.027
60005W        W26414  36.125  15.226   2.185
60006W        W26415  28.715  17.657   1.445
60007W        W26416  11.354  41.847   3.680
60008W        W26417  39.605  15.273   0.946
60009W        W26418  19.657  39.255  11.210
60010W        W26419  14.320  19.488  11.158
60011W        W26420  28.787  42.090  12.073
60012W        W26421  36.478  15.675  10.740
60013W        W26422  18.636  15.102   1.391
60014W        W26423  25.123  24.258   5.367
60015W        W26424  36.521  29.857   2.950
60016W        W26425   5.646  42.401   2.829
60017W        W26426  33.413  21.752   3.732
60018W        W26427  34.452  13.090  10.635
60019W        W26428  24.435   6.860  11.522
60020W        W26429  23.517  42.967   9.917
60021W        W26430  14.800  38.861   0.780
60022W        W26431   9.039   9.250  12.526
60023W        W26432  40.475  13.729  11.015
60024W        W26433  27.734  39.907  13.616
60025W        W26434   4.841  11.597  11.380
60026W        W26435   0.371  22.233  13.911
60027W        W26436   7.583   7.394  12.920
60028W        W26437  33.080  40.642  14.397
60029W        W26438  13.016   4.700  11.475
60030W        W26439  42.204  41.134  10.245
60031W        W26440  26.430  44.425  12.805
60032W        W26441   5.899  38.418  12.007
60033W        W26442  23.764  17.195  11.783
60034W        W26443  44.920  24.549  12.523
60035W        W26444   5.128  35.733   1.400
60036W        W26445  10.306  21.577   2.842
60037W        W26446   3.792   4.629   0.107
60038W        W26447  38.097   1.361   1.213
60039W        W26448  26.033  15.211  13.817
60040W        W26449  22.314  12.040  11.200
60041W        W26450  26.558  20.574   2.769
60042W        W26451   3.337   8.885  14.464
60043W        W26452  18.834   0.423   1.956
60044W        W26453  36.505  38.115   1.929
60045W        W26454  24.532  18.475  13.956
60046W        W26455   1.331  13.277  11.792
60047W        W26456   9.633  20.125   2.377
60048W        W26457  12.783  14.155  13.964
60049W        W26458   8.903  12.849  11.718
60050W        W26459  41.776  27.167  12.064
60051W        W26460  39.081  10.218  12.451
60052W        W26461  40.368  29.210  13.438
60053W        W26462  31.165  22.208  14.326
60054W        W26463  30.133  13.272   0.950
60055W        W26464   2.740  38.872   2.759
60056W        W26465  10.115   7.037   2.217
60057W        W26466   3.697  10.534  14.780
60058W        W26467   2.336   0.652   4.985
60059W        W26468  38.461  16.659   3.783
60060W        W26469  25.252  21.300  12.956
60061W        W26470  10.319  30.450  11.407
60062W        W26471  24.699  30.541   0.797
60063W        W26472  34.397  21.302  14.259
60064W        W26473   2.658  44.528  12.964
60065W        W26474   8.419   6.246  13.844
60066W        W26475  39.453   5.438   0.906
60067W        W26476  35.392  31.978  11.214
60068W        W26477  42.998   7.897  12.936
60069W        W26478  21.392  42.741   3.680
60070W        W26479  15.919   8.934  14.422
60071W        W26480  27.672  29.087   3.073
60072W        W26481  34.342  44.798  13.990
60073W        W26482   5.099   9.948  10.296
60074W        W26483  13.674  35.274   3.560
60075W        W26484  43.483  10.470   4.478
60076W        W26485  18.335  26.937   0.013
60077W        W26486  34.790  19.165   2.727
60078W        W26487  23.811  25.281   0.762
60079W        W26488  13.368  34.581  10.259
60080W        W26489  19.124  44.323   2.791
60081W        W26490   1.868  37.289  11.136
60082W        W26491   0.752  42.761  12.051
60083W        W26492  11.590  35.959   1.673
60084W        W26493   5.109  23.529   4.756
60085W        W26494  14.322  33.336  14.086
60086W        W26495  13.035  20.534   4.373
60087W        W26496  20.179  20.308   4.666
60088W        W26497  12.372  30.086   4.342
60089W        W26498  15.380  34.501  10.602
60090W        W26499  20.076   1.815   4.177
60091W        W26500  13.325   7.924  13.877
60092W        W26501  12.897  18.313  12.755
60093W        W26502  27.605  30.972  11.587
60094W        W26503  35.479  31.072   1.788
60095W        W26504  34.444  30.946  10.670
60096W        W26505  11.285  11.362   4.636
60097W        W26506  40.397  10.806  11.787
60098W        W26507   6.118  19.329   4.542
60099W        W26508  41.428   0.524   2.186
60100W        W26509  31.104  44.823  11.115
60101W        W26510  23.220  38.932  14.483
60102W        W26511   1.714  11.772  13.388
60103W        W26512  26.994  11.554  14.753
60104W        W26513  12.803  42.549   3.667
60105W        W26514  21.257  22.353   1.989
60106W        W26515  38.422  21.014   3.320
60107W        W26516  14.887  19.518  10.271
60108W        W26517  11.729  21.612   1.902
60109W        W26518  25.925  44.118  13.568
60110W        W26519   5.242  30.647   3.231
60111W        W26520   4.989  37.545  10.602
60112W        W26521  42.313   5.866   2.374
60113W        W26522   3.304   7.775   1.475
60114W        W26523  27.408  34.533   2.552
60115W        W26524   3.866  40.341  10.423
60116W        W26525  22.182  15.444   4.495
60117W        W26526   6.749  31.240  10.437
60118W        W26527  40.300  31.667   0.015
60119W        W26528   5.877  38.742  13.064
60120W        W26529  30.604  44.820  10.892
60121W        W26530   9.433  29.907  12.150
60122W        W26531  35.767  23.594   0.519
60123W        W26532  43.755   5.802  11.887
60124W        W26533  41.912  23.018   3.788
60125W        W26534  15.806  11.748   0.379
60126W        W26535  26.605  30.427  10.738
60127W        W26536  33.453   6.915  10.493
60128W        W26537   5.002  25.949  12.863
60129W        W26538  42.283  22.636  11.859
60130W        W26539  18.666  18.710  10.658
60131W        W26540  11.253  22.691   0.516
60132W        W26541  35.603   4.666   1.398
60133W        W26542  33.901  10.163  14.055
60134W        W26543  25.280  27.262   0.451
60135W        W26544  32.145  13.736   3.830
60136W        W26545  30.462  13.860   4.347
60137W        W26546  35.934  37.169   3.564
60138W        W26547   1.340  11.638  10.603
60139W        W26548  14.038  35.626   0.986
60140W        W26549  22.301  20.521  12.532
60141W        W26550   6.862  36.158   1.323
60142W        W26551  10.208   4.925   3.138
60143W        W26552  35.977  13.227   3.376
60144W        W26553  21.068  30.096  13.074
60145W        W26554   1.414  21.559   1.899
60146W        W26555  20.555  13.306   1.308
60147W        W26556  40.311   5.824  12.576
60148W        W26557  30.061  25.483  12.642
60149W        W26558  13.686  32.482  13.589
60150W        W26559  40.502  19.707  13.220
60151W        W26560  19.128  39.339   0.584
60152W        W26561  44.497  14.197  14.477
60153W        W26562  33.922  22.227  12.428
60154W        W26563   2.202  26.198  12.926
60155W        W26564  13.546  19.826   0.864
60156W        W26565  10.248  22.208   3.661
60157W        W26566  34.932  12.849  13.495
60158W        W26567  25.098  27.627  13.721
60159W        W26568  33.006  30.640   4.327
60160W        W26569  38.466  43.413   2.156
60161W        W26570  35.837  39.503   4.737
60162W        W26571  30.892  41.973   0.198
60163W        W26572  16.010  43.537   1.203
60164W        W26573  16.252  30.700  12.515
60165W        W26574  21.966  44.073  13.887
60166W        W26575  42.281  27.454  12.083
60167W        W26576  28.487  20.257  10.380
60168W        W26577   2.727   3.703   0.264
60169W        W26578  42.977  27.868  12.926
60170W        W26579   6.790  13.462   0.663
60171W        W26580  36.882  32.157   0.273
60172W        W26581  24.999   6.872  14.336
60173W        W26582  32.813  21.667  12.861
60174W        W26583  27.055  25.721  11.242
60175W        W26584  26.627   2.829  11.553
60176W        W26585  19.564   3.269   4.972
60177W        W26586  18.487  41.668  10.440
60178W        W26587  34.693   9.894   2.413
60179W        W26588   3.584   1.924  11.796
60180W        W26589   6.364  20.701  12.438
60181W        W26590   6.814  36.278   2.221
60182W        W26591  32.332  24.163  13.582
60183W        W26592  41.351  28.736   0.651
60184W        W26593  21.528  25.502   4.619
60185W        W26594   5.929  13.091  12.035
60186W        W26595  11.112   0.448  11.843
60187W        W26596  18.929   4.460  10.818
60188W        W26597  43.793  31.863   3.646
60189W        W26598  37.993  25.696   0.754
60190W        W26599   4.803  40.108  12.478
60191W        W26600  24.504   3.414  14.642
60192W        W26601  28.672  22.635   1.351
60193W        W26602  16.492  10.385  11.127
60194W        W26603   6.812  19.092   2.575
60195W        W26604   3.960  19.509  11.655
60196W        W26605   5.663  21.021   0.015
60197W        W26606   4.272  40.005  14.883
60198W        W26607   1.983  12.478  14.646
60199W        W26608   1.731  26.926  10.568
60200W        W26609  38.311  14.810   2.783
60201W        W26610  37.092  44.978  11.124
60202W        W26611   9.309  14.008   4.169
60203W        W26612  12.826  39.900  13.452
60204W        W26613  38.363   8.355   0.956
60205W        W26614   5.639  27.684  12.155
60206W        W26615  38.828   2.303   2.348
60207W        W26616  20.089  34.638   2.298
60208W        W26617  30.535  38.811  13.960
60209W        W26618   9.302  34.537  11.126
60210W        W26619   2.342  20.267   0.837
60211W        W26620  23.556  41.395  11.677
60212W        W26621  43.512   9.461  10.503
60213W        W26622   9.734  18.186   4.324
60214W        W26623  43.998  44.492   3.927
60215W        W26624   9.351  17.292   1.048
60216W        W26625  11.123  23.573  11.952
60217W        W26626  36.236  11.456  12.553
60218W        W26627  35.002  17.048  13.806
60219W        W26628  10.656  39.346  13.331
60220W        W26629  30.684  22.793   3.774
60221W        W26630  43.445   8.707  14.155
60222W        W26631  21.613  42.859  12.624
60223W        W26632  18.756  27.718  14.458
60224W        W26633  17.517  28.124  10.543
60225W        W26634   1.439  12.287   0.787
60226W        W26635  25.957  20.623  12.630
60227W        W26636  31.623  35.469   4.349
60228W        W26637  18.382  44.965   2.764
60229W        W26638  10.149   5.417   4.700
60230W        W26639  33.048  15.706  14.492
60231W        W26640  16.784   4.114  12.691
60232W        W26641  10.266  22.598  12.064
60233W        W26642  25.987  16.683  11.105
60234W        W26643  21.584  27.475  12.638
60235W        W26644  34.594   0.856   0.183
60236W        W26645  14.769  40.941   2.352
60237W        W26646  34.988  13.798  12.487
60238W        W26647  12.954  21.840   1.384
60239W        W26648  39.577  33.164  14.869
60240W        W26649  19.537   7.365   4.627
60241W        W26650  13.367   0.376   3.766
60242W        W26651  17.858  22.041   0.677
60243W        W26652  11.384  44.473   3.174
60244W        W26653  10.197  13.125  14.660
60245W        W26654  19.486  27.187   1.834
60246W        W26655  44.964  36.909   4.081
60247W        W26656  30.983  16.085   1.305
60248W        W26657  11.286  23.478   3.076
60249W        W26658   0.306   6.443   4.097
60250W        W26659  15.685  18.544   3.612
60251W        W26660  14.732   1.461  12.790
60252W        W26661  19.258  19.378   1.919
60253W        W26662   0.193  26.637  12.634
60254W        W26663  42.656  26.637  12.138
60255W        W26664   5.750   7.761   0.747
60256W        W26665  33.156  26.457   1.773
60257W        W26666  22.178  40.302  13.959
60258W        W26667  24.984  16.328   1.972
60259W        W26668  37.077  30.610   4.364
60260W        W26669  33.463  43.244  13.893
60261W        W26670  29.949  13.345   3.675
60262W        W26671   2.492  24.407   3.091
60263W        W26672  25.329  40.574   1.005
60264W        W26673  34.452  10.831  12.060
60265W        W26674  25.659  18.356   4.753
60266W        W26675  27.431   8.930   2.316
60267W        W26676  43.391  31.877  12.430
60268W        W26677  22.427  41.353  11.253
60269W        W26678  12.725   9.162   0.323
60270W        W26679  18.696  31.637  14.889
60271W        W26680   0.801  28.623  13.840
60272W        W26681  42.052  33.492   4.108
60273W        W26682  39.780  27.554   2.455
60274W        W26683  39.338  13.593   0.367
60275W        W26684  31.983   7.833  12.406
60276W        W26685  10.590  15.128   4.846
60277W        W26686   3.449   6.497   4.120
60278W        W26687  17.121  16.520  10.744
60279W        W26688  19.140  32.315  12.152
60280W        W26689  44.994  36.014  12.055
60281W        W26690  22.305  28.579   3.222
60282W        W26691   4.639  17.883   2.252
60283W        W26692  11.821  23.496   0.377
60284W        W26693  33.932  15.275   3.680
60285W        W26694   2.988  41.837   4.535
60286W        W26695  22.735   7.202   4.103
60287W        W26696   0.895  33.056   3.721
60288W        W26697   3.992   1.790   3.670
60289W        W26698  21.070   4.376   3.777
60290W        W26699   6.696  21.185  11.138
60291W        W26700  26.998  32.861   3.626
60292W        W26701  40.502  24.996  13.719
60293W        W26702  32.555  19.206  10.826
60294W        W26703  34.286  34.187   4.175
60295W        W26704  19.933  42.035  12.029
60296W        W26705  10.954   5.162  12.169
60297W        W26706  19.677  23.030  13.450
60298W        W26707  20.686   6.063   1.935
60299W        W26708  36.965  40.981  10.797
60300W        W26709  20.997   5.221   1.923
60301W        W26710   4.621  36.641  13.467
60302W        W26711  44.006  19.963   2.300
60303W        W26712  15.547  14.840   4.005
60304W        W26713  38.865  14.408  11.508
60305W        W26714  10.926  24.665   4.912
60306W        W26715   3.833  10.645   1.364
60307W        W26716   0.647  24.115  13.920
60308W        W26717  14.756  11.797  12.482
60309W        W26718  35.370  27.671  12.056
60310W        W26719  15.144  31.070  11.980
60311W        W26720   9.366  40.360   3.177
60312W        W26721  33.121   0.803   1.525
60313W        W26722  16.140  26.532  10.917
60314W        W26723   7.009  24.148  14.432
60315W        W26724  42.528  42.971  12.976
60316W        W26725  42.354   8.994   1.383
60317W        W26726  19.604  28.191  12.603
60318W        W26727   0.343   7.360   2.433
60319W        W26728  18.230  10.665  12.052
60320W        W26729  42.982  27.891   0.046
60321W        W26730  21.299  34.137   2.423
60322W        W26731   3.238  32.534  10.830
60323W        W26732   0.419  31.437   4.791
60324W        W26733  31.481  44.416   2.185
60325W        W26734   3.833  40.282   2.789
60326W        W26735  34.055  30.884   2.217
60327W        W26736   8.864   5.853   2.823
60328W        W26737  17.580  38.357   3.283
60329W        W26738  22.581  27.207  13.170
60330W        W26739  30.611  15.877  13.081
60331W        W26740  42.004  28.382   2.648
60332W        W26741  24.448  23.583   1.078
60333W        W26742  18.634  35.148  11.611
60334W        W26743  44.979  21.632   2.803
60335W        W26744  43.615  30.376   0.898
60336W        W26745  31.606  27.243   3.429
60337W        W26746  33.596  26.499  14.494
60338W        W26747  27.234  26.293  13.999
60339W        W26748  13.819  16.661  14.076
60340W        W26749  39.292  39.629   4.819
60341W        W26750  36.905  39.044  12.074
60342W        W26751  42.899  36.413   2.706
60343W        W26752  27.604  20.423   3.559
60344W        W26753  27.709  22.497  10.993
60345W        W26754   0.829  35.864  11.568
60346W        W26755  25.639  12.882  13.963
60347W        W26756  27.528   3.256   2.657
60348W        W26757   1.088   8.891   3.156
60349W        W26758  40.707  32.509   1.235
60350W        W26759  29.465   7.371   0.807
60351W        W26760  34.280  30.949   4.689
60352W        W26761  22.674   1.369  11.416
60353W        W26762  28.108  26.160  11.941
60354W        W26763   6.527  38.798  11.216
60355W        W26764  29.177  40.140  12.398
60356W        W26765  26.528  25.319  12.320
60357W        W26766  34.926   4.293   4.340
60358W        W26767   8.407   3.120   3.706
60359W        W26768   1.102   2.665   3.403
60360W        W26769  39.047   7.349   4.643
60361W        W26770  42.446  16.535   3.559
60362W        W26771  35.008  16.743   0.954
60363W        W26772  33.893  40.377   4.901
60364W        W26773  44.368  27.143   1.924
60365W        W26774  28.324  24.664   3.990
60366W        W26775  32.625  43.901  13.700
60367W        W26776  43.818  34.116  11.938
60368W        W26777  32.930   5.653   3.730
60369W        W26778  27.989  31.418   2.688
60370W        W26779  10.832  36.142  14.480
60371W        W26780  16.952  29.652   4.609
60372W        W26781   6.692  43.484   2.770
60373W        W26782  35.552   5.542   2.366
60374W        W26783  26.710  41.890   0.381
60375W        W26784  16.647  38.327  12.914
60376W        W26785  13.073  17.146   3.248
60377W        W26786  39.804  42.771  12.961
60378W        W26787  31.399   5.259  12.108
60379W        W26788  23.032  24.637  13.770
60380W        W26789  29.967  17.149  11.644
60381W        W26790  21.011  28.653   1.143
60382W        W26791   6.625  41.423  12.512
60383W        W26792   4.815  36.429  13.905
60384W        W26793  18.088   4.869   4.047
60385W        W26794  27.417  33.669   3.801
60386W        W26795   7.383   3.231  12.739
60387W        W26796  27.076  35.964   0.807
60388W        W26797  21.498   7.277  13.539
60389W        W26798  11.623  35.318   0.437
60390W        W26799  34.181  32.412   1.679
60391W        W26800  35.807   3.316   3.903
60392W        W26801  43.436  22.247   4.519
60393W        W26802   0.460  27.533   0.857
60394W        W26803  20.667  32.557  12.869
60395W        W26804  37.623   6.191  14.349
60396W        W26805  40.769  14.337  14.381
60397W        W26806   1.560  44.439  11.244
60398W        W26807   3.009   3.365   2.570
60399W        W26808  28.544  37.061   3.335
60400W        W26809  11.677   5.374  14.283
60401W        W26810  20.367  23.587  12.589
60402W        W26811  19.467  26.422  14.820
60403W        W26812   6.901   3.256   1.841
60404W        W26813  37.961  42.955   2.706
60405W        W26814   2.367  40.941  12.555
60406W        W26815   8.362  24.045  11.630
60407W        W26816  22.037  18.572  12.852
60408W        W26817   0.373  21.247   3.705
60409W        W26818  43.741  17.107   1.168
60410W        W26819  19.215   0.829   2.649
60411W        W26820  22.910  32.370   4.883
60412W        W26821  24.028  35.275  14.326
60413W        W26822  27.098   6.089  13.315
60414W        W26823  13.679  28.855   1.224
60415W        W26824  36.402   5.336  13.471
60416W        W26825  44.502  20.566  13.791
60417W        W26826  19.911  38.472  10.887
60418W        W26827  13.867  37.583   1.565
60419W        W26828  41.205  34.896  14.308
60420W        W26829  26.367  20.187  14.346
60421W        W26830   9.569  36.840   3.570
60422W        W26831   9.241  40.613   1.706
60423W        W26832   5.694  38.910  11.695
60424W        W26833   7.384  19.102   0.456
60425W        W26834  15.384  18.831   0.424
60426W        W26835  38.143  16.091  10.139
60427W        W26836  30.165  43.063   2.188
60428W        W26837  25.204  18.157  11.531
60429W        W26838  15.400  16.068   4.406
60430W        W26839  30.597  40.779  13.042
60431W        W26840  31.690  33.854  14.931
60432W        W26841  13.100  22.465  12.540
60433W        W26842  27.054   5.189  10.469
60434W        W26843  36.821  29.709  13.099
60435W        W26844  30.905  35.129   3.745
60436W        W26845  39.322  22.673   2.513
60437W        W26846  30.085   8.409  13.307
60438W        W26847  30.699  18.643   1.417
60439W        W26848   3.713  19.750  14.889
60440W        W26849   4.268  38.912   2.472
60441W        W26850  29.359  42.394  13.735
60442W        W26851  31.917  32.492   5.058
60443W        W26852  34.503  27.715   1.902
60444W        W26853  35.046  30.993  11.195
60445W        W26854   2.715   9.697  13.484
60446W        W26855  21.742  33.988   1.055
60447W        W26856   3.500  26.473  10.209
60448W        W26857  40.395  31.014  10.668
60449W        W26858  29.966   5.676   0.905
60450W        W26859  39.713  36.067  11.566
60451W        W26860   0.987  26.643   0.683
60452W        W26861   0.392  23.544  12.662
60453W        W26862  22.180   0.282   0.930
60454W        W26863  25.563  25.257  11.013
60455W        W26864   5.902   1.229   2.880
60456W        W26865  22.103  19.415  13.057
60457W        W26866  14.161   1.680  11.412
60458W        W26867   7.251  25.141  11.988
60459W        W26868   3.236   5.020   3.373
60460W        W26869  27.271   3.203   3.809
60461W        W26870  31.688   3.376  13.400
60462W        W26871  40.009  21.515  12.350
60463W        W26872  35.451  11.378  11.482
60464W        W26873  17.694  34.979   4.620
60465W        W26874  36.103  32.623   3.851
60466W        W26875  34.957   1.448   0.838
60467W        W26876   1.212  16.904   0.913
60468W        W26877  16.615  35.743   2.689
60469W        W26878  32.154  36.616   1.654
60470W        W26879   9.358  43.822   0.297
60471W        W26880  35.791  41.647   3.280
60472W        W26881   2.987   0.114   0.251
60473W        W26882  37.502   6.772  12.577
60474W        W26883  13.007  19.878   0.819
60475W        W26884  25.466  30.072  11.531
60476W        W26885  21.199  10.888  13.477
60477W        W26886  19.692  24.583   3.276
60478W        W26887  40.431  32.134   4.982
60479W        W26888  34.533   1.389  10.254
60480W        W26889   8.511  28.707   3.884
60481W        W26890  31.454  43.780   3.801
60482W        W26891  32.095  41.357   3.238
60483W        W26892  37.590  33.764   2.266
60484W        W26893  20.813  40.845   2.001
60485W        W26894  37.281  14.395   4.246
60486W        W26895  32.341  33.872  14.089
60487W        W26896  33.017   6.431  13.877
60488W        W26897   7.236  40.630  11.138
60489W        W26898  27.647   5.170   4.818
60490W        W26899  12.413  26.733  13.770
60491W        W26900   1.024  21.548   1.280
60492W        W26901  24.826  43.363   3.683
60493W        W26902   8.716  25.957   1.458
60494W        W26903  37.612  44.584  13.982
60495W        W26904  44.923  18.657  11.926
60496W        W26905  36.660   8.306  11.382
60497W        W26906  32.086  27.055   3.237
60498W        W26907   6.186  21.875   3.878
60499W        W26908  20.950  25.710  11.156
60500W        W26909  22.145  16.514   3.769
60501W        W26910  12.120  22.183   3.425
60502W        W26911   8.646  28.925  11.975
60503W        W26912  22.805   0.240   1.790
60504W        W26913  33.329   1.787  11.747
60505W        W26914   2.283  41.850   0.395
60506W        W26915  26.333   4.048   4.214
60507W        W26916  33.899  20.519  13.111
60508W        W26917   7.819  18.210  11.487
60509W        W26918   4.542  26.731   1.308
60510W        W26919  35.927  27.635   3.750
60511W        W26920   2.210  24.248   2.673
60512W        W26921  28.576  40.462   2.888
60513W        W26922   0.681  31.062  14.445
60514W        W26923  38.896  31.553   1.489
60515W        W26924  28.899  27.047  11.542
60516W        W26925  26.302  35.517   4.620
60517W        W26926  41.348  25.724   3.693
60518W        W26927  30.183   2.531   2.696
60519W        W26928  42.910  22.462   0.725
60520W        W26929  12.555  42.868  14.946
60521W        W26930   5.796  10.785  12.586
60522W        W26931  40.904  37.539   1.334
60523W        W26932  24.615  36.491   4.544
60524W        W26933   6.463  24.239  14.413
60525W        W26934  11.941   0.396  12.910
60526W        W26935  41.066  39.115  14.409
60527W        W26936  38.346  15.317  11.508
60528W        W26937  22.981  22.844  12.514
60529W        W26938  33.296  38.311   1.366
60530W        W26939  42.562  41.928  11.929
60531W        W26940  40.361  21.734   4.461
60532W        W26941   6.219   3.288   3.178
60533W        W26942  18.326  37.397   0.276
60534W        W26943  22.435  34.981   1.639
60535W        W26944  24.982   8.220  11.023
60536W        W26945  17.052  37.842   1.745
60537W        W26946  22.209  37.035  13.731
60538W        W26947  28.121   8.926  11.942
60539W        W26948  19.833  10.868   2.302
60540W        W26949  22.475  31.772   2.734
60541W        W26950  25.598  31.661  10.908
60542W        W26951   6.746  40.913  12.541
60543W        W26952  37.043  18.827  11.472
60544W        W26953   1.204   8.484   2.252
60545W        W26954  11.280  42.962   2.610
60546W        W26955  10.720   6.815  14.639
60547W        W26956  12.720  25.121   2.668
60548W        W26957  17.006  34.639  12.171
60549W        W26958  10.819  10.606  14.719
60550W        W26959  38.473  42.976  11.196
60551W        W26960  28.581  34.914  10.728
60552W        W26961   7.712  44.922   2.281
60553W        W26962   6.679  37.103   1.866
60554W        W26963  30.200  35.745   3.264
60555W        W26964  14.684  33.035  11.400
60556W        W26965  32.404  23.049   2.676
60557W        W26966   3.372  29.295   4.069
60558W        W26967  24.064   4.781  13.479
60559W        W26968  15.262  38.326   1.675
60560W        W26969  25.877  29.389   1.409
60561W        W26970   3.580   3.595  12.481
60562W        W26971   6.210  24.052   1.395
60563W        W26972  36.771  20.622  11.145
60564W        W26973  40.180  21.281   3.658
60565W        W26974  20.057   8.373  13.424
60566W        W26975  36.855  32.118  14.374
60567W        W26976  34.956  16.322  12.499
60568W        W26977  32.848  22.046  10.708
60569W        W26978  20.950   4.387   1.101
60570W        W26979  12.318  17.242  13.416
60571W        W26980  34.014  26.617   1.651
60572W        W26981  19.237   2.662  12.270
60573W        W26982  33.315  21.351  13.717
60574W        W26983  17.660  22.155   4.000
60575W        W26984  19.967   8.728  14.959
60576W        W26985  36.002  31.495  14.375
60577W        W26986   4.860  22.424  11.479
60578W        W26987   5.207   5.622  14.759
60579W        W26988  41.023  37.976   0.819
60580W        W26989  44.729  20.493  12.088
60581W        W26990  12.651   9.469  10.511
60582W        W26991  35.613   2.474  13.886
60583W        W26992  37.316   8.342   0.955
60584W        W26993  13.178  41.327   4.042
60585W        W26994  15.279  38.058   3.275
60586W        W26995   2.707   0.494  11.955
60587W        W26996  21.402   3.439   0.287
60588W        W26997  21.152  41.888   2.518
60589W        W26998  10.891  38.376   2.026
60590W        W26999   0.449  17.675   0.320
60591W        W27000   3.470  11.282  12.173
60592W        W27001  26.602   7.212   0.918
60593W        W27002   1.441   7.681  11.791
60594W        W27003  24.449  20.471   3.318
60595W        W27004   2.826   3.947  14.826
60596W        W27005  26.614  15.637   1.149
60597W        W27006  11.088  42.464   0.382
60598W        W27007  16.044  34.120   3.220
60599W        W27008  32.317  23.980  14.081
60600W        W27009  14.270  31.572  10.670
60601W        W27010  44.685  16.691   5.028
60602W        W27011  12.627   2.943   2.574
60603W        W27012  14.202  29.559   3.945
60604W        W27013  22.690  22.043   3.931
60605W        W27014   6.261   4.727   1.026
60606W        W27015  27.945  33.285   0.985
60607W        W27016   4.182   7.798   3.148
60608W        W27017   3.757  38.403  11.493
60609W        W27018  19.646  21.707   1.867
60610W        W27019  30.400  42.571   3.303
60611W        W27020   4.082   3.702  12.512
60612W        W27021   4.432  36.020  12.920
60613W        W27022  42.856   6.174   0.520
60614W        W27023   6.680  21.059   2.387
60615W        W27024   0.911  17.397   0.349
60616W        W27025  39.284  37.665   2.699
60617W        W27026  35.422   6.363   1.185
60618W        W27027  12.173  26.692   2.313
60619W        W27028   5.770  16.381   1.771
60620W        W27029  30.874  42.562  14.849
60621W        W27030   3.862  37.478  14.793
60622W        W27031   1.901  37.784  11.877
60623W        W27032  14.142  24.289   3.683
60624W        W27033  21.246  28.665   3.185
60625W        W27034   6.286  20.153  14.391
60626W        W27035   7.704  27.221   3.630
60627W        W27036  36.961   9.778  14.607
60628W        W27037  44.888  43.044  12.606
60629W        W27038  29.974  20.083  11.656
60630W        W27039  10.289   0.999  12.166
60631W        W27040  33.647  42.600  14.301
60632W        W27041   7.665  33.362   3.631
60633W        W27042  34.166  37.029   3.380
60634W        W27043  29.809  23.319  10.674
60635W        W27044  31.030  43.598   1.745
60636W        W27045  24.259  12.696  13.754
60637W        W27046  12.181  40.100  14.191
60638W        W27047   0.805  25.050  12.958
60639W        W27048  19.938  36.314  13.826
60640W        W27049  19.073   2.766  12.750
60641W        W27050  27.272  21.101   2.768
60642W        W27051   9.895  35.636   3.766
60643W        W27052  36.520  34.665  11.514
60644W        W27053   0.623  40.904   3.914
60645W        W27054  10.311  20.895  10.563
60646W        W27055  15.249  25.697  10.738
60647W        W27056  44.763   8.790   4.552
60648W        W27057  18.232  28.512   4.211
60649W        W27058  26.633  22.669   3.866
60650W        W27059  35.540  16.272  10.389
60651W        W27060  43.454  20.665  12.807
60652W        W27061  44.855  34.656  10.832
60653W        W27062   2.906  24.544  12.930
60654W        W27063  40.781  23.757  13.126
60655W        W27064  25.952   7.391  12.936
60656W        W27065  18.964   4.204  13.675
60657W        W27066  27.486  21.689  14.412
60658W        W27067  16.425  21.324   0.636
60659W        W27068  20.159   4.668  14.767
60660W        W27069   7.328  33.007   0.915
60661W        W27070  10.733  37.102   4.923
60662W        W27071   7.478  37.056  12.894
60663W        W27072  39.621  43.790  12.973
60664W        W27073  21.965  35.151   1.888
60665W        W27074  10.820  17.350   2.678
60666W        W27075  11.771   2.818   3.961
60667W        W27076  36.487  30.029  14.027
60668W        W27077  16.951  42.663   4.941
60669W        W27078   9.490  19.917  10.677
60670W        W27079  39.897  27.143  12.905
60671W        W27080  37.312  25.250   3.238
60672W        W27081  15.696  18.274   3.166
60673W        W27082  39.977   5.242  14.337
60674W        W27083  21.476  20.824   1.906
60675W        W27084  28.899  24.104  14.688
60676W        W27085  40.918  18.038  12.890
60677W        W27086   0.762  38.975  10.289
60678W        W27087   2.980  15.222   3.164
60679W        W27088  38.432  13.748   4.354
60680W        W27089  18.140   1.463   1.354
60681W        W27090  32.644   5.281   9.804
60682W        W27091  28.419  31.073  13.552
60683W        W27092   4.412  21.581   3.709
60684W        W27093  37.932  41.937   3.712
60685W        W27094  23.538  29.260   1.845
60686W        W27095   8.314   8.328  11.309
60687W        W27096  44.938  21.928  13.958
60688W        W27097   2.956  29.115  14.933
60689W        W27098  24.426   5.854   0.815
60690W        W27099  18.891  39.394   0.065
60691W        W27100  27.676  21.504  14.864
60692W        W27101  40.032  44.726   3.436
60693W        W27102  16.214  28.209  10.594
60694W        W27103  32.466  24.992  11.161
60695W        W27104  24.851  40.526  11.052
60696W        W27105  26.166  19.258  13.714
60697W        W27106  21.443  12.338   3.827
60698W        W27107  37.316  37.414   0.206
60699W        W27108  41.505  39.805  12.905
60700W        W27109  28.989   0.372   1.922
60701W        W27110  30.974   7.813  10.610
60702W        W27111   5.093  27.938   0.877
60703W        W27112  20.640  26.489  13.265
60704W        W27113  35.803  11.740  12.553
60705W        W27114   0.876  13.598   4.075
60706W        W27115  14.842  35.045  13.448
60707W        W27116  37.287  10.337   3.594
60708W        W27117  20.066  43.274   1.015
60709W        W27118  19.338  23.574  14.879
60710W        W27119  13.747  26.540   1.700
60711W        W27120  30.499  43.811  12.377
60712W        W27121  18.298  21.654   9.940
60713W        W27122  23.387   4.446  12.598
60714W        W27123  16.550  40.965  10.745
60715W        W27124  39.063  32.797   3.737
60716W        W27125  17.561  22.636   3.793
60717W        W27126  23.563  17.609   4.049
60718W        W27127   7.710  34.922   0.789
60719W        W27128  27.068   8.307  11.696
60720W        W27129  20.155  40.941   4.464
60721W        W27130  39.777  15.279   0.046
60722W        W27131  42.937  12.383   0.979
60723W        W27132  41.341  26.183   0.411
60724W        W27133   2.429  14.697  14.900
60725W        W27134  38.808  20.469  14.361
60726W        W27135   3.738  11.805   0.655
60727W        W27136   9.090  16.799   2.734
60728W        W27137  41.397  42.306  10.961
60729W        W27138  11.074  11.358  10.539
60730W        W27139   1.302  31.665   1.894
60731W        W27140  36.330  20.258   3.124
60732W        W27141  32.595  30.860   4.895
60733W        W27142  34.434  12.553  12.388
60734W        W27143  20.457  16.135   3.221
60735W        W27144   7.703  39.451   0.167
60736W        W27145  32.800  44.179  10.975
60737W        W27146  39.875   5.927   1.679
60738W        W27147  22.763  12.376  13.336
60739W        W27148   9.654  19.472  12.042
60740W        W27149  14.731  23.578   1.311
60741W        W27150  17.076  36.593  11.082
60742W        W27151  19.253  20.538  12.981
60743W        W27152  14.595  33.420   3.778
60744W        W27153  26.501  24.171  13.073
60745W        W27154   0.348  14.591  11.919
60746W        W27155  36.570  10.933  10.559
60747W        W27156  31.186  14.250  14.298
60748W        W27157  13.691  14.787   4.087
60749W        W27158  44.963   8.428   3.641
60750W        W27159  43.251  44.816  12.653
60751W        W27160  20.239  14.535  12.475
60752W        W27161   6.594   6.792   3.755
60753W        W27162  33.876   4.841   3.221
60754W        W27163  37.342  38.382   3.679
60755W        W27164  33.478  34.771   4.076
60756W        W27165  35.966  25.724   3.590
60757W        W27166  31.899   5.431  10.809
60758W        W27167  17.729  44.545   4.054
60759W        W27168  40.522  30.118  11.069
60760W        W27169  11.220  11.800   1.330
60761W        W27170  26.113  43.977   4.634
60762W        W27171  37.821  27.861   1.113
60763W        W27172   4.211  40.818   2.328
60764W        W27173  14.013  17.527  11.066
60765W        W27174  25.500  40.414  12.432
60766W        W27175  17.698  25.671  12.865
60767W        W27176   3.086  42.513   4.025
60768W        W27177  20.200  36.678  12.562
60769W        W27178  10.656   9.434  11.655
60770W        W27179  20.203   5.935  14.612
60771W        W27180   0.993  24.094  10.554
60772W        W27181  20.674  36.988  11.420
60773W        W27182   9.538  10.238  10.670
60774W        W27183  15.540  43.506   1.387
60775W        W27184  26.432  17.383  11.011
60776W        W27185  22.021  18.135   3.365
60777W        W27186   9.708   7.841   3.869
60778W        W27187  40.906  41.491  12.473
60779W        W27188   3.430  29.792   1.278
60780W        W27189  21.098   4.412   2.850
60781W        W27190  15.988  25.056  13.002
60782W        W27191   3.003  15.384  14.464
60783W        W27192   2.114  21.921   4.603
60784W        W27193   2.121  42.941   0.506
60785W        W27194   5.755  39.460  12.555
60786W        W27195  27.459   4.886  14.396
60787W        W27196  43.811  28.657  11.077
60788W        W27197   3.253   2.277   2.825
60789W        W27198   4.832  16.296  12.338
60790W        W27199   5.429   5.004  12.092
60791W        W27200  17.180  30.131  10.692
60792W        W27201  10.736   1.786  12.954
60793W        W27202  24.858  20.336   2.191
60794W        W27203  24.006  38.115   2.325
60795W        W27204   3.715  15.150   3.867
60796W        W27205  10.143  36.561  12.371
60797W        W27206   0.689   3.435   4.129
60798W        W27207  38.513  35.501   0.003
60799W        W27208  12.948  29.596   2.454
60800W        W27209   0.509   4.286   2.188
60801W        W27210  22.974   3.642   2.025
60802W        W27211  11.367   2.986  13.162
60803W        W27212  26.960  37.576  12.936
60804W        W27213  20.081  24.197  14.903
60805W        W27214   2.380  16.731   4.665
60806W        W27215   7.244  11.864  11.521
60807W        W27216  28.926  37.797   3.994
60808W        W27217  35.616  41.943  12.136
60809W        W27218  36.340  19.888  12.847
60810W        W27219   5.480  39.344   0.193
60811W        W27220  44.909  23.087   0.447
60812W        W27221  24.239  29.719  12.912
60813W        W27222  41.189  30.068   2.324
60814W        W27223  32.674  20.838  14.193
60815W        W27224  40.395  32.158  10.636
60816W        W27225   0.453  24.688   0.412
60817W        W27226  14.121   7.443  14.249
60818W        W27227   9.703  41.274  12.332
60819W        W27228  10.950  16.611  13.477
60820W        W27229  28.530  34.094  14.677
60821W        W27230  31.071  25.075  11.459
60822W        W27231  44.002  35.638   1.682
60823W        W27232  11.608  17.129  11.501
60824W        W27233   3.323   1.994  10.303
60825W        W27234  12.703  23.215   0.707
60826W        W27235  28.016  36.363  11.315
60827W        W27236  17.675   1.272  12.141
60828W        W27237  34.657   0.446   1.734
60829W        W27238  39.500  37.991  12.377
60830W        W27239  43.342  27.455   1.914
60831W        W27240  33.849  40.915   2.395
60832W        W27241   6.774  38.366  14.552
60833W        W27242   7.656  39.530   3.268
60834W        W27243  18.032  37.554   4.927
60835W        W27244  40.588  40.038   2.269
60836W        W27245  17.666  18.466  11.675
60837W        W27246  13.715  30.180  12.894
60838W        W27247  18.733  42.645  12.056
60839W        W27248  11.742   9.576   1.479
60840W        W27249   3.421  33.809  11.191
60841W        W27250   5.768   0.026  13.089
60842W        W27251  17.196  30.212   2.237
60843W        W27252  34.443   0.962   2.601
60844W        W27253  40.050  33.416  14.253
60845W        W27254  25.564   1.046  13.101
60846W        W27255  14.346   8.579   3.452
60847W        W27256  31.874  26.545   2.336
60848W        W27257  18.475  29.730   0.654
60849W        W27258  42.014  35.093  11.941
60850W        W27259   5.301   5.894  14.336
60851W        W27260  20.072  17.638   3.029
60852W        W27261  10.010  16.652  14.694
60853W        W27262  37.353  32.001   1.483
60854W        W27263  25.886  13.979   1.195
60855W        W27264  13.091  43.083   0.675
60856W        W27265  27.916   7.180   3.250
60857W        W27266  19.765  15.697   4.902
60858W        W27267  12.390  18.291   1.309
60859W        W27268   1.029  33.370   0.419
60860W        W27269  26.510  30.632   0.242
60861W        W27270  36.719  43.245  14.886
60862W        W27271  37.166  18.811  12.329
60863W        W27272  23.574   9.362  10.706
60864W        W27273  32.156   7.341   4.078
60865W        W27274  30.701  39.939  11.733
60866W        W27275  32.208   1.310   2.850
60867W        W27276  43.973   7.174  13.344
60868W        W27277   9.975  22.251  10.586
60869W        W27278  39.408  37.742  11.933
60870W        W27279  21.789  39.714  12.219
60871W        W27280  20.600  37.048   4.647
60872W        W27281  36.454   8.169   4.653
60873W        W27282   2.760  39.791  14.871
60874W        W27283  35.138  10.236  14.714
60875W        W27284   8.333  24.278  12.086
60876W        W27285  19.692   7.650  13.445
60877W        W27286  33.384  32.004   2.036
60878W        W27287   6.643  41.541   0.860
60879W        W27288  31.808  35.380  11.222
60880W        W27289  26.168  24.956  13.124
60881W        W27290  12.371   0.597   3.978
60882W        W27291  35.575   4.728   9.869
60883W        W27292  14.877  41.859  14.820
60884W        W27293  12.824  12.708  10.776
60885W        W27294  31.687  37.312   4.624
60886W        W27295  17.794  13.823  12.561
60887W        W27296  43.395  12.019   1.926
60888W        W27297  27.196  38.806   0.986
60889W        W27298  27.089  36.131   2.897
60890W        W27299  16.726  39.927   0.423
60891W        W27300   2.295  44.289   1.634
60892W        W27301   1.242  44.882   1.828
60893W        W27302  33.012  36.044  13.786
60894W        W27303   9.870  24.617   1.361
60895W        W27304  41.055  24.305   1.293
60896W        W27305  26.595  17.037   4.618
60897W        W27306  22.639  15.686   4.673
60898W        W27307  11.329  27.598  12.089
60899W        W27308  19.585  44.826  13.828
60900W        W27309  27.833  37.511  10.633
60901W        W27310  16.558   5.982   0.791
60902W        W27311  14.392  39.446   3.092
60903W        W27312   7.051  11.392   4.065
60904W        W27313   1.853  27.149  14.920
60905W        W27314  39.372  22.002   4.731
60906W        W27315  35.785  13.697  14.889
60907W        W27316  10.345   2.683   2.243
60908W        W27317   8.304  23.031  10.739
60909W        W27318  26.854  42.177   4.961
60910W        W27319   8.592  21.591  10.125
60911W        W27320  22.799  33.620  12.036
60912W        W27321  39.743  42.537  11.618
60913W        W27322   1.290  39.985  13.459
60914W        W27323  40.240  31.496  13.995
60915W        W27324  18.893  35.829  13.006
60916W        W27325  10.224  37.305   4.165
60917W        W27326  28.179   2.340   3.162
60918W        W27327  25.758  30.072  13.922
60919W        W27328  34.402  29.236  12.075
60920W        W27329  23.205  13.291  11.909
60921W        W27330  14.800  34.982   5.080
60922W        W27331  29.684  22.422  13.413
60923W        W27332  41.372  20.013   2.754
60924W        W27333   7.423   2.781   3.175
60925W        W27334  14.851  23.514  11.618
60926W        W27335  44.254  39.016  10.243
60927W        W27336   9.188  15.284   4.798
60928W        W27337  29.036  35.657  14.566
60929W        W27338  12.119  28.827   1.191
60930W        W27339  24.167  33.372  10.995
60931W        W27340  10.320  39.371   0.742
60932W        W27341  36.524  31.878  13.542
60933W        W27342  12.784  38.641   3.615
60934W        W27343  39.177  13.913  10.698
60935W        W27344  37.903   4.155   3.620
60936W        W27345  16.192  15.239   1.136
60937W        W27346  23.181  24.981   2.770
60938W        W27347  31.924  38.868  13.985
60939W        W27348  20.689  27.700   1.882
60940W        W27349  10.798  35.421  13.933
60941W        W27350  20.272   7.610   4.735
60942W        W27351  39.056   2.503  12.456
60943W        W27352  18.085  38.043  11.606
60944W        W27353  34.511  15.529  11.114
60945W        W27354  21.271   4.796   0.227
60946W        W27355  35.446  25.104   0.281
60947W        W27356   5.926  41.918  13.322
60948W        W27357  32.545  33.874   2.025
60949W        W27358  14.356   0.084  12.494
60950W        W27359  29.877  44.421  11.850
60951W        W27360  44.323   8.913   0.471
60952W        W27361  29.087  20.017   2.927
60953W        W27362  12.841  35.971   1.346
60954W        W27363   8.749  32.598   1.306
60955W        W27364  32.083  10.440  13.995
60956W        W27365  37.564  17.596  14.261
60957W        W27366  35.447  25.548  10.698
60958W        W27367  41.957   0.225  11.993
60959W        W27368  20.213  30.945   1.313
60960W        W27369  38.580   2.813   3.702
60961W        W27370   3.607  12.096  13.496
60962W        W27371  16.818  30.190  13.890
60963W        W27372   9.828  37.685  14.063
60964W        W27373  34.126   7.838  13.031
60965W        W27374  26.222  25.135   4.681
60966W        W27375  41.046  41.323  14.496
60967W        W27376  24.776  32.351   2.276
60968W        W27377  21.539  18.155   3.541
60969W        W27378  33.385  35.052   3.078
60970W        W27379   9.271  21.649  12.809
60971W        W27380  27.706  13.546   9.955
60972W        W27381  43.359  36.916   4.871
60973W        W27382  36.923   1.565  14.610
60974W        W27383  23.597  26.408  11.570
60975W        W27384  23.178  30.168  11.622
60976W        W27385  12.410  26.625  12.399
60977W        W27386   9.317  39.942  12.171
60978W        W27387  24.240  21.546   3.813
60979W        W27388  16.602  10.693  13.768
60980W        W27389  44.566  15.979   0.446
60981W        W27390   6.296  25.199   3.499
60982W        W27391  22.558  30.111   1.331
60983W        W27392  12.605  32.631   9.814
60984W        W27393  23.051  22.335   3.625
60985W        W27394  26.936  29.227   0.550
60986W        W27395  20.562  36.056  11.015
60987W        W27396  14.095   8.881  13.657
60988W        W27397  35.966  22.607   1.173
60989W        W27398   6.772  13.042   3.712
60990W        W27399  33.006  20.716   4.321
60991W        W27400  43.317  44.716  12.123
60992W        W27401  38.214  22.882  13.343
60993W        W27402   9.676  33.048  14.378
60994W        W27403  32.975  38.147   2.897
60995W        W27404  16.309  32.645   2.905
60996W        W27405  34.745  41.461   4.984
60997W        W27406  43.591  36.294  13.914
60998W        W27407  42.105  25.378  13.556
60999W        W27408   1.486  26.680   2.252
61000W        W27409  11.525  33.575   2.130
61001W        W27410  40.395  25.405  11.240
61002W        W27411  40.162   6.586   4.146
61003W        W27412  11.292   3.290  12.379
61004W        W27413  11.058  44.789   4.638
61005W        W27414  27.226   0.947   4.686
61006W        W27415  42.734  31.885   3.796
61007W        W27416   3.417  23.886   4.890
61008W        W27417  16.808  35.414   1.708
61009W        W27418  43.362  35.685   2.393
61010W        W27419  11.913  30.341   2.134
61011W        W27420  31.129   7.815  12.985
61012W        W27421  42.309  34.806   4.374
61013W        W27422   3.975  33.419  13.438
61014W        W27423   6.995  35.676  10.707
61015W        W27424  33.011  42.491  13.568
61016W        W27425  34.800  25.682  13.581
61017W        W27426  31.952  18.844  11.007
61018W        W27427  27.657   1.808   2.239
61019W        W27428  14.832  34.010  13.459
61020W        W27429  19.713  42.910  14.903
61021W        W27430  31.905   1.048  10.272
61022W        W27431  42.250   4.938   0.903
61023W        W27432  36.357  30.087   2.199
61024W        W27433  11.325  29.808   0.909
61025W        W27434  31.066  19.600  13.835
61026W        W27435  23.541  38.028   0.445
61027W        W27436  28.265  34.336   3.672
61028W        W27437  20.684  35.113   0.762
61029W        W27438  21.719  16.213  11.556
61030W        W27439  44.220   0.153   1.021
61031W        W27440  24.424   6.657   2.410
61032W        W27441  36.780  39.018  11.145
61033W        W27442  25.352   0.992  10.822
61034W        W27443   1.814  36.782  14.630
61035W        W27444  29.441   6.822   4.176
61036W        W27445  26.946  29.113   1.908
61037W        W27446  10.262   0.250  10.519
61038W        W27447  30.455  17.612   3.220
61039W        W27448  16.713  22.037   1.351
61040W        W27449  25.781  21.491  13.926
61041W        W27450   8.849  24.728   1.221
61042W        W27451  26.184  31.369   4.167
61043W        W27452  10.329  11.157   1.425
61044W        W27453   9.508  29.831  13.823
61045W        W27454   0.434   8.268   0.723
61046W        W27455  20.074   9.314   0.290
61047W        W27456  34.802  28.456   4.130
61048W        W27457  17.474  31.650  12.011
61049W        W27458  35.108   8.396   2.857
61050W        W27459   9.514  17.220  14.450
61051W        W27460  27.681  26.887   4.573
61052W        W27461  36.802  15.080  14.805
61053W        W27462   3.245   2.481   1.252
61054W        W27463  19.533  21.118  11.460
61055W        W27464  28.022  43.393  13.992
61056W        W27465  23.307  27.666  11.090
61057W        W27466  32.882   4.987  10.175
61058W        W27467  41.158  40.876  12.877
61059W        W27468  29.534  40.997  10.923
61060W        W27469  18.610  40.301  12.854
61061W        W27470  35.362  33.956  11.231
61062W        W27471  20.541  37.866  11.966
61063W        W27472   4.864  22.126  12.308
61064W        W27473  22.793  25.049   1.865
61065W        W27474  44.849  18.988   1.647
61066W        W27475  27.467  27.578   3.396
61067W        W27476  39.779  16.301   0.818
61068W        W27477  22.554   4.469  11.226
61069W        W27478  34.297  40.043   2.782
61070W        W27479  28.104   0.155  12.011
61071W        W27480  39.948  12.721  14.156
61072W        W27481  35.120  29.025   1.653
61073W        W27482  18.517  42.328   1.612
61074W        W27483   1.880   0.801   1.447
61075W        W27484  26.294   4.557   2.259
61076W        W27485  42.666  27.601  11.592
61077W        W27486   4.370  30.173   2.362
61078W        W27487   2.241  31.655   4.735
61079W        W27488  31.858  15.379  12.103
61080W        W27489  32.607  33.415  14.804
61081W        W27490  15.837  17.741  11.922
61082W        W27491  29.908  18.998   2.752
61083W        W27492  20.810  12.923  14.901
61084W        W27493  40.702  32.836  13.909
61085W        W27494  13.190  44.530   2.761
61086W        W27495   5.894  32.392  14.438
61087W        W27496  42.517  39.977   2.638
61088W        W27497  40.707  21.530   1.392
61089W        W27498  35.391  16.884  12.995
61090W        W27499  34.565  25.951   4.003
61091W        W27500  31.509  20.555  11.194
61092W        W27501  42.985  21.023  12.010
61093W        W27502  11.490  41.655   4.151
61094W        W27503  40.821  14.238   2.268
61095W        W27504   4.345  17.969   1.841
61096W        W27505  16.972  17.861   2.804
61097W        W27506  15.126  22.823  13.108
61098W        W27507  44.501   2.717  14.770
61099W        W27508   2.064  20.053  13.830
61100W        W27509   5.906  21.266   4.666
61101W        W27510  13.561  40.893   2.610
61102W        W27511  36.425  18.043  12.383
61103W        W27512  20.288  19.497  14.560
61104W        W27513  18.668  40.308   4.715
61105W        W27514  35.874  17.061  13.822
61106W        W27515  10.868  14.311   3.448
61107W        W27516  32.319  29.617  14.731
61108W        W27517  39.380   8.776  10.330
61109W        W27518  18.760  40.024   3.560
61110W        W27519   6.984   5.404  14.256
61111W        W27520   8.224  27.495  14.179
61112W        W27521  39.064  38.120  12.088
61113W        W27522  35.547   5.834  11.868
61114W        W27523  13.868  16.276  10.978
61115W        W27524  31.118   5.326  12.546
61116W        W27525  26.647  10.610  10.653
61117W        W27526  42.959   2.440   4.319
61118W        W27527  19.391   7.875  12.025
61119W        W27528  38.247  23.262   3.383
61120W        W27529   6.754  32.100   1.715
61121W        W27530  24.327  16.533  13.421
61122W        W27531  16.236   5.484  12.109
61123W        W27532  29.978  14.472  10.704
61124W        W27533   7.617  13.607   4.530
61125W        W27534  30.588  41.792  13.899
61126W        W27535  43.462  27.644  14.527
61127W        W27536  39.781  44.790   0.535
61128W        W27537   1.871  26.210   4.079
61129W        W27538   5.543  20.588  13.798
61130W        W27539  43.304  24.960   5.054
61131W        W27540  31.170  31.449  14.950
61132W        W27541  34.377  12.259   3.413
61133W        W27542  15.772  15.328   4.762
61134W        W27543  40.869  42.006  12.472
61135W        W27544  15.533  30.692  13.834
61136W        W27545  11.803   7.863   0.956
61137W        W27546  12.712  43.747  10.729
61138W        W27547   6.766  35.663   1.271
61139W        W27548  36.513  17.546  12.504
61140W        W27549   4.076  39.057   3.284
61141W        W27550  25.111   9.176   0.455
61142W        W27551  26.353   4.611   4.158
61143W        W27552   7.487  22.038   1.360
61144W        W27553   6.551  18.829  14.384
61145W        W27554   8.720  27.301  12.441
61146W        W27555  20.308  37.045  13.889
61147W        W27556  34.945   3.898  14.723
61148W        W27557  15.676  25.932  13.883
61149W        W27558  33.473  11.065  11.848
61150W        W27559  30.104   3.528   3.897
61151W        W27560  24.418  43.256  11.467
61152W        W27561  43.306  25.417   3.303
61153W        W27562  24.458   0.939  13.970
61154W        W27563  19.299  28.100   0.255
61155W        W27564   1.932  26.138  13.817
61156W        W27565  31.884  24.656  14.872
61157W        W27566  40.474  43.666   0.973
61158W        W27567  34.019  17.095   3.640
61159W        W27568  37.110   5.208   3.799
61160W        W27569  11.874   6.372   2.231
61161W        W27570  17.698  43.479   1.870
61162W        W27571   2.327  20.960   2.355
61163W        W27572  39.651  13.130  12.956
61164W        W27573  19.939  30.753  14.794
61165W        W27574  28.054  41.770  10.716
61166W        W27575   6.321  38.582  14.360
61167W        W27576  33.985   0.227   3.699
61168W        W27577  32.311  41.268   4.109
61169W        W27578   1.703  11.625  14.708
61170W        W27579  28.395   5.531   1.278
61171W        W27580  34.014  18.022   2.653
61172W        W27581   2.924  11.737   1.713
61173W        W27582  21.257  38.096  13.931
61174W        W27583  19.558  43.122  11.021
61175W        W27584   9.305  10.419   4.173
61176W        W27585  22.948  31.487   4.564
61177W        W27586   7.250   0.905   3.676
61178W        W27587  28.141  33.622   9.880
61179W        W27588  12.337  36.174   1.293
61180W        W27589   4.271  25.404  13.129
61181W        W27590  11.109  15.734   4.934
61182W        W27591   0.174  27.851  11.550
61183W        W27592   2.471  10.687   3.659
61184W        W27593  39.816  31.577  14.836
61185W        W27594  34.518  29.666  14.104
61186W        W27595  35.145  37.902   3.228
61187W        W27596  11.274  13.193   2.191
61188W        W27597  11.402   4.556  14.314
61189W        W27598   6.165  34.491   4.577
61190W        W27599  16.511  43.673  13.044
61191W        W27600  35.825   6.682   1.855
61192W        W27601   3.705  44.973   0.988
61193W        W27602   4.376   0.643  13.004
61194W        W27603  29.164  42.884  13.877
61195W        W27604   7.384  21.561  14.761
61196W        W27605  19.253  21.444   0.765
61197W        W27606   3.589   1.843  13.078
61198W        W27607  19.138  26.241  14.436
61199W        W27608  14.048  15.280  12.385
61200W        W27609  26.508  44.845   4.674
61201W        W27610  44.118  21.204  14.308
61202W        W27611  13.661  36.375   0.502
61203W        W27612  29.705  35.668   2.355
61204W        W27613  24.062   5.247   2.706
61205W        W27614  24.549  44.848  11.931
61206W        W27615  31.933  35.000   3.740
61207W        W27616  17.785  21.447   2.889
61208W        W27617  44.299  32.796  10.801
61209W        W27618   8.914  37.471  12.538
61210W        W27619  24.230  35.876  10.827
61211W        W27620  23.051  27.511   3.397
61212W        W27621  26.021  38.101  12.365
61213W        W27622  15.373  14.740   1.219
61214W        W27623   0.921  22.085   1.265
61215W        W27624  12.829  44.270  11.436
61216W        W27625  14.266   6.429  10.659
61217W        W27626   5.648  28.594   4.678
61218W        W27627  44.405  26.283   4.022
61219W        W27628   0.547  44.712   0.822
61220W        W27629  30.505  27.248   3.647
61221W        W27630  22.211  35.974   2.198
61222W        W27631  40.462  16.162   3.521
61223W        W27632   7.445  25.013   0.300
61224W        W27633  39.078  25.632   1.822
61225W        W27634  37.147  41.850  11.606
61226W        W27635  44.307  39.110  14.912
61227W        W27636  23.374  23.703  10.239
61228W        W27637  20.807  29.029  11.289
61229W        W27638  31.183  22.120   0.367
61230W        W27639  13.492  43.245   0.382
61231W        W27640  43.360   0.424   2.720
61232W        W27641  21.119  39.487   1.509
61233W        W27642   5.997   3.156   2.732
61234W        W27643  18.354  14.674   1.326
61235W        W27644  18.891  32.635   0.753
61236W        W27645  12.443   7.187   4.624
61237W        W27646  40.359  34.806   2.344
61238W        W27647  18.146  11.801  13.843
61239W        W27648  30.135  18.468  11.224
61240W        W27649  31.446  10.942  10.834
61241W        W27650   9.856  22.719  13.892
61242W        W27651  28.467   6.243   0.554
61243W        W27652   5.701  12.202  12.966
61244W        W27653  33.487  41.462   1.996
61245W        W27654  16.106  33.396  10.625
61246W        W27655  22.904  11.123   3.117
61247W        W27656  36.425  39.305  10.917
61248W        W27657   3.160  38.807   3.027
61249W        W27658  40.473  32.092   1.964
61250W        W27659  13.791  29.545  14.569
61251W        W27660   8.181  38.373   4.193
61252W        W27661  28.732  22.480  13.934
61253W        W27662  18.008   1.232  12.940
61254W        W27663  15.712  17.525  14.484
61255W        W27664  41.751  32.347   9.995
61256W        W27665  36.805  33.956  11.121
61257W        W27666  26.417  26.070  14.353
61258W        W27667  10.948  36.612  14.297
61259W        W27668  39.943  20.180   4.564
61260W        W27669   2.924  21.739  13.860
61261W        W27670  19.788   4.570   1.800
61262W        W27671   6.367  12.731   4.638
61263W        W27672  43.463   9.618  14.334
61264W        W27673  35.760  22.784  11.421
61265W        W27674  33.374   4.042  13.779
61266W        W27675   6.351  24.500  14.844
61267W        W27676  21.146  15.272  13.017
61268W        W27677   5.711  12.734  14.412
61269W        W27678   5.523  19.873   0.121
61270W        W27679   0.361  32.098   3.047
61271W        W27680  18.969   8.473   0.821
61272W        W27681   0.923  25.924  11.624
61273W        W27682  43.749   4.852   1.263
61274W        W27683  27.625  21.631  10.995
61275W        W27684  33.061  17.960  14.736
61276W        W27685  42.329  14.185  11.220
61277W        W27686  17.354  12.244  13.000
61278W        W27687  23.727   3.669  14.320
61279W        W27688  20.794  22.377   2.775
61280W        W27689  10.656  16.092  13.569
61281W        W27690  11.778  19.325   5.312
61282W        W27691  26.648  39.606  14.885
61283W        W27692  23.474   0.042  13.559
61284W        W27693   8.784   8.758   2.197
61285W        W27694   8.001  25.925  11.571
61286W        W27695  44.997  25.276  11.954
61287W        W27696  41.148  31.660   5.099
61288W        W27697  18.335  14.177  11.241
61289W        W27698  42.301  24.004   2.934
61290W        W27699   1.866  27.502  10.566
61291W        W27700   9.167  19.147   2.458
61292W        W27701  40.551  36.155   2.253
61293W        W27702  13.252   0.248   2.205
61294W        W27703  18.206  14.056  13.821
61295W        W27704  31.587  30.988   3.798
61296W        W27705   3.607   1.395  11.080
61297W        W27706  23.606  24.633  11.082
61298W        W27707  15.582  13.451   0.100
61299W        W27708   8.890  30.040  11.282
61300W        W27709  24.756  18.855  11.185
61301W        W27710  24.876  27.085  12.567
61302W        W27711  40.786  31.525  11.911
61303W        W27712   6.235   2.263   3.906
61304W        W27713  10.365   7.626   3.182
61305W        W27714  33.318   1.445   2.703
61306W        W27715  22.699   2.289  14.200
61307W        W27716  25.793   5.558   3.097
61308W        W27717  10.584  12.886   2.904
61309W        W27718  12.750  14.648   1.121
61310W        W27719   1.972   6.437  13.188
61311W        W27720  30.620   4.969   2.470
61312W        W27721  40.306  23.634  13.884
61313W        W27722  27.425   0.335  14.924
61314W        W27723   9.317  42.890  12.959
61315W        W27724  38.914   7.893   4.648
61316W        W27725  35.036  43.976  11.146
61317W        W27726  10.411   8.173  11.979
61318W        W27727   4.901  42.494   3.318
61319W        W27728  15.741  18.633   5.212
61320W        W27729  33.044  28.992  10.584
61321W        W27730   7.912  30.448   3.670
61322W        W27731  32.852  23.114   3.397
61323W        W27732  31.812  26.609  10.677
61324W        W27733  16.155   9.422   0.972
61325W        W27734  39.621  22.716   1.075
61326W        W27735  43.241  25.701   1.264
61327W        W27736  22.502  42.090  13.038
61328W        W27737  16.191  25.507  10.615
61329W        W27738  28.989  22.993  11.880
61330W        W27739  40.337  15.296   3.266
61331W        W27740  33.283   7.759  10.945
61332W        W27741   5.254   1.824  13.805
61333W        W27742  26.051  15.156  12.805
61334W        W27743  22.154  23.272  14.182
61335W        W27744  21.133   4.246  12.510
61336W        W27745  40.400  20.802  10.538
61337W        W27746  17.705  40.747  12.649
61338W        W27747  23.645  27.140  14.868
61339W        W27748  15.346  22.502  12.468
61340W        W27749  36.367   3.667   1.366
61341W        W27750  14.721  14.552  14.733
61342W        W27751  27.650  20.926  13.823
61343W        W27752  17.559  15.264   0.925
61344W        W27753  43.568   1.985   1.314
61345W        W27754  41.153   8.607  11.115
61346W        W27755  42.418   8.954  12.459
61347W        W27756  40.795  14.345   0.853
61348W        W27757  11.965  19.373   3.867
61349W        W27758   2.271  10.903   2.789
61350W        W27759  34.519   7.396  11.915
61351W        W27760   6.038   5.863  12.230
61352W        W27761  23.483  22.819   1.754
61353W        W27762  25.638  22.532   2.011
61354W        W27763  33.045  41.559   3.196
61355W        W27764  17.539   1.216   2.745
61356W        W27765  23.733  40.828  12.122
61357W        W27766  28.959  35.549  12.107
61358W        W27767  12.054  21.271  13.308
61359W        W27768  40.650   3.425   1.868
61360W        W27769  17.535   6.270  11.780
61361W        W27770  28.233  21.084  12.130
61362W        W27771  15.096  23.053  11.615
61363W        W27772  37.795   4.726  14.381
61364W        W27773  26.033  26.007   4.874
61365W        W27774  43.059  11.643   1.846
61366W        W27775  29.714  36.706   2.126
61367W        W27776   2.737   7.715  13.607
61368W        W27777   9.419  32.447   3.912
61369W        W27778  20.501  22.942   1.207
61370W        W27779  43.452  24.418   3.239
61371W        W27780  21.774  33.871  11.042
61372W        W27781   5.873  37.029  14.976
61373W        W27782   7.251  39.984   1.847
61374W        W27783   5.608  19.199   4.585
61375W        W27784  29.382  35.816  11.887
61376W        W27785  39.923   2.092  14.718
61377W        W27786  41.798  36.071   0.714
61378W        W27787   3.691  40.525  14.260
61379W        W27788   9.645  29.643   3.310
61380W        W27789   6.429  25.724   3.500
61381W        W27790  23.110   4.748  14.275
61382W        W27791  10.906  27.856  11.503
61383W        W27792  37.199   3.028   4.059
61384W        W27793  26.151  11.910  10.664
61385W        W27794   1.209  40.071   0.309
61386W        W27795  34.134  24.550  14.514
61387W        W27796  26.699  33.526  11.353
61388W        W27797   8.175  12.653  13.595
61389W        W27798  30.619  40.855  14.818
61390W        W27799  22.009  15.160   3.673
61391W        W27800  34.725   5.885  11.884
61392W        W27801  40.415   7.704  13.605
61393W        W27802   0.426   3.467  14.742
61394W        W27803  34.463  36.099  12.631
61395W        W27804   1.826  14.595  13.611
61396W        W27805  17.098  27.481   2.824
61397W        W27806  24.170   1.307   4.736
61398W        W27807  44.451  28.229   1.544
61399W        W27808  14.772  26.055   3.923
61400W        W27809  36.884  10.702  14.322
61401W        W27810   2.728  17.210  12.570
61402W        W27811  16.789  14.872   2.254
61403W        W27812  24.583  19.506  13.932
61404W        W27813   7.944  42.550  11.183
61405W        W27814  30.142  43.958   2.464
61406W        W27815  37.330  23.650  10.119
61407W        W27816   8.344  19.348  14.966
61408W        W27817  44.917  17.562   1.404
61409W        W27818  44.997   2.433   2.428
61410W        W27819  14.653  41.074  14.506
61411W        W27820  39.159  15.110   5.208
61412W        W27821   2.979   6.986   0.933
61413W        W27822  22.314  15.587   1.678
61414W        W27823  33.471   3.182   1.403
61415W        W27824  27.921  18.727   4.082
61416W        W27825   9.691  21.555   1.387
61417W        W27826  44.302   3.860  14.575
61418W        W27827  26.401  16.280   1.921
61419W        W27828   4.107  13.188   1.723
61420W        W27829  36.285  26.504   2.855
61421W        W27830  31.415  31.711   2.338
61422W        W27831   2.385  15.064   0.271
61423W        W27832  39.896  26.909  14.507
61424W        W27833   6.139  44.733  12.804
61425W        W27834  26.024  13.052  14.912
61426W        W27835   3.478  15.158   3.362
61427W        W27836  36.765  15.701   4.664
61428W        W27837  12.170  24.254   4.314
61429W        W27838  42.697  18.958  12.629
61430W        W27839  34.831  36.040   4.158
61431W        W27840  25.531  21.978  11.619
61432W        W27841   0.528  18.187   4.288
61433W        W27842  28.972   5.891   1.796
61434W        W27843  11.384  43.359  13.575
61435W        W27844  44.866  11.839   3.787
61436W        W27845  41.073  21.305   2.181
61437W        W27846   5.269  31.397   4.596
61438W        W27847  37.534   9.681  10.754
61439W        W27848  38.154  10.324  13.219
61440W        W27849  40.782  25.957  14.513
61441W        W27850   8.096  13.170   3.664
61442W        W27851  34.109  27.110  12.068
61443W        W27852   8.132  25.069  14.744
61444W        W27853  12.368  41.443   4.147
61445W        W27854  11.069   8.212   3.668
61446W        W27855  42.357  22.825   3.213
61447W        W27856   0.920   2.814  13.358
61448W        W27857  12.072  11.355  14.392
61449W        W27858  12.772   9.513   4.467
61450W        W27859  24.079  39.296  12.072
61451W        W27860  15.229  41.609  12.468
61452W        W27861  10.879  11.126  12.203
61453W        W27862   2.367  42.762   3.271
61454W        W27863  28.759   7.337   2.944
61455W        W27864  29.331   6.510   2.320
61456W        W27865   8.646  29.875  12.576
61457W        W27866  42.316  36.045   3.889
61458W        W27867  12.145  34.177   4.011
61459W        W27868   2.225  13.236  13.939
61460W        W27869  40.813  44.313   0.833
61461W        W27870  17.170  23.823   2.802
61462W        W27871  23.240  12.373   1.793
61463W        W27872  41.476  19.050   1.376
61464W        W27873   4.846  28.886   2.277
61465W        W27874  28.916  27.662   2.118
61466W        W27875  29.612  13.587  12.022
61467W        W27876  31.525  44.863  13.596
61468W        W27877  40.119  21.419  11.867
61469W        W27878  27.368   3.692  14.865
61470W        W27879   9.864   4.378  10.715
61471W        W27880  30.461  28.116   0.773
61472W        W27881  14.409  38.000  12.831
61473W        W27882   5.810  22.832   5.428
61474W        W27883  42.943  10.696  11.039
61475W        W27884  27.184  11.827   2.643
61476W        W27885   1.279  20.203   4.134
61477W        W27886   4.433  30.317   4.773
61478W        W27887  22.806  39.976  12.025
61479W        W27888   6.078  20.266  12.469
61480W        W27889  18.607  27.606   3.970
61481W        W27890  25.693  22.804  13.028
61482W        W27891  30.315   1.140  11.062
61483W        W27892   3.495  17.310  11.254
61484W        W27893  21.994  42.815   4.196
61485W        W27894  36.035   9.538   3.697
61486W        W27895   9.788  12.761   2.844
61487W        W27896  28.206  27.546   4.059
61488W        W27897  17.000  17.354  14.994
61489W        W27898  43.927  20.734  13.035
61490W        W27899  26.758  36.299   4.517
61491W        W27900   0.357   1.368  10.776
61492W        W27901  13.746  28.887  12.400
61493W        W27902  23.815  23.529   0.450
61494W        W27903  18.737  29.814  13.368
61495W        W27904   0.278  15.852   1.639
61496W        W27905  44.202  41.068  14.275
61497W        W27906  41.736  27.801   3.479
61498W        W27907  25.944  16.048   1.902
61499W        W27908  30.628  41.102  14.376
61500W        W27909  12.538  33.107   1.867
61501W        W27910  18.507  15.027   3.909
61502W        W27911   4.678  25.719  13.597
61503W        W27912   8.987  39.974   2.189
61504W        W27913   2.914   8.313  14.924
61505W        W27914  13.187  29.592  10.795
61506W        W27915   9.170   0.831  13.877
61507W        W27916  12.821  35.604  14.731
61508W        W27917  30.919  15.528   0.366
61509W        W27918  22.546  15.721   2.619
61510W        W27919   2.333  31.208  12.386
61511W        W27920   1.205  33.746   1.091
61512W        W27921  13.837  16.146  13.386
61513W        W27922  18.317  30.472   2.664
61514W        W27923  13.585  17.839  12.210
61515W        W27924  41.914  35.554   0.728
61516W        W27925  17.668   4.202   2.017
61517W        W27926  38.837  16.996   1.629
61518W        W27927  37.425   3.790   0.265
61519W        W27928  15.298  34.840   5.010
61520W        W27929   0.356   6.929   2.148
61521W        W27930  12.145  20.776  13.341
61522W        W27931  31.733  31.102   0.968
61523W        W27932  13.841   2.937   4.141
61524W        W27933  34.048  17.252   2.190
61525W        W27934  42.519   7.263   3.721
61526W        W27935  38.369  18.441  14.888
61527W        W27936  37.567  39.020   0.242
61528W        W27937  38.059   2.635  11.818
61529W        W27938  40.734  10.011   2.685
61530W        W27939  23.284  43.346   3.896
61531W        W27940  41.868  38.869  11.164
61532W        W27941  31.120   0.149  12.119
61533W        W27942  44.482  32.564  11.742
61534W        W27943  21.041  10.080   3.119
61535W        W27944  37.518  18.597  14.494
61536W        W27945  27.370  36.146  12.586
61537W        W27946   2.421   1.690   0.107
61538W        W27947  12.260  30.113   3.383
61539W        W27948  20.242   1.459  10.701
61540W        W27949  38.417   3.867  11.561
61541W        W27950  27.630  31.428   4.469
61542W        W27951  29.840  19.005   1.366
61543W        W27952  37.375   3.439   2.276
61544W        W27953  44.497  43.226   0.310
61545W        W27954  23.784  42.898  11.939
61546W        W27955  16.633   5.844  12.989
61547W        W27956   3.763  42.797  10.223
61548W        W27957  43.742  16.383  14.994
61549W        W27958  28.929  28.053   2.913
61550W        W27959   2.302   2.241   0.914
61551W        W27960  18.381   4.846   0.720
61552W        W27961   9.273  34.555  14.478
61553W        W27962   0.324   1.367   0.655
61554W        W27963   2.253   2.567   0.521
61555W        W27964  20.173  14.263  11.136
61556W        W27965  41.889  19.719  11.609
61557W        W27966  19.281  44.444  13.015
61558W        W27967  35.791  36.557   0.153
61559W        W27968  22.063  11.176  12.168
61560W        W27969  14.827  38.414   2.601
61561W        W27970  21.645  32.183  11.658
61562W        W27971  15.843  18.035  12.559
61563W        W27972  15.346  37.581  13.495
61564W        W27973   5.347  33.342   1.231
61565W        W27974  32.131  13.267   0.353
61566W        W27975  25.229  31.133  14.531
61567W        W27976   4.308  16.848   1.313
61568W        W27977  19.531  40.315  12.933
61569W        W27978  43.529  20.526   4.346
61570W        W27979  28.168  14.803   2.266
61571W        W27980  16.604  39.570  11.209
61572W        W27981  15.766  37.322  13.557
61573W        W27982  34.911  19.344   2.245
61574W        W27983  41.281  10.923  14.343
61575W        W27984  22.795  16.788  14.971
61576W        W27985  26.568  34.808  10.722
61577W        W27986   5.440  28.663   3.774
61578W        W27987  31.864  11.310  13.751
61579W        W27988   6.920  24.628   4.536
61580W        W27989   3.170  29.923   2.742
61581W        W27990  34.631  33.900  13.658
61582W        W27991  40.324  33.944   1.362
61583W        W27992  25.823  15.104   4.565
61584W        W27993  24.918  30.075  10.746
61585W        W27994  19.271  36.970  14.875
61586W        W27995  10.123  23.682  10.695
61587W        W27996   6.286  19.930   0.816
61588W        W27997  39.558  16.256   2.461
61589W        W27998   7.204  13.639   4.856
61590W        W27999  29.141  19.683   2.280
61591W        W28000  37.902   7.751  14.469
61592W        W28001   0.382  43.210  12.500
61593W        W28002  17.373  42.637  14.444
61594W        W28003   6.825  21.393   0.563
61595W        W28004  43.741   7.797  12.548
61596W        W28005  18.607  12.062  11.685
61597W        W28006  34.841   2.910  13.067
61598W        W28007  41.816  10.251  14.415
61599W        W28008  22.163  31.667  12.492
61600W        W28009  31.623  19.713   2.150
61601W        W28010  31.511   4.319  13.339
61602W        W28011   7.918  21.932  11.526
61603W        W28012  18.680   2.154  11.532
61604W        W28013  17.636  27.756   0.850
61605W        W28014  31.644   8.121   2.137
61606W        W28015  31.002  39.923  13.030
61607W        W28016  19.257  28.554   1.170
61608W        W28017  35.084   9.855  14.392
61609W        W28018  40.533  15.607  10.822
61610W        W28019  10.264  32.302  10.644
61611W        W28020   6.208  20.852  10.643
61612W        W28021  28.929  11.915   5.039
61613W        W28022   7.022  41.786  13.901
61614W        W28023   4.813  31.106  12.720
61615W        W28024  38.636  16.400  13.342
61616W        W28025   9.900   1.944  13.023
61617W        W28026   9.252   5.701  13.973
61618W        W28027  14.700  44.286   1.875
61619W        W28028  17.130   5.192  12.129
61620W        W28029  19.079   8.802   2.471
61621W        W28030  35.935  38.928   0.841
61622W        W28031  21.474  19.630   3.240
61623W        W28032  28.716  13.132  12.163
61624W        W28033  12.408   3.182  14.405
61625W        W28034  10.362   5.349   3.779
61626W        W28035  40.945  41.579   4.211
61627W        W28036  12.153  22.471  13.631
61628W        W28037  34.663  19.838   3.596
61629W        W28038  41.825  25.210  14.736
61630W        W28039   7.858   7.460   1.800
61631W        W28040  37.704  11.508   2.803
61632W        W28041  37.598  35.399   3.608
61633W        W28042  11.707  22.562   1.758
61634W        W28043  16.695   3.403   2.377
61635W        W28044   0.750  33.017  13.803
61636W        W28045  13.611   2.150  13.847
61637W        W28046  17.072  40.637  10.054
61638W        W28047  31.115  18.069  13.926
61639W        W28048   6.123  24.776   1.849
61640W        W28049  25.786  32.169  11.031
61641W        W28050  13.348  38.283   0.943
61642W        W28051  19.980   0.462   4.172
61643W        W28052  22.092   1.494   3.664
61644W        W28053  18.223  16.996   3.202
61645W        W28054  25.053   8.117  12.399
61646W        W28055   2.484  40.114  10.518
61647W        W28056  29.114  17.566   3.664
61648W        W28057   9.244  43.767  14.355
61649W        W28058  30.033  31.908   4.330
61650W        W28059  13.531  17.679   1.859
61651W        W28060  33.985  22.728  12.473
61652W        W28061   0.421  28.067   1.235
61653W        W28062  34.166  12.020  14.421
61654W        W28063   9.198  20.557   3.712
61655W        W28064  24.216  20.258  13.805
61656W        W28065  31.891   2.377   0.249
61657W        W28066   5.147  43.471   2.778
61658W        W28067  40.122  28.605   2.694
61659W        W28068  17.814  41.384   2.329
61660W        W28069  29.136  42.076  11.154
61661W        W28070   5.930  25.609   3.605
61662W        W28071  43.418  20.282   3.380
61663W        W28072  36.867  19.144  13.039
61664W        W28073  37.872  44.292  13.480
61665W        W28074  40.782  32.170  10.980
61666W        W28075  38.028  41.269   4.767
61667W        W28076   8.108   0.323   1.659
61668W        W28077  12.625  42.893  12.594
61669W        W28078  42.815  27.931  10.640
61670W        W28079  21.359  13.001  11.556
61671W        W28080  31.627  17.205  11.513
61672W        W28081  31.029  39.473   2.819
61673W        W28082  37.020  10.849   2.750
61674W        W28083  16.219   3.999  11.014
61675W        W28084   8.307  39.090   3.681
61676W        W28085   4.908  19.695  13.953
61677W        W28086  32.333  41.605  12.565
61678W        W28087  16.391   9.642  13.445
61679W        W28088   4.839  44.946   4.114
61680W        W28089   0.683  37.319   1.850
61681W        W28090   1.400   0.035  12.844
61682W        W28091  39.714  11.819  12.381
61683W        W28092  38.388  41.836  12.939
61684W        W28093  42.566  21.343   2.230
61685W        W28094  27.398  44.084   2.685
61686W        W28095  27.937  33.912  13.935
61687W        W28096  16.765  28.412  13.538
61688W        W28097  40.922  13.199   3.663
61689W        W28098  34.889  31.118   0.061
61690W        W28099   3.053  27.122   1.552
61691W        W28100  28.257  17.058   4.263
61692W        W28101  13.210  11.359  14.039
61693W        W28102  16.561  37.804   0.956
61694W        W28103  43.925  32.472  10.929
61695W        W28104  28.001   9.726   0.701
61696W        W28105   3.621  31.384   1.862
61697W        W28106  18.372  17.007   2.209
61698W        W28107  22.595   8.875  14.760
61699W        W28108   4.235   7.811   1.714
61700W        W28109  29.421  40.419   1.633
61701W        W28110   4.141  44.083   1.964
61702W        W28111  16.765   1.650  13.974
61703W        W28112  25.754   2.995   0.310
61704W        W28113  44.163  32.299   3.699
61705W        W28114  19.163  11.162   0.350
61706W        W28115   5.830  30.298  11.613
61707W        W28116  12.740  20.605   2.242
61708W        W28117  31.204  44.410  14.893
61709W        W28118  37.181  44.011   2.791
61710W        W28119  37.548  29.231  10.765
61711W        W28120  10.326  17.162   2.795
61712W        W28121  40.984  10.247  13.964
61713W        W28122  25.425  26.073   0.229
61714W        W28123  24.979   3.268   2.430
61715W        W28124  28.123  39.495  12.914
61716W        W28125  38.978   4.424  14.989
61717W        W28126   7.117  34.488   2.771
61718W        W28127  33.573   6.299   2.928
61719W        W28128   4.654  18.831  11.716
61720W        W28129   8.882  20.661   0.201
61721W        W28130  14.035  17.500   0.040
61722W        W28131  17.967   9.804  10.950
61723W        W28132  14.819   8.018  14.839
61724W        W28133  31.378  41.542  13.480
61725W        W28134   7.216   9.759   1.105
61726W        W28135  21.799   5.025   0.828
61727W        W28136  34.900  14.794  14.742
61728W        W28137  43.133   6.868   9.966
61729W        W28138  29.964  10.846   4.682
61730W        W28139   9.415   5.388   2.763
61731W        W28140  13.366  41.839  11.088
61732W        W28141  35.870  17.087  12.895
61733W        W28142  29.098  28.602  13.910
61734W        W28143  13.609  27.354   2.704
61735W        W28144  33.357  38.945   0.066
61736W        W28145  22.790  23.447  13.479
61737W        W28146  30.917  44.365  10.833
61738W        W28147  28.787  22.654  13.057
61739W        W28148  37.857   7.724  14.995
61740W        W28149  38.608  25.525   2.708
61741W        W28150  37.958  12.241   3.283
61742W        W28151   0.231  29.956   4.765
61743W        W28152   7.226  15.845  13.371
61744W        W28153  30.572   9.769  12.059
61745W        W28154  15.736  40.077  14.957
61746W        W28155  32.397  31.344   3.765
61747W        W28156  33.113  31.165   0.526
61748W        W28157  19.291   9.871   3.830
61749W        W28158  32.221  16.982   0.479
61750W        W28159  35.869  27.719  11.976
61751W        W28160   8.846   9.698   0.333
61752W        W28161  25.863  43.483  12.466
61753W        W28162  35.373  36.660   2.873
61754W        W28163  38.961  37.555  12.882
61755W        W28164  20.769  15.262   2.036
61756W        W28165  17.025   2.872   1.779
61757W        W28166  14.847  31.951   3.679
61758W        W28167   1.288  24.354   4.667
61759W        W28168  40.592  21.599  11.849
61760W        W28169  36.393   5.053   2.377
61761W        W28170  14.847  16.581  14.086
61762W        W28171   9.979  27.586   3.243
61763W        W28172  15.967  15.615   1.415
61764W        W28173  34.785  32.443   1.810
61765W        W28174  43.550   1.274  14.372
61766W        W28175  27.776  12.626   1.484
61767W        W28176   0.423   7.906  11.820
61768W        W28177  38.511  35.594  10.747
61769W        W28178  41.988  37.558   4.493
61770W        W28179  29.379   0.328   4.023
61771W        W28180  36.953  40.807   2.460
61772W        W28181  28.015  24.222   0.540
61773W        W28182  10.305   6.523  14.537
61774W        W28183  26.008  30.168   4.618
61775W        W28184  40.456  23.308   3.615
61776W        W28185   4.403  23.704  12.952
61777W        W28186  14.429   0.581  12.373
61778W        W28187  43.015  39.970   3.393
61779W        W28188  23.148  11.333   2.638
61780W        W28189  34.994  33.885  12.694
61781W        W28190  10.899   2.257  14.220
61782W        W28191  17.251   8.964   2.834
61783W        W28192  34.034  36.303  12.931
61784W        W28193  15.391  12.166   0.875
61785W        W28194  12.651   7.466   1.343
61786W        W28195  25.421  29.559   1.273
61787W        W28196  25.010  14.592  12.096
61788W        W28197   4.947  27.601  13.863
61789W        W28198   3.455  44.654   2.173
61790W        W28199  44.454   9.085   3.747
61791W        W28200  31.434  37.178   0.826
61792W        W28201  38.975  31.697   0.357
61793W        W28202  14.637  23.240  12.029
61794W        W28203  39.346  11.636   1.232
61795W        W28204  18.548  41.792   4.670
61796W        W28205   4.228   0.924   4.402
61797W        W28206  44.919  20.798  14.452
61798W        W28207  32.875   1.506  11.043
61799W        W28208  41.285  39.076  11.523
61800W        W28209  27.447  10.859   0.923
61801W        W28210  24.476  12.819  11.138
61802W        W28211  42.158   6.877  13.839
61803W        W28212  28.927  21.562   4.633
61804W        W28213  26.630  27.400   1.749
61805W        W28214  12.018  29.184   3.293
61806W        W28215  27.205  17.296  14.832
61807W        W28216   7.207  29.659  14.961
61808W        W28217   8.422  27.029  13.947
61809W        W28218  13.172  44.283   3.234
61810W        W28219  35.504   2.233  10.943
61811W        W28220   3.281  13.559   1.229
61812W        W28221  25.523   9.560   0.980
61813W        W28222  38.801  14.733   4.624
61814W        W28223   2.528  16.054   4.296
61815W        W28224  26.594  27.025   4.501
61816W        W28225   6.473  44.927  14.713
61817W        W28226  19.761  39.664   3.878
61818W        W28227   4.934   0.783   3.680
61819W        W28228   7.694  41.817  13.005
61820W        W28229  20.100   1.521   1.725
61821W        W28230   4.993   2.736   0.818
61822W        W28231  24.925   2.759  14.372
61823W        W28232  16.765  32.951  10.472
61824W        W28233   4.480  42.985  10.033
61825W        W28234  37.598   1.415   1.319
61826W        W28235  36.332  17.811   4.126
61827W        W28236  21.185  37.077  11.355
61828W        W28237  26.489  35.800   1.249
61829W        W28238  33.371  22.176   2.890
61830W        W28239   9.647   3.651  14.308
61831W        W28240   4.426   5.671  13.433
61832W        W28241  27.034  29.209  14.553
61833W        W28242  20.628  13.629   0.859
61834W        W28243  18.819  17.522  14.544
61835W        W28244  26.711  41.472  13.504
61836W        W28245  22.651   7.202  14.280
61837W        W28246   0.802  36.514   2.901
61838W        W28247  42.207  40.137  12.368
61839W        W28248   2.750  42.509   2.291
61840W        W28249  21.551  11.822  11.228
61841W        W28250  25.277  21.277   0.339
61842W        W28251  31.309  17.939  14.509
61843W        W28252  30.136   1.813  14.270
61844W        W28253  13.052   5.670   3.250
61845W        W28254  18.533  23.058  14.542
61846W        W28255  13.323  42.422   2.773
61847W        W28256   1.570   1.161   4.220
61848W        W28257  12.212  14.771   2.419
61849W        W28258  43.195   7.375   2.860
61850W        W28259  40.755  34.673   0.801
61851W        W28260  16.307  39.650  13.693
61852W        W28261   8.411  20.169  12.330
61853W        W28262  17.494  17.645  11.669
61854W        W28263  18.774  43.183   1.368
61855W        W28264   7.983  11.009   0.304
61856W        W28265  13.165  15.264  13.493
61857W        W28266  21.765   5.088   2.763
61858W        W28267   3.552  43.361  14.427
61859W        W28268  29.711  13.858   0.416
61860W        W28269   2.786  42.913  10.901
61861W        W28270  21.062   4.759  12.560
61862W        W28271  41.971  35.518  14.345
61863W        W28272  13.720  20.657   4.100
61864W        W28273  17.854   8.384  12.516
61865W        W28274  22.863  39.354   1.710
61866W        W28275  17.856  12.238  11.546
61867W        W28276  13.797  31.062   1.383
61868W        W28277   7.466  10.571   1.746
61869W        W28278   6.045   9.430   4.271
61870W        W28279   7.678  42.832   3.260
61871W        W28280   3.186   8.307  12.280
61872W        W28281  19.839  30.368   3.497
61873W        W28282  32.938   1.491   3.320
61874W        W28283  44.426  25.024   2.742
61875W        W28284  42.782  14.763  14.193
61876W        W28285  36.307  22.975   2.902
61877W        W28286  32.285   4.616  10.359
61878W        W28287  19.023  17.178   1.620
61879W        W28288   2.865  23.606   4.266
61880W        W28289  36.812  18.220   2.818
61881W        W28290  25.593  38.041   4.157
61882W        W28291  13.670  12.771  14.258
61883W        W28292   4.049  37.993  14.139
61884W        W28293   7.731  38.593  12.126
61885W        W28294  16.549   9.768   0.825
61886W        W28295   8.248   3.121   0.305
61887W        W28296  11.397  24.593  14.489
61888W        W28297   2.271  30.614   3.120
61889W        W28298  43.502  24.740  11.615
61890W        W28299  26.942   3.194   0.525
61891W        W28300  12.624   2.979  12.623
61892W        W28301  40.596  31.760  11.224
61893W        W28302  25.943  11.694   0.788
61894W        W28303  11.301  34.872   4.496
61895W        W28304  42.612  18.638  10.344
61896W        W28305  28.956  39.816  10.700
61897W        W28306  33.761  10.691   2.380
61898W        W28307  24.651  23.567   1.893
61899W        W28308   3.634  27.858  13.851
61900W        W28309  34.211  42.760   3.663
61901W        W28310  44.077   6.166   0.291
61902W        W28311  28.102  27.641   4.557
61903W        W28312  38.898  43.728  14.012
61904W        W28313  13.737  26.655  13.062
61905W        W28314   8.262   8.717  12.257
61906W        W28315  17.563  31.603  10.732
61907W        W28316  23.521   5.198   1.891
61908W        W28317  19.294  39.963   1.275
61909W        W28318  35.259  35.658  10.695
61910W        W28319   6.155  22.255  12.126
61911W        W28320   4.178  43.489   3.605
61912W        W28321   9.414   3.409  14.692
61913W        W28322  13.705   8.934   0.324
61914W        W28323  30.892  15.758   1.735
61915W        W28324  32.016  32.088  14.418
61916W        W28325  17.171  28.696  14.721
61917W        W28326  29.055  25.933  12.588
61918W        W28327  25.912  28.924   4.695
61919W        W28328  32.075   1.366  12.477
61920W        W28329  42.696  23.036   2.856
61921W        W28330   8.624   6.719  13.998
61922W        W28331  18.857  16.783  13.754
61923W        W28332  23.637  25.250   2.810
61924W        W28333   0.997  38.065   2.654
61925W        W28334   0.013  40.265  10.123
61926W        W28335   5.916  27.512  12.574
61927W        W28336  37.955   3.304  10.053
61928W        W28337  16.134  14.690   0.923
61929W        W28338  13.299   3.472   1.910
61930W        W28339  32.427  15.642   0.810
61931W        W28340  33.495   2.752  13.445
61932W        W28341  28.224  36.095  10.929
61933W        W28342  37.267   0.987  11.252
61934W        W28343  13.137  11.371   3.552
61935W        W28344  24.164   5.472  12.304
61936W        W28345  16.869  39.685  14.993
61937W        W28346   5.283  15.273  14.550
61938W        W28347  36.592  27.654   3.301
61939W        W28348  22.777  41.502   2.269
61940W        W28349   3.984  27.148  10.860
61941W        W28350  35.486  18.292  14.088
61942W        W28351  26.046   2.694  13.574
61943W        W28352  28.718   9.300   3.678
61944W        W28353  25.114  39.792  10.336
61945W        W28354   7.240  27.641   0.333
61946W        W28355  18.563  42.859   3.292
61947W        W28356  37.087  22.695  11.766
61948W        W28357  21.356  24.154   4.190
61949W        W28358  35.487  33.797   0.401
61950W        W28359  26.097   8.361   3.027
61951W        W28360  28.967  10.919   1.328
61952W        W28361  36.686  32.069   4.756
61953W        W28362  44.980  28.492   3.589
61954W        W28363  17.918  36.996   4.078
61955W        W28364   2.927  34.628  13.675
61956W        W28365  21.134  30.428  14.945
61957W        W28366   8.313  34.921   4.660
61958W        W28367  17.086  26.780   4.631
61959W        W28368   8.404   9.730  13.244
61960W        W28369  19.741  42.610   4.384
61961W        W28370  40.405  29.930   4.079
61962W        W28371  14.520  32.055  11.677
61963W        W28372  36.055  30.662   3.975
61964W        W28373  38.326  32.042  11.328
61965W        W28374  44.029  39.957   0.806
61966W        W28375  23.497  16.052  12.063
61967W        W28376  40.989  41.832   0.120
61968W        W28377  38.477  19.269  14.296
61969W        W28378   5.018  20.433   2.925
61970W        W28379  13.024  30.377  13.295
61971W        W28380  33.898  25.011  13.338
61972W        W28381  33.617  21.471   4.129
61973W        W28382   4.161   4.872   4.089
61974W        W28383  44.269   4.607  13.995
61975W        W28384  28.959  41.384  11.584
61976W        W28385   0.179  36.506  10.761
61977W        W28386  31.544  27.103  14.929
61978W        W28387  19.055  13.232  14.756
61979W        W28388  41.383  42.717   2.022
61980W        W28389   2.337  27.967   0.022
61981W        W28390  28.001  12.757  10.831
61982W        W28391  36.976  15.909  14.321
61983W        W28392   1.683  24.175   0.747
61984W        W28393  14.379   0.025   1.747
61985W        W28394  39.231   1.834   3.210
61986W        W28395   8.868   3.743   4.184
61987W        W28396  39.008  22.433  14.895
61988W        W28397   7.154  31.128   2.755
61989W        W28398   3.171  11.176   3.972
61990W        W28399  30.534  14.814   0.023
61991W        W28400   6.177  32.505   0.803
61992W        W28401  32.365  32.007   1.868
61993W        W28402  10.751   8.692  12.445
61994W        W28403  18.315  10.232   5.172
61995W        W28404  11.740  13.362  11.157
61996W        W28405   1.883  39.350   2.558
61997W        W28406  36.956  15.420   0.413
61998W        W28407  42.734  42.030  10.682
61999W        W28408  32.720   1.094  14.314
62000W        W28409  42.919  18.154  12.925
62001W        W28410  19.902  37.820  11.164
62002W        W28411  10.269  21.216   3.750
62003W        W28412  15.549  16.032  11.592
62004W        W28413   1.670   1.156   0.676
62005W        W28414  21.566  35.403  12.510
62006W        W28415  33.947  12.014  13.659
62007W        W28416  17.679  22.029  14.380
62008W        W28417   0.414   0.744  11.616
62009W        W28418  31.975  43.521   2.841
62010W        W28419  16.969  26.374  11.236
62011W        W28420  16.020  12.237  14.365
62012W        W28421  40.862   4.056  13.406
62013W        W28422  14.286  41.544  13.344
62014W        W28423  37.404  32.475   0.823
62015W        W28424  11.308  18.557   3.773
62016W        W28425  14.289  40.375   4.225
62017W        W28426  11.181   1.895  12.164
62018W        W28427   9.145   5.356   4.523
62019W        W28428  38.604  39.404   2.834
62020W        W28429   0.337   0.031   0.464
62021W        W28430  31.004   4.383   0.131
62022W        W28431   2.803   8.359   0.906
62023W        W28432   2.804  13.718   2.884
62024W        W28433  11.892  25.714  14.090
62025W        W28434  44.917  13.364  13.544
62026W        W28435   8.621  39.622   2.160
62027W        W28436  27.480  26.380  14.821
62028W        W28437  13.036  15.444   3.819
62029W        W28438  43.517  37.401   0.233
62030W        W28439   5.920  11.296  13.937
62031W        W28440  39.175  15.897   2.302
62032W        W28441  20.109   1.036   3.165
62033W        W28442  38.755  30.292   1.712
62034W        W28443  35.179  41.459   2.797
62035W        W28444   2.067  34.328   2.493
62036W        W28445  43.215  15.049   2.265
62037W        W28446  10.645  17.988  10.719
62038W        W28447  39.487  19.796  11.207
62039W        W28448  37.565  34.354  14.426
62040W        W28449   3.976  18.228  12.109
62041W        W28450  22.397  24.954   0.725
62042W        W28451  11.653  44.269   1.832
62043W        W28452  41.440  44.208   2.623
62044W        W28453  28.095  34.441  13.826
62045W        W28454  18.520  43.765   4.441
62046W        W28455   9.478  30.463   0.409
62047W        W28456  35.517   6.434  14.858
62048W        W28457   8.944   8.532  13.007
62049W        W28458  32.181  36.364  11.047
62050W        W28459  27.980   1.512  11.162
62051W        W28460  31.082   6.178   0.858
62052W        W28461  35.986  22.052  12.623
62053W        W28462  42.340  24.970   2.863
62054W        W28463   6.227  37.622  12.147
62055W        W28464  29.000  39.877  14.461
62056W        W28465   0.759  34.243  12.479
62057W        W28466  39.073  11.785  14.801
62058W        W28467   6.637  39.353   1.350
62059W        W28468  31.882  24.268  13.836
62060W        W28469  29.586  36.232  12.143
62061W        W28470   5.939  22.618   4.595
62062W        W28471  32.623  37.568   4.597
62063W        W28472  36.319   8.806   3.266
62064W        W28473   6.296  30.022  12.399
62065W        W28474  18.561  29.878  12.074
62066W        W28475  24.826   4.307   2.410
62067W        W28476   6.417  37.361  12.548
62068W        W28477   3.237   2.883   4.233
62069W        W28478  18.037  16.503   3.216
62070W        W28479  22.768  27.292  12.474
62071W        W28480  14.745   4.761  14.930
62072W        W28481  38.021  35.185   0.838
62073W        W28482  22.003  15.402  12.546
62074W        W28483  10.695  32.380  11.584
62075W        W28484  25.371  22.050  14.841
62076W        W28485   3.326  21.570   3.268
62077W        W28486  38.178  28.682   3.140
62078W        W28487  33.054  29.853  10.770
62079W        W28488   9.262  21.805  14.818
62080W        W28489   8.459  17.780   0.775
62081W        W28490  40.787  25.772  12.614
62082W        W28491  44.940   6.918   1.159
62083W        W28492  22.572  40.955   0.925
62084W        W28493  32.534  40.128  11.476
62085W        W28494   8.978   6.741   4.123
62086W        W28495   5.762  29.931   3.147
62087W        W28496  14.029  11.099   2.342
62088W        W28497  24.108   2.774  10.928
62089W        W28498  10.324  32.049  12.758
62090W        W28499  25.336  17.137   3.897
62091W        W28500  12.769  14.194   2.405
62092W        W28501   4.255  10.602  10.971
62093W        W28502  22.073  20.111   3.048
62094W        W28503  36.005  15.258  13.408
62095W        W28504  42.029  32.006  13.117
62096W        W28505  19.769  32.674   3.196
62097W        W28506   4.669  23.491  12.460
62098W        W28507  42.667  12.642   3.547
62099W        W28508  18.468  10.705   1.402
62100W        W28509  20.783   1.860   0.420
62101W        W28510   7.363   8.516  14.015
62102W        W28511  22.304   0.345  12.039
62103W        W28512  16.062  18.806  12.157
62104W        W28513  41.562  36.506   4.383
62105W        W28514  28.520   6.651  13.531
62106W        W28515   4.919  10.909   4.570
62107W        W28516   4.178   9.147  14.596
62108W        W28517   3.409   2.383  11.592
62109W        W28518  31.940   5.917  10.186
62110W        W28519  27.985  35.380  12.058
62111W        W28520   9.661  41.724  14.848
62112W        W28521  19.077  30.743   1.558
62113W        W28522   7.745  22.702   4.092
62114W        W28523  39.062  14.900  11.462
62115W        W28524  20.597  27.196  13.157
62116W        W28525   6.760  22.460  13.158
62117W        W28526  35.484  26.906  14.850
62118W        W28527  29.388  16.511   2.448
62119W        W28528  24.608  16.764   3.365
62120W        W28529  29.926   3.569   1.289
62121W        W28530  35.486   9.719  12.905
62122W        W28531  17.743   3.617   2.863
62123W        W28532   9.182  14.990  12.466
62124W        W28533  39.859  21.173   0.497
62125W        W28534  31.423  36.169   1.872
62126W        W28535   7.802  17.720   2.352
62127W        W28536   2.942  24.655   0.952
62128W        W28537  42.194  32.554  13.631
62129W        W28538  11.619  38.857   0.599
62130W        W28539  10.959  43.499   3.207
62131W        W28540   8.519  23.846   0.942
62132W        W28541   3.713  22.478   1.002
62133W        W28542  19.350  40.985  12.973
62134W        W28543  18.299  40.073   3.815
62135W        W28544  35.564   8.132   4.458
62136W        W28545  22.434  38.486   2.155
62137W        W28546  26.585  20.290   0.478
62138W        W28547  20.048  17.839   2.370
62139W        W28548  34.155  14.817   1.762
62140W        W28549  19.818  32.429   0.880
62141W        W28550  36.456  10.835   1.359
62142W        W28551  42.238  44.380   3.988
62143W        W28552  12.793  39.384   0.560
62144W        W28553  25.402  42.036   1.423
62145W        W28554  43.444  23.492   2.284
62146W        W28555  36.164  44.911  12.911
62147W        W28556  25.631  41.230   3.592
62148W        W28557   2.502  22.072  11.628
62149W        W28558   2.825  31.273  12.680
62150W        W28559  37.985  18.705   3.439
62151W        W28560  22.810  31.464   2.968
62152W        W28561  14.043  30.606   1.364
62153W        W28562  26.120  16.637   2.202
62154W        W28563  15.605  44.283   0.921
62155W        W28564   0.878  40.737  12.059
62156W        W28565   4.887  10.757   1.708
62157W        W28566  41.527  25.017   4.186
62158W        W28567  16.062  37.382   2.265
62159W        W28568  30.825  21.492  13.848
62160W        W28569  29.147   9.860  12.148
62161W        W28570  40.533  32.126  14.926
62162W        W28571  41.616  29.100   2.262
62163W        W28572  15.208   0.042  12.266
62164W        W28573  43.953  30.582  14.370
62165W        W28574  17.151  25.618   2.502
62166W        W28575  18.177   2.354  11.486
62167W        W28576   9.229  31.401  14.988
62168W        W28577  36.750  44.287  14.865
62169W        W28578  12.904   8.268  11.289
62170W        W28579  15.704  41.429   0.261
62171W        W28580  13.770  44.822   1.058
62172W        W28581   0.009  37.147  13.770
62173W        W28582  18.748  36.637  13.234
62174W        W28583  33.241  32.167  10.121
62175W        W28584   4.850  34.037  14.142
62176W        W28585  21.879   2.941  14.930
62177W        W28586  24.430  11.522  11.347
62178W        W28587  24.602  28.922  10.700
62179W        W28588  41.328  42.013   4.961
62180W        W28589  18.802  30.016  14.223
62181W        W28590  13.087  11.749   4.540
62182W        W28591  24.555  13.093  10.710
62183W        W28592  13.368  33.143   1.175
62184W        W28593  41.797  25.559  13.922
62185W        W28594  13.808  26.202  11.505
62186W        W28595  12.286  19.161   2.955
62187W        W28596  41.655  16.867   4.019
62188W        W28597  30.659  23.750   0.978
62189W        W28598   0.528   2.767  11.894
62190W        W28599  18.129  30.958   3.560
62191W        W28600  16.738  44.959  14.286
62192W        W28601  32.305   8.358   0.549
62193W        W28602  11.484  19.383   4.007
62194W        W28603  15.207  25.475  14.277
62195W        W28604  37.834  33.547   0.873
62196W        W28605  11.386  32.061  14.306
62197W        W28606   9.720  16.589   4.551
62198W        W28607  29.572  40.976  12.539
62199W        W28608   8.666  12.271   3.740
62200W        W28609   5.677  29.524  12.008
62201W        W28610  44.546  16.693   4.124
62202W        W28611  22.801  21.891   5.084
62203W        W28612  10.405  36.491   0.257
62204W        W28613  43.350  33.089  10.768
62205W        W28614   7.664  34.298  12.118
62206W        W28615  32.318   1.556  12.053
62207W        W28616  16.569  12.164   3.465
62208W        W28617  33.262  27.467   3.689
62209W        W28618  22.624   2.809  11.643
62210W        W28619   0.542  26.250  11.924
62211W        W28620  23.619  32.478   2.348
62212W        W28621  31.121  11.550  14.180
62213W        W28622  23.729  36.881   3.154
62214W        W28623  43.850  23.372   1.927
62215W        W28624  40.817  23.044  10.732
62216W        W28625  43.574   1.472   2.653
62217W        W28626  30.029  26.004   3.724
62218W        W28627  43.648  24.665   1.616
62219W        W28628  25.596   4.183  11.365
62220W        W28629  20.501  43.746   3.638
62221W        W28630   9.548   2.923  14.492
62222W        W28631  14.232  11.560   2.496
62223W        W28632  34.473   0.896   3.113
62224W        W28633  35.347   0.813  12.284
62225W        W28634  44.462  40.255   1.304
62226W        W28635  19.013  42.963   0.478
62227W        W28636  14.969  14.310   4.211
62228W        W28637  33.903  13.075   4.825
62229W        W28638  18.534  42.471   4.134
62230W        W28639  24.531   3.140   3.627
62231W        W28640   8.087  37.117  14.565
62232W        W28641  25.536  27.494  12.155
62233W        W28642  25.036  42.041  12.941
62234W        W28643  17.279  10.566   3.749
62235W        W28644   6.100  13.747   4.615
62236W        W28645   1.029   4.764   2.674
62237W        W28646  30.468  25.163  12.881
62238W        W28647   1.181  21.026  12.085
62239W        W28648  30.026  31.899   4.862
62240W        W28649   9.726   1.669  12.022
62241W        W28650   0.032  28.386   0.002
62242W        W28651  14.100  40.968  12.885
62243W        W28652  22.189  29.995   3.833
62244W        W28653  40.855   6.035   0.715
62245W        W28654  39.400  39.819  13.787
62246W        W28655  18.322  36.033   3.258
62247W        W28656  33.147  28.104  11.677
62248W        W28657   2.913  43.786  11.916
62249W        W28658   1.315  29.574  13.448
62250W        W28659   8.810  13.401   2.711
62251W        W28660  24.185  10.777   4.288
62252W        W28661  15.224  17.628   2.669
62253W        W28662  16.681   4.919  13.051
62254W        W28663  14.056   1.820  12.439
62255W        W28664  42.529   6.421   0.001
62256W        W28665   4.458  13.586   2.641
62257W        W28666  13.773  43.167  13.622
62258W        W28667  21.005  29.998   1.365
62259W        W28668  31.246   1.027   1.378
62260W        W28669   6.153  40.858   4.874
62261W        W28670  25.532  38.492   2.904
62262W        W28671  34.067  24.874   1.693
62263W        W28672  23.795  41.440  10.801
62264W        W28673  22.196  15.876  11.089
62265W        W28674   8.883  41.573   4.672
62266W        W28675  11.384  24.069   4.195
62267W        W28676  26.766  43.933   1.142
62268W        W28677  26.476  21.802  12.033
62269W        W28678  17.677  27.545  14.315
62270W        W28679  42.271   8.841  13.338
62271W        W28680  16.658  13.073   1.195
62272W        W28681  19.769   3.943   2.932
62273W        W28682  44.238  10.443  12.093
62274W        W28683  34.889  12.830  12.460
62275W        W28684   8.736  31.332  13.863
62276W        W28685  30.190  32.453   3.597
62277W        W28686  31.318  16.362   2.276
62278W        W28687   5.300  42.391  10.444
62279W        W28688  29.489  35.503   1.907
62280W        W28689   7.863  41.887   0.770
62281W        W28690  40.993   8.385  11.578
62282W        W28691  25.725   7.933   4.185
62283W        W28692  26.247  24.314   0.314
62284W        W28693  19.627  44.795   0.212
62285W        W28694  30.769  28.595  13.055
62286W        W28695  15.834  42.358  13.578
62287W        W28696  34.317  33.473  12.398
62288W        W28697  40.536  31.076  12.039
62289W        W28698  42.498  19.229  11.052
62290W        W28699  26.639  31.631   4.248
62291W        W28700  25.530  14.695   4.678
62292W        W28701   2.376  35.607  13.443
62293W        W28702  12.444   7.136  14.549
62294W        W28703  27.335  32.653   2.184
62295W        W28704   3.973  11.839  11.091
62296W        W28705  29.821  31.401   0.365
62297W        W28706   3.417  32.036  10.771
62298W        W28707  18.500  44.895  14.531
62299W        W28708  28.170  13.357  14.854
62300W        W28709  10.329  30.574   9.920
62301W        W28710  17.395  36.132   2.685
62302W        W28711  30.446  20.488   0.418
62303W        W28712  36.407  44.934  10.677
62304W        W28713  31.090  27.611  10.631
62305W        W28714   5.999  37.492  10.538
62306W        W28715  41.054  11.663  14.899
62307W        W28716  42.149  39.943   5.086
62308W        W28717  18.216  19.638   4.085
62309W        W28718  34.425  37.884   1.670
62310W        W28719   4.853  18.749   2.449
62311W        W28720  19.559   3.741  11.018
62312W        W28721  26.987  44.516   4.648
62313W        W28722   0.860  21.492  13.608
62314W        W28723  40.855  35.421  13.512
62315W        W28724   2.843  37.838  13.025
62316W        W28725   9.133   4.436  14.858
62317W        W28726   9.783  18.072  14.303
62318W        W28727  25.869  42.859  14.525
62319W        W28728  28.493  13.274  13.942
62320W        W28729  42.894  31.104  10.698
62321W        W28730  17.437  39.949   0.884
62322W        W28731   2.223  11.772  11.993
62323W        W28732  44.836  19.607   0.795
62324W        W28733  16.092  34.545   4.103
62325W        W28734  22.545  43.216   4.039
62326W        W28735  39.739   5.855  12.477
62327W        W28736  37.449  29.020   2.481
62328W        W28737  34.332  12.010   2.353
62329W        W28738  21.235  39.903  12.353
62330W        W28739  41.657  41.737   1.202
62331W        W28740   7.044  30.036   2.430
62332W        W28741   0.548  43.534  13.108
62333W        W28742  13.663  12.945  11.057
62334W        W28743  40.196  24.730   2.152
62335W        W28744  31.028  33.575   0.386
62336W        W28745  20.050  44.442   1.874
62337W        W28746  38.767   0.728   3.134
62338W        W28747  32.483  36.306   1.930
62339W        W28748  16.720  23.522   2.813
62340W        W28749  23.104  43.811  12.429
62341W        W28750  31.187   0.068   4.565
62342W        W28751   1.084   7.434  10.181
62343W        W28752  10.609  21.984   4.580
62344W        W28753  22.457  12.166   0.190
62345W        W28754  20.061   1.475   2.675
62346W        W28755  18.350  16.944  12.585
62347W        W28756  33.995  23.455   2.730
62348W        W28757  20.097  27.264  11.036
62349W        W28758   3.918  29.512   1.877
62350W        W28759  33.390  32.081  14.686
62351W        W28760  43.881   1.736   2.269
62352W        W28761  13.293  14.611   0.383
62353W        W28762  34.127  37.061  11.632
62354W        W28763   7.897  40.372   0.794
62355W        W28764  37.940  40.964   2.346
62356W        W28765  42.825  27.108  14.379
62357W        W28766  19.599   3.433  13.781
62358W        W28767   9.212   1.910  10.961
62359W        W28768   4.531  19.565   2.699
62360W        W28769  42.556  25.205   4.756
62361W        W28770   4.720  28.057   2.733
62362W        W28771  40.442  12.361   2.153
62363W        W28772  15.958  14.379   0.368
62364W        W28773  41.996  21.772   3.985
62365W        W28774  34.628  10.297  13.376
62366W        W28775  28.998  28.945   2.722
62367W        W28776   3.941  28.683   4.051
62368W        W28777  20.035  40.885  12.507
62369W        W28778  13.146  32.090   2.368
62370W        W28779  41.314  42.400  13.331
62371W        W28780  38.370  28.316  14.932
62372W        W28781   6.694  40.949   0.784
62373W        W28782  40.332   1.658   2.604
62374W        W28783  43.761  35.290   1.375
62375W        W28784  19.137  14.682  10.957
62376W        W28785  43.488  34.509  12.046
62377W        W28786   8.812  33.106   0.431
62378W        W28787   9.053  13.719  13.516
62379W        W28788  31.776   4.200  11.167
62380W        W28789  22.047  33.891   0.432
62381W        W28790  36.657  34.789   2.228
62382W        W28791   4.719  37.974   0.790
62383W        W28792  44.956  19.682   0.299
62384W        W28793  36.401  44.906  11.533
62385W        W28794   9.860   1.773  13.508
62386W        W28795  10.093   9.968  12.099
62387W        W28796   0.310  31.362  11.586
62388W        W28797  31.952  30.036   3.641
62389W        W28798  33.491   0.703  11.516
62390W        W28799  20.327  21.252  12.012
62391W        W28800  28.910  18.676  12.512
62392W        W28801  44.431  26.595  14.007
62393W        W28802   1.314  28.749  13.127
62394W        W28803  31.904   4.154   3.170
62395W        W28804   9.346  40.954  10.822
62396W        W28805  15.585  24.011   2.749
62397W        W28806  40.109  15.135   2.772
62398W        W28807  13.563  20.975   3.147
62399W        W28808  34.969  13.693   0.521
62400W        W28809  42.381  10.286  12.451
62401W        W28810  31.950   4.367   0.523
62402W        W28811  43.477  20.135   0.216
62403W        W28812  30.459   2.504  10.680
62404W        W28813  27.251   7.895   2.188
62405W        W28814  40.763  38.752   1.462
62406W        W28815  13.722  39.367   1.750
62407W        W28816  13.239  21.148   1.823
62408W        W28817   2.305  33.025   1.679
62409W        W28818   0.371  20.014  12.772
62410W        W28819  20.265   3.158  13.429
62411W        W28820  20.757  19.235   4.737
62412W        W28821   8.028  25.284   9.679
62413W        W28822  37.399   9.883   3.138
62414W        W28823  10.889  36.046   2.022
62415W        W28824  29.394  23.456  13.511
62416W        W28825  31.841  26.626  12.001
62417W        W28826   2.746  35.960  12.306
62418W        W28827  17.303  43.452   3.678
62419W        W28828  26.290   8.189   2.108
62420W        W28829  41.414  17.119  12.406
62421W        W28830  28.045  32.445  11.894
62422W        W28831  37.253   5.152   1.795
62423W        W28832   4.949   7.156   0.994
62424W        W28833  18.004  14.862  14.250
62425W        W28834  11.418  11.764   2.265
62426W        W28835  44.907   5.651   3.331
62427W        W28836  39.430  39.953  13.216
62428W        W28837  14.888   9.750  14.868
62429W        W28838   7.309  10.798   1.299
62430W        W28839  34.362  35.617   0.847
62431W        W28840  16.947  32.399  13.079
62432W        W28841  36.286   7.583  10.709
62433W        W28842  25.782  17.532   2.230
62434W        W28843  37.738  13.068   3.629
62435W        W28844  29.879   2.338  10.571
62436W        W28845  14.693  32.123  11.187
62437W        W28846  11.856  24.679   2.208
62438W        W28847  25.548  34.070   4.501
62439W        W28848  30.958   5.398   0.506
62440W        W28849  20.695  13.862   3.599
62441W        W28850  12.606   5.637   2.261
62442W        W28851   1.535  34.489   3.185
62443W        W28852  38.725   2.007  11.618
62444W        W28853  14.609  42.816   4.888
62445W        W28854   0.400   1.039   3.465
62446W        W28855   6.123  30.195  13.320
62447W        W28856  12.822  25.249   4.027
62448W        W28857  42.333  36.119   1.494
62449W        W28858   5.638  10.207  11.573
62450W        W28859   8.727  44.654  11.596
62451W        W28860   2.848  34.623   0.869
62452W        W28861  15.663  34.934  10.645
62453W        W28862  13.872  21.682   3.219
62454W        W28863   1.599  40.763   0.828
62455W        W28864  14.613  19.207   0.019
62456W        W28865  20.970  32.985   4.481
62457W        W28866  39.068  31.205   0.219
62458W        W28867  17.406  23.121   3.590
62459W        W28868  37.882  32.475   0.510
62460W        W28869  33.884  12.766  10.404
62461W        W28870  44.287  20.514   1.835
62462W        W28871  31.611  29.456  11.193
62463W        W28872  27.012   9.171  12.041
62464W        W28873   6.601  31.961  12.433
62465W        W28874  30.514  10.873  12.614
62466W        W28875  16.640  27.855  10.498
62467W        W28876  12.103  34.015   0.289
62468W        W28877  15.423  35.882   3.560
62469W        W28878  40.796  36.294  13.418
62470W        W28879   8.619   5.704   0.354
62471W        W28880  38.979  24.762   2.769
62472W        W28881   2.309  44.581   3.664
62473W        W28882  44.559  24.082  10.558
62474W        W28883  39.071  34.924   4.571
62475W        W28884   6.862   7.964   1.393
62476W        W28885  43.613  36.796   3.216
62477W        W28886  13.630  25.754  12.833
62478W        W28887  15.740  29.650  12.192
62479W        W28888  35.886  25.643   2.266
62480W        W28889   4.611  27.873   2.268
62481W        W28890   1.256  20.215  13.956
62482W        W28891  38.058  34.377  14.281
62483W        W28892  43.790   7.442   1.834
62484W        W28893  43.205  13.358   2.189
62485W        W28894  32.443  34.925   2.177
62486W        W28895  17.833   9.385   3.225
62487W        W28896   1.228  32.633  13.205
62488W        W28897  33.674  28.024  13.976
62489W        W28898  15.115  39.435  10.357
62490W        W28899  16.951  18.511  14.366
62491W        W28900  37.109  39.367   4.149
62492W        W28901   9.803   4.690   2.909
62493W        W28902   5.869  44.312   4.658
62494W        W28903  11.287   0.026  12.049
62495W        W28904  14.539  19.752  13.920
62496W        W28905  36.405  16.677   3.748
62497W        W28906   9.211   6.570  10.322
62498W        W28907  11.300  20.132  13.243
62499W        W28908  39.427  36.789   2.810
62500W        W28909  29.727   7.389  13.752
62501W        W28910  33.992  21.313   1.408
62502W        W28911  30.074   7.213   3.693
62503W        W28912  14.699  41.264   2.750
62504W        W28913  20.569  32.809  12.424
62505W        W28914  25.904   7.685   0.464
62506W        W28915  40.988  43.793  11.939
62507W        W28916  40.403  43.537   4.710
62508W        W28917   5.974  36.408   0.775
62509W        W28918  15.062  36.812  13.105
62510W        W28919  21.532  39.764  11.409
62511W        W28920  20.021  43.915   3.842
62512W        W28921   9.310  42.039   1.092
62513W        W28922  41.971   4.500   0.719
62514W        W28923  17.812  19.758   4.383
62515W        W28924  39.879  28.203   0.694
62516W        W28925  30.606  12.845   3.324
62517W        W28926  30.973  16.724   1.704
62518W        W28927  10.661  44.320   2.621
62519W        W28928  36.010  41.811   0.903
62520W        W28929  27.739  12.890  12.134
62521W        W28930  12.733  24.313  10.290
62522W        W28931  15.562  19.302   0.315
62523W        W28932  13.155  12.736  14.185
62524W        W28933   3.118   5.154  11.970
62525W        W28934  44.288  33.631   3.801
62526W        W28935   8.371  37.067  10.735
62527W        W28936  41.103  19.762   3.212
62528W        W28937  20.473  22.783   2.746
62529W        W28938  17.846  11.393  13.858
62530W        W28939  16.230  18.206  10.700
62531W        W28940   1.456  18.473   0.650
62532W        W28941  36.102  30.002  12.339
62533W        W28942  39.463  30.019  11.175
62534W        W28943  42.027   5.391   3.607
62535W        W28944   8.786  29.473  10.999
62536W        W28945  19.445  30.642  11.469
62537W        W28946  18.593  42.990  10.647
62538W        W28947  44.250  19.624  11.638
62539W        W28948  20.745  29.553   2.170
62540W        W28949  24.711  40.063  14.217
62541W        W28950  12.423  43.273   5.406
62542W        W28951   5.906   7.277  10.706
62543W        W28952  34.534  11.799   1.834
62544W        W28953  39.650  31.396  13.494
62545W        W28954  11.597  23.151  12.614
62546W        W28955  18.766  21.431  10.117
62547W        W28956   7.961  25.600   3.282
62548W        W28957  28.740  34.610  14.566
62549W        W28958  18.566  34.093   4.250
62550W        W28959  23.190   3.153  10.566
62551W        W28960  40.332  27.461   3.169
62552W        W28961  31.566  16.264  11.918
62553W        W28962  27.942  29.150   0.746
62554W        W28963   1.992   9.386   0.527
62555W        W28964  29.537  26.179   3.683
62556W        W28965  30.226  14.793   1.409
62557W        W28966  14.187   7.947  12.450
62558W        W28967  44.231  23.020   4.573
62559W        W28968  33.625  35.187   0.775
62560W        W28969   4.955  21.730   0.913
62561W        W28970  37.129  24.581  14.915
62562W        W28971  40.665  17.361   0.190
62563W        W28972  36.834  19.240   2.741
62564W        W28973   4.659  41.812   0.745
62565W        W28974  41.834  42.411  12.132
62566W        W28975   4.030  38.307   2.805
62567W        W28976  34.991  24.898   0.272
62568W        W28977  41.388  10.509   3.074
62569W        W28978  14.240   7.290  14.716
62570W        W28979  31.105  42.452  14.235
62571W        W28980  18.344  43.880   0.934
62572W        W28981  13.890  13.318   2.897
62573W        W28982  24.655  34.929  10.690
62574W        W28983  17.302   7.806  11.935
62575W        W28984  16.586   8.221  12.403
62576W        W28985  16.153  18.338   1.801
62577W        W28986  38.373  21.896   1.334
62578W        W28987  31.207  34.502   2.139
62579W        W28988  44.388  31.799  10.066
62580W        W28989  40.781  21.771  11.395
62581W        W28990   6.796   9.184   0.414
62582W        W28991  29.031  16.159   2.201
62583W        W28992  33.933  10.912  12.105
62584W        W28993  35.280  16.544  12.071
62585W        W28994  36.591  41.893  12.457
62586W        W28995   7.627   2.727   2.409
62587W        W28996  34.171  41.724  11.861
62588W        W28997  37.565  27.105  12.294
62589W        W28998  13.678   1.657  12.856
62590W        W28999  11.656   4.959   3.256
62591W        W29000  11.583  32.449  11.273
62592W        W29001  28.255  17.356   1.414
62593W        W29002  23.923  35.009   3.725
62594W        W29003   2.820  32.648   1.880
62595W        W29004  32.726  38.521   4.491
62596W        W29005  26.107  36.661  12.521
62597W        W29006  24.607  38.958   3.032
62598W        W29007   9.327  29.863   2.939
62599W        W29008  35.355  36.798  11.199
62600W        W29009  41.961  40.897   3.619
62601W        W29010  37.359  21.018  14.389
62602W        W29011  12.643  25.029  14.414
62603W        W29012  30.862  34.525   0.269
62604W        W29013   3.756  25.025  10.322
62605W        W29014  23.971  31.798  12.026
62606W        W29015   5.494   7.954   0.293
62607W        W29016  41.971  14.624   0.440
62608W        W29017  42.292  43.438  12.975
62609W        W29018  41.270  24.846   0.428
62610W        W29019  44.457  39.937   4.570
62611W        W29020  20.541  40.446   1.226
62612W        W29021  25.094  18.460   2.291
62613W        W29022  15.859   5.898   3.529
62614W        W29023  20.652  38.484  12.514
62615W        W29024  22.111  15.079  12.133
62616W        W29025  22.135  40.236  12.576
62617W        W29026  35.092  19.733   0.499
62618W        W29027   1.183  40.601  14.251
62619W        W29028  38.160   9.225  13.456
62620W        W29029  32.445  15.336  10.819
62621W        W29030  38.444  26.413  11.944
62622W        W29031   9.719  16.680   3.134
62623W        W29032  20.517  43.383   0.103
62624W        W29033  30.906  14.484   3.785
62625W        W29034  43.796  38.759   3.237
62626W        W29035  10.752  20.614   0.291
62627W        W29036  39.391  34.170  12.473
62628W        W29037   3.818  40.408   3.690
62629W        W29038  41.338   0.808  11.444
62630W        W29039   0.768  30.403   1.787
62631W        W29040   6.396   8.180  11.888
62632W        W29041  29.969  25.180  13.084
62633W        W29042  28.481   1.352  13.732
62634W        W29043  38.116   9.404  12.509
62635W        W29044   0.928   1.804   3.913
62636W        W29045  20.632  20.570   4.626
62637W        W29046  21.139  22.576   4.924
62638W        W29047  17.232  39.523  13.792
62639W        W29048   4.939   3.932  12.750
62640W        W29049  15.980  13.629  11.221
62641W        W29050  35.836  18.136  10.606
62642W        W29051  42.339  17.245   4.690
62643W        W29052   9.418   9.956  13.440
62644W        W29053   6.572  15.582  12.892
62645W        W29054  32.492  19.622   1.766
62646W        W29055  20.335   5.677   4.570
62647W        W29056  17.753  42.470  12.531
62648W        W29057  41.233   0.891  11.954
62649W        W29058   0.067  25.124   2.026
62650W        W29059  29.417  11.105  14.879
62651W        W29060  16.212  24.630   4.524
62652W        W29061  38.357  36.790  13.391
62653W        W29062  15.476   1.550   1.464
62654W        W29063  37.764  30.481   3.024
62655W        W29064  17.122  30.688  12.371
62656W        W29065  26.214  25.202  14.130
62657W        W29066   2.755  36.153  10.934
62658W        W29067  17.516  38.818   2.660
62659W        W29068  18.619  29.324   1.933
62660W        W29069   3.681  12.916   2.877
62661W        W29070  30.920  17.289  14.730
62662W        W29071  38.042  36.668   3.156
62663W        W29072  28.157  38.233   3.791
62664W        W29073   2.277  41.086  10.788
62665W        W29074  19.570  14.735   2.922
62666W        W29075   6.769   2.277  12.063
62667W        W29076  39.825  13.245  14.271
62668W        W29077  37.296  27.519   1.364
62669W        W29078  27.487   0.926  14.331
62670W        W29079  33.169  21.213   4.225
62671W        W29080  40.849  15.653  12.673
62672W        W29081  18.759   8.747  13.369
62673W        W29082  23.775  33.875   2.338
62674W        W29083  17.539  25.202   0.876
62675W        W29084  31.226   8.414  11.426
62676W        W29085   5.166  12.419  12.151
62677W        W29086   5.635  42.034  10.678
62678W        W29087  38.862  11.146  11.456
62679W        W29088  22.699  30.575  14.066
62680W        W29089   6.823  22.528   4.328
62681W        W29090  39.157  25.027   0.655
62682W        W29091  33.426  37.654   0.421
62683W        W29092  31.477  36.870  13.153
62684W        W29093  31.164  24.562   2.702
62685W        W29094  34.985  22.256   2.709
62686W        W29095  15.806  35.490   0.981
62687W        W29096  28.898   3.966  13.932
62688W        W29097  28.999   8.362  14.842
62689W        W29098  31.162  31.923  10.321
62690W        W29099  28.202   7.578   3.624
62691W        W29100  36.833  31.407  13.950
62692W        W29101  33.992  44.344  12.371
62693W        W29102   9.038  20.923  10.281
62694W        W29103  34.104  27.896  13.729
62695W        W29104  43.844  33.992  10.888
62696W        W29105  23.964   7.801   0.300
62697W        W29106  34.412  31.103   3.338
62698W        W29107  33.981  24.986   3.133
62699W        W29108  44.038   9.890   1.768
62700W        W29109  23.052  23.311   2.708
62701W        W29110  41.091   5.282   4.143
62702W        W29111   9.864  23.792  13.320
62703W        W29112  38.127  39.187   4.099
62704W        W29113  24.438   3.867  13.774
62705W        W29114  31.070  29.134  12.165
62706W        W29115  41.724  10.918  12.858
62707W        W29116   9.823  29.127  14.780
62708W        W29117  32.646  26.489  12.534
62709W        W29118  19.895   1.183  12.906
62710W        W29119  36.468  27.753  10.669
62711W        W29120  42.118  29.198   2.255
62712W        W29121  17.172  44.419  12.003
62713W        W29122  32.325  20.078  13.974
62714W        W29123   1.950  18.656   2.642
62715W        W29124   7.327  34.971   1.148
62716W        W29125  34.594  13.304   0.564
62717W        W29126  16.981  42.868   4.277
62718W        W29127   2.218  35.925   3.363
62719W        W29128   6.368   2.299   1.032
62720W        W29129  41.835  35.542   2.706
62721W        W29130  24.003   0.752  10.583
62722W        W29131  20.154  26.425  12.524
62723W        W29132  16.191  42.490  14.098
62724W        W29133   7.755  25.991   3.631
62725W        W29134  31.843  10.221   3.072
62726W        W29135  43.284  11.325   1.259
62727W        W29136   4.669  42.998  13.180
62728W        W29137  12.924  32.386   0.249
62729W        W29138  37.425  21.422   1.202
62730W        W29139  24.488   8.756  12.921
62731W        W29140  37.122  34.798   3.322
62732W        W29141   1.472  33.396   0.778
62733W        W29142  37.943  24.863   2.646
62734W        W29143  34.556  20.323  11.660
62735W        W29144  13.116  10.801   1.339
62736W        W29145  21.492  40.731  11.360
62737W        W29146  42.456  14.582   2.250
62738W        W29147  39.437  29.649  13.607
62739W        W29148  16.168  31.951   1.588
62740W        W29149  25.475  43.857  13.618
62741W        W29150  27.031  41.528   2.313
62742W        W29151  30.192  33.124   2.801
62743W        W29152   6.790  32.869  13.431
62744W        W29153  10.712  41.890  14.734
62745W        W29154  19.516  10.400  12.002
62746W        W29155  11.672  41.936  12.872
62747W        W29156  18.036  34.244   4.083
62748W        W29157   9.160   1.953   1.259
62749W        W29158   0.975  40.987  13.904
62750W        W29159   3.162  15.296   1.791
62751W        W29160  16.134  24.195  14.430
62752W        W29161  41.203  13.786  12.790
62753W        W29162  10.132  30.895   4.595
62754W        W29163  30.034   2.730   4.045
62755W        W29164  15.162  37.819  13.926
62756W        W29165   2.230  41.419   2.212
62757W        W29166  31.072  40.614  14.838
62758W        W29167  36.023  22.165  11.621
62759W        W29168  18.365  18.582   2.278
62760W        W29169  23.225  10.140  11.122
62761W        W29170  28.942  15.852   1.765
62762W        W29171   8.016  20.513  11.049
62763W        W29172  40.643  39.731  10.243
62764W        W29173   1.695  24.645   0.949
62765W        W29174  13.036  11.812  12.929
62766W        W29175  12.286   0.349  13.440
62767W        W29176  30.488  17.671   4.180
62768W        W29177  35.021   0.583  11.471
62769W        W29178   2.705  14.564  11.518
62770W        W29179  37.758  36.295  12.596
62771W        W29180  42.458  44.725  11.152
62772W        W29181   5.806  44.466  12.204
62773W        W29182  41.347  17.036   4.487
62774W        W29183  40.355  43.128  11.083
62775W        W29184  32.424   5.758  14.890
62776W        W29185  42.569   8.470  12.337
62777W        W29186  24.101  28.695  10.719
62778W        W29187  41.260  11.533   2.150
62779W        W29188   7.695  26.992   4.094
62780W        W29189  18.789  22.131  11.103
62781W        W29190  10.833  30.022  13.092
62782W        W29191  38.043   7.609  11.211
62783W        W29192   4.215   9.266   2.817
62784W        W29193  29.058  15.151   3.847
62785W        W29194   5.403  16.186  14.495
62786W        W29195   3.944   0.821  13.259
62787W        W29196   5.842  43.980  14.864
62788W        W29197  26.038  32.340  14.049
62789W        W29198  25.478  39.499  14.030
62790W        W29199  44.717  22.646   1.196
62791W        W29200   8.425  18.217  13.547
62792W        W29201  14.742  28.456   1.329
62793W        W29202  22.935  35.510  12.761
62794W        W29203  43.541  44.896   0.505
62795W        W29204  16.573   0.360   1.079
62796W        W29205  32.160  31.509   1.765
62797W        W29206  32.206  14.592   3.181
62798W        W29207  41.535  13.689   0.017
62799W        W29208  23.130   5.925   4.387
62800W        W29209  19.530  28.882  10.082
62801W        W29210   6.161  12.366  13.797
62802W        W29211   0.008  16.237   0.346
62803W        W29212   1.004   9.169  12.019
62804W        W29213  19.048  19.597   2.354
62805W        W29214  21.001   9.888  14.268
62806W        W29215   2.253   9.897   1.733
62807W        W29216  33.674  30.656  14.151
62808W        W29217  44.846  31.223   3.408
62809W        W29218  36.247   7.551  13.323
62810W        W29219   1.129  16.226  14.803
62811W        W29220  28.723  26.529  11.249
62812W        W29221  39.366   6.002  13.890
62813W        W29222  36.024   4.880  10.922
62814W        W29223  35.925   9.979  12.852
62815W        W29224  29.477  12.577   0.692
62816W        W29225   4.804  36.954  13.888
62817W        W29226  20.047  12.120  10.778
62818W        W29227  33.206   0.851   3.893
62819W        W29228   0.086   6.871   4.797
62820W        W29229  30.647  43.967   1.728
62821W        W29230  43.313  38.879   0.030
62822W        W29231  44.983  14.565   2.232
62823W        W29232  21.573   4.493  13.503
62824W        W29233  27.241  19.669  10.241
62825W        W29234  28.109  27.161  11.154
62826W        W29235  23.105  44.332  12.878
62827W        W29236  31.863   4.323  12.961
62828W        W29237   9.888   4.032  13.051
62829W        W29238  24.968  18.076   3.647
62830W        W29239  16.214  27.936  13.965
62831W        W29240  34.843  42.035  11.199
62832W        W29241  11.615  34.105  12.443
62833W        W29242  20.197  21.183  12.996
62834W        W29243  40.136  17.406   0.136
62835W        W29244  32.129  25.253  10.431
62836W        W29245  10.800  10.521  12.898
62837W        W29246   9.665  36.295  13.942
62838W        W29247  21.768  28.472  13.470
62839W        W29248  12.394   7.255   1.757
62840W        W29249   6.818  25.062  14.502
62841W        W29250  16.596  33.129   0.834
62842W        W29251  11.636  37.905  13.964
62843W        W29252  40.555  39.851  14.527
62844W        W29253  10.808   0.114   0.004
62845W        W29254  13.179  39.932  12.904
62846W        W29255   2.868  38.898   3.867
62847W        W29256  23.684  22.310  13.482
62848W        W29257  41.432  39.097  12.450
62849W        W29258  43.409  17.982   2.200
62850W        W29259  43.259   3.901   1.345
62851W        W29260  32.124  18.185  14.483
62852W        W29261   9.412  39.519  11.821
62853W        W29262  24.079  37.734  10.561
62854W        W29263   9.510  23.682  14.264
62855W        W29264  42.689  11.768   4.484
62856W        W29265  31.455  25.449   0.963
62857W        W29266  22.970  17.651   3.988
62858W        W29267   2.400  37.289   0.087
62859W        W29268  25.642   7.264   3.733
62860W        W29269  18.538  23.637  14.450
62861W        W29270  31.026  33.895  10.374
62862W        W29271   4.769  15.647   4.387
62863W        W29272  13.479   6.403   3.129
62864W        W29273  26.985  23.565   1.841
62865W        W29274  32.161  34.298  11.141
62866W        W29275  13.704  16.273  11.492
62867W        W29276  28.444  43.612   1.700
62868W        W29277   5.334  17.443   9.805
62869W        W29278  21.186  21.990   2.842
62870W        W29279  33.320  23.414  11.032
62871W        W29280  27.202   9.179   3.574
62872W        W29281  29.403  37.900   2.270
62873W        W29282  19.529  35.667  10.296
62874W        W29283   1.886  21.529   4.115
62875W        W29284  10.180  42.537   3.675
62876W        W29285  23.787   6.883   4.560
62877W        W29286   2.460  21.727   3.258
62878W        W29287  44.262   4.416  11.586
62879W        W29288  28.433  28.268  11.469
62880W        W29289   6.767  40.321  11.146
62881W        W29290  17.613   5.478   1.618
62882W        W29291  34.987  37.466  13.028
62883W        W29292  31.514  36.796  11.547
62884W        W29293  16.096  13.638   4.530
62885W        W29294  17.622  18.277   2.249
62886W        W29295   1.797   7.591   4.706
62887W        W29296   8.884  42.053   2.846
62888W        W29297  39.252  26.888   0.275
62889W        W29298  43.152  34.099   0.271
62890W        W29299  39.450  40.549  11.540
62891W        W29300  25.297  20.662   1.136
62892W        W29301  25.963  17.682  11.746
62893W        W29302  29.400  43.008  14.308
62894W        W29303  12.111   3.268   1.939
62895W        W29304  13.280  25.841   0.779
62896W        W29305  12.622  35.630  12.314
62897W        W29306   1.491  43.783  14.802
62898W        W29307  31.394  42.813   3.755
62899W        W29308  12.532  43.383  14.882
62900W        W29309  30.356   4.075   4.541
62901W        W29310  21.247  44.393   3.600
62902W        W29311   2.536  24.895   1.847
62903W        W29312  40.353  27.543  12.370
62904W        W29313  29.788  14.344   1.995
62905W        W29314  42.042   6.322   2.644
62906W        W29315  31.382  41.927   0.355
62907W        W29316   9.584  18.763  11.179
62908W        W29317  26.167  23.693   5.048
62909W        W29318  17.350  39.013   3.587
62910W        W29319  27.940  17.239  12.011
62911W        W29320  42.337  34.266   3.221
62912W        W29321   5.473  30.454  13.927
62913W        W29322  24.909  20.723   0.826
62914W        W29323  44.923   9.997   0.732
62915W        W29324   3.617  13.408   1.623
62916W        W29325  28.960  15.376  13.527
62917W        W29326  19.982  26.168   0.790
62918W        W29327  40.786  25.598   2.182
62919W        W29328  27.609   7.271  14.527
62920W        W29329  36.022  32.201   2.615
62921W        W29330   0.327  38.588   3.032
62922W        W29331  34.200  31.070  11.497
62923W        W29332  34.449  44.790  12.226
62924W        W29333  38.372  40.874   4.657
62925W        W29334  16.877  23.486  11.757
62926W        W29335  35.688  20.283   1.218
62927W        W29336  13.130  29.914  12.409
62928W        W29337  18.760   3.470  14.308
62929W        W29338  33.935   1.725   2.806
62930W        W29339   1.476  31.275   2.864
62931W        W29340  31.888   7.888  14.342
62932W        W29341  17.636  29.554  12.964
62933W        W29342  14.628  36.403   0.250
62934W        W29343  18.340  34.956  10.638
62935W        W29344  10.319  16.003   3.830
62936W        W29345  12.620  16.835   3.869
62937W        W29346   6.898   6.344   3.698
62938W        W29347  12.644  12.112  11.555
62939W        W29348  29.148  13.647  11.814
62940W        W29349  43.811  43.082   0.930
62941W        W29350  44.536  39.464   2.221
62942W        W29351  32.153  38.021   2.453
62943W        W29352  10.366   8.473  14.563
62944W        W29353  28.564  13.727  14.901
62945W        W29354  22.618   3.939   1.333
62946W        W29355  39.274  17.645   2.298
62947W        W29356  26.542  41.937   3.368
62948W        W29357   9.191  23.446   3.200
62949W        W29358  25.413  11.998   2.622
62950W        W29359   2.786  25.698   0.903
62951W        W29360  17.606  36.869  12.032
62952W        W29361  10.720  44.325   1.245
62953W        W29362  10.106  28.447   2.363
62954W        W29363  29.544  10.359  13.899
62955W        W29364   4.975  21.010   0.397
62956W        W29365  40.393  17.707  13.577
62957W        W29366  32.533  19.629  11.174
62958W        W29367  28.089  35.336   2.377
62959W        W29368  27.531  32.864  11.301
62960W        W29369  23.195  39.117   1.361
62961W        W29370   9.345  42.511   4.563
62962W        W29371  15.226  28.172  14.790
62963W        W29372   8.855  44.129   1.881
62964W        W29373   6.215  28.967  10.593
62965W        W29374  43.456   9.400  11.546
62966W        W29375  44.571  16.398  14.501
62967W        W29376  14.333  31.070  10.521
62968W        W29377  16.041  41.374   5.074
62969W        W29378   7.746  15.212  14.972
62970W        W29379  41.915  11.033  10.452
62971W        W29380   8.949  29.641  10.395
62972W        W29381  14.448  25.351  10.325
62973W        W29382   4.986   2.299   0.489
62974W        W29383  37.640   2.867   2.849
62975W        W29384  17.089  28.461   2.433
62976W        W29385  21.312  36.519   1.201
62977W        W29386  39.118  36.569   0.315
62978W        W29387  18.640  38.632   1.004
62979W        W29388  19.458  12.402  12.442
62980W        W29389   2.921  26.523  12.192
62981W        W29390  25.622  23.951  11.616
62982W        W29391  25.122   0.236   2.260
62983W        W29392  39.576  26.048  12.108
62984W        W29393  28.463   6.201   4.221
62985W        W29394   8.853   8.365  13.495
62986W        W29395   9.744  26.146  13.537
62987W        W29396  14.626  32.064   2.270
62988W        W29397  36.018  33.375   0.777
62989W        W29398  25.492  21.092   4.542
62990W        W29399  27.058  10.713  12.010
62991W        W29400   4.411  41.411  10.640
62992W        W29401   8.693   3.675   1.317
62993W        W29402  36.025  11.660   3.216
62994W        W29403  18.155  22.158  13.339
62995W        W29404  41.050  11.702   3.651
62996W        W29405  44.097  25.189   5.201
62997W        W29406  43.385  17.355   4.589
62998W        W29407  24.744  39.572  11.454
62999W        W29408   7.711   4.243   3.847
63000W        W29409  34.309  42.240   3.591
63001W        W29410  42.527  22.548   2.770
63002W        W29411   0.457  28.585  10.800
63003W        W29412   3.658   6.785  14.508
63004W        W29413   6.141   2.014  12.955
63005W        W29414  17.556  17.375  10.672
63006W        W29415  43.333   4.143   4.448
63007W        W29416  38.001  18.492   2.213
63008W        W29417   7.632  35.829   2.627
63009W        W29418   1.315  21.707  14.843
63010W        W29419  15.740   7.148   2.790
63011W        W29420  43.197  43.169   1.375
63012W        W29421  19.265  11.283  14.378
63013W        W29422  35.637  34.529  11.882
63014W        W29423   4.328   9.092   2.339
63015W        W29424   7.658  35.946   3.543
63016W        W29425   9.725  18.548  11.672
63017W        W29426  29.012  22.497   1.885
63018W        W29427  32.577   2.206   3.771
63019W        W29428   5.808  37.425  14.324
63020W        W29429  38.858  36.766  13.281
63021W        W29430  29.568  12.336   3.789
63022W        W29431   1.288  20.010  12.556
63023W        W29432  33.174  13.180   0.306
63024W        W29433  27.553  17.507  10.672
63025W        W29434   3.512  19.293  14.939
63026W        W29435  43.247  43.275   2.306
63027W        W29436  32.641  17.125   2.424
63028W        W29437  12.164  40.939   1.432
63029W        W29438  32.818  30.673  11.182
63030W        W29439   6.696  32.003  11.540
63031W        W29440   1.713   2.247  12.064
63032W        W29441  33.625  18.570   4.176
63033W        W29442  17.173  28.555   9.917
63034W        W29443  12.825  16.362   3.723
63035W        W29444  10.197  16.117  11.562
63036W        W29445  43.249  16.716  12.552
63037W        W29446  18.859  37.127  13.075
63038W        W29447  25.566  37.988  12.575
63039W        W29448  13.681  14.931  12.286
63040W        W29449  34.073  12.275  10.428
63041W        W29450  24.116  13.175   2.860
63042W        W29451  20.395  14.313   4.491
63043W        W29452   5.791  28.093  14.244
63044W        W29453  25.923  26.027  14.435
63045W        W29454  26.940  11.635   4.105
63046W        W29455  10.539   2.473  13.298
63047W        W29456  24.020  20.364   2.162
63048W        W29457  44.319  20.513   4.721
63049W        W29458  36.510  24.409  11.111
63050W        W29459  17.301   2.813   2.419
63051W        W29460   5.035  14.171   1.297
63052W        W29461  29.324  19.486  10.711
63053W        W29462  37.633  32.789   2.535
63054W        W29463  12.642  39.485   4.592
63055W        W29464  13.160   9.155  13.065
63056W        W29465  22.292  12.247  13.523
63057W        W29466  24.987   4.352  14.527
63058W        W29467  44.487  44.861  14.887
63059W        W29468  24.777  14.083   1.301
63060W        W29469  13.864   3.988   2.136
63061W        W29470  23.718  40.050   4.062
63062W        W29471  34.552  29.703   4.124
63063W        W29472  29.064   0.520   2.898
63064W        W29473  18.662  28.572  11.939
63065W        W29474   6.169  11.935  12.982
63066W        W29475  34.659  17.822   1.433
63067W        W29476  12.608   9.557   1.205
63068W        W29477   3.694  12.385   1.811
63069W        W29478   1.510  21.540   2.808
63070W        W29479  36.820  22.600  14.539
63071W        W29480   8.970  25.761   3.217
63072W        W29481  21.537  38.796   1.850
63073W        W29482  33.540  11.786  12.406
63074W        W29483  39.074  36.047  10.070
63075W        W29484  28.184  39.413   2.195
63076W        W29485  27.933   7.797   4.460
63077W        W29486  12.699  35.916   4.562
63078W        W29487  18.805  25.525  11.978
63079W        W29488  14.163   0.404   4.648
63080W        W29489  23.144  29.257   0.400
63081W        W29490  28.673  39.751   3.150
63082W        W29491  18.827  38.138  13.879
63083W        W29492  21.818   2.537  13.145
63084W        W29493  37.490  34.462   1.882
63085W        W29494  29.849  38.558   2.986
63086W        W29495   2.910   3.820  13.875
63087W        W29496  25.719  22.170   1.671
63088W        W29497   4.392  22.417   3.759
63089W        W29498  10.288   4.232   1.309
63090W        W29499  44.517  35.282   4.953
63091W        W29500  14.244  42.593  14.861
63092W        W29501   0.357  41.260  10.625
63093W        W29502  44.747  39.801  11.198
63094W        W29503  37.581  30.595  10.721
63095W        W29504   2.378   1.680  12.280
63096W        W29505  27.666   6.810   9.745
63097W        W29506  43.927  11.624   0.497
63098W        W29507  23.824  28.544   1.165
63099W        W29508  41.554  22.651   3.692
63100W        W29509  10.933   7.277   3.567
63101W        W29510  37.709   5.724  13.566
63102W        W29511  32.008  32.988   0.713
63103W        W29512  21.364  14.789  13.839
63104W        W29513  14.769  38.876  12.339
63105W        W29514   0.483  17.816  13.533
63106W        W29515  16.541  21.243  12.023
63107W        W29516   6.495  22.002  13.566
63108W        W29517  20.821  15.071   0.408
63109W        W29518   4.333  23.666   3.592
63110W        W29519  32.750   1.039  11.235
63111W        W29520   7.861  23.299   0.008
63112W        W29521  36.434   2.319  11.089
63113W        W29522  10.366  26.231   2.871
63114W        W29523   8.835  35.460   2.068
63115W        W29524   4.764  24.550   3.304
63116W        W29525  31.005  43.089  14.851
63117W        W29526  16.192   8.891  14.946
63118W        W29527  32.048  21.735   3.069
63119W        W29528  14.112  13.715  14.443
63120W        W29529   6.262  25.512   2.434
63121W        W29530  16.584  42.813   3.029
63122W        W29531  25.655  16.626  13.889
63123W        W29532  38.936  13.770  11.137
63124W        W29533  33.779  44.813  11.504
63125W        W29534  43.225   3.835  13.080
63126W        W29535  27.586  44.073  12.654
63127W        W29536  11.647  31.969  12.566
63128W        W29537   7.520  35.371   4.525
63129W        W29538   8.262  18.370  14.899
63130W        W29539  12.832  34.631  11.086
63131W        W29540   1.491  17.522  14.383
63132W        W29541  13.068   9.619  12.921
63133W        W29542  44.495  15.838   4.784
63134W        W29543  32.437   7.902  13.331
63135W        W29544  37.127   1.470   2.694
63136W        W29545  44.278  24.597  11.102
63137W        W29546  16.724  13.662  11.446
63138W        W29547  38.689  19.278   2.345
63139W        W29548  42.585   1.362  13.419
63140W        W29549  13.261  27.301   3.109
63141W        W29550  16.171   9.560  13.899
63142W        W29551  11.130  13.388   4.339
63143W        W29552   9.903  29.993  14.809
63144W        W29553  34.069  42.681   4.152
63145W        W29554  36.667  20.075  13.227
63146W        W29555  20.535   7.248   4.451
63147W        W29556  24.060  29.957  14.756
63148W        W29557  41.263  33.904  14.383
63149W        W29558  42.809  35.433   0.980
63150W        W29559  18.329  18.773  13.497
63151W        W29560  44.324  40.739   3.671
63152W        W29561  41.499  36.832  11.360
63153W        W29562   9.029   8.301  10.736
63154W        W29563  11.722   0.708   2.278
63155W        W29564  26.465  11.207  14.931
63156W        W29565   8.339  44.991   1.056
63157W        W29566  29.657  39.831  12.435
63158W        W29567   7.835  35.882  13.861
63159W        W29568  17.290  18.083   0.949
63160W        W29569  16.288   0.722   4.638
63161W        W29570  14.885  24.112  12.975
63162W        W29571   2.981   5.471  13.518
63163W        W29572  28.186  32.960  12.928
63164W        W29573  10.637  10.764   3.732
63165W        W29574  16.040  30.580   1.742
63166W        W29575  11.864  20.529   2.780
63167W        W29576  18.251  21.642   2.138
63168W        W29577  11.218  28.409   2.020
63169W        W29578   1.266  44.684   0.308
63170W        W29579  16.268  37.305  13.541
63171W        W29580  12.730  32.457   4.963
63172W        W29581   0.896  20.626   1.202
63173W        W29582  13.180  20.616   1.992
63174W        W29583   0.910  39.364  13.914
63175W        W29584  11.110  27.857   4.164
63176W        W29585  15.841  15.820   4.569
63177W        W29586  28.061  21.080   4.621
63178W        W29587  29.676   6.585  14.780
63179W        W29588  12.071  25.347   0.599
63180W        W29589  20.660   5.777   0.765
63181W        W29590  23.207  35.998  14.434
63182W        W29591   4.433  31.920   2.403
63183W        W29592  36.100  17.005   2.526
63184W        W29593  44.843  22.186  10.705
63185W        W29594  40.382  11.938   1.155
63186W        W29595   0.011  18.881   2.402
63187W        W29596  43.023  40.883  10.666
63188W        W29597  10.178   6.931   4.856
63189W        W29598  17.542  42.436   0.770
63190W        W29599   9.724  17.542   4.667
63191W        W29600  26.996  15.259  11.621
63192W        W29601  25.767  34.849  13.908
63193W        W29602   3.237  39.102  13.291
63194W        W29603   6.153  15.343   2.866
63195W        W29604  30.765  34.158   1.471
63196W        W29605   8.366  28.879  13.562
63197W        W29606  42.851  10.384  12.621
63198W        W29607  41.322  24.422  13.741
63199W        W29608  31.786  21.975  10.840
63200W        W29609  20.044   4.420  12.566
63201W        W29610  21.470  18.946   0.516
63202W        W29611  10.929  42.882   1.662
63203W        W29612   3.532   1.315  13.933
63204W        W29613  25.450  42.876   0.386
63205W        W29614  19.732  40.110   1.017
63206W        W29615  13.558  21.760  13.592
63207W        W29616  42.569  18.859   0.638
63208W        W29617  19.730   6.240   2.249
63209W        W29618  43.286  17.257   0.928
63210W        W29619  16.305  26.338  12.325
63211W        W29620  44.892  29.962   1.834
63212W        W29621  35.140   6.453   4.973
63213W        W29622  31.058  11.415   3.962
63214W        W29623   4.868  18.357   2.088
63215W        W29624   2.328  37.209   3.360
63216W        W29625  35.337  29.617   2.687
63217W        W29626  34.685  43.062   2.782
63218W        W29627  28.397  23.807  14.816
63219W        W29628  41.074   9.863   2.284
63220W        W29629  22.252  23.482   4.621
63221W        W29630   9.481  33.500  11.986
63222W        W29631  35.861  39.355  13.939
63223W        W29632  23.246  24.235   0.456
63224W        W29633  38.805   8.360   1.855
63225W        W29634  18.519  25.994  13.414
63226W        W29635   5.202  44.034  14.062
63227W        W29636  32.652   3.499  11.191
63228W        W29637  37.275  16.233  11.117
63229W        W29638  27.125  40.463   0.387
63230W        W29639  18.276  21.085  12.059
63231W        W29640  36.976  36.672   3.408
63232W        W29641   0.367  19.271   3.843
63233W        W29642  17.605  44.684  14.921
63234W        W29643  42.805  20.292   2.892
63235W        W29644   7.874  25.664  13.145
63236W        W29645   4.480  29.272   2.281
63237W        W29646  11.605  18.647   0.244
63238W        W29647  16.799  21.998  13.927
63239W        W29648  31.719  20.744  14.241
63240W        W29649  12.181  30.662  13.340
63241W        W29650  12.782   5.300   4.752
63242W        W29651   9.781  44.152   4.213
63243W        W29652  11.287   4.166  12.102
63244W        W29653   3.676  26.738   1.273
63245W        W29654  13.634  41.476   3.787
63246W        W29655   1.724   7.611   4.185
63247W        W29656  42.858  30.640  12.581
63248W        W29657  26.099  13.294  10.708
63249W        W29658  29.663  30.487  13.450
63250W        W29659   7.572  31.830   3.560
63251W        W29660   6.448  18.275  12.007
63252W        W29661  24.629  43.457   4.187
63253W        W29662  15.344  34.900   1.701
63254W        W29663  24.175  20.767  13.898
63255W        W29664  39.619  25.661   1.794
63256W        W29665  27.856  34.282  14.292
63257W        W29666  40.882  41.459  13.942
63258W        W29667   1.558   2.189  12.852
63259W        W29668  41.072  23.473   0.878
63260W        W29669  42.527  34.954  13.564
63261W        W29670  24.654  12.091   4.527
63262W        W29671  24.191   9.686   2.792
63263W        W29672  19.090  16.565   3.108
63264W        W29673  19.740   5.919  11.285
63265W        W29674  14.920  44.980   4.831
63266W        W29675  32.521  34.365  13.422
63267W        W29676  15.157  13.461   3.219
63268W        W29677   8.837  25.163   0.289
63269W        W29678  14.395  25.526  14.392
63270W        W29679  13.656  15.109   0.458
63271W        W29680  12.861   3.445   0.353
63272W        W29681  11.047  43.238  14.955
63273W        W29682  36.665  22.434  11.042
63274W        W29683  15.768   4.561   0.324
63275W        W29684  13.081  23.317  13.488
63276W        W29685  28.126   1.239   5.061
63277W        W29686  33.392  28.324  14.977
63278W        W29687  32.451  44.961   2.595
63279W        W29688   2.965  35.894   0.437
63280W        W29689  28.241  10.956  10.598
63281W        W29690   3.944   3.147  13.062
63282W        W29691  20.585  23.923  11.006
63283W        W29692  11.755  20.558   3.275
63284W        W29693  15.816   4.643   2.766
63285W        W29694   8.804  14.532   3.700
63286W        W29695  28.917  14.717  13.974
63287W        W29696  29.758   5.482   1.329
63288W        W29697   7.235  11.892   3.843
63289W        W29698   8.759  39.585  11.099
63290W        W29699  31.440   5.411  14.588
63291W        W29700  36.529  30.477   0.856
63292W        W29701  39.091  39.459   0.158
63293W        W29702  38.539  37.994  12.169
63294W        W29703  23.742  29.638  12.481
63295W        W29704  10.571  19.266   2.604
63296W        W29705  12.621  20.133  10.264
63297W        W29706  38.477  12.422   3.345
63298W        W29707   9.560  41.236   2.138
63299W        W29708  11.752   5.302  10.595
63300W        W29709  32.670  20.072  10.547
63301W        W29710  41.902  14.160   2.120
63302W        W29711  41.422   7.126   1.772
63303W        W29712  19.156   2.780   1.515
63304W        W29713  42.210  40.189  13.245
63305W        W29714  14.239  41.782   2.376
63306W        W29715  16.358  25.389   3.190
63307W        W29716  36.987  31.629   1.577
63308W        W29717  44.552  31.983  10.534
63309W        W29718  15.618  42.461  14.911
63310W        W29719  35.825  29.098  14.357
63311W        W29720  21.681  43.086  11.196
63312W        W29721  39.560  25.205   4.114
63313W        W29722  36.917  37.376   4.194
63314W        W29723  44.087  15.150  13.873
63315W        W29724  27.930  31.614  14.343
63316W        W29725  42.415  36.406  12.344
63317W        W29726  41.321  27.500  13.574
63318W        W29727  29.145  36.895  12.478
63319W        W29728   8.874  40.769  10.581
63320W        W29729   0.557   1.057  14.257
63321W        W29730  15.148  31.634  12.988
63322W        W29731  20.754  33.116   0.880
63323W        W29732  28.241  38.758  13.368
63324W        W29733  36.312  25.425  13.540
63325W        W29734  43.501  33.724   0.379
63326W        W29735  22.505  43.414   1.398
63327W        W29736  33.976  35.066  14.247
63328W        W29737  14.209   1.764   4.990
63329W        W29738  31.197  23.853   5.506
63330W        W29739  16.624  26.209  14.524
63331W        W29740   7.726  30.882   0.910
63332W        W29741  12.758  28.277  12.035
63333W        W29742  41.505   9.942   0.255
63334W        W29743  41.940  19.949   1.415
63335W        W29744  21.244  11.611  12.659
63336W        W29745  26.602  12.214   3.369
63337W        W29746   0.270  19.122   2.822
63338W        W29747  41.941  29.560   4.758
63339W        W29748  16.605  10.259   1.921
63340W        W29749  21.982   1.409   0.015
63341W        W29750  40.530  30.671  12.631
63342W        W29751  33.571  16.887   0.064
63343W        W29752  34.315  13.749  11.889
63344W        W29753  35.049  24.221  12.579
63345W        W29754  31.907  43.698   0.911
63346W        W29755  34.839  28.192   4.596
63347W        W29756  36.983  18.037   2.333
63348W        W29757  22.378  44.893   4.433
63349W        W29758  43.743  40.916  11.186
63350W        W29759  27.997  19.072   2.921
63351W        W29760   1.444  31.363  12.974
63352W        W29761   5.436  40.258   4.324
63353W        W29762  10.042  24.096  11.364
63354W        W29763  18.589  43.512   1.696
63355W        W29764  27.644   3.748  10.397
63356W        W29765  39.841  11.192  10.280
63357W        W29766  10.834   0.548  13.256
63358W        W29767  18.796  31.448  12.515
63359W        W29768  32.012  39.906  14.436
63360W        W29769   9.388  33.513  13.007
63361W        W29770  13.814  33.162  11.083
63362W        W29771   7.435  12.606   0.798
63363W        W29772  17.588  27.437   0.370
63364W        W29773  32.407  13.932  13.696
63365W        W29774  35.871  42.159   3.336
63366W        W29775  23.906  15.536  13.498
63367W        W29776  19.944  17.056   3.116
63368W        W29777  25.517   5.415   1.773
63369W        W29778  10.957  30.999  11.601
63370W        W29779  13.097  18.279   4.195
63371W        W29780  10.561   8.246   3.669
63372W        W29781  11.905  30.815  10.779
63373W        W29782   9.371  20.197   1.481
63374W        W29783  35.021  38.118  13.840
63375W        W29784  31.499  13.426  14.357
63376W        W29785   0.015   3.346  12.068
63377W        W29786   7.386  11.690  10.691
63378W        W29787   3.243  32.607   4.603
63379W        W29788   4.792  18.743  13.031
63380W        W29789  32.167   3.425  12.035
63381W        W29790  15.361  37.617   3.980
63382W        W29791  37.145  21.645   3.149
63383W        W29792  35.673   4.165  13.530
63384W        W29793  11.240  24.949  13.644
63385W        W29794  36.462  19.210   3.652
63386W        W29795  44.221  12.429  13.091
63387W        W29796   2.493  23.023  14.106
63388W        W29797  15.283  25.132   0.978
63389W        W29798  28.726  19.738  12.376
63390W        W29799  38.101  27.763   1.602
63391W        W29800  30.555  20.510  11.064
63392W        W29801  26.423  10.315   1.460
63393W        W29802  28.152   1.581  14.558
63394W        W29803  12.629  15.745  12.517
63395W        W29804  40.513  26.588   2.376
63396W        W29805  24.145   6.233   2.331
63397W        W29806  29.489   6.293   4.153
63398W        W29807   2.275  44.774   1.913
63399W        W29808  40.585  22.503   0.089
63400W        W29809  17.713  15.655   3.571
63401W        W29810   8.937  18.245  13.551
63402W        W29811  27.568  23.095   0.282
63403W        W29812  35.205  11.660   4.409
63404W        W29813  42.580   8.845  11.949
63405W        W29814   0.256  25.221   3.250
63406W        W29815  16.110   5.303  14.118
63407W        W29816  43.678  28.608   0.375
63408W        W29817  44.691  12.337   1.702
63409W        W29818   2.842  32.381   2.335
63410W        W29819  41.496   1.250   1.710
63411W        W29820  11.310  32.599   3.334
63412W        W29821  16.603  31.737   3.656
63413W        W29822   8.342  33.861  14.331
63414W        W29823  10.773  37.323   2.305
63415W        W29824  41.061   9.278   0.165
63416W        W29825  13.324  11.750   3.276
63417W        W29826  18.560  21.142  11.464
63418W        W29827   0.729  36.410  10.727
63419W        W29828  19.176   2.268  12.631
63420W        W29829   2.842  30.681  10.745
63421W        W29830  14.703  16.852  10.999
63422W        W29831  25.615   1.453  13.466
63423W        W29832  12.219  36.676   1.228
63424W        W29833  16.312  15.789  12.554
63425W        W29834  41.496   0.036  12.111
63426W        W29835  19.881   7.915  14.905
63427W        W29836  10.254  15.859   9.987
63428W        W29837  29.256  32.427  12.498
63429W        W29838  25.224  21.846  13.001
63430W        W29839   4.372  15.109  12.815
63431W        W29840   2.306  13.351  13.423
63432W        W29841   3.945  43.412  11.674
63433W        W29842  39.275  21.253   1.905
63434W        W29843  15.181   8.777   1.746
63435W        W29844  35.509  25.940  11.382
63436W        W29845  31.675  13.719   3.153
63437W        W29846  10.055  29.695   2.034
63438W        W29847  18.659   1.357   0.097
63439W        W29848  36.191  36.068  12.055
63440W        W29849  37.722   7.843  13.463
63441W        W29850  34.784  33.889  13.166
63442W        W29851  36.300   0.383   1.451
63443W        W29852  12.822  27.543   1.275
63444W        W29853  18.572  34.627  13.409
63445W        W29854   4.859  27.406   0.121
63446W        W29855  10.776   0.743   1.358
63447W        W29856  31.555  40.754   2.653
63448W        W29857  37.860  22.800  12.910
63449W        W29858   8.804  34.560  14.237
63450W        W29859  40.891  12.339   1.829
63451W        W29860   3.696  39.197   0.251
63452W        W29861   1.894  27.415  13.300
63453W        W29862  32.101  31.806  13.849
63454W        W29863  37.072   0.405   4.948
63455W        W29864  37.391  33.829   1.044
63456W        W29865  18.261  34.061  13.011
63457W        W29866  34.517  19.570   3.188
63458W        W29867  30.447  23.183   2.810
63459W        W29868  44.450  29.112  13.096
63460W        W29869  17.535  11.871   4.584
63461W        W29870  39.567  41.958   0.028
63462W        W29871  44.947  11.835  13.454
63463W        W29872  29.266  22.488  13.112
63464W        W29873  32.012  37.820  13.880
63465W        W29874  43.217  37.411  14.392
63466W        W29875   6.153   8.343  10.909
63467W        W29876  39.871  23.172  13.410
63468W        W29877  20.252   3.661  13.533
63469W        W29878  38.375  23.387  13.357
63470W        W29879  15.118  13.263   0.161
63471W        W29880  33.503  19.789  12.868
63472W        W29881  26.635  35.606  12.112
63473W        W29882  13.214  15.242   0.724
63474W        W29883  40.890  19.541  10.778
63475W        W29884  15.618  44.425   0.421
63476W        W29885  44.468  40.989  14.724
63477W        W29886   5.053  24.510   0.233
63478W        W29887  24.002  44.291   0.195
63479W        W29888  20.706  37.600   2.199
63480W        W29889  30.237   7.350  13.734
63481W        W29890   3.880  12.861   3.359
63482W        W29891  19.348  41.660   3.674
63483W        W29892  41.917  17.269  12.402
63484W        W29893  17.302  19.135  13.931
63485W        W29894  33.557   6.752   0.331
63486W        W29895  24.812   3.104   4.554
63487W        W29896  18.068  43.006  10.428
63488W        W29897  21.957  15.853   4.280
63489W        W29898  36.760  22.146   3.833
63490W        W29899  31.925  41.478  11.174
63491W        W29900   9.253  12.665   2.936
63492W        W29901   2.791   9.439   0.944
63493W        W29902  13.869  30.039  10.623
63494W        W29903  34.675  37.016  12.466
63495W        W29904  13.612  14.492  11.238
63496W        W29905  31.660  27.987   2.362
63497W        W29906  32.774  32.003   5.508
63498W        W29907  13.269  42.570   0.921
63499W        W29908  17.877  37.840   3.406
63500W        W29909  21.004  14.246  12.826
63501W        W29910  25.191  44.821  13.969
63502W        W29911  34.080  32.089   3.682
63503W        W29912  15.748   9.140  14.883
63504W        W29913  12.337  42.752  11.775
63505W        W29914   5.777  22.008  13.056
63506W        W29915  23.727  28.635  14.368
63507W        W29916  10.593   9.574  14.284
63508W        W29917   1.923  33.401  13.526
63509W        W29918  44.963   0.500  11.673
63510W        W29919  23.578  29.505  11.657
63511W        W29920  31.664   6.704  14.033
63512W        W29921   0.187  37.553   0.958
63513W        W29922   2.351  33.271  11.195
63514W        W29923  18.640  37.303  14.883
63515W        W29924  22.957  40.635   2.416
63516W        W29925  33.001  22.166  12.761
63517W        W29926  13.701  43.998  13.884
63518W        W29927  40.657  25.931   3.086
63519W        W29928  40.812  40.715   4.588
63520W        W29929  15.683  33.115   4.111
63521W        W29930  32.385  41.498   1.231
63522W        W29931  36.369   2.220   1.328
63523W        W29932  44.842  21.519  12.072
63524W        W29933  30.363  35.385  14.307
63525W        W29934   7.268  31.036   1.843
63526W        W29935  13.245  38.753   0.051
63527W        W29936  40.338  29.102   2.722
63528W        W29937   3.782   5.455  12.604
63529W        W29938  13.795  33.427  12.877
63530W        W29939  20.288  31.914  11.642
63531W        W29940  26.670   2.342   3.795
63532W        W29941  14.855  28.983  11.613
63533W        W29942   5.687  13.756   1.401
63534W        W29943   4.722  14.526   1.049
63535W        W29944  37.930  43.501   0.984
63536W        W29945  14.459  22.950   3.273
63537W        W29946  14.217  21.279   2.744
63538W        W29947  12.297  44.431   1.160
63539W        W29948   9.143  20.227   3.282
63540W        W29949  27.703   0.935  11.167
63541W        W29950  41.530   6.300   2.376
63542W        W29951  21.258  29.976   1.840
63543W        W29952  29.334   1.423   4.192
63544W        W29953  36.704   5.738  14.964
63545W        W29954  11.781  10.100   1.406
63546W        W29955   8.707   4.730   1.429
63547W        W29956   0.466  20.012  14.580
63548W        W29957   7.283  28.894  12.275
63549W        W29958  29.220  27.474  12.445
63550W        W29959  41.341  33.369  14.882
63551W        W29960  17.384   8.585  12.559
63552W        W29961   3.702  42.968   3.755
63553W        W29962   3.241  43.611   0.227
63554W        W29963   0.616  11.168   2.355
63555W        W29964  16.957  22.860  10.317
63556W        W29965  12.195  36.426  12.925
63557W        W29966  36.013  36.519   1.167
63558W        W29967  16.882  28.767   1.306
63559W        W29968  20.804  37.890  11.454
63560W        W29969  35.562  19.160  13.744
63561W        W29970  33.483  39.032  11.541
63562W        W29971  31.979  19.627  12.784
63563W        W29972  35.109  16.676  11.106
63564W        W29973  33.889  37.317  10.779
63565W        W29974  42.908  15.160  12.114
63566W        W29975  31.845  31.930   1.866
63567W        W29976   8.810  28.941  11.075
63568W        W29977  20.911  41.607  14.796
63569W        W29978  39.498  28.049   1.025
63570W        W29979  42.270  35.445   4.660
63571W        W29980  40.689  42.314  13.795
63572W        W29981  43.917  34.218   2.829
63573W        W29982  41.349  33.614  11.122
63574W        W29983  38.360   8.600  12.527
63575W        W29984  13.929  20.669  14.507
63576W        W29985   1.885  16.811   0.206
63577W        W29986  35.237  40.031   0.356
63578W        W29987   4.273   8.187  10.954
63579W        W29988   1.961   7.755   1.234
63580W        W29989  13.628  17.691  10.648
63581W        W29990  30.233  39.476  14.399
63582W        W29991  35.460  41.968  13.447
63583W        W29992   2.394  33.630  12.532
63584W        W29993   1.969   4.367   2.558
63585W        W29994  10.873  17.227   4.497
63586W        W29995  14.074  40.146  14.875
63587W        W29996  36.511  11.105   4.360
63588W        W29997  21.721  41.846  13.293
63589W        W29998   9.312  42.828  10.134
63590W        W29999  35.454  35.133  12.431
63591W        W30000  33.998  38.407   0.758
63592W        W30001   7.796  30.380   0.956
63593W        W30002  22.379  18.745  13.615
63594W        W30003  17.855   9.782  13.080
63595W        W30004   8.512  23.856   3.878
63596W        W30005   8.314  28.856  12.625
63597W        W30006   3.986  14.150  13.063
63598W        W30007  28.968  29.485   0.007
63599W        W30008  23.451  39.429   2.423
63600W        W30009  13.355  39.842   4.307
63601W        W30010  17.701  26.606  12.368
63602W        W30011  28.651  23.769  14.346
63603W        W30012  42.986  23.134  10.722
63604W        W30013  28.610  23.168   2.814
63605W        W30014  12.324  26.988  14.220
63606W        W30015   3.737  20.259   4.314
63607W        W30016  42.055   4.385   4.113
63608W        W30017   3.996  14.992   3.467
63609W        W30018  31.053  40.204  12.588
63610W        W30019  11.596  23.470  14.499
63611W        W30020  26.451  11.380  13.930
63612W        W30021   2.043  13.201   0.858
63613W        W30022  33.043   3.577   0.340
63614W        W30023   4.289   2.060   0.278
63615W        W30024   6.488  44.342   1.872
63616W        W30025  41.647  36.280  10.310
63617W        W30026  40.294  26.058   3.420
63618W        W30027   4.492  31.782   3.746
63619W        W30028  33.030  10.276   4.537
63620W        W30029  40.339  22.916  13.447
63621W        W30030  42.912  25.720   3.085
63622W        W30031  38.460  13.303  14.897
63623W        W30032  28.185  35.709  13.587
63624W        W30033  27.463  16.422  10.668
63625W        W30034  23.180   3.825  14.340
63626W        W30035  35.797  15.132  11.693
63627W        W30036  33.166  36.561  10.942
63628W        W30037  18.092  15.278  13.404
63629W        W30038   5.751  21.031  12.038
63630W        W30039  37.519  17.116   0.541
63631W        W30040  31.447  37.351  12.386
63632W        W30041   5.340   7.929  12.992
63633W        W30042  25.713  18.031  11.182
63634W        W30043  15.301  27.307   1.738
63635W        W30044  34.894  20.837  14.271
63636W        W30045  26.455  38.311   4.961
63637W        W30046  37.571  37.196  11.771
63638W        W30047  34.278  36.646   2.006
63639W        W30048  36.422   0.126  13.837
63640W        W30049  23.941   2.195  13.559
63641W        W30050  13.852  34.952  11.247
63642W        W30051   5.284  21.018   3.660
63643W        W30052   4.041   0.273   1.291
63644W        W30053  26.142  20.300  10.607
63645W        W30054  24.642  26.452   2.055
63646W        W30055  38.022  37.584   3.306
63647W        W30056  13.743   9.753   3.618
63648W        W30057  14.189  38.997   3.318
63649W        W30058   8.969  31.864  10.199
63650W        W30059  13.615  37.392   0.126
63651W        W30060  14.294   1.266  14.488
63652W        W30061  44.419  11.123  11.346
63653W        W30062  10.579  20.136   4.966
63654W        W30063  44.075   6.464  11.134
63655W        W30064  39.187  36.532  10.260
63656W        W30065   2.277   6.221   5.045
63657W        W30066  18.503  25.930  11.927
63658W        W30067  15.151  16.196   0.783
63659W        W30068  23.480  12.304   2.263
63660W        W30069  42.070  38.330  11.649
63661W        W30070   4.024  31.994   1.339
63662W        W30071  34.319  22.491  10.784
63663W        W30072  36.720  43.261  10.777
63664W        W30073  31.437   3.956   1.311
63665W        W30074  17.959  31.371   1.352
63666W        W30075  27.073  35.210   3.187
63667W        W30076  35.989  31.977  12.849
63668W        W30077  21.276  41.393  14.329
63669W        W30078  15.518   3.265   2.645
63670W        W30079  35.577  11.305   4.567
63671W        W30080  30.510  38.126  14.505
63672W        W30081  33.573  19.408   4.790
63673W        W30082  31.438  21.210   3.664
63674W        W30083  16.578  23.182   4.117
63675W        W30084  36.796  27.421   1.267
63676W        W30085   2.445  40.091   4.532
63677W        W30086  42.620  40.962  13.892
63678W        W30087  28.830  22.717   0.816
63679W        W30088  17.609  24.604   3.065
63680W        W30089  24.955  11.775  13.208
63681W        W30090  34.837  15.799  14.922
63682W        W30091  30.054   5.475  11.638
63683W        W30092  28.419   5.211  11.130
63684W        W30093   4.832  36.345   2.059
63685W        W30094   2.874   0.790  14.408
63686W        W30095  17.224  34.843  13.687
63687W        W30096  19.509  10.921   2.915
63688W        W30097  37.559  11.064  12.114
63689W        W30098  20.407  41.687  14.921
63690W        W30099   3.319   2.241   1.954
63691W        W30100  39.803  23.517  13.803
63692W        W30101   7.917  42.312  14.790
63693W        W30102  26.528   2.710   2.057
63694W        W30103  41.739  35.532  12.014
63695W        W30104  34.877  42.251  12.475
63696W        W30105  11.182  14.238   5.012
63697W        W30106  13.632  30.133  12.390
63698W        W30107  10.165   3.966   2.759
63699W        W30108  25.673  35.075  11.434
63700W        W30109   1.849  39.646  14.175
63701W        W30110  27.679  41.942  14.368
63702W        W30111  36.462  12.779  11.064
63703W        W30112  38.923  28.045  10.687
63704W        W30113  38.273  35.608  12.437
63705W        W30114  16.683  39.941   2.346
63706W        W30115  31.056   4.892   2.164
63707W        W30116   9.895  44.576  11.978
63708W        W30117   2.891  13.626  14.788
63709W        W30118  41.564  21.101   4.874
63710W        W30119  27.762  33.428  13.789
63711W        W30120  29.023  44.504   2.784
63712W        W30121  44.615  22.679  12.739
63713W        W30122   0.055  11.032   2.336
63714W        W30123  15.919  34.886   2.688
63715W        W30124  34.937  36.216   3.684
63716W        W30125   0.944   9.306   1.323
63717W        W30126   1.601  11.583  10.001
63718W        W30127  31.477  20.084   0.923
63719W        W30128  19.780  26.293   4.179
63720W        W30129  22.764  30.951  11.407
63721W        W30130   2.706   9.392   1.480
63722W        W30131   2.417  14.111  14.087
63723W        W30132  36.570  36.076  11.514
63724W        W30133  10.320   2.807   0.195
63725W        W30134  27.597  20.167  14.342
63726W        W30135  12.352  42.915   5.021
63727W        W30136  11.492  35.059   2.656
63728W        W30137  14.704  21.378   3.668
63729W        W30138  11.802   9.386  13.962
63730W        W30139  20.740  29.567  13.308
63731W        W30140  11.673  12.899  14.512
63732W        W30141  43.166  32.990   0.333
63733W        W30142   8.541  31.418  11.974
63734W        W30143  17.688  44.405   1.436
63735W        W30144   5.899  22.755  13.345
63736W        W30145  33.767   6.038   1.204
63737W        W30146  34.441   1.068   3.620
63738W        W30147  32.646   1.357   4.821
63739W        W30148  15.641   2.693  13.409
63740W        W30149  35.823  25.886  12.161
63741W        W30150  27.103  12.224   3.520
63742W        W30151  30.671   7.721   4.587
63743W        W30152  37.495   4.692   4.161
63744W        W30153  38.760  41.855   1.931
63745W        W30154  10.929  34.910  11.536
63746W        W30155  36.377  24.194  14.898
63747W        W30156   6.605   1.204   2.359
63748W        W30157  10.932   4.945   5.151
63749W        W30158  15.311  26.000   0.566
63750W        W30159  31.479  38.042   0.340
63751W        W30160  43.014  38.007  10.987
63752W        W30161   6.187  27.946  12.574
63753W        W30162  42.528   2.505  14.452
63754W        W30163  38.370  43.198   3.641
63755W        W30164  16.522  28.549   3.181
63756W        W30165  39.552  12.481   3.629
63757W        W30166   3.745  24.094  13.267
63758W        W30167  29.890   0.968  12.968
63759W        W30168   4.042   9.688   4.594
63760W        W30169   6.321  38.097   4.174
63761W        W30170  30.581  38.468  11.622
63762W        W30171  38.152  20.599   3.172
63763W        W30172  14.532  15.667  13.046
63764W        W30173  44.777   7.009   3.674
63765W        W30174  44.689  27.116   0.727
63766W        W30175  12.357  18.940  12.116
63767W        W30176   5.856   8.345  12.336
63768W        W30177  25.150  13.247   4.223
63769W        W30178  39.823  27.896   1.998
63770W        W30179  44.640  12.719  10.544
63771W        W30180  27.487   1.911   1.719
63772W        W30181   4.458  15.229   0.697
63773W        W30182  14.687  36.569  12.813
63774W        W30183  38.451  36.025  14.840
63775W        W30184  30.958  44.854  14.863
63776W        W30185  23.587  18.524  11.528
63777W        W30186  14.035  23.054   0.797
63778W        W30187  34.766  16.223   0.726
63779W        W30188   6.166  19.350  14.983
63780W        W30189   5.913  26.664  12.420
63781W        W30190  38.386  18.875   2.195
63782W        W30191  38.573  28.215  14.452
63783W        W30192  33.861  37.214   5.041
63784W        W30193  17.514  28.470   2.953
63785W        W30194  31.223  35.919  10.219
63786W        W30195  19.789  15.650   4.420
63787W        W30196  27.675  21.518  13.079
63788W        W30197  44.002  42.080   1.501
63789W        W30198  16.554   6.286  11.884
63790W        W30199  27.954   7.118  11.418
63791W        W30200  21.276  42.118   2.972
63792W        W30201  16.342  42.592   2.114
63793W        W30202   4.130  26.581   4.135
63794W        W30203  36.922  38.771   5.141
63795W        W30204  25.641  38.992   4.108
63796W        W30205  23.003  39.123   3.765
63797W        W30206  42.646  43.075   3.723
63798W        W30207  19.663  33.471   1.045
63799W        W30208  34.179  11.695   2.737
63800W        W30209  36.356  11.367  10.730
63801W        W30210  11.408  32.054  12.031
63802W        W30211  14.612  31.398  13.941
63803W        W30212  27.678   7.850  12.056
63804W        W30213  15.165  25.810   1.878
63805W        W30214  42.645   1.857  14.936
63806W        W30215  34.997  19.591  13.167
63807W        W30216  23.404  29.508  12.953
63808W        W30217  33.414  27.039  12.821
63809W        W30218  33.869  44.547   0.920
63810W        W30219   4.180  27.905   4.024
63811W        W30220  11.638  38.530   0.993
63812W        W30221  43.737   4.446  14.936
63813W        W30222  34.608   6.234   4.043
63814W        W30223  31.909  23.806   3.164
63815W        W30224  31.504  30.620  14.097
63816W        W30225  20.400  10.624   0.491
63817W        W30226  42.837  27.015  10.799
63818W        W30227  10.379  30.453  13.562
63819W        W30228   7.159  36.006   3.693
63820W        W30229  42.040  29.010   3.165
63821W        W30230  15.865  44.733   4.341
63822W        W30231  10.275  12.477   2.756
63823W        W30232  30.603  26.752   3.740
63824W        W30233  20.255   7.395  11.219
63825W        W30234  12.591  21.755   2.814
63826W        W30235  15.489  12.982   2.687
63827W        W30236  37.178  10.618   2.038
63828W        W30237  14.794  26.191  13.910
63829W        W30238  28.027  33.185   2.629
63830W        W30239  43.042  39.863   0.906
63831W        W30240  33.338   4.916   4.216
63832W        W30241  13.417  12.396  14.973
63833W        W30242  21.979  41.609  11.173
63834W        W30243  32.872  38.086  12.191
63835W        W30244  30.052   8.071   3.128
63836W        W30245  37.966  10.339  11.625
63837W        W30246  27.898   1.810   2.705
63838W        W30247  23.145  20.409   1.822
63839W        W30248  37.904  29.004   4.692
63840W        W30249  17.668   2.295   0.856
63841W        W30250  23.164  22.187   5.296
63842W        W30251   3.591   2.214   2.405
63843W        W30252   4.932   4.127   3.692
63844W        W30253  30.595  33.697   4.936
63845W        W30254  12.285  11.912   1.989
63846W        W30255  33.018  11.307   4.573
63847W        W30256  19.156  30.830   4.620
63848W        W30257   4.679  12.297   3.901
63849W        W30258   2.057  34.055   4.196
63850W        W30259   1.843  19.590   1.197
63851W        W30260  44.776   3.426  11.589
63852W        W30261   7.245  28.424   1.173
63853W        W30262  11.930   6.837   3.657
63854W        W30263  24.112  37.136  11.528
63855W        W30264   4.460  15.313  11.345
63856W        W30265  37.816  26.520   0.120
63857W        W30266  32.878  36.990   3.736
63858W        W30267  14.530  27.080  11.546
63859W        W30268   6.139  39.050  13.394
63860W        W30269  10.349  26.218  14.959
63861W        W30270  38.580  15.119  11.062
63862W        W30271  27.997  12.389  13.490
63863W        W30272  43.502  29.478   0.366
63864W        W30273  20.340  22.589  11.539
63865W        W30274   0.917  38.449  10.975
63866W        W30275  19.899  25.560   1.494
63867W        W30276  41.967  18.955  13.346
63868W        W30277  21.095  24.803  10.221
63869W        W30278   2.847  39.726  12.941
63870W        W30279   3.417  27.432  14.787
63871W        W30280  39.418  39.155   4.590
63872W        W30281   6.482  29.498  14.429
63873W        W30282  31.029  20.811  10.485
63874W        W30283  43.886  29.091  14.398
63875W        W30284  24.723   1.493   2.028
63876W        W30285   7.919  17.528  14.790
63877W        W30286  40.659  24.497  14.903
63878W        W30287  34.986  15.525   0.362
63879W        W30288   0.750  28.778   0.376
63880W        W30289  43.409  30.138   4.754
63881W        W30290  11.441  41.500  14.054
63882W        W30291  16.296  34.215   3.748
63883W        W30292  36.806  37.350  14.287
63884W        W30293  27.227  27.480  14.285
63885W        W30294  15.488  29.337   0.021
63886W        W30295  13.832   7.954   3.079
63887W        W30296  23.593  43.520  14.215
63888W        W30297  22.475  11.188   0.562
63889W        W30298  16.775   2.791   0.926
63890W        W30299  40.447   0.756  14.087
63891W        W30300  18.639  35.664  11.704
63892W        W30301   2.836   1.425  10.932
63893W        W30302  21.991  27.617  13.981
63894W        W30303  19.605   7.256   0.820
63895W        W30304  37.518  30.475   4.887
63896W        W30305   5.714  28.979   3.412
63897W        W30306  36.664  41.002   3.939
63898W        W30307  12.291  44.539   2.725
63899W        W30308  34.785  29.018   2.046
63900W        W30309  17.367  19.788  13.314
63901W        W30310  28.016  29.135  11.353
63902W        W30311  41.409  36.641  13.930
63903W        W30312  30.335  25.639  13.080
63904W        W30313  14.277  29.910  14.951
63905W        W30314  44.299   8.223   3.277
63906W        W30315  19.894  39.060   4.124
63907W        W30316  12.325  37.704  13.077
63908W        W30317   1.939  34.563   4.030
63909W        W30318   3.342  17.071   1.333
63910W        W30319   4.925  22.552  10.545
63911W        W30320  32.471  37.403  14.632
63912W        W30321   6.163   0.375   2.764
63913W        W30322  33.039  10.395  12.063
63914W        W30323   8.202  21.803   0.452
63915W        W30324  34.936   2.791   1.333
63916W        W30325  21.193  25.827  12.919
63917W        W30326   5.250   1.671  12.788
63918W        W30327  41.412  29.125   1.743
63919W        W30328   0.675  23.418   2.608
63920W        W30329  13.180  12.147   0.378
63921W        W30330  41.529  31.134   4.083
63922W        W30331   2.227   6.704  10.632
63923W        W30332   2.007  11.323  11.192
63924W        W30333  24.622  37.144  10.418
63925W        W30334   6.877   8.714  14.116
63926W        W30335  13.646  28.092  14.896
63927W        W30336  33.972  22.042  14.379
63928W        W30337  35.372  32.014  14.984
63929W        W30338  41.577  27.410   0.793
63930W        W30339  23.609  22.719   0.856
63931W        W30340  36.685  36.995   1.858
63932W        W30341  37.887  12.472  14.905
63933W        W30342  10.616  40.817  14.903
63934W        W30343   9.328  26.556   3.587
63935W        W30344  38.974  19.947   1.401
63936W        W30345  44.370  29.617   4.587
63937W        W30346  41.483  17.519   1.321
63938W        W30347  42.886   6.153  11.624
63939W        W30348  16.680  44.351  12.168
63940W        W30349  37.068  11.287  12.495
63941W        W30350   0.415  25.943   3.707
63942W        W30351  19.609   3.617  10.484
63943W        W30352  41.542   4.369   4.126
63944W        W30353  37.948  40.122   0.491
63945W        W30354  28.456  16.741   1.830
63946W        W30355  36.115  10.869   0.966
63947W        W30356  42.160   9.358  14.337
63948W        W30357  20.719  18.291  13.959
63949W        W30358   0.929  28.339  10.742
63950W        W30359  14.280  43.692   2.624
63951W        W30360  17.578  30.148   2.644
63952W        W30361   1.477  22.305   1.233
63953W        W30362   9.135  33.562   2.558
63954W        W30363   6.648   8.101  14.688
63955W        W30364  30.094  19.908   4.315
63956W        W30365  42.260  39.377   0.890
63957W        W30366  41.430   6.697   2.035
63958W        W30367  41.821  18.664  10.783
63959W        W30368  20.262  23.478  11.636
63960W        W30369   0.204  15.920   0.715
63961W        W30370   7.627  16.303   2.861
63962W        W30371  35.649   3.366  12.948
63963W        W30372  32.506  15.248  14.932
63964W        W30373  43.929  16.604   1.961
63965W        W30374  14.303  31.177  11.018
63966W        W30375  44.442  34.668   1.694
63967W        W30376  13.833  44.245   1.726
63968W        W30377  15.301  10.414  11.324
63969W        W30378  29.941  21.085   3.658
63970W        W30379  29.920  22.091  11.235
63971W        W30380  14.661   4.092   1.880
63972W        W30381  29.152  23.001   3.159
63973W        W30382  20.489   7.242  10.768
63974W        W30383   5.159  40.789  12.361
63975W        W30384  29.511   2.170   1.860
63976W        W30385  12.690  40.932   1.267
63977W        W30386  11.020  12.952   1.787
63978W        W30387  33.093  19.545   1.675
63979W        W30388  24.051   3.174  13.366
63980W        W30389  42.776  28.933   3.719
63981W        W30390  10.814   9.274   0.089
63982W        W30391  28.662  20.950  13.908
63983W        W30392  44.346   2.487  11.526
63984W        W30393  15.052  17.503   2.144
63985W        W30394  20.558   4.481  10.738
63986W        W30395  35.060   8.275   0.814
63987W        W30396  14.480   1.868  14.005
63988W        W30397   0.872  18.892   4.466
63989W        W30398   8.168   7.286   2.295
63990W        W30399  44.038   6.487  14.900
63991W        W30400  15.423  40.302   4.210
63992W        W30401  13.331  42.313   0.084
63993W        W30402  43.962  43.438   1.758
63994W        W30403  34.345  42.810   0.785
63995W        W30404   2.045  10.223  10.598
63996W        W30405  33.772  27.631  11.209
63997W        W30406  31.611  41.467   3.365
63998W        W30407  44.221  23.739  10.171
63999W        W30408  27.661  22.758  11.889
64000W        W30409  32.388  18.023   3.362
64001W        W30410  16.086  12.221  11.980
64002W        W30411  23.004  43.921   4.581
64003W        W30412  10.078   8.732  14.902
64004W        W30413  44.593  38.399   4.079
64005W        W30414  24.475  13.176   3.236
64006W        W30415  39.559  26.973  11.479
64007W        W30416   5.245  13.923   0.885
64008W        W30417  12.613  17.215  12.379
64009W        W30418   9.820  25.388  11.781
64010W        W30419  27.570  35.933   3.217
64011W        W30420  17.642  19.994   1.192
64012W        W30421  37.383  21.611  11.436
64013W        W30422  29.258  40.827   0.820
64014W        W30423  38.935   5.077  13.823
64015W        W30424  33.006  19.607  14.270
64016W        W30425   3.210  15.852  14.283
64017W        W30426  32.087   2.309  13.758
64018W        W30427  31.433   4.920  14.332
64019W        W30428  12.673  43.879   4.280
64020W        W30429   4.738  17.491   3.622
64021W        W30430  22.586  24.520  13.500
64022W        W30431  40.368  17.102  14.762
64023W        W30432  28.094  16.295   0.223
64024W        W30433  18.230  15.580  12.929
64025W        W30434  32.169  41.989  11.239
64026W        W30435  44.525  13.832   3.283
64027W        W30436  12.815  19.027  11.079
64028W        W30437  24.174  22.325  11.721
64029W        W30438  42.038  38.640   1.320
64030W        W30439  39.423  39.151   1.177
64031W        W30440  11.748   1.601   2.760
64032W        W30441  40.509   7.196   1.721
64033W        W30442  23.225  41.464   4.478
64034W        W30443  14.574  44.537  14.914
64035W        W30444  42.463   8.395   0.243
64036W        W30445  17.401  11.651   0.207
64037W        W30446  16.285  18.737   4.494
64038W        W30447   9.564  30.709  14.060
64039W        W30448  30.397  13.357   5.116
64040W        W30449   9.259  42.093   4.162
64041W        W30450  14.097  24.019  12.453
64042W        W30451  27.023  10.802   3.521
64043W        W30452  36.757  36.700  12.050
64044W        W30453  39.863   8.677   1.502
64045W        W30454  30.265  12.349  11.735
64046W        W30455  28.490  15.292   4.374
64047W        W30456   9.438  41.381   1.204
64048W        W30457  35.486  34.020  13.616
64049W        W30458  35.748  18.749  14.034
64050W        W30459   6.155  26.645   1.170
64051W        W30460  24.923  24.270   1.679
64052W        W30461  27.045  24.269   0.726
64053W        W30462   8.739  35.145  13.400
64054W        W30463   8.357  39.219  11.108
64055W        W30464  29.061  10.298  12.454
64056W        W30465  28.561  24.750   3.513
64057W        W30466  33.037  10.917   0.066
64058W        W30467  24.799  11.334   3.974
64059W        W30468  27.442  26.460  12.426
64060W        W30469  32.954  43.799   2.655
64061W        W30470  17.487  26.616  14.701
64062W        W30471  30.320  31.135   1.195
64063W        W30472  36.408  22.754  13.103
64064W        W30473   4.264   4.527  11.626
64065W        W30474  14.268  18.654   1.482
64066W        W30475   7.449  11.627  12.549
64067W        W30476  26.994  18.761   3.868
64068W        W30477  10.062  38.654  13.914
64069W        W30478  23.723   0.129  11.941
64070W        W30479  36.907  38.425   3.231
64071W        W30480   6.116   1.405   2.383
64072W        W30481   2.122   3.259  11.190
64073W        W30482  24.154  34.202  12.583
64074W        W30483   1.190  35.567  13.433
64075W        W30484  42.989   0.945  11.966
64076W        W30485   7.214  25.100   2.395
64077W        W30486   9.278  42.595   4.048
64078W        W30487   6.029  34.893  14.688
64079W        W30488  11.902  40.531   4.626
64080W        W30489  43.434  31.678   1.442
64081W        W30490   2.887   2.350  12.577
64082W        W30491  37.372  27.975  13.401
64083W        W30492   2.004   2.028  12.445
64084W        W30493  13.762  43.521   0.884
64085W        W30494   6.599   7.686   0.002
64086W        W30495  14.572  14.390  14.251
64087W        W30496  15.018  27.701  12.044
64088W        W30497  11.026   2.443   1.705
64089W        W30498  12.681  16.402   1.840
64090W        W30499   5.560  27.731  14.544
64091W        W30500  29.366  14.134  13.266
64092W        W30501  35.882   5.154   2.218
64093W        W30502  33.061  27.734  10.480
64094W        W30503  24.666  36.018   4.322
64095W        W30504  34.019  12.598   3.202
64096W        W30505   7.733   0.689   3.743
64097W        W30506   7.732   6.502   3.194
64098W        W30507   4.253  14.353   4.559
64099W        W30508  16.807  32.827   4.040
64100W        W30509  43.936  37.923  14.254
64101W        W30510   0.959  20.524   2.240
64102W        W30511  28.764  17.078   2.809
64103W        W30512   1.913  23.376  13.486
64104W        W30513   3.258  17.337   4.137
64105W        W30514   5.245  30.137  10.619
64106W        W30515   4.994  36.606  11.914
64107W        W30516   6.656  43.054  10.606
64108W        W30517   3.725  36.394  11.551
64109W        W30518  17.666  21.074  14.338
64110W        W30519  37.901  24.296   4.060
64111W        W30520  30.302   4.923  10.583
64112W        W30521   6.592  21.467  12.961
64113W        W30522   1.421  30.079  11.137
64114W        W30523   1.335  39.053  11.659
64115W        W30524  38.396  15.139   1.228
64116W        W30525   2.641  10.616  13.401
64117W        W30526   8.170  13.474  14.816
64118W        W30527   3.720  28.272  12.439
64119W        W30528  42.838  34.395   3.218
64120W        W30529  37.981  44.795  14.288
64121W        W30530   4.277   4.944   2.775
64122W        W30531  31.626  10.663   2.933
64123W        W30532   7.188   4.957   4.913
64124W        W30533  32.837   6.896   4.988
64125W        W30534  13.816  25.529   0.003
64126W        W30535  27.696  21.471   3.241
64127W        W30536  40.419  18.106   1.252
64128W        W30537  23.312   9.614  13.258
64129W        W30538  36.916  22.956   2.298
64130W        W30539  38.994  21.856   5.058
64131W        W30540  25.495  38.960   3.107
64132W        W30541  20.397  35.599  10.784
64133W        W30542  35.068  16.314   4.173
64134W        W30543  30.296  34.909   4.882
64135W        W30544   7.293  33.059  13.502
64136W        W30545  23.774   5.218  13.642
64137W        W30546  44.760   5.834  14.477
64138W        W30547  31.807  44.040  10.665
64139W        W30548  24.157  42.055   1.166
64140W        W30549  34.565  16.523   3.605
64141W        W30550   8.798  12.209   2.275
64142W        W30551  19.961  27.034   0.819
64143W        W30552  31.047  10.402   5.003
64144W        W30553   0.588  17.340   4.511
64145W        W30554  15.197  44.843  10.347
64146W        W30555   7.757  43.030  11.146
64147W        W30556  29.002  33.454  12.949
64148W        W30557  43.026   7.920  13.917
64149W        W30558   3.795  13.769  14.255
64150W        W30559  29.581  43.522  14.337
64151W        W30560  17.042  31.073  11.970
64152W        W30561  35.875  10.417   0.879
64153W        W30562  43.337   0.684   0.873
64154W        W30563  25.734  17.788  13.215
64155W        W30564  10.881  20.809  12.106
64156W        W30565  28.585  22.535   0.388
64157W        W30566  38.389  28.042  13.443
64158W        W30567  29.893  16.023   3.461
64159W        W30568  23.684  12.337   3.640
64160W        W30569  41.562  32.226   4.181
64161W        W30570  29.620  43.646  14.840
64162W        W30571  29.086  31.904   3.623
64163W        W30572   3.408  17.407  12.112
64164W        W30573  38.885   5.340  10.724
64165W        W30574  22.629  23.103   1.286
64166W        W30575  35.588  42.296   4.314
64167W        W30576   5.852  38.653   2.808
64168W        W30577  27.681  13.391  13.494
64169W        W30578  33.351   7.250  10.964
64170W        W30579  22.988   8.040  12.647
64171W        W30580  28.483  15.688  11.527
64172W        W30581  13.894  24.860  14.809
64173W        W30582   7.851  34.197   3.130
64174W        W30583  17.899  21.193  13.889
64175W        W30584   4.986  10.857  14.033
64176W        W30585  17.879  36.846   4.623
64177W        W30586  44.646  44.774  12.607
64178W        W30587  17.046   6.242  12.035
64179W        W30588   0.430  32.178  13.895
64180W        W30589  18.811  23.790  13.495
64181W        W30590  30.140   3.658  14.269
64182W        W30591  40.818  35.847  12.991
64183W        W30592  28.503  32.588   1.455
64184W        W30593  22.088  40.850   0.759
64185W        W30594  14.667  41.768   3.789
64186W        W30595  37.870   7.862  10.792
64187W        W30596  19.706  31.603   4.232
64188W        W30597  11.854  34.979  11.016
64189W        W30598  39.552   7.849   1.701
64190W        W30599  14.743  41.816   4.878
64191W        W30600  42.468  31.719  12.440
64192W        W30601   8.970  44.661  14.359
64193W        W30602  24.637  23.584  11.531
64194W        W30603  21.285   3.400  11.543
64195W        W30604  28.500  12.230   5.003
64196W        W30605   4.844  38.411   2.199
64197W        W30606   9.739  11.218   4.388
64198W        W30607  28.675  16.558   1.414
64199W        W30608  36.258  37.780   0.576
64200W        W30609  22.043  36.546   2.061
64201W        W30610  30.892  15.425   2.134
64202W        W30611  29.062  44.483   3.635
64203W        W30612  38.985   2.389   0.860
64204W        W30613  23.356  16.601   3.099
64205W        W30614   8.310  36.364  10.930
64206W        W30615  10.354  16.150  12.537
64207W        W30616   0.852   7.690   2.147
64208W        W30617   0.039  28.680   4.089
64209W        W30618  17.599  25.686   4.895
64210W        W30619   3.423  36.042   1.438
64211W        W30620   6.879  32.653  10.292
64212W        W30621  40.973   3.019   1.887
64213W        W30622   9.679  16.171   1.756
64214W        W30623   0.226   3.825  12.069
64215W        W30624  38.737  24.095  10.325
64216W        W30625  41.075  10.511   4.577
64217W        W30626  14.128  40.512   1.912
64218W        W30627   1.714  31.983   1.851
64219W        W30628   9.683   4.157  11.999
64220W        W30629  31.288  12.214  11.647
64221W        W30630   9.340   0.713  11.973
64222W        W30631   4.283   2.836   3.324
64223W        W30632  40.046  16.048  11.548
64224W        W30633   3.690   5.410  14.052
64225W        W30634  21.562  29.655   2.600
64226W        W30635  16.315  19.637   1.353
64227W        W30636  23.927  11.987   2.196
64228W        W30637  31.600   0.756   4.978
64229W        W30638  30.418  24.138   3.594
64230W        W30639   7.771  16.183  14.881
64231W        W30640  23.802  32.978   0.764
64232W        W30641  11.942  17.622   0.785
64233W        W30642  32.199  31.214  13.889
64234W        W30643  39.573  17.256   3.096
64235W        W30644  11.737  19.241  13.942
64236W        W30645  24.187  36.912  11.986
64237W        W30646  28.430  22.226  14.310
64238W        W30647  15.649  11.138  13.071
64239W        W30648  30.531  39.459  11.614
64240W        W30649   5.146  18.051   2.840
64241W        W30650   2.440   6.592  12.929
64242W        W30651  28.645  37.353  13.495
64243W        W30652  31.920  34.020  13.771
64244W        W30653  40.723   7.193   2.278
64245W        W30654  34.580  29.555   1.354
64246W        W30655  36.480   2.214   4.626
64247W        W30656  32.692  28.928   3.709
64248W        W30657  31.935   6.624   3.529
64249W        W30658  40.428  33.058   4.631
64250W        W30659  44.448  35.147  12.656
64251W        W30660  36.458  21.334   0.282
64252W        W30661  23.735  11.611   0.378
64253W        W30662  15.147   3.334  11.213
64254W        W30663  33.485  41.552  11.249
64255W        W30664  43.200  11.443   5.316
64256W        W30665  35.343  32.237   4.995
64257W        W30666  37.000  15.100  12.014
64258W        W30667   3.887  28.519   2.635
64259W        W30668  39.336   9.322   0.826
64260W        W30669  29.058  42.558  14.283
64261W        W30670  21.232  10.564  11.077
64262W        W30671  31.954  41.691   0.940
64263W        W30672  14.881  39.272   3.786
64264W        W30673  27.300  19.830  14.571
64265W        W30674   8.586  24.288   1.376
64266W        W30675  23.462  16.568  11.679
64267W        W30676  19.159   3.399   1.049
64268W        W30677   8.548   8.213  13.105
64269W        W30678  11.743  38.154   1.369
64270W        W30679  44.128  26.113  12.544
64271W        W30680   4.661  43.882   4.495
64272W        W30681   2.397  28.075  12.690
64273W        W30682  20.683  30.645   3.303
64274W        W30683  28.427   6.878  14.888
64275W        W30684  39.556  12.382   1.711
64276W        W30685  35.623  13.920   2.712
64277W        W30686   0.992  27.030   1.226
64278W        W30687  34.005  29.443  12.858
64279W        W30688  18.078  14.553  14.643
64280W        W30689  18.611  36.606   2.241
64281W        W30690   8.451  41.296   1.431
64282W        W30691  11.378  16.404   2.878
64283W        W30692  10.671  41.012  12.587
64284W        W30693  17.398  29.702   2.341
64285W        W30694  15.699  31.727   0.650
64286W        W30695  12.133   7.668  10.599
64287W        W30696   9.222  27.414   0.210
64288W        W30697  10.097  42.136   2.713
64289W        W30698  43.596  28.789   4.258
64290W        W30699  16.356  26.631   2.899
64291W        W30700   8.918  11.268   2.729
64292W        W30701  37.102  21.029   1.408
64293W        W30702   0.786   4.365  11.590
64294W        W30703  29.664  41.476   2.331
64295W        W30704  43.301  34.048  11.367
64296W        W30705  37.141  29.016   4.028
64297W        W30706  32.380   1.348  11.105
64298W        W30707  20.657  40.437   0.723
64299W        W30708  38.252  37.291   4.115
64300W        W30709   2.353  42.992   2.814
64301W        W30710   9.526  12.702  13.178
64302W        W30711  26.753  16.342   0.558
64303W        W30712  17.590  39.792   3.144
64304W        W30713  41.768  21.592  11.657
64305W        W30714  35.673  22.584   0.269
64306W        W30715  44.153   4.462   4.504
64307W        W30716  25.081  43.746  13.913
64308W        W30717  33.145  25.417  14.813
64309W        W30718   1.671  24.215  13.127
64310W        W30719  43.488  34.397   1.900
64311W        W30720  11.319  27.640   4.789
64312W        W30721  22.375   0.496   4.479
64313W        W30722  30.770   8.921   4.160
64314W        W30723  28.179  10.212   0.314
64315W        W30724  10.417  36.625  10.469
64316W        W30725   8.838  29.475   4.010
64317W        W30726   8.713   2.987  14.361
64318W        W30727  32.686  36.412  13.577
64319W        W30728  27.197  38.514  14.042
64320W        W30729  15.251  35.568   2.556
64321W        W30730  32.455   7.108   2.851
64322W        W30731  44.516  23.865  12.176
64323W        W30732  37.526  26.779   3.207
64324W        W30733  19.941  21.558   0.245
64325W        W30734  16.556  35.836   4.533
64326W        W30735  34.611   8.163   1.074
64327W        W30736  34.627  27.426  12.454
64328W        W30737  13.143  41.929   0.669
64329W        W30738  32.743   6.365   4.949
64330W        W30739  32.581   2.986  11.174
64331W        W30740  25.028   3.028   3.714
64332W        W30741  21.535  38.275   1.802
64333W        W30742  18.101  31.072  12.902
64334W        W30743  23.288  23.599  13.351
64335W        W30744  38.939   2.962  14.408
64336W        W30745  21.538  25.761  10.657
64337W        W30746   7.622   3.275   3.212
64338W        W30747  30.765   0.782   0.738
64339W        W30748  15.289  28.340   3.724
64340W        W30749  17.148  25.357  13.483
64341W        W30750  19.074  21.395  14.416
64342W        W30751  21.173  17.180   1.784
64343W        W30752   2.697  35.915  14.577
64344W        W30753  20.722   1.439  13.852
64345W        W30754  19.272  14.382   1.330
64346W        W30755   7.782  41.877   2.757
64347W        W30756  23.585  20.136   1.649
64348W        W30757  42.588  23.724   4.721
64349W        W30758  21.960  13.135  14.448
64350W        W30759   9.041  31.992   4.560
64351W        W30760  12.681  20.990  10.704
64352W        W30761  32.215  42.511   2.817
64353W        W30762  42.885   3.878  10.725
64354W        W30763  37.862   5.343  11.630
64355W        W30764   4.521  30.755   4.545
64356W        W30765  44.646  18.596   2.138
64357W        W30766  28.036   3.792  11.059
64358W        W30767  23.213   5.299   2.295
64359W        W30768   7.671   8.680  13.458
64360W        W30769   4.296  39.734   1.379
64361W        W30770  41.966  37.285  13.882
64362W        W30771  36.606  25.591   4.364
64363W        W30772  44.612  35.114   0.225
64364W        W30773  34.456   9.721   3.740
64365W        W30774  25.646  13.334   4.342
64366W        W30775   6.613  19.279  14.702
64367W        W30776  42.850  34.555  14.084
64368W        W30777  15.294  39.382   3.187
64369W        W30778   8.208  30.736   0.701
64370W        W30779  11.396  24.801  11.551
64371W        W30780  37.808   8.217   1.146
64372W        W30781  38.590  25.034   2.982
64373W        W30782   1.451  38.794  14.012
64374W        W30783  19.608  31.436   2.973
64375W        W30784  17.671  37.996   0.366
64376W        W30785  33.704  17.740  14.160
64377W        W30786  16.542  11.681   3.659
64378W        W30787  40.911  28.462  12.081
64379W        W30788  15.621  20.259   3.112
64380W        W30789  40.875  41.044   1.439
64381W        W30790  14.745  27.558  10.757
64382W        W30791  28.565  31.610  13.554
64383W        W30792   1.214  20.620  11.366
64384W        W30793   7.112  19.217  14.997
64385W        W30794  31.069  10.199   0.376
64386W        W30795   6.979  20.629  14.908
64387W        W30796  34.834  20.172   0.279
64388W        W30797  26.947   8.060  10.200
64389W        W30798  14.664  16.533   1.916
64390W        W30799  16.013  19.442  11.485
64391W        W30800   1.412  20.606  11.878
64392W        W30801  12.628  39.056  10.766
64393W        W30802  15.930  35.988   3.717
64394W        W30803  44.575  33.255   3.596
64395W        W30804  10.874  40.580  12.844
64396W        W30805  26.723   7.916  11.839
64397W        W30806  31.915  44.317  11.104
64398W        W30807  32.591   0.376   0.865
64399W        W30808   4.905  12.486  12.584
64400W        W30809  31.505  18.102   3.782
64401W        W30810   3.711  24.117   2.417
64402W        W30811   1.791  41.258  13.291
64403W        W30812  13.351  26.980   0.391
64404W        W30813  33.303  42.041   0.818
64405W        W30814   2.738  42.045  10.953
64406W        W30815  32.149  19.356  13.967
64407W        W30816   5.632  30.498   2.287
64408W        W30817   2.510   5.253  13.395
64409W        W30818  20.062  28.049   3.125
64410W        W30819  23.245  16.342   4.012
64411W        W30820  16.469  32.951  14.846
64412W        W30821  44.591  28.431   1.089
64413W        W30822   1.029   6.206   3.656
64414W        W30823  28.054  18.044   0.891
64415W        W30824  25.023  11.428   4.448
64416W        W30825   8.153  25.339  12.311
64417W        W30826  39.579  29.840   3.275
64418W        W30827   9.870  18.528   2.828
64419W        W30828  13.208  22.609  13.033
64420W        W30829   9.371   2.623   0.623
64421W        W30830  34.865  31.084  14.559
64422W        W30831  14.620  19.321   2.323
64423W        W30832  16.803  40.690   0.001
64424W        W30833  33.049  28.150  12.694
64425W        W30834   8.649  14.145  12.613
64426W        W30835   0.778  37.645  10.826
64427W        W30836  31.582  37.554   1.428
64428W        W30837  35.166   4.426   1.175
64429W        W30838  44.692  12.198  13.033
64430W        W30839  19.696   8.939   5.073
64431W        W30840  13.016  25.126   3.067
64432W        W30841   8.580  27.789  12.592
64433W        W30842  11.201  28.452  12.928
64434W        W30843  26.102  32.861  14.302
64435W        W30844  11.732  15.920  13.759
64436W        W30845  43.062   3.431   1.301
64437W        W30846  26.497  28.429  14.745
64438W        W30847  28.560  37.769   0.809
64439W        W30848  40.839  14.602  14.848
64440W        W30849  30.951  20.323   1.818
64441W        W30850   9.658  12.287  11.496
64442W        W30851  38.865  34.422  14.542
64443W        W30852   5.613  31.672  11.087
64444W        W30853  22.055  42.721  12.945
64445W        W30854   3.572  14.362  11.498
64446W        W30855  42.409  24.231   0.774
64447W        W30856  17.505  19.937  12.413
64448W        W30857   2.959  25.582   2.266
64449W        W30858  25.768  13.749  11.329
64450W        W30859  27.717  32.061  14.511
64451W        W30860  32.693  44.959  13.981
64452W        W30861  12.884  41.219  13.839
64453W        W30862  14.962  20.330   3.657
64454W        W30863  20.556  44.877   4.043
64455W        W30864  20.944  31.880   1.821
64456W        W30865  36.064  38.036   0.991
64457W        W30866  25.655  36.985   4.513
64458W        W30867  15.051  29.967  11.199
64459W        W30868   3.251  42.928  13.239
64460W        W30869  35.364  39.842  12.460
64461W        W30870   8.540   0.326  11.170
64462W        W30871  34.721  35.292   1.801
64463W        W30872  43.928  37.909   3.771
64464W        W30873   3.519  11.819  10.875
64465W        W30874  21.499  29.122   2.340
64466W        W30875  25.032  28.802  12.763
64467W        W30876  38.990   0.431  14.710
64468W        W30877  38.777  22.419   4.205
64469W        W30878  14.253   9.113   4.118
64470W        W30879  42.103  24.306   3.327
64471W        W30880   8.228   4.855   4.039
64472W        W30881  41.819  14.112   3.856
64473W        W30882  41.925  30.146  13.837
64474W        W30883   7.462   5.416  14.053
64475W        W30884  12.665  36.941   1.250
64476W        W30885  30.829   5.203   4.184
64477W        W30886   4.015  23.624  14.919
64478W        W30887  22.495  32.878   2.137
64479W        W30888  42.525  31.094   4.996
64480W        W30889   8.270  42.466  11.580
64481W        W30890  32.044  43.015  11.691
64482W        W30891  11.269  12.024   1.838
64483W        W30892  14.578  14.185   3.883
64484W        W30893   3.974  23.961  14.268
64485W        W30894   9.023  34.987   2.133
64486W        W30895   4.991  42.459   2.360
64487W        W30896   1.802  22.559  13.465
64488W        W30897  27.089  13.042   2.815
64489W        W30898  10.042  14.402   0.494
64490W        W30899   1.729  41.355  14.670
64491W        W30900  28.366  10.293   1.433
64492W        W30901   4.357  30.694  13.079
64493W        W30902  18.709  26.640  13.900
64494W        W30903  25.479  19.540   1.672
64495W        W30904  10.939   1.303  12.892
64496W        W30905  15.229  19.981   2.745
64497W        W30906  26.327  12.795  13.548
64498W        W30907  39.574  30.127   4.473
64499W        W30908  19.031  31.322  12.047
64500W        W30909  10.187   3.119  13.794
64501W        W30910   5.463   7.164  12.544
64502W        W30911  31.997  15.642   0.506
64503W        W30912   7.762   8.352   3.783
64504W        W30913   6.458  38.859   1.229
64505W        W30914   9.404  35.406  10.682
64506W        W30915  30.063   4.698  10.970
64507W        W30916   9.843  33.157   1.181
64508W        W30917  20.432  30.113   4.586
64509W        W30918  18.652  37.788   4.652
64510W        W30919  17.683   2.826   1.434
64511W        W30920  41.548  25.232   4.676
64512W        W30921   5.995   4.651  13.246
64513W        W30922  42.876  37.562   4.496
64514W        W30923   7.990  33.370   9.934
64515W        W30924   4.812  35.039   5.106
64516W        W30925  37.437  24.683   0.386
64517W        W30926  11.787  26.645  13.044
64518W        W30927  31.202  34.058  11.386
64519W        W30928   5.371   0.728  13.280
64520W        W30929  23.745  31.973   2.342
64521W        W30930   2.284  36.625  10.759
64522W        W30931  23.070  23.708  12.038
64523W        W30932   5.840  41.879  13.815
64524W        W30933  20.332  10.112   0.502
64525W        W30934  26.054  37.284   2.310
64526W        W30935  20.557  39.399   4.585
64527W        W30936  34.791   4.051   3.912
64528W        W30937  35.756  24.451   0.777
64529W        W30938  11.120  25.710   2.772
64530W        W30939  14.170  12.525   3.547
64531W        W30940  13.830  12.645   3.166
64532W        W30941  33.540  17.901   4.672
64533W        W30942   6.417  42.475  13.074
64534W        W30943  27.080  22.169   0.383
64535W        W30944   5.813  37.461  11.895
64536W        W30945  41.322  39.069   4.752
64537W        W30946  40.423  25.650  12.276
64538W        W30947  26.289  22.588  11.621
64539W        W30948  44.835   5.203  14.875
64540W        W30949  36.121  35.822   1.782
64541W        W30950  44.037  17.247  14.318
64542W        W30951  43.819  27.605  13.339
64543W        W30952   0.436   3.682  12.516
64544W        W30953   1.243  13.149  12.567
64545W        W30954  27.561  27.155   4.131
64546W        W30955  38.817  10.205  11.831
64547W        W30956  13.798  25.270  14.498
64548W        W30957  39.960  17.288   0.697
64549W        W30958  23.540  31.306  11.169
64550W        W30959  29.576   8.158   1.831
64551W        W30960  10.214  40.852   1.656
64552W        W30961  13.812  43.726   1.716
64553W        W30962  40.980  41.300   2.487
64554W        W30963  13.985   9.876  11.467
64555W        W30964  11.720   2.557  11.235
64556W        W30965  37.043  35.153   0.377
64557W        W30966  37.535  12.946   1.959
64558W        W30967  29.734  22.038  12.042
64559W        W30968  40.137  43.735  12.884
64560W        W30969   1.835  16.747   3.179
64561W        W30970  36.702  15.593  14.003
64562W        W30971   4.179  13.840  10.742
64563W        W30972  33.716  31.349  13.064
64564W        W30973   0.275  18.010   2.829
64565W        W30974  39.395  35.751  11.846
64566W        W30975  28.591  26.775   2.239
64567W        W30976  38.164   1.442  12.981
64568W        W30977  36.714   8.172  10.894
64569W        W30978  15.567  24.713   0.651
64570W        W30979   8.134  16.814  11.648
64571W        W30980  21.065  35.200  11.215
64572W        W30981   6.987  22.097  13.471
64573W        W30982   0.846  40.384   4.147
64574W        W30983  26.647  43.756   3.125
64575W        W30984  44.104  11.304   5.146
64576W        W30985  19.421  40.928   4.225
64577W        W30986  19.285  12.156   0.867
64578W        W30987  27.391  11.053  13.988
64579W        W30988  10.246  11.389   3.090
64580W        W30989   0.823  36.841  12.363
64581W        W30990  13.713  36.443  12.900
64582W        W30991  40.957  42.289   2.587
64583W        W30992  33.859  30.146  10.628
64584W        W30993   2.755   0.899  12.556
64585W        W30994  34.415  41.776   2.326
64586W        W30995  21.112  22.653  10.991
64587W        W30996  32.348  35.323  13.814
64588W        W30997  33.487  42.426  11.037
64589W        W30998   1.018  43.414   0.246
64590W        W30999  28.474   3.488   1.427
64591W        W31000  42.487  36.693   0.379
64592W        W31001  33.400  31.117   3.432
64593W        W31002   1.477  42.304   0.265
64594W        W31003  17.954  18.195  13.216
64595W        W31004   4.925  35.918   4.678
64596W        W31005  39.947  43.856   1.810
64597W        W31006  12.070  18.681  10.269
64598W        W31007  21.189   8.783   2.863
64599W        W31008  40.609  18.555  13.441
64600W        W31009  26.907  28.252  13.899
64601W        W31010  24.747  32.801   1.684
64602W        W31011  13.201  39.819  10.407
64603W        W31012  12.159  19.039  13.018
64604W        W31013  13.690  28.396   3.787
64605W        W31014  36.803  13.193  13.447
64606W        W31015  40.118  33.904   2.721
64607W        W31016  22.480  26.431  12.616
64608W        W31017   6.421  37.839   0.341
64609W        W31018   7.225  15.012  11.117
64610W        W31019  24.571  25.713   1.026
64611W        W31020  19.017   4.714   4.961
64612W        W31021  38.373  27.487   3.555
64613W        W31022  42.753  19.206   3.799
64614W        W31023  23.194  26.118  10.915
64615W        W31024  40.906  43.542   3.051
64616W        W31025  21.248  40.274  11.501
64617W        W31026  23.171   7.261  14.290
64618W        W31027   8.911  25.718  14.666
64619W        W31028  36.474  13.209   3.303
64620W        W31029  12.864  19.093   2.768
64621W        W31030  11.708  10.673   1.952
64622W        W31031  44.261  37.754   0.990
64623W        W31032  24.480  13.840   0.384
64624W        W31033  40.935  15.633   2.584
64625W        W31034   5.879   2.884   3.242
64626W        W31035  14.622  29.562   4.256
64627W        W31036  15.777  21.730   0.439
64628W        W31037  13.682  18.176  11.744
64629W        W31038   9.206  21.213  10.693
64630W        W31039  42.404   6.374   2.278
64631W        W31040   2.264   4.880  13.933
64632W        W31041  15.192  41.780   2.185
64633W        W31042   5.168  27.706  10.935
64634W        W31043  14.346  40.811   0.449
64635W        W31044   9.554  30.493   5.535
64636W        W31045  32.874   1.936   4.113
64637W        W31046  23.691  26.427  13.150
64638W        W31047  11.249  39.258  12.799
64639W        W31048   6.591   2.762   2.180
64640W        W31049  39.013  10.140   4.298
64641W        W31050   1.239  44.971   3.849
64642W        W31051  33.897  18.736   3.704
64643W        W31052  17.205  40.991   2.774
64644W        W31053  27.141  37.864   0.888
64645W        W31054  42.198   6.379  14.033
64646W        W31055  37.969  33.122   3.263
64647W        W31056  21.230  36.370  13.877
64648W        W31057  23.669  30.272   1.695
64649W        W31058  21.201  12.906   1.270
64650W        W31059   9.152  43.380  12.946
64651W        W31060  32.128  29.160  13.052
64652W        W31061  37.423  28.452  14.265
64653W        W31062  20.578  36.125   0.771
64654W        W31063  34.543  17.293  13.946
64655W        W31064  10.391   6.021  14.369
64656W        W31065  10.957   1.898   1.111
64657W        W31066  33.828  19.215   0.445
64658W        W31067  13.122  36.947  10.224
64659W        W31068  30.195  15.203  11.753
64660W        W31069  22.771  42.979   4.615
64661W        W31070  24.747  10.608   2.616
64662W        W31071  19.430  26.693   4.057
64663W        W31072  36.161  11.977  11.288
64664W        W31073  43.725   8.902   0.020
64665W        W31074  32.922   0.439   3.801
64666W        W31075  36.834  33.329  14.821
64667W        W31076  23.588   3.964   2.458
64668W        W31077  19.501  38.432  13.168
64669W        W31078  20.009  21.829  14.298
64670W        W31079  17.506  28.637   0.577
64671W        W31080  33.856  27.133  11.077
64672W        W31081  28.412  31.629  11.617
64673W        W31082  39.338   1.245   3.932
64674W        W31083  38.095  10.878  13.285
64675W        W31084  27.123  30.660   4.136
64676W        W31085  37.895  31.697  12.035
64677W        W31086  41.504  43.857   4.100
64678W        W31087  38.764  29.054   2.789
64679W        W31088   5.266  39.069  11.934
64680W        W31089  18.571  42.807   2.457
64681W        W31090   7.658   9.026   4.625
64682W        W31091   6.307   8.179   2.243
64683W        W31092   4.370  23.616   0.316
64684W        W31093   8.417   1.679   0.328
64685W        W31094  21.847  33.419   0.487
64686W        W31095  13.912  18.855  12.916
64687W        W31096  27.491  41.926  11.574
64688W        W31097  23.386  11.260   3.289
64689W        W31098  44.271   4.791   4.081
64690W        W31099  25.557  39.889   4.215
64691W        W31100  35.272  13.620  13.842
64692W        W31101  41.153  32.458  11.693
64693W        W31102  32.580  26.502  10.734
64694W        W31103  39.975  38.486   3.145
64695W        W31104  12.128  26.912  14.685
64696W        W31105  22.995  43.491   2.208
64697W        W31106  17.715  36.580   2.838
64698W        W31107  29.547  24.683   1.712
64699W        W31108  16.360  35.156  11.105
64700W        W31109  31.161   3.864   0.015
64701W        W31110   9.052   9.912   2.746
64702W        W31111  30.022  31.723   0.000
64703W        W31112  17.118  19.719   2.845
64704W        W31113  41.275  20.180   1.921
64705W        W31114  18.841  34.777   2.714
64706W        W31115  37.834   2.548  11.347
64707W        W31116  20.304  10.535  11.155
64708W        W31117  16.293  31.387   3.857
64709W        W31118  12.816  33.900   2.203
64710W        W31119  26.228  24.181  13.516
64711W        W31120  34.078  22.232  13.908
64712W        W31121  19.307  40.614   2.705
64713W        W31122  39.799  38.934  11.090
64714W        W31123   7.923  44.112   2.674
64715W        W31124  37.528   0.883   0.706
64716W        W31125  39.566   1.759  13.205
64717W        W31126  22.544  40.078  14.305
64718W        W31127  24.951   9.767  14.979
64719W        W31128   9.257  24.496  14.885
64720W        W31129  33.959   7.282  12.112
64721W        W31130   2.308   0.302   1.727
64722W        W31131  14.162  41.598   0.763
64723W        W31132  27.659  40.553   4.509
64724W        W31133   4.653   8.527  14.954
64725W        W31134   3.522  37.290   2.137
64726W        W31135  25.440  24.198   1.643
64727W        W31136   3.064   3.202   0.900
64728W        W31137  15.578  35.316   1.855
64729W        W31138  34.140   5.369   3.349
64730W        W31139  36.842  12.037  14.120
64731W        W31140  31.655  13.781   3.686
64732W        W31141  12.751  21.064  12.133
64733W        W31142  27.523  30.342   3.968
64734W        W31143  19.227   8.688  13.622
64735W        W31144   5.985   0.142  13.940
64736W        W31145   2.021   1.951   2.310
64737W        W31146  28.617  21.794   1.678
64738W        W31147  18.819  12.294   3.664
64739W        W31148  23.311  23.219  13.001
64740W        W31149  36.105  20.089  14.303
64741W        W31150   1.273   1.916  13.962
64742W        W31151  35.707  24.069   1.784
64743W        W31152  24.946  38.314  12.084
64744W        W31153  40.810   3.868  10.921
64745W        W31154  22.834  28.406   3.251
64746W        W31155  21.073   3.740  14.372
64747W        W31156  34.909  29.179   4.990
64748W        W31157  38.398  21.656  11.378
64749W        W31158  27.548  10.314  11.507
64750W        W31159  32.279  25.634  14.854
64751W        W31160   5.594  39.686  13.017
64752W        W31161   9.646  43.291   0.330
64753W        W31162  22.111  37.327   4.270
64754W        W31163  13.167  14.258  11.971
64755W        W31164  15.825  16.437   9.891
64756W        W31165   2.313  25.071   1.420
64757W        W31166  28.109  10.880  11.996
64758W        W31167  12.603  19.813  11.582
64759W        W31168  29.622  30.155   5.028
64760W        W31169   7.075  41.981   4.387
64761W        W31170  15.073   5.516   0.927
64762W        W31171  23.399  28.258   3.060
64763W        W31172  11.068   2.431   1.204
64764W        W31173   2.621  13.083  12.478
64765W        W31174  19.436  25.716  13.382
64766W        W31175  26.556  29.091   0.234
64767W        W31176  38.042  10.637  10.700
64768W        W31177   9.120  10.326  10.963
64769W        W31178  27.413  15.218  12.810
64770W        W31179  23.777  10.873  14.508
64771W        W31180  34.329  13.631   3.256
64772W        W31181  20.639  13.895  14.787
64773W        W31182  13.218   7.215  12.524
64774W        W31183   7.483  23.844  11.323
64775W        W31184  41.077  41.819  11.123
64776W        W31185  31.391  36.020  13.503
64777W        W31186  24.346  27.976  13.851
64778W        W31187  40.954  37.663   4.072
64779W        W31188  43.655  17.780  13.532
64780W        W31189  23.754  19.100  14.955
64781W        W31190  23.754  12.887   1.651
64782W        W31191   7.058  18.956  12.485
64783W        W31192  22.127  13.534   0.555
64784W        W31193  31.502  20.724  10.698
64785W        W31194  21.244  30.165  14.511
64786W        W31195   2.263  14.209   0.071
64787W        W31196  38.349  35.853   1.275
64788W        W31197  34.893  27.422  13.957
64789W        W31198  29.752  38.967   0.222
64790W        W31199  41.250   4.802   4.166
64791W        W31200  43.608  12.760   5.014
64792W        W31201  22.979  39.671   2.486
64793W        W31202  40.757  18.036   2.281
64794W        W31203  40.989  44.504   3.717
64795W        W31204  20.399  38.936  12.343
64796W        W31205  13.689  18.375  13.058
64797W        W31206  11.207  39.691   3.209
64798W        W31207  22.107  38.968  10.358
64799W        W31208  28.630  24.736  13.310
64800W        W31209  41.234   7.807  12.425
64801W        W31210  16.257  42.940  12.342
64802W        W31211  43.805  22.532   3.257
64803W        W31212  11.849   9.061   1.433
64804W        W31213  27.679  42.608  14.930
64805W        W31214  37.337  34.604   2.411
64806W        W31215  14.210  39.270  12.579
64807W        W31216  31.676  24.439   0.720
64808W        W31217  37.293  39.405  12.157
64809W        W31218   4.864   6.971   2.391
64810W        W31219  11.057  41.541   4.445
64811W        W31220  44.934  33.044   3.934
64812W        W31221  16.411  32.125   2.769
64813W        W31222  11.373  28.911   2.098
64814W        W31223   6.386  42.092  13.446
64815W        W31224   7.782  38.674  13.108
64816W        W31225  32.485  19.769  14.354
64817W        W31226  22.632  34.972   2.121
64818W        W31227  38.009   6.360   0.328
64819W        W31228   0.212  38.370  13.447
64820W        W31229  44.387  33.923   1.027
64821W        W31230  29.521  26.440   0.939
64822W        W31231  14.921  22.246  14.733
64823W        W31232  34.133  38.963   4.593
64824W        W31233   4.808  31.611  13.310
64825W        W31234  12.202  10.643   2.208
64826W        W31235  37.974  15.924   0.472
64827W        W31236   1.169   5.601   1.205
64828W        W31237   5.129  25.208   4.849
64829W        W31238  29.215  38.391   2.302
64830W        W31239  25.520  27.083  12.943
64831W        W31240  44.778  31.371  11.655
64832W        W31241  22.992   0.981   5.201
64833W        W31242  36.053  20.296   4.342
64834W        W31243  24.100   3.844  11.597
64835W        W31244  41.644   6.757  13.884
64836W        W31245   1.394  27.612   0.490
64837W        W31246  12.410   1.536  11.678
64838W        W31247   7.587   2.189  14.505
64839W        W31248  20.792  11.737   3.787
64840W        W31249  40.986  41.246   4.629
64841W        W31250  44.439  21.643   0.288
64842W        W31251  44.295  31.532  12.565
64843W        W31252  44.039  34.711   2.905
64844W        W31253  12.825  16.154   1.356
64845W        W31254  37.085  30.177   0.308
64846W        W31255  31.931  32.897   0.225
64847W        W31256  11.525  22.859   4.529
64848W        W31257  43.380  33.030   1.677
64849W        W31258  27.964  33.692   1.318
64850W        W31259  33.376  29.836   0.839
64851W        W31260  39.961  29.988  13.760
64852W        W31261  37.342  42.318   0.926
64853W        W31262  39.754  35.531  12.875
64854W        W31263  30.481  34.454   3.559
64855W        W31264   8.456  34.404   1.778
64856W        W31265  43.310  18.765  11.110
64857W        W31266  35.279  10.522   0.464
64858W        W31267  13.920  17.389   3.211
64859W        W31268  24.416  30.898  14.386
64860W        W31269  19.360  34.120   3.194
64861W        W31270  44.240  11.217   0.620
64862W        W31271  22.142  21.926  11.658
64863W        W31272   1.879  32.489  14.951
64864W        W31273   1.179  33.873  12.585
64865W        W31274   7.519   5.353   1.952
64866W        W31275  15.192  27.568  11.572
64867W        W31276  41.177   2.230   5.189
64868W        W31277  19.112  35.596  11.997
64869W        W31278   9.224  35.987  11.939
64870W        W31279  34.845   0.606  14.803
64871W        W31280  36.969  10.739   4.370
64872W        W31281  33.138  24.160   0.329
64873W        W31282  21.093   1.910   1.822
64874W        W31283  35.411  37.888   4.221
64875W        W31284  11.799  40.600  11.600
64876W        W31285  38.205  33.380   3.665
64877W        W31286  37.770  14.798  10.831
64878W        W31287  27.187  32.356   2.586
64879W        W31288  15.006  19.248   9.651
64880W        W31289   3.381  22.053  11.305
64881W        W31290  41.438   7.095  13.050
64882W        W31291   9.740   5.043   2.015
64883W        W31292  43.736  42.394   2.370
64884W        W31293  43.168  20.540   2.607
64885W        W31294  35.991  23.012   3.859
64886W        W31295  19.818  37.318  13.959
64887W        W31296  10.754  33.084   0.884
64888W        W31297  11.835  35.841  12.015
64889W        W31298   3.111  30.687   1.389
64890W        W31299   3.364  17.990   2.125
64891W        W31300  17.522  19.685  10.654
64892W        W31301  34.462  28.181   0.320
64893W        W31302   5.747  31.570   2.674
64894W        W31303  22.262   7.301   2.220
64895W        W31304  18.523   2.670   4.338
64896W        W31305  25.646  30.901   2.756
64897W        W31306  10.406  26.569  11.565
64898W        W31307  26.016  27.895  13.568
64899W        W31308  27.409  26.655   4.037
64900W        W31309  22.143  14.013  10.633
64901W        W31310  23.535   5.648  13.402
64902W        W31311  35.829  35.232  13.642
64903W        W31312  21.956   4.635  12.344
64904W        W31313  36.869  16.296  10.760
64905W        W31314  27.966  25.261  10.658
64906W        W31315  36.347  39.554  14.290
64907W        W31316  17.976  28.701  14.413
64908W        W31317  31.505  29.224   0.667
64909W        W31318   2.959  36.942   4.252
64910W        W31319  15.645  29.984  13.325
64911W        W31320   4.551   7.824   3.490
64912W        W31321  27.014  32.351   1.866
64913W        W31322  18.152  28.469  13.121
64914W        W31323  43.938  31.680   3.201
64915W        W31324  43.911  25.403   4.659
64916W        W31325  29.744  28.736  11.605
64917W        W31326   0.256  16.447  14.538
64918W        W31327  22.827  22.589   3.224
64919W        W31328   7.724   8.361   1.746
64920W        W31329  10.287  34.646  11.008
64921W        W31330   9.233   2.861  13.303
64922W        W31331   2.328  29.036  11.348
64923W        W31332  35.851   1.389   4.410
64924W        W31333  36.406   7.779  13.791
64925W        W31334  10.908  33.399   2.712
64926W        W31335  28.655   1.036   0.239
64927W        W31336   4.275  23.190  12.037
64928W        W31337  41.070   5.271   2.669
64929W        W31338  43.392  36.006   2.793
64930W        W31339  20.514  29.064   1.356
64931W        W31340  11.134  10.062   3.935
64932W        W31341  21.328  39.805   3.313
64933W        W31342  21.429  21.855   2.128
64934W        W31343  20.135  11.277  14.346
64935W        W31344  34.372  44.058   0.189
64936W        W31345  31.339  25.658   3.224
64937W        W31346   3.931  22.613  13.073
64938W        W31347  24.627   4.378  10.999
64939W        W31348  23.467  21.058   4.777
64940W        W31349  35.191   3.931   5.291
64941W        W31350  19.064  26.626  13.492
64942W        W31351   1.453  43.475   2.821
64943W        W31352  11.150  33.043   0.557
64944W        W31353  42.141   7.237   4.117
64945W        W31354  13.760  30.957   0.347
64946W        W31355   5.861  10.498  11.212
64947W        W31356  44.024  11.415   3.268
64948W        W31357  24.416   8.781  11.602
64949W        W31358  43.559   0.423   2.223
64950W        W31359  36.430  18.535   1.144
64951W        W31360   1.943  17.781  14.377
64952W        W31361  33.455  19.449   4.293
64953W        W31362  43.082  17.489  14.509
64954W        W31363  13.875   6.264  11.016
64955W        W31364  41.002  16.069  13.027
64956W        W31365  22.416   0.267   0.432
64957W        W31366  34.128  24.076  14.973
64958W        W31367  12.944   9.424   2.169
64959W        W31368  24.995  25.704   2.701
64960W        W31369  35.557   5.404  13.068
64961W        W31370  11.715  19.821   3.798
64962W        W31371  10.245  16.563   1.886
64963W        W31372  18.161  43.187  11.710
64964W        W31373  21.469  39.969  11.878
64965W        W31374   5.783  23.197   9.855
64966W        W31375  19.585  31.316   3.544
64967W        W31376  10.705  12.861   3.917
64968W        W31377   3.160  38.128   4.608
64969W        W31378  19.974   8.683  12.070
64970W        W31379   0.050  21.667  12.513
64971W        W31380   8.354  26.004   4.969
64972W        W31381   3.198  32.956   3.330
64973W        W31382  32.037  18.682  14.277
64974W        W31383   9.644  15.787  10.658
64975W        W31384  20.008   3.728  11.811
64976W        W31385   5.889  33.531   1.478
64977W        W31386  30.653  31.543   1.315
64978W        W31387  18.948  42.245  13.348
64979W        W31388  44.701  28.499  11.078
64980W        W31389  32.550  34.581  11.935
64981W        W31390  29.644  24.768   2.789
64982W        W31391  29.740  29.578   5.057
64983W        W31392  34.128  32.148   2.843
64984W        W31393  24.248  39.336  10.652
64985W        W31394  12.884  39.549   3.698
64986W        W31395  26.672  33.653   1.836
64987W        W31396  14.095  21.095  14.772
64988W        W31397   0.426  35.723   2.677
64989W        W31398  40.653  18.623  14.802
64990W        W31399  41.957   7.878  10.605
64991W        W31400  36.876  18.885   3.684
64992W        W31401  31.800  16.200  13.279
64993W        W31402   9.273  22.917   3.318
64994W        W31403  14.121   3.899  14.942
64995W        W31404   3.788  38.840   4.707
64996W        W31405  13.091  36.938   3.272
64997W        W31406  20.154  33.354  14.871
64998W        W31407  41.365  40.036  13.374
64999W        W31408   7.455  44.533   1.486
65000W        W31409  17.615  29.632  14.478
65001W        W31410  39.025  44.449   0.217
65002W        W31411  16.746   2.513  14.379
65003W        W31412   2.326   9.727   0.765
65004W        W31413  18.809  12.392  13.150
65005W        W31414  35.684  34.879  14.633
65006W        W31415  18.575  41.852  13.421
65007W        W31416  13.295  13.474  13.572
65008W        W31417  19.522  21.515  12.189
65009W        W31418  10.679  11.231   3.443
65010W        W31419  33.297  10.142   1.215
65011W        W31420  30.815  38.413  12.477
65012W        W31421   2.819   0.917  10.979
65013W        W31422  41.350  39.477  10.676
65014W        W31423  42.394   1.299   4.783
65015W        W31424  24.107  41.826  12.959
65016W        W31425  17.186  40.912   4.289
65017W        W31426  31.413  44.729  14.549
65018W        W31427  28.505  38.215  11.298
65019W        W31428  31.992  35.086  11.619
65020W        W31429  14.831  38.223  13.682
65021W        W31430  31.826   7.750   1.783
65022W        W31431  20.488  16.594  14.275
65023W        W31432  32.835  32.125  11.113
65024W        W31433  10.058  29.213   0.796
65025W        W31434  43.987  22.056   3.283
65026W        W31435  30.589  16.389  14.087
65027W        W31436  33.595  38.525  11.571
65028W        W31437  30.098  14.382  12.161
65029W        W31438  14.059  29.959  13.464
65030W        W31439  21.083  20.703   2.330
65031W        W31440  10.317  12.619   3.659
65032W        W31441  27.450  32.605  11.743
65033W        W31442  12.389  25.558   4.678
65034W        W31443  31.389  16.770   4.020
65035W        W31444  25.214  19.270   2.882
65036W        W31445  20.495  12.937   3.245
65037W        W31446  26.731   6.801   3.294
65038W        W31447  37.421   2.781   4.466
65039W        W31448   5.978  31.346   3.290
65040W        W31449  12.736  16.107   2.735
65041W        W31450  14.627  12.017  12.034
65042W        W31451  13.026   3.757  11.493
65043W        W31452  42.301   7.930  13.407
65044W        W31453  32.543  12.803   3.174
65045W        W31454  20.336   3.858   4.187
65046W        W31455  37.801  38.575  13.463
65047W        W31456  25.483  18.480  11.273
65048W        W31457  10.158  37.639  11.268
65049W        W31458  29.338   4.863   3.710
65050W        W31459  37.429   5.681  14.349
65051W        W31460  22.498  34.831  12.526
65052W        W31461  40.448  28.664   3.639
65053W        W31462   4.512  12.187   2.076
65054W        W31463  22.521  21.935  14.422
65055W        W31464  35.927  14.259  10.437
65056W        W31465  31.887  21.041   0.033
65057W        W31466  31.947  34.778  12.999
65058W        W31467  41.072  37.427   4.654
65059W        W31468  33.616  18.746   0.469
65060W        W31469  11.810  27.096   4.046
65061W        W31470  21.191   0.388  11.598
65062W        W31471   7.583  14.649  13.376
65063W        W31472  19.775  20.067   0.332
65064W        W31473   9.317   3.781  10.330
65065W        W31474  26.422  14.294  11.748
65066W        W31475  15.782   3.871   3.768
65067W        W31476  24.912   0.609   0.972
65068W        W31477  14.784   6.473  10.773
65069W        W31478  20.124  12.673   4.442
65070W        W31479   6.416  25.098   2.826
65071W        W31480  43.002  19.459  13.135
65072W        W31481  16.215   4.678  10.288
65073W        W31482  42.157   0.406  13.322
65074W        W31483  42.909  28.882  11.668
65075W        W31484  42.042  31.423  12.458
65076W        W31485  21.065  27.382  12.997
65077W        W31486  25.716  26.547   3.203
65078W        W31487  22.451   8.928  10.402
65079W        W31488  28.011   3.430  14.985
65080W        W31489  38.933  19.979  13.576
65081W        W31490  43.012   8.437  12.989
65082W        W31491  15.308  33.535  12.775
65083W        W31492  39.308  27.984   2.032
65084W        W31493  39.198  26.919  13.350
65085W        W31494  33.583   2.708   2.318
65086W        W31495  44.495  17.166   3.593
65087W        W31496  13.853   9.794   0.733
65088W        W31497  31.485  15.796  13.198
65089W        W31498   6.763  31.467   3.689
65090W        W31499  12.655  35.494   2.182
65091W        W31500  10.547  24.896   1.780
65092W        W31501  16.851  27.316   1.124
65093W        W31502  33.555  32.471   4.546
65094W        W31503  11.860  16.398  13.070
65095W        W31504  16.770  15.963  13.573
65096W        W31505   6.703  15.588   2.837
65097W        W31506  44.399  31.544   4.790
65098W        W31507   0.865  34.094   4.603
65099W        W31508  44.319  36.933   5.199
65100W        W31509  35.935  18.073  13.922
65101W        W31510   3.672   9.314   1.519
65102W        W31511  42.455  32.181  13.354
65103W        W31512  12.335   3.368   3.693
65104W        W31513  25.866   6.451   3.386
65105W        W31514  21.207  32.030   4.788
65106W        W31515  28.670  28.280  13.704
65107W        W31516   0.120  18.679   0.644
65108W        W31517  11.411  39.874   4.531
65109W        W31518  27.341   1.485   3.579
65110W        W31519  44.959  13.112  12.132
65111W        W31520  20.211  41.083   2.660
65112W        W31521  33.954  17.740   3.088
65113W        W31522   9.411  19.008  14.073
65114W        W31523  33.303   6.666   3.247
65115W        W31524  37.096  17.093  12.130
65116W        W31525  39.055  28.711  13.811
65117W        W31526  24.642  17.995   1.299
65118W        W31527   7.790   1.799   0.484
65119W        W31528  27.561   5.223  12.854
65120W        W31529   7.492   4.487  12.649
65121W        W31530  23.571  15.718   4.226
65122W        W31531  32.947   5.495   2.586
65123W        W31532  25.010  26.224   1.803
65124W        W31533  38.337  24.784   3.353
65125W        W31534  31.659  35.418  13.293
65126W        W31535  23.507   5.307  11.633
65127W        W31536  28.890  14.202   3.595
65128W        W31537  27.602  23.742   4.996
65129W        W31538  41.971  14.431   5.144
65130W        W31539  21.794  12.582   2.990
65131W        W31540   4.869   5.766  13.043
65132W        W31541  36.772  38.049   1.384
65133W        W31542   7.063   6.260  11.101
65134W        W31543  41.533  27.965   1.283
65135W        W31544  21.723  40.541  12.757
65136W        W31545   6.446  22.389   1.752
65137W        W31546  34.683  24.475  11.703
65138W        W31547  29.604  28.640  12.595
65139W        W31548  15.104  36.537  13.527
65140W        W31549  30.808  38.578   0.667
65141W        W31550   6.008   1.716   2.776
65142W        W31551  10.730   7.031   0.109
65143W        W31552   8.852   1.954  13.432
65144W        W31553   1.230  15.320   1.723
65145W        W31554  18.256  19.613  14.503
65146W        W31555  24.748  20.585  11.761
65147W        W31556  26.145   9.937  12.988
65148W        W31557  18.524  40.949   0.923
65149W        W31558   4.711  28.829  11.990
65150W        W31559   7.252  13.620   2.891
65151W        W31560   8.153  28.228   4.524
65152W        W31561  26.007  21.150  13.488
65153W        W31562  22.251  32.423   2.283
65154W        W31563  11.077   7.428  13.497
65155W        W31564  30.189   7.978   3.720
65156W        W31565   9.279  44.958  10.292
65157W        W31566  13.721   8.130  11.162
65158W        W31567  34.513  41.024   4.833
65159W        W31568  13.647  18.958  10.663
65160W        W31569  30.698  11.908  12.847
65161W        W31570   1.841  41.469   5.011
65162W        W31571  19.637  13.251  11.183
65163W        W31572  20.302   4.889  13.859
65164W        W31573  25.131  19.060   4.990
65165W        W31574  32.221  22.016   1.789
65166W        W31575  22.865  33.476   0.305
65167W        W31576  35.437  11.732   0.860
65168W        W31577  32.396  36.454  11.508
65169W        W31578  17.046  36.568   4.207
65170W        W31579  31.078  22.608   1.528
65171W        W31580  20.246  32.489   3.137
65172W        W31581  27.925  34.244   4.096
65173W        W31582  31.010  26.234   0.452
65174W        W31583   6.591  18.318  12.994
65175W        W31584  38.028   0.941  14.936
65176W        W31585  16.863  15.497  13.372
65177W        W31586  38.163   5.235   4.626
65178W        W31587  22.310  24.637  10.728
65179W        W31588  21.690  40.030   3.804
65180W        W31589  28.638  41.288   4.090
65181W        W31590  24.086  39.390   2.940
65182W        W31591  31.587  23.893   0.267
65183W        W31592  20.139  15.168   3.785
65184W        W31593  33.562   8.396  14.868
65185W        W31594  24.558  38.558   0.256
65186W        W31595  10.306  40.295   2.355
65187W        W31596   5.804  18.342   4.596
65188W        W31597   9.760  35.057  10.572
65189W        W31598  11.244  43.823  13.337
65190W        W31599  36.330  34.849  11.966
65191W        W31600  41.365  10.257  12.522
65192W        W31601  25.921  26.625  10.269
65193W        W31602  38.387  13.841   3.842
65194W        W31603  22.603  38.925  10.552
65195W        W31604  28.221  30.888  13.112
65196W        W31605  33.636   7.592   1.383
65197W        W31606  18.996  26.181  10.727
65198W        W31607  16.361  33.179   0.320
65199W        W31608  24.808   8.571  12.389
65200W        W31609  32.927  20.552  13.660
65201W        W31610   8.810  40.629  13.593
65202W        W31611   5.286   2.382  12.079
65203W        W31612  15.993   4.215  10.143
65204W        W31613  28.227   2.442   0.917
65205W        W31614  17.714  41.028  12.185
65206W        W31615  41.003  36.024   2.442
65207W        W31616  26.372   5.685  11.086
65208W        W31617  27.045  25.215  10.755
65209W        W31618  11.275  26.260  14.425
65210W        W31619  19.706  38.989  12.156
65211W        W31620  20.590   6.204   0.440
65212W        W31621  38.404  11.905  11.955
65213W        W31622  39.517  32.363  13.033
65214W        W31623   7.844  15.133   4.503
65215W        W31624  17.799  30.676  12.148
65216W        W31625  17.145  31.951   0.455
65217W        W31626  19.153  37.830  13.498
65218W        W31627   1.464  37.850  12.982
65219W        W31628  14.962   4.459   4.534
65220W        W31629   9.896  31.136   5.087
65221W        W31630  35.101   2.388  11.226
65222W        W31631  29.079  23.542   4.697
65223W        W31632  39.659  20.623   4.598
65224W        W31633  16.805   0.576   2.339
65225W        W31634  22.478  44.785   3.261
65226W        W31635  38.741  32.298  12.044
65227W        W31636   1.746  29.984  14.337
65228W        W31637  43.180  35.814   4.431
65229W        W31638  26.734  28.878  14.805
65230W        W31639  27.526   8.734  14.125
65231W        W31640  24.676  34.164  13.740
65232W        W31641  13.714  35.105  14.850
65233W        W31642  22.482  36.092   0.733
65234W        W31643   9.698  43.652  11.999
65235W        W31644  41.396  44.517   4.515
65236W        W31645   3.654   5.939   3.270
65237W        W31646  23.298   0.351   1.628
65238W        W31647  22.194   6.743   1.846
65239W        W31648  27.343   1.992   0.821
65240W        W31649  16.005  24.122   3.666
65241W        W31650  22.996  37.189   4.118
65242W        W31651  20.238  11.630   2.924
65243W        W31652  32.139  31.420   0.279
65244W        W31653  27.986   6.273   2.189
65245W        W31654   2.301  43.281   3.259
65246W        W31655   9.182  16.553   3.760
65247W        W31656   0.468   4.904  10.671
65248W        W31657   7.814  12.651  14.524
65249W        W31658  41.022  20.787  13.524
65250W        W31659  35.790  18.891   2.843
65251W        W31660  27.626  40.574   0.096
65252W        W31661  42.939  36.544   4.331
65253W        W31662   0.705  37.783   2.212
65254W        W31663   8.796  19.607  14.383
65255W        W31664  19.519  43.926  11.183
65256W        W31665  44.338   3.771  13.276
65257W        W31666  43.564  20.473  14.823
65258W        W31667  33.005   0.752   2.930
65259W        W31668  44.880  27.697  14.393
65260W        W31669  19.884  35.734  11.542
65261W        W31670   9.377  31.910   4.084
65262W        W31671   9.170   8.622  13.820
65263W        W31672  41.760  10.359   1.872
65264W        W31673  37.880  19.505   1.000
65265W        W31674  41.972  10.699   0.177
65266W        W31675  44.223  27.069   0.936
65267W        W31676  19.076   9.289   4.528
65268W        W31677  40.873   7.794  12.781
65269W        W31678  25.804   4.915  12.918
65270W        W31679  39.708  26.443   0.236
65271W        W31680  25.331  15.181  10.490
65272W        W31681   1.709  12.546  12.176
65273W        W31682  29.813   9.834  12.592
65274W        W31683  31.621  11.654  14.060
65275W        W31684  39.429  26.711   4.249
65276W        W31685  29.034  20.017  14.225
65277W        W31686  28.362  44.136   1.720
65278W        W31687  12.555  27.087   1.422
65279W        W31688  18.138  40.469   4.609
65280W        W31689  41.050   8.622   4.171
65281W        W31690  37.728  15.580  12.337
65282W        W31691  29.226  37.347  13.226
65283W        W31692  42.502  30.588   4.802
65284W        W31693  39.907  39.448  12.569
65285W        W31694  30.163  33.638   4.635
65286W        W31695  39.596  41.046   3.746
65287W        W31696  22.017  31.139   3.181
65288W        W31697  21.090   3.577   0.752
65289W        W31698  24.636  10.766   1.625
65290W        W31699  13.749   5.390   3.169
65291W        W31700  16.062  18.867   1.756
65292W        W31701  14.366  19.678   4.092
65293W        W31702  27.439  36.338   1.784
65294W        W31703   1.710   9.780   4.656
65295W        W31704  39.444   6.496  11.092
65296W        W31705  15.885  24.423  11.527
65297W        W31706  11.333  22.543  13.035
65298W        W31707  21.450   0.315   4.246
65299W        W31708  33.891   7.306  14.211
65300W        W31709  30.717   1.631   2.655
65301W        W31710  25.739  34.105   0.451
65302W        W31711  32.912  41.435  10.833
65303W        W31712  38.883  40.902   1.330
65304W        W31713   1.477  19.011   3.758
65305W        W31714   9.396  10.936   4.119
65306W        W31715  29.586  43.919   1.228
65307W        W31716  38.157  32.420  12.652
65308W        W31717  12.511  34.460   3.186
65309W        W31718  33.010  20.091   2.789
65310W        W31719  40.045  28.629  13.864
65311W        W31720  41.850  43.278   4.114
65312W        W31721  14.961  30.092  14.284
65313W        W31722   3.397  35.322   3.120
65314W        W31723  20.891  28.960   4.492
65315W        W31724  33.329   9.319   3.704
65316W        W31725  29.547   6.847   0.745
65317W        W31726  33.331   9.905  14.837
65318W        W31727  41.045  34.631   2.703
65319W        W31728   4.812  20.612  11.647
65320W        W31729  40.449  12.231  10.712
65321W        W31730  41.556   4.939  14.506
65322W        W31731  19.764  44.864   1.188
65323W        W31732  24.655   1.980   2.258
65324W        W31733   5.245  36.121   2.304
65325W        W31734  39.835  14.818   0.389
65326W        W31735  43.510  12.575   3.605
65327W        W31736  41.482  40.006  14.363
65328W        W31737  20.650  27.110   2.169
65329W        W31738  38.365  30.545  14.909
65330W        W31739  29.034   4.966  14.043
65331W        W31740  27.283  22.420  14.960
65332W        W31741  39.860  28.260  11.459
65333W        W31742  14.947  43.824  12.086
65334W        W31743  24.583  28.734   4.318
65335W        W31744  16.977   0.478   9.923
65336W        W31745  13.298   6.475   3.653
65337W        W31746  12.631  43.867  13.843
65338W        W31747  12.113   4.263   0.921
65339W        W31748  39.495  43.708   2.552
65340W        W31749   7.837  21.126  13.123
65341W        W31750  43.525   2.059  11.666
65342W        W31751  10.680  28.201  12.357
65343W        W31752  30.661  31.111  13.727
65344W        W31753  14.814  43.625  10.232
65345W        W31754  30.476   5.330   2.819
65346W        W31755  42.504  29.188  11.500
65347W        W31756   5.153   9.440   2.707
65348W        W31757   8.682  14.905   0.044
65349W        W31758   8.819  21.530  10.975
65350W        W31759  15.612  43.376   2.197
65351W        W31760  24.391   4.378   4.224
65352W        W31761  44.237  17.985  10.416
65353W        W31762   0.992  25.840  14.048
65354W        W31763  22.841   0.671   3.451
65355W        W31764  18.263  22.313   0.197
65356W        W31765   8.806  19.565  12.893
65357W        W31766  12.746  10.369  12.046
65358W        W31767  26.898  25.073  14.827
65359W        W31768  44.424  20.162  11.528
65360W        W31769  40.258  24.492   2.604
65361W        W31770  23.529  43.394   2.282
65362W        W31771  23.865  31.988   1.440
65363W        W31772  38.472  16.876  11.125
65364W        W31773  35.347   1.334  13.207
65365W        W31774  26.432   3.716   3.807
65366W        W31775  37.249  37.890  14.529
65367W        W31776  22.972  18.995   3.340
65368W        W31777  44.284   3.188   5.173
65369W        W31778  30.113   9.794  14.827
65370W        W31779  23.122   0.896   2.919
65371W        W31780  27.813  39.785   2.658
65372W        W31781  19.734  26.483   2.880
65373W        W31782  25.392   7.478   0.887
65374W        W31783  39.474   3.632   1.308
65375W        W31784  32.216  10.806   3.747
65376W        W31785  15.069  37.233   3.141
65377W        W31786  37.406  31.652  14.065
65378W        W31787   1.781  23.508  13.973
65379W        W31788  41.189  31.644  12.842
65380W        W31789  14.082  29.073  13.482
65381W        W31790  24.564  43.098  14.100
65382W        W31791  19.755  37.400  12.822
65383W        W31792   4.378  30.155  13.082
65384W        W31793  24.524  14.948   4.602
65385W        W31794  22.975   6.409  12.833
65386W        W31795  37.494  16.412  11.544
65387W        W31796  34.635  21.756  12.090
65388W        W31797  17.288   0.904   0.217
65389W        W31798  21.205  34.149  11.623
65390W        W31799  32.327  32.963  11.028
65391W        W31800   0.085  10.499  10.718
65392W        W31801  30.881  31.634   3.648
65393W        W31802   1.259  17.464   2.477
65394W        W31803  29.564  25.392  13.385
65395W        W31804  23.061  41.274  11.655
65396W        W31805  42.804   3.227  14.296
65397W        W31806  12.551  34.355   0.294
65398W        W31807  18.845  14.623   1.501
65399W        W31808  21.976  40.489   2.399
65400W        W31809  17.665  21.596   0.934
65401W        W31810  30.789  21.154   4.780
65402W        W31811   7.897  30.262  12.399
65403W        W31812  41.402  42.953  12.161
65404W        W31813  27.331  39.116   2.283
65405W        W31814  27.195   4.039   3.301
65406W        W31815  17.460  35.327   5.037
65407W        W31816   8.199   9.702   0.030
65408W        W31817  32.954   7.413   1.333
65409W        W31818  20.653  44.418   4.248
65410W        W31819  10.296  30.162  13.976
65411W        W31820  14.502  26.761  11.970
65412W        W31821  27.034  37.765   0.003
65413W        W31822   5.848  11.634   1.841
65414W        W31823  40.956  26.139  14.040
65415W        W31824   6.795  36.141  12.494
65416W        W31825  39.013  10.244  13.802
65417W        W31826   5.142  10.786   0.798
65418W        W31827  26.325   9.791   3.539
65419W        W31828   9.276  19.147  12.487
65420W        W31829  35.672  43.890  13.598
65421W        W31830  32.451  32.483  11.125
65422W        W31831  15.185   6.936  12.469
65423W        W31832  43.581   7.212  12.025
65424W        W31833  14.292  22.498  13.388
65425W        W31834  33.359  29.725   2.715
65426W        W31835  19.285  11.081   0.849
65427W        W31836   9.418   3.007   0.009
65428W        W31837  16.423   9.832   4.472
65429W        W31838  19.988   4.873   5.028
65430W        W31839   7.449  24.999   1.706
65431W        W31840  11.793  41.030   2.658
65432W        W31841  12.086  15.102   3.679
65433W        W31842  24.309   0.467  11.321
65434W        W31843  39.832  23.832   3.925
65435W        W31844  23.662  34.171   4.144
65436W        W31845  13.590  42.477   3.239
65437W        W31846  36.389   3.550   2.659
65438W        W31847  15.789  33.374  12.866
65439W        W31848   3.154  42.465  14.410
65440W        W31849  27.885  17.159   1.115
65441W        W31850  30.426  36.710  12.138
65442W        W31851  33.395  36.903  10.326
65443W        W31852  23.519   6.776  10.720
65444W        W31853  28.212  21.250  13.962
65445W        W31854  20.017   7.570   0.828
65446W        W31855  43.956   2.432   4.360
65447W        W31856  41.756   9.197  14.833
65448W        W31857  26.959  38.422   0.720
65449W        W31858  38.893  27.482  14.902
65450W        W31859  17.687  35.693  14.376
65451W        W31860  15.740  39.326   3.415
65452W        W31861  16.808  18.691   2.346
65453W        W31862  26.707   7.799  14.912
65454W        W31863  38.922   0.856   0.002
65455W        W31864  27.131  21.534   4.221
65456W        W31865  34.537   3.708   3.620
65457W        W31866  37.264  12.566   2.183
65458W        W31867  16.086  26.649   1.478
65459W        W31868  37.237   0.730   2.507
65460W        W31869  14.742   4.124   0.999
65461W        W31870  15.258  38.918   1.697
65462W        W31871   7.674  39.542  13.447
65463W        W31872  37.801  42.250   1.150
65464W        W31873  33.248  22.536  13.378
65465W        W31874  14.548  30.061  11.161
65466W        W31875  34.908  17.470   2.811
65467W        W31876  39.629  15.275  11.006
65468W        W31877   6.841  17.484   0.886
65469W        W31878  26.522  37.714   4.122
65470W        W31879  41.859   3.048   3.438
65471W        W31880   5.213  14.776  11.396
65472W        W31881  13.991  32.414   5.509
65473W        W31882  21.545  27.210  13.101
65474W        W31883  28.479  15.990  14.212
65475W        W31884  21.141  44.531  11.590
65476W        W31885  30.519  43.775   3.653
65477W        W31886   6.995   9.582  12.897
65478W        W31887  28.364  12.414  11.049
65479W        W31888   2.459  14.671   4.755
65480W        W31889   0.880  21.191   5.328
65481W        W31890  44.876  21.578  13.521
65482W        W31891  17.566   3.274   1.181
65483W        W31892  28.060  12.026  12.612
65484W        W31893   9.737   5.268   1.325
65485W        W31894   4.289  18.084  12.499
65486W        W31895  39.342  21.602   0.076
65487W        W31896  39.823  14.065   1.163
65488W        W31897  25.663  22.713   1.256
65489W        W31898  13.560  29.341   1.323
65490W        W31899  19.251  37.410  14.263
65491W        W31900  23.243  27.311   1.508
65492W        W31901   4.283   1.647  12.988
65493W        W31902   2.089  22.946  13.265
65494W        W31903  14.377   2.757  13.376
65495W        W31904   4.791  11.611  14.566
65496W        W31905  22.674   7.848   3.149
65497W        W31906   3.698  41.485   3.210
65498W        W31907  37.020  31.956   2.431
65499W        W31908  30.707  17.144  11.417
65500W        W31909  41.319  17.197   2.328
65501W        W31910  20.579   8.754  12.776
65502W        W31911   1.516  10.247   4.835
65503W        W31912  22.927  11.234   0.290
65504W        W31913  36.293  16.484   0.095
65505W        W31914  25.552  13.284  14.890
65506W        W31915  37.625  29.831  11.660
65507W        W31916  43.973  42.890  12.811
65508W        W31917  32.403   9.398   2.349
65509W        W31918   7.935   0.227  13.812
65510W        W31919  15.033   3.830  11.156
65511W        W31920  11.729  30.186   2.599
65512W        W31921   6.178  34.502  13.029
65513W        W31922   2.407  22.301  11.109
65514W        W31923  27.288  28.880   0.335
65515W        W31924  36.777   7.911   3.523
65516W        W31925  29.650   4.839  12.910
65517W        W31926  30.958   0.207  10.791
65518W        W31927   8.204   3.241  10.654
65519W        W31928  26.464  38.980  12.450
65520W        W31929  38.077  17.223  12.156
65521W        W31930   0.735  14.921  13.391
65522W        W31931   5.337   7.732   4.116
65523W        W31932  33.023  16.301   1.653
65524W        W31933  16.711  38.053   2.585
65525W        W31934   7.404  19.799  12.529
65526W        W31935  14.750  28.193   3.778
65527W        W31936  26.651  44.892  12.772
65528W        W31937  44.444  34.914   2.644
65529W        W31938  18.249  26.731   1.426
65530W        W31939  22.479  18.849   0.284
65531W        W31940  34.400  14.487  12.548
65532W        W31941  43.153  31.571   2.347
65533W        W31942   5.785   4.501  12.536
65534W        W31943  37.445  25.840   4.764
65535W        W31944  34.835  31.971  14.761
65536W        W31945  16.343  39.844   2.745
65537W        W31946  11.377  24.549   1.978
65538W        W31947   5.746  42.926  13.923
65539W        W31948  10.669   8.156   4.528
65540W        W31949  38.403  24.066   4.751
65541W        W31950  12.291   2.527   4.998
65542W        W31951  23.030  10.985  11.927
65543W        W31952  43.771  37.452  10.730
65544W        W31953  37.090  15.362   1.732
65545W        W31954  19.112  33.021   4.456
65546W        W31955  19.647  11.972  11.619
65547W        W31956   4.354   8.803  11.572
65548W        W31957  43.858  34.840  13.304
65549W        W31958  31.488   4.637   2.365
65550W        W31959  27.061  36.148   3.476
65551W        W31960  13.202   6.655  14.931
65552W        W31961  35.218  34.893   0.979
65553W        W31962  31.409  28.054  10.682
65554W        W31963  24.004  36.791   1.773
65555W        W31964  20.818  32.866   0.358
65556W        W31965  34.065  39.344   1.913
65557W        W31966   5.215  32.797   1.630
65558W        W31967  18.169  30.923  10.432
65559W        W31968   1.341  31.421  13.943
65560W        W31969   8.336  43.873  12.823
65561W        W31970  22.595  39.878   3.878
65562W        W31971  18.229  38.954  11.913
65563W        W31972   5.935  28.969   4.945
65564W        W31973   0.727  39.864   0.237
65565W        W31974  42.561  42.374   4.704
65566W        W31975  12.210  22.042  13.910
65567W        W31976  34.798  36.964  13.022
65568W        W31977  17.007  35.197   4.153
65569W        W31978  42.853  37.993   2.220
65570W        W31979  30.069  32.652  11.266
65571W        W31980  42.891  11.363   0.912
65572W        W31981   5.250  44.352   0.938
65573W        W31982   1.194  38.018   1.321
65574W        W31983  21.496   5.711   0.299
65575W        W31984  35.054  36.801  14.742
65576W        W31985  44.155  36.325   1.547
65577W        W31986  41.467  42.817   0.474
65578W        W31987  10.740  38.597   0.849
65579W        W31988  20.169  22.222  14.000
65580W        W31989   5.437  38.766   4.198
65581W        W31990  31.948   7.754  10.606
65582W        W31991  34.067  18.821   4.183
65583W        W31992  39.386   1.218   2.907
65584W        W31993   4.963  39.019   4.213
65585W        W31994   6.243   1.688  11.634
65586W        W31995  31.324   3.258  12.571
65587W        W31996   5.682  44.852   1.645
65588W        W31997  40.266  15.052  11.373
65589W        W31998   2.906   5.417  11.590
65590W        W31999   5.031  17.219  10.699
65591W        W32000   9.902  23.659   2.638
65592W        W32001  33.195  32.457   1.901
65593W        W32002   5.223  11.909  12.066
65594W        W32003  28.286  40.435  12.396
65595W        W32004  15.452  40.489  10.944
65596W        W32005  33.888  34.575  10.460
65597W        W32006  13.546  22.460  14.907
65598W        W32007  24.455  18.210   1.795
65599W        W32008  43.351  17.585   4.091
65600W        W32009  14.408  23.160   1.191
65601W        W32010  36.503   6.853  11.618
65602W        W32011  32.319   3.321   2.144
65603W        W32012   0.877   2.741  11.141
65604W        W32013  27.156  27.431   1.775
65605W        W32014  21.631  42.288  10.695
65606W        W32015  25.551  33.726  11.252
65607W        W32016   1.837  30.921   2.966
65608W        W32017  36.383  16.167   3.897
65609W        W32018   0.905  22.052   4.966
65610W        W32019  42.636  17.249  12.852
65611W        W32020  21.411  16.319  14.472
65612W        W32021   5.843  19.470  14.256
65613W        W32022  17.300  37.040   4.251
65614W        W32023  22.337  15.603  11.532
65615W        W32024  38.356  38.851   2.369
65616W        W32025   0.328  27.525   2.753
65617W        W32026   9.072  36.154   1.456
65618W        W32027  16.147  13.274   1.249
65619W        W32028  12.652   8.538  13.577
65620W        W32029   5.671  41.511  12.500
65621W        W32030  21.659  35.810   1.112
65622W        W32031  13.414   8.263   3.159
65623W        W32032   4.680   2.170   0.879
65624W        W32033  10.897  18.251   0.380
65625W        W32034   8.570  11.259   0.256
65626W        W32035   7.640  36.093  12.611
65627W        W32036  20.656  39.256   1.286
65628W        W32037   8.440  30.778  10.778
65629W        W32038  42.357  38.371   1.960
65630W        W32039  12.101  25.948  12.064
65631W        W32040  34.530  14.607   3.085
65632W        W32041  38.910  43.747  14.540
65633W        W32042  27.160  26.530  14.452
65634W        W32043   0.183  11.587  13.972
65635W        W32044   3.772  18.132   1.372
65636W        W32045  38.450   8.817   4.425
65637W        W32046  20.740   7.312  14.266
65638W        W32047   3.762   7.810  12.808
65639W        W32048  19.657   1.289  14.786
65640W        W32049   7.946  18.254  14.465
65641W        W32050  24.136  26.397  14.606
65642W        W32051  43.961  35.950  11.368
65643W        W32052   9.591  17.432  12.732
65644W        W32053  18.162  43.912   4.106
65645W        W32054  21.256  10.389   0.463
65646W        W32055  17.946  38.984  12.357
65647W        W32056   5.244   8.292   1.937
65648W        W32057   6.948  16.862   1.569
65649W        W32058  10.590  21.154   0.354
65650W        W32059   9.419  13.636  13.167
65651W        W32060  40.562  37.611   0.722
65652W        W32061  39.270   9.385   2.954
65653W        W32062  15.609  38.479   3.782
65654W        W32063  36.519  31.485  12.554
65655W        W32064  32.004  30.053   0.482
65656W        W32065  16.581  24.460   2.218
65657W        W32066  18.083  28.017   0.941
65658W        W32067  15.104  10.273  12.809
65659W        W32068  17.562   4.821  10.717
65660W        W32069   7.798  29.599   0.394
65661W        W32070   2.426  23.406  14.570
65662W        W32071  17.144   0.684  13.812
65663W        W32072  27.321  36.057  13.498
65664W        W32073  40.951  44.752  13.422
65665W        W32074  38.519  16.477  11.469
65666W        W32075  21.776   0.286   3.288
65667W        W32076   9.568  18.264  12.625
65668W        W32077  21.022   7.112   4.600
65669W        W32078   9.507  22.449  10.410
65670W        W32079  32.468  23.114   0.908
65671W        W32080  41.440  12.707  14.030
65672W        W32081  27.185   4.717  14.797
65673W        W32082  39.922  34.323   3.586
65674W        W32083   7.149  39.387   1.497
65675W        W32084  22.587  41.988   2.257
65676W        W32085  27.735  28.552   2.354
65677W        W32086  19.204   5.825   3.166
65678W        W32087  32.396  10.788  10.524
65679W        W32088   4.480  40.431  13.975
65680W        W32089  21.990   0.122   2.694
65681W        W32090  17.535   7.544   4.246
65682W        W32091  43.114   0.429  14.153
65683W        W32092  15.164  32.764   1.678
65684W        W32093  31.323  36.999   1.297
65685W        W32094  19.253  25.163   0.370
65686W        W32095  32.929   0.532  10.720
65687W        W32096  17.603  32.156   0.313
65688W        W32097  38.857  14.669  11.042
65689W        W32098  24.433  13.594  14.480
65690W        W32099  44.775  32.619  10.678
65691W        W32100  21.735   3.321   1.887
65692W        W32101  22.086  27.748   4.372
65693W        W32102   9.376  22.468   1.196
65694W        W32103  11.185  23.594   1.760
65695W        W32104   8.958  21.842  14.389
65696W        W32105  19.453  15.761   3.420
65697W        W32106   2.424  36.538   3.257
65698W        W32107  11.640  36.071  10.242
65699W        W32108  12.873  20.912  13.440
65700W        W32109  29.624  41.904  13.823
65701W        W32110  20.023  29.540   4.584
65702W        W32111  34.683  44.193   4.911
65703W        W32112   7.860   4.259   0.466
65704W        W32113  21.721   0.974   0.766
65705W        W32114  22.531  25.829  11.474
65706W        W32115   4.669   8.913  14.607
65707W        W32116  29.147  42.432   1.250
65708W        W32117  22.580  40.006  12.494
65709W        W32118  35.282  31.152   0.748
65710W        W32119  21.209  42.540  11.569
65711W        W32120  21.604   2.233   1.300
65712W        W32121   5.286  15.246  11.070
65713W        W32122  12.263   4.726  13.436
65714W        W32123  20.129  15.697   1.854
65715W        W32124   9.812  30.120   5.225
65716W        W32125  44.052  21.658   4.197
65717W        W32126  19.117  36.291   2.819
65718W        W32127   3.402  20.678  11.909
65719W        W32128  28.701  44.285  13.883
65720W        W32129  42.615  32.587   3.750
65721W        W32130  36.020   8.025  12.548
65722W        W32131  10.331  44.536  12.832
65723W        W32132  29.138  31.290  13.918
65724W        W32133  38.976   3.516  14.405
65725W        W32134  13.724  18.039  12.671
65726W        W32135   2.301  20.324   3.858
65727W        W32136  14.640   0.723   4.179
65728W        W32137  10.661   8.779  14.855
65729W        W32138  32.983   7.317  13.733
65730W        W32139  17.146  35.112  11.935
65731W        W32140  32.049   3.189  13.033
65732W        W32141   3.026   9.292  13.670
65733W        W32142  31.100  42.354   0.488
65734W        W32143  33.553  35.567   0.423
65735W        W32144  42.376  10.927   3.114
65736W        W32145  25.126   9.869   3.242
65737W        W32146  34.379  11.614   4.599
65738W        W32147  35.382  17.378   0.309
65739W        W32148  27.637  12.144   1.267
65740W        W32149  35.769  20.638  10.785
65741W        W32150  39.898  22.417  11.679
65742W        W32151   0.681  34.365   5.013
65743W        W32152  38.484  42.986   2.948
65744W        W32153  22.757   5.933  14.833
65745W        W32154  30.078   1.769  13.742
65746W        W32155   2.242  38.121  11.628
65747W        W32156   0.210  37.990  14.789
65748W        W32157  14.984   6.156   3.046
65749W        W32158   3.751   3.635  11.212
65750W        W32159  12.047  28.893  12.928
65751W        W32160  10.400  22.036   4.117
65752W        W32161  29.551  43.335   2.668
65753W        W32162  22.019  28.650  14.724
65754W        W32163  14.773   7.023   2.227
65755W        W32164  38.692  22.145   2.827
65756W        W32165  40.296  37.007   3.820
65757W        W32166   0.707  31.425  12.910
65758W        W32167   9.629  19.164   0.895
65759W        W32168   4.745   1.219   4.648
65760W        W32169  42.064   3.499  13.605
65761W        W32170  32.305  34.785  12.601
65762W        W32171   8.516   6.863  13.414
65763W        W32172   6.700  12.277   1.743
65764W        W32173  31.022   4.940   1.602
65765W        W32174  24.777  13.684  12.719
65766W        W32175   4.840  37.626  11.088
65767W        W32176  19.243  26.404   3.091
65768W        W32177   4.526  25.141   9.804
65769W        W32178  21.144  10.343   1.375
65770W        W32179   5.301  19.342   4.968
65771W        W32180  31.475  14.150   4.357
65772W        W32181   1.536  15.521  12.044
65773W        W32182   8.586  29.135  10.637
65774W        W32183   5.288  13.771  11.622
65775W        W32184  41.717  34.745   3.776
65776W        W32185  23.150   5.264  14.299
65777W        W32186  44.510  24.504  12.853
65778W        W32187  21.359   4.745   1.782
65779W        W32188  10.127  18.030   4.040
65780W        W32189  17.279  39.798  12.573
65781W        W32190  13.688  32.722  10.267
65782W        W32191  30.667  34.004   2.813
65783W        W32192   2.394  21.158  14.285
65784W        W32193  24.939  31.784  13.498
65785W        W32194  29.530   5.297  13.789
65786W        W32195   5.398  15.763  11.193
65787W        W32196  10.901  11.743   3.817
65788W        W32197  29.825   1.449  14.539
65789W        W32198  28.269  23.198   3.263
65790W        W32199   0.449  40.475  11.966
65791W        W32200  21.578  27.471   2.114
65792W        W32201  39.461  11.107   1.258
65793W        W32202  20.962   0.716   1.182
65794W        W32203  19.768  43.456   0.361
65795W        W32204  38.476  11.355  14.360
65796W        W32205  17.155   9.430  12.894
65797W        W32206  33.921  28.915  14.445
65798W        W32207   8.312  20.089   1.279
65799W        W32208   9.410  14.417  13.910
65800W        W32209  27.019  34.441   1.637
65801W        W32210  23.911  14.488   4.153
65802W        W32211  32.052   7.250  11.992
65803W        W32212  32.968  33.977   2.989
65804W        W32213   6.611  35.028   1.793
65805W        W32214   4.219   7.459  12.124
65806W        W32215  21.349  37.577  11.170
65807W        W32216  19.438  23.309  13.081
65808W        W32217  17.672  20.616   9.792
65809W        W32218  43.501   1.138   4.333
65810W        W32219   9.858  40.551  13.778
65811W        W32220  39.888  42.407   4.561
65812W        W32221  27.984  30.721   1.661
65813W        W32222   8.646  28.029   4.973
65814W        W32223  35.353   7.357  11.519
65815W        W32224   7.818  13.411   0.245
65816W        W32225  21.221  44.967  11.881
65817W        W32226  23.666  37.893  11.630
65818W        W32227  22.555   9.195  11.531
65819W        W32228   8.120  30.684   2.811
65820W        W32229   9.478  28.936   1.857
65821W        W32230  10.802  19.758  13.242
65822W        W32231  16.849   0.265  13.879
65823W        W32232  28.319  17.715  13.898
65824W        W32233  39.264  12.281  14.825
65825W        W32234   2.513  14.319   3.904
65826W        W32235   1.922  23.685  12.593
65827W        W32236  15.438   3.230   4.799
65828W        W32237  22.693  24.109  11.872
65829W        W32238  21.026  16.599   3.721
65830W        W32239  33.519  14.510   1.133
65831W        W32240  41.377   5.716  13.929
65832W        W32241  18.714  44.187   3.090
65833W        W32242  35.980   1.556  11.106
65834W        W32243   4.429   7.117   0.909
65835W        W32244  33.861  15.782   0.894
65836W        W32245   2.176   6.363   4.123
65837W        W32246  31.169  40.124  11.693
65838W        W32247  39.077  43.035  11.994
65839W        W32248  29.135   7.707   4.542
65840W        W32249  35.546  21.416   1.865
65841W        W32250  32.257  29.634   2.848
65842W        W32251  43.785  11.283  13.834
65843W        W32252   8.941   4.890   4.531
65844W        W32253  34.930  12.673   0.986
65845W        W32254  37.538   2.421   2.629
65846W        W32255  19.837  21.100   4.129
65847W        W32256  44.638  27.529  10.116
65848W        W32257  22.396   7.204   0.660
65849W        W32258   0.565  23.875  10.781
65850W        W32259  38.574  33.592  11.144
65851W        W32260   2.657  41.482   3.155
65852W        W32261  31.934  19.517   2.519
65853W        W32262  16.384  42.360   1.636
65854W        W32263  29.956  43.395   4.716
65855W        W32264   0.480  33.772  11.553
65856W        W32265  32.143  37.555   2.789
65857W        W32266   3.910   6.474  13.447
65858W        W32267  43.641   5.368  10.575
65859W        W32268  14.045  10.598  13.978
65860W        W32269  10.913   2.279  11.237
65861W        W32270  28.123   5.595  10.897
65862W        W32271  27.060   2.249  12.010
65863W        W32272   9.110  11.699  13.505
65864W        W32273  28.215  26.656  11.108
65865W        W32274  32.186   8.753  10.816
65866W        W32275  21.596  25.077   3.241
65867W        W32276  42.873  11.446  13.663
65868W        W32277   5.996  38.673  13.943
65869W        W32278  10.875  31.541   3.731
65870W        W32279  31.943   9.412   1.444
65871W        W32280  24.737  10.116  10.314
65872W        W32281  31.235  35.687   1.896
65873W        W32282  32.134  17.382   1.678
65874W        W32283  43.343  35.570  13.291
65875W        W32284  38.432  20.044  14.877
65876W        W32285  30.669  35.857   3.038
65877W        W32286  26.205  20.965   3.276
65878W        W32287  13.692  42.332  11.728
65879W        W32288  38.831  12.958  10.715
65880W        W32289  24.855  39.902   0.338
65881W        W32290   7.259  31.352   3.591
65882W        W32291  19.212  21.568   2.117
65883W        W32292  24.710   2.447  13.268
65884W        W32293  36.302  36.327   0.769
65885W        W32294  26.984  40.223   3.706
65886W        W32295  37.427   4.923  13.815
65887W        W32296  18.514  37.575   5.096
65888W        W32297  17.136  11.009  10.688
65889W        W32298   0.325  20.287  14.997
65890W        W32299   9.434  22.279  14.873
65891W        W32300  16.791  22.219  14.417
65892W        W32301   9.557  18.677   3.241
65893W        W32302  20.524  35.386   4.709
65894W        W32303  26.447  36.874  14.248
65895W        W32304   5.561  33.830  13.463
65896W        W32305  22.874  34.459  12.462
65897W        W32306  14.717   8.423   2.367
65898W        W32307   0.056  25.000   3.846
65899W        W32308  27.547  42.448  14.343
65900W        W32309  38.915   5.365  12.513
65901W        W32310  29.209  12.054  10.128
65902W        W32311  41.528  23.673   3.091
65903W        W32312  25.875  11.883   3.794
65904W        W32313  23.979  40.047   3.592
65905W        W32314  44.295  44.861  11.800
65906W        W32315   7.374  22.316   1.817
65907W        W32316  27.111  40.495   1.362
65908W        W32317  15.351  12.128   4.483
65909W        W32318  27.064  38.107  10.646
65910W        W32319  32.991   5.970  14.111
65911W        W32320   2.065   4.389  11.157
65912W        W32321  39.806  39.884  12.291
65913W        W32322   7.422   6.505   0.362
65914W        W32323  29.193  32.792  13.082
65915W        W32324  11.995  35.603  14.918
65916W        W32325   7.670  13.675  14.283
65917W        W32326   4.424   0.261   2.433
65918W        W32327  37.815  37.928   4.607
65919W        W32328  27.258   2.670   1.902
65920W        W32329  41.038  37.135  10.632
65921W        W32330  32.684   4.448   3.718
65922W        W32331  41.142  27.758  12.707
65923W        W32332   6.349  39.634  11.449
65924W        W32333  18.757   2.271  12.929
65925W        W32334   1.876   6.183  11.225
65926W        W32335  31.371  30.179   4.846
65927W        W32336  34.378  34.965   2.516
65928W        W32337  20.808  28.290   4.486
65929W        W32338   3.905  31.835  13.510
65930W        W32339  25.572   4.219   2.923
65931W        W32340   2.828  10.838  12.246
65932W        W32341  23.232  20.818  12.804
65933W        W32342  25.401  20.866  10.617
65934W        W32343   3.388  15.776   2.564
65935W        W32344  34.572  29.348   0.014
65936W        W32345  27.778  44.366   4.091
65937W        W32346  18.072   2.662  14.924
65938W        W32347  30.404  32.262   4.798
65939W        W32348  38.364  14.120  13.277
65940W        W32349  39.251  32.011   4.051
65941W        W32350  18.788  11.495  13.485
65942W        W32351  11.409  27.072  12.209
65943W        W32352  23.326  38.712  13.483
65944W        W32353   9.239  25.969  13.004
65945W        W32354  32.596  27.574  10.673
65946W        W32355   9.443  11.810   4.959
65947W        W32356  15.806  23.187  12.074
65948W        W32357  38.109  18.945   1.723
65949W        W32358  16.571  15.673  10.784
65950W        W32359  41.085   9.698   1.769
65951W        W32360  40.236  36.104  11.526
65952W        W32361   4.186  18.045  11.652
65953W        W32362  13.755  20.753   0.819
65954W        W32363  21.473  43.187   1.906
65955W        W32364  32.970  15.705  11.619
65956W        W32365  19.768  31.262   1.967
65957W        W32366  43.175   7.345   4.306
65958W        W32367   1.490  39.551   3.285
65959W        W32368  35.315  18.561   4.358
65960W        W32369  21.163  26.593  12.612
65961W        W32370  14.304  20.464  12.091
65962W        W32371  42.686  38.901  14.145
65963W        W32372   8.435  43.084   4.523
65964W        W32373  24.052  31.368  11.191
65965W        W32374  25.559  35.138   4.416
65966W        W32375   9.831  44.525  12.836
65967W        W32376  36.636  10.732   0.857
65968W        W32377  30.441  44.097   3.241
65969W        W32378  17.240   1.809   2.669
65970W        W32379  35.976  29.678  12.852
65971W        W32380  33.570  43.868   4.069
65972W        W32381  21.682  31.039   4.151
65973W        W32382  30.841  36.335  12.094
65974W        W32383  27.034  11.688  11.067
65975W        W32384  15.642   0.369   3.222
65976W        W32385  34.184  17.599  10.730
65977W        W32386  27.673  14.647  13.536
65978W        W32387  44.531  20.640   0.792
65979W        W32388  15.642  26.697  14.406
65980W        W32389  42.890  44.205  11.131
65981W        W32390  37.448  36.930   3.730
65982W        W32391  23.578  33.398  11.563
65983W        W32392  11.904   1.608  13.962
65984W        W32393  42.713  39.810  11.579
65985W        W32394  36.238  30.998   2.241
65986W        W32395  39.846  27.594   3.055
65987W        W32396  17.643  32.188  14.357
65988W        W32397  11.032   2.601   2.775
65989W        W32398  34.848  21.278  10.294
65990W        W32399  29.910   7.874   0.476
65991W        W32400  12.651  17.699   3.569
65992W        W32401  42.592  26.651   0.630
65993W        W32402   8.448  36.033  11.670
65994W        W32403  31.379  18.669  11.395
65995W        W32404  38.056   1.797   4.261
65996W        W32405  10.330  20.762  12.910
65997W        W32406  30.066  11.523   3.182
65998W        W32407  12.656   0.800   2.232
65999W        W32408  43.727  34.198   0.229
66000W        W32409  19.763  13.660   4.337
66001W        W32410   5.289  16.181   2.000
66002W        W32411   9.745  34.436   1.535
66003W        W32412  43.827  14.905   2.608
66004W        W32413  11.716  24.477  12.495
66005W        W32414  44.550   4.002  12.871
66006W        W32415  20.174  39.529   1.662
66007W        W32416  41.481  13.207  12.015
66008W        W32417   6.456  20.365   2.883
66009W        W32418  21.263  20.005  11.968
66010W        W32419  35.062  43.263  11.645
66011W        W32420  29.526  42.818   2.673
66012W        W32421  18.411  34.677   1.861
66013W        W32422  22.717  29.938  12.421
66014W        W32423  22.779  32.116   3.614
66015W        W32424   2.524  31.733  11.549
66016W        W32425   8.418   5.375  10.698
66017W        W32426   1.572  30.647   0.262
66018W        W32427   6.461  22.667   4.662
66019W        W32428  33.739  32.272   4.984
66020W        W32429  37.158  17.033  13.016
66021W        W32430  36.059  27.868   2.922
66022W        W32431   1.198  34.135   1.991
66023W        W32432  41.525  20.625   1.680
66024W        W32433  36.380  41.923   4.592
66025W        W32434  13.014  33.036  13.585
66026W        W32435  44.560   3.232  14.766
66027W        W32436  36.748   9.556  13.590
66028W        W32437   1.126  31.242   3.251
66029W        W32438  44.295  15.758   2.667
66030W        W32439  14.877  25.705   3.310
66031W        W32440  44.395  15.914  14.353
66032W        W32441  42.910  43.887   3.052
66033W        W32442  11.676  41.924  10.338
66034W        W32443   2.411   7.215   9.595
66035W        W32444   7.413  11.012   4.011
66036W        W32445  30.075  41.879   2.419
66037W        W32446  13.418  41.853   4.582
66038W        W32447  15.827  25.534   0.209
66039W        W32448   8.442  10.222  14.203
66040W        W32449   5.710  23.598  12.431
66041W        W32450  26.668  42.440  13.016
66042W        W32451  27.520  38.238  11.964
66043W        W32452  34.924   9.962   3.697
66044W        W32453   9.795  17.026   2.746
66045W        W32454  35.985  39.717  11.516
66046W        W32455  16.728  22.148  13.440
66047W        W32456   0.215  34.560  10.470
66048W        W32457  44.462  42.830  13.939
66049W        W32458  17.330  33.580  11.191
66050W        W32459   6.103  18.704  11.311
66051W        W32460  30.585  24.820   4.189
66052W        W32461  42.505  15.994   4.909
66053W        W32462  10.430  44.430   3.333
66054W        W32463  15.576  30.627   4.556
66055W        W32464  39.861   7.634  12.069
66056W        W32465  21.442  14.411  10.173
66057W        W32466  34.649   2.870   3.536
66058W        W32467  25.290  15.916   2.253
66059W        W32468  32.468  35.495  12.553
66060W        W32469  13.233  26.695  10.064
66061W        W32470  31.842  38.399  14.221
66062W        W32471   8.145  37.095   3.727
66063W        W32472  22.059  37.951  14.345
66064W        W32473  33.290  29.756  12.211
66065W        W32474  22.492  40.438   2.244
66066W        W32475  11.526  37.732   1.649
66067W        W32476  21.523  34.451   3.625
66068W        W32477   4.401  29.377  11.739
66069W        W32478   8.641  41.518  10.784
66070W        W32479   0.220  35.447   1.223
66071W        W32480  19.270  26.551   1.188
66072W        W32481  30.548  16.194   1.042
66073W        W32482  18.773  44.232  11.061
66074W        W32483  34.524  29.261  12.603
66075W        W32484   5.944  36.536   2.749
66076W        W32485  43.376   7.929   0.345
66077W        W32486  41.506  24.160   4.402
66078W        W32487  25.730   5.386   2.254
66079W        W32488   8.999   3.952  12.614
66080W        W32489  25.957   5.128   1.695
66081W        W32490  22.610  10.558  13.812
66082W        W32491  17.659  42.223   2.670
66083W        W32492  44.373   1.244   3.781
66084W        W32493  22.685   4.821   1.373
66085W        W32494  44.205  34.027  13.471
66086W        W32495  23.201   7.387   3.946
66087W        W32496  14.248  43.544  13.183
66088W        W32497  29.624  31.005  14.363
66089W        W32498   6.732   0.448  13.358
66090W        W32499  17.101   2.347   2.595
66091W        W32500  13.729  14.678   4.599
66092W        W32501   7.851  24.710   0.020
66093W        W32502   4.134   8.927   4.149
66094W        W32503   6.875  22.064  13.969
66095W        W32504  36.962  29.204  11.778
66096W        W32505  25.000  38.315  10.574
66097W        W32506  35.852  20.140   3.305
66098W        W32507   1.321  20.559  14.326
66099W        W32508  35.894  38.390   1.731
66100W        W32509  35.349  10.255  10.621
66101W        W32510  24.653  15.553   1.684
66102W        W32511  19.214   0.762  10.770
66103W        W32512   3.240  43.054   2.827
66104W        W32513   9.644  30.711   1.888
66105W        W32514  16.874  28.465   1.905
66106W        W32515  30.194  30.457   4.285
66107W        W32516  37.615  39.912   4.782
66108W        W32517  32.992  36.151  10.673
66109W        W32518  44.049  12.855  14.333
66110W        W32519  43.609   3.189   4.061
66111W        W32520  30.354  25.113   0.935
66112W        W32521  10.361  10.369  12.307
66113W        W32522   6.838  42.312   2.415
66114W        W32523   2.443  36.344  14.762
66115W        W32524  24.468  33.743  12.778
66116W        W32525  44.801  15.909  13.960
66117W        W32526  42.153  32.358  11.739
66118W        W32527  27.029  41.804   2.754
66119W        W32528  37.828  11.838  13.164
66120W        W32529  19.348   5.578  14.321
66121W        W32530  26.934  39.936   4.637
66122W        W32531  36.174  22.506   0.351
66123W        W32532  13.403  22.640   4.834
66124W        W32533  35.456   5.553   4.553
66125W        W32534  21.779  12.823   4.643
66126W        W32535  25.460  10.249  13.867
66127W        W32536  33.161  18.242  11.016
66128W        W32537   8.397  30.080   3.710
66129W        W32538  39.289   3.247  11.853
66130W        W32539  23.707  41.491   2.727
66131W        W32540  24.447   8.102  12.091
66132W        W32541   1.228  41.149   3.092
66133W        W32542   5.907  40.088   4.270
66134W        W32543  44.854  33.999   2.189
66135W        W32544   4.913  43.683  14.857
66136W        W32545   7.490  22.742   2.778
66137W        W32546  13.270   9.723   4.404
66138W        W32547  14.930  13.826   3.811
66139W        W32548  17.241   6.162   4.132
66140W        W32549   9.792  26.671  12.814
66141W        W32550   0.820   3.932   4.690
66142W        W32551   0.405   6.221   1.480
66143W        W32552  39.865  41.886  13.216
66144W        W32553  29.215  17.227  11.133
66145W        W32554  16.605   2.513  12.909
66146W        W32555  22.551  27.692   1.277
66147W        W32556  29.906   6.483   2.312
66148W        W32557  16.575   4.389   0.977
66149W        W32558  39.638  19.049   0.297
66150W        W32559  14.148  39.279  11.168
66151W        W32560  24.063  13.439  11.661
66152W        W32561  33.404  39.913   0.397
66153W        W32562   9.131  31.871   1.453
66154W        W32563   6.480  30.095   3.922
66155W        W32564  18.050  13.887   0.863
66156W        W32565  43.086  28.844  13.070
66157W        W32566  21.503  43.926   3.658
66158W        W32567   8.311  15.247   2.324
66159W        W32568   0.954  19.113  12.800
66160W        W32569  19.780  20.159  11.981
66161W        W32570   1.350  18.776  11.966
66162W        W32571   2.513   5.850  10.912
66163W        W32572  26.700   3.987   3.437
66164W        W32573  20.407  36.524  13.951
66165W        W32574  33.186  36.418   1.502
66166W        W32575  18.677  32.349  10.815
66167W        W32576  33.942  26.434   0.677
66168W        W32577  26.307  29.970   3.259
66169W        W32578  31.401  34.957   3.679
66170W        W32579   0.231  22.227  11.671
66171W        W32580  14.625  21.780   1.360
66172W        W32581  19.777   8.601   0.716
66173W        W32582  27.737  19.997   4.352
66174W        W32583  15.107  35.013  12.980
66175W        W32584  38.118  15.962   3.206
66176W        W32585   9.874  36.773  14.860
66177W        W32586  33.309  44.233  14.844
66178W        W32587  32.035  22.567   3.681
66179W        W32588   2.827  21.130   2.251
66180W        W32589  37.932  30.149  12.452
66181W        W32590  28.574  28.579   5.011
66182W        W32591  14.638  29.352   0.829
66183W        W32592   2.332   1.758   1.710
66184W        W32593  22.558  21.705   2.016
66185W        W32594  25.180  18.286   4.551
66186W        W32595  13.232  27.052  14.392
66187W        W32596  26.553  33.488  10.340
66188W        W32597  31.506  34.368  13.534
66189W        W32598  17.063   7.965   0.913
66190W        W32599  22.635  10.613  11.866
66191W        W32600  40.814   2.365  14.894
66192W        W32601  21.613  30.690   2.402
66193W        W32602   7.230   8.274   3.493
66194W        W32603  17.047  31.920   1.873
66195W        W32604  13.602  31.969   1.420
66196W        W32605  11.921  10.811   3.360
66197W        W32606  21.901  30.429  12.058
66198W        W32607   7.804   5.161   3.530
66199W        W32608  36.403  25.054  13.183
66200W        W32609  37.337  14.659  12.038
66201W        W32610   4.461  29.944  11.176
66202W        W32611  44.979  40.746  10.987
66203W        W32612  42.051   0.559  12.562
66204W        W32613  34.966   9.231   0.450
66205W        W32614  11.346  43.337  12.417
66206W        W32615   4.932  13.193  14.240
66207W        W32616  10.093  39.947   0.419
66208W        W32617  26.587  43.792   2.603
66209W        W32618  14.557  26.195  12.003
66210W        W32619  30.079  42.248   3.538
66211W        W32620  26.700  40.128  11.208
66212W        W32621   3.692   1.442   1.895
66213W        W32622   5.029  31.628  12.832
66214W        W32623   2.575  27.100  12.494
66215W        W32624  13.174  37.276  13.413
66216W        W32625  38.783  24.730   3.624
66217W        W32626   5.786  19.555   1.480
66218W        W32627  40.086  23.231  12.939
66219W        W32628  20.188  25.139   3.540
66220W        W32629  42.912   7.326   2.354
66221W        W32630  41.738   2.316  10.712
66222W        W32631  29.632  12.846  13.562
66223W        W32632   2.251  36.130  10.989
66224W        W32633   3.207  32.107   4.088
66225W        W32634  20.897  22.412  12.999
66226W        W32635  12.580  30.299  13.023
66227W        W32636  18.066  27.411  12.168
66228W        W32637  44.440  37.787   3.696
66229W        W32638  14.734   8.987  10.003
66230W        W32639  44.824  17.767  12.961
66231W        W32640   7.703  13.759   3.101
66232W        W32641  30.676  22.821  14.081
66233W        W32642  43.366   9.228   0.782
66234W        W32643  29.076  25.948   3.726
66235W        W32644  42.509  29.349  13.779
66236W        W32645  15.269  41.324  12.020
66237W        W32646  32.485  23.409   3.576
66238W        W32647   1.943  15.135  13.063
66239W        W32648   7.135  13.672  14.928
66240W        W32649  15.103  32.199   4.188
66241W        W32650  21.711  27.692  13.088
66242W        W32651  18.038   4.384  13.713
66243W        W32652  38.032  15.284  13.112
66244W        W32653  18.439  24.260  14.032
66245W        W32654  12.161  23.988  13.642
66246W        W32655  28.896  19.903  11.605
66247W        W32656  20.734  44.551  12.986
66248W        W32657  13.266  39.928   3.778
66249W        W32658   3.408  16.318   0.825
66250W        W32659   8.308   8.822   4.120
66251W        W32660  24.104   5.920  12.654
66252W        W32661  33.074   3.983  14.982
66253W        W32662   7.416  26.913  14.817
66254W        W32663  20.317  24.244   3.402
66255W        W32664   0.024  26.168  11.860
66256W        W32665   5.306  33.086  11.880
66257W        W32666  14.349  17.632   0.430
66258W        W32667  38.984  43.752  10.945
66259W        W32668  43.851  29.968   4.539
66260W        W32669  33.863  18.682  13.840
66261W        W32670  11.694  26.677  11.775
66262W        W32671  22.221  42.992  10.627
66263W        W32672  30.663  35.620   3.843
66264W        W32673  12.855  32.862  10.644
66265W        W32674  38.164   5.903  14.536
66266W        W32675   1.023  31.265   3.968
66267W        W32676  30.922   5.390  13.014
66268W        W32677  35.039  16.299   3.646
66269W        W32678  35.925  18.598   4.735
66270W        W32679  42.421  17.598   4.342
66271W        W32680   6.020   5.524  10.686
66272W        W32681  11.144  18.080  11.385
66273W        W32682  25.207  13.067  13.399
66274W        W32683  29.402  26.629  13.882
66275W        W32684   3.689  38.436   1.930
66276W        W32685  36.947  25.262  12.120
66277W        W32686  17.082  12.764  11.590
66278W        W32687  40.283   8.867   4.679
66279W        W32688  23.561  26.060  12.350
66280W        W32689   1.924   6.243  10.727
66281W        W32690  18.582   8.121   1.002
66282W        W32691  20.077  28.760   4.015
66283W        W32692   8.753  13.836   0.202
66284W        W32693  12.620  12.335   2.075
66285W        W32694  12.208  21.104   0.203
66286W        W32695  43.988  34.625  11.047
66287W        W32696   6.991  10.280  13.358
66288W        W32697   8.108  19.609   2.813
66289W        W32698   4.626  10.309  14.392
66290W        W32699  39.816   1.156   3.198
66291W        W32700  39.044  19.209  10.001
66292W        W32701  24.644  31.538   3.626
66293W        W32702   4.660   9.670   2.886
66294W        W32703  33.664  10.740   4.658
66295W        W32704  34.143  33.375   2.863
66296W        W32705  20.222  31.746  14.983
66297W        W32706  21.050  36.227  11.113
66298W        W32707  21.969  35.042  14.578
66299W        W32708  33.641  14.011   1.242
66300W        W32709  36.098  41.764  11.738
66301W        W32710  23.733  31.322  11.647
66302W        W32711   6.834  31.926   2.362
66303W        W32712  34.915  27.043  14.369
66304W        W32713  22.216   1.221   0.446
66305W        W32714  27.999  26.763   5.054
66306W        W32715  36.166  34.823   2.042
66307W        W32716  17.285  36.408  10.653
66308W        W32717  13.521   7.684   1.351
66309W        W32718  41.913  42.521   0.475
66310W        W32719  25.178  33.670  13.381
66311W        W32720  21.529  11.138   2.561
66312W        W32721  43.504  38.776   2.169
66313W        W32722   6.820  10.605   3.646
66314W        W32723  42.395  13.521  12.697
66315W        W32724  17.398  31.765  14.474
66316W        W32725  37.313   9.994  13.852
66317W        W32726  42.368  22.267  11.074
66318W        W32727   5.361  43.689   2.351
66319W        W32728   1.767  42.019  12.005
66320W        W32729  28.048   7.786  13.406
66321W        W32730   2.867  16.615  11.785
66322W        W32731  38.428  27.988   0.347
66323W        W32732   1.003   5.727  12.886
66324W        W32733   2.239  40.561  10.732
66325W        W32734  42.356  20.819  13.649
66326W        W32735  17.563  20.073   3.078
66327W        W32736   3.433  32.487   3.532
66328W        W32737  20.462   7.744  12.968
66329W        W32738  17.358  35.578   4.068
66330W        W32739  34.611  33.308  14.399
66331W        W32740  24.243  37.620  14.783
66332W        W32741   6.327   4.809   4.619
66333W        W32742   4.002  38.665  11.126
66334W        W32743  24.776  23.732   4.979
66335W        W32744  14.325   7.934  11.602
66336W        W32745  10.475  26.071  11.777
66337W        W32746   0.905  35.520   2.653
66338W        W32747  28.468   6.314  13.947
66339W        W32748   3.134  23.390  12.424
66340W        W32749  33.634  27.073  13.960
66341W        W32750  25.546  31.645  11.844
66342W        W32751  42.736  11.252   1.809
66343W        W32752  29.055  22.951  13.929
66344W        W32753  26.520   4.982  10.445
66345W        W32754  24.784  31.672  14.944
66346W        W32755  28.643  28.801  13.772
66347W        W32756  14.601   7.201   4.111
66348W        W32757  35.634   2.783  10.623
66349W        W32758  34.682   0.375   3.192
66350W        W32759   1.330   7.782   4.554
66351W        W32760  29.746  17.389  14.048
66352W        W32761  38.318  10.695  12.842
66353W        W32762  13.845  33.550  14.828
66354W        W32763  14.734  42.200  11.862
66355W        W32764  25.528  43.250  13.095
66356W        W32765  37.139  28.210  12.457
66357W        W32766  39.510   7.230   0.457
66358W        W32767  41.815  34.050   1.524
66359W        W32768  25.255  16.863   0.708
66360W        W32769  33.854  41.708  12.248
66361W        W32770  18.064  14.240   0.434
66362W        W32771  39.845   9.622  12.046
66363W        W32772   5.769  16.858   2.246
66364W        W32773  30.574   5.350  13.816
66365W        W32774  43.526   2.235   0.813
66366W        W32775  19.081  44.476   1.681
66367W        W32776   8.245  27.263  11.386
66368W        W32777  39.922  10.109   2.911
66369W        W32778  29.175  21.188  12.178
66370W        W32779  31.965  34.911   2.383
66371W        W32780  21.028  42.935   1.854
66372W        W32781  10.908  37.157  10.309
66373W        W32782  32.722  32.400   1.582
66374W        W32783  32.159  32.136  13.453
66375W        W32784  22.003  43.694  12.383
66376W        W32785  21.960  21.232  13.030
66377W        W32786  27.631   3.953   0.243
66378W        W32787  16.029   3.904   1.822
66379W        W32788  11.848  16.664  10.689
66380W        W32789  29.093  40.652   2.173
66381W        W32790   9.959   5.357   4.144
66382W        W32791   6.158  33.586   2.807
66383W        W32792  13.123   0.246   1.215
66384W        W32793   2.160   1.213   4.961
66385W        W32794  44.989   2.063   0.175
66386W        W32795  11.800  37.058   2.403
66387W        W32796   8.315  16.594   1.780
66388W        W32797  36.379  42.577   0.540
66389W        W32798  34.112  18.764   1.321
66390W        W32799  43.812  37.278   1.468
66391W        W32800   2.655   1.732  14.611
66392W        W32801  21.041   2.834  14.328
66393W        W32802  10.530   7.824  14.744
66394W        W32803   2.042   4.560  14.784
66395W        W32804  27.670  15.045  12.395
66396W        W32805  43.256  12.927   0.517
66397W        W32806  24.430  26.175   1.216
66398W        W32807  30.948  32.827  12.962
66399W        W32808  43.215  42.408  13.489
66400W        W32809   7.187   1.958   0.205
66401W        W32810  29.236  37.493   4.512
66402W        W32811  43.508  33.066   2.665
66403W        W32812  12.905  39.076   2.800
66404W        W32813   2.914  41.245  10.880
66405W        W32814  33.933  26.117  11.091
66406W        W32815  41.999  17.239   3.143
66407W        W32816  20.242  23.716  10.641
66408W        W32817  15.548  33.590  13.255
66409W        W32818  20.892  23.065  12.068
66410W        W32819  36.087  39.936  12.921
66411W        W32820  10.211  36.410  14.765
66412W        W32821  18.019  23.868   3.224
66413W        W32822  17.687  11.404   1.975
66414W        W32823  31.417  41.974  11.555
66415W        W32824  12.250  41.013   2.432
66416W        W32825  11.724   0.835   0.478
66417W        W32826  31.529  19.490  13.637
66418W        W32827  29.155  28.081   0.500
66419W        W32828  24.742  22.058  13.004
66420W        W32829  29.103  35.274   4.023
66421W        W32830  18.848  12.292   2.832
66422W        W32831  27.479  11.141   0.045
66423W        W32832  17.802   6.347   4.715
66424W        W32833  25.266  28.041   3.733
66425W        W32834  20.730  35.158   4.243
66426W        W32835  11.076  37.915   4.066
66427W        W32836  26.410  13.677  13.590
66428W        W32837  29.396  21.250   4.653
66429W        W32838  20.929  10.786   0.453
66430W        W32839  22.205  42.442   2.655
66431W        W32840  30.095   1.435  14.978
66432W        W32841  27.775   8.936   2.681
66433W        W32842  32.802  29.036   3.206
66434W        W32843  37.623  30.825  12.980
66435W        W32844  43.007  29.303  13.873
66436W        W32845  38.836   9.763  14.014
66437W        W32846  39.594  10.108   1.293
66438W        W32847  18.138  30.338  12.983
66439W        W32848  11.388  44.205  13.635
66440W        W32849  38.868  41.477  11.101
66441W        W32850  11.298  14.689   4.258
66442W        W32851  37.299   0.427  11.321
66443W        W32852  31.682   2.610  11.646
66444W        W32853  36.739  39.392  13.005
66445W        W32854   8.954   0.786   0.219
66446W        W32855  31.540  27.677  14.802
66447W        W32856  43.949  44.395   1.331
66448W        W32857   0.458   1.254  14.737
66449W        W32858   2.218   6.877   1.616
66450W        W32859   8.700  33.663   0.492
66451W        W32860  10.228  18.335  14.537
66452W        W32861  37.155  16.273  13.505
66453W        W32862  19.491   4.979  11.605
66454W        W32863  40.516  24.198   1.867
66455W        W32864   0.327  15.192  11.561
66456W        W32865  12.701  18.570   2.914
66457W        W32866  38.420   9.872   3.215
66458W        W32867   4.299  22.906   2.393
66459W        W32868  29.047  28.647   0.424
66460W        W32869  44.800  35.820  14.204
66461W        W32870  41.549  26.617   2.159
66462W        W32871  30.670  14.744   4.184
66463W        W32872  33.591  18.693  10.754
66464W        W32873   3.560  30.209  14.166
66465W        W32874   0.074  42.789   3.128
66466W        W32875  29.768  32.381   3.261
66467W        W32876  26.454  16.500  10.962
66468W        W32877   3.683   0.018   1.826
66469W        W32878   4.532  13.104   3.850
66470W        W32879  16.941  11.923   1.817
66471W        W32880  10.321  19.612   3.349
66472W        W32881  43.775   3.926   1.407
66473W        W32882  43.910  25.986   0.251
66474W        W32883   4.476  40.136   5.035
66475W        W32884   4.856  34.434   4.356
66476W        W32885  31.551  29.597   1.034
66477W        W32886  39.508  41.173  13.833
66478W        W32887  43.823  13.976  12.442
66479W        W32888  23.605   4.666  14.436
66480W        W32889  43.334   0.163   0.896
66481W        W32890   8.714  17.906   2.405
66482W        W32891  36.625  20.852  13.018
66483W        W32892  18.172  39.363  14.927
66484W        W32893  24.812  36.590  12.033
66485W        W32894  23.714  14.067  14.375
66486W        W32895  18.436  41.075   1.691
66487W        W32896  28.006  10.933  14.983
66488W        W32897   4.064  14.400  11.738
66489W        W32898  39.749   4.153  11.902
66490W        W32899  12.858  17.127   0.528
66491W        W32900   7.174  14.274   4.157
66492W        W32901  43.250   3.635  14.974
66493W        W32902  43.209  41.392   0.322
66494W        W32903  16.359  19.334   4.194
66495W        W32904   0.815  17.175  10.465
66496W        W32905  14.394  33.014   2.649
66497W        W32906  18.773  24.130  13.110
66498W        W32907  30.184   0.916   4.019
66499W        W32908  17.153  38.431  11.640
66500W        W32909  39.483  20.315  11.131
66501W        W32910  44.958  37.397  12.484
66502W        W32911   8.786  41.948  11.121
66503W        W32912  41.505  36.330  12.562
66504W        W32913  19.031  17.274  11.233
66505W        W32914  16.729   7.656  11.234
66506W        W32915   1.007  26.690   2.402
66507W        W32916  42.940   4.794   2.667
66508W        W32917   2.921  34.071  11.992
66509W        W32918  19.242  37.591  12.779
66510W        W32919   2.714  16.548   5.002
66511W        W32920  42.039  22.567   2.901
66512W        W32921   1.791  29.633  12.884
66513W        W32922  32.192  19.082  12.844
66514W        W32923  26.107   3.156  14.225
66515W        W32924   1.224   5.454  13.523
66516W        W32925  43.841   4.456   2.779
66517W        W32926  23.353  31.798  11.192
66518W        W32927   4.354  14.236  12.567
66519W        W32928  33.082  26.331   2.273
66520W        W32929  41.989  16.187  12.965
66521W        W32930  22.061   1.698   4.404
66522W        W32931  24.106   0.091   1.900
66523W        W32932  41.932  30.956   3.176
66524W        W32933  16.188  20.949   3.415
66525W        W32934  28.425  21.145   5.005
66526W        W32935  28.350   8.649   2.223
66527W        W32936  26.669  13.743  12.585
66528W        W32937  26.126  34.379   1.735
66529W        W32938  29.638  22.683  13.923
66530W        W32939  42.971  37.886  12.427
66531W        W32940   5.773  24.443  12.610
66532W        W32941  37.631   0.749  11.518
66533W        W32942  38.170   5.202  11.249
66534W        W32943  23.453   1.688   3.819
66535W        W32944  42.758  19.058  10.609
66536W        W32945  19.921  41.729  14.773
66537W        W32946  39.879  14.815  11.145
66538W        W32947  23.399  40.468   1.659
66539W        W32948  36.450  38.972  12.882
66540W        W32949   6.145  37.858   0.789
66541W        W32950  27.925  37.590   3.169
66542W        W32951  33.720  43.255   2.278
66543W        W32952   3.944  21.682  14.945
66544W        W32953  42.294  12.431   2.259
66545W        W32954  11.302   1.387  13.776
66546W        W32955  35.597   8.846  10.707
66547W        W32956  38.514  40.966   4.159
66548W        W32957  26.644  42.843   2.069
66549W        W32958   4.653   5.813   3.197
66550W        W32959  23.619   5.454   0.455
66551W        W32960  30.432  30.710  12.455
66552W        W32961  24.578   3.846  11.106
66553W        W32962  44.520  42.800   3.715
66554W        W32963  15.684  16.759   4.729
66555W        W32964   8.823  13.799   1.619
66556W        W32965  18.201   1.661  12.741
66557W        W32966  36.768  31.101   2.283
66558W        W32967  12.236   6.364  11.957
66559W        W32968  16.902  39.127  10.510
66560W        W32969  34.577  19.288   4.605
66561W        W32970  42.425  20.959  12.456
66562W        W32971  22.287  18.399   3.738
66563W        W32972  38.021  22.072   2.365
66564W        W32973  20.660   3.956   0.089
66565W        W32974   7.278  42.621   2.398
66566W        W32975  20.724  38.451   0.022
66567W        W32976  43.092  43.310   3.792
66568W        W32977  35.388  26.963  10.723
66569W        W32978  14.889  15.511  10.599
66570W        W32979  35.022  30.705  11.692
66571W        W32980   0.748  30.207  14.432
66572W        W32981   0.924   7.144  11.125
66573W        W32982  16.343  23.662  14.697
66574W        W32983  30.200  40.505   0.624
66575W        W32984  13.140  26.745  11.650
66576W        W32985  26.706   5.786   1.387
66577W        W32986  10.034  18.851  13.368
66578W        W32987   5.561  25.229  12.471
66579W        W32988  24.597  36.247  12.447
66580W        W32989  40.392  16.885   2.382
66581W        W32990  10.384  19.176   3.068
66582W        W32991   0.957   9.710  12.686
66583W        W32992  44.056  19.077  14.150
66584W        W32993  10.192  33.408   0.270
66585W        W32994  13.838  20.629  13.064
66586W        W32995   8.313  19.720  14.129
66587W        W32996  15.243  12.890  14.826
66588W        W32997  39.986  15.705  14.524
66589W        W32998  11.995  15.848   3.301
66590W        W32999  44.901  40.904   0.990
66591W        W33000  38.680   1.025   3.577
66592W        W33001  19.103   5.762  12.604
66593W        W33002  26.559  27.906   1.680
66594W        W33003  41.781  42.789  12.509
66595W        W33004   5.435  18.895  10.670
66596W        W33005  32.659  13.221   0.350
66597W        W33006  25.608  41.922  13.109
66598W        W33007  34.817  30.158  13.519
66599W        W33008  15.410  29.009  12.937
66600W        W33009  24.514  42.443   3.319
66601W        W33010  32.474  29.295  13.890
66602W        W33011  17.796  16.840   4.047
66603W        W33012  38.829  10.684   4.267
66604W        W33013  43.796  43.843  12.378
66605W        W33014  10.308  37.830  14.235
66606W        W33015   9.819  13.448   1.764
66607W        W33016  25.543  18.333  10.795
66608W        W33017  31.020  18.236  10.273
66609W        W33018  35.788  43.668  14.072
66610W        W33019  26.626  24.018  12.564
66611W        W33020  44.370   8.105   5.027
66612W        W33021  39.800  11.390  10.753
66613W        W33022  42.283  36.864  12.103
66614W        W33023  12.603  26.680   0.808
66615W        W33024  36.384  10.249   0.803
66616W        W33025  22.227  22.763  14.298
66617W        W33026  36.901  28.017  10.523
66618W        W33027  26.716  38.894  14.559
66619W        W33028  32.134   7.000  14.751
66620W        W33029  23.822  32.171   5.093
66621W        W33030  17.067  16.154   0.319
66622W        W33031  30.856  20.565   4.016
66623W        W33032  35.863  37.575   0.260
66624W        W33033  32.906  24.549   4.610
66625W        W33034   0.782  44.480  10.196
66626W        W33035  40.734   9.727   3.175
66627W        W33036  10.954  44.382  10.688
66628W        W33037  24.571  27.122  11.265
66629W        W33038  32.691  35.569  13.468
66630W        W33039   7.338  21.769   0.269
66631W        W33040  44.403  17.973  12.458
66632W        W33041  10.764  15.736   1.746
66633W        W33042   8.128  38.854   2.380
66634W        W33043  43.495  41.318   0.777
66635W        W33044  29.498  20.147   0.925
66636W        W33045  26.488  44.329   4.611
66637W        W33046  33.880  18.285   1.285
66638W        W33047  14.100  22.086   3.507
66639W        W33048  35.484   9.266   0.309
66640W        W33049  42.263  23.173   1.621
66641W        W33050  25.107   9.856  12.051
66642W        W33051   1.646  34.173   3.872
66643W        W33052  37.813  33.662  12.105
66644W        W33053  13.016  32.912  14.354
66645W        W33054   9.883  37.885  13.584
66646W        W33055  28.494  13.908  11.146
66647W        W33056  43.889   7.898  10.222
66648W        W33057   0.933  19.549  11.210
66649W        W33058   1.087  31.464   2.322
66650W        W33059   2.282  39.139  10.800
66651W        W33060   6.184  28.678   4.600
66652W        W33061  36.189   8.834   2.776
66653W        W33062  43.336  10.838   0.391
66654W        W33063  26.648  14.580   3.559
66655W        W33064  42.106   7.019  12.039
66656W        W33065  10.705  29.447  12.033
66657W        W33066   7.754  15.312   0.488
66658W        W33067  31.878  31.431  13.550
66659W        W33068   0.420  15.666   3.233
66660W        W33069  13.385  21.511   1.490
66661W        W33070  37.434  22.541   2.825
66662W        W33071  14.593  41.802   0.975
66663W        W33072   4.014  40.942   4.519
66664W        W33073  25.888   2.441  14.435
66665W        W33074  40.139  28.825   0.352
66666W        W33075  17.162  22.314   1.211
66667W        W33076  13.888  32.887   3.556
66668W        W33077  40.084  36.510   1.269
66669W        W33078  10.724  31.886   0.279
66670W        W33079  32.736  25.070   3.451
66671W        W33080  35.580  21.717   3.261
66672W        W33081  29.391  31.159   0.280
66673W        W33082  28.070  37.921  13.048
66674W        W33083  13.309  37.262   1.954
66675W        W33084  40.458   2.001  14.785
66676W        W33085  29.360   4.347   4.586
66677W        W33086  34.422   9.154   1.265
66678W        W33087  22.767   1.137   3.231
66679W        W33088  27.008  39.721   3.570
66680W        W33089  33.731  21.266  12.033
66681W        W33090  37.641  18.695   2.522
66682W        W33091  39.120  25.989   1.159
66683W        W33092  22.998   6.631  13.458
66684W        W33093  16.975  30.082   4.316
66685W        W33094  11.812   7.720   2.918
66686W        W33095  12.582  38.534  10.678
66687W        W33096   8.863   2.510   0.715
66688W        W33097  15.117  16.745  13.313
66689W        W33098   0.655  30.951  10.678
66690W        W33099  29.980  16.297  11.211
66691W        W33100  31.409  31.530   3.890
66692W        W33101   3.817  12.336   0.403
66693W        W33102  20.080  14.926   0.997
66694W        W33103  32.871  20.186   0.916
66695W        W33104  43.717  11.876  13.609
66696W        W33105  23.444  30.975  14.304
66697W        W33106   8.276  27.061  12.372
66698W        W33107   5.716  13.342   4.468
66699W        W33108  13.864   9.693  12.346
66700W        W33109  11.091  19.728  14.962
66701W        W33110  42.251  44.494   2.792
66702W        W33111  12.127  26.686   4.157
66703W        W33112  22.652  15.325   0.263
66704W        W33113   0.650   5.631   2.278
66705W        W33114  36.938  11.117   4.725
66706W        W33115  33.904  29.939  13.043
66707W        W33116  43.279  28.383   4.231
66708W        W33117  40.440  17.359  12.523
66709W        W33118  32.456   8.828   0.334
66710W        W33119  21.145   5.435  14.462
66711W        W33120  36.337  37.452   4.119
66712W        W33121  29.471  15.192  10.529
66713W        W33122  17.520  33.312   1.812
66714W        W33123  22.957   6.220   0.219
66715W        W33124  33.999   6.312   1.578
66716W        W33125   3.870   8.989  13.809
66717W        W33126   9.738  27.532   4.168
66718W        W33127  19.292   3.222  14.977
66719W        W33128  37.369  43.422  12.089
66720W        W33129  20.659  22.196   0.910
66721W        W33130  37.939  44.567   2.938
66722W        W33131   0.676  18.620  14.046
66723W        W33132  22.167  18.628  12.352
66724W        W33133  19.817  15.297   1.732
66725W        W33134  20.547   0.197  14.363
66726W        W33135   1.953  35.546   0.945
66727W        W33136  25.317   2.834   1.186
66728W        W33137  32.339   9.395  13.305
66729W        W33138  18.647  15.336  10.820
66730W        W33139   2.130  20.378   2.978
66731W        W33140  38.458  37.368  12.777
66732W        W33141  31.411  11.441  13.140
66733W        W33142  41.604  43.290   2.857
66734W        W33143  12.864   6.270  12.633
66735W        W33144  20.327   1.857   2.398
66736W        W33145   8.171  21.199   3.622
66737W        W33146  41.893  24.449   3.784
66738W        W33147   6.515  23.628  11.999
66739W        W33148   3.429  16.284   4.364
66740W        W33149  13.832  20.003  14.946
66741W        W33150  20.257  13.787   1.222
66742W        W33151  34.639  38.983   4.617
66743W        W33152  15.166  38.078   2.782
66744W        W33153  23.507  15.933  13.817
66745W        W33154  19.193  13.022   0.744
66746W        W33155  43.945  22.089   4.477
66747W        W33156   4.394   0.354   0.764
66748W        W33157  19.087  29.404   5.084
66749W        W33158  15.856  34.943  14.344
66750W        W33159  44.666  32.985  11.480
66751W        W33160  13.261   2.602  12.068
66752W        W33161  15.613  31.648  11.108
66753W        W33162  26.853   1.655  10.474
66754W        W33163  29.083   6.457  12.141
66755W        W33164   7.189  15.308  11.534
66756W        W33165  19.636  21.760  13.016
66757W        W33166   1.342  22.268  10.804
66758W        W33167   2.484   2.645   1.696
66759W        W33168  32.074  29.909  11.684
66760W        W33169  42.550   1.953   0.820
66761W        W33170  15.801  25.739  12.106
66762W        W33171  28.586  18.329   3.604
66763W        W33172  31.506  15.877  14.924
66764W        W33173  17.694   5.914  13.015
66765W        W33174  10.366  10.780  12.621
66766W        W33175  21.756  13.312   1.882
66767W        W33176  19.233  23.036  14.829
66768W        W33177  38.668  18.766   2.673
66769W        W33178  27.535  16.538  12.589
66770W        W33179  18.729  27.241   1.398
66771W        W33180  11.045  35.859   2.542
66772W        W33181  29.852  13.040  13.022
66773W        W33182  18.367  24.985   4.091
66774W        W33183   4.257  24.161   2.309
66775W        W33184  41.239  10.919   4.280
66776W        W33185  21.183  11.071   3.320
66777W        W33186  28.641  33.967   2.796
66778W        W33187  21.749  19.017  14.985
66779W        W33188  36.151  38.480   2.668
66780W        W33189  29.059  29.375   4.131
66781W        W33190  22.279  30.970   1.294
66782W        W33191  40.068  40.065   2.236
66783W        W33192  21.580   2.958  10.772
66784W        W33193  25.547  37.533   4.134
66785W        W33194  18.080  33.006   2.295
66786W        W33195  10.906  34.857   0.083
66787W        W33196  28.906  39.581   1.817
66788W        W33197  13.669   4.794  11.985
66789W        W33198   0.884  19.471   3.168
66790W        W33199  39.339   9.881  14.947
66791W        W33200  35.863  29.728  13.343
66792W        W33201  34.403  16.618  14.790
66793W        W33202  42.458  26.120  12.005
66794W        W33203  21.607   8.868  10.680
66795W        W33204  26.072  27.423   3.671
66796W        W33205  33.593  31.046   0.341
66797W        W33206  43.993  17.264  12.962
66798W        W33207  22.439  39.804  11.555
66799W        W33208  16.124  10.412   0.419
66800W        W33209  35.341  30.618  10.928
66801W        W33210  41.573  26.049  13.083
66802W        W33211  13.182  30.357   1.454
66803W        W33212   4.383  38.505  13.408
66804W        W33213  35.162  16.187   1.695
66805W        W33214  33.026  10.900  12.060
66806W        W33215   2.985  14.214   4.703
66807W        W33216   8.889  19.505  11.148
66808W        W33217  22.709  22.112   5.562
66809W        W33218  12.908  35.822   5.424
66810W        W33219  23.043  15.631   2.829
66811W        W33220   3.025  21.372   1.816
66812W        W33221  14.709  39.872  12.597
66813W        W33222  23.976   6.435  12.134
66814W        W33223  12.745  28.734  14.399
66815W        W33224  36.824  24.915  10.781
66816W        W33225   1.153  21.065  11.100
66817W        W33226   4.146  38.911   0.804
66818W        W33227  28.090  35.888   0.453
66819W        W33228  26.503  34.297  11.534
66820W        W33229  15.369  18.683   3.159
66821W        W33230  39.920   8.072  12.991
66822W        W33231  32.010   8.468   1.397
66823W        W33232  27.594  44.017  12.157
66824W        W33233   7.766  44.231   0.702
66825W        W33234  40.152  41.013  12.032
66826W        W33235  12.272   3.743   0.226
66827W        W33236  17.887  28.840  11.672
66828W        W33237   4.471  44.335   3.302
66829W        W33238  39.031  33.223  12.031
66830W        W33239   1.485  23.968  12.720
66831W        W33240  41.035  12.411   0.881
66832W        W33241   2.710   6.827  13.367
66833W        W33242  42.963  14.539  11.409
66834W        W33243   2.577   3.398  13.995
66835W        W33244  32.472  37.093  11.547
66836W        W33245  11.560  27.507  11.620
66837W        W33246   5.359   3.145  11.243
66838W        W33247  37.799  39.410  12.094
66839W        W33248  25.188  42.533   0.061
66840W        W33249   5.829  27.522  11.712
66841W        W33250  27.666   1.324  13.376
66842W        W33251  21.257  19.128   1.313
66843W        W33252   2.747   7.117   2.214
66844W        W33253  20.854  16.829  12.531
66845W        W33254  43.845   8.292  14.057
66846W        W33255  30.545  29.730  14.576
66847W        W33256  12.648   3.266  10.791
66848W        W33257   0.803  28.013  12.892
66849W        W33258  39.847  29.055  14.952
66850W        W33259  38.021  22.231   1.481
66851W        W33260  28.085  15.721   2.355
66852W        W33261  43.077  42.501   3.061
66853W        W33262  21.037  42.779  11.091
66854W        W33263  41.908  26.851  13.343
66855W        W33264   0.957  23.008   2.773
66856W        W33265  37.583   2.897  13.306
66857W        W33266   9.253  44.785  13.395
66858W        W33267  41.995  36.611  10.545
66859W        W33268  21.311   0.221  14.919
66860W        W33269   7.179   5.825   2.098
66861W        W33270  29.658  18.259   3.335
66862W        W33271  22.676   6.720   3.924
66863W        W33272   5.887  41.290  11.046
66864W        W33273  19.785  13.786  13.099
66865W        W33274  17.542  31.639  13.995
66866W        W33275  16.299  36.968  11.507
66867W        W33276  22.678  32.286  11.515
66868W        W33277  31.905   8.421   4.663
66869W        W33278  17.255  29.038   1.552
66870W        W33279  37.829  40.220  12.114
66871W        W33280   1.725  17.345   2.294
66872W        W33281   2.416  43.250  11.835
66873W        W33282  13.767  11.764  11.732
66874W        W33283   7.153   5.216  11.739
66875W        W33284  31.079   7.346  13.214
66876W        W33285  24.006   3.281   3.425
66877W        W33286  41.128   5.185   3.208
66878W        W33287   0.635  37.373  11.796
66879W        W33288  16.742  35.390   3.069
66880W        W33289  17.386  35.388   4.534
66881W        W33290  36.934   8.923  10.356
66882W        W33291  31.802  32.918  14.740
66883W        W33292   3.296  14.675   0.478
66884W        W33293  34.151  44.283   2.850
66885W        W33294  26.051  22.026  11.751
66886W        W33295  10.024   6.632  12.349
66887W        W33296  39.659  19.579   3.055
66888W        W33297   2.195  17.151   2.310
66889W        W33298  16.758   1.790  13.143
66890W        W33299  11.992  16.201  10.473
66891W        W33300   5.871   1.231   1.720
66892W        W33301  13.081  14.381   2.859
66893W        W33302  18.085  44.539  12.040
66894W        W33303  32.825   2.908  14.804
66895W        W33304  35.650  13.347   0.833
66896W        W33305  30.279  17.730  10.479
66897W        W33306   0.369  21.607  13.387
66898W        W33307   8.951   2.279   3.675
66899W        W33308  23.696  11.325   0.834
66900W        W33309  16.552   4.859   0.744
66901W        W33310  25.149  26.082  13.942
66902W        W33311  42.032   2.963  11.622
66903W        W33312  21.681  10.319   4.720
66904W        W33313   6.376  43.296   1.705
66905W        W33314  31.061  40.255  14.465
66906W        W33315  13.179  28.994   2.220
66907W        W33316  10.018  10.525   1.049
66908W        W33317  22.978  40.023   4.740
66909W        W33318  29.691   5.746   4.181
66910W        W33319   5.709   8.676   3.300
66911W        W33320   3.725  12.137  11.952
66912W        W33321  28.414   5.821  14.204
66913W        W33322  36.063   5.814   0.205
66914W        W33323  13.678  37.985  12.646
66915W        W33324  11.610  12.757  12.549
66916W        W33325  11.350  39.030  13.921
66917W        W33326  20.042  38.155  12.365
66918W        W33327  16.236  11.713   2.327
66919W        W33328  44.904  35.858   2.681
66920W        W33329  24.218  27.475  13.991
66921W        W33330  14.580  25.699  12.552
66922W        W33331  10.282  17.495  14.902
66923W        W33332  14.103  34.516   1.856
66924W        W33333  24.073  13.455   4.149
66925W        W33334  17.269  33.686  14.382
66926W        W33335  23.562  34.896   4.525
66927W        W33336  37.691  11.218  11.644
66928W        W33337  16.813  22.224   0.853
66929W        W33338  14.788  28.775   4.464
66930W        W33339  30.951  18.589   3.213
66931W        W33340  43.462  20.330  14.349
66932W        W33341  18.809  19.757   3.429
66933W        W33342  39.096  43.449  10.558
66934W        W33343  42.521  34.747   3.440
66935W        W33344   5.756  29.422   3.158
66936W        W33345  27.705  12.804  12.989
66937W        W33346  43.831  27.384   1.734
66938W        W33347   3.816  39.445   1.268
66939W        W33348  23.820  27.232   2.601
66940W        W33349   9.723  37.009  14.421
66941W        W33350   9.280  35.347   1.813
66942W        W33351  27.385   7.852   1.330
66943W        W33352   6.785  31.441  13.177
66944W        W33353   5.850  14.272   3.220
66945W        W33354   2.558  11.093  14.476
66946W        W33355   3.030  28.443   4.079
66947W        W33356  43.502  22.971  13.338
66948W        W33357  36.208  37.287  12.832
66949W        W33358  34.341  37.871   1.173
66950W        W33359   6.335  13.368   0.419
66951W        W33360  23.045  33.015   0.024
66952W        W33361  19.737  24.902   0.415
66953W        W33362  21.367  15.627   3.628
66954W        W33363   2.673  22.525  14.386
66955W        W33364  43.768  11.843   4.594
66956W        W33365  35.129  32.521  11.345
66957W        W33366  24.107  10.922  13.781
66958W        W33367  21.278  28.623   0.703
66959W        W33368  44.571  18.840   3.346
66960W        W33369  42.100  29.649  13.907
66961W        W33370   1.123  14.737   4.379
66962W        W33371  19.582  43.297   0.852
66963W        W33372  26.455  43.571  14.114
66964W        W33373  19.344  37.424  13.767
66965W        W33374  42.816  10.189  12.118
66966W        W33375  19.686   0.273   1.496
66967W        W33376  25.121  22.009   1.303
66968W        W33377  43.518  43.150   1.784
66969W        W33378  30.178   4.458  11.411
66970W        W33379  15.724  32.633  14.453
66971W        W33380  22.561  42.395   1.146
66972W        W33381  35.965  14.973  10.441
66973W        W33382   3.786   2.338  11.080
66974W        W33383  39.435   8.636   3.347
66975W        W33384   5.266  29.127   3.633
66976W        W33385  41.462  33.126   2.205
66977W        W33386   5.820   2.449   0.895
66978W        W33387  35.542  14.838  13.885
66979W        W33388  24.792  17.788   0.826
66980W        W33389  15.354  20.510  11.211
66981W        W33390  33.576  42.073  11.447
66982W        W33391  11.906  25.261  11.605
66983W        W33392   1.513   0.461   1.312
66984W        W33393  13.611   2.210   3.121
66985W        W33394   2.051  44.568  11.237
66986W        W33395  10.274  21.974  14.936
66987W        W33396   7.624  34.373   2.660
66988W        W33397  22.233   8.813   2.239
66989W        W33398  25.006  36.001  14.769
66990W        W33399  42.873  31.479  11.087
66991W        W33400  34.627  29.190  13.862
66992W        W33401  21.670  24.983  13.389
66993W        W33402  27.235  29.976  14.025
66994W        W33403  10.636  30.886   0.219
66995W        W33404  22.044  10.942   3.223
66996W        W33405  24.486  18.021   2.777
66997W        W33406  22.991   4.263  12.006
66998W        W33407  41.930  14.683   2.208
66999W        W33408  11.342  17.723  14.063
67000W        W33409  12.134  30.634   2.494
67001W        W33410  11.840  24.011  10.850
67002W        W33411  33.074  37.074  13.854
67003W        W33412  11.742  23.028  11.696
67004W        W33413  41.092  40.246   3.672
67005W        W33414  43.040  11.354  11.734
67006W        W33415   7.660  11.381   0.472
67007W        W33416  27.932   4.004  10.010
67008W        W33417  37.020  38.005   5.031
67009W        W33418  16.190  32.705   4.707
67010W        W33419  20.491  22.151   0.019
67011W        W33420  39.710  41.018  14.300
67012W        W33421  10.599  18.599   3.302
67013W        W33422  16.800  35.406   0.794
67014W        W33423   5.143  29.555   9.851
67015W        W33424  37.801  42.697   4.404
67016W        W33425  44.833  18.807   2.898
67017W        W33426   9.497  40.198   4.570
67018W        W33427  43.659  37.941  11.974
67019W        W33428  13.774  30.707  11.551
67020W        W33429  18.979  39.279  14.504
67021W        W33430  24.087   0.739   2.339
67022W        W33431  29.702  33.481   0.788
67023W        W33432  38.569  40.992   3.652
67024W        W33433  37.669   8.223  10.460
67025W        W33434  43.480   2.435   0.317
67026W        W33435  20.998  30.418   1.709
67027W        W33436  43.735  13.140   1.243
67028W        W33437   6.936  11.055  14.215
67029W        W33438   1.711  28.480   3.709
67030W        W33439   6.690  29.396   2.167
67031W        W33440   3.798  11.891  13.971
67032W        W33441  31.489  37.144   4.120
67033W        W33442  36.558  28.466   0.850
67034W        W33443   7.640   6.335  11.623
67035W        W33444  27.513  22.420   2.936
67036W        W33445  22.279  39.839   2.387
67037W        W33446  12.100  34.480   0.510
67038W        W33447  33.534  41.068   2.812
67039W        W33448  15.638  40.855  13.580
67040W        W33449  20.986   6.855  11.113
67041W        W33450  16.481  18.419  12.076
67042W        W33451   9.270  42.797  14.395
67043W        W33452   2.756   5.145  11.149
67044W        W33453  42.069  36.929   1.032
67045W        W33454   6.672  33.548   2.745
67046W        W33455   6.021  28.572  14.890
67047W        W33456   8.475  42.849  13.975
67048W        W33457  21.088  31.603  10.373
67049W        W33458  31.183  15.963  12.045
67050W        W33459  11.788  42.099  11.528
67051W        W33460  38.215   0.457   0.922
67052W        W33461  32.037  36.830  11.588
67053W        W33462  24.667  12.809   2.288
67054W        W33463  32.361  17.620  12.817
67055W        W33464  28.188  28.103  13.541
67056W        W33465  25.694  29.172   3.530
67057W        W33466   8.343  42.318  12.059
67058W        W33467  20.279  32.306   0.694
67059W        W33468  27.586  42.444   1.181
67060W        W33469  39.937  42.122   1.278
67061W        W33470  26.530  41.668  11.602
67062W        W33471  32.663  43.581   1.356
67063W        W33472  29.515  21.441   0.478
67064W        W33473  23.511  27.183  14.347
67065W        W33474  40.860  35.790   3.705
67066W        W33475  36.319  35.498  13.037
67067W        W33476  22.146  28.795  10.661
67068W        W33477  36.418   5.525   0.970
67069W        W33478   7.656   2.459   3.923
67070W        W33479   0.899  33.296   4.186
67071W        W33480  12.036   6.509   0.231
67072W        W33481  43.866  43.713   4.510
67073W        W33482  39.079   2.251   1.354
67074W        W33483   7.320  33.974  12.357
67075W        W33484   1.988  24.612  13.992
67076W        W33485  11.212  21.640   1.888
67077W        W33486  17.132  25.614   3.009
67078W        W33487  21.625  41.923   0.510
67079W        W33488  10.357  26.589   1.775
67080W        W33489  11.108  32.642  11.400
67081W        W33490  38.027  15.249  14.005
67082W        W33491  27.996   6.215   0.782
67083W        W33492  44.989   9.174  13.269
67084W        W33493  26.066  35.118  11.108
67085W        W33494   6.199  27.088  12.512
67086W        W33495  15.314   0.275   4.660
67087W        W33496  41.522   5.745  10.405
67088W        W33497  15.703  32.548   2.441
67089W        W33498   4.290  32.923   0.514
67090W        W33499  28.071  28.100   0.851
67091W        W33500  11.050   1.037  13.420
67092W        W33501  21.538  33.800  12.449
67093W        W33502   6.842  24.042  11.156
67094W        W33503  28.991  26.201  14.370
67095W        W33504  12.736  28.920   4.626
67096W        W33505  24.048  42.975   2.983
67097W        W33506  39.418  19.582  11.712
67098W        W33507  23.537  15.147   1.478
67099W        W33508   7.149  39.610   3.123
67100W        W33509  11.806  27.931   3.442
67101W        W33510  16.082  44.532   4.957
67102W        W33511  20.638  12.762  13.128
67103W        W33512  32.038  37.009   1.974
67104W        W33513  38.996   3.224   3.365
67105W        W33514  42.183  41.632   0.397
67106W        W33515  31.251  39.978   5.010
67107W        W33516  11.363  32.432   0.721
67108W        W33517  42.881   7.652   0.387
67109W        W33518  13.199   6.205   4.096
67110W        W33519  13.864   0.442  13.232
67111W        W33520   8.835  33.954   0.076
67112W        W33521  34.910  25.984   3.067
67113W        W33522   1.523  12.390  10.955
67114W        W33523  36.598   0.414  10.658
67115W        W33524   0.875  32.789  12.590
67116W        W33525  37.470  31.968  12.100
67117W        W33526   9.664  13.199   4.731
67118W        W33527  32.501  43.733  11.168
67119W        W33528  27.471  10.167  14.547
67120W        W33529  32.084   1.327   3.347
67121W        W33530  19.673  27.692   5.032
67122W        W33531   4.332   0.944  10.636
67123W        W33532  37.995  24.449  10.773
67124W        W33533  32.682   4.036   1.734
67125W        W33534  36.541  17.263   2.942
67126W        W33535  20.737   8.327   1.716
67127W        W33536  26.929  19.750   3.246
67128W        W33537  22.332  14.609   1.868
67129W        W33538  29.830  20.603   4.856
67130W        W33539  22.298  11.581   4.670
67131W        W33540  20.658   5.368  14.651
67132W        W33541  22.990   1.813  14.448
67133W        W33542  15.506   5.822   0.796
67134W        W33543  18.594  15.220   0.837
67135W        W33544  34.542   3.438   2.807
67136W        W33545   3.314  22.600   2.351
67137W        W33546   5.286  26.051   1.232
67138W        W33547   4.394   3.566  10.559
67139W        W33548  39.676   5.211   1.329
67140W        W33549  13.063  40.308  10.237
67141W        W33550  20.748   7.150   0.418
67142W        W33551  34.582  38.864   2.382
67143W        W33552   8.708   3.680   2.472
67144W        W33553  32.811  41.496   4.169
67145W        W33554   7.920  40.515   1.762
67146W        W33555  10.419  40.808   9.703
67147W        W33556  36.533  25.580  11.493
67148W        W33557  22.996  33.140   2.022
67149W        W33558  43.045  42.221   4.522
67150W        W33559   2.016  37.518   2.379
67151W        W33560  34.763  15.623   4.570
67152W        W33561  27.499   3.443   1.688
67153W        W33562   6.418   3.502   2.748
67154W        W33563  27.285  37.400  13.405
67155W        W33564   3.164   2.872   0.373
67156W        W33565  42.149  10.752   2.678
67157W        W33566  43.948  35.803  14.836
67158W        W33567  21.565  19.613  12.109
67159W        W33568  20.745  25.750   2.524
67160W        W33569  19.147  29.394   2.264
67161W        W33570  43.906   1.353  10.702
67162W        W33571   8.676  21.695  13.966
67163W        W33572   6.209   8.211   4.361
67164W        W33573   7.412  16.276   0.288
67165W        W33574   1.876   5.370   0.553
67166W        W33575  34.648  28.373  14.841
67167W        W33576  18.768  16.883   2.861
67168W        W33577  41.426  37.869   4.090
67169W        W33578  28.361  30.587   2.690
67170W        W33579  36.898  24.092  11.239
67171W        W33580  22.123   2.128  12.377
67172W        W33581  26.784  26.043   1.773
67173W        W33582  42.358  21.012   0.727
67174W        W33583   0.468  23.805  13.551
67175W        W33584  18.070   2.878   4.381
67176W        W33585  31.468  29.139  12.511
67177W        W33586  35.928  13.905  14.433
67178W        W33587  14.982  14.293  10.796
67179W        W33588  14.841  17.511  12.132
67180W        W33589  29.470  30.498  14.276
67181W        W33590  40.533  36.803   1.387
67182W        W33591  10.645  15.487  14.330
67183W        W33592  32.526  39.478  14.039
67184W        W33593  30.583  17.528  13.364
67185W        W33594  34.114   4.075   4.498
67186W        W33595  38.017   0.090  12.791
67187W        W33596  24.595  21.790  13.466
67188W        W33597  35.369  43.510  11.294
67189W        W33598  41.538  29.049   3.255
67190W        W33599  10.333  33.400   0.798
67191W        W33600  31.987  23.685   2.677
67192W        W33601  21.528   7.833   0.451
67193W        W33602  25.931   6.077  14.536
67194W        W33603  41.345  31.975   0.451
67195W        W33604  37.595   5.681   3.179
67196W        W33605   4.011  34.356  12.569
67197W        W33606  13.002   9.341   3.573
67198W        W33607   3.976  23.274   0.338
67199W        W33608  44.054  44.985  11.123
67200W        W33609  13.683  36.053  13.717
67201W        W33610   2.376  18.273   0.797
67202W        W33611  14.899  37.399   3.891
67203W        W33612  20.105  32.286  14.912
67204W        W33613  14.314   8.084   3.314
67205W        W33614  27.549   8.098   1.790
67206W        W33615  40.569  33.013  11.204
67207W        W33616  15.103  14.956   4.791
67208W        W33617  18.366  11.276  12.563
67209W        W33618  33.205  41.070  13.531
67210W        W33619  24.841  43.211   1.382
67211W        W33620  37.194  42.090  14.130
67212W        W33621  30.044  32.837  10.758
67213W        W33622  25.031  30.049   2.295
67214W        W33623  27.756  33.436  14.755
67215W        W33624  44.911  38.047   4.776
67216W        W33625  26.689   3.016  14.990
67217W        W33626   7.236  17.100  14.764
67218W        W33627  44.207  40.452   0.899
67219W        W33628  32.376  11.325  13.877
67220W        W33629  18.883  36.090   0.271
67221W        W33630  43.398  25.701   4.320
67222W        W33631  44.309  25.658  12.324
67223W        W33632   2.534  41.399   0.298
67224W        W33633  35.025   8.945  13.958
67225W        W33634   4.958  20.998   1.981
67226W        W33635   9.475  41.760   3.834
67227W        W33636   0.519  36.764   1.219
67228W        W33637  12.396   3.142  10.176
67229W        W33638   1.238  26.732   3.119
67230W        W33639   9.420  13.321  10.739
67231W        W33640  43.362  40.524  11.590
67232W        W33641   2.988   8.604   0.458
67233W        W33642  15.120   9.697  13.936
67234W        W33643  12.723  40.603  12.400
67235W        W33644  21.982  33.847  13.531
67236W        W33645  30.974  10.812   3.315
67237W        W33646  38.994  20.071  14.074
67238W        W33647   5.718  13.161  11.581
67239W        W33648  33.032  35.496   0.370
67240W        W33649  12.566  39.821  14.825
67241W        W33650  40.519  38.306   4.415
67242W        W33651   2.053  40.973  11.511
67243W        W33652  16.154   7.266  11.668
67244W        W33653  29.883   2.196  14.005
67245W        W33654   0.508  38.791  13.475
67246W        W33655  12.343   2.737   3.104
67247W        W33656  15.079   2.783   3.556
67248W        W33657  22.165   4.843  12.911
67249W        W33658  26.696   0.226   2.503
67250W        W33659   3.270  28.087  11.223
67251W        W33660  36.535  38.673  12.044
67252W        W33661   1.448   3.450  13.930
67253W        W33662  12.210  32.049  11.506
67254W        W33663  27.257  27.560   0.275
67255W        W33664  31.718   5.854   4.119
67256W        W33665   7.196  24.065  13.949
67257W        W33666  33.695  38.244   9.663
67258W        W33667  15.547  33.320  13.692
67259W        W33668  14.345   6.902  11.542
67260W        W33669  35.166  25.028   4.626
67261W        W33670  14.502  10.195   2.564
67262W        W33671  38.052  14.854  12.182
67263W        W33672  28.089   3.984  10.513
67264W        W33673  38.899  28.755   3.662
67265W        W33674   3.358  29.230   2.438
67266W        W33675  24.871  17.546   1.297
67267W        W33676   5.781  19.250  13.801
67268W        W33677  21.454  29.580  10.025
67269W        W33678  21.667   8.291  14.601
67270W        W33679  11.261  29.103   3.623
67271W        W33680  26.737  22.213   3.536
67272W        W33681   4.398  25.110  14.074
67273W        W33682  34.763  30.537  10.311
67274W        W33683  24.261  39.712  10.302
67275W        W33684  23.046  15.323  11.111
67276W        W33685  14.268   4.450   2.694
67277W        W33686  16.224  40.260  12.066
67278W        W33687   7.737  28.232   4.033
67279W        W33688  13.174  36.476   3.448
67280W        W33689  31.373  12.356  14.366
67281W        W33690   9.675   5.143   3.164
67282W        W33691  36.466   4.960   1.865
67283W        W33692  31.990  28.315  11.716
67284W        W33693  22.275  10.636   2.864
67285W        W33694  10.605  10.956   0.549
67286W        W33695   8.114  34.013   2.360
67287W        W33696  18.398  37.421  13.829
67288W        W33697  31.964   9.276  12.985
67289W        W33698  10.243  38.134   1.465
67290W        W33699  42.273  15.714  13.806
67291W        W33700  26.080   9.930   4.843
67292W        W33701   2.857  21.257   4.572
67293W        W33702  42.853   2.452  11.240
67294W        W33703  35.712  41.047  14.577
67295W        W33704   3.458   8.069  13.895
67296W        W33705  38.058  27.214   1.824
67297W        W33706  14.113   8.761  11.995
67298W        W33707   1.187   3.213   4.121
67299W        W33708  34.954  12.765  11.519
67300W        W33709  19.628  10.625   4.217
67301W        W33710  35.033   5.883  13.575
67302W        W33711   8.666   1.669   4.517
67303W        W33712  43.306  43.984  10.834
67304W        W33713  14.360   4.095   2.312
67305W        W33714  19.935  25.051  12.153
67306W        W33715   2.992  31.559  14.048
67307W        W33716  20.295  25.355   2.470
67308W        W33717  43.572  12.968  11.032
67309W        W33718  41.777  15.456  13.538
67310W        W33719  23.986   6.826  11.813
67311W        W33720  22.269  16.703  10.849
67312W        W33721  20.694  40.282   0.238
67313W        W33722   4.812  34.383  11.129
67314W        W33723  23.239  44.892   2.465
67315W        W33724  17.972   6.790   2.346
67316W        W33725  41.766  34.052   3.278
67317W        W33726  38.457   7.358   2.979
67318W        W33727  12.541  11.559   0.842
67319W        W33728  14.609  43.860  14.019
67320W        W33729  34.551  33.476   1.457
67321W        W33730  10.784  17.408  14.734
67322W        W33731  29.454  28.103  10.707
67323W        W33732  37.576  28.889   0.943
67324W        W33733  18.181  44.766   0.222
67325W        W33734  25.168   6.432   2.803
67326W        W33735  41.538  18.115   3.009
67327W        W33736   1.306  19.031   4.738
67328W        W33737  15.064  29.170   3.291
67329W        W33738  25.767   8.396   1.719
67330W        W33739  16.097   9.512  11.187
67331W        W33740  39.616   6.907   0.879
67332W        W33741  25.077  20.288   4.323
67333W        W33742  25.295  25.694  11.064
67334W        W33743   2.756  29.586  12.612
67335W        W33744  29.197  25.679   0.587
67336W        W33745  40.102  25.821  11.116
67337W        W33746  41.338   8.328  10.716
67338W        W33747   7.549  33.812  11.924
67339W        W33748   3.195  42.342   1.060
67340W        W33749  40.971  24.913  14.964
67341W        W33750  34.367  30.029  13.279
67342W        W33751  35.806  11.660   1.271
67343W        W33752   8.323  40.561  11.537
67344W        W33753  10.732  21.163  12.977
67345W        W33754   7.905  25.808  12.366
67346W        W33755  30.221  31.929  10.749
67347W        W33756  44.839  12.837  13.469
67348W        W33757  42.543  15.608   1.438
67349W        W33758  26.514  41.043  11.055
67350W        W33759  27.923   7.326   1.874
67351W        W33760  19.100   9.662  10.795
67352W        W33761   2.908  36.128   3.894
67353W        W33762  28.188   2.974   0.919
67354W        W33763   7.674  34.960   2.285
67355W        W33764  11.593  19.647  14.995
67356W        W33765  30.443  24.073  10.643
67357W        W33766  10.884  39.516  10.808
67358W        W33767  11.669   4.438  11.218
67359W        W33768   6.739   2.633  13.054
67360W        W33769   9.797  38.199  14.018
67361W        W33770  21.792  36.299   1.285
67362W        W33771  20.064  43.329   2.365
67363W        W33772   5.865  44.462   3.307
67364W        W33773  39.488  12.265   2.232
67365W        W33774  40.388  42.752  12.504
67366W        W33775  30.311  12.670  12.555
67367W        W33776   4.644  28.901  12.709
67368W        W33777  19.366  23.743   2.273
67369W        W33778  19.128  18.568   3.376
67370W        W33779  25.983   6.425  12.820
67371W        W33780  28.729   6.771  12.393
67372W        W33781  37.405  30.021  14.906
67373W        W33782  16.379   0.903  11.477
67374W        W33783   3.982  33.133   2.339
67375W        W33784  18.317  12.146  10.439
67376W        W33785   0.936  29.932  12.398
67377W        W33786  20.162  21.732  12.877
67378W        W33787  17.302  20.262  10.244
67379W        W33788  30.072   0.263  10.778
67380W        W33789  38.707  26.503  11.110
67381W        W33790  41.383  40.557  13.600
67382W        W33791  34.951  35.685  13.375
67383W        W33792  40.628  31.738  13.625
67384W        W33793  10.454  30.433   0.363
67385W        W33794   7.270  28.322   0.306
67386W        W33795  40.498  11.874  12.017
67387W        W33796  31.538   8.801   3.450
67388W        W33797  28.012   0.857   3.119
67389W        W33798  39.754  21.696   1.198
67390W        W33799   6.229  43.300   5.051
67391W        W33800  21.941  40.167  12.056
67392W        W33801   1.920  16.712  10.744
67393W        W33802  27.676  39.532   2.230
67394W        W33803  40.203   1.909  11.651
67395W        W33804   0.090  40.153   1.639
67396W        W33805  16.007  42.928   3.826
67397W        W33806  30.585  34.924   3.320
67398W        W33807  43.309   5.907   0.549
67399W        W33808  24.015  27.581   1.023
67400W        W33809  21.169  42.416   4.039
67401W        W33810   7.837   3.752  14.567
67402W        W33811  22.887   4.528  12.472
67403W        W33812   3.891  36.193  13.959
67404W        W33813   9.650   4.795   3.890
67405W        W33814  31.075  19.436  11.887
67406W        W33815  37.207  36.578  14.876
67407W        W33816  20.116  22.693  13.784
67408W        W33817  18.717   4.377   3.571
67409W        W33818   6.213  26.637  13.893
67410W        W33819  28.355  32.536   1.971
67411W        W33820  25.599   7.318   2.342
67412W        W33821  34.843  20.213  12.075
67413W        W33822  11.346   4.058  14.437
67414W        W33823   5.119  28.033   3.044
67415W        W33824  23.728  16.311   1.303
67416W        W33825  21.162  15.760  10.604
67417W        W33826  29.628  21.468   4.207
67418W        W33827  44.280  27.335   0.043
67419W        W33828  31.971   1.853  10.020
67420W        W33829  21.907  19.359   1.395
67421W        W33830  17.590  41.357   2.775
67422W        W33831  38.355  12.171   4.151
67423W        W33832  11.153  32.860   1.922
67424W        W33833  18.204  39.671   2.312
67425W        W33834  39.518   3.781   3.617
67426W        W33835  34.571   5.341   1.520
67427W        W33836  29.097  27.753  11.914
67428W        W33837  29.526  16.528  12.342
67429W        W33838  11.556  24.340   2.457
67430W        W33839  22.526  16.270  14.940
67431W        W33840  40.496  34.612  11.127
67432W        W33841  34.928  10.173   0.692
67433W        W33842  29.637  17.817  14.520
67434W        W33843  29.674  36.378   0.804
67435W        W33844  38.043  41.108   1.843
67436W        W33845  42.213  20.502   2.343
67437W        W33846  21.929  31.693  13.896
67438W        W33847   0.042   4.290   4.164
67439W        W33848   4.103   5.167  12.319
67440W        W33849   6.423  39.994  13.123
67441W        W33850  10.523  31.467  14.388
67442W        W33851   7.268  19.967   1.355
67443W        W33852   8.236  17.297   0.765
67444W        W33853  25.547  38.947   4.630
67445W        W33854  26.918  10.291   0.146
67446W        W33855  32.925  27.233  10.945
67447W        W33856  23.573  35.763   3.222
67448W        W33857  42.464   7.996   9.876
67449W        W33858  13.737  31.928  13.526
67450W        W33859  20.780  40.879   0.983
67451W        W33860  15.227  20.127   9.745
67452W        W33861  16.184  41.440   3.368
67453W        W33862  22.042   9.684  10.720
67454W        W33863  15.159  43.847  13.239
67455W        W33864  27.752  26.072  12.682
67456W        W33865  42.553  14.406   2.729
67457W        W33866  21.925  26.703  11.484
67458W        W33867  42.959   9.686  11.291
67459W        W33868  17.137   6.515   2.285
67460W        W33869  12.999  20.567   0.471
67461W        W33870  26.579  26.205  12.063
67462W        W33871   8.913  14.206   3.282
67463W        W33872   5.352  41.198   3.639
67464W        W33873  38.581   6.652  14.397
67465W        W33874  18.842  25.506   2.674
67466W        W33875  34.851  42.922   4.752
67467W        W33876   2.273  33.354   3.257
67468W        W33877  29.146   9.149  11.518
67469W        W33878  22.753  34.472   4.239
67470W        W33879  40.052  35.884  12.548
67471W        W33880  16.246  23.450   9.777
67472W        W33881  18.160  42.776  10.880
67473W        W33882  30.885  32.322  14.037
67474W        W33883   9.812   7.671  10.795
67475W        W33884   8.804  34.393  11.176
67476W        W33885  42.837  32.664  14.424
67477W        W33886  32.112  36.755   0.296
67478W        W33887  22.692  19.089   4.231
67479W        W33888  31.742  24.253   3.365
67480W        W33889  26.219  24.819  10.689
67481W        W33890  40.775  35.610   2.795
67482W        W33891  12.380  26.279   3.455
67483W        W33892  19.993  36.003  10.122
67484W        W33893  20.779   7.264   2.219
67485W        W33894   3.193  10.271  11.686
67486W        W33895  34.109  20.292   2.271
67487W        W33896  43.615  38.567   4.350
67488W        W33897  38.928  20.666  12.812
67489W        W33898  22.063   7.983   0.344
67490W        W33899  42.481  35.723  13.128
67491W        W33900  28.146  11.444  14.303
67492W        W33901  14.720  12.885  14.375
67493W        W33902  14.337  42.925  14.409
67494W        W33903  24.298   0.898   1.398
67495W        W33904  26.073   7.519   3.174
67496W        W33905  36.032  38.865  12.104
67497W        W33906  28.589  27.527  11.977
67498W        W33907  10.096  29.135  12.186
67499W        W33908  25.091  15.379  11.426
67500W        W33909  41.538  38.964  14.259
67501W        W33910  22.725  10.357   0.292
67502W        W33911  20.181  14.095   2.881
67503W        W33912  10.418  26.725   2.816
67504W        W33913  42.830  40.759  14.540
67505W        W33914  13.720  42.529  14.825
67506W        W33915   4.404  11.583  10.908
67507W        W33916  37.607   3.324   3.990
67508W        W33917   6.834  15.327   4.150
67509W        W33918  23.578  13.839  13.025
67510W        W33919   3.266  12.104   1.838
67511W        W33920   3.731   9.851  13.519
67512W        W33921   0.483   9.164   4.884
67513W        W33922  22.467  38.618  10.145
67514W        W33923  16.561   1.870   4.326
67515W        W33924  10.788  18.771  12.911
67516W        W33925  37.335  33.689   0.178
67517W        W33926   6.173  29.055  13.000
67518W        W33927  27.723   1.567  14.212
67519W        W33928   1.732  34.497   0.864
67520W        W33929  12.377  29.138  14.287
67521W        W33930  37.708   8.536   4.163
67522W        W33931  32.257   6.334   4.805
67523W        W33932  10.448  32.276  14.340
67524W        W33933  24.052  34.083   0.889
67525W        W33934  35.220   5.023  14.145
67526W        W33935  37.557  43.124   4.989
67527W        W33936  29.854  29.059   1.638
67528W        W33937  21.014  32.650  14.564
67529W        W33938   1.853  26.762  11.191
67530W        W33939   2.732  20.365   3.153
67531W        W33940   5.413  31.438   0.894
67532W        W33941   5.676   3.166   1.428
67533W        W33942  15.274  20.623  13.021
67534W        W33943   8.640  29.503  13.884
67535W        W33944  26.490  17.173   3.727
67536W        W33945   6.744   8.454   2.170
67537W        W33946   4.261  37.060   2.125
67538W        W33947  25.157  43.332   1.833
67539W        W33948   8.197   4.705   1.847
67540W        W33949  28.925  11.405   0.431
67541W        W33950  25.037  17.567   0.377
67542W        W33951  26.492  28.347   0.696
67543W        W33952  18.044  21.680  13.488
67544W        W33953  26.597  25.532  10.468
67545W        W33954  23.172  19.134  13.704
67546W        W33955  32.195  23.377  11.691
67547W        W33956  14.608  19.709   0.810
67548W        W33957   1.854  20.123   3.714
67549W        W33958   3.233  15.421  11.747
67550W        W33959  22.970   7.040   3.647
67551W        W33960   6.915  13.434  14.240
67552W        W33961  21.252   5.890  10.745
67553W        W33962  16.964  43.297   0.355
67554W        W33963  34.648  20.279   4.654
67555W        W33964  26.735  25.159   0.470
67556W        W33965  18.765  30.713  14.553
67557W        W33966  26.941  43.858  10.668
67558W        W33967   5.206   6.186   2.457
67559W        W33968  28.116  22.511  11.900
67560W        W33969  24.270  24.759  12.065
67561W        W33970  25.043  32.178  11.614
67562W        W33971  31.925  32.222  12.970
67563W        W33972  27.022  30.466   0.264
67564W        W33973   6.212  22.642  14.477
67565W        W33974  41.297   1.603   2.646
67566W        W33975  27.967  13.069   3.663
67567W        W33976  37.961  43.280  11.223
67568W        W33977  17.173  14.807  12.861
67569W        W33978  25.727  19.970  10.678
67570W        W33979   4.171  32.779   1.502
67571W        W33980  40.572  40.326   1.240
67572W        W33981  22.773  31.407  11.641
67573W        W33982  13.338  39.378   0.877
67574W        W33983   8.876  14.075   4.959
67575W        W33984   8.335  44.412  11.040
67576W        W33985  43.953  22.549  10.939
67577W        W33986  15.297  30.901   1.304
67578W        W33987  25.133  29.304  12.970
67579W        W33988   0.948  31.378  13.371
67580W        W33989  28.447   9.932   0.856
67581W        W33990  41.039  42.481   3.638
67582W        W33991   7.697  11.849   1.241
67583W        W33992  34.338  37.605  13.978
67584W        W33993  19.868  29.622  13.539
67585W        W33994  10.129  33.489   3.174
67586W        W33995   6.016   7.558  11.975
67587W        W33996  20.256  12.434  11.125
67588W        W33997   6.871  19.878   0.193
67589W        W33998   6.850  12.955  14.386
67590W        W33999  29.534  18.835  10.272
67591W        W34000  14.254  18.464  12.913
67592W        W34001  17.457   0.915   4.451
67593W        W34002  29.191  23.746   3.735
67594W        W34003   9.215   3.494  10.745
67595W        W34004   3.865  11.787   2.125
67596W        W34005  24.316  21.973   0.794
67597W        W34006  31.338  22.235   2.756
67598W        W34007  34.026  21.549  14.547
67599W        W34008  23.717   4.623   3.760
67600W        W34009  19.154  26.511  12.161
67601W        W34010  35.853   6.793  14.974
67602W        W34011  18.738  24.447   2.812
67603W        W34012  38.308   5.651  11.547
67604W        W34013   4.458  40.346  12.976
67605W        W34014  39.015  34.462  13.162
67606W        W34015  35.604  24.596  12.527
67607W        W34016  24.095  31.568   1.695
67608W        W34017   3.891  42.679  13.777
67609W        W34018  14.247  16.432  14.588
67610W        W34019  29.451  22.773   1.851
67611W        W34020  43.502  17.232  14.334
67612W        W34021  44.440  34.813  11.432
67613W        W34022  33.477   6.448  12.955
67614W        W34023  13.803  32.942   4.584
67615W        W34024  40.340  17.807   2.102
67616W        W34025  32.713   8.358  13.381
67617W        W34026  39.242   2.843  11.123
67618W        W34027  13.501  43.663   2.687
67619W        W34028  41.475  28.253   3.273
67620W        W34029  17.304  26.924  13.535
67621W        W34030  18.005  31.566  13.053
67622W        W34031  28.056  22.234  13.949
67623W        W34032  16.310   0.124   3.593
67624W        W34033   7.414  33.064  11.378
67625W        W34034  23.542  36.365   4.029
67626W        W34035   2.821  43.498  14.896
67627W        W34036  43.017  38.817  11.582
67628W        W34037  27.009  24.521  10.752
67629W        W34038  37.152  22.974   2.766
67630W        W34039   7.330  40.850   0.319
67631W        W34040  44.398  40.112   2.825
67632W        W34041  13.437  36.569   1.416
67633W        W34042  35.259  18.953   1.917
67634W        W34043  16.666  32.427  14.453
67635W        W34044   6.989   6.460   1.317
67636W        W34045   5.739   4.246  11.684
67637W        W34046  15.426  38.362  11.691
67638W        W34047  44.671  31.025   1.238
67639W        W34048  40.786   2.921  11.305
67640W        W34049  23.242  40.016  14.491
67641W        W34050   7.786  26.071  12.801
67642W        W34051  42.859   0.460  10.616
67643W        W34052   6.117  17.590  14.477
67644W        W34053  19.602  39.415  10.735
67645W        W34054  41.109  12.425  11.686
67646W        W34055  11.669   0.116   2.966
67647W        W34056  37.537  34.008  10.438
67648W        W34057  14.909  17.279  10.802
67649W        W34058   3.488  37.847   3.703
67650W        W34059  32.581  19.978   3.200
67651W        W34060  34.729  15.847  10.795
67652W        W34061  17.040  42.540   0.722
67653W        W34062  23.131  33.656   1.839
67654W        W34063  20.325   4.008   0.490
67655W        W34064   0.037  23.763  14.477
67656W        W34065  18.661  24.105  10.664
67657W        W34066  32.053  38.399   2.118
67658W        W34067   1.714  27.741   1.428
67659W        W34068  21.001  42.379   2.586
67660W        W34069  41.307  15.304  11.661
67661W        W34070  21.133   4.900  10.762
67662W        W34071  30.575  40.227   2.721
67663W        W34072  35.923  25.201  10.409
67664W        W34073  19.731  21.197   1.886
67665W        W34074  33.536  14.126   2.165
67666W        W34075   5.851  17.074  12.532
67667W        W34076  25.642  35.139   0.315
67668W        W34077   4.538  39.735   2.849
67669W        W34078   7.839   3.735   3.866
67670W        W34079  16.437  36.105   3.682
67671W        W34080  27.026  12.001  10.315
67672W        W34081  43.798  19.518  13.457
67673W        W34082  30.457   7.836   1.432
67674W        W34083  16.654   4.133   0.536
67675W        W34084   0.755  30.643  14.006
67676W        W34085  40.343  12.287  14.021
67677W        W34086  21.068  38.813   0.541
67678W        W34087   6.746   6.314   1.790
67679W        W34088  29.902   8.862   4.584
67680W        W34089  33.889   9.754   1.421
67681W        W34090  44.504  17.995  13.729
67682W        W34091  20.022   0.342  12.416
67683W        W34092  19.360  13.880   1.335
67684W        W34093  38.108   2.180  13.455
67685W        W34094  25.682   1.956   3.228
67686W        W34095  25.653   9.911  14.421
67687W        W34096   0.811  41.462  10.170
67688W        W34097  40.255  41.529   2.309
67689W        W34098  31.148  32.657   0.442
67690W        W34099  42.593  19.498  14.582
67691W        W34100  10.855  20.042   4.534
67692W        W34101  22.121   9.221  13.036
67693W        W34102  20.301  25.653   3.709
67694W        W34103   1.710  18.641   4.178
67695W        W34104  28.053  17.847  13.029
67696W        W34105  40.804   2.236  10.588
67697W        W34106  19.034  10.736   2.864
67698W        W34107  24.032  13.420   5.039
67699W        W34108  32.504   9.141   4.587
67700W        W34109   2.297  11.578  12.437
67701W        W34110   0.513  16.615   3.100
67702W        W34111   9.585  12.665   1.686
67703W        W34112  36.396  43.059   0.808
67704W        W34113   3.297  40.929   4.203
67705W        W34114  27.172  28.307   2.276
67706W        W34115   4.124  43.578  14.840
67707W        W34116  34.145  20.466   0.869
67708W        W34117  10.274  20.539  14.401
67709W        W34118  37.037  31.558  11.409
67710W        W34119  23.544   0.977  14.084
67711W        W34120  26.190  10.545  14.929
67712W        W34121  21.528  25.529  14.326
67713W        W34122  22.181  20.552  11.262
67714W        W34123  39.263  25.623   3.138
67715W        W34124  22.715  33.438  12.942
67716W        W34125  19.615  32.621  11.066
67717W        W34126   1.987  11.125   0.062
67718W        W34127  19.177  33.138  11.518
67719W        W34128  31.040   2.963   2.765
67720W        W34129  11.620   1.724  12.938
67721W        W34130  32.607  33.911   3.377
67722W        W34131  31.976  43.734  11.065
67723W        W34132  15.708   5.739  11.141
67724W        W34133  14.605   1.938  13.170
67725W        W34134  20.761  29.960   0.891
67726W        W34135  15.630  35.345  14.072
67727W        W34136   8.457  13.523  10.512
67728W        W34137  43.308   7.750   9.783
67729W        W34138   4.315  10.793   1.502
67730W        W34139  34.375  28.002  13.006
67731W        W34140  26.705  32.203  12.453
67732W        W34141  31.816  28.372   1.118
67733W        W34142   3.857  24.089   1.922
67734W        W34143  36.204  30.672   3.453
67735W        W34144  39.041  38.188   2.981
67736W        W34145  24.944  39.552  13.540
67737W        W34146  35.427   3.674  14.926
67738W        W34147  37.412  25.816   2.178
67739W        W34148   2.299  32.750  12.406
67740W        W34149   4.406  35.754  11.147
67741W        W34150  12.463  15.097   0.990
67742W        W34151  12.066  34.831   2.295
67743W        W34152   2.081  36.150   2.151
67744W        W34153  32.772  28.184  14.816
67745W        W34154  42.258   2.416  10.798
67746W        W34155  30.633  27.166  13.784
67747W        W34156  34.091   5.324   0.181
67748W        W34157  30.012  28.206   1.451
67749W        W34158  27.574  42.062   1.529
67750W        W34159  33.964  11.751  12.701
67751W        W34160   7.346  17.365   3.549
67752W        W34161  23.925  14.765   3.704
67753W        W34162  32.092  32.484  14.940
67754W        W34163  43.100  28.085   4.604
67755W        W34164   4.524  34.262  12.509
67756W        W34165  26.321  25.585  13.640
67757W        W34166   0.445  28.368   2.451
67758W        W34167  30.026  17.510  12.903
67759W        W34168   0.306   2.287  14.831
67760W        W34169   4.376  28.942  14.055
67761W        W34170  35.594   5.165   2.705
67762W        W34171  14.239  29.117   3.679
67763W        W34172  40.884  15.546  14.882
67764W        W34173   2.338  19.521  13.518
67765W        W34174  24.484   6.734   0.832
67766W        W34175  43.622  35.613  11.124
67767W        W34176  22.716  13.375  13.637
67768W        W34177  16.539  39.541  13.073
67769W        W34178  27.716  21.785  12.134
67770W        W34179  25.624  43.825   1.943
67771W        W34180  23.366  34.437  12.350
67772W        W34181  28.476  32.779  10.928
67773W        W34182  22.708  30.023  13.959
67774W        W34183  33.245  31.545   3.739
67775W        W34184  11.161  25.412   2.249
67776W        W34185   2.818  34.855   4.130
67777W        W34186  44.080  23.499  13.597
67778W        W34187  29.373  32.970   2.521
67779W        W34188  18.174  35.352  11.477
67780W        W34189   9.871  14.091   3.367
67781W        W34190  29.155  29.968  12.464
67782W        W34191   0.108  19.540   4.219
67783W        W34192   0.370   9.401   2.825
67784W        W34193  36.212  13.321   2.887
67785W        W34194  14.605  16.646   3.325
67786W        W34195   2.663   3.171  11.256
67787W        W34196  23.116  31.344  13.421
67788W        W34197   9.653  32.828  14.840
67789W        W34198  23.156  11.670  13.523
67790W        W34199  23.882  24.266  13.818
67791W        W34200  14.241   1.761  13.542
67792W        W34201  27.954  10.658   4.538
67793W        W34202   6.449   5.401  14.289
67794W        W34203  41.820  43.513   4.586
67795W        W34204   1.245  38.746   0.840
67796W        W34205  24.156   9.573   5.317
67797W        W34206  34.507  21.186   4.994
67798W        W34207  35.385   2.804  14.773
67799W        W34208  27.389   7.140   3.822
67800W        W34209  28.130  22.635   4.830
67801W        W34210  27.961   8.398  14.126
67802W        W34211  26.257  26.945   3.653
67803W        W34212  25.626   3.824  10.994
67804W        W34213  21.750  17.723   0.270
67805W        W34214  10.791  39.675  12.003
67806W        W34215  33.395  42.991  10.760
67807W        W34216   3.593  21.586   4.207
67808W        W34217  13.039  22.409  10.304
67809W        W34218  24.724  26.528   1.454
67810W        W34219   0.160  20.009   1.616
67811W        W34220  44.925   4.719   0.806
67812W        W34221  35.350  20.372  12.914
67813W        W34222  23.189  16.781   3.640
67814W        W34223  32.719  22.735   2.991
67815W        W34224  26.966  37.570  14.374
67816W        W34225   2.177   0.441   3.624
67817W        W34226  31.437  38.381   4.886
67818W        W34227   9.313  10.322   0.316
67819W        W34228  25.218  21.624   3.624
67820W        W34229  24.749  23.754   2.789
67821W        W34230  22.278  44.424   3.669
67822W        W34231  17.807  44.313  13.890
67823W        W34232  38.955  18.811   3.619
67824W        W34233  17.263  31.725   4.395
67825W        W34234  37.969  40.982   3.408
67826W        W34235  25.953  41.724   4.041
67827W        W34236   4.913  14.926  12.569
67828W        W34237  17.483  13.836   0.857
67829W        W34238  17.295  22.722  13.647
67830W        W34239  24.447   8.090   3.973
67831W        W34240  16.257  34.108  13.001
67832W        W34241   2.994  42.499   0.271
67833W        W34242  20.912  38.932  12.371
67834W        W34243   0.474  28.428  12.156
67835W        W34244   7.560  14.239  11.252
67836W        W34245  14.671  18.086   3.273
67837W        W34246  42.023  28.933   1.733
67838W        W34247  19.720  29.713  11.398
67839W        W34248  14.648  20.782   1.603
67840W        W34249  26.117   3.726  10.748
67841W        W34250  11.263   5.954   2.643
67842W        W34251   6.330  23.069  13.508
67843W        W34252  37.862  13.213  13.382
67844W        W34253  24.557  35.121   4.566
67845W        W34254   5.959  21.819  10.114
67846W        W34255   7.807  22.954  14.429
67847W        W34256  34.086  34.770   1.533
67848W        W34257  30.263   8.200   4.547
67849W        W34258  19.808  19.714   3.008
67850W        W34259   8.345   0.861   0.996
67851W        W34260   5.387  29.453  12.776
67852W        W34261  29.222  43.248   3.366
67853W        W34262   9.809  42.012  13.870
67854W        W34263   8.524  24.647   3.257
67855W        W34264   1.001  13.324   0.802
67856W        W34265  15.810   1.211  13.945
67857W        W34266  44.981   1.219  14.911
67858W        W34267  17.043  24.734  11.357
67859W        W34268   2.855  11.697   4.697
67860W        W34269   4.278   6.589   3.558
67861W        W34270  35.915  39.410   1.648
67862W        W34271  12.625   0.772   2.734
67863W        W34272  14.317  28.942  11.580
67864W        W34273  27.218  24.821   4.412
67865W        W34274  11.238   4.541  10.791
67866W        W34275  13.173  42.934   5.144
67867W        W34276   6.352  36.002   4.575
67868W        W34277   8.258  25.455  14.415
67869W        W34278  23.571   8.831  10.657
67870W        W34279  26.549  22.043  11.571
67871W        W34280  24.170  32.629  12.477
67872W        W34281   0.790  42.902   2.396
67873W        W34282   5.747  15.592  11.639
67874W        W34283  30.472  11.839   1.383
67875W        W34284  11.431  21.213  13.953
67876W        W34285  18.693  32.064   3.119
67877W        W34286  19.978   4.685   3.219
67878W        W34287   9.261  35.576  12.599
67879W        W34288  28.222  28.282  11.964
67880W        W34289  38.886  44.432   0.724
67881W        W34290   9.838  38.529  10.695
67882W        W34291   2.625   2.295  12.124
67883W        W34292  20.641  16.958   1.949
67884W        W34293  18.139  14.573  12.898
67885W        W34294  31.531   2.850  13.497
67886W        W34295  22.466  29.740   2.135
67887W        W34296  34.352   8.128   4.596
67888W        W34297  17.089  25.196  10.639
67889W        W34298   3.110  13.172  14.774
67890W        W34299  31.386  27.496  11.810
67891W        W34300   7.173   7.805  12.591
67892W        W34301  37.872  22.690   0.255
67893W        W34302  40.028  18.544   3.157
67894W        W34303   5.293   4.064   1.451
67895W        W34304  39.226  18.307   0.109
67896W        W34305  20.537  37.499  13.442
67897W        W34306  30.166  20.242  13.177
67898W        W34307  31.676  22.234  12.603
67899W        W34308  10.669   0.196  11.795
67900W        W34309  27.194  43.681   1.307
67901W        W34310  18.875  23.581  12.493
67902W        W34311   5.240  42.146   0.935
67903W        W34312  34.330  11.693  12.344
67904W        W34313  39.093  34.410  11.283
67905W        W34314  19.696  17.903   4.153
67906W        W34315   8.177  35.057  11.976
67907W        W34316  17.371  41.841   1.966
67908W        W34317  38.465   2.522   3.180
67909W        W34318  42.985  19.628   3.645
67910W        W34319   5.858  35.760  12.414
67911W        W34320  24.676  13.399   3.644
67912W        W34321  22.396  12.263  12.988
67913W        W34322  30.635  23.610  14.405
67914W        W34323  35.096  41.089  11.989
67915W        W34324   2.968   9.861  11.454
67916W        W34325  28.751   6.785   0.885
67917W        W34326   4.283  34.992  10.638
67918W        W34327   3.113  30.356  12.541
67919W        W34328   0.445  40.522  13.492
67920W        W34329  26.206   0.951  13.826
67921W        W34330  28.975   6.793  11.252
67922W        W34331  28.159  28.553  11.083
67923W        W34332  44.500  11.850  11.938
67924W        W34333   6.342  31.989   0.727
67925W        W34334  36.044  41.166  14.980
67926W        W34335  32.572   6.092   2.791
67927W        W34336  38.809   6.777   2.449
67928W        W34337   9.000   1.306  12.187
67929W        W34338  34.559  21.906   1.893
67930W        W34339  14.634  30.469  14.109
67931W        W34340  32.358  37.648   3.273
67932W        W34341  27.592  29.999   0.389
67933W        W34342  26.315  35.590   3.824
67934W        W34343  33.484  32.865   4.211
67935W        W34344  16.065  35.895  14.861
67936W        W34345  28.007  40.271  10.559
67937W        W34346   2.339   3.836   4.241
67938W        W34347  33.821  33.762   3.010
67939W        W34348  18.547  26.123  10.396
67940W        W34349  33.904   6.119  10.172
67941W        W34350  41.894  18.277  11.181
67942W        W34351  34.441  14.986  11.800
67943W        W34352  40.873  15.134   2.428
67944W        W34353   8.762  22.770   1.475
67945W        W34354  24.445  30.493  12.740
67946W        W34355   5.373  11.585  12.475
67947W        W34356  10.021  29.700  13.890
67948W        W34357   0.439  29.458   4.733
67949W        W34358  19.525  16.286   1.804
67950W        W34359  17.505   7.041   4.179
67951W        W34360   4.766  41.502  12.466
67952W        W34361  28.803  18.861   0.846
67953W        W34362   6.289  16.129  12.067
67954W        W34363  31.165   0.523   4.829
67955W        W34364  38.596  34.441   3.401
67956W        W34365   4.875   8.159  14.666
67957W        W34366  13.776  17.816   2.330
67958W        W34367  19.997  16.301  13.093
67959W        W34368  29.113  39.382   1.344
67960W        W34369  42.563  43.832   1.426
67961W        W34370  25.037  17.168  13.537
67962W        W34371  11.588   6.711   4.042
67963W        W34372  24.010  30.564   1.970
67964W        W34373  11.194  21.165  13.493
67965W        W34374  11.760  11.946   5.002
67966W        W34375  18.556   1.229   4.383
67967W        W34376  28.263  36.038  14.012
67968W        W34377  10.947  27.398   1.553
67969W        W34378  12.649   8.964  10.620
67970W        W34379  39.025  32.148  10.351
67971W        W34380  17.604  30.931  13.426
67972W        W34381  42.331  33.578  14.898
67973W        W34382  44.407  33.255   1.627
67974W        W34383   5.064  28.447   2.693
67975W        W34384  32.458  34.816   1.651
67976W        W34385   5.862  18.589  10.421
67977W        W34386  43.191  10.560  14.651
67978W        W34387   2.615  44.733   0.316
67979W        W34388  27.903  35.574   4.957
67980W        W34389  30.216  21.196   3.204
67981W        W34390  22.992  12.106   2.185
67982W        W34391  36.349   3.295   3.122
67983W        W34392  39.822  31.917  14.413
67984W        W34393  16.572  37.904   1.550
67985W        W34394   4.342  21.995   0.871
67986W        W34395  11.659   5.135  12.864
67987W        W34396  28.097  20.636   2.655
67988W        W34397  34.797  11.228   3.916
67989W        W34398  35.347  20.511   2.762
67990W        W34399  14.915  16.271  13.263
67991W        W34400  31.055  34.746  12.349
67992W        W34401  33.948   8.904   3.550
67993W        W34402  39.127   1.324   1.280
67994W        W34403  41.852  19.848  13.078
67995W        W34404  25.703  42.222   2.694
67996W        W34405  40.481  12.454  11.186
67997W        W34406  34.604   7.614   0.308
67998W        W34407   2.884  12.905   2.174
67999W        W34408  13.645  18.121   1.027
68000W        W34409  34.329  26.789   4.241
68001W        W34410  31.360  42.043  10.700
68002W        W34411  34.873  16.782  11.544
68003W        W34412   4.758  14.089   0.229
68004W        W34413  43.670  42.702   0.001
68005W        W34414  14.506  14.735  10.940
68006W        W34415  20.621  36.468  10.675
68007W        W34416   3.921  44.963  13.410
68008W        W34417   8.640  32.440  11.519
68009W        W34418  12.266  44.300   0.281
68010W        W34419   1.721  30.797  11.384
68011W        W34420   7.080   8.738   3.643
68012W        W34421  39.275   3.799   0.864
68013W        W34422  12.420   7.266  12.813
68014W        W34423  42.648  14.680   0.976
68015W        W34424  17.593  15.768  10.801
68016W        W34425  44.489   1.451   1.830
68017W        W34426   2.773  30.670  13.506
68018W        W34427  28.399  39.903   4.458
68019W        W34428  20.250  37.278   0.241
68020W        W34429  12.722  37.134   3.663
68021W        W34430  18.145  35.634   2.922
68022W        W34431  39.993  22.449  12.184
68023W        W34432  24.666  39.045  10.672
68024W        W34433  13.345   5.390  14.554
68025W        W34434  16.051  10.031  11.231
68026W        W34435  19.143  31.436  10.585
68027W        W34436  44.568  34.034   3.978
68028W        W34437  24.660  20.006  13.965
68029W        W34438   0.773  44.744  12.229
68030W        W34439  37.566   7.412   1.865
68031W        W34440   7.257   6.649  10.816
68032W        W34441  12.153   5.495   0.236
68033W        W34442  40.284  40.538  11.979
68034W        W34443  40.084   3.328  14.101
68035W        W34444   5.331   4.760   0.780
68036W        W34445  33.333  24.033  11.588
68037W        W34446  29.848  32.408  14.285
68038W        W34447  28.282  23.593   1.702
68039W        W34448  41.256  24.545   4.148
68040W        W34449  31.582   1.730  11.303
68041W        W34450  27.730   7.440   2.804
68042W        W34451  18.857  44.788   2.806
68043W        W34452   4.040  31.029  14.576
68044W        W34453  29.419  34.956  12.453
68045W        W34454   5.652  31.328   4.185
68046W        W34455  29.154   2.633  14.371
68047W        W34456  31.093  40.948   2.369
68048W        W34457  18.370   0.368   3.982
68049W        W34458   9.791  21.030   3.217
68050W        W34459  26.058  43.361   4.176
68051W        W34460  42.445  33.130  13.967
68052W        W34461  11.248  12.810  11.977
68053W        W34462  41.123   8.179  10.272
68054W        W34463   6.800  38.262   4.320
68055W        W34464  23.459   3.057  11.065
68056W        W34465  28.841  23.328   0.732
68057W        W34466  17.860  20.594  14.342
68058W        W34467  23.008  30.942  14.769
68059W        W34468   8.424   4.875   4.512
68060W        W34469  41.464   3.010  10.803
68061W        W34470  38.262  20.334   2.536
68062W        W34471  13.536  25.003  13.009
68063W        W34472  42.270   9.246  14.860
68064W        W34473   1.455  17.646   4.388
68065W        W34474   0.365   6.772   2.631
68066W        W34475  27.748  21.176  11.237
68067W        W34476   6.612  37.344  13.022
68068W        W34477  31.313   5.250   0.867
68069W        W34478  27.141  33.632  11.100
68070W        W34479   9.750  44.506   1.933
68071W        W34480  10.217  13.701  11.884
68072W        W34481  10.751  32.918  11.685
68073W        W34482  19.621  14.838  12.970
68074W        W34483  16.183  23.108   3.784
68075W        W34484  14.818  19.028  10.088
68076W        W34485  12.297   3.598   9.946
68077W        W34486   5.704  39.120  14.708
68078W        W34487   2.381  42.404  12.834
68079W        W34488  22.111  29.521  14.675
68080W        W34489  39.714  37.037  13.465
68081W        W34490  24.008   5.501   0.001
68082W        W34491  38.063  11.740   0.684
68083W        W34492  14.068   9.286   2.777
68084W        W34493  37.917  17.424   3.511
68085W        W34494   4.112  13.146  14.883
68086W        W34495  15.572   8.735  14.042
68087W        W34496  21.052  16.677  11.635
68088W        W34497  27.138  11.201   4.584
68089W        W34498  29.706  33.165  11.951
68090W        W34499  15.597  21.492  11.219
68091W        W34500  28.047  40.309   0.312
68092W        W34501  19.242  43.446   0.489
68093W        W34502  17.380  13.794   4.941
68094W        W34503  13.289  30.381  11.599
68095W        W34504  39.994  12.267   1.326
68096W        W34505   7.670  27.173   1.243
68097W        W34506  34.946  21.222   4.722
68098W        W34507   8.975   9.566  12.934
68099W        W34508  21.702  44.198   1.892
68100W        W34509   0.861  27.176  12.912
68101W        W34510   0.443  34.120  12.039
68102W        W34511  24.490  34.609  14.699
68103W        W34512  24.951  33.101  11.633
68104W        W34513  21.967  30.464   3.756
68105W        W34514  36.655  24.740  14.013
68106W        W34515  15.199  31.303  11.521
68107W        W34516  40.387  40.684  14.064
68108W        W34517   5.636  14.791  13.915
68109W        W34518  26.191  11.230   0.904
68110W        W34519  18.786  21.203  10.994
68111W        W34520  34.028  18.361  13.437
68112W        W34521  11.440  12.359  14.811
68113W        W34522  35.600  15.581  11.368
68114W        W34523  16.961   1.494   3.961
68115W        W34524   9.374  25.464  12.455
68116W        W34525  27.565  36.920  14.869
68117W        W34526   4.233  20.458  12.558
68118W        W34527  29.393  36.170  11.520
68119W        W34528  29.295  32.093   1.242
68120W        W34529  39.404  30.744  14.577
68121W        W34530  15.541  30.936   3.301
68122W        W34531  38.279  40.373   2.272
68123W        W34532  31.000  32.970   1.747
68124W        W34533  15.629  20.204  12.413
68125W        W34534  34.004  10.381   4.122
68126W        W34535   3.259  44.028   0.580
68127W        W34536   2.076   7.854   0.360
68128W        W34537  28.500  20.470  13.651
68129W        W34538  17.824  35.156   3.282
68130W        W34539  36.387   9.183  12.979
68131W        W34540  34.856  22.513   3.135
68132W        W34541  27.604   5.593  11.531
68133W        W34542  30.396  39.347  13.414
68134W        W34543  10.899   8.820   1.952
68135W        W34544  24.144  24.256  11.279
68136W        W34545  23.085  10.828   2.688
68137W        W34546  38.543   7.244   2.481
68138W        W34547  28.387  14.008  11.880
68139W        W34548  18.656  14.060  11.620
68140W        W34549  34.429  44.287  14.079
68141W        W34550  44.613  28.261   0.349
68142W        W34551  32.000  40.589  13.047
68143W        W34552  42.195  11.837  13.543
68144W        W34553  42.040   2.542  13.422
68145W        W34554  16.368  26.400   4.224
68146W        W34555  27.264  15.098  11.220
68147W        W34556   6.284  34.202  14.548
68148W        W34557  20.507  17.809  11.522
68149W        W34558   9.115  19.635   2.752
68150W        W34559  16.915  42.064   3.799
68151W        W34560  24.143  13.193  13.565
68152W        W34561  34.927  17.656   0.421
68153W        W34562  31.590  39.222   2.375
68154W        W34563  11.268  34.590   2.578
68155W        W34564  13.375   5.685   4.114
68156W        W34565  19.531  22.284  12.948
68157W        W34566  34.096  28.358  10.956
68158W        W34567   8.298  16.531  12.652
68159W        W34568  28.891  32.845   2.650
68160W        W34569  21.582  25.231   0.051
68161W        W34570   9.265  37.523  12.910
68162W        W34571  35.789  16.796  10.319
68163W        W34572  38.431  44.534  14.454
68164W        W34573  32.050  30.505  14.816
68165W        W34574   1.948   1.890   0.850
68166W        W34575   9.198  43.847   2.329
68167W        W34576  18.278  29.117  14.405
68168W        W34577  17.113  44.055  12.943
68169W        W34578  21.785  29.238   2.772
68170W        W34579  21.125  29.171  10.232
68171W        W34580  31.982   0.495   1.872
68172W        W34581  18.232  43.349  14.053
68173W        W34582   4.298   0.169   2.942
68174W        W34583  32.024   8.247  10.780
68175W        W34584  25.705  42.551  12.548
68176W        W34585  24.465  44.986  11.276
68177W        W34586   4.397  16.935  12.827
68178W        W34587  37.017  37.404  11.632
68179W        W34588  39.418  13.613  11.285
68180W        W34589  38.758  36.108  11.425
68181W        W34590  41.920  21.605   1.062
68182W        W34591   9.669   5.986   2.408
68183W        W34592  24.056  34.489   1.268
68184W        W34593   6.250  21.389   3.713
68185W        W34594  30.152  40.154   0.158
68186W        W34595  19.326  18.183   1.431
68187W        W34596  17.227  38.486   1.841
68188W        W34597  24.284  19.088   4.630
68189W        W34598  23.781  25.160   1.648
68190W        W34599   4.426  42.954   0.351
68191W        W34600  22.254  26.211   4.549
68192W        W34601   7.082  16.522   1.198
68193W        W34602  43.213   6.283   0.902
68194W        W34603  43.393  32.026   4.495
68195W        W34604   1.247   9.010   4.275
68196W        W34605  11.164  13.759  10.987
68197W        W34606  15.158  32.841   4.704
68198W        W34607  11.137  28.022  14.178
68199W        W34608  27.145  31.826   0.453
68200W        W34609  13.572  43.722  12.043
68201W        W34610   9.024  27.761  10.179
68202W        W34611  44.725  38.885  11.564
68203W        W34612   9.301  32.545  13.563
68204W        W34613  10.689  36.519   4.230
68205W        W34614   9.620   1.027   2.760
68206W        W34615   1.376   4.732  14.302
68207W        W34616  40.942   2.993  10.831
68208W        W34617  25.935  18.585  11.459
68209W        W34618  10.757   1.626   2.617
68210W        W34619  19.079  21.740   4.869
68211W        W34620   2.452  26.846  11.079
68212W        W34621   3.098   7.724   3.402
68213W        W34622  43.286  41.929   4.170
68214W        W34623  26.118  33.833  12.760
68215W        W34624  32.426  42.958  14.029
68216W        W34625  37.974   4.116   1.715
68217W        W34626  36.953  10.418   2.480
68218W        W34627  20.236  28.433   0.702
68219W        W34628  14.920  23.021   3.638
68220W        W34629  41.933  40.996   0.771
68221W        W34630  12.407  21.749   3.295
68222W        W34631  19.758  26.124   4.677
68223W        W34632  30.012  37.950  12.462
68224W        W34633   9.649  27.516   3.659
68225W        W34634  28.842  11.756   9.918
68226W        W34635  42.457  20.473  12.590
68227W        W34636   1.577   6.986  11.227
68228W        W34637   8.663  31.007   3.612
68229W        W34638   7.667  38.479   4.323
68230W        W34639  35.942  37.815   4.063
68231W        W34640  20.287  22.253   2.828
68232W        W34641  38.361  35.652   0.782
68233W        W34642  16.339   8.296   4.832
68234W        W34643  28.476   9.229   0.501
68235W        W34644  32.400  21.185   2.818
68236W        W34645  11.952   4.940  14.976
68237W        W34646  12.302  11.739  11.508
68238W        W34647  21.836   6.848  10.689
68239W        W34648  13.751  26.365  12.215
68240W        W34649  38.876  32.790  11.181
68241W        W34650  40.406  37.990  14.427
68242W        W34651  12.350  23.496   0.957
68243W        W34652  30.885  44.548   5.086
68244W        W34653   5.613  31.948  12.296
68245W        W34654  14.286   9.911  14.274
68246W        W34655  11.225  30.355   2.666
68247W        W34656  31.439  21.507  11.905
68248W        W34657   5.298  21.459   3.974
68249W        W34658  36.370  22.676   0.798
68250W        W34659   8.471  34.979   3.902
68251W        W34660  18.227  23.023  13.822
68252W        W34661   1.205  35.637  14.284
68253W        W34662  35.093  19.178  13.436
68254W        W34663   8.021  12.155   2.925
68255W        W34664  33.497  33.967   1.989
68256W        W34665  24.425  40.307   3.713
68257W        W34666  37.425  12.346  13.736
68258W        W34667  23.483  13.613   0.929
68259W        W34668  40.856   0.106   3.703
68260W        W34669  15.864  17.240   4.463
68261W        W34670   1.228  28.148   4.738
68262W        W34671  18.115   8.459   0.155
68263W        W34672  13.302  34.377  14.899
68264W        W34673  44.533   4.329   1.238
68265W        W34674  28.900  31.902   0.271
68266W        W34675  19.277  17.319  13.924
68267W        W34676  38.574  44.268   1.691
68268W        W34677   8.137  26.602   2.373
68269W        W34678   9.238  39.110  12.080
68270W        W34679  18.570   8.612   2.468
68271W        W34680   0.929  35.900  10.683
68272W        W34681   2.511   6.414  14.853
68273W        W34682   7.149  37.415   1.926
68274W        W34683  13.838  10.459   1.642
68275W        W34684  27.914  24.199  12.031
68276W        W34685  14.651   5.529   5.036
68277W        W34686  25.653  27.772   1.667
68278W        W34687   7.159  38.835  10.611
68279W        W34688  14.088  15.290   1.204
68280W        W34689  39.911   5.933   3.929
68281W        W34690  32.515  20.585  13.294
68282W        W34691  34.354  16.052   2.206
68283W        W34692  29.408   5.330  11.034
68284W        W34693  39.575  23.004  12.975
68285W        W34694   0.200  12.813   3.324
68286W        W34695  11.879   0.710   0.951
68287W        W34696  21.644  32.512   4.183
68288W        W34697   5.752  29.501  14.800
68289W        W34698  11.968  41.537  14.161
68290W        W34699   4.703  35.919  12.499
68291W        W34700  25.823   4.222   3.357
68292W        W34701  27.182   8.664  14.554
68293W        W34702  22.290  42.248  14.567
68294W        W34703  13.348  11.068  13.536
68295W        W34704   2.242  27.117  13.559
68296W        W34705  17.680   3.731  13.599
68297W        W34706  39.751  35.618   0.646
68298W        W34707   8.303  21.114   5.059
68299W        W34708  37.040   7.847   4.513
68300W        W34709  32.432  34.285   4.721
68301W        W34710   2.299  24.772   2.755
68302W        W34711  22.812  38.039  14.059
68303W        W34712   0.367   1.950   1.823
68304W        W34713  31.176  11.531  12.295
68305W        W34714  30.518  21.647   3.656
68306W        W34715  43.823  14.352  10.631
68307W        W34716  41.734  17.762  13.128
68308W        W34717  41.592  40.805  11.800
68309W        W34718  42.526  27.750  13.168
68310W        W34719  20.924  44.410  14.730
68311W        W34720  32.378  12.598   2.270
68312W        W34721  33.583  27.162  11.931
68313W        W34722  39.838  27.205   1.015
68314W        W34723   2.697  15.366  13.521
68315W        W34724  35.525  16.720  12.508
68316W        W34725  18.361  18.313   0.281
68317W        W34726  18.120  24.630   4.846
68318W        W34727  33.116  44.892   2.615
68319W        W34728  40.789   2.975  12.153
68320W        W34729  41.703  33.111   4.087
68321W        W34730  11.415  31.103   4.104
68322W        W34731  41.940  11.018  10.974
68323W        W34732  29.455  24.521   0.748
68324W        W34733   0.634  25.727  13.523
68325W        W34734   6.867  18.128   2.830
68326W        W34735  23.047  16.347  14.905
68327W        W34736  38.961  14.380  14.397
68328W        W34737   2.181   6.939   2.771
68329W        W34738   8.024  31.176  14.757
68330W        W34739  39.993  23.505  12.199
68331W        W34740  33.503  26.565  13.074
68332W        W34741   6.775   8.438  13.286
68333W        W34742  44.489   1.336  13.573
68334W        W34743  16.534  13.857  14.856
68335W        W34744  39.308  21.491   4.830
68336W        W34745  15.199  33.205  10.673
68337W        W34746   9.540  28.833  12.980
68338W        W34747  30.975   7.625  11.093
68339W        W34748  24.167  44.744   1.537
68340W        W34749   0.812   0.292   3.171
68341W        W34750   2.933  10.168   3.212
68342W        W34751   8.150  33.579  11.484
68343W        W34752  44.793  27.451   2.591
68344W        W34753  18.634  16.023   4.228
68345W        W34754  14.769  22.780   2.390
68346W        W34755   5.837  41.057   2.590
68347W        W34756  19.606  25.202  10.444
68348W        W34757  33.819   8.587   4.262
68349W        W34758  17.936  25.925   4.180
68350W        W34759   3.856  21.604  10.575
68351W        W34760  17.730  10.211   0.283
68352W        W34761  38.419  27.573   4.636
68353W        W34762  30.471  29.629  10.731
68354W        W34763  26.137  14.860  10.734
68355W        W34764  15.685  37.766   3.152
68356W        W34765  17.940  35.832   2.128
68357W        W34766  32.141  20.237  12.061
68358W        W34767  20.889  44.130  11.793
68359W        W34768  18.675  28.014  11.258
68360W        W34769  10.804  37.434   4.092
68361W        W34770  24.927  33.605   4.121
68362W        W34771  21.236  28.291   2.090
68363W        W34772  35.908  16.131  11.116
68364W        W34773  39.526   5.401  11.608
68365W        W34774  20.696  42.126   0.733
68366W        W34775   8.232  38.606  14.528
68367W        W34776   1.349  41.056  13.499
68368W        W34777  25.203  44.108   3.400
68369W        W34778  25.357  12.034  13.434
68370W        W34779  24.386   2.226  11.576
68371W        W34780  42.349   0.922  11.152
68372W        W34781  33.660   5.925  10.657
68373W        W34782  13.769  35.108  12.088
68374W        W34783  28.380   1.467   0.200
68375W        W34784  28.132  16.160   2.105
68376W        W34785   8.770   1.999   1.596
68377W        W34786  21.736  27.938   0.334
68378W        W34787  27.529  40.815   0.577
68379W        W34788  37.476  38.892  14.266
68380W        W34789  11.453  31.044  14.521
68381W        W34790  18.715   1.202   3.873
68382W        W34791  10.304  23.123  12.761
68383W        W34792   6.980   2.342  10.866
68384W        W34793   1.320  11.208  10.302
68385W        W34794  26.214  24.255   2.142
68386W        W34795   9.186  27.611   1.237
68387W        W34796  44.280  43.444   3.108
68388W        W34797  21.509  18.575   0.175
68389W        W34798  26.921  39.921  14.477
68390W        W34799  39.856   6.111  13.921
68391W        W34800  27.141  33.176  11.381
68392W        W34801  21.595  32.438   1.972
68393W        W34802  43.869  43.314  14.429
68394W        W34803   0.685   2.570   1.097
68395W        W34804  38.973   4.188  13.946
68396W        W34805  44.783  35.831  13.340
68397W        W34806   8.488  18.730   4.083
68398W        W34807  12.335  28.661  12.061
68399W        W34808   6.044  14.900  13.361
68400W        W34809  26.671  42.569  14.982
68401W        W34810  28.867  26.952  13.983
68402W        W34811  29.714  18.724  14.261
68403W        W34812  14.809  32.363  13.118
68404W        W34813  14.988  23.253  11.155
68405W        W34814  20.536  15.797  11.612
68406W        W34815  16.455  26.334  12.848
68407W        W34816   5.959  28.583   3.688
68408W        W34817  22.524  20.188   2.620
68409W        W34818   8.766  20.738   0.697
68410W        W34819  27.758   8.100   2.268
68411W        W34820  19.668   2.514   4.524
68412W        W34821  13.219  39.892  10.913
68413W        W34822  15.150   2.519   0.356
68414W        W34823   3.496  40.570   1.529
68415W        W34824   1.301  36.421   2.461
68416W        W34825  19.046  14.107  12.550
68417W        W34826  32.593  14.456   4.199
68418W        W34827  13.696  13.624  11.649
68419W        W34828   9.429  37.570  10.580
68420W        W34829  28.878   4.369   2.606
68421W        W34830  28.622  27.663  13.596
68422W        W34831   9.639  18.715  14.952
68423W        W34832  37.506  34.648  11.245
68424W        W34833   1.229  38.308  13.996
68425W        W34834  25.308  37.363   4.569
68426W        W34835  27.467  39.435  13.739
68427W        W34836  34.587  40.501   0.725
68428W        W34837  43.469  32.557   2.405
68429W        W34838   5.276  10.197  13.351
68430W        W34839  20.511  15.524   3.877
68431W        W34840   6.004  12.219   3.305
68432W        W34841  40.996   8.242   3.100
68433W        W34842  19.034  25.650   3.170
68434W        W34843  35.819  14.395  14.479
68435W        W34844  17.877   9.462  14.455
68436W        W34845  15.707   2.046   4.301
68437W        W34846   3.583  16.173   4.858
68438W        W34847  35.058  27.930   2.835
68439W        W34848  19.256  35.644   0.978
68440W        W34849  33.509  37.898  14.014
68441W        W34850  32.908  32.811  11.667
68442W        W34851  20.977  18.833   4.095
68443W        W34852  39.989   3.719   4.540
68444W        W34853  39.239   7.533  13.790
68445W        W34854   0.695  30.758   1.290
68446W        W34855  40.268  28.850  13.102
68447W        W34856  13.206  20.502  11.574
68448W        W34857  14.864  27.401   1.489
68449W        W34858   0.837  38.354   0.878
68450W        W34859   0.162  17.561  12.078
68451W        W34860  41.057  30.374  13.823
68452W        W34861  12.129  40.706  13.446
68453W        W34862   0.409  29.564   1.563
68454W        W34863   0.820  40.831   3.191
68455W        W34864   9.187  25.035  11.247
68456W        W34865   6.045   2.237  10.725
68457W        W34866  20.228  22.594  10.652
68458W        W34867  28.613   7.226  14.362
68459W        W34868  43.041  24.428   0.328
68460W        W34869   9.794  13.093  10.990
68461W        W34870  23.036  14.751   0.966
68462W        W34871  28.467  16.193  12.460
68463W        W34872  15.034  18.807  12.522
68464W        W34873  21.148  36.761  13.524
68465W        W34874  17.088  13.838  12.424
68466W        W34875  13.318  17.502   2.312
68467W        W34876   3.086  22.924   3.725
68468W        W34877  38.942  30.030  14.616
68469W        W34878  12.412  32.863  12.952
68470W        W34879  39.574  39.425  14.735
68471W        W34880  43.091  30.886   1.448
68472W        W34881  14.749  16.577  12.385
68473W        W34882   0.254  28.106   1.874
68474W        W34883   2.786  10.963   2.694
68475W        W34884  11.359  36.628   0.237
68476W        W34885   4.799  29.684  13.807
68477W        W34886  20.602  15.112   4.170
68478W        W34887  43.971  15.345  11.081
68479W        W34888  11.907  38.961  13.239
68480W        W34889  43.005  17.815   0.402
68481W        W34890  20.838   3.039   2.369
68482W        W34891  20.388  43.248   1.405
68483W        W34892   4.214  42.049   3.710
68484W        W34893  29.027  24.399  11.583
68485W        W34894  17.728  27.238   0.848
68486W        W34895  23.388  18.762  13.399
68487W        W34896  35.767  17.768  13.541
68488W        W34897  32.152   7.380   3.180
68489W        W34898  27.546  41.020  13.393
68490W        W34899  35.138   4.273  14.413
68491W        W34900  24.034  22.068   0.346
68492W        W34901  22.786  27.957   0.856
68493W        W34902  34.689  34.182  10.509
68494W        W34903  32.316  21.972  10.780
68495W        W34904  15.560  35.344  14.575
68496W        W34905  33.655  22.263  13.572
68497W        W34906  18.392  26.431  14.918
68498W        W34907  16.435  31.782   1.188
68499W        W34908   4.458   8.033   0.329
68500W        W34909  21.705  14.836  11.887
68501W        W34910   7.673  29.451  14.920
68502W        W34911  22.804  11.396  10.691
68503W        W34912  44.747  26.546  12.362
68504W        W34913  41.553   6.472  12.461
68505W        W34914  33.338  30.277   4.534
68506W        W34915   9.266   2.483  11.598
68507W        W34916  16.451  24.585  13.468
68508W        W34917  36.464  29.969   4.688
68509W        W34918   2.956  27.442   2.845
68510W        W34919  33.572   6.968  11.321
68511W        W34920  11.076  41.028  12.234
68512W        W34921   1.336  21.806   2.359
68513W        W34922  33.147  21.914  11.900
68514W        W34923  40.821  21.581  10.703
68515W        W34924  16.145  17.356  12.029
68516W        W34925  26.499   4.496  10.168
68517W        W34926  14.736  30.088   1.920
68518W        W34927  20.815  36.341   1.172
68519W        W34928  43.063  10.278   4.272
68520W        W34929  31.335  15.452  12.080
68521W        W34930  25.007  30.442   4.382
68522W        W34931  20.617   6.125   4.620
68523W        W34932  44.044  33.384   1.249
68524W        W34933  42.819   4.180   4.551
68525W        W34934  21.314   2.542  11.020
68526W        W34935  43.156   3.690   3.707
68527W        W34936   1.143  33.840  11.206
68528W        W34937  32.963   7.811   1.004
68529W        W34938   6.084  40.004   0.096
68530W        W34939   1.770  28.082   4.660
68531W        W34940  26.723   4.249   2.986
68532W        W34941  22.025  33.056  12.146
68533W        W34942   8.882  36.188   0.746
68534W        W34943  17.206  31.213  10.621
68535W        W34944  42.917  30.278   4.872
68536W        W34945  16.805  19.675   4.594
68537W        W34946  39.148  24.916  12.577
68538W        W34947  38.864   0.529  11.623
68539W        W34948  13.784   6.227  12.349
68540W        W34949   1.840   2.147   1.651
68541W        W34950  40.687  31.479   4.907
68542W        W34951  33.898  37.452   3.226
68543W        W34952  19.776  22.220   1.843
68544W        W34953   7.227  25.271   0.737
68545W        W34954  27.577  18.442   1.743
68546W        W34955  30.507  37.794   0.411
68547W        W34956  26.642   6.034   2.310
68548W        W34957   6.913  11.430  14.558
68549W        W34958   6.092  44.875   2.644
68550W        W34959  27.724   4.365  11.204
68551W        W34960  10.855   1.703  13.954
68552W        W34961  21.422  40.290   4.966
68553W        W34962  31.115  37.388   2.176
68554W        W34963   0.425  18.978   0.005
68555W        W34964  27.060   6.299  11.232
68556W        W34965  19.262  11.701   1.954
68557W        W34966   0.773  21.767   0.870
68558W        W34967   2.808  44.919  11.103
68559W        W34968  26.589  34.525   3.271
68560W        W34969  35.085   1.544  14.473
68561W        W34970  27.088  27.644  14.766
68562W        W34971  20.450  43.551  14.537
68563W        W34972   0.468   3.353   3.674
68564W        W34973  15.816  38.359   1.637
68565W        W34974   4.286  18.856  14.370
68566W        W34975  41.671   8.849   1.911
68567W        W34976  28.172   8.860   1.297
68568W        W34977  23.629  42.864   4.782
68569W        W34978  32.718  39.621  14.896
68570W        W34979  32.307   8.736  11.646
68571W        W34980  19.146  20.900  14.482
68572W        W34981  26.648  39.514   4.675
68573W        W34982  34.538  24.019  12.572
68574W        W34983   3.003   6.658  12.977
68575W        W34984  30.402  11.116  11.744
68576W        W34985  20.094  10.709  10.719
68577W        W34986  43.857  29.447  14.936
68578W        W34987  34.501  43.537   2.758
68579W        W34988  25.529  13.126  12.601
68580W        W34989  26.852   7.351  13.412
68581W        W34990   3.731  18.765  13.133
68582W        W34991  15.093  38.828   2.199
68583W        W34992  24.604  31.968   3.934
68584W        W34993  31.413  26.766   3.575
68585W        W34994   8.080  40.797   4.148
68586W        W34995  29.534   1.019  14.589
68587W        W34996  27.167   8.926   1.870
68588W        W34997  11.478  32.601  14.287
68589W        W34998  30.916   1.727   4.232
68590W        W34999  12.898  41.407   1.357
68591W        W35000  42.771  32.677   0.289
68592W        W35001  10.157  19.319   0.388
68593W        W35002  11.221  12.183   0.238
68594W        W35003  35.823  40.095  12.493
68595W        W35004  27.575  20.926   3.170
68596W        W35005   4.548  25.854  13.116
68597W        W35006   1.889  29.436  14.267
68598W        W35007  21.160  17.246  10.729
68599W        W35008  23.940  41.083  14.767
68600W        W35009  31.451  26.411   0.676
68601W        W35010   4.483  36.644  11.989
68602W        W35011  13.258  14.740   0.895
68603W        W35012  11.192   4.470  14.775
68604W        W35013  30.324  32.474  11.689
68605W        W35014  35.770  11.137  14.219
68606W        W35015   6.850  41.317  12.062
68607W        W35016  28.047  34.774  14.246
68608W        W35017  12.160  27.523   0.631
68609W        W35018  11.420  38.560  11.640
68610W        W35019  39.168  10.231  10.399
68611W        W35020  14.273  34.769  11.626
68612W        W35021  16.735  44.458  14.500
68613W        W35022  16.275  22.035  13.849
68614W        W35023  38.333  42.236   3.802
68615W        W35024  16.630  12.933  14.770
68616W        W35025  39.039   0.235  13.882
68617W        W35026  14.365  28.541   0.189
68618W        W35027  36.788  40.933  11.673
68619W        W35028  40.956  34.364  11.184
68620W        W35029  23.635   4.308  12.171
68621W        W35030  12.853  26.643  12.652
68622W        W35031   7.291  41.722  14.323
68623W        W35032  30.252  13.772   3.700
68624W        W35033  27.951   5.225  11.310
68625W        W35034  37.055  28.767  11.531
68626W        W35035  12.527  34.153   2.627
68627W        W35036  26.451  44.175   9.912
68628W        W35037   6.698   6.898   1.423
68629W        W35038   0.796  33.464  11.245
68630W        W35039  22.317   1.718   0.267
68631W        W35040   0.916  35.930   0.448
68632W        W35041  24.052  33.533   0.716
68633W        W35042   5.754   4.400   2.255
68634W        W35043  13.045  28.532  11.668
68635W        W35044   9.454   6.332  11.949
68636W        W35045   2.919  44.793  13.345
68637W        W35046  10.547  19.270   4.554
68638W        W35047  26.164  42.908   3.259
68639W        W35048   8.354   6.130   0.492
68640W        W35049  19.821  23.148  11.155
68641W        W35050   2.660  16.714  14.539
68642W        W35051  44.270  35.624  12.550
68643W        W35052  35.099   2.490  14.442
68644W        W35053  13.783  13.291   0.464
68645W        W35054  22.614  43.000  14.359
68646W        W35055  24.291  15.660   0.812
68647W        W35056  29.030  11.858  12.632
68648W        W35057  43.485  15.301  11.436
68649W        W35058  13.239  43.933   4.156
68650W        W35059  11.162  37.453   1.929
68651W        W35060   8.741  31.387   3.304
68652W        W35061  26.488  18.740   4.574
68653W        W35062  10.900  44.316   4.112
68654W        W35063  39.055   8.233  12.371
68655W        W35064  27.268  23.024   4.840
68656W        W35065  42.346   1.465   4.287
68657W        W35066  13.672  36.374   4.644
68658W        W35067  35.879  12.788  11.554
68659W        W35068  10.222  37.980  14.978
68660W        W35069  22.264  20.561   2.846
68661W        W35070  12.790  35.557   1.684
68662W        W35071  21.186  21.983  13.869
68663W        W35072   3.265   7.845  13.423
68664W        W35073  33.703  18.589  14.489
68665W        W35074   0.370  19.549  14.386
68666W        W35075  19.328   2.439   0.354
68667W        W35076  22.712   5.696  13.890
68668W        W35077  41.751  29.669  12.069
68669W        W35078   3.827  31.859  14.051
68670W        W35079  33.837  11.676   4.457
68671W        W35080  35.343  40.099  13.525
68672W        W35081  43.329  37.464   1.655
68673W        W35082  21.228  24.482   4.608
68674W        W35083  40.747   0.266  13.246
68675W        W35084  31.828  21.260  12.151
68676W        W35085  28.029   9.460  12.015
68677W        W35086  17.963  44.473  10.718
68678W        W35087   4.649  12.793  14.452
68679W        W35088  10.183  17.166  11.531
68680W        W35089  14.831  42.808  14.584
68681W        W35090  44.637   8.634   3.277
68682W        W35091  17.207  30.827  11.456
68683W        W35092  35.658  42.917  11.219
68684W        W35093   3.461  42.324   0.078
68685W        W35094  12.227  35.135   4.462
68686W        W35095   6.285  11.390   0.378
68687W        W35096  30.520  26.173   3.625
68688W        W35097   7.445  16.866  13.416
68689W        W35098  33.848  20.684   4.475
68690W        W35099  31.049  36.908   2.342
68691W        W35100   4.679  19.160   4.152
68692W        W35101  13.096   2.993   3.563
68693W        W35102  16.183   7.370   0.311
68694W        W35103  19.236  19.978  11.140
68695W        W35104  13.085  21.696   1.864
68696W        W35105  26.761   7.394   5.287
68697W        W35106  32.003  18.204  10.248
68698W        W35107   1.507  11.707   0.196
68699W        W35108  16.150  15.165  14.639
68700W        W35109  35.455   3.695  13.581
68701W        W35110  36.642  43.580   2.554
68702W        W35111  19.674  30.620   0.603
68703W        W35112   7.702  38.014  10.976
68704W        W35113  37.100  38.576  11.162
68705W        W35114  31.655  11.391  12.110
68706W        W35115   1.897   3.173  12.943
68707W        W35116   8.935  17.028  12.417
68708W        W35117   6.863  44.969   4.103
68709W        W35118   9.935  41.486   1.100
68710W        W35119   9.539   9.159   1.689
68711W        W35120  30.887  25.127  13.382
68712W        W35121   1.901   9.833  11.566
68713W        W35122   2.860  19.038  12.508
68714W        W35123  12.895  44.714  11.187
68715W        W35124  14.117  42.501   3.190
68716W        W35125  28.972  16.665  11.662
68717W        W35126  17.057  17.354  13.823
68718W        W35127  39.079  24.151  13.323
68719W        W35128  31.051  44.693   0.362
68720W        W35129  17.835  11.788   4.097
68721W        W35130  21.549   3.293   0.757
68722W        W35131  17.292  36.293   0.615
68723W        W35132  44.437  33.493   2.506
68724W        W35133  13.630   9.829  11.092
68725W        W35134  34.120  29.944  14.393
68726W        W35135  18.114   8.215   3.980
68727W        W35136  42.005  11.578  14.494
68728W        W35137  29.650  15.825  13.968
68729W        W35138  40.975  26.663  11.463
68730W        W35139  30.665   2.954   1.922
68731W        W35140   4.284  41.086   1.063
68732W        W35141  31.406   4.541  10.981
68733W        W35142  17.767   7.827   4.619
68734W        W35143  10.283  41.785  11.218
68735W        W35144  18.245  40.759  13.411
68736W        W35145  13.804  13.142   3.364
68737W        W35146  34.175  43.042  13.582
68738W        W35147  26.569  43.275   0.975
68739W        W35148  21.308   6.151  10.313
68740W        W35149  28.585  18.622  14.252
68741W        W35150  25.986  31.737  11.212
68742W        W35151  22.573  37.946  10.669
68743W        W35152  31.499  28.614   1.892
68744W        W35153  15.352   4.474   4.880
68745W        W35154  26.634   3.881   4.601
68746W        W35155  34.028  24.210   3.655
68747W        W35156   4.196  41.969   2.394
68748W        W35157  33.577  28.612   1.357
68749W        W35158  27.360  13.312  14.373
68750W        W35159  22.980   2.773   4.423
68751W        W35160  12.190  33.592  13.576
68752W        W35161   1.699  14.952   2.687
68753W        W35162  16.909   5.383  13.090
68754W        W35163  22.555  11.836   2.285
68755W        W35164  30.612  27.070  14.998
68756W        W35165  25.244  14.624   3.305
68757W        W35166  28.558  10.428   0.685
68758W        W35167  22.532  20.708  12.120
68759W        W35168  20.504  32.957   1.318
68760W        W35169  16.537  42.416  11.358
68761W        W35170  11.164   6.305   1.165
68762W        W35171  28.239  15.392  11.033
68763W        W35172  12.107  14.048  12.502
68764W        W35173  20.154  32.999   3.272
68765W        W35174  19.566  13.575  14.099
68766W        W35175  31.913  42.397  10.953
68767W        W35176  44.499  31.558   1.075
68768W        W35177   3.229  24.589  11.120
68769W        W35178  42.998   2.272   4.874
68770W        W35179  35.478  38.093   1.858
68771W        W35180  27.011  42.570   2.311
68772W        W35181  12.206  10.800   2.722
68773W        W35182  19.328  32.531   1.026
68774W        W35183   4.013  16.907   1.760
68775W        W35184  19.158  25.991   1.212
68776W        W35185  13.432  34.977   2.055
68777W        W35186  34.077  40.088  14.904
68778W        W35187  40.988   7.423   1.847
68779W        W35188  32.678  17.678  13.237
68780W        W35189   3.325  11.656   1.411
68781W        W35190  31.948  13.832  13.894
68782W        W35191  28.018  23.241  14.021
68783W        W35192  38.649  29.468  12.528
68784W        W35193   9.688  24.184   4.088
68785W        W35194  15.168  25.270   3.558
68786W        W35195  30.018  12.023  12.121
68787W        W35196  12.633  19.511   0.830
68788W        W35197  40.105  13.533  12.966
68789W        W35198  33.520  13.836  14.362
68790W        W35199   3.630  10.237  14.332
68791W        W35200  29.127  10.311   4.036
68792W        W35201  33.342  18.401  14.862
68793W        W35202   6.614  11.686  13.085
68794W        W35203  18.269  42.923   4.768
68795W        W35204  11.343  43.260   0.764
68796W        W35205  27.246  29.310   1.372
68797W        W35206  20.492  22.440   2.367
68798W        W35207  38.001  11.407  12.324
68799W        W35208   4.455  11.698   3.871
68800W        W35209  38.939  44.541  10.507
68801W        W35210   2.335  27.993  10.246
68802W        W35211  31.108   4.064  11.599
68803W        W35212  19.558  15.271  10.414
68804W        W35213  12.899  37.003  12.021
68805W        W35214   2.760  31.300   2.657
68806W        W35215  37.487  39.035   2.346
68807W        W35216   0.516  18.949  11.206
68808W        W35217  16.221  43.031  11.837
68809W        W35218  22.794  28.091  11.042
68810W        W35219  39.513  22.481   1.530
68811W        W35220   8.902  13.521  10.802
68812W        W35221  28.981  18.401   1.764
68813W        W35222  33.923   5.002   3.708
68814W        W35223  31.013  22.687  14.484
68815W        W35224  10.296  28.099  13.545
68816W        W35225  34.538  26.146  13.622
68817W        W35226   6.897  20.386   0.357
68818W        W35227   2.830  44.724  11.597
68819W        W35228  37.478  28.952   4.412
68820W        W35229  18.161  39.592  13.861
68821W        W35230  39.186  39.566   0.701
68822W        W35231   8.215  36.967  11.640
68823W        W35232   7.200  16.489   2.153
68824W        W35233  10.565  19.469   1.779
68825W        W35234  12.305  39.409   1.442
68826W        W35235  20.758  28.028  11.978
68827W        W35236  41.467  29.801   3.551
68828W        W35237  36.038  36.900   0.436
68829W        W35238  43.767   0.295   1.289
68830W        W35239  19.677  25.501  14.301
68831W        W35240  23.144  37.370   2.753
68832W        W35241  15.782   4.528   4.513
68833W        W35242  20.552  22.018  13.657
68834W        W35243  29.048  37.029   0.992
68835W        W35244  40.715  30.622   3.578
68836W        W35245   3.687  38.867  13.123
68837W        W35246  30.669  10.708   4.832
68838W        W35247  18.247  29.481   4.166
68839W        W35248  16.283  27.276   2.132
68840W        W35249   7.211  29.384   3.285
68841W        W35250   3.446  13.813  13.829
68842W        W35251   8.890  29.708   1.719
68843W        W35252  12.692  29.408   2.874
68844W        W35253  26.752  18.720  13.374
68845W        W35254  30.889  15.171   1.253
68846W        W35255  35.013  20.458  11.464
68847W        W35256   4.187  17.408   1.810
68848W        W35257  12.842   8.316  14.041
68849W        W35258  20.301  12.692   2.685
68850W        W35259  21.118  11.275   0.393
68851W        W35260  18.724  26.479   1.306
68852W        W35261   4.886  21.079  11.377
68853W        W35262  34.633  15.062  13.031
68854W        W35263  40.044  27.986   1.439
68855W        W35264  16.648  14.562  11.122
68856W        W35265  34.559  24.051   0.371
68857W        W35266  28.674   5.659   3.161
68858W        W35267   1.318  18.274   0.161
68859W        W35268  44.574   4.438  13.157
68860W        W35269  28.294   2.621  13.365
68861W        W35270  15.864  23.600  10.730
68862W        W35271  16.664   3.438  14.569
68863W        W35272  41.335  40.786   4.131
68864W        W35273  42.789   6.827   3.604
68865W        W35274  32.001  18.851  11.995
68866W        W35275  24.939  39.080  12.638
68867W        W35276  30.015  16.755   3.241
68868W        W35277  36.571  37.552   9.746
68869W        W35278  10.873  22.516  11.389
68870W        W35279  40.312   0.311  11.172
68871W        W35280  29.938  30.953  12.103
68872W        W35281   9.909  27.510  13.059
68873W        W35282   6.961  11.370   1.430
68874W        W35283  34.284  35.245   2.931
68875W        W35284  38.520  34.181  12.044
68876W        W35285   5.432  23.169  12.534
68877W        W35286   2.911  25.568   3.236
68878W        W35287   6.942   9.316  11.075
68879W        W35288  11.689   4.488   0.081
68880W        W35289   0.002  14.743   3.170
68881W        W35290  23.125  18.207   1.345
68882W        W35291  36.152  34.557   3.857
68883W        W35292   1.109  37.481  13.100
68884W        W35293  24.562  43.391  10.709
68885W        W35294  22.491   1.382   0.849
68886W        W35295   8.952  42.531  10.450
68887W        W35296  36.246  12.784  14.802
68888W        W35297  38.071   6.934  11.659
68889W        W35298  40.199   7.296  13.855
68890W        W35299  44.739  35.060   3.412
68891W        W35300  34.935  27.830   4.239
68892W        W35301  41.059   1.432   1.383
68893W        W35302  26.340   7.713   2.383
68894W        W35303  20.241  42.791   1.167
68895W        W35304  36.234   0.573   2.653
68896W        W35305   7.578  13.963   3.961
68897W        W35306  12.063  37.092   4.738
68898W        W35307  22.607  11.624  11.120
68899W        W35308   3.411  37.410  13.581
68900W        W35309  14.728  24.555  12.790
68901W        W35310   4.525  22.506  11.108
68902W        W35311  12.466  38.529   0.367
68903W        W35312   6.776  37.529   0.596
68904W        W35313  13.589  38.780  14.226
68905W        W35314  19.595  32.099   4.151
68906W        W35315  22.624  12.657   4.260
68907W        W35316  16.592  30.213  11.445
68908W        W35317  23.755  17.994   0.883
68909W        W35318  38.838   6.239   1.772
68910W        W35319  32.069  21.755  12.148
68911W        W35320   9.353  38.472  10.861
68912W        W35321  39.682  35.331  11.902
68913W        W35322  41.353  39.948   0.876
68914W        W35323  22.630  29.445   1.733
68915W        W35324   9.657  42.082   4.738
68916W        W35325  32.918  29.405   1.961
68917W        W35326  22.313   7.331  11.249
68918W        W35327   4.654  24.095  11.997
68919W        W35328  21.678  23.193  10.550
68920W        W35329  34.220  12.828  14.056
68921W        W35330  35.011   5.411   0.341
68922W        W35331   8.708  35.850  12.062
68923W        W35332  14.641   3.902  14.703
68924W        W35333   7.944   4.659   3.618
68925W        W35334  28.016  38.025   2.017
68926W        W35335  31.968   2.442  14.266
68927W        W35336  20.310   4.917   2.715
68928W        W35337  42.729  24.352   5.024
68929W        W35338  40.277  36.316  13.575
68930W        W35339  38.539  10.843   1.981
68931W        W35340  23.963  16.248  14.701
68932W        W35341  28.979  17.358  13.343
68933W        W35342  24.184   9.829   1.874
68934W        W35343  28.904  26.059  11.194
68935W        W35344  23.994   2.955  11.851
68936W        W35345  10.517  27.612   3.194
68937W        W35346  10.347  12.043   1.733
68938W        W35347  37.447   2.452   4.064
68939W        W35348  31.424  11.819   3.936
68940W        W35349  35.492   3.996  12.118
68941W        W35350  24.097  31.206  13.503
68942W        W35351  18.139   4.569  12.122
68943W        W35352  15.804  27.039  11.179
68944W        W35353  10.801  28.064  13.736
68945W        W35354  44.244  20.525  10.470
68946W        W35355  28.957  10.183   2.710
68947W        W35356  42.397  41.844   0.833
68948W        W35357  37.355  13.197  10.828
68949W        W35358  26.462   5.870   1.843
68950W        W35359   3.636  29.975   1.734
68951W        W35360  42.078  39.537   3.739
68952W        W35361  18.468   3.997  11.218
68953W        W35362   9.833   1.726  12.524
68954W        W35363  35.540  15.185   4.671
68955W        W35364   3.823  19.993  11.464
68956W        W35365   0.407  34.880   4.636
68957W        W35366  27.415   6.816  10.195
68958W        W35367  11.549   1.323   3.194
68959W        W35368  44.880   6.355  12.651
68960W        W35369  25.961   0.985   3.290
68961W        W35370   9.319   7.801   2.132
68962W        W35371  26.837  42.862   0.383
68963W        W35372   1.513   4.428   3.244
68964W        W35373  16.672  23.965  12.427
68965W        W35374  35.378  31.682   1.464
68966W        W35375  42.562   1.299  14.301
68967W        W35376  35.952  11.318  11.555
68968W        W35377  30.542  12.622  12.079
68969W        W35378  19.646  30.186  11.633
68970W        W35379  27.162   6.594   4.534
68971W        W35380  13.919  40.921   0.205
68972W        W35381  41.151  15.219   2.848
68973W        W35382  24.618  27.463   2.256
68974W        W35383  40.400   8.713   5.158
68975W        W35384   3.708  13.270   2.166
68976W        W35385  32.107  34.837  12.078
68977W        W35386   7.780  22.320  13.505
68978W        W35387  44.901  34.910   2.398
68979W        W35388  43.719   6.700   2.254
68980W        W35389   4.145  16.308  13.586
68981W        W35390  31.773  12.961  14.470
68982W        W35391  20.470  18.943  14.428
68983W        W35392  19.222  17.066   3.685
68984W        W35393  28.681  28.770  12.466
68985W        W35394   7.376  22.290  11.548
68986W        W35395  14.307   8.502  14.422
68987W        W35396  24.648  40.765   3.684
68988W        W35397  28.941  18.831  13.283
68989W        W35398   9.905  16.609  13.337
68990W        W35399  20.551  36.566  12.193
68991W        W35400  27.719  13.890   2.172
68992W        W35401  22.604  13.715   0.391
68993W        W35402  12.992  30.630   3.363
68994W        W35403  36.487  40.729  10.859
68995W        W35404  17.139  10.329  14.430
68996W        W35405  42.318  16.947  12.466
68997W        W35406  10.776  18.246   4.483
68998W        W35407   3.206  39.885  10.500
68999W        W35408  18.328  12.255  13.031
69000W        W35409  12.124  43.746  11.154
69001W        W35410  29.871  33.972  11.954
69002W        W35411  40.239   4.230   1.220
69003W        W35412  40.992  28.240  12.541
69004W        W35413   5.996  23.640  12.000
69005W        W35414  11.260  30.479  13.629
69006W        W35415  17.631  38.553   9.852
69007W        W35416   4.358  19.759   3.152
69008W        W35417  14.166   3.610  10.201
69009W        W35418  17.496  30.478   1.890
69010W        W35419   9.700  15.257  14.991
69011W        W35420  21.186  25.037  14.422
69012W        W35421  44.420  43.752   3.492
69013W        W35422  25.219  37.128   2.214
69014W        W35423  13.794  35.911   4.809
69015W        W35424   9.435  16.671  10.687
69016W        W35425  26.386   6.686  14.798
69017W        W35426   5.662  35.647  11.180
69018W        W35427  21.277  17.501   0.950
69019W        W35428  37.795  29.981  12.922
69020W        W35429  11.261  39.276   1.417
69021W        W35430  17.645  24.015  13.468
69022W        W35431  36.393   9.795   2.410
69023W        W35432  37.030   0.271  12.535
69024W        W35433  18.678  15.825  12.986
69025W        W35434  40.270   3.727  13.841
69026W        W35435  11.895   1.138  12.567
69027W        W35436  22.924  34.214  12.021
69028W        W35437   3.792  34.071  11.934
69029W        W35438  18.667   3.330   0.315
69030W        W35439  17.144   2.323   3.131
69031W        W35440  13.929  34.902   2.185
69032W        W35441  42.309   2.964  14.442
69033W        W35442  15.844   5.797  14.968
69034W        W35443  28.120  41.586   0.767
69035W        W35444   5.449  35.252   2.618
69036W        W35445  20.039  44.889  11.141
69037W        W35446  13.673  21.831   3.700
69038W        W35447  41.861  34.012   1.008
69039W        W35448  42.193   5.799   3.344
69040W        W35449  27.981  41.052  14.705
69041W        W35450  43.306  42.587   4.245
69042W        W35451  32.470  16.566   0.191
69043W        W35452  11.093  10.864  11.056
69044W        W35453  26.640   7.310   4.297
69045W        W35454  14.243  40.226  11.132
69046W        W35455  37.554  28.112   2.529
69047W        W35456  24.191   1.198  13.609
69048W        W35457   4.177  30.094   0.706
69049W        W35458   3.038  21.829   0.756
69050W        W35459  19.638  44.643  11.935
69051W        W35460  19.840  27.701   2.350
69052W        W35461  36.540  13.778  13.751
69053W        W35462  14.174  19.533  14.898
69054W        W35463   2.535  42.719   1.880
69055W        W35464  38.774  12.753   1.387
69056W        W35465  10.886  40.942  11.671
69057W        W35466  15.542  15.335  12.440
69058W        W35467  42.744   2.888  14.871
69059W        W35468  18.031   4.435   3.327
69060W        W35469  23.949  28.952   1.857
69061W        W35470  16.807  11.616  13.425
69062W        W35471  39.947  24.590   0.905
69063W        W35472  15.311  16.065   1.733
69064W        W35473   8.485   0.121   3.836
69065W        W35474  11.750  44.681   9.904
69066W        W35475  16.809  10.917  12.117
69067W        W35476  40.012  43.880   4.660
69068W        W35477   7.599  35.124   4.070
69069W        W35478  36.405   4.283   4.704
69070W        W35479  34.727   3.565   0.339
69071W        W35480  28.036   9.093   2.266
69072W        W35481   9.818  14.752  11.717
69073W        W35482  34.378   1.068  14.768
69074W        W35483  18.203  11.578  14.867
69075W        W35484  11.443  16.591   4.561
69076W        W35485  30.874   5.427   2.335
69077W        W35486  36.913  41.007   3.468
69078W        W35487   4.892  27.201   4.180
69079W        W35488  43.994  19.587   3.464
69080W        W35489  28.731  30.017   4.520
69081W        W35490  10.211  21.721  12.386
69082W        W35491   1.453   9.453  12.006
69083W        W35492  29.408  34.851   3.818
69084W        W35493  11.179  27.342  13.994
69085W        W35494  13.194  30.716  11.994
69086W        W35495  21.660  23.580   2.664
69087W        W35496  43.894   9.156   3.944
69088W        W35497  39.815   8.514   1.025
69089W        W35498   4.933  34.640   3.893
69090W        W35499  25.772  42.023   4.778
69091W        W35500  30.402  43.510   2.367
69092W        W35501  28.735  27.252  12.438
69093W        W35502  16.841  38.561   2.668
69094W        W35503  26.915  17.337   2.284
69095W        W35504  14.124   3.658   2.438
69096W        W35505  10.388  22.544   4.086
69097W        W35506  32.254  13.595   2.341
69098W        W35507  29.910   9.163  12.167
69099W        W35508  28.392  13.770   4.057
69100W        W35509   3.905  43.569  13.597
69101W        W35510   4.479  33.352   2.300
69102W        W35511  39.448  34.567  11.879
69103W        W35512  37.313  13.223  13.428
69104W        W35513  40.425  19.198   3.688
69105W        W35514   1.340  29.173   1.851
69106W        W35515  41.620  26.158   1.336
69107W        W35516  42.809  42.414   3.546
69108W        W35517  39.915   0.166  11.984
69109W        W35518  24.122  23.333   0.002
69110W        W35519  28.172  39.733   3.035
69111W        W35520  37.683  34.482   0.512
69112W        W35521  43.051   2.040  14.661
69113W        W35522  12.268  41.808  11.566
69114W        W35523  14.036  36.295  11.609
69115W        W35524  31.606  40.108   3.271
69116W        W35525  42.898  33.727   1.362
69117W        W35526  23.021  37.112   1.880
69118W        W35527   8.043  32.843   1.613
69119W        W35528  35.156  30.461  13.798
69120W        W35529   9.186  17.252  14.047
69121W        W35530  32.924  44.005   0.811
69122W        W35531  20.917  31.436   3.588
69123W        W35532  26.211  13.656  11.064
69124W        W35533   4.254  25.898   0.681
69125W        W35534  29.620  20.565   0.064
69126W        W35535  20.309  25.024  14.196
69127W        W35536  18.772   3.806   3.302
69128W        W35537  32.942   3.466   1.261
69129W        W35538   4.313  41.030  11.531
69130W        W35539  15.097   0.976  14.347
69131W        W35540  32.454   6.938   4.180
69132W        W35541  11.656  23.338   4.410
69133W        W35542  40.236  13.290  11.217
69134W        W35543  32.650  12.322  14.845
69135W        W35544  40.978   5.309   0.239
69136W        W35545  26.636  21.790   3.797
69137W        W35546  41.846  33.563   0.785
69138W        W35547   5.337  29.085   2.134
69139W        W35548  23.790   3.363  13.896
69140W        W35549   8.845  31.623   0.285
69141W        W35550   7.174  11.801  12.035
69142W        W35551  44.567  44.243  12.478
69143W        W35552  26.695  26.591  13.185
69144W        W35553  35.902  26.517   1.609
69145W        W35554  43.369  38.157   3.870
69146W        W35555  43.708  41.555  11.953
69147W        W35556  18.055   2.181  10.602
69148W        W35557  41.595  25.395  13.487
69149W        W35558  40.052  15.565  11.739
69150W        W35559  30.631   9.499   5.385
69151W        W35560   9.343   0.922   3.234
69152W        W35561  15.617   0.319  13.961
69153W        W35562  36.043  15.416   4.048
69154W        W35563  19.710  22.427   0.251
69155W        W35564  12.861  25.464  11.418
69156W        W35565  16.143  12.203   2.197
69157W        W35566  39.457  29.162   1.801
69158W        W35567  39.936  10.263   2.400
69159W        W35568  19.649  14.124  14.801
69160W        W35569  19.601  14.831   1.936
69161W        W35570  28.506  29.457   3.476
69162W        W35571  39.569  28.132   1.593
69163W        W35572  12.626   4.167   0.918
69164W        W35573  11.793  32.443   2.315
69165W        W35574  24.503  25.587  13.529
69166W        W35575   5.609  13.658   0.445
69167W        W35576  41.475  11.348   4.084
69168W        W35577  16.636  42.434   0.992
69169W        W35578  44.093   5.432   0.855
69170W        W35579   8.704   5.243   1.366
69171W        W35580   5.787  42.236  11.229
69172W        W35581  34.977  41.578  12.092
69173W        W35582  14.942  12.091   1.735
69174W        W35583  20.149   8.343   1.783
69175W        W35584   6.195  31.139  13.897
69176W        W35585  16.555   9.950   3.643
69177W        W35586  37.427  22.801   2.355
69178W        W35587  44.206  42.379  13.893
69179W        W35588  17.307  30.391  13.870
69180W        W35589  33.405  11.435   4.127
69181W        W35590   9.285  30.977   0.282
69182W        W35591  39.427   3.782  14.526
69183W        W35592   8.109  36.946   1.258
69184W        W35593   4.833  41.985  11.099
69185W        W35594  44.779  37.109  12.906
69186W        W35595  24.849  17.181  12.568
69187W        W35596   2.312   7.800   1.614
69188W        W35597  37.244  32.636   2.878
69189W        W35598   8.792  13.867   2.124
69190W        W35599  26.952  39.799  11.587
69191W        W35600  20.801  17.569  12.789
69192W        W35601  29.402  44.573  14.326
69193W        W35602  34.630  16.199   2.661
69194W        W35603   3.850  17.073  10.937
69195W        W35604  15.341   8.398   3.086
69196W        W35605   6.988   9.127   1.733
69197W        W35606  40.485  24.648  11.401
69198W        W35607   0.089  20.767   3.656
69199W        W35608  42.214  25.971  11.575
69200W        W35609  14.177  17.282  11.518
69201W        W35610  43.789  23.926  10.747
69202W        W35611  18.481  20.115  13.259
69203W        W35612  25.191  12.832   2.483
69204W        W35613  23.005  41.026   4.675
69205W        W35614  11.528  31.890  13.420
69206W        W35615  24.114  27.608   2.380
69207W        W35616  14.663  21.062   3.269
69208W        W35617  35.966  31.700   3.538
69209W        W35618  15.308  42.414   1.856
69210W        W35619   8.344   1.756   0.828
69211W        W35620   2.263   1.504   2.421
69212W        W35621  44.143   9.801   2.697
69213W        W35622  14.851   9.721   2.887
69214W        W35623   5.275  19.339  12.976
69215W        W35624  42.279  24.486  13.430
69216W        W35625   2.565  29.623  12.123
69217W        W35626  24.997  25.959   4.047
69218W        W35627  13.438  44.880   3.642
69219W        W35628  34.833  29.538   2.755
69220W        W35629  23.226   9.429   4.433
69221W        W35630  40.217  28.175  14.034
69222W        W35631  15.623  32.512   3.885
69223W        W35632  33.697  12.963  10.899
69224W        W35633   4.709   6.693  11.671
69225W        W35634  30.954   9.436   1.500
69226W        W35635  41.579  39.464   3.756
69227W        W35636  44.382  39.346  11.798
69228W        W35637  14.722  18.652   1.727
69229W        W35638  15.276  29.398   3.752
69230W        W35639  32.267  31.938  11.664
69231W        W35640  30.633   6.141   1.824
69232W        W35641   7.875   2.452  13.537
69233W        W35642  23.481   4.444  10.717
69234W        W35643   5.686  12.855   0.345
69235W        W35644   7.917  36.484  14.508
69236W        W35645   9.654  37.417  13.589
69237W        W35646  29.833  22.524   4.891
69238W        W35647   1.041  25.589   4.279
69239W        W35648  26.259  34.673  11.306
69240W        W35649  37.100  34.780  10.880
69241W        W35650  11.608  10.358   0.927
69242W        W35651  38.805  41.445   1.260
69243W        W35652  31.034  10.804   0.517
69244W        W35653   8.422  22.469   1.144
69245W        W35654   2.937  23.235   2.936
69246W        W35655  23.033  31.882   3.195
69247W        W35656  42.963  39.175   0.376
69248W        W35657  35.618  33.297   0.475
69249W        W35658  14.918   0.450  12.414
69250W        W35659   3.844  40.422   2.267
69251W        W35660  28.810  21.778  13.434
69252W        W35661  31.757  42.466   3.674
69253W        W35662  30.569   4.466  11.062
69254W        W35663   4.565  23.721   4.093
69255W        W35664  39.835  21.195  10.309
69256W        W35665  32.077   1.657   9.524
69257W        W35666   6.868  17.119   0.518
69258W        W35667  29.977  17.008   3.701
69259W        W35668  27.124  11.201  11.821
69260W        W35669  37.107  42.957   3.610
69261W        W35670  40.824  42.246  13.291
69262W        W35671  27.495  37.711  12.034
69263W        W35672  13.073  37.833   3.291
69264W        W35673  23.687  12.775   2.169
69265W        W35674  31.470  37.439   2.980
69266W        W35675  40.751  25.111  11.476
69267W        W35676  23.773  27.030   4.681
69268W        W35677   0.882  40.268   2.271
69269W        W35678  22.671  13.648  12.468
69270W        W35679  17.731  17.405  12.978
69271W        W35680  38.130  22.715  12.037
69272W        W35681  30.532  20.188  12.359
69273W        W35682  31.555  16.257   3.976
69274W        W35683  19.245  21.697   1.222
69275W        W35684  14.836  15.793   0.607
69276W        W35685  36.555  14.115   2.886
69277W        W35686   5.310  34.864  11.697
69278W        W35687  21.806  41.291   0.888
69279W        W35688  41.005  25.315   2.680
69280W        W35689  28.597  29.444  12.987
69281W        W35690   3.642   9.389   1.025
69282W        W35691  24.170  37.043  13.012
69283W        W35692  11.285  23.694   4.576
69284W        W35693  40.740  13.218   1.227
69285W        W35694   3.805  16.722  12.065
69286W        W35695   6.554  10.769  10.762
69287W        W35696  20.030   3.177  10.013
69288W        W35697  32.665  27.948   2.635
69289W        W35698   8.418  25.900  10.677
69290W        W35699  25.388  12.537  11.475
69291W        W35700  37.237  13.070   2.353
69292W        W35701  37.774   3.526   1.375
69293W        W35702  35.693  40.982  12.090
69294W        W35703   6.710  40.793  14.906
69295W        W35704   4.024  18.576   3.076
69296W        W35705  23.956  41.075  11.702
69297W        W35706   0.275  12.234   1.181
69298W        W35707  32.423  15.835  10.935
69299W        W35708   0.232  13.896  12.496
69300W        W35709  43.098  13.785   4.791
69301W        W35710  41.859   6.846   1.762
69302W        W35711  15.046  44.061  11.588
69303W        W35712  41.398  32.618  11.026
69304W        W35713  15.686  12.599   0.732
69305W        W35714  22.764  33.861   0.659
69306W        W35715  28.458   8.557   3.632
69307W        W35716  12.178  30.969   2.065
69308W        W35717  41.494  40.328  12.156
69309W        W35718  33.511   7.217  13.587
69310W        W35719  23.556  37.933  10.757
69311W        W35720  36.555  42.414   4.663
69312W        W35721  30.459   5.216  11.796
69313W        W35722  21.932   0.727   1.857
69314W        W35723  30.151  11.541   4.083
69315W        W35724  43.826  21.726   3.689
69316W        W35725   9.575  21.931  14.036
69317W        W35726  30.974  34.406   2.641
69318W        W35727  25.376  15.551  14.564
69319W        W35728   4.706  39.764   1.737
69320W        W35729   4.911  23.471  11.113
69321W        W35730  32.080  24.146   0.305
69322W        W35731  22.654  22.203   2.934
69323W        W35732  35.580  41.770   4.182
69324W        W35733   3.240   9.893  14.403
69325W        W35734  30.989  22.058  11.610
69326W        W35735  21.741  24.480   4.514
69327W        W35736  26.696  21.521  13.951
69328W        W35737  21.450  38.578   1.383
69329W        W35738   1.433  38.410  12.649
69330W        W35739  25.736  18.214  14.438
69331W        W35740  17.765  25.556  10.629
69332W        W35741   5.516  40.988  13.480
69333W        W35742  35.512   0.310  12.377
69334W        W35743  11.346  28.135   0.209
69335W        W35744  17.123  21.745   3.388
69336W        W35745  32.485  32.177   1.120
69337W        W35746  41.459  44.021  13.055
69338W        W35747  33.315   6.255   1.195
69339W        W35748  11.197  23.474   3.583
69340W        W35749   3.419  44.095   0.099
69341W        W35750  27.031   8.703   0.436
69342W        W35751  37.453  44.918  14.401
69343W        W35752  21.818   5.357   2.316
69344W        W35753  16.140  19.072  12.581
69345W        W35754  39.327  22.701   1.983
69346W        W35755  27.082  24.844   2.130
69347W        W35756  39.392  13.384   1.947
69348W        W35757  14.373  13.144   4.253
69349W        W35758   4.764  16.089   3.626
69350W        W35759  16.829  41.980   0.381
69351W        W35760  15.481   1.239   4.245
69352W        W35761  43.382  38.673  11.936
69353W        W35762  29.431   8.134   0.461
69354W        W35763  21.469  30.534  11.225
69355W        W35764  37.121   3.033  13.108
69356W        W35765   5.447  27.534   2.646
69357W        W35766  11.545  23.107   1.919
69358W        W35767  20.053  26.594  14.102
69359W        W35768  39.812  40.330  13.201
69360W        W35769  21.693  21.190  10.794
69361W        W35770  39.120  23.016  12.017
69362W        W35771   6.719  11.099   1.780
69363W        W35772   9.613  29.642  14.564
69364W        W35773  26.890   9.254   1.215
69365W        W35774  28.044  33.197   1.531
69366W        W35775  32.025  37.244  13.277
69367W        W35776  32.869   0.286  11.970
69368W        W35777  27.468   9.429  12.936
69369W        W35778  18.051   5.783   2.170
69370W        W35779  20.439  43.616   4.571
69371W        W35780   3.439  28.558  14.498
69372W        W35781  28.596  42.090  13.545
69373W        W35782  25.517   1.507  12.510
69374W        W35783   4.927  32.125   2.399
69375W        W35784  26.463  27.084   3.210
69376W        W35785  34.883  41.284  10.681
69377W        W35786   8.597  44.746   0.666
69378W        W35787  16.258   0.305   1.506
69379W        W35788  17.498  15.751   3.091
69380W        W35789  21.197  17.067   3.830
69381W        W35790  17.892  19.653  13.468
69382W        W35791  35.049   3.746  11.355
69383W        W35792   8.722   4.908   0.859
69384W        W35793  19.014  40.399   1.401
69385W        W35794  14.796   5.401   2.462
69386W        W35795  31.249  27.594   4.702
69387W        W35796   8.289  14.117  11.193
69388W        W35797  22.725  21.545   4.152
69389W        W35798   6.595  39.940  12.534
69390W        W35799  36.881  19.142  11.091
69391W        W35800  16.848  17.310   0.688
69392W        W35801  38.589   9.819   1.822
69393W        W35802  17.086  11.268  12.821
69394W        W35803   9.249  41.798  12.117
69395W        W35804  43.375  29.539   1.838
69396W        W35805  36.066  40.837  12.928
69397W        W35806  15.712   5.087  13.825
69398W        W35807   5.353  22.655  13.280
69399W        W35808  42.285  26.699   1.472
69400W        W35809  34.030  31.722   1.550
69401W        W35810  10.210  31.539   4.958
69402W        W35811  25.181   6.124  14.977
69403W        W35812  20.765  39.605  12.998
69404W        W35813  17.332  11.794   4.087
69405W        W35814   9.224   1.905   2.321
69406W        W35815  32.511  30.632   3.199
69407W        W35816  18.489   1.727  14.428
69408W        W35817  27.881  24.721   0.433
69409W        W35818  39.043   4.240   4.443
69410W        W35819   5.444  10.869   0.365
69411W        W35820  11.415  44.141  12.254
69412W        W35821  18.316   4.302   0.396
69413W        W35822   4.361   1.524  14.352
69414W        W35823   5.280  25.005  10.219
69415W        W35824  39.908   5.491  14.812
69416W        W35825  22.564  18.497  11.769
69417W        W35826  13.559  28.584  11.628
69418W        W35827   7.494   4.677  11.151
69419W        W35828   5.662   5.013  12.963
69420W        W35829  20.756  32.518   4.378
69421W        W35830   5.068  38.337  10.741
69422W        W35831  33.500   1.733  14.714
69423W        W35832  19.701   2.863  12.072
69424W        W35833  30.641   5.286  12.334
69425W        W35834  30.159   1.908  14.781
69426W        W35835  38.157  41.043  12.637
69427W        W35836  19.259  19.065   1.503
69428W        W35837  18.653  35.994   0.701
69429W        W35838  41.331  12.673   4.305
69430W        W35839   2.125  27.579   1.148
69431W        W35840  41.774  12.453  10.849
69432W        W35841  10.255  14.748  11.416
69433W        W35842  23.977  19.134  14.503
69434W        W35843   4.958  33.041   4.108
69435W        W35844  22.516  36.585   3.366
69436W        W35845   1.841   7.573  10.624
69437W        W35846  32.287  16.976  10.204
69438W        W35847  36.387   8.953   4.276
69439W        W35848  30.122  11.228   0.481
69440W        W35849   1.413  22.059   0.420
69441W        W35850  24.682  43.879  12.572
69442W        W35851   7.267  15.888  12.474
69443W        W35852   0.324   5.419   2.670
69444W        W35853  27.643   6.898  13.551
69445W        W35854  37.918  18.832  14.245
69446W        W35855  17.301  30.720  10.732
69447W        W35856  40.939  18.232   4.990
69448W        W35857  27.250  38.357   1.883
69449W        W35858  31.830  13.286  13.980
69450W        W35859   3.886   5.735  10.822
69451W        W35860   0.334   6.889  11.559
69452W        W35861  18.725   7.847  13.800
69453W        W35862  25.151  31.774  12.988
69454W        W35863  38.429  18.050  13.894
69455W        W35864  22.649  42.082  10.735
69456W        W35865  35.698   8.423  12.610
69457W        W35866  39.532  43.233  12.983
69458W        W35867   0.999  21.507   2.660
69459W        W35868   6.216  22.125  14.555
69460W        W35869  10.361   3.238  11.040
69461W        W35870  30.166  35.866  13.337
69462W        W35871  31.085  26.990  12.372
69463W        W35872  30.871  22.612   2.025
69464W        W35873  27.935  14.534   4.475
69465W        W35874  43.335  43.569   3.214
69466W        W35875  25.975  30.008  10.641
69467W        W35876  26.729  35.487   1.881
69468W        W35877  15.022  42.037   1.148
69469W        W35878   6.501  21.200  13.416
69470W        W35879   7.251  32.099   4.149
69471W        W35880   3.560  41.366   5.022
69472W        W35881  10.860  40.359  14.831
69473W        W35882   6.730  32.351  13.488
69474W        W35883  43.436  36.590  12.594
69475W        W35884  33.885  34.399   0.411
69476W        W35885  26.111   0.142  13.483
69477W        W35886   4.808  39.065  12.159
69478W        W35887  43.962   5.453  12.758
69479W        W35888  31.679   3.561  12.900
69480W        W35889  35.193  25.916  10.975
69481W        W35890   7.377  16.910  12.613
69482W        W35891   6.846  28.448   3.179
69483W        W35892  44.240  27.488  11.625
69484W        W35893  35.735  25.166  12.645
69485W        W35894   5.777  33.057  10.971
69486W        W35895  33.500  12.296  12.463
69487W        W35896  18.125  29.447   1.868
69488W        W35897  30.541  17.858  11.883
69489W        W35898  24.488  35.486   0.673
69490W        W35899  15.126   1.904  11.003
69491W        W35900  27.436  42.280   2.700
69492W        W35901  27.113  30.621   3.357
69493W        W35902  33.181  28.997   3.839
69494W        W35903  40.045  21.341   4.545
69495W        W35904   5.285  35.703  14.237
69496W        W35905  20.045  11.270  14.869
69497W        W35906   4.443  16.759   0.803
69498W        W35907  37.661  19.577  11.124
69499W        W35908  31.800  34.297  13.041
69500W        W35909   7.301  13.313  13.529
69501W        W35910   2.364  35.099   3.073
69502W        W35911  18.784   9.446   0.069
69503W        W35912   5.705  16.577   1.262
69504W        W35913  39.805  44.251  10.914
69505W        W35914  26.425  31.604   2.818
69506W        W35915  11.752  36.828  10.529
69507W        W35916  10.770  28.679   4.342
69508W        W35917  14.317  28.536   2.917
69509W        W35918  30.164  17.075   0.022
69510W        W35919  23.653  37.369  11.576
69511W        W35920   8.334  11.781  10.421
69512W        W35921  24.968  27.933   3.271
69513W        W35922  20.569  30.110  14.867
69514W        W35923   6.558  44.731   2.808
69515W        W35924  41.962  40.973   1.682
69516W        W35925  43.757  14.152   4.654
69517W        W35926  25.472  26.033   2.338
69518W        W35927  29.204  35.396   0.589
69519W        W35928  36.015   7.395   3.246
69520W        W35929  30.081  42.259   2.065
69521W        W35930   3.390  43.816  12.055
69522W        W35931  15.001  41.200  13.885
69523W        W35932  42.567  32.022  11.840
69524W        W35933  13.307  31.830  11.889
69525W        W35934  13.297  34.579   2.777
69526W        W35935   2.800  35.610  11.893
69527W        W35936  22.518  22.118  12.524
69528W        W35937  26.023   7.398   2.673
69529W        W35938   6.467  22.033   2.175
69530W        W35939  44.858  16.602  12.469
69531W        W35940  30.467  34.876   2.229
69532W        W35941  30.583  12.938   4.380
69533W        W35942   7.636  38.559   0.110
69534W        W35943  29.922  26.673   3.231
69535W        W35944  43.338  33.374  10.287
69536W        W35945  12.827   2.038  12.385
69537W        W35946  11.867   7.265   1.758
69538W        W35947  44.855  40.436   4.103
69539W        W35948  12.093   1.318  11.303
69540W        W35949  20.876  33.357   0.203
69541W        W35950  17.434  40.770  13.982
69542W        W35951  38.025  27.938   2.441
69543W        W35952  31.940  26.960   3.728
69544W        W35953  23.155  11.178  14.819
69545W        W35954  33.390  21.224   3.724
69546W        W35955  33.857  18.181  12.104
69547W        W35956   5.060  24.978   2.852
69548W        W35957  18.589  11.759   1.341
69549W        W35958  41.872  19.150   4.202
69550W        W35959  13.120  16.805   0.869
69551W        W35960   2.747  14.249  10.916
69552W        W35961   7.867  42.117   0.283
69553W        W35962  34.444  35.389   3.394
69554W        W35963   4.834  28.966  13.200
69555W        W35964   0.941   3.023   4.752
69556W        W35965   7.363   7.895   2.370
69557W        W35966   2.756   8.479  13.080
69558W        W35967  42.853   5.220   2.382
69559W        W35968   0.754  29.532   4.323
69560W        W35969  30.083  33.362   4.205
69561W        W35970   2.289  24.817   4.557
69562W        W35971  36.925  16.198   4.549
69563W        W35972  31.902  11.145   3.452
69564W        W35973  38.805  25.584   4.528
69565W        W35974  22.553  39.866  13.810
69566W        W35975   7.873  11.386  12.354
69567W        W35976  42.987  20.578   3.304
69568W        W35977  38.828   1.523  11.738
69569W        W35978  34.898  28.183   2.412
69570W        W35979   4.323   2.574  14.376
69571W        W35980  14.374  12.687  13.804
69572W        W35981  18.158  12.700   3.092
69573W        W35982  40.992  16.555  14.700
69574W        W35983  41.465  32.507  10.424
69575W        W35984   8.689  31.075   4.479
69576W        W35985  37.350  39.374   3.674
69577W        W35986  38.891  36.388  11.038
69578W        W35987  19.584  36.698  11.590
69579W        W35988  43.538   7.228   1.417
69580W        W35989  18.651  40.515   3.714
69581W        W35990  20.247  18.452   3.394
69582W        W35991  23.043   0.875  13.987
69583W        W35992  30.880  18.651  11.408
69584W        W35993  31.410  22.741   1.919
69585W        W35994   4.301   9.756  12.122
69586W        W35995  40.723  29.187   4.432
69587W        W35996   8.172  32.340   4.066
69588W        W35997  13.897  12.621  11.860
69589W        W35998  12.851   3.856   2.661
69590W        W35999  38.423  33.971   1.375
69591W        W36000  27.563  30.347   2.174
69592W        W36001  32.787  38.269   1.543
69593W        W36002   2.750  13.376   1.970
69594W        W36003  24.712   0.824  12.129
69595W        W36004  34.135  18.731  14.785
69596W        W36005  32.732  22.049   1.761
69597W        W36006  10.871  41.058   3.149
69598W        W36007  43.322  34.280   3.409
69599W        W36008  28.745   2.721   0.251
69600W        W36009  40.763  37.394   9.996
69601W        W36010   4.747  42.987  13.698
69602W        W36011  21.238  18.086   1.244
69603W        W36012  40.340  12.904   4.468
69604W        W36013   5.638  43.569   3.612
69605W        W36014  11.591  12.288   2.235
69606W        W36015   3.524   4.676   9.972
69607W        W36016  41.284  31.131  11.459
69608W        W36017   0.730  27.102   0.750
69609W        W36018  16.102  12.645  11.085
69610W        W36019   4.081  11.417   3.135
69611W        W36020  44.419  13.169  14.902
69612W        W36021  36.842   8.128  12.598
69613W        W36022  39.928  10.880  10.683
69614W        W36023   0.989  24.967  12.024
69615W        W36024  33.450  24.641   2.227
69616W        W36025  43.015  26.133  11.794
69617W        W36026  28.478  32.833  12.522
69618W        W36027  15.688  10.362   5.058
69619W        W36028  15.091  34.908  13.877
69620W        W36029  25.517   1.921   9.881
69621W        W36030  42.321  12.730  10.695
69622W        W36031  37.075  28.987   1.276
69623W        W36032   3.017  18.859  12.060
69624W        W36033  37.103  20.730   0.778
69625W        W36034  41.279  41.696  12.163
69626W        W36035  44.082  40.800  13.036
69627W        W36036  23.291  19.768  10.581
69628W        W36037   4.894  37.504   2.666
69629W        W36038  16.601  44.054  14.808
69630W        W36039  19.254  38.323  14.369
69631W        W36040   6.340  18.448   3.986
69632W        W36041  10.081   9.894   1.706
69633W        W36042  19.311   6.669   1.248
69634W        W36043  17.046  37.656   0.818
69635W        W36044  26.914  32.443  10.649
69636W        W36045  38.523  14.697   0.938
69637W        W36046  28.984  30.023  11.557
69638W        W36047   4.358  28.196   1.526
69639W        W36048  16.888  17.047  12.044
69640W        W36049  21.752  36.900  12.126
69641W        W36050   3.138  33.413   2.362
69642W        W36051  19.584  32.135  11.991
69643W        W36052   9.430  28.773   4.153
69644W        W36053   1.825  30.865  12.666
69645W        W36054  33.565  35.084   0.218
69646W        W36055  27.598  20.789   0.888
69647W        W36056  21.999  39.039   1.824
69648W        W36057   7.319   1.522   0.493
69649W        W36058   8.127  20.530   1.496
69650W        W36059  39.361  18.140   1.641
69651W        W36060   9.750  25.356  14.780
69652W        W36061  19.007  38.747   1.858
69653W        W36062  30.915  14.648  11.863
69654W        W36063  14.820   3.452  14.932
69655W        W36064  31.112  27.739   2.800
69656W        W36065  14.378  10.600  11.097
69657W        W36066  31.515  33.774   0.402
69658W        W36067   5.395   2.870  11.916
69659W        W36068  20.511  18.630   1.187
69660W        W36069  18.511  27.447  12.445
69661W        W36070   0.526  16.765   1.286
69662W        W36071   8.407  43.759  12.333
69663W        W36072  28.927  19.644  12.872
69664W        W36073  21.660  40.532   0.706
69665W        W36074   9.257  18.590   2.310
69666W        W36075  41.681  16.829   1.600
69667W        W36076   8.924  32.108   0.017
69668W        W36077  27.800  34.864  14.740
69669W        W36078  28.894  28.606  13.343
69670W        W36079  14.230  18.959  11.208
69671W        W36080  42.251  20.182   0.869
69672W        W36081  24.471  37.037  13.670
69673W        W36082  12.529  21.445   3.691
69674W        W36083  31.627  40.933   1.579
69675W        W36084  21.285  37.036   4.735
69676W        W36085  23.532   5.205  12.135
69677W        W36086  23.051   3.388  11.004
69678W        W36087  22.920  39.825  13.333
69679W        W36088  23.024  39.171   2.254
69680W        W36089  41.714   7.893   2.605
69681W        W36090  16.647  39.955  13.404
69682W        W36091   3.086  39.400   4.093
69683W        W36092  37.837  39.862  10.837
69684W        W36093  23.929  18.354   3.598
69685W        W36094  19.048  23.839   3.497
69686W        W36095  20.492  24.884   2.406
69687W        W36096  36.345   5.370   4.522
69688W        W36097  11.645  12.434   3.598
69689W        W36098  14.873  30.561   0.835
69690W        W36099  37.385  31.902  13.613
69691W        W36100  13.371  32.172   1.878
69692W        W36101  14.650   9.603  13.001
69693W        W36102  44.948  26.992   3.147
69694W        W36103  24.148  12.011  12.082
69695W        W36104   7.438  27.481  13.274
69696W        W36105  12.720  33.918  14.458
69697W        W36106  11.373  21.831  11.396
69698W        W36107  26.046  18.758  14.901
69699W        W36108  19.931  28.875   3.097
69700W        W36109  17.770  21.699  13.958
69701W        W36110  21.985  23.690  13.323
69702W        W36111  37.716  36.109  13.068
69703W        W36112  32.435  37.324   1.995
69704W        W36113  26.450  39.969   4.868
69705W        W36114  33.117   7.528   2.318
69706W        W36115   2.550  25.700   4.740
69707W        W36116  43.943  22.593   0.811
69708W        W36117  10.404  17.007  14.773
69709W        W36118  39.997  23.159   4.718
69710W        W36119   2.815  32.182  14.974
69711W        W36120   8.069  20.698   3.697
69712W        W36121  34.526  11.118  10.365
69713W        W36122  19.546  41.361  14.729
69714W        W36123  24.128  14.881  10.663
69715W        W36124  37.264  31.322   3.111
69716W        W36125   5.226  11.617   3.380
69717W        W36126  18.687  24.021  12.605
69718W        W36127  37.406   0.211  13.386
69719W        W36128  35.949  29.552   0.400
69720W        W36129  33.480  20.479  12.470
69721W        W36130  24.702   3.736  12.951
69722W        W36131  44.183  28.761  14.707
69723W        W36132   2.997  11.190   4.568
69724W        W36133  26.145  25.834  11.539
69725W        W36134   4.134   5.257  14.998
69726W        W36135  23.279  11.817  12.050
69727W        W36136   2.619   0.854  14.868
69728W        W36137  23.713  26.972   0.756
69729W        W36138  10.747  31.021   0.756
69730W        W36139  26.830  31.124   4.239
69731W        W36140  11.231  45.000  14.650
69732W        W36141  31.649  30.576  13.613
69733W        W36142   1.590  28.001  11.156
69734W        W36143  11.043  29.770   4.749
69735W        W36144   4.280  42.827  10.487
69736W        W36145   1.895  28.022  10.549
69737W        W36146  19.021  10.382   2.369
69738W        W36147   9.929  24.259   1.753
69739W        W36148  18.036  44.246   3.716
69740W        W36149  36.194  18.108   2.505
69741W        W36150  30.474   7.277   2.361
69742W        W36151  36.967  40.099  13.813
69743W        W36152   0.141  32.012  13.379
69744W        W36153  20.749  23.749  10.529
69745W        W36154   3.271   5.930  11.490
69746W        W36155  29.871  36.666   1.284
69747W        W36156  25.504  17.583  14.403
69748W        W36157  40.061  11.422   2.487
69749W        W36158   2.609  31.430   3.843
69750W        W36159  44.070   5.648  13.246
69751W        W36160  33.293  10.663  10.993
69752W        W36161  36.513   7.202   4.721
69753W        W36162  20.646  16.337   2.780
69754W        W36163  36.503  40.182  10.879
69755W        W36164  14.398  19.589  14.418
69756W        W36165  40.633  41.890   2.420
69757W        W36166  20.541  28.870  13.451
69758W        W36167   0.001  22.194  12.613
69759W        W36168  26.011   9.404  11.666
69760W        W36169  13.280   8.524   1.863
69761W        W36170  10.061  40.510  14.267
69762W        W36171  30.705  30.471  12.053
69763W        W36172  36.562  15.008   2.422
69764W        W36173   5.253  22.809   3.248
69765W        W36174  10.802  38.300   1.492
69766W        W36175   5.264  13.862  13.155
69767W        W36176  25.071  43.232  11.725
69768W        W36177   2.477  18.567  10.707
69769W        W36178  36.812  20.952   2.290
69770W        W36179  23.704  19.347  11.119
69771W        W36180  24.109  32.640  14.650
69772W        W36181  29.019  24.677   2.751
69773W        W36182   1.373  38.146   3.040
69774W        W36183  19.482  40.951  14.355
69775W        W36184  41.212  20.151   0.976
69776W        W36185   1.389  43.016   3.722
69777W        W36186  38.178   9.644   3.769
69778W        W36187  21.221  33.553   1.289
69779W        W36188  41.808  36.905  12.991
69780W        W36189  44.815  37.055   0.183
69781W        W36190  43.974   0.182   2.971
69782W        W36191  18.020   8.401   2.836
69783W        W36192  34.982  39.167  13.048
69784W        W36193   9.876  30.637   5.154
69785W        W36194  28.697  16.877  12.484
69786W        W36195  11.922   7.792  12.622
69787W        W36196  14.611  28.506  11.603
69788W        W36197  39.402  20.529  10.653
69789W        W36198  32.809  34.637  12.402
69790W        W36199  31.543  16.004   4.655
69791W        W36200  41.908  41.481  14.960
69792W        W36201  18.483   8.789  10.293
69793W        W36202  20.037  31.016   0.744
69794W        W36203  39.396   4.615  11.963
69795W        W36204   3.257  33.029   2.791
69796W        W36205  12.294   5.885  12.964
69797W        W36206  35.543  39.839  14.086
69798W        W36207   0.025   7.794  12.130
69799W        W36208  16.623   4.303  13.195
69800W        W36209   1.966  44.701   2.356
69801W        W36210   0.985  10.354  10.321
69802W        W36211  10.186  40.021  10.629
69803W        W36212   0.198  35.383   4.725
69804W        W36213  34.381  38.886   3.658
69805W        W36214   9.297  16.192   3.405
69806W        W36215   5.399  16.101   4.494
69807W        W36216   7.866  28.178  14.841
69808W        W36217  25.753  24.593  13.107
69809W        W36218  37.323  34.668   4.418
69810W        W36219  11.089  18.568  13.638
69811W        W36220  11.380  33.591  11.503
69812W        W36221  24.284  44.215   2.170
69813W        W36222  40.494   8.462   2.992
69814W        W36223  24.465  38.792   3.494
69815W        W36224  38.924  33.420  13.484
69816W        W36225   9.910  28.235   1.872
69817W        W36226   6.436   6.802  12.307
69818W        W36227  43.025  40.058   1.399
69819W        W36228   9.240  28.517  14.264
69820W        W36229  13.018  22.388  13.505
69821W        W36230  25.164  21.548  10.185
69822W        W36231  36.443   9.273  13.917
69823W        W36232   3.784  13.369  11.603
69824W        W36233  37.281   3.548  13.589
69825W        W36234  32.479  26.084   1.231
69826W        W36235  15.851  31.944  11.464
69827W        W36236   5.390  33.833   1.369
69828W        W36237  12.610  43.725   5.172
69829W        W36238  25.680  42.539   4.023
69830W        W36239   5.735  11.684  13.105
69831W        W36240  35.415  30.912   2.664
69832W        W36241  17.746  38.232  10.235
69833W        W36242   5.424  12.762  14.863
69834W        W36243  31.877  30.738  11.196
69835W        W36244  10.610  11.190   4.454
69836W        W36245  36.633  20.358  11.572
69837W        W36246  44.284  41.442  14.845
69838W        W36247  37.768   8.876  11.571
69839W        W36248  36.106  34.907   3.255
69840W        W36249  29.972  38.722   1.169
69841W        W36250  20.717   3.317  13.153
69842W        W36251   6.900  18.233  10.599
69843W        W36252  17.373  14.728   3.278
69844W        W36253  23.851  33.444   9.946
69845W        W36254  10.922   2.317   3.617
69846W        W36255  29.469   9.754   2.219
69847W        W36256  20.786  37.805  13.997
69848W        W36257  34.099  26.578  12.401
69849W        W36258   5.838  26.415  10.837
69850W        W36259  22.671  14.300  13.739
69851W        W36260  19.281  44.021   4.769
69852W        W36261  14.172  15.682  11.675
69853W        W36262  12.700  34.391  12.433
69854W        W36263   5.250  31.444   1.902
69855W        W36264  22.782  26.688  12.999
69856W        W36265  15.745  38.797   0.908
69857W        W36266  14.864  36.471  14.781
69858W        W36267  41.344  14.794  12.547
69859W        W36268  44.768  27.890   1.850
69860W        W36269  20.768  19.975   3.419
69861W        W36270  25.031   6.328  12.066
69862W        W36271  26.753   7.225   0.429
69863W        W36272  27.010  37.955   5.033
69864W        W36273  22.149  10.271  13.877
69865W        W36274  11.132  20.219   1.225
69866W        W36275  28.356  41.501   3.653
69867W        W36276  25.055  43.485   0.881
69868W        W36277  32.753  21.544  12.003
69869W        W36278  17.222  19.559   2.364
69870W        W36279   1.840  34.213  11.312
69871W        W36280  19.585  40.410   4.592
69872W        W36281   4.183  42.964   3.598
69873W        W36282  27.440  26.425  10.879
69874W        W36283  15.198  13.646   1.922
69875W        W36284  43.215  33.841   3.169
69876W        W36285   5.290  29.625  11.227
69877W        W36286  15.668  23.498   2.164
69878W        W36287  21.775  23.272  13.844
69879W        W36288  31.818   3.193  12.562
69880W        W36289   2.887  35.688  11.068
69881W        W36290  42.982  34.946   1.698
69882W        W36291  10.061  22.677  14.422
69883W        W36292  15.544  26.928  13.925
69884W        W36293  42.593   9.822   1.857
69885W        W36294  10.266  39.130   1.260
69886W        W36295  39.434  32.384  11.520
69887W        W36296   0.955  23.770   2.331
69888W        W36297   0.249  39.018   3.318
69889W        W36298  39.840  19.692   0.364
69890W        W36299   6.082  37.302  10.045
69891W        W36300  38.606  24.340  13.393
69892W        W36301  32.014  37.492   1.752
69893W        W36302  14.184   0.262  13.788
69894W        W36303  37.447  39.331  10.691
69895W        W36304  20.639  41.822   4.556
69896W        W36305  22.265  19.755  13.470
69897W        W36306  14.922  27.042   0.216
69898W        W36307  40.525  44.302   0.382
69899W        W36308   4.170  36.383   0.142
69900W        W36309   8.196  36.623  10.509
69901W        W36310  44.028  21.062  11.130
69902W        W36311  24.947  43.791  11.573
69903W        W36312  10.801  11.294   1.917
69904W        W36313  43.426  34.056   2.706
69905W        W36314  36.348  39.979  13.386
69906W        W36315  19.037   4.683  12.451
69907W        W36316  10.612   3.211   3.782
69908W        W36317   3.079  44.818   4.390
69909W        W36318  19.505   0.383   2.701
69910W        W36319  43.720   9.448  12.517
69911W        W36320  16.859  13.603  13.081
69912W        W36321  39.786  19.565   1.720
69913W        W36322  24.072  11.728   2.626
69914W        W36323   7.175  43.412  12.397
69915W        W36324  44.390  31.713  11.555
69916W        W36325  43.286  11.233  13.017
69917W        W36326   6.338  25.999  13.067
69918W        W36327  25.471  31.201   4.253
69919W        W36328  15.851  36.350   0.034
69920W        W36329  39.325  16.892   4.113
69921W        W36330   7.394  17.650  13.970
69922W        W36331  11.865  25.622  13.119
69923W        W36332  41.924  16.202   0.930
69924W        W36333  20.543  38.473  12.028
69925W        W36334  42.704  16.455   4.880
69926W        W36335  15.552  39.147   1.231
69927W        W36336   0.264  36.913  14.986
69928W        W36337  43.081  25.130  12.507
69929W        W36338  26.759  28.457  11.187
69930W        W36339  33.001  35.843  14.938
69931W        W36340  21.375  16.227  12.927
69932W        W36341   3.207  12.269  13.120
69933W        W36342   3.848  14.686  14.521
69934W        W36343  25.749  43.153   0.059
69935W        W36344  34.304  30.393   4.688
69936W        W36345  39.798  38.645  13.118
69937W        W36346  26.037   4.708   0.879
69938W        W36347  26.144  37.472   1.853
69939W        W36348  12.405  26.966   2.773
69940W        W36349  15.036  41.916  13.442
69941W        W36350   4.161  23.488  12.526
69942W        W36351  24.952   2.801  12.988
69943W        W36352  37.476  21.930   4.603
69944W        W36353  38.786  15.215  10.612
69945W        W36354  32.105  27.450   4.430
69946W        W36355  25.592  38.004   4.680
69947W        W36356  11.900   1.588  14.767
69948W        W36357   2.728  42.104  12.045
69949W        W36358  32.429  22.543   3.369
69950W        W36359  38.044  13.493   3.669
69951W        W36360  42.197  39.969   0.455
69952W        W36361   7.893  10.685  14.537
69953W        W36362  15.157  27.919   4.265
69954W        W36363  39.657  32.351  12.021
69955W        W36364  36.321  11.644  11.659
69956W        W36365  10.388  31.567  13.585
69957W        W36366  23.573  32.174   4.137
69958W        W36367  18.868  20.577  12.499
69959W        W36368  38.506  12.915   4.651
69960W        W36369  36.602  27.924  11.691
69961W        W36370  22.730   9.724  10.315
69962W        W36371  11.938  12.610  14.860
69963W        W36372  26.155  35.415   5.090
69964W        W36373  15.406  35.252   2.929
69965W        W36374   1.327  18.549   3.878
69966W        W36375  18.901  43.461  13.726
69967W        W36376   8.495  34.316   0.925
69968W        W36377  21.726  19.767   2.747
69969W        W36378   6.291  21.034   1.736
69970W        W36379  19.566   9.102  11.236
69971W        W36380   8.687  34.856   2.517
69972W        W36381  10.907  32.885   2.581
69973W        W36382  31.373  11.405  11.477
69974W        W36383  10.273  39.308   3.276
69975W        W36384   0.500  30.983  13.047
69976W        W36385  40.933  25.002  11.928
69977W        W36386  19.317   7.319  13.247
69978W        W36387   5.688  22.665   0.766
69979W        W36388   5.498  38.533  13.857
69980W        W36389  30.983  16.018   2.828
69981W        W36390   2.731  13.778  10.647
69982W        W36391  16.611   8.208  10.634
69983W        W36392  43.113   1.793  11.489
69984W        W36393  18.798  29.514   0.301
69985W        W36394  38.962  14.827  11.962
69986W        W36395   0.753  32.798  11.590
69987W        W36396  20.066  32.899  13.038
69988W        W36397  31.378  21.019  12.086
69989W        W36398  26.434  28.404   4.479
69990W        W36399  27.059  29.497   4.490
69991W        W36400  10.192   2.343   0.517
69992W        W36401  37.757   9.616   2.792
69993W        W36402  18.244  43.317  14.560
69994W        W36403  36.561   9.547  11.661
69995W        W36404  25.997  30.889  11.618
69996W        W36405   4.832  37.417   3.662
69997W        W36406  17.661   4.385   0.916
69998W        W36407  15.463   0.877   2.275
69999W        W36408  36.456   4.180  13.102
70000W        W36409  36.811  19.748   2.698
70001W        W36410   7.290  26.026  13.619
70002W        W36411   5.664  33.389   2.750
70003W        W36412  23.069  15.144  14.335
70004W        W36413   4.935  39.017   5.057
70005W        W36414   3.162  30.616   2.242
70006W        W36415  15.346  27.617  10.670
70007W        W36416   0.006  41.298  13.529
70008W        W36417  28.972   6.117   0.839
70009W        W36418  43.037  36.838  11.659
70010W        W36419  35.065  27.605   1.284
70011W        W36420   2.327  40.060  14.763
70012W        W36421  26.122   8.127  13.521
70013W        W36422  31.164  35.877   1.351
70014W        W36423  29.537  18.288   3.831
70015W        W36424  18.839  34.752   4.113
70016W        W36425  35.150  19.567   3.645
70017W        W36426  16.817  38.896  10.961
70018W        W36427  14.121  36.015  12.041
70019W        W36428  11.229  42.110  12.384
70020W        W36429  33.850   2.576  13.009
70021W        W36430  12.095  29.321   1.313
70022W        W36431  23.149  41.958  12.420
70023W        W36432  26.028  14.256   1.808
70024W        W36433  34.573  37.503   4.950
70025W        W36434   2.797  38.509   4.707
70026W        W36435  39.897  37.079  11.714
70027W        W36436  19.312   0.137   3.698
70028W        W36437  39.872   2.809   4.507
70029W        W36438  25.903   1.789   2.713
70030W        W36439  33.229  29.042   2.217
70031W        W36440  17.344  15.042  10.674
70032W        W36441  23.479  30.756   1.651
70033W        W36442  22.735   6.813   3.252
70034W        W36443  30.189  29.163   1.252
70035W        W36444  35.954  21.025  12.547
70036W        W36445  41.420  38.588  12.548
70037W        W36446  14.804  42.292   1.876
70038W        W36447  22.017  33.499   4.518
70039W        W36448  21.030  25.951  10.689
70040W        W36449  37.823   6.772  12.070
70041W        W36450  19.169  36.727   4.435
70042W        W36451  32.847  21.118  14.926
70043W        W36452  34.343  43.516   3.816
70044W        W36453   3.918  24.155   0.013
70045W        W36454  39.430  14.890   2.189
70046W        W36455  21.945  39.361  10.668
70047W        W36456  37.452  20.570  10.580
70048W        W36457   9.572  32.924   3.702
70049W        W36458  15.152  22.584   0.975
70050W        W36459   3.573  10.748  13.439
70051W        W36460  15.064  26.083  12.754
70052W        W36461   3.227   2.999  11.426
70053W        W36462  15.602  20.283   3.622
70054W        W36463  15.514   6.355   0.002
70055W        W36464  27.178   6.746   3.064
70056W        W36465  38.749   3.092   0.410
70057W        W36466  16.513  26.942   1.321
70058W        W36467  32.496   1.216   2.440
70059W        W36468  37.950  15.988   1.043
70060W        W36469   7.124  19.819   4.245
70061W        W36470  23.341  22.471   3.177
70062W        W36471   2.308  13.781   3.664
70063W        W36472  39.541  36.207  12.043
70064W        W36473  15.248   6.675   1.343
70065W        W36474  40.357   5.672  13.204
70066W        W36475  25.368   4.352   1.546
70067W        W36476   5.405  17.828  12.282
70068W        W36477  34.864   6.397  11.992
70069W        W36478   9.475  22.568  11.685
70070W        W36479  31.397  11.031  12.385
70071W        W36480  29.125  27.591   3.618
70072W        W36481  21.763   9.182   0.832
70073W        W36482  28.490  33.469  13.168
70074W        W36483  43.409  36.008  14.962
70075W        W36484  12.744   8.968   1.959
70076W        W36485  16.108  32.215   3.176
70077W        W36486  28.937  44.802  14.242
70078W        W36487   1.920  24.216  10.675
70079W        W36488  13.151  20.123   1.254
70080W        W36489  24.921   1.784  10.740
70081W        W36490  38.074  42.914  13.301
70082W        W36491   0.926  37.082   1.262
70083W        W36492  31.570  31.630   0.923
70084W        W36493  11.202   8.265  10.643
70085W        W36494  18.502   0.428   2.937
70086W        W36495   3.633   0.961  11.331
70087W        W36496   0.266  29.235  13.880
70088W        W36497  23.656  36.709   1.336
70089W        W36498   2.026  27.539   3.849
70090W        W36499  42.922  41.577   4.286
70091W        W36500  31.471  29.156  10.783
70092W        W36501  24.761  32.421   3.114
70093W        W36502  30.580  35.775   4.961
70094W        W36503  24.143  40.376   0.306
70095W        W36504  28.436  21.277  10.681
70096W        W36505  21.509  40.948  14.523
70097W        W36506  28.458  11.862  11.071
70098W        W36507   5.404  28.605  12.577
70099W        W36508   3.497  11.169  11.658
70100W        W36509   5.711  43.059  11.629
70101W        W36510  38.834  26.994   4.110
70102W        W36511  26.223  26.389  13.335
70103W        W36512   6.740   0.243   0.552
70104W        W36513  11.290  10.824   0.049
70105W        W36514  24.041  43.408  14.918
70106W        W36515  39.090  35.827   2.377
70107W        W36516   2.232  39.933  12.071
70108W        W36517  20.260   4.661   3.641
70109W        W36518  43.301  44.832  11.587
70110W        W36519  24.621  20.870  12.189
70111W        W36520   2.640  22.579  12.510
70112W        W36521  43.837   0.595   2.661
70113W        W36522  20.135  14.861   4.219
70114W        W36523  23.483  17.487  13.492
70115W        W36524  23.676  20.067  11.635
70116W        W36525   0.891  36.451   0.525
70117W        W36526   9.807   7.923   1.406
70118W        W36527  16.907  12.803  12.093
70119W        W36528  39.932  28.935   1.787
70120W        W36529  15.725   6.747   3.459
70121W        W36530   3.336  20.511   0.272
70122W        W36531  39.937   2.117  13.958
70123W        W36532  42.309  21.445  14.911
70124W        W36533  11.660  12.453   0.291
70125W        W36534  44.833  26.115  10.420
70126W        W36535  41.500   4.947   0.447
70127W        W36536   1.780  21.806  14.524
70128W        W36537  23.125   1.766  10.371
70129W        W36538   4.938   2.792   2.778
70130W        W36539  17.644  38.635  11.569
70131W        W36540  33.190  17.721   2.318
70132W        W36541   9.178  29.995  11.705
70133W        W36542   3.313  34.849  12.019
70134W        W36543  10.923  15.021  13.002
70135W        W36544  16.448  39.249  10.840
70136W        W36545   1.810  41.587  13.680
70137W        W36546  39.145  29.291   0.549
70138W        W36547  43.280  29.190   1.277
70139W        W36548  13.104  33.693  12.341
70140W        W36549  44.495  24.031   3.689
70141W        W36550  40.381  14.698  12.441
70142W        W36551   9.329  43.162  11.206
70143W        W36552  18.810  10.494  13.718
70144W        W36553  41.130  17.065   2.771
70145W        W36554  28.451  35.618  12.102
70146W        W36555  15.093  15.040  12.410
70147W        W36556  20.557  39.447  11.119
70148W        W36557  19.382   5.012   3.752
70149W        W36558  25.472  23.151   0.339
70150W        W36559  25.970  28.653   3.730
70151W        W36560  20.579  18.695  10.456
70152W        W36561  26.300  29.587   2.165
70153W        W36562   8.655  21.117   0.310
70154W        W36563  34.010   3.717   3.739
70155W        W36564  26.090  15.457  12.403
70156W        W36565  18.048  44.752  14.178
70157W        W36566  37.575  31.230   2.706
70158W        W36567  18.097  40.010  11.525
70159W        W36568  13.676   5.773  10.708
70160W        W36569  37.921  22.970  13.783
70161W        W36570  15.357  34.098   0.271
70162W        W36571  28.758  31.503   4.587
70163W        W36572  27.023  35.923  13.003
70164W        W36573  22.248   6.332   2.594
70165W        W36574  42.383   0.493  11.404
70166W        W36575  14.229  39.334   1.279
70167W        W36576  41.002   5.793  10.647
70168W        W36577  13.739  30.105   4.476
70169W        W36578  22.252  29.672   0.370
70170W        W36579   9.334  31.488   1.720
70171W        W36580  15.093  40.860   0.072
70172W        W36581  30.573  36.488  10.867
70173W        W36582   4.836  31.669  11.532
70174W        W36583  41.238  27.260  11.865
70175W        W36584   4.542  38.004  14.015
70176W        W36585   4.379  20.276   3.335
70177W        W36586  17.793  31.940  14.803
70178W        W36587  26.816  37.792   0.490
70179W        W36588  20.740  38.112  13.557
70180W        W36589   7.813  20.757   2.310
70181W        W36590  31.989  18.506   4.394
70182W        W36591  16.894   0.733  10.660
70183W        W36592  29.395  41.101  10.426
70184W        W36593  16.612  44.743   2.809
70185W        W36594  14.651  13.725   2.653
70186W        W36595   4.797  32.439  12.673
70187W        W36596  20.044  31.446  11.752
70188W        W36597   5.305   7.943  14.408
70189W        W36598  14.112  36.331   0.235
70190W        W36599   7.859  27.115  12.046
70191W        W36600  22.675  37.581   5.103
70192W        W36601   6.460   3.201  12.322
70193W        W36602  17.647   8.101   4.184
70194W        W36603  19.724  40.663   0.874
70195W        W36604   4.149  12.122  13.550
70196W        W36605  41.127  39.094   1.651
70197W        W36606  33.932  15.519  12.925
70198W        W36607  29.381  32.546  14.077
70199W        W36608  10.760   1.275   1.306
70200W        W36609   0.269  18.720  14.408
70201W        W36610   8.238   2.047  10.824
70202W        W36611  22.494  43.333   2.228
70203W        W36612  17.152  14.536   4.588
70204W        W36613  41.288  16.033   0.313
70205W        W36614  26.998  33.460   0.920
70206W        W36615  43.513  39.188  11.945
70207W        W36616  29.549  12.105   4.811
70208W        W36617   5.255   0.754   1.222
70209W        W36618  44.660  43.765  11.994
70210W        W36619  44.436  21.206   4.804
70211W        W36620  40.611   5.820   2.125
70212W        W36621  12.760  11.690  12.469
70213W        W36622  17.789  20.827  11.293
70214W        W36623  41.571  23.135  11.248
70215W        W36624  15.789   4.110   1.409
70216W        W36625  26.489  26.973  14.075
70217W        W36626  40.496  32.285   3.969
70218W        W36627  41.023  17.593   2.140
70219W        W36628  30.052   7.912  13.117
70220W        W36629   3.185   8.472  11.792
70221W        W36630  36.914  33.358  12.554
70222W        W36631  17.300  15.557   2.607
70223W        W36632  28.213  32.941   4.574
70224W        W36633  10.384  12.038  11.157
70225W        W36634  42.385  35.133   2.282
70226W        W36635  35.374  40.445   2.414
70227W        W36636   9.442  31.997   1.884
70228W        W36637   4.491  33.432   3.082
70229W        W36638  16.930  41.698   2.244
70230W        W36639  27.654  33.945   4.789
70231W        W36640  37.800  26.128   3.899
70232W        W36641  22.646  11.368  12.445
70233W        W36642   4.223  34.999  12.420
70234W        W36643  42.845  25.160   0.767
70235W        W36644  23.597  16.230  13.368
70236W        W36645  35.101  35.611   4.295
70237W        W36646  16.523  32.644   1.527
70238W        W36647  42.073   9.876   1.864
70239W        W36648   4.891  44.722  12.384
70240W        W36649  19.755  26.705   1.909
70241W        W36650  37.500  37.813  13.469
70242W        W36651  41.643  22.613   1.976
70243W        W36652  15.484  38.634   1.318
70244W        W36653  29.121   0.311  13.667
70245W        W36654  42.485  36.068  11.694
70246W        W36655  20.219  28.082   2.643
70247W        W36656  20.446  11.934  11.070
70248W        W36657  30.860   5.752  12.184
70249W        W36658  25.139  29.591  14.441
70250W        W36659   7.054  29.516  10.372
70251W        W36660  20.332   8.304   3.685
70252W        W36661  30.006  20.053  12.190
70253W        W36662  33.397   1.280  14.995
70254W        W36663  25.930  41.488  13.212
70255W        W36664   4.992  31.717   3.660
70256W        W36665  16.257  25.117  13.463
70257W        W36666  32.047  24.239   2.625
70258W        W36667  22.603  37.561  13.067
70259W        W36668  11.758  37.162   0.882
70260W        W36669   9.240  24.071   3.831
70261W        W36670   3.789  12.777   0.079
70262W        W36671   1.851   5.533  13.461
70263W        W36672   6.185   2.285   2.885
70264W        W36673   4.710  16.281  13.345
70265W        W36674  17.767  21.671   2.375
70266W        W36675  18.776   3.422  13.497
70267W        W36676  29.071  29.593  11.836
70268W        W36677  42.136  29.631  11.224
70269W        W36678   8.693  35.404   1.222
70270W        W36679  31.045   8.293  13.621
70271W        W36680  27.434  19.646   4.647
70272W        W36681  25.803  16.810  12.918
70273W        W36682   3.200  35.218   4.217
70274W        W36683  11.718  19.382   0.830
70275W        W36684  40.964  24.775  13.629
70276W        W36685   9.702   3.546   4.585
70277W        W36686  41.935  36.067  10.690
70278W        W36687  43.403   7.148   2.435
70279W        W36688  19.176  17.173  14.405
70280W        W36689  20.734  29.974   1.823
70281W        W36690  18.040  44.014   1.357
70282W        W36691   0.445   4.405   3.859
70283W        W36692  32.167  13.649   3.336
70284W        W36693  39.576  11.995  13.856
70285W        W36694  29.026  25.664  14.352
70286W        W36695  30.453  37.290   0.329
70287W        W36696  30.664  36.008   1.285
70288W        W36697   7.147   1.858   4.090
70289W        W36698  40.430  29.099   1.779
70290W        W36699  32.020  21.302   4.760
70291W        W36700  16.124  22.751  12.105
70292W        W36701  23.881   5.323   1.292
70293W        W36702  10.837  26.488   4.533
70294W        W36703  15.073  30.759  14.089
70295W        W36704   4.699  25.440   0.493
70296W        W36705  30.435  17.124   1.173
70297W        W36706  25.730  39.280  14.875
70298W        W36707  43.525  19.046   0.356
70299W        W36708   8.392  32.621   3.684
70300W        W36709  10.726  33.380   0.409
70301W        W36710  31.972  15.154  13.591
70302W        W36711   4.507  25.272  11.585
70303W        W36712  23.272  27.131   4.693
70304W        W36713  29.656  28.396   2.130
70305W        W36714  19.992  10.412   0.238
70306W        W36715  28.934   0.809   1.614
70307W        W36716  43.002  36.581   0.399
70308W        W36717  32.025  37.008   2.480
70309W        W36718  11.757  43.818   4.135
70310W        W36719  21.020  24.611  14.789
70311W        W36720  44.758  15.535   2.588
70312W        W36721  23.026  20.400  13.068
70313W        W36722   2.852   6.185   3.350
70314W        W36723   9.684  42.428   3.780
70315W        W36724  27.026  38.083  14.386
70316W        W36725  35.087  41.021  12.883
70317W        W36726  34.523  20.027  14.872
70318W        W36727   9.360  28.187  14.948
70319W        W36728   7.816   7.249  12.076
70320W        W36729  40.521  10.236  14.251
70321W        W36730  40.092  43.789  14.687
70322W        W36731  44.959   1.072   0.405
70323W        W36732  43.262  13.228  14.090
70324W        W36733  31.958  27.568   3.222
70325W        W36734  10.873  27.568   0.714
70326W        W36735   9.327   1.402   3.505
70327W        W36736  25.042  28.279   2.319
70328W        W36737  35.904   2.871  14.989
70329W        W36738  33.274   1.746  14.262
70330W        W36739  12.180  13.109  11.111
70331W        W36740  12.145  39.090  10.951
70332W        W36741  32.969  30.907   3.224
70333W        W36742   1.701  22.224   3.085
70334W        W36743  35.942  24.607   1.647
70335W        W36744  41.567  41.935  11.351
70336W        W36745  28.381   2.313  12.380
70337W        W36746  39.517  35.404  10.603
70338W        W36747  30.557  25.596  12.598
70339W        W36748  33.124  18.710   4.206
70340W        W36749   3.863   6.197  12.076
70341W        W36750   8.923  22.707   4.101
70342W        W36751  32.004  25.999   2.278
70343W        W36752  42.786   2.706   3.135
70344W        W36753  36.498  13.767   3.633
70345W        W36754  36.941  26.477   1.423
70346W        W36755  17.738  43.215  12.001
70347W        W36756  43.408   4.824  14.219
70348W        W36757  40.409  44.728  11.222
70349W        W36758   5.882  29.474  12.950
70350W        W36759  21.829  14.421  12.613
70351W        W36760  29.670  24.193  13.953
70352W        W36761  38.599   0.340  12.532
70353W        W36762   0.537  30.123  13.051
70354W        W36763   6.273  28.127  11.160
70355W        W36764  20.051  20.797  11.950
70356W        W36765  14.087  20.946  12.151
70357W        W36766  20.091  19.979   0.939
70358W        W36767  15.874  38.969   3.777
70359W        W36768  31.715  22.238  14.361
70360W        W36769   0.456   9.412   1.512
70361W        W36770  10.698   6.507   0.037
70362W        W36771   1.747   5.872   3.527
70363W        W36772  26.549  32.923  11.913
70364W        W36773   3.013  29.799  13.588
70365W        W36774  38.539  11.564   0.498
70366W        W36775  33.847  36.314   3.804
70367W        W36776   1.750  11.927  11.133
70368W        W36777  44.842  40.492   0.346
70369W        W36778   8.426  38.027   1.875
70370W        W36779  12.742  28.617   1.516
70371W        W36780  26.092  21.478  14.369
70372W        W36781   7.997  11.832   4.093
70373W        W36782  28.546  28.612  14.676
70374W        W36783  29.862  42.875  11.572
70375W        W36784   2.667   0.426  13.834
70376W        W36785  18.693   6.609  11.787
70377W        W36786  18.153  33.735   4.071
70378W        W36787  28.956   0.373  12.444
70379W        W36788  23.551  25.262  14.538
70380W        W36789  11.656   0.704   1.400
70381W        W36790  38.477   2.729  12.100
70382W        W36791  26.882  29.458  12.781
70383W        W36792   5.189  26.559   1.017
70384W        W36793   8.647   9.860   1.876
70385W        W36794  17.572  42.232  12.952
70386W        W36795  34.330  40.396   0.259
70387W        W36796  34.687  30.667   2.150
70388W        W36797  18.187  14.418   0.912
70389W        W36798  14.980  11.786   0.902
70390W        W36799  13.102  32.419  11.579
70391W        W36800  33.995  15.206   0.209
70392W        W36801  34.438  28.674  13.395
70393W        W36802  41.043  33.478   3.596
70394W        W36803   3.149   2.171  12.066
70395W        W36804  30.877   8.786  11.497
70396W        W36805  21.552  39.281   2.786
70397W        W36806  13.296   2.946  11.215
70398W        W36807  35.665  15.693  12.363
70399W        W36808  25.024   9.368  14.181
70400W        W36809  33.110   2.526   0.274
70401W        W36810  40.694  26.168   4.809
70402W        W36811   2.813  27.890  14.805
70403W        W36812  41.951  38.619   3.635
70404W        W36813  25.694  13.170  13.532
70405W        W36814  36.537  39.049   2.635
70406W        W36815  16.249  22.171   1.146
70407W        W36816  21.672  12.869  12.866
70408W        W36817  18.195  27.436   0.022
70409W        W36818  13.257  14.807   1.397
70410W        W36819  19.181  33.499  13.389
70411W        W36820  37.010  25.119   2.440
70412W        W36821  38.501  24.307   0.977
70413W        W36822   2.880   9.078  14.102
70414W        W36823  10.807  14.700   3.105
70415W        W36824  13.122  20.069   0.338
70416W        W36825   7.356  12.341  13.848
70417W        W36826  20.413  34.385   1.974
70418W        W36827   5.317  41.876   1.389
70419W        W36828  13.386  36.590   0.112
70420W        W36829  24.648   7.933  11.541
70421W        W36830  31.446  30.113   1.939
70422W        W36831  26.002   3.841  11.720
70423W        W36832  15.744   6.366  10.797
70424W        W36833  28.696  43.775   4.503
70425W        W36834  10.944  15.142  12.020
70426W        W36835   2.794  40.840   4.257
70427W        W36836  19.311  20.246   4.633
70428W        W36837  23.436  42.378   4.675
70429W        W36838  14.261  26.427  13.799
70430W        W36839  24.129  10.734   1.477
70431W        W36840  23.003  42.555   4.867
70432W        W36841  15.318  11.829   3.170
70433W        W36842  17.425   0.943   3.565
70434W        W36843   5.934  17.283  11.677
70435W        W36844   7.339  33.456  13.161
70436W        W36845  26.412  39.834  11.556
70437W        W36846  12.843  36.137   5.011
70438W        W36847  42.969  31.361  14.841
70439W        W36848   5.028  26.417  14.827
70440W        W36849  15.601  23.268  14.404
70441W        W36850  38.532  37.912   2.285
70442W        W36851  25.896  32.389  11.607
70443W        W36852  34.085   2.447  11.664
70444W        W36853  44.917   0.333   1.885
70445W        W36854   6.199  33.877   1.931
70446W        W36855  41.619  23.409   1.767
70447W        W36856  43.353   7.502  13.930
70448W        W36857  40.818  27.109  13.249
70449W        W36858   2.851  14.811   0.252
70450W        W36859  31.957  21.117   3.746
70451W        W36860  20.291   5.153  11.176
70452W        W36861   9.284  20.695   1.531
70453W        W36862   6.264  22.362   9.847
70454W        W36863   3.415  29.072   4.579
70455W        W36864  16.734  41.773   4.639
70456W        W36865  27.436  27.094   0.387
70457W        W36866   2.729  20.157   3.629
70458W        W36867  21.017  15.709   2.206
70459W        W36868  23.684   9.138   1.317
70460W        W36869  14.808  35.046   0.318
70461W        W36870  42.846  15.815   2.686
70462W        W36871  28.350  40.543   3.759
70463W        W36872  34.189  38.467  13.851
70464W        W36873  14.687  29.464  13.972
70465W        W36874  23.493  28.559  13.896
70466W        W36875  31.219  31.139  12.856
70467W        W36876  35.606  41.879   2.063
70468W        W36877   7.747   4.255   3.333
70469W        W36878  44.355   1.482  10.944
70470W        W36879  32.018   0.872   2.659
70471W        W36880  15.596   6.296   4.240
70472W        W36881  33.649   5.318  12.467
70473W        W36882  24.984  43.112   4.971
70474W        W36883  10.395  18.728  10.936
70475W        W36884  27.149   3.071   4.327
70476W        W36885  33.543  19.129   3.518
70477W        W36886  33.542  26.819   1.852
70478W        W36887  40.819   2.520   2.801
70479W        W36888  27.597  44.824  14.277
70480W        W36889  27.063  37.387  10.291
70481W        W36890   0.877  42.360   2.242
70482W        W36891  39.354   3.517   3.166
70483W        W36892  20.774  10.817  11.075
70484W        W36893   8.909  34.654   1.744
70485W        W36894  43.087  38.430  14.912
70486W        W36895  24.171  23.829  12.929
70487W        W36896   1.687  16.467   0.979
70488W        W36897  28.548  42.932   0.978
70489W        W36898   7.041  44.105  14.035
70490W        W36899  18.926  10.070   4.703
70491W        W36900  32.180  42.839   4.159
70492W        W36901  38.513   9.383   0.364
70493W        W36902  41.017  31.563  14.398
70494W        W36903  10.463   3.644   4.038
70495W        W36904  23.607  42.489   0.919
70496W        W36905  44.560   2.836   1.172
70497W        W36906  26.786   0.693   0.269
70498W        W36907   3.898  32.358   1.772
70499W        W36908   3.679  26.847   2.386
70500W        W36909  23.937  39.578  13.349
70501W        W36910  33.345   1.266   1.436
70502W        W36911  32.623   6.925  13.263
70503W        W36912  25.771  28.708  14.360
70504W        W36913  22.228  18.959   1.472
70505W        W36914  44.984  25.561   0.948
70506W        W36915  26.052  18.357  10.992
70507W        W36916  15.717  22.980   2.139
70508W        W36917  22.014  35.562   0.786
70509W        W36918  41.797  16.253  14.467
70510W        W36919   5.379   4.269   4.578
70511W        W36920  36.644  12.798  12.026
70512W        W36921   0.230  39.615   4.259
70513W        W36922  41.186  23.571  11.231
70514W        W36923  40.868  27.920   0.866
70515W        W36924  28.393  36.958  14.418
70516W        W36925  19.201  27.204   4.043
70517W        W36926   8.739  34.660   3.233
70518W        W36927  10.262  23.788   1.050
70519W        W36928  14.155  14.441   3.733
70520W        W36929  38.081  39.510   0.803
70521W        W36930  25.136  20.571  11.412
70522W        W36931  30.641  21.513   3.162
70523W        W36932  32.302  44.106   4.568
70524W        W36933  16.830  30.000  12.918
70525W        W36934   1.745  13.207   2.900
70526W        W36935   4.341   5.453   2.980
70527W        W36936  41.380  25.445   3.244
70528W        W36937  35.429   7.800   1.288
70529W        W36938   8.142   5.520   3.304
70530W        W36939   7.165  44.995   1.716
70531W        W36940  24.000  42.109  12.521
70532W        W36941  25.085   2.707   0.733
70533W        W36942   8.363   1.355  12.961
70534W        W36943   2.232  42.316  11.871
70535W        W36944  12.599  43.067  13.098
70536W        W36945   6.120  44.903   3.616
70537W        W36946   6.163  37.156  10.998
70538W        W36947  29.425  19.941  13.878
70539W        W36948  13.092   9.228   4.129
70540W        W36949  37.008   4.332  14.067
70541W        W36950  29.654   8.205  11.435
70542W        W36951  33.599  25.811   3.006
70543W        W36952  10.423   5.492   0.817
70544W        W36953   3.879  16.591  14.968
70545W        W36954  25.997  44.862   4.512
70546W        W36955  38.147  37.851  10.809
70547W        W36956  16.725   5.637  14.250
70548W        W36957  24.082  35.150   0.712
70549W        W36958  20.241  11.902   0.498
70550W        W36959  16.359   1.175   1.228
70551W        W36960  14.253  35.968  10.360
70552W        W36961   0.760   5.777   3.568
70553W        W36962  14.023   7.966   0.962
70554W        W36963  26.214  41.348  10.737
70555W        W36964  41.691  43.818   1.203
70556W        W36965  34.567  14.849   0.125
70557W        W36966   3.386  22.957  12.473
70558W        W36967  22.725  38.523   4.676
70559W        W36968  31.934  17.199  12.789
70560W        W36969   4.091  39.775  10.378
70561W        W36970  13.379  38.078   2.949
70562W        W36971  14.808  41.951   0.344
70563W        W36972  15.154  28.955   0.174
70564W        W36973  35.496   9.549   2.517
70565W        W36974  10.485  35.125  11.132
70566W        W36975  36.886  24.735  11.253
70567W        W36976  29.114  20.985  14.372
70568W        W36977  28.492  28.153   3.621
70569W        W36978  36.562  27.145   3.252
70570W        W36979  40.434  11.438  11.043
70571W        W36980  43.614  27.115  13.310
70572W        W36981  30.542  28.660  13.860
70573W        W36982  26.084  24.815   0.899
70574W        W36983   3.126   0.036   2.266
70575W        W36984  34.928   2.508  13.498
70576W        W36985  30.018   1.456   3.678
70577W        W36986  31.655  17.795  12.445
70578W        W36987  26.858  27.072  14.445
70579W        W36988  23.304  43.742   3.195
70580W        W36989  38.124  42.172  14.978
70581W        W36990  44.858  12.432  13.884
70582W        W36991  25.470  40.969   3.171
70583W        W36992  38.589  31.348  10.740
70584W        W36993  32.050   0.776  10.678
70585W        W36994  24.547  20.528  13.098
70586W        W36995   1.568  10.224  11.556
70587W        W36996   5.254  21.313  10.720
70588W        W36997  16.975  18.519  12.975
70589W        W36998  19.707  12.255   4.072
70590W        W36999  13.043  36.364   1.688
70591W        W37000   4.738  21.988   4.478
70592W        W37001  23.951   0.114  11.223
70593W        W37002   2.698  34.014   1.636
70594W        W37003  37.407  12.256  14.812
70595W        W37004  15.220  25.479  13.367
70596W        W37005  19.541  16.816   1.288
70597W        W37006  10.791  41.774  11.321
70598W        W37007  14.890  10.718  11.149
70599W        W37008  44.949  12.695   0.428
70600W        W37009  15.568  31.664   3.685
70601W        W37010  43.676  43.016  11.872
70602W        W37011  22.790  31.834  13.878
70603W        W37012  24.158   5.912  11.652
70604W        W37013  23.695  21.181  14.492
70605W        W37014  33.068  24.056  12.701
70606W        W37015   7.746  40.049   1.967
70607W        W37016  40.745  23.282   0.457
70608W        W37017   4.853  30.779  13.307
70609W        W37018  17.708  38.893  12.788
70610W        W37019  41.263  12.654  13.536
70611W        W37020  13.025  29.166   3.251
70612W        W37021   3.239  31.503   1.502
70613W        W37022  44.413   1.263   2.710
70614W        W37023  14.276  43.552   0.843
70615W        W37024   7.939   5.075   4.402
70616W        W37025  12.093  41.418   3.710
70617W        W37026  16.778  22.610   3.110
70618W        W37027  21.599  36.427   2.320
70619W        W37028  35.370  20.482   1.611
70620W        W37029  40.385  19.689   3.844
70621W        W37030  19.983  22.756   1.151
70622W        W37031  10.990  32.115   2.008
70623W        W37032  13.219  35.505   5.105
70624W        W37033  13.018  22.268   5.020
70625W        W37034  20.439  30.852  12.434
70626W        W37035  32.526   6.989   0.456
70627W        W37036  23.818  39.077  10.543
70628W        W37037  25.232  29.903  11.114
70629W        W37038  32.946  21.986   2.653
70630W        W37039   2.782   6.154  14.461
70631W        W37040  35.963   8.435  13.060
70632W        W37041  36.583  21.142  10.424
70633W        W37042  13.332  21.440  14.496
70634W        W37043  20.797  18.555  13.529
70635W        W37044   2.199   9.666  13.469
70636W        W37045  39.412   7.328   2.659
70637W        W37046   1.045   4.947  11.562
70638W        W37047  11.343  21.181  14.838
70639W        W37048  17.348   4.996   0.787
70640W        W37049   8.594  24.715   2.237
70641W        W37050  23.188  39.187  13.666
70642W        W37051  27.227   6.602  14.574
70643W        W37052   9.174  21.136  13.528
70644W        W37053   8.169  25.078  11.816
70645W        W37054  35.112  15.181   2.484
70646W        W37055   0.739  21.013  14.925
70647W        W37056  29.106   7.571  14.929
70648W        W37057  21.842  17.679  14.749
70649W        W37058  31.064  21.354  10.244
70650W        W37059  33.635  19.548   3.823
70651W        W37060  29.232  41.480   2.789
70652W        W37061  30.457  28.055  10.717
70653W        W37062  29.377  12.638  14.852
70654W        W37063  12.186  35.518  13.931
70655W        W37064  18.755  33.876  14.909
70656W        W37065   2.648   4.904  10.671
70657W        W37066   1.644  44.584   3.846
70658W        W37067  41.458  38.282   3.333
70659W        W37068  38.358  11.214  11.538
70660W        W37069  40.961   1.291   4.544
70661W        W37070  28.330   3.990  14.602
70662W        W37071  21.101  10.236  12.887
70663W        W37072  44.999  36.303   4.161
70664W        W37073  41.821  42.939  14.709
70665W        W37074  23.819  43.200   3.823
70666W        W37075  38.931  38.101  14.451
70667W        W37076   2.179  33.734  11.211
70668W        W37077  26.144  42.592   1.939
70669W        W37078  15.670   4.927   2.363
70670W        W37079  37.340  20.507  14.459
70671W        W37080  25.293  40.820  13.689
70672W        W37081  14.823  31.233   0.464
70673W        W37082  22.566  16.207  11.165
70674W        W37083  18.722  27.988  12.283
70675W        W37084  28.626  31.153   1.736
70676W        W37085  37.659  10.374  13.871
70677W        W37086  24.081  24.996  12.505
70678W        W37087  42.940  37.356  11.681
70679W        W37088  31.489  17.749   4.173
70680W        W37089  27.628  26.557  11.929
70681W        W37090  24.364  24.005  12.176
70682W        W37091  27.540  28.982  12.228
70683W        W37092   0.434   5.489   0.972
70684W        W37093  16.107  23.396   4.217
70685W        W37094  21.781   8.888   0.353
70686W        W37095  17.198  32.918  14.324
70687W        W37096  29.426   0.557  13.335
70688W        W37097   1.214   2.093   3.170
70689W        W37098  13.141  31.796  10.179
70690W        W37099  36.557  22.565  12.019
70691W        W37100  14.044  27.634   3.288
70692W        W37101  42.920  31.475   2.800
70693W        W37102  25.723   7.817  14.495
70694W        W37103   5.809  16.595   2.714
70695W        W37104  20.290  18.139   2.962
70696W        W37105  28.637   1.731   4.101
70697W        W37106  22.315  14.110  14.440
70698W        W37107   3.291   0.886   1.131
70699W        W37108  22.788  19.806  14.379
70700W        W37109   2.487  28.459  11.053
70701W        W37110  32.679  14.707   1.408
70702W        W37111  32.341  36.422  14.493
70703W        W37112  44.195  42.442   0.798
70704W        W37113   8.731   8.642  12.059
70705W        W37114  43.654  21.249  12.969
70706W        W37115  15.405   1.737  12.764
70707W        W37116  28.113  22.369  10.671
70708W        W37117  34.546  16.692   0.759
70709W        W37118  19.931  16.109   2.110
70710W        W37119  39.602  37.134  12.167
70711W        W37120   5.304  28.977   4.674
70712W        W37121  14.413  22.163  14.901
70713W        W37122  40.812  42.948   3.817
70714W        W37123  37.414   4.244  12.601
70715W        W37124  16.779  40.043  11.066
70716W        W37125   8.952  16.986  14.852
70717W        W37126  40.618  30.896   4.135
70718W        W37127  20.794  43.294  11.619
70719W        W37128  21.178  10.284   4.587
70720W        W37129  14.237   9.618   3.696
70721W        W37130   1.686   9.270   1.746
70722W        W37131  24.886  33.517  11.945
70723W        W37132  18.187  20.185  12.040
70724W        W37133   8.218  29.589   4.507
70725W        W37134  21.231  18.951  14.932
70726W        W37135  42.929   0.397   0.661
70727W        W37136  33.867  16.127   3.156
70728W        W37137  14.179  11.828  12.849
70729W        W37138  22.056  33.793   2.842
70730W        W37139   1.687  23.316   0.824
70731W        W37140  16.200  32.457   2.446
70732W        W37141  20.883   9.150  14.052
70733W        W37142  39.760  33.033   3.168
70734W        W37143  42.556   6.982  10.714
70735W        W37144  30.690  28.302  11.128
70736W        W37145  36.947  33.954   1.419
70737W        W37146  33.463   8.748   3.437
70738W        W37147  30.739  14.709   2.852
70739W        W37148   4.037  17.575  10.747
70740W        W37149  15.497  44.055  10.259
70741W        W37150  13.283  15.326   1.236
70742W        W37151   5.375  11.779  10.670
70743W        W37152  22.381   2.438  14.609
70744W        W37153  21.715  33.102  11.561
70745W        W37154  33.836  24.451   2.561
70746W        W37155  44.756  15.611   0.745
70747W        W37156  39.230  18.688   2.715
70748W        W37157  40.191  24.200  11.403
70749W        W37158  44.374  41.469  11.732
70750W        W37159  12.397  31.141  12.487
70751W        W37160  10.887  19.524  10.690
70752W        W37161  20.851  36.596  13.137
70753W        W37162  33.161  44.369   4.597
70754W        W37163  37.040  32.264   1.153
70755W        W37164  42.971   3.509  11.067
70756W        W37165  32.954  25.100  11.872
70757W        W37166  23.031  39.937   0.871
70758W        W37167  34.750   7.850  10.828
70759W        W37168   2.750  22.703  13.762
70760W        W37169  12.198  32.158   2.196
70761W        W37170  26.987  10.242  10.750
70762W        W37171  18.632   8.790   1.209
70763W        W37172  41.056  40.889   1.905
70764W        W37173   7.837  35.333  14.762
70765W        W37174  18.022  29.536   4.650
70766W        W37175  14.195  16.185   0.042
70767W        W37176  40.939  14.542  13.934
70768W        W37177  17.684  24.787   5.084
70769W        W37178  26.848  32.246  11.116
70770W        W37179  26.533  23.534   3.329
70771W        W37180  37.457  26.890   4.626
70772W        W37181  16.619  20.734  11.912
70773W        W37182  17.685   1.527   2.380
70774W        W37183   2.175   5.754   0.009
70775W        W37184  35.878   3.886  14.745
70776W        W37185  20.872  36.501  14.254
70777W        W37186  15.868  13.204   4.715
70778W        W37187  30.950   0.201  11.629
70779W        W37188  12.242  20.041  12.862
70780W        W37189   0.319  37.428  13.413
70781W        W37190   5.389  41.852   2.746
70782W        W37191  22.244  25.037   4.526
70783W        W37192  29.444  24.657  13.972
70784W        W37193  22.283  11.036  12.612
70785W        W37194  10.050   6.237   1.641
70786W        W37195  30.565  24.234  13.927
70787W        W37196  35.436  24.530   1.758
70788W        W37197  23.051  19.119  13.210
70789W        W37198   3.111   9.695   3.302
70790W        W37199  17.274  33.545   3.037
70791W        W37200   7.068  40.433   2.034
70792W        W37201   6.720  32.990  10.697
70793W        W37202   1.667   8.186   0.370
70794W        W37203  40.008   2.903  11.528
70795W        W37204  35.934  14.225   1.265
70796W        W37205  18.310  19.502  10.336
70797W        W37206   8.731   1.624  11.882
70798W        W37207  28.982  33.860   2.121
70799W        W37208  36.468  29.511  14.102
70800W        W37209  17.286  40.965   3.794
70801W        W37210  33.569   9.298  13.933
70802W        W37211  42.790  36.136   4.602
70803W        W37212  27.988  38.548   2.303
70804W        W37213  34.965  38.063   3.956
70805W        W37214  17.059  24.653  12.346
70806W        W37215   6.672  24.692  13.782
70807W        W37216  27.083  22.328  12.984
70808W        W37217  42.823  40.452   3.408
70809W        W37218   6.948  28.589  13.296
70810W        W37219  13.400  15.524   0.325
70811W        W37220  33.038  35.177  11.543
70812W        W37221  42.754  39.352  14.409
70813W        W37222   0.353  44.448  11.014
70814W        W37223  34.047  25.616  11.131
70815W        W37224  36.352  23.177  14.747
70816W        W37225  22.821   2.721   0.861
70817W        W37226  17.864   5.669   1.174
70818W        W37227  16.320   6.288   2.049
70819W        W37228   0.838   3.028  11.567
70820W        W37229   2.388  19.193  12.344
70821W        W37230  28.738  16.217  13.815
70822W        W37231   3.812  36.577   3.324
70823W        W37232  16.650  44.900   0.864
70824W        W37233  18.311  33.002  10.675
70825W        W37234  25.978   4.636   1.838
70826W        W37235  43.521  40.921   3.961
70827W        W37236  42.464  10.681   3.579
70828W        W37237  24.062  35.788  10.349
70829W        W37238  10.219  14.172  12.153
70830W        W37239  18.208   9.274  11.437
70831W        W37240  42.270  33.259  11.643
70832W        W37241  24.497  23.809  13.804
70833W        W37242  35.014  25.132  12.880
70834W        W37243   4.412  42.280   3.292
70835W        W37244  36.108  11.428   2.640
70836W        W37245   1.321  44.329  10.800
70837W        W37246  40.449   8.523  14.893
70838W        W37247   6.869  42.349   3.279
70839W        W37248  15.591   8.179  10.705
70840W        W37249  24.822  19.584  10.529
70841W        W37250  16.560   5.962   4.267
70842W        W37251  32.397  30.009   3.306
70843W        W37252   8.695  21.287   4.689
70844W        W37253  19.245  28.160   3.656
70845W        W37254  31.138  13.901   0.942
70846W        W37255  19.362  43.788  11.653
70847W        W37256   5.677  24.213  14.832
70848W        W37257  18.665  28.611  13.177
70849W        W37258  11.924  40.373  12.035
70850W        W37259  33.886  21.682  11.213
70851W        W37260  13.162  14.331  11.480
70852W        W37261  43.068  14.097   4.110
70853W        W37262   6.602   8.235  12.838
70854W        W37263  37.516  26.941   0.277
70855W        W37264  38.769   2.873   0.893
70856W        W37265   5.915  32.549   1.814
70857W        W37266  11.285  24.108  10.956
70858W        W37267   9.251  30.067  10.505
70859W        W37268   6.201  28.168   0.177
70860W        W37269   8.575  44.448  12.026
70861W        W37270  26.586  29.638  11.182
70862W        W37271  29.062  30.657  12.107
70863W        W37272  27.192   1.116  11.642
70864W        W37273   1.012   3.475   4.524
70865W        W37274  28.194  18.674   2.604
70866W        W37275  38.959  28.667   0.963
70867W        W37276  33.314  37.257   5.059
70868W        W37277  38.295  11.485  13.844
70869W        W37278   3.387  37.566  11.119
70870W        W37279  19.224  19.523   3.712
70871W        W37280  28.660  11.724   0.082
70872W        W37281  42.976  12.254   3.385
70873W        W37282  11.038  27.367   4.005
70874W        W37283  41.359  31.730  11.134
70875W        W37284  39.254  35.428   1.612
70876W        W37285  25.536  40.303   0.095
70877W        W37286  37.459  19.917   4.216
70878W        W37287  31.100  29.626   4.519
70879W        W37288   4.437  30.173   0.245
70880W        W37289  24.615  28.342   3.362
70881W        W37290  25.369  17.988   5.010
70882W        W37291  24.469  23.691  14.311
70883W        W37292  36.053   1.917  10.722
70884W        W37293   5.018  11.144   3.354
70885W        W37294   1.011   1.518  14.991
70886W        W37295   3.883  26.124   0.994
70887W        W37296  27.941  31.508  11.456
70888W        W37297  32.637  18.511   2.434
70889W        W37298  43.988   4.788   3.645
70890W        W37299  24.575  44.261  12.907
70891W        W37300   5.133   0.338  13.649
70892W        W37301  35.468   5.900  11.351
70893W        W37302  28.050  38.065   4.256
70894W        W37303   6.949   9.702   4.735
70895W        W37304  26.136  15.340  14.326
70896W        W37305  42.353  22.232  12.158
70897W        W37306  17.037  31.476  14.676
70898W        W37307  37.338  10.166   2.253
70899W        W37308   1.757  29.723   0.303
70900W        W37309   1.464  22.561  11.230
70901W        W37310  22.271  21.631   1.245
70902W        W37311  24.715  27.207   2.685
70903W        W37312  15.118  29.644   0.905
70904W        W37313  30.814  23.421  13.893
70905W        W37314  22.761  26.229  10.057
70906W        W37315  31.895   7.149   3.603
70907W        W37316  11.511  36.895  12.234
70908W        W37317   3.566  43.130  12.428
70909W        W37318  16.635  34.875  14.896
70910W        W37319  34.028  39.899   4.687
70911W        W37320  35.931  20.653   0.064
70912W        W37321  11.691   1.575   4.015
70913W        W37322  38.567  19.526  12.934
70914W        W37323  20.351  19.098  14.908
70915W        W37324  40.427  41.133  11.190
70916W        W37325  33.900  39.597  14.489
70917W        W37326  28.627  38.295   0.771
70918W        W37327  35.950   9.242  14.447
70919W        W37328   7.857   5.689  11.086
70920W        W37329   0.253  35.592  11.635
70921W        W37330  20.830  24.373  11.013
70922W        W37331  19.302  29.110  14.447
70923W        W37332  29.590  14.636  11.795
70924W        W37333  31.355  33.590   4.155
70925W        W37334  32.343  11.489  11.669
70926W        W37335  24.155  12.638   1.992
70927W        W37336   8.960  15.631  13.989
70928W        W37337  41.691   1.260   2.606
70929W        W37338  42.957   8.201   9.859
70930W        W37339  15.594  19.927   4.617
70931W        W37340   6.274  36.424   4.863
70932W        W37341   0.532   1.910  12.368
70933W        W37342   7.734  31.873   1.832
70934W        W37343   0.762  13.348  13.496
70935W        W37344  34.126   8.700  10.468
70936W        W37345   7.108  16.616  13.035
70937W        W37346  35.601   4.906  13.745
70938W        W37347  16.286  31.900  14.224
70939W        W37348  30.180   7.471  12.844
70940W        W37349  33.871  15.303  13.386
70941W        W37350  15.263   4.874  14.063
70942W        W37351  12.208  30.571  11.129
70943W        W37352  12.029  20.117   4.097
70944W        W37353  34.598  38.890  11.690
70945W        W37354  17.543  18.309   3.639
70946W        W37355   2.314  42.845   2.324
70947W        W37356  39.858   8.851  10.129
70948W        W37357  41.223  24.618   2.191
70949W        W37358   6.278  41.526   0.087
70950W        W37359  18.860  36.638  11.921
70951W        W37360   0.517  31.627  11.978
70952W        W37361  29.556   7.309   4.555
70953W        W37362  16.970  44.934  10.991
70954W        W37363   1.563  15.985   3.903
70955W        W37364   9.875  43.379  12.401
70956W        W37365  12.149  28.585   3.924
70957W        W37366  12.278  22.736  12.124
70958W        W37367  16.028  20.748   2.721
70959W        W37368   8.164  27.947   1.403
70960W        W37369  41.918  26.663  14.316
70961W        W37370  13.117  42.292   4.033
70962W        W37371   6.794   8.583  14.625
70963W        W37372   8.853  28.459  12.039
70964W        W37373  10.237  27.744  14.915
70965W        W37374  10.818   6.444  11.552
70966W        W37375   4.842  21.235  10.392
70967W        W37376  31.637  40.254   4.752
70968W        W37377  41.317  14.082   1.409
70969W        W37378  20.643  11.825   0.900
70970W        W37379  10.035  37.471  10.386
70971W        W37380  12.615   8.663  11.497
70972W        W37381  32.648  29.573   0.130
70973W        W37382  31.668  13.436   4.985
70974W        W37383  32.188  41.045  11.266
70975W        W37384  29.000  23.468  10.670
70976W        W37385  22.753   4.391  14.423
70977W        W37386  35.062  16.023  13.965
70978W        W37387   1.157   1.173  11.080
70979W        W37388   4.753  43.118   5.065
70980W        W37389   9.167  30.277   4.080
70981W        W37390  13.663  26.781  14.310
70982W        W37391  19.053  24.615  11.584
70983W        W37392  14.257   4.324  10.882
70984W        W37393  41.480   2.933   1.282
70985W        W37394  28.464  25.784  14.918
70986W        W37395   7.797  30.276   2.826
70987W        W37396  24.031  15.190   2.435
70988W        W37397  10.815  31.864  11.530
70989W        W37398   8.076   3.755  12.389
70990W        W37399  44.356  13.608  12.415
70991W        W37400  22.095   7.804   3.878
70992W        W37401   1.944  22.159   2.098
70993W        W37402   7.383  35.855   4.648
70994W        W37403  25.089  41.449   4.560
70995W        W37404  15.383  31.777  11.602
70996W        W37405  21.236  20.837  11.659
70997W        W37406  19.312  19.708   3.219
70998W        W37407  16.234  29.981   3.117
70999W        W37408  38.626  17.672  12.644
71000W        W37409   4.100  35.872  12.553
71001W        W37410  40.295  34.499  12.455
71002W        W37411  38.987   5.217   0.823
71003W        W37412  24.459  33.587  12.266
71004W        W37413  27.163  29.889   3.476
71005W        W37414   0.303  30.663  13.722
71006W        W37415  21.981  33.648   4.025
71007W        W37416  44.511  15.778   4.059
71008W        W37417  40.367  10.756   3.114
71009W        W37418  10.712  24.911  13.035
71010W        W37419  26.134   8.615   3.778
71011W        W37420  19.348   5.306   4.451
71012W        W37421  15.775  22.185  13.954
71013W        W37422  31.097  32.953  10.551
71014W        W37423   0.718  35.096   3.830
71015W        W37424  10.983  34.888  12.509
71016W        W37425  17.798   4.861   2.719
71017W        W37426   4.300  14.094  13.494
71018W        W37427   2.533  24.229   4.743
71019W        W37428  22.659  23.555   0.809
71020W        W37429   9.865  43.825   4.652
71021W        W37430  28.507  32.557   2.872
71022W        W37431  39.086  28.824   1.969
71023W        W37432  32.838  33.530   4.207
71024W        W37433  15.080  42.986  10.718
71025W        W37434   6.971   5.946   1.421
71026W        W37435  14.851  13.167  13.533
71027W        W37436  10.985  28.612  12.462
71028W        W37437  30.088  41.017  13.638
71029W        W37438  13.782  24.032  11.948
71030W        W37439  27.337   5.196  14.817
71031W        W37440  34.707  20.067  14.015
71032W        W37441  30.138  16.249   3.075
71033W        W37442  18.590  24.778   5.046
71034W        W37443  32.191  40.687   0.656
71035W        W37444  29.512  41.490  10.747
71036W        W37445  31.825  30.491   0.296
71037W        W37446  10.050  38.587  12.872
71038W        W37447  26.821  34.046  14.357
71039W        W37448   6.333  37.564   4.174
71040W        W37449  15.359  35.430  13.212
71041W        W37450  20.888  36.767   3.913
71042W        W37451  27.372  41.578  12.569
71043W        W37452  11.697  36.960   2.882
71044W        W37453  16.671  37.277  11.273
71045W        W37454   1.908  11.776   1.254
71046W        W37455  42.579  40.613  13.097
71047W        W37456   0.183   6.235  14.012
71048W        W37457  31.379  24.635  12.838
71049W        W37458  35.675  38.375  13.750
71050W        W37459   6.901  23.234   4.974
71051W        W37460  32.131  43.783  13.102
71052W        W37461  23.910  23.495   1.177
71053W        W37462  27.483  13.442   2.192
71054W        W37463  18.073  25.899  13.676
71055W        W37464  39.856  41.462   3.916
71056W        W37465  44.380   2.922  12.791
71057W        W37466  17.068   8.183   3.264
71058W        W37467  24.306  34.062   1.360
71059W        W37468  27.562  37.958  10.717
71060W        W37469  26.119  10.387   2.379
71061W        W37470   4.819  14.527   0.522
71062W        W37471  29.427   2.845  12.978
71063W        W37472  11.605  36.946  10.994
71064W        W37473  11.608   7.668   3.388
71065W        W37474   0.528   7.120   4.656
71066W        W37475  28.799  30.107  12.076
71067W        W37476  19.713   0.702   1.789
71068W        W37477  15.992   7.610  12.914
71069W        W37478  33.990   5.348  13.909
71070W        W37479  21.254  22.613  12.707
71071W        W37480  13.134  20.860  11.201
71072W        W37481   9.303  22.124  13.478
71073W        W37482  23.741  13.336   3.767
71074W        W37483  24.107  43.973  14.429
71075W        W37484  31.233  44.879   2.256
71076W        W37485  34.611  13.855   1.908
71077W        W37486   4.223   0.060  12.101
71078W        W37487  42.140  18.616  11.743
71079W        W37488  38.167  15.035   0.766
71080W        W37489  42.895  29.350   1.693
71081W        W37490   8.164  24.550   0.605
71082W        W37491  38.844  14.888  14.480
71083W        W37492  11.721  27.951  14.901
71084W        W37493  42.871  28.072  12.010
71085W        W37494  20.796  44.132   3.334
71086W        W37495  42.960   9.114   0.432
71087W        W37496  33.133  15.643   0.403
71088W        W37497  19.344   8.803  10.716
71089W        W37498  30.155  20.001  12.702
71090W        W37499  20.512  40.900  14.444
71091W        W37500   0.509   8.925   5.333
71092W        W37501  23.388  22.287  13.057
71093W        W37502   6.478  24.146   3.786
71094W        W37503  41.443  36.299   2.439
71095W        W37504  43.860  17.650  10.545
71096W        W37505   8.462  15.724  14.236
71097W        W37506   4.344  38.739   2.959
71098W        W37507  44.541  39.365  10.623
71099W        W37508   8.054   8.126  13.020
71100W        W37509  21.610  31.875  12.079
71101W        W37510  17.656  10.126   1.376
71102W        W37511  30.452  44.376  10.632
71103W        W37512  44.895  23.948   4.202
71104W        W37513   9.158  10.724   1.918
71105W        W37514   8.693  28.834   1.408
71106W        W37515   6.516  23.125  11.694
71107W        W37516  26.187   1.854  13.800
71108W        W37517  30.686   8.135   3.701
71109W        W37518   6.349  19.107   2.289
71110W        W37519  27.571  24.816   2.344
71111W        W37520  32.994  24.268  10.672
71112W        W37521  38.712  25.432  11.159
71113W        W37522  31.355  18.482  13.059
71114W        W37523  30.651  21.563  14.746
71115W        W37524  36.473  37.450  10.476
71116W        W37525   9.377  42.303  13.878
71117W        W37526  19.840  42.420   1.177
71118W        W37527  30.246   9.627  10.763
71119W        W37528  39.164  43.914   4.211
71120W        W37529  21.628  18.191   3.034
71121W        W37530  42.941  23.132   0.023
71122W        W37531  18.090  10.241   1.902
71123W        W37532  25.197  34.849  12.741
71124W        W37533  35.024  33.281   4.877
71125W        W37534  23.773   3.277   2.079
71126W        W37535  17.164  26.048   3.291
71127W        W37536  24.195  22.864  14.767
71128W        W37537  10.307  26.465  10.122
71129W        W37538  29.472  24.145  10.679
71130W        W37539   9.258  42.850  12.135
71131W        W37540  29.075   3.136  14.495
71132W        W37541  41.937  35.246  11.464
71133W        W37542  44.467  41.912  10.682
71134W        W37543   8.818  36.811   0.822
71135W        W37544  16.283  16.726   0.425
71136W        W37545  21.526  18.358  13.509
71137W        W37546   9.204  37.822   2.418
71138W        W37547   0.015  14.623  14.858
71139W        W37548  35.258   7.897   2.897
71140W        W37549   6.265  24.502   3.201
71141W        W37550   9.380  42.500   0.757
71142W        W37551  37.034  37.627   3.327
71143W        W37552  13.140  22.103   3.666
71144W        W37553  26.712   4.957   3.130
71145W        W37554   8.310  20.081  11.843
71146W        W37555  24.630  11.409  14.601
71147W        W37556   6.680   3.327   4.451
71148W        W37557  35.190   0.229  12.798
71149W        W37558  17.468  38.025   1.985
71150W        W37559  43.819   1.702  12.970
71151W        W37560  12.843   8.219   2.358
71152W        W37561   6.883  38.862   1.538
71153W        W37562  15.736  15.285   3.797
71154W        W37563  35.207  37.821   0.912
71155W        W37564  21.155  43.748   4.479
71156W        W37565  23.247   5.991  12.398
71157W        W37566   7.375  40.865   1.339
71158W        W37567  43.246   3.420   0.454
71159W        W37568  35.463  44.078   3.180
71160W        W37569  20.060  38.106   1.434
71161W        W37570  30.249  37.077   5.314
71162W        W37571  22.516  32.666  13.422
71163W        W37572  30.345  43.051  10.617
71164W        W37573  22.703  26.184  10.583
71165W        W37574  23.027  33.903   0.059
71166W        W37575   2.171   6.805  12.429
71167W        W37576   1.258  10.534  13.395
71168W        W37577  29.452  43.226   0.792
71169W        W37578  23.667  10.404  11.440
71170W        W37579  20.662   3.909   2.322
71171W        W37580  21.479  40.099   0.495
71172W        W37581  35.970  22.651  14.028
71173W        W37582   5.137   6.926  14.530
71174W        W37583  35.831  35.012  11.985
71175W        W37584  38.284  33.676  12.522
71176W        W37585  22.156  31.387   2.307
71177W        W37586   1.679   6.708  12.520
71178W        W37587  33.440  28.293   3.246
71179W        W37588   9.356   0.228   2.211
71180W        W37589  38.412   2.688   0.177
71181W        W37590  29.729  22.645   2.307
71182W        W37591  31.021   7.462  10.241
71183W        W37592  14.205  39.192  13.089
71184W        W37593  22.953   7.678   3.589
71185W        W37594  35.002   0.721  10.364
71186W        W37595  13.272  18.859   4.486
71187W        W37596  26.623  44.723  13.262
71188W        W37597  44.670   4.396   4.525
71189W        W37598  42.399   7.478   2.429
71190W        W37599  22.639  22.430   4.300
71191W        W37600   3.235  17.878  11.844
71192W        W37601  11.794  12.687   1.258
71193W        W37602  30.234  30.476   1.325
71194W        W37603  42.274  36.643   1.435
71195W        W37604  31.156  34.560   0.727
71196W        W37605  29.932   7.173   0.802
71197W        W37606  17.286  35.033  14.173
71198W        W37607  11.053   7.119   2.137
71199W        W37608   8.207  12.602   0.469
71200W        W37609   6.408  15.066  12.994
71201W        W37610  25.252   5.984   4.331
71202W        W37611   3.990  13.611  11.164
71203W        W37612   9.653  29.550   3.834
71204W        W37613  33.692  39.539   0.713
71205W        W37614  44.198  18.094  14.788
71206W        W37615  31.420  30.982   4.284
71207W        W37616  23.465  18.291   2.790
71208W        W37617  10.775  12.230   1.987
71209W        W37618  31.039  41.027  12.915
71210W        W37619  40.966   8.065   4.222
71211W        W37620  25.517  31.128  10.428
71212W        W37621  27.605  36.272   4.919
71213W        W37622  13.578  32.430   2.312
71214W        W37623  36.130  42.795   2.147
71215W        W37624  30.205  15.731   1.520
71216W        W37625   7.630  43.377   4.843
71217W        W37626   8.945  13.425  13.055
71218W        W37627  11.822   9.099   2.780
71219W        W37628  29.449  41.099   4.849
71220W        W37629   5.930  15.398   1.962
71221W        W37630   8.724  40.120  11.080
71222W        W37631   8.740  32.492   0.758
71223W        W37632   4.944  16.673   1.692
71224W        W37633  34.327  34.457   4.639
71225W        W37634   5.038  35.884  11.736
71226W        W37635  30.657  42.903   4.221
71227W        W37636  10.132   7.904  12.967
71228W        W37637  25.373  18.021   2.438
71229W        W37638  18.259  36.977  14.852
71230W        W37639  19.127  33.828   4.043
71231W        W37640  19.782  27.997  12.109
71232W        W37641  33.462  25.415  10.598
71233W        W37642  20.144  26.475   4.653
71234W        W37643  11.168  12.453  11.578
71235W        W37644  25.533  18.473   2.866
71236W        W37645   1.539  34.642  11.580
71237W        W37646  12.148  11.345   4.101
71238W        W37647  20.879  16.567   0.646
71239W        W37648  29.658  16.376  13.918
71240W        W37649  12.374  14.453  14.117
71241W        W37650  25.469  19.669   2.196
71242W        W37651  29.858  21.960   2.742
71243W        W37652   1.059  38.138  12.404
71244W        W37653  44.241  28.399  11.247
71245W        W37654  38.654  41.843   4.019
71246W        W37655  30.921  14.902   2.004
71247W        W37656  14.791  43.641  13.575
71248W        W37657  25.556  35.032   2.191
71249W        W37658   2.744  32.495  14.550
71250W        W37659  29.657  37.621   2.616
71251W        W37660   3.485  21.234  11.706
71252W        W37661  35.644   5.932   0.988
71253W        W37662  40.359  43.373  14.988
71254W        W37663   2.028  26.510   0.917
71255W        W37664  25.455  38.498  10.723
71256W        W37665   4.439  31.542   4.864
71257W        W37666  34.189  30.537   3.581
71258W        W37667  31.979  29.415   2.292
71259W        W37668   1.800  42.203   3.876
71260W        W37669  32.144  27.811  11.689
71261W        W37670   8.723  36.408  13.928
71262W        W37671   0.980  11.171   3.609
71263W        W37672  43.325  11.522  13.920
71264W        W37673  40.488  15.698   0.751
71265W        W37674  43.869  35.146  11.063
71266W        W37675  11.365  21.020   2.184
71267W        W37676   8.718  17.071   0.731
71268W        W37677  24.965  27.271  11.602
71269W        W37678  19.434  33.947  11.488
71270W        W37679  31.352  36.296  11.512
71271W        W37680  40.781  38.738  14.220
71272W        W37681  44.971  38.867  12.820
71273W        W37682  13.744  25.200   1.912
71274W        W37683  26.521  23.666   2.292
71275W        W37684  20.643  11.248  12.191
71276W        W37685  37.357   3.718  11.492
71277W        W37686   5.200  11.621   1.206
71278W        W37687  23.984  38.844   0.834
71279W        W37688  27.131  12.132  10.799
71280W        W37689   1.023   0.065  10.760
71281W        W37690  24.975  40.513  12.394
71282W        W37691   1.809  26.177  12.062
71283W        W37692  30.122  44.036  12.113
71284W        W37693  37.687  36.313   2.362
71285W        W37694  12.687  42.266   1.768
71286W        W37695  19.971  42.903   3.502
71287W        W37696   6.347  36.926   3.165
71288W        W37697  33.536  28.605   0.397
71289W        W37698  16.471  15.638   2.904
71290W        W37699  29.473   9.385  14.001
71291W        W37700  25.498   8.646  13.942
71292W        W37701  39.951  10.704   3.797
71293W        W37702   9.591  10.268   1.166
71294W        W37703  32.518  15.388   4.245
71295W        W37704  25.661  14.417  13.753
71296W        W37705   0.839  28.876  10.601
71297W        W37706  20.190  37.819  14.374
71298W        W37707  14.363  36.614  14.874
71299W        W37708  37.181  12.715   1.658
71300W        W37709  14.839   4.160  12.040
71301W        W37710   0.372  10.786   4.160
71302W        W37711  21.201  24.720  13.407
71303W        W37712   9.402   0.960  12.441
71304W        W37713  13.293   4.460   0.979
71305W        W37714  29.449   0.191  11.352
71306W        W37715  32.415  35.850   3.092
71307W        W37716   5.824  12.595   1.456
71308W        W37717  35.644  17.865   1.295
71309W        W37718  31.586  42.560   5.009
71310W        W37719   0.768  14.173   0.465
71311W        W37720   4.451  26.608  12.646
71312W        W37721  38.903  26.465   2.849
71313W        W37722  31.995  29.917  14.374
71314W        W37723  42.393  29.675  11.681
71315W        W37724   0.713  20.782  11.446
71316W        W37725  17.262  20.261   0.511
71317W        W37726  38.926  29.308   1.830
71318W        W37727  20.088   8.179   3.230
71319W        W37728  38.345   5.838   3.699
71320W        W37729  31.553  40.467   4.240
71321W        W37730  43.263   0.449   1.324
71322W        W37731   7.872  12.182  14.801
71323W        W37732  22.949  35.875  11.161
71324W        W37733  37.900   9.827  11.602
71325W        W37734  42.948  10.915  13.736
71326W        W37735  27.991  14.994  12.819
71327W        W37736  36.887  13.314  12.392
71328W        W37737  42.772  19.023  13.338
71329W        W37738  40.733  32.887  14.444
71330W        W37739   5.693  10.797  13.906
71331W        W37740  32.943  29.850   3.680
71332W        W37741  13.284  32.891  11.490
71333W        W37742  28.704   7.399   1.337
71334W        W37743  13.115  44.373   4.388
71335W        W37744  18.797   0.421  13.650
71336W        W37745  34.551  17.068   2.122
71337W        W37746   8.349  25.929   2.805
71338W        W37747   4.877  20.733   4.487
71339W        W37748  22.295  19.702   1.783
71340W        W37749  10.858  35.005   3.718
71341W        W37750  20.674  12.873  13.911
71342W        W37751  19.602  40.607   3.737
71343W        W37752  43.880  23.015  10.677
71344W        W37753  16.745  39.803  13.917
71345W        W37754  34.054  31.085   2.762
71346W        W37755  21.628  25.953  12.395
71347W        W37756   7.170  16.725  10.554
71348W        W37757  31.585   4.318   3.651
71349W        W37758  35.268   7.179  14.446
71350W        W37759  17.368  25.232   5.014
71351W        W37760  23.781  43.690  11.848
71352W        W37761  34.067  40.834   0.393
71353W        W37762  29.444  42.147  10.688
71354W        W37763  39.787  17.030   0.277
71355W        W37764  19.190  28.993  13.478
71356W        W37765  44.413  17.445   4.608
71357W        W37766   2.797   2.928  10.797
71358W        W37767  37.129  15.216  13.981
71359W        W37768  19.503  33.101  11.944
71360W        W37769  31.595  44.726  11.349
71361W        W37770  32.543  10.253  13.242
71362W        W37771   3.004  24.622   1.779
71363W        W37772  20.827   9.326   4.143
71364W        W37773  22.318  18.944  11.969
71365W        W37774  17.980  10.281  13.928
71366W        W37775  27.107  38.890  11.065
71367W        W37776  10.814  44.784  12.069
71368W        W37777  14.425  16.807  11.446
71369W        W37778  14.866   5.995  11.671
71370W        W37779  26.490  20.679   1.891
71371W        W37780   5.986   0.201   0.374
71372W        W37781  17.788   1.840   1.181
71373W        W37782  33.421  23.211  14.525
71374W        W37783   2.457  12.623  10.794
71375W        W37784  18.294   4.883  11.283
71376W        W37785  31.868  25.557  14.356
71377W        W37786  36.865  35.896   3.872
71378W        W37787   3.647  16.091  14.079
71379W        W37788  36.021   3.383   4.856
71380W        W37789  11.250  42.973   0.342
71381W        W37790  10.781  17.151   0.193
71382W        W37791  35.306  41.466   3.310
71383W        W37792   1.056  34.524  12.813
71384W        W37793  37.951  17.544   3.021
71385W        W37794  23.652  29.614   4.509
71386W        W37795   7.050  38.715   3.425
71387W        W37796   4.044   9.656   1.254
71388W        W37797  15.716  12.334  10.795
71389W        W37798  35.204  34.441  10.452
71390W        W37799  28.694  11.462  12.640
71391W        W37800  26.815   6.943   2.161
71392W        W37801   8.621   7.276   1.165
71393W        W37802  21.787   5.255   0.330
71394W        W37803   2.887  28.890  12.476
71395W        W37804  15.912  15.221   4.279
71396W        W37805   0.198  35.895   3.133
71397W        W37806  11.847  39.380  10.656
71398W        W37807  11.217  18.612  12.660
71399W        W37808   4.182   2.302   0.907
71400W        W37809  38.773   7.853   1.262
71401W        W37810  41.185  10.972   4.796
71402W        W37811  16.175  12.094   0.279
71403W        W37812  22.511  21.078  13.881
71404W        W37813  13.312  26.554   1.999
71405W        W37814  19.661  27.114   4.264
71406W        W37815  18.122   3.459   0.316
71407W        W37816  41.073  39.940  10.686
71408W        W37817  26.545  37.782   4.968
71409W        W37818  33.177  11.056   1.028
71410W        W37819   8.759  30.200   1.904
71411W        W37820  16.495  36.157  13.362
71412W        W37821  41.751  10.713  14.197
71413W        W37822   2.685   4.437   4.603
71414W        W37823  26.977  29.671  14.832
71415W        W37824  39.880  37.072   0.506
71416W        W37825  25.005   1.531  11.176
71417W        W37826  17.019  41.485  13.005
71418W        W37827  33.534  40.398  14.278
71419W        W37828  13.409  28.604  13.005
71420W        W37829  15.515   7.269  12.052
71421W        W37830  22.565  18.946  11.501
71422W        W37831  40.572  34.111  10.542
71423W        W37832   4.568  37.409   9.914
71424W        W37833  30.944  28.087   1.920
71425W        W37834  25.107   2.320   0.350
71426W        W37835  11.264  29.050   4.587
71427W        W37836  30.918   1.073  11.871
71428W        W37837  18.572  16.065  11.605
71429W        W37838   0.416  41.823   4.793
71430W        W37839   1.722  11.645   5.028
71431W        W37840   5.977  22.731  12.021
71432W        W37841  31.549  39.606   4.478
71433W        W37842  31.291  32.004   2.767
71434W        W37843  25.239  14.266   4.614
71435W        W37844  16.833   2.970   4.842
71436W        W37845  24.982   8.602   9.704
71437W        W37846   4.178  14.608  12.880
71438W        W37847  15.702  44.002   1.371
71439W        W37848  41.906  44.763   2.028
71440W        W37849   5.621   1.282  14.433
71441W        W37850  31.792  25.629   1.309
71442W        W37851  31.021   5.614  14.370
71443W        W37852  39.940  29.429   1.967
71444W        W37853   3.431  23.556  11.160
71445W        W37854  28.971  21.087   1.404
71446W        W37855  17.681  44.271   2.937
71447W        W37856  23.007  15.256  11.994
71448W        W37857  38.283  13.799  14.894
71449W        W37858   2.470  31.921   3.664
71450W        W37859  42.034  28.921   4.137
71451W        W37860  35.878  18.405  14.885
71452W        W37861  11.088  24.903  12.650
71453W        W37862  36.068  29.573  11.571
71454W        W37863   0.501  17.358   3.531
71455W        W37864  28.016  36.748  13.666
71456W        W37865  34.982  22.178   1.792
71457W        W37866  19.280  35.059  12.880
71458W        W37867  23.551   3.289  14.965
71459W        W37868  23.796  11.644  12.056
71460W        W37869  34.003  35.609  11.960
71461W        W37870  39.060  16.358  12.957
71462W        W37871   7.228  37.967  10.688
71463W        W37872  41.313   0.444  14.875
71464W        W37873  12.992  20.106   4.069
71465W        W37874  17.193  24.243   4.591
71466W        W37875  23.369   5.436   1.420
71467W        W37876  16.512  28.552   1.014
71468W        W37877  42.401   3.231   4.612
71469W        W37878  18.642  10.880  14.815
71470W        W37879  24.504  12.001  11.493
71471W        W37880  32.069  11.203  10.738
71472W        W37881  37.902  24.722   3.633
71473W        W37882  18.125   0.773   0.775
71474W        W37883  18.047  34.346  14.350
71475W        W37884  18.785  20.526  14.459
71476W        W37885  29.723  12.125   0.787
71477W        W37886  39.404   6.498   3.216
71478W        W37887  40.003  43.819  13.364
71479W        W37888   9.620   7.444   1.319
71480W        W37889  18.783   6.062   4.661
71481W        W37890  23.364  15.396   3.209
71482W        W37891   0.454  41.998  14.543
71483W        W37892  26.092   4.148   2.011
71484W        W37893  35.300  15.243  11.659
71485W        W37894   6.251  44.287  13.053
71486W        W37895  15.215  34.755  10.140
71487W        W37896  15.560   8.092   5.023
71488W        W37897  43.022  11.150  11.276
71489W        W37898  39.792  27.857   0.282
71490W        W37899  44.838   0.552   3.696
71491W        W37900  10.911   3.433   2.807
71492W        W37901  32.136  43.561  12.620
71493W        W37902  34.550  18.539   3.235
71494W        W37903  21.304   5.289   2.365
71495W        W37904  28.921  18.016   4.554
71496W        W37905  32.141  33.967  12.742
71497W        W37906   0.988  37.572   3.680
71498W        W37907  40.002  30.091  11.142
71499W        W37908  28.341  25.672   9.816
71500W        W37909   9.742   9.625  11.926
71501W        W37910  34.494  34.112   0.380
71502W        W37911  14.563  42.463   4.514
71503W        W37912  29.479  30.212  13.831
71504W        W37913   3.734  39.964  14.323
71505W        W37914  42.950   3.825   4.196
71506W        W37915   3.742  35.974  13.506
71507W        W37916   9.275   6.855  10.753
71508W        W37917  13.725   2.970   3.314
71509W        W37918   6.806  40.747   2.850
71510W        W37919  19.365  44.101  14.239
71511W        W37920  44.781  41.984   2.792
71512W        W37921  23.619  32.896  12.987
71513W        W37922  42.730  10.711  14.174
71514W        W37923  11.368   3.500  14.847
71515W        W37924   8.697  40.768   0.850
71516W        W37925  12.587   8.434   1.393
71517W        W37926  35.719  31.309   1.369
71518W        W37927  22.217   0.732  12.380
71519W        W37928  23.091  33.608   3.436
71520W        W37929  44.979   6.207   2.088
71521W        W37930  29.715  30.090   3.292
71522W        W37931   5.754  31.569   4.628
71523W        W37932  17.583   6.678  10.777
71524W        W37933  40.799  19.140  14.303
71525W        W37934  27.488  25.066   3.518
71526W        W37935   8.118   7.904   2.603
71527W        W37936  44.895  29.708   2.310
71528W        W37937  36.931   1.717   0.971
71529W        W37938  14.112  27.047   4.676
71530W        W37939  25.062  12.411  11.909
71531W        W37940   6.141  42.376   2.684
71532W        W37941  10.675  41.952  10.842
71533W        W37942   2.235  17.037  13.003
71534W        W37943  30.932  14.716  14.666
71535W        W37944  23.918  21.165   4.525
71536W        W37945  29.108  30.875  14.265
71537W        W37946  11.733  18.034  13.924
71538W        W37947  38.903   7.774   2.270
71539W        W37948  16.375   7.694   2.386
71540W        W37949  28.388  25.135   3.211
71541W        W37950   7.141  14.682   2.827
71542W        W37951  21.240   5.503  13.049
71543W        W37952  18.103  15.593   2.297
71544W        W37953  20.103  19.510  13.044
71545W        W37954   9.658   7.258   2.188
71546W        W37955  13.178   6.440   4.554
71547W        W37956   9.830  41.063   4.753
71548W        W37957  23.981  42.463  13.883
71549W        W37958  20.110  43.692  13.391
71550W        W37959  42.502  31.659  14.836
71551W        W37960  21.253  28.967  10.701
71552W        W37961   6.365   5.075   0.653
71553W        W37962  14.866  21.541   3.181
71554W        W37963  43.359  21.173   0.815
71555W        W37964  26.545  18.033  14.915
71556W        W37965  32.673  10.216   0.918
71557W        W37966  35.385  18.041   4.229
71558W        W37967  30.750   9.847   9.837
71559W        W37968  35.523   2.389  12.935
71560W        W37969   5.897  37.615   2.754
71561W        W37970   6.839  12.263  12.465
71562W        W37971  23.783  33.920   0.453
71563W        W37972  23.743   4.887  14.908
71564W        W37973  19.690  33.921  12.477
71565W        W37974  11.632  42.506   2.289
71566W        W37975   3.416   7.847  12.363
71567W        W37976  33.562  14.545  13.048
71568W        W37977   6.844  27.008  13.265
71569W        W37978  12.788   3.473  13.507
71570W        W37979  25.689  44.566  11.624
71571W        W37980  31.259  15.174  11.137
71572W        W37981   5.235  22.135  11.266
71573W        W37982  28.103  21.610  12.422
71574W        W37983  10.788  23.226  12.605
71575W        W37984  41.512  22.835   4.568
71576W        W37985  39.137  22.045   4.258
71577W        W37986   7.500  37.931   3.577
71578W        W37987  37.641   2.930  11.848
71579W        W37988  25.565  24.205   9.709
71580W        W37989  15.342  19.348  14.540
71581W        W37990   3.746   4.213   3.931
71582W        W37991  43.695  38.374  14.307
71583W        W37992  35.204   3.728   3.748
71584W        W37993  31.653   3.121   1.036
71585W        W37994  44.595  29.762   5.045
71586W        W37995   0.881  24.427   3.152
71587W        W37996  42.239  22.101  13.829
71588W        W37997   5.736  29.507   4.256
71589W        W37998  16.358  22.190  12.401
71590W        W37999  37.948  39.605   1.840
71591W        W38000  36.505  29.418  12.771
71592W        W38001   5.926  32.716   0.367
71593W        W38002  12.170  22.821   4.978
71594W        W38003  41.990  28.165  14.447
71595W        W38004  38.305   6.840   4.490
71596W        W38005   6.062  17.359   1.632
71597W        W38006  23.248  24.262  11.179
71598W        W38007  17.072   9.382   0.007
71599W        W38008  37.721  38.444   2.878
71600W        W38009  42.035  24.174   4.217
71601W        W38010  15.338  37.622  10.435
71602W        W38011  18.037  41.590   0.991
71603W        W38012  38.651  30.796   0.276
71604W        W38013  14.551   5.211  12.634
71605W        W38014  42.844  41.917  11.158
71606W        W38015  34.875   6.350  13.362
71607W        W38016  44.811  17.601   4.317
71608W        W38017  20.661   9.593  13.011
71609W        W38018  11.420  22.139  14.390
71610W        W38019  31.708  26.700   3.158
71611W        W38020  23.489  42.571  10.637
71612W        W38021  27.938  11.383   0.212
71613W        W38022   4.673  11.819   5.029
71614W        W38023  34.215   7.940   0.306
71615W        W38024   5.470   1.369  14.931
71616W        W38025   6.358   3.867  14.829
71617W        W38026  23.032   7.473  14.835
71618W        W38027  30.352   3.601   0.146
71619W        W38028  30.408  25.102  14.334
71620W        W38029  35.593  42.429  11.399
71621W        W38030  37.009   6.914  14.392
71622W        W38031   0.387  21.517   0.254
71623W        W38032  21.123   2.630   0.274
71624W        W38033  24.439  43.432  13.336
71625W        W38034  44.421  17.356   1.681
71626W        W38035  43.898  19.096  12.398
71627W        W38036   9.457  37.381   2.306
71628W        W38037  35.599  20.201  10.579
71629W        W38038  36.596  38.206  14.836
71630W        W38039   8.741  15.606  10.656
71631W        W38040  41.848  40.433  12.594
71632W        W38041   5.680  31.134   2.929
71633W        W38042  16.724   7.642   2.789
71634W        W38043  30.164  40.553   4.665
71635W        W38044  33.110  41.124   1.796
71636W        W38045  37.290   1.776   4.517
71637W        W38046  26.486  32.890  13.502
71638W        W38047  30.868  23.507   2.380
71639W        W38048  41.988  26.885   1.864
71640W        W38049  32.905  41.473  13.408
71641W        W38050   3.402  42.432   0.588
71642W        W38051  31.663  26.176   1.080
71643W        W38052   5.516  19.116  13.385
71644W        W38053  26.425  39.392  12.126
71645W        W38054  26.399  35.611   2.285
71646W        W38055  13.785  22.138  13.946
71647W        W38056  37.306  30.950  12.579
71648W        W38057  19.917  30.140  13.543
71649W        W38058   5.770  10.972  10.419
71650W        W38059  26.696  20.254  12.835
71651W        W38060  10.680  27.410  14.842
71652W        W38061  34.818  10.191  11.602
71653W        W38062  35.352   8.198  14.350
71654W        W38063   0.452  25.182   1.668
71655W        W38064  41.843  12.629  11.671
71656W        W38065  44.947  15.692  11.549
71657W        W38066  22.672  18.666  12.238
71658W        W38067  34.810  36.246   0.097
71659W        W38068   0.313   9.483   2.029
71660W        W38069  40.923   4.314  14.323
71661W        W38070  41.994  19.683  12.587
71662W        W38071   6.267  43.679   2.245
71663W        W38072   7.924  24.316  12.459
71664W        W38073  27.087  13.573  13.985
71665W        W38074  13.864  26.762  12.575
71666W        W38075  38.157  11.817  14.202
71667W        W38076  36.467  16.757   3.196
71668W        W38077  12.522  21.164   2.865
71669W        W38078  30.955  20.608  13.865
71670W        W38079  40.350  35.413  13.473
71671W        W38080  12.915  11.377  13.622
71672W        W38081  43.994  40.112   3.887
71673W        W38082   7.819  24.750   1.975
71674W        W38083   2.237   4.547  12.953
71675W        W38084   8.317  42.123   0.918
71676W        W38085  23.228  26.750  11.571
71677W        W38086  23.071  25.147  12.396
71678W        W38087  44.633  40.424   1.788
71679W        W38088  31.748  34.498   4.009
71680W        W38089  17.631  30.349  12.527
71681W        W38090  41.384  19.169   0.056
71682W        W38091   9.056  31.469   9.863
71683W        W38092  38.611  41.296  10.687
71684W        W38093   0.408  44.750  14.992
71685W        W38094  39.485   9.855   4.253
71686W        W38095  21.462   9.706  13.526
71687W        W38096   9.724  44.992   0.966
71688W        W38097  27.878  40.076   4.424
71689W        W38098  10.032   8.250   3.697
71690W        W38099  19.746   7.671   2.877
71691W        W38100  39.994  33.324  11.167
71692W        W38101  21.624  34.117   2.033
71693W        W38102  27.444  29.870  13.580
71694W        W38103  41.475  39.644  13.719
71695W        W38104   7.844  30.650   1.408
71696W        W38105  19.634  34.803   1.619
71697W        W38106  17.905  39.525  11.609
71698W        W38107   8.182  24.994   2.447
71699W        W38108  23.015  12.614   3.095
71700W        W38109   8.050  33.685  14.956
71701W        W38110  17.762  18.335   3.143
71702W        W38111  41.919   0.916   0.275
71703W        W38112  14.388  11.241   3.783
71704W        W38113  26.364  38.320   2.733
71705W        W38114   5.743   7.719   3.159
71706W        W38115  40.226  11.773  12.452
71707W        W38116  35.948  34.196   0.389
71708W        W38117   3.224  33.020  14.778
71709W        W38118  10.577   7.564  14.303
71710W        W38119  21.299  21.806  14.802
71711W        W38120  13.779   7.229   1.371
71712W        W38121  13.348  27.402   4.803
71713W        W38122  31.633  39.562  14.423
71714W        W38123  18.980  10.210  10.971
71715W        W38124  43.508  39.952  14.417
71716W        W38125  14.679  42.339  14.755
71717W        W38126  35.838  29.768   3.648
71718W        W38127   4.907  26.500   3.803
71719W        W38128  34.337  14.534  13.447
71720W        W38129  13.828  35.923   2.332
71721W        W38130  22.119   1.136   2.782
71722W        W38131   1.339  13.251  11.292
71723W        W38132  12.142   7.307  13.575
71724W        W38133  40.635   8.850   1.877
71725W        W38134  18.197  18.124   2.158
71726W        W38135  43.343  30.690   3.862
71727W        W38136  21.774  32.570   0.362
71728W        W38137   6.968   0.810  11.234
71729W        W38138  37.627  15.156   0.753
71730W        W38139  24.715  13.836   0.843
71731W        W38140  18.287   8.702  13.661
71732W        W38141  11.396  39.571  10.836
71733W        W38142   4.165  12.176   1.699
71734W        W38143  43.404  34.078  12.848
71735W        W38144  41.740  12.120   0.448
71736W        W38145  25.096  35.535   3.184
71737W        W38146  14.225  26.648  10.879
71738W        W38147  35.059  22.697   3.563
71739W        W38148   8.695  29.033   2.328
71740W        W38149   1.720  25.611  11.194
71741W        W38150   2.946  40.977  12.597
71742W        W38151  16.902   9.942   4.631
71743W        W38152  11.775  43.294   5.221
71744W        W38153  44.535  44.844   0.755
71745W        W38154  41.108  42.475   4.159
71746W        W38155  22.223   0.919  11.002
71747W        W38156  22.858  39.319  13.311
71748W        W38157  32.679  27.455   1.244
71749W        W38158  33.514  44.860  13.251
71750W        W38159   6.866  12.963   0.778
71751W        W38160  39.164  12.686   2.297
71752W        W38161  18.745   4.689  10.375
71753W        W38162  27.035   3.661   1.870
71754W        W38163  14.507  24.506   2.836
71755W        W38164  43.396   2.345  13.766
71756W        W38165   8.535   0.846  10.144
71757W        W38166  22.580   0.405  12.534
71758W        W38167  10.355  41.431  11.936
71759W        W38168  41.847  12.169   3.637
71760W        W38169  16.896  20.580  10.401
71761W        W38170   2.513  26.695   0.858
71762W        W38171   7.660  39.752  13.914
71763W        W38172  25.931  39.291  13.886
71764W        W38173  17.078  18.028  14.531
71765W        W38174  39.619  34.191  12.952
71766W        W38175  31.558  38.981   3.667
71767W        W38176  31.032  41.178  14.849
71768W        W38177  27.033  35.057   4.833
71769W        W38178  23.282  28.487   4.701
71770W        W38179  16.590  42.577   4.483
71771W        W38180  44.697  19.159  12.158
71772W        W38181  31.735   0.708  11.091
71773W        W38182   6.973  33.090   9.995
71774W        W38183  25.645  19.817   4.111
71775W        W38184  29.655  44.411  12.840
71776W        W38185  23.618   7.151   3.740
71777W        W38186   8.434  31.934  14.940
71778W        W38187  39.757  23.137   0.773
71779W        W38188  41.856  43.038  10.493
71780W        W38189  36.385  13.166   0.522
71781W        W38190  26.885  19.534   4.917
71782W        W38191  11.781   7.218   4.004
71783W        W38192   5.706   3.374   3.190
71784W        W38193  26.620   3.310   1.790
71785W        W38194  42.953  43.903  13.309
71786W        W38195   4.308   0.628  10.227
71787W        W38196  42.054   5.370   1.681
71788W        W38197   3.667  27.928   1.292
71789W        W38198  14.924  34.613   2.678
71790W        W38199  38.464  22.145  11.088
71791W        W38200  18.641   2.401   4.760
71792W        W38201   1.963  39.342  13.769
71793W        W38202   4.153  17.645  13.319
71794W        W38203  22.036   5.713  13.564
71795W        W38204  23.993  25.682  11.633
71796W        W38205  15.305   7.645   1.366
71797W        W38206  20.694  17.190   4.635
71798W        W38207  26.471   1.908   1.827
71799W        W38208   4.786   4.365  12.462
71800W        W38209  41.196  42.413  13.847
71801W        W38210  14.784  27.934  14.689
71802W        W38211  14.241  11.672   2.988
71803W        W38212  29.849  19.769   0.946
71804W        W38213  17.211  28.457   3.962
71805W        W38214  42.387  43.548  13.516
71806W        W38215  12.783   1.663   0.740
71807W        W38216   7.867  39.820  13.017
71808W        W38217  10.308   6.295   4.087
71809W        W38218   7.952  37.877  11.933
71810W        W38219  38.009  41.489   3.488
71811W        W38220  14.847  33.601   4.661
71812W        W38221  20.080  21.798   3.637
71813W        W38222   3.550  41.248  12.236
71814W        W38223  18.200   6.310  13.595
71815W        W38224  30.568  36.301   0.814
71816W        W38225  37.597  15.775   4.338
71817W        W38226  15.253  12.537  10.739
71818W        W38227  18.530  11.649  10.414
71819W        W38228  12.698   2.672   0.729
71820W        W38229  41.967  18.797  11.269
71821W        W38230  26.711   2.764  14.333
71822W        W38231  42.773  38.908  12.558
71823W        W38232  22.326  19.546  12.591
71824W        W38233  18.844  22.388  14.345
71825W        W38234  42.215  32.151   9.891
71826W        W38235  42.033  19.143   2.250
71827W        W38236   1.857   3.794  13.364
71828W        W38237  26.222  41.577  13.634
71829W        W38238  32.668  22.140  13.947
71830W        W38239  34.143  30.470  14.335
71831W        W38240   1.028  39.304   3.302
71832W        W38241  43.113  44.831  14.816
71833W        W38242  10.777  33.645  14.639
71834W        W38243   2.239  27.060   3.905
71835W        W38244  20.154  33.153  12.575
71836W        W38245   7.286   9.219   3.638
71837W        W38246  18.957   6.854  10.995
71838W        W38247  37.037  17.324  13.412
71839W        W38248   8.940  16.830  14.337
71840W        W38249  22.750  27.209   1.316
71841W        W38250   7.515  18.917  11.572
71842W        W38251  37.080  32.895  14.803
71843W        W38252  23.113  16.590   0.348
71844W        W38253  35.661  12.144  11.293
71845W        W38254  35.630  38.886  13.880
71846W        W38255  28.044   3.195   0.471
71847W        W38256  16.286  23.247   4.670
71848W        W38257  34.294  34.355   1.748
71849W        W38258   6.485  36.361   0.935
71850W        W38259  22.079  19.229   1.896
71851W        W38260  21.609  32.855  10.540
71852W        W38261   4.549  37.585   2.132
71853W        W38262  34.370  10.730   2.634
71854W        W38263  17.901  24.200  12.952
71855W        W38264   7.672   7.082   2.326
71856W        W38265  11.710  27.897   1.838
71857W        W38266  20.255  12.443  12.841
71858W        W38267  22.283  10.673  12.233
71859W        W38268  22.535  41.049  12.800
71860W        W38269  37.297  19.505  12.900
71861W        W38270  26.637  24.661   4.163
71862W        W38271  12.640  21.708   4.539
71863W        W38272  30.025   7.873  12.108
71864W        W38273  33.567   8.091  11.209
71865W        W38274  21.923   7.713   2.949
71866W        W38275   7.182  28.180  11.005
71867W        W38276  32.178   3.461   2.622
71868W        W38277  43.305  10.127   2.156
71869W        W38278  15.344  25.710   0.121
71870W        W38279   3.465  14.710  13.653
71871W        W38280  23.891  29.738   4.079
71872W        W38281  29.154  38.889  14.330
71873W        W38282  31.700  16.539   1.291
71874W        W38283  40.656  25.570   1.655
71875W        W38284   1.387  40.098  12.141
71876W        W38285  33.345   5.918  14.767
71877W        W38286  19.993  30.620   4.075
71878W        W38287  40.826  21.840   3.646
71879W        W38288  15.455  19.714   4.162
71880W        W38289  16.699  33.035  13.804
71881W        W38290  44.087  43.066  10.705
71882W        W38291  35.539   8.141  11.968
71883W        W38292   2.254  11.659   2.439
71884W        W38293   3.946  42.766  14.272
71885W        W38294  41.420  22.539   0.440
71886W        W38295  18.589  43.696  11.995
71887W        W38296  32.801  18.789  13.103
71888W        W38297  16.625  27.011   1.860
71889W        W38298  39.086   5.637   4.469
71890W        W38299  28.026  25.968   1.286
71891W        W38300   7.850  34.567   0.265
71892W        W38301  35.134   4.155   3.199
71893W        W38302  13.367  28.141   1.757
71894W        W38303   3.216  38.361  12.469
71895W        W38304  29.116  16.775  13.192
71896W        W38305  36.929  26.979  14.744
71897W        W38306  24.997  30.480  14.906
71898W        W38307  36.877  23.448   4.132
71899W        W38308  36.086  26.780  14.057
71900W        W38309   1.987  34.975  12.312
71901W        W38310   5.850  25.886  12.897
71902W        W38311  23.542  39.635   4.832
71903W        W38312  14.558   1.702  14.481
71904W        W38313  25.917  33.545   3.851
71905W        W38314  28.520   4.774   2.079
71906W        W38315   1.755  33.661   4.105
71907W        W38316  42.096   7.168  11.168
71908W        W38317  12.181  35.345   2.303
71909W        W38318  38.060  23.940  10.775
71910W        W38319  37.745  43.987   1.227
71911W        W38320   4.237  25.757  10.351
71912W        W38321  33.332  33.163   3.513
71913W        W38322  20.562  19.070   1.934
71914W        W38323  13.730  32.273   0.969
71915W        W38324  16.291  20.083   3.769
71916W        W38325  18.934   6.317  14.837
71917W        W38326  20.758  11.293  11.226
71918W        W38327  18.409   1.995   2.221
71919W        W38328  38.436  13.183  13.435
71920W        W38329  12.822  16.081   2.227
71921W        W38330  28.109   3.555  14.434
71922W        W38331  10.712  13.528  14.366
71923W        W38332   7.598   5.374  13.465
71924W        W38333  26.836  40.812   4.352
71925W        W38334  18.701   7.815   1.419
71926W        W38335  42.466  32.057  12.839
71927W        W38336  10.825  20.396   0.787
71928W        W38337  42.889  20.364   1.334
71929W        W38338  26.027  37.048   0.217
71930W        W38339  15.784   0.839  13.098
71931W        W38340   3.183  39.726   1.332
71932W        W38341  18.013  30.511  11.192
71933W        W38342  39.625  28.982   0.448
71934W        W38343  28.196  36.146  14.996
71935W        W38344  28.464  34.694  11.183
71936W        W38345  41.438  26.733  12.894
71937W        W38346   1.756  10.898  14.602
71938W        W38347   2.186   2.011  11.953
71939W        W38348  18.539  28.074   4.200
71940W        W38349  42.753  38.930   0.991
71941W        W38350  15.973   1.377   4.193
71942W        W38351   6.192  29.363   4.052
71943W        W38352  40.530  22.974  11.161
71944W        W38353  18.613  37.424   3.260
71945W        W38354   6.499  10.712  12.634
71946W        W38355   3.783  25.030   2.074
71947W        W38356  38.429  26.203  14.016
71948W        W38357   4.148  43.941   4.562
71949W        W38358  20.017  15.839  11.697
71950W        W38359  23.570  35.468   1.953
71951W        W38360   8.609  29.021   0.378
71952W        W38361  44.803  23.096  11.629
71953W        W38362  29.045  35.323   1.405
71954W        W38363  26.184  29.069  13.967
71955W        W38364  12.169  13.283   0.058
71956W        W38365  16.474  12.261  11.186
71957W        W38366   3.728  24.224   3.171
71958W        W38367  38.949  41.870   0.349
71959W        W38368  42.895  35.297  13.389
71960W        W38369  36.513  18.654   1.690
71961W        W38370   2.551  44.670  12.223
71962W        W38371  12.653  43.840   2.640
71963W        W38372  15.611  24.464   3.651
71964W        W38373   3.767  33.270   3.645
71965W        W38374  14.176  35.461  12.068
71966W        W38375  43.442  24.992  10.943
71967W        W38376  22.189   1.252   4.121
71968W        W38377   9.337  37.029   1.687
71969W        W38378   1.846   2.504  12.541
71970W        W38379  14.011  22.747   2.788
71971W        W38380  42.815  21.989  11.669
71972W        W38381  36.675  32.892  13.860
71973W        W38382  18.072  19.804  10.679
71974W        W38383  28.807   2.683  13.523
71975W        W38384  10.852  41.469   0.659
71976W        W38385  34.808  35.366   2.971
71977W        W38386  38.819  25.587   1.287
71978W        W38387  28.353  44.882   3.233
71979W        W38388   0.507  31.140  13.560
71980W        W38389  33.417  18.485  14.044
71981W        W38390  29.505  41.246  14.402
71982W        W38391  27.039  37.543  13.839
71983W        W38392  28.615  34.613  11.870
71984W        W38393  34.874   2.246   1.377
71985W        W38394  12.101  44.904  14.450
71986W        W38395  21.673  39.286   0.942
71987W        W38396  42.923  37.305   0.920
71988W        W38397  40.086  31.706   0.934
71989W        W38398   3.500  27.652  11.409
71990W        W38399  14.570  25.103  12.001
71991W        W38400   8.338  21.207  14.375
71992W        W38401   0.375  10.969   1.886
71993W        W38402   2.959   1.733   3.671
71994W        W38403  28.742  23.836   1.801
71995W        W38404  15.290   9.772  12.979
71996W        W38405  44.980  40.030  14.277
71997W        W38406  31.474  40.445  11.444
71998W        W38407  23.537   8.345   0.021
71999W        W38408  18.319  20.620  13.327
72000W        W38409  27.693  32.441  14.864
72001W        W38410  20.544  20.178   1.209
72002W        W38411  16.663  42.285   2.916
72003W        W38412  42.035  27.204  11.259
72004W        W38413   3.243  36.595   2.771
72005W        W38414   7.851  28.123   5.432
72006W        W38415  36.971   0.713  14.114
72007W        W38416  24.193  44.175   3.835
72008W        W38417   6.674  21.108   1.407
72009W        W38418   4.629   0.305  13.814
72010W        W38419  35.265  14.100   4.187
72011W        W38420  10.974  15.252   1.837
72012W        W38421  20.031  31.256  14.859
72013W        W38422   6.627  14.366   4.217
72014W        W38423  40.102  34.432   3.073
72015W        W38424  29.722  28.291  11.857
72016W        W38425  31.635   5.383  12.595
72017W        W38426  15.443   5.798  13.784
72018W        W38427  17.711  43.170   3.838
72019W        W38428  27.505  15.084  14.908
72020W        W38429   7.208  40.838  14.111
72021W        W38430  40.055  25.491   2.741
72022W        W38431   9.607  34.577   2.868
72023W        W38432  15.355  22.984   3.155
72024W        W38433  31.412  31.493  11.254
72025W        W38434  36.081  10.276  13.257
72026W        W38435  29.073   5.714   4.790
72027W        W38436   0.912  28.679  11.949
72028W        W38437  14.569  10.349  14.283
72029W        W38438  30.116  43.590   3.334
72030W        W38439  10.736  35.344  10.698
72031W        W38440   5.319  21.187  10.185
72032W        W38441   8.309  24.130  13.902
72033W        W38442  38.129  18.351  11.639
72034W        W38443  19.042  16.277  11.586
72035W        W38444  17.123  30.533  10.286
72036W        W38445  18.102  14.295   2.063
72037W        W38446   5.781  27.563  14.121
72038W        W38447  40.699  35.819   4.866
72039W        W38448   8.865  17.016   4.540
72040W        W38449  19.842  28.103  13.491
72041W        W38450  35.462  26.120  13.359
72042W        W38451  18.831  10.813  10.397
72043W        W38452  44.668  16.225   4.357
72044W        W38453  20.075  44.165   3.208
72045W        W38454   5.045   8.413   2.821
72046W        W38455  39.245  23.137  11.512
72047W        W38456  24.038  36.092  13.947
72048W        W38457  16.824  43.826  11.571
72049W        W38458  43.453  19.097   3.329
72050W        W38459  11.897  38.348   4.020
72051W        W38460  23.030   5.170  11.473
72052W        W38461  44.351  19.094   0.459
72053W        W38462  20.115  19.760   1.726
72054W        W38463  12.085  44.522   0.716
72055W        W38464  13.930  35.893   3.864
72056W        W38465  43.783  35.809  12.387
72057W        W38466  36.283  40.413  12.600
72058W        W38467  25.832  25.931   1.967
72059W        W38468  16.578  29.418  12.259
72060W        W38469  34.873  35.926   2.901
72061W        W38470  38.135  40.205  13.427
72062W        W38471  43.857  26.542  12.363
72063W        W38472  32.299  15.796   4.053
72064W        W38473  37.046  17.922   5.288
72065W        W38474  28.244  11.848  10.575
72066W        W38475  35.356   0.620  10.725
72067W        W38476   9.632   3.036   3.688
72068W        W38477  28.476  40.492  10.694
72069W        W38478  23.222  33.691   9.889
72070W        W38479  25.846   7.822   2.339
72071W        W38480   1.738  21.028   2.721
72072W        W38481   9.868   0.474   1.007
72073W        W38482  24.900  18.714  12.594
72074W        W38483  20.170  13.817  11.390
72075W        W38484  20.251   7.873  13.453
72076W        W38485  41.521   6.172   4.242
72077W        W38486  23.749  20.467  13.982
72078W        W38487  21.044  43.217   0.191
72079W        W38488  37.152  30.851   3.237
72080W        W38489  26.665  14.763   2.164
72081W        W38490  29.659  25.619   0.306
72082W        W38491  21.728  27.852  10.220
72083W        W38492  27.157   3.954   4.505
72084W        W38493  23.185  13.418   1.826
72085W        W38494  30.366  41.301   3.616
72086W        W38495  17.835  10.232   3.145
72087W        W38496  21.528   5.710   2.051
72088W        W38497  21.191  40.319   2.036
72089W        W38498  13.223  18.385   4.692
72090W        W38499  13.242  14.265  10.498
72091W        W38500  34.854  31.406  12.603
72092W        W38501  18.534  44.064  12.943
72093W        W38502  19.680  29.468   2.361
72094W        W38503  36.511  11.328   1.176
72095W        W38504  21.632  44.817   3.543
72096W        W38505   0.138   0.739   0.027
72097W        W38506   1.321  15.329  12.484
72098W        W38507  21.092  36.682  12.332
72099W        W38508  43.713  35.119   2.889
72100W        W38509  36.573  25.660  13.952
72101W        W38510  30.832  28.395  14.207
72102W        W38511  14.208   7.419  11.577
72103W        W38512  12.654  41.576   0.309
72104W        W38513  14.823   1.838   5.403
72105W        W38514  22.197   8.660  10.762
72106W        W38515  28.038  25.914  11.461
72107W        W38516   0.281  30.904   2.094
72108W        W38517  36.050   4.431   3.727
72109W        W38518  36.513  30.245   0.366
72110W        W38519  35.277  29.139  11.894
72111W        W38520  29.882  40.927  10.542
72112W        W38521  28.753  33.738  13.561
72113W        W38522  11.306   7.283   2.619
72114W        W38523   5.341  37.379  12.478
72115W        W38524  42.768  16.832  13.890
72116W        W38525  39.402  43.590  14.597
72117W        W38526   1.415  18.713   3.363
72118W        W38527  26.577  26.707  11.861
72119W        W38528  30.665  15.800  12.589
72120W        W38529   4.902  37.582  13.425
72121W        W38530  11.916  33.590  14.394
72122W        W38531  34.271  20.188  12.953
72123W        W38532  24.886  42.536  12.977
72124W        W38533  10.382  15.330   0.389
72125W        W38534  30.327  12.571  11.279
72126W        W38535  29.922  25.782   2.302
72127W        W38536   6.885  35.873  12.054
72128W        W38537  28.993  18.249   1.274
72129W        W38538  22.861   5.156  13.776
72130W        W38539  35.856   5.891   4.690
72131W        W38540  40.572   8.826  12.172
72132W        W38541   9.074  18.544   4.957
72133W        W38542  16.807  24.099   0.732
72134W        W38543  17.731   1.972   2.663
72135W        W38544  20.638  27.205  14.690
72136W        W38545  16.142  41.546  12.518
72137W        W38546   3.335   3.507   1.349
72138W        W38547  41.066   6.338  12.406
72139W        W38548  20.095  32.636  12.567
72140W        W38549  26.051  13.313  12.477
72141W        W38550  41.736  23.700   2.186
72142W        W38551  44.959  23.624  12.402
72143W        W38552  10.683  17.896  12.146
72144W        W38553  26.959  12.601   1.871
72145W        W38554  14.359  12.696   1.476
72146W        W38555   4.484  39.764  11.642
72147W        W38556  38.594  24.663   0.360
72148W        W38557  38.898  25.623  13.423
72149W        W38558   3.905  11.828   4.546
72150W        W38559  32.922   5.337  14.372
72151W        W38560   9.923  31.088   2.216
72152W        W38561   1.165   8.280   0.452
72153W        W38562  10.563  16.099   3.316
72154W        W38563   5.892  32.074   4.626
72155W        W38564  27.179  28.184   2.937
72156W        W38565   9.872  20.257   1.911
72157W        W38566  41.472  40.804  10.811
72158W        W38567  24.579  27.270  10.745
72159W        W38568  38.054   8.146  12.097
72160W        W38569  38.398   9.629   1.389
72161W        W38570  16.304  29.822  11.645
72162W        W38571   4.787   9.782   3.394
72163W        W38572   3.777  34.598  12.057
72164W        W38573  35.969   9.487  13.922
72165W        W38574   8.885  30.118  13.026
72166W        W38575  11.852  26.121   2.238
72167W        W38576  32.771  43.970   3.172
72168W        W38577   9.132   6.397   2.865
72169W        W38578  39.820  25.071   2.162
72170W        W38579  19.609  24.025  12.580
72171W        W38580  31.658   1.963   0.008
72172W        W38581  12.403  42.502   0.712
72173W        W38582   7.724  29.159   1.331
72174W        W38583  15.881  15.293  14.226
72175W        W38584  12.230  37.365   2.441
72176W        W38585   2.264  38.111   2.109
72177W        W38586   1.655   5.896  14.950
72178W        W38587  28.757  18.688  13.760
72179W        W38588  22.403  21.910   4.367
72180W        W38589   1.855  38.415   0.169
72181W        W38590  17.286  22.054  13.098
72182W        W38591  13.727  13.768   2.671
72183W        W38592  44.732  31.602  14.796
72184W        W38593  42.592  28.924  12.969
72185W        W38594  18.819   6.358  11.011
72186W        W38595  33.401  28.438   4.045
72187W        W38596  23.187  36.430   1.292
72188W        W38597   7.663  29.664   1.292
72189W        W38598  11.286  17.480  14.518
72190W        W38599  19.067  36.450  14.143
72191W        W38600  36.108   4.883  12.384
72192W        W38601  34.444  21.134   1.218
72193W        W38602  13.093  14.771  13.100
72194W        W38603  27.927  26.618   3.219
72195W        W38604  34.840  43.064  13.110
72196W        W38605  21.731  19.074  13.314
72197W        W38606  40.894  14.092   4.040
72198W        W38607   8.141  14.595  13.442
72199W        W38608  12.752   0.664   0.661
72200W        W38609  26.724   1.511   1.639
72201W        W38610  35.849  36.173   1.512
72202W        W38611   9.891  17.043   0.786
72203W        W38612  30.154  14.277  14.363
72204W        W38613  21.770  25.676  14.847
72205W        W38614  11.223  38.730   4.484
72206W        W38615  15.916  30.062   2.249
72207W        W38616  20.664   7.438   3.135
72208W        W38617  29.586   8.584   4.924
72209W        W38618  14.561  32.576   2.412
72210W        W38619  30.433  38.347   3.810
72211W        W38620  25.995  24.699   4.467
72212W        W38621   8.499  22.686   1.944
72213W        W38622  23.628  28.873  12.898
72214W        W38623  33.348   5.641  14.324
72215W        W38624  42.850  27.699  11.112
72216W        W38625  24.694  15.239  13.854
72217W        W38626  14.118   0.930  12.602
72218W        W38627  12.719  37.107  11.064
72219W        W38628   7.751   0.624  10.979
72220W        W38629  24.223  19.003  11.153
72221W        W38630   9.866  26.239   0.193
72222W        W38631  36.131   9.730  10.690
72223W        W38632  12.352  13.238  12.637
72224W        W38633  14.093  28.345  10.807
72225W        W38634  11.874  22.983   0.330
72226W        W38635  40.193  30.378   2.247
72227W        W38636   1.811  21.844   1.693
72228W        W38637   2.806  43.714   0.786
72229W        W38638  29.647  26.577   1.917
72230W        W38639  11.738  43.220   2.831
72231W        W38640  23.443  16.054   0.918
72232W        W38641  13.853   0.261  14.775
72233W        W38642  44.909  30.382  11.607
72234W        W38643  23.554  25.733   4.176
72235W        W38644   0.207  30.958   1.243
72236W        W38645  41.571   7.345   0.861
72237W        W38646  13.694   0.192   4.583
72238W        W38647  10.067  12.338  13.974
72239W        W38648  26.415  41.904  12.528
72240W        W38649  36.924  24.085  14.885
72241W        W38650  28.066   8.840   1.802
72242W        W38651  10.292  35.817   2.812
72243W        W38652  24.114  20.799  12.321
72244W        W38653   1.986  22.514   1.157
72245W        W38654  44.808  39.328   3.313
72246W        W38655  18.755   0.865   2.876
72247W        W38656  12.625  23.101   3.801
72248W        W38657  28.143  18.561  11.670
72249W        W38658   6.181  12.326  10.623
72250W        W38659  26.597  35.300  11.615
72251W        W38660  27.188   6.421  13.701
72252W        W38661  27.475  19.629  13.568
72253W        W38662  38.428  12.810  11.452
72254W        W38663  40.719  37.754   3.234
72255W        W38664   8.347   4.950   0.020
72256W        W38665  28.203  28.551  13.878
72257W        W38666  36.963  29.562  13.987
72258W        W38667  34.464  18.283   2.784
72259W        W38668  21.009  22.224  14.916
72260W        W38669   0.727   1.245   4.160
72261W        W38670  35.663  25.473   2.686
72262W        W38671  16.024  11.723   3.664
72263W        W38672  28.978  42.317   0.161
72264W        W38673  37.548   8.108  12.013
72265W        W38674  33.037  25.273  10.314
72266W        W38675  15.932  10.899   2.100
72267W        W38676   3.624  36.779   3.750
72268W        W38677  20.539  23.565  13.901
72269W        W38678  19.134  22.211   1.329
72270W        W38679   4.155  41.357   4.182
72271W        W38680   8.355  11.347  13.089
72272W        W38681  42.973  25.829  14.516
72273W        W38682  17.805  34.364  13.848
72274W        W38683   7.900  41.775  14.797
72275W        W38684   2.143  28.815  10.918
72276W        W38685  34.393  11.222   4.246
72277W        W38686  33.411  14.054  11.421
72278W        W38687  27.063  42.811  10.760
72279W        W38688  17.721   2.852   4.752
72280W        W38689  41.061  38.232  12.474
72281W        W38690  23.166  44.728   0.881
72282W        W38691  35.839  17.545  11.007
72283W        W38692  32.476  16.525  11.935
72284W        W38693  11.853  22.965   5.382
72285W        W38694  28.665  32.914  13.780
72286W        W38695  28.212   2.711   0.453
72287W        W38696  43.461  14.597  11.986
72288W        W38697  39.284  31.347  13.873
72289W        W38698   2.677  26.563   0.355
72290W        W38699   8.904  42.689  14.945
72291W        W38700   6.347  28.597   3.274
72292W        W38701  40.014   7.707   3.147
72293W        W38702   6.487   2.152  11.634
72294W        W38703   8.666   4.153   2.287
72295W        W38704  36.326  15.097  12.453
72296W        W38705  30.908   2.141   0.359
72297W        W38706   2.464  36.415   1.188
72298W        W38707  43.401  40.057  12.379
72299W        W38708  37.563  40.301  12.553
72300W        W38709  30.405  33.994   3.258
72301W        W38710   4.081  33.924  14.241
72302W        W38711  40.545   6.223  13.445
72303W        W38712  38.885  27.601   4.915
72304W        W38713  29.717  29.787  13.990
72305W        W38714  41.917  44.933  14.437
72306W        W38715  22.733  42.572   0.706
72307W        W38716  38.526   0.902  11.428
72308W        W38717  23.579  40.896   3.419
72309W        W38718  10.018   4.623  14.214
72310W        W38719   4.092  29.360  13.931
72311W        W38720  24.549  36.607   3.043
72312W        W38721  16.832  10.553   0.227
72313W        W38722  29.656  43.852   2.635
72314W        W38723  14.172  15.292   1.709
72315W        W38724   9.280  43.066   3.819
72316W        W38725   1.800  20.394   4.150
72317W        W38726   9.769   7.180   0.876
72318W        W38727  40.348  21.401   3.195
72319W        W38728  21.203  43.006   3.179
72320W        W38729  34.672  42.985  13.606
72321W        W38730   0.448  32.682   0.246
72322W        W38731  10.758   5.035   9.992
72323W        W38732  31.179  10.399   4.168
72324W        W38733  37.788  31.167  12.618
72325W        W38734  38.951  10.865   2.843
72326W        W38735   7.118  31.644   2.718
72327W        W38736   9.760  24.189   4.644
72328W        W38737  14.526  27.671   3.505
72329W        W38738  21.940  14.680  13.053
72330W        W38739  22.477  30.618  10.848
72331W        W38740  35.642  21.025  13.823
72332W        W38741   9.131  40.852  11.794
72333W        W38742  40.099  13.381   2.701
72334W        W38743  36.443  13.131  13.001
72335W        W38744  27.688  18.757   2.623
72336W        W38745  12.483  43.966   1.261
72337W        W38746  11.767   9.205  13.457
72338W        W38747  19.502   9.212   1.765
72339W        W38748   4.003   8.597  10.751
72340W        W38749  18.126  42.688   1.583
72341W        W38750  44.933  13.149  14.826
72342W        W38751  21.767  20.679   1.443
72343W        W38752  43.284  24.378   0.917
72344W        W38753  19.303  26.007  11.603
72345W        W38754  17.742  23.500   1.428
72346W        W38755   2.003  19.484  11.160
72347W        W38756  38.412  10.727   1.464
72348W        W38757  21.770  29.978   1.884
72349W        W38758   2.135  15.311   3.676
72350W        W38759   2.440   8.190  14.041
72351W        W38760  37.016  16.137   3.067
72352W        W38761  39.931  32.437  14.363
72353W        W38762   2.768  42.543   1.467
72354W        W38763  22.599  24.207   3.639
72355W        W38764  32.056   5.571   5.453
72356W        W38765   1.906  16.685   4.005
72357W        W38766  19.648   5.922  11.795
72358W        W38767   5.110  22.775  13.736
72359W        W38768  34.509  32.200   0.959
72360W        W38769  42.329   1.921   1.809
72361W        W38770  19.606  40.439  11.597
72362W        W38771  34.352  42.011  12.581
72363W        W38772  10.811  29.179   2.557
72364W        W38773  10.282  39.567   3.733
72365W        W38774  29.237  32.368   3.414
72366W        W38775   1.292   0.004  13.879
72367W        W38776   0.831   3.627   0.730
72368W        W38777   7.598  14.793   4.206
72369W        W38778  11.569  34.053   4.637
72370W        W38779  28.975  18.559  14.964
72371W        W38780  21.048   2.473  13.261
72372W        W38781   4.724  37.575   4.258
72373W        W38782  15.850  32.590   3.410
72374W        W38783  17.246   7.416   1.330
72375W        W38784  41.727  41.984   4.614
72376W        W38785   8.080  12.571  11.481
72377W        W38786   5.773   7.458   4.187
72378W        W38787  10.773   4.244  13.359
72379W        W38788  33.422  19.977  12.358
72380W        W38789  30.777  38.186   2.855
72381W        W38790  38.176  40.153   3.767
72382W        W38791  28.233  16.203   4.681
72383W        W38792  27.907  28.851   1.616
72384W        W38793   5.257  10.250  14.260
72385W        W38794  41.433  32.808   0.707
72386W        W38795  35.736  12.747  12.886
72387W        W38796  37.984  30.163   0.026
72388W        W38797  36.424  14.706  13.986
72389W        W38798  10.616  10.780  11.915
72390W        W38799  17.114  27.473  13.500
72391W        W38800   9.849   9.784   2.717
72392W        W38801  31.417   6.264  11.106
72393W        W38802   5.334   0.810  13.796
72394W        W38803  39.044  41.278   2.643
72395W        W38804  12.228  21.235  12.369
72396W        W38805  23.536  15.017   2.409
72397W        W38806  23.789  19.692  10.739
72398W        W38807  35.118  13.759   2.798
72399W        W38808  18.690  29.493  12.367
72400W        W38809  43.002  16.381   4.480
72401W        W38810  42.824  25.556   4.107
72402W        W38811  35.319  19.628  13.606
72403W        W38812  31.131  30.619   1.173
72404W        W38813   5.319   1.693   0.313
72405W        W38814  18.630  22.712  12.808
72406W        W38815  37.452  37.750   1.823
72407W        W38816  35.670  21.087   1.257
72408W        W38817  30.146   2.898   1.816
72409W        W38818  44.836  15.850  11.078
72410W        W38819  17.222  30.483   0.435
72411W        W38820   0.738  42.473  14.917
72412W        W38821  30.376  13.326  14.143
72413W        W38822  36.605  23.816   3.200
72414W        W38823   7.437  38.561   0.590
72415W        W38824  32.256  42.471  11.518
72416W        W38825   8.708  16.064  13.871
72417W        W38826  26.946   3.957   2.299
72418W        W38827  33.553  10.678   1.165
72419W        W38828  31.022  43.436  14.450
72420W        W38829  37.550  30.883  11.168
72421W        W38830  42.396  12.822   1.026
72422W        W38831  17.835  19.152   2.669
72423W        W38832  23.881   2.278   3.296
72424W        W38833  25.504  19.419   5.058
72425W        W38834  22.617  37.526  11.767
72426W        W38835  25.363  42.161  12.541
72427W        W38836  20.029  44.550  11.559
72428W        W38837  30.524   2.905   2.668
72429W        W38838  40.055  32.555  10.688
72430W        W38839  38.680  27.409   0.666
72431W        W38840  26.149  39.761  14.894
72432W        W38841  38.064  34.542  11.477
72433W        W38842  26.424  25.437   0.125
72434W        W38843  26.053  35.870   1.998
72435W        W38844  29.023  31.933   0.792
72436W        W38845  40.171  15.591   2.319
72437W        W38846  18.908  39.071   4.147
72438W        W38847  33.532  18.043  12.532
72439W        W38848   4.118  10.999   3.549
72440W        W38849  43.261   2.023  12.207
72441W        W38850  38.234  35.449  12.922
72442W        W38851   4.872  39.589  12.414
72443W        W38852  12.340  10.906  14.331
72444W        W38853  22.557  34.482  14.349
72445W        W38854   7.917  21.741   1.342
72446W        W38855  26.437   2.414   3.338
72447W        W38856  22.765  38.962  12.006
72448W        W38857  10.387  10.905   3.175
72449W        W38858  23.247  25.238   3.680
72450W        W38859  25.025  27.494  14.937
72451W        W38860  30.641  31.581  11.899
72452W        W38861  28.664   0.857  14.253
72453W        W38862  44.564  42.869  10.631
72454W        W38863  33.343  24.874  12.638
72455W        W38864  41.704   9.586   3.140
72456W        W38865  19.042  27.622  12.501
72457W        W38866  34.365  33.065   3.642
72458W        W38867   8.360  36.088  13.012
72459W        W38868   4.194  39.290   2.845
72460W        W38869  41.361  15.218  10.266
72461W        W38870   1.740  33.944  14.245
72462W        W38871  26.431  15.649  11.334
72463W        W38872  44.209   7.630   3.725
72464W        W38873  32.851  18.349  11.966
72465W        W38874  30.050  26.682  10.206
72466W        W38875  43.272   6.466  10.701
72467W        W38876  28.511  11.355  11.258
72468W        W38877  41.378  10.093  13.030
72469W        W38878  13.089  26.168  13.398
72470W        W38879   5.906  32.868  14.231
72471W        W38880  17.579  12.244   4.232
72472W        W38881  10.835  13.824   4.319
72473W        W38882   3.544   0.973  13.544
72474W        W38883  42.428  29.824  10.840
72475W        W38884  21.049  12.280  14.437
72476W        W38885  32.165  32.655   3.763
72477W        W38886  29.993  10.829  11.518
72478W        W38887   9.625  15.305  12.410
72479W        W38888  40.273  34.519   0.515
72480W        W38889  31.483  40.543  12.505
72481W        W38890  43.846  13.703   0.055
72482W        W38891  36.022   8.866   0.946
72483W        W38892  18.084  23.616   4.155
72484W        W38893  35.888  23.509   3.922
72485W        W38894   0.671  14.384   0.928
72486W        W38895  27.692  34.989  10.734
72487W        W38896  33.729  21.449   0.964
72488W        W38897  39.439  19.897  12.743
72489W        W38898   0.619  11.898  10.374
72490W        W38899  23.976  25.953   1.886
72491W        W38900  42.345  27.931  14.749
72492W        W38901  34.019  19.321  11.206
72493W        W38902  20.766  35.015   3.727
72494W        W38903  20.510  41.913  12.646
72495W        W38904   1.988  14.242   4.447
72496W        W38905  19.812  28.052   4.654
72497W        W38906  11.306  14.705  13.181
72498W        W38907  42.324   3.194  14.913
72499W        W38908  14.743  17.296  14.543
72500W        W38909   8.314  13.228   1.623
72501W        W38910  21.732   4.656   4.478
72502W        W38911  21.330  16.169   2.198
72503W        W38912  27.010  26.223  12.982
72504W        W38913   1.025  42.630  10.674
72505W        W38914  30.913  27.922   3.238
72506W        W38915  11.932   3.714   1.743
72507W        W38916  40.567  43.153   0.955
72508W        W38917  29.642  31.552   1.809
72509W        W38918   4.264   9.116  12.369
72510W        W38919  12.144  30.145  13.333
72511W        W38920  37.365   5.262  11.789
72512W        W38921  33.113  41.806   2.708
72513W        W38922  15.874   0.150   2.330
72514W        W38923  35.039  37.186  13.473
72515W        W38924  35.317  34.838  11.165
72516W        W38925  37.609  28.027   5.243
72517W        W38926  36.606  12.958   9.875
72518W        W38927  35.624  10.076   2.706
72519W        W38928  10.143  25.512  14.494
72520W        W38929  14.799  12.287  11.620
72521W        W38930  24.969  27.437   4.952
72522W        W38931  42.310  33.625   2.324
72523W        W38932   5.923  13.235   3.383
72524W        W38933  30.126  41.503   0.228
72525W        W38934   2.361  15.071  10.789
72526W        W38935  11.480   9.878  11.627
72527W        W38936  21.532  21.796  12.516
72528W        W38937   5.861  28.578   3.142
72529W        W38938  39.944  20.532   4.161
72530W        W38939  39.508  27.009   4.682
72531W        W38940  42.818  34.214   1.472
72532W        W38941  22.850  23.206  12.115
72533W        W38942  16.593   5.847   1.652
72534W        W38943  43.792  26.441  14.514
72535W        W38944  19.051  42.995   3.321
72536W        W38945  35.298  43.216   2.237
72537W        W38946  35.630  39.019   4.748
72538W        W38947  24.889  33.555   0.423
72539W        W38948  12.837   5.255  10.458
72540W        W38949  16.043   6.494  12.109
72541W        W38950   0.280  21.308  11.925
72542W        W38951  19.758  14.705   0.636
72543W        W38952   4.498  28.853  13.570
72544W        W38953  15.518  17.673  11.018
72545W        W38954  26.536  37.387   0.328
72546W        W38955  17.183  26.731  13.075
72547W        W38956   7.843  29.392  12.609
72548W        W38957  14.950  15.556   1.087
72549W        W38958  35.061  13.244   0.260
72550W        W38959  12.381   0.967   3.135
72551W        W38960  27.889  21.579   4.650
72552W        W38961  15.549  21.459  13.445
72553W        W38962  14.690  20.773   3.701
72554W        W38963  19.315  21.978   0.788
72555W        W38964   8.943  16.625  10.629
72556W        W38965  31.064   0.210   0.255
72557W        W38966  10.616  25.676  14.497
72558W        W38967  15.253  24.575   4.336
72559W        W38968   5.538  11.458  14.256
72560W        W38969  40.818  15.859  11.188
72561W        W38970   4.362  22.726   4.178
72562W        W38971   7.802   7.636   2.307
72563W        W38972  16.398   1.703   1.116
72564W        W38973  19.949   4.250  14.355
72565W        W38974  42.601  39.995   4.776
72566W        W38975  36.009   6.693  11.588
72567W        W38976  18.230   6.331   2.806
72568W        W38977   2.349   6.182   3.262
72569W        W38978   6.294  32.194  12.783
72570W        W38979   8.728  41.889  14.539
72571W        W38980  44.432  35.872  12.075
72572W        W38981  16.949  13.382  12.633
72573W        W38982   4.296  22.064  10.129
72574W        W38983  24.507  38.489   1.406
72575W        W38984  18.039  28.438  14.851
72576W        W38985  23.770  31.502   1.261
72577W        W38986  20.125   5.976  12.596
72578W        W38987  18.545  28.504   2.947
72579W        W38988  38.825  34.723   9.929
72580W        W38989  21.420  30.478  13.198
72581W        W38990  17.724  21.523  12.562
72582W        W38991  21.169  11.368   2.885
72583W        W38992  23.032   0.190  13.302
72584W        W38993  13.500  23.474   3.741
72585W        W38994  18.808  44.719   3.666
72586W        W38995  37.782   1.429   1.865
72587W        W38996   7.966  15.616   2.201
72588W        W38997  27.300  19.514   2.298
72589W        W38998   0.592  18.791   0.507
72590W        W38999  26.105   1.875   2.212
72591W        W39000  35.515  17.028  14.956
72592W        W39001  17.294  19.018   1.579
72593W        W39002  42.435  23.925  14.563
72594W        W39003  38.957   1.509  12.510
72595W        W39004  39.554  16.268   3.059
72596W        W39005  30.527   1.396  11.987
72597W        W39006   1.174  10.222  12.340
72598W        W39007  39.801   6.912  13.819
72599W        W39008  36.143  44.474  10.705
72600W        W39009  16.324  14.016   4.837
72601W        W39010   8.618  24.538  13.815
72602W        W39011  30.470  41.123   0.225
72603W        W39012  19.463  41.890  10.708
72604W        W39013   0.848  38.055   3.692
72605W        W39014  15.314  43.494   2.624
72606W        W39015  30.910  13.458  14.905
72607W        W39016  22.773  33.936  12.438
72608W        W39017   1.740  27.960   3.674
72609W        W39018   8.637  37.076   3.355
72610W        W39019   4.404   9.425   0.420
72611W        W39020  38.934  34.245  11.748
72612W        W39021  37.956   7.868  13.952
72613W        W39022  24.243  14.102   0.847
72614W        W39023  18.509  41.366   1.244
72615W        W39024   5.265   5.960   1.937
72616W        W39025  43.130  31.619   4.657
72617W        W39026  36.488  41.393   4.559
72618W        W39027  34.399   3.272   1.636
72619W        W39028  22.784  24.716  12.489
72620W        W39029  26.521  23.338  14.191
72621W        W39030  38.480   4.531  10.742
72622W        W39031  12.548  42.364   3.202
72623W        W39032  41.998   5.352   3.100
72624W        W39033  18.071  15.494   3.198
72625W        W39034   3.247  12.949  11.957
72626W        W39035  22.142  37.532   1.081
72627W        W39036  15.277  39.578   3.670
72628W        W39037   8.956   0.499   4.613
72629W        W39038  17.669  28.261   1.829
72630W        W39039   9.814  32.456   1.632
72631W        W39040  17.960  12.874   0.877
72632W        W39041   9.547  11.928   3.302
72633W        W39042  11.131  37.062  14.065
72634W        W39043   8.764   7.150  12.597
72635W        W39044  10.732  16.077   1.124
72636W        W39045  38.541   8.200  14.967
72637W        W39046  40.057   9.197  13.285
72638W        W39047  38.660  20.521   3.357
72639W        W39048   3.239  32.938  11.826
72640W        W39049   9.789  14.625   0.889
72641W        W39050  24.932  22.092   2.264
72642W        W39051   0.642   8.903   1.447
72643W        W39052   6.298  41.857   4.973
72644W        W39053   1.554   5.373   3.369
72645W        W39054  27.076   2.816  13.922
72646W        W39055   1.701  29.062  10.708
72647W        W39056  27.213  26.866   2.181
72648W        W39057  42.542   5.698  13.432
72649W        W39058  20.598  42.797   4.215
72650W        W39059  19.284   3.381  12.814
72651W        W39060  22.581  32.587   3.898
72652W        W39061   0.082  43.978   2.864
72653W        W39062  32.234   0.746  12.993
72654W        W39063   8.205  22.691  13.508
72655W        W39064  23.911  27.162   3.332
72656W        W39065  14.057  30.502   2.205
72657W        W39066  25.960  33.641   2.508
72658W        W39067  11.224  14.975  11.601
72659W        W39068  19.530   0.717  12.089
72660W        W39069  15.163  44.386  13.300
72661W        W39070  34.236  21.532   0.947
72662W        W39071  19.638  33.292   2.482
72663W        W39072  43.204  13.712  10.445
72664W        W39073  22.439  28.440  11.211
72665W        W39074  18.125   9.365   4.654
72666W        W39075   3.273  32.426  13.928
72667W        W39076  38.526  24.563  14.474
72668W        W39077  43.439  24.705   4.086
72669W        W39078  34.141  40.826   4.097
72670W        W39079   0.707   5.446   3.960
72671W        W39080   8.353  42.640   1.001
72672W        W39081  41.733   5.137  11.076
72673W        W39082  44.305  28.399  10.745
72674W        W39083  12.188  23.485  13.439
72675W        W39084  34.719   1.984  11.550
72676W        W39085  14.891  16.173   4.481
72677W        W39086   3.462  23.920   0.920
72678W        W39087   1.649  33.978   0.769
72679W        W39088  35.582  14.678  11.844
72680W        W39089  34.820   7.348  14.243
72681W        W39090   0.339  23.726  12.007
72682W        W39091   3.442  42.313  12.377
72683W        W39092   5.847   8.266   0.006
72684W        W39093  32.877  17.932   4.035
72685W        W39094   4.337   5.979  10.683
72686W        W39095  43.479  39.782  10.931
72687W        W39096  41.537  28.606   2.486
72688W        W39097  24.708  27.675  14.079
72689W        W39098  18.229  39.616   4.572
72690W        W39099  42.506  11.960   4.051
72691W        W39100   6.387  14.272   1.406
72692W        W39101  27.729  44.090   0.796
72693W        W39102   3.780   7.479  12.406
72694W        W39103  44.049  26.458   4.561
72695W        W39104  41.312  11.081  11.607
72696W        W39105  38.620   9.225  10.776
72697W        W39106  24.466  32.407   1.859
72698W        W39107  23.559   1.389   1.823
72699W        W39108  40.828  28.460   0.985
72700W        W39109  30.431   1.271   2.366
72701W        W39110  11.629  20.966   0.775
72702W        W39111   5.932  19.741  12.467
72703W        W39112  11.175   9.999  12.087
72704W        W39113  42.239   1.800   4.691
72705W        W39114  29.559  23.345   2.841
72706W        W39115  18.531  44.272   3.577
72707W        W39116  29.651  14.721   2.720
72708W        W39117  20.072  19.466   0.841
72709W        W39118   9.070  22.497   3.646
72710W        W39119   7.609  14.698   2.223
72711W        W39120  26.444   0.603   4.073
72712W        W39121  18.335  24.906   3.280
72713W        W39122  39.585  41.943  12.573
72714W        W39123  15.069   7.234  13.814
72715W        W39124  20.139  38.999  13.701
72716W        W39125  25.458  22.987  12.606
72717W        W39126  35.399  31.712  13.512
72718W        W39127   0.747  23.594  13.084
72719W        W39128  32.606  15.232  11.517
72720W        W39129  13.688  18.569  10.351
72721W        W39130  44.329  28.104   2.014
72722W        W39131  19.312  14.048   3.694
72723W        W39132   7.794   3.025  11.968
72724W        W39133   2.469  23.989   0.624
72725W        W39134  40.604  42.279   0.740
72726W        W39135  30.382  28.061  12.435
72727W        W39136  30.165  33.042   3.655
72728W        W39137  44.062   6.349   1.292
72729W        W39138  40.075  24.442   0.436
72730W        W39139   4.723   8.607  13.817
72731W        W39140  38.080  21.106   2.850
72732W        W39141  29.079   3.594   0.896
72733W        W39142  24.969  20.951   9.804
72734W        W39143  13.293  40.062  14.432
72735W        W39144  14.434  29.702   1.183
72736W        W39145  20.587  34.382   4.454
72737W        W39146  25.513  19.970   5.035
72738W        W39147   6.983  10.616   2.693
72739W        W39148  14.932   0.867   9.767
72740W        W39149   9.459  25.951   2.175
72741W        W39150  26.474  26.755  10.573
72742W        W39151  24.521  41.323  13.434
72743W        W39152  43.933   6.547   5.017
72744W        W39153  32.642  44.315  14.054
72745W        W39154  23.779  14.201   4.623
72746W        W39155  19.499  25.525  11.336
72747W        W39156  15.995  23.225  11.067
72748W        W39157   2.375   3.032   0.691
72749W        W39158  12.200  23.818   0.571
72750W        W39159  41.461  13.282   1.882
72751W        W39160  19.643   2.442  11.139
72752W        W39161  43.753  39.408  12.387
72753W        W39162  27.886  40.307   3.693
72754W        W39163   2.839  12.240  11.582
72755W        W39164  25.592   1.992  12.357
72756W        W39165   8.415  37.373  14.858
72757W        W39166   2.346  41.470   0.784
72758W        W39167   9.908  10.891   2.395
72759W        W39168   9.636   0.846   5.028
72760W        W39169  13.644   2.686   2.894
72761W        W39170  36.581  11.747  11.063
72762W        W39171   8.587  37.192   1.104
72763W        W39172  19.827  31.787   2.106
72764W        W39173  27.427  14.594  13.067
72765W        W39174   4.730  14.080  14.719
72766W        W39175   9.815  39.326   0.733
72767W        W39176  32.564  20.941   4.148
72768W        W39177  38.052  11.561   1.955
72769W        W39178  10.150   1.288  14.362
72770W        W39179  38.042  34.143  11.809
72771W        W39180  35.456  35.425  12.003
72772W        W39181  36.961  27.248  12.710
72773W        W39182  32.945  32.661   2.311
72774W        W39183   3.831  24.065  11.555
72775W        W39184  42.834  15.875   4.527
72776W        W39185  35.161  17.895   4.972
72777W        W39186   8.918   9.705   2.301
72778W        W39187  28.171  33.181   2.067
72779W        W39188  27.638  33.977   1.903
72780W        W39189   5.647   6.859   3.527
72781W        W39190   7.312  33.554  13.730
72782W        W39191   7.871   6.563   2.325
72783W        W39192  39.851   2.829  14.795
72784W        W39193  42.874  42.893   3.315
72785W        W39194   7.162   1.893  14.691
72786W        W39195  21.054  42.497  14.863
72787W        W39196   6.182  26.497  13.012
72788W        W39197  12.812  20.852  11.600
72789W        W39198  19.120  27.667  13.436
72790W        W39199  39.919  15.251  13.057
72791W        W39200   7.224   2.947   1.137
72792W        W39201   6.402  43.808   4.050
72793W        W39202  35.398  35.476  13.522
72794W        W39203   6.635  33.632   0.342
72795W        W39204   1.882   8.816   4.786
72796W        W39205  23.852   4.659  11.057
72797W        W39206  31.469  14.121  13.872
72798W        W39207  36.356  43.833  11.577
72799W        W39208   8.625   7.096  14.362
72800W        W39209  13.666  39.778  13.106
72801W        W39210   6.267  31.968  13.764
72802W        W39211  37.442  17.510   3.716
72803W        W39212  12.628  37.435   4.673
72804W        W39213  15.755  10.853   0.323
72805W        W39214  39.311   3.522   2.248
72806W        W39215  37.029  24.601  14.344
72807W        W39216  10.549  42.526  11.973
72808W        W39217  11.737  36.896  14.039
72809W        W39218   6.315  17.619   3.339
72810W        W39219  27.889  25.599   3.262
72811W        W39220  12.192  12.278   4.655
72812W        W39221  37.013  35.670   0.319
72813W        W39222  18.694  34.968   0.664
72814W        W39223   5.307  35.934   4.296
72815W        W39224   6.662  42.068   0.936
72816W        W39225  16.528  38.799   1.421
72817W        W39226  29.338   9.761   0.508
72818W        W39227   4.518  29.048  10.823
72819W        W39228  17.689  15.303   2.358
72820W        W39229   4.225  11.607  13.975
72821W        W39230  11.334  35.688   4.918
72822W        W39231  39.647  33.730  11.416
72823W        W39232  29.648  42.743   1.840
72824W        W39233  28.419  31.958   3.237
72825W        W39234  41.645  32.430  12.512
72826W        W39235  23.164   6.896  13.889
72827W        W39236   8.824  10.184  14.528
72828W        W39237  40.987  19.694   4.678
72829W        W39238  35.106   4.415  10.628
72830W        W39239  32.578   0.243  12.403
72831W        W39240  21.998  29.338  12.483
72832W        W39241  43.994  36.446   3.896
72833W        W39242   1.407  21.297   2.361
72834W        W39243  27.618  19.137   3.862
72835W        W39244  38.908  25.229  13.881
72836W        W39245  28.730  25.445   0.330
72837W        W39246  37.657  17.756   1.210
72838W        W39247  38.562  20.711  10.588
72839W        W39248  33.537  21.754  14.460
72840W        W39249  20.207  22.922  13.331
72841W        W39250  38.163  37.035   3.577
72842W        W39251   0.277  42.936  12.002
72843W        W39252  43.972  23.683   2.338
72844W        W39253   4.557  21.179   3.191
72845W        W39254  40.295   8.209  13.407
72846W        W39255  28.092  19.339  10.613
72847W        W39256  30.575  14.844   0.998
72848W        W39257  25.657   8.924  13.502
72849W        W39258   9.959   5.368   2.775
72850W        W39259  25.949   8.681   2.127
72851W        W39260  16.692  31.162   2.014
72852W        W39261  18.575  31.638  12.982
72853W        W39262  14.736  44.869  12.126
72854W        W39263  40.331  42.749  13.890
72855W        W39264  12.415   7.648   3.658
72856W        W39265  23.584  21.801  13.424
72857W        W39266   2.280  30.501  12.173
72858W        W39267  25.545  14.847   2.268
72859W        W39268   6.897   9.639  14.343
72860W        W39269  21.508  30.083   2.323
72861W        W39270  17.632  23.063  14.509
72862W        W39271  24.580  40.445   3.239
72863W        W39272  16.619  39.598  12.063
72864W        W39273   5.640  20.564   1.748
72865W        W39274  37.223  15.668   2.255
72866W        W39275   6.719  43.590   0.014
72867W        W39276  28.571  30.334   0.250
72868W        W39277  25.469  35.555  10.712
72869W        W39278  42.388  16.539   2.822
72870W        W39279   6.439  17.874   1.307
72871W        W39280  35.155  28.151   5.007
72872W        W39281   9.494  22.089  12.601
72873W        W39282  35.995  15.624   2.939
72874W        W39283  44.981  22.039  14.874
72875W        W39284  28.185  27.698  13.875
72876W        W39285  42.597  27.557   0.048
72877W        W39286  43.437  14.189   0.924
72878W        W39287  27.013  20.371  11.623
72879W        W39288   7.316  36.098   3.188
72880W        W39289  37.280  35.058  14.057
72881W        W39290  15.040   0.515  11.487
72882W        W39291  18.539  14.794   1.886
72883W        W39292  30.115   0.035  14.346
72884W        W39293  38.513  43.478  14.303
72885W        W39294  11.604  10.194  10.983
72886W        W39295  29.035  19.366   1.895
72887W        W39296  40.522   7.493   0.063
72888W        W39297   5.388   5.226  11.635
72889W        W39298  15.357   3.766   4.082
72890W        W39299  25.755  20.476   0.978
72891W        W39300  43.783  27.784  11.652
72892W        W39301  16.364   9.211   4.817
72893W        W39302   7.341   9.632  11.047
72894W        W39303  42.217  32.444   2.446
72895W        W39304   2.793  11.077  10.862
72896W        W39305   1.236  34.364  12.333
72897W        W39306   5.944  23.622   2.128
72898W        W39307   8.102  21.738   3.314
72899W        W39308  19.523  42.824  12.651
72900W        W39309  24.464  37.023   1.836
72901W        W39310  19.767   6.881   4.186
72902W        W39311  32.307   3.937  12.064
72903W        W39312   1.093   3.220  11.160
72904W        W39313  27.468   9.154   0.299
72905W        W39314  37.035  39.602   0.846
72906W        W39315  17.025   4.508  12.920
72907W        W39316  31.396   6.475  14.476
72908W        W39317   0.895  17.947   0.295
72909W        W39318  41.844   1.142  12.906
72910W        W39319  44.002   5.208   2.311
72911W        W39320  43.895  40.472  14.955
72912W        W39321   6.884  26.094   4.546
72913W        W39322  18.282  13.520  14.597
72914W        W39323   8.846  20.676   2.298
72915W        W39324   6.644  26.313   0.237
72916W        W39325  29.529  25.194   1.380
72917W        W39326  40.842  21.005  10.793
72918W        W39327  17.835  23.326   4.574
72919W        W39328  11.775  26.553  11.284
72920W        W39329   4.958   7.280   4.571
72921W        W39330  21.257  16.278  11.380
72922W        W39331  14.762   9.418  14.315
72923W        W39332  18.477   6.693   2.290
72924W        W39333  27.015  29.791  11.411
72925W        W39334  24.146  19.501   4.903
72926W        W39335  23.152  44.552  11.390
72927W        W39336   8.607   1.486  13.428
72928W        W39337   2.961   9.673  14.018
72929W        W39338  39.591   7.797   0.799
72930W        W39339  35.065  38.428  12.938
72931W        W39340  16.648  15.773  11.632
72932W        W39341  21.854  16.745  12.649
72933W        W39342  10.197  35.517  10.260
72934W        W39343  31.871   5.730  14.342
72935W        W39344  28.016  23.399  11.683
72936W        W39345   1.829  35.353   0.487
72937W        W39346  33.520   2.209   2.374
72938W        W39347  41.377  41.300   4.177
72939W        W39348  19.272  19.652  12.599
72940W        W39349  14.665  40.534   3.279
72941W        W39350  19.698   7.920   2.385
72942W        W39351  10.639  17.671   1.367
72943W        W39352  37.406  43.075   2.108
72944W        W39353  12.934   7.254  14.726
72945W        W39354  10.155  10.580   2.802
72946W        W39355  27.174   7.021   9.745
72947W        W39356  32.976  19.663   4.173
72948W        W39357  14.609  19.076   1.412
72949W        W39358  16.707  27.027  12.436
72950W        W39359   1.299  30.996   1.197
72951W        W39360  17.640   1.474  10.672
72952W        W39361  37.950  10.725  14.157
72953W        W39362   2.764  39.358   2.609
72954W        W39363  37.904  29.310  14.760
72955W        W39364  15.182   5.438  11.259
72956W        W39365  24.991   7.771  13.364
72957W        W39366  23.121   8.241   1.293
72958W        W39367  21.466  27.042   1.670
72959W        W39368  41.582  36.456  10.803
72960W        W39369  19.554  30.811  13.845
72961W        W39370   1.719  28.912  14.797
72962W        W39371  26.243  25.128   0.531
72963W        W39372   0.687   1.609   4.532
72964W        W39373   4.255   5.814   4.082
72965W        W39374  41.284  12.500   0.421
72966W        W39375  22.542   5.472   4.528
72967W        W39376  11.419  41.967   4.597
72968W        W39377  18.564  31.105  11.955
72969W        W39378  30.997   7.631  12.487
72970W        W39379  34.683  14.679   2.610
72971W        W39380  16.180  25.953  14.453
72972W        W39381   6.320   1.793  10.748
72973W        W39382   4.493  35.926  11.628
72974W        W39383  34.378   9.644  14.074
72975W        W39384  44.313  36.451   5.032
72976W        W39385  25.712  13.771  14.881
72977W        W39386  38.822   7.197  13.881
72978W        W39387   3.491  39.744   0.918
72979W        W39388  42.374  21.293   4.189
72980W        W39389  11.814  38.107   3.590
72981W        W39390  24.536  15.626   2.872
72982W        W39391  24.687  13.635  11.663
72983W        W39392  44.352  25.611  10.858
72984W        W39393  23.506  10.828  11.693
72985W        W39394  21.320  13.020   0.003
72986W        W39395  32.637   4.515   5.486
72987W        W39396   9.202  17.691   0.281
72988W        W39397  35.905  15.759  13.436
72989W        W39398  44.815  26.751   1.039
72990W        W39399   3.212  17.035   3.717
72991W        W39400  31.243   9.565   3.200
72992W        W39401  33.898   4.373   2.890
72993W        W39402   4.806  31.750   2.783
72994W        W39403  20.329  24.992   4.850
72995W        W39404  37.141   0.536   4.091
72996W        W39405  32.572  32.685   1.145
72997W        W39406   0.099  40.669   1.787
72998W        W39407  29.447   6.087   3.178
72999W        W39408   4.679  12.631  12.144
73000W        W39409  35.379  30.987  14.772
73001W        W39410  37.860  12.660  13.907
73002W        W39411  15.986  26.187  10.388
73003W        W39412   8.800  11.154   1.259
73004W        W39413  41.393   0.738   3.146
73005W        W39414  21.500  18.389  11.998
73006W        W39415  36.369  38.792   4.283
73007W        W39416   2.019  11.879   4.145
73008W        W39417  28.468   7.184   0.720
73009W        W39418  30.137  31.416  14.075
73010W        W39419  22.511   9.155   0.768
73011W        W39420  39.059   0.223   0.726
73012W        W39421  22.670  26.301  11.588
73013W        W39422  24.055  26.092  13.850
73014W        W39423  13.324   5.680  11.520
73015W        W39424  20.164   8.843   1.007
73016W        W39425  44.217  12.812   0.898
73017W        W39426  40.564  32.004  11.991
73018W        W39427  19.323  19.576   0.408
73019W        W39428  32.895  10.047   3.527
73020W        W39429  30.048  29.977   1.953
73021W        W39430  13.670  26.873   3.737
73022W        W39431  15.720  33.659  12.414
73023W        W39432   6.693  13.680  12.991
73024W        W39433  38.321  25.772   4.760
73025W        W39434   3.090  44.193  11.164
73026W        W39435  12.253  13.669  12.890
73027W        W39436  30.451  15.648   1.974
73028W        W39437  36.979  15.409  14.440
73029W        W39438  22.682  23.205   4.581
73030W        W39439   4.602   7.452  12.910
73031W        W39440  36.777  24.227  14.024
73032W        W39441  35.602   3.858  13.097
73033W        W39442  24.600   2.959   0.767
73034W        W39443  44.062  36.506  13.908
73035W        W39444  32.973  21.554   3.892
73036W        W39445  11.676  26.686   0.946
73037W        W39446  33.499   8.694  13.580
73038W        W39447  32.612  14.513  12.550
73039W        W39448   4.680   7.207   2.841
73040W        W39449  11.577  29.202  13.340
73041W        W39450  15.822  18.580  11.332
73042W        W39451  42.521  24.459   0.327
73043W        W39452  17.737  44.543   0.417
73044W        W39453  21.459  21.690   4.093
73045W        W39454  33.514  23.303  12.810
73046W        W39455  30.050  17.706  11.907
73047W        W39456  38.554  13.838   4.865
73048W        W39457  11.269  29.311   0.742
73049W        W39458  41.668  14.176   0.185
73050W        W39459  34.575  26.695   4.691
73051W        W39460  20.024  31.871  13.097
73052W        W39461  28.473  17.639  11.462
73053W        W39462  23.946  38.335   4.120
73054W        W39463   3.877  38.449  14.399
73055W        W39464  34.630  21.124  13.028
73056W        W39465  17.053  17.385   3.767
73057W        W39466   3.863  24.986  13.899
73058W        W39467  25.569  22.637   3.007
73059W        W39468  39.542  26.525  11.873
73060W        W39469  27.055   6.125  10.760
73061W        W39470  23.711  44.384  10.649
73062W        W39471  14.636  27.029   1.198
73063W        W39472  36.834  28.840  12.183
73064W        W39473  21.202  16.434  13.394
73065W        W39474  37.446  41.721  12.925
73066W        W39475  21.932   9.663  12.791
73067W        W39476  12.813  32.660   1.906
73068W        W39477  17.720  10.946  12.915
73069W        W39478  44.704  33.955  11.300
73070W        W39479  44.952  17.910  13.450
73071W        W39480  30.425  16.577  13.202
73072W        W39481  13.088   4.781   1.334
73073W        W39482  37.470   8.176   2.425
73074W        W39483  39.153  36.181  11.734
73075W        W39484  29.771  40.082  14.313
73076W        W39485   7.901  12.794   2.780
73077W        W39486  38.305  27.370  11.159
73078W        W39487  30.509  37.897  13.614
73079W        W39488   5.069  33.619  13.426
73080W        W39489   6.057  38.891  12.074
73081W        W39490  43.521   6.572   4.076
73082W        W39491  31.999  43.274  13.015
73083W        W39492   4.176  17.768  12.110
73084W        W39493  31.868   4.787  13.816
73085W        W39494  42.478  16.139  10.459
73086W        W39495  12.570  18.866   0.246
73087W        W39496  15.320  33.687  13.953
73088W        W39497  44.004  34.797   1.378
73089W        W39498  11.435   1.322  14.798
73090W        W39499  35.836  14.234  11.740
73091W        W39500  34.305  12.584  12.878
73092W        W39501  29.076  13.945  11.408
73093W        W39502  39.236  10.547   0.440
73094W        W39503  12.663   6.856  10.717
73095W        W39504  23.456  40.282   4.733
73096W        W39505  10.565  36.398  13.824
73097W        W39506  26.845  41.033  12.820
73098W        W39507  28.621  42.807  11.210
73099W        W39508  33.994   7.873  13.561
73100W        W39509   8.608   4.408   1.837
73101W        W39510   4.503  40.923  13.638
73102W        W39511  18.778  30.839   4.263
73103W        W39512  12.132  39.168  11.437
73104W        W39513  26.670  24.233  11.162
73105W        W39514  19.342  13.656  12.324
73106W        W39515   1.757  35.025  10.961
73107W        W39516  21.507  39.540   3.739
73108W        W39517  23.490  14.398   1.846
73109W        W39518  19.123  15.568  13.040
73110W        W39519  14.376  32.389   1.654
73111W        W39520  39.300  22.648  11.692
73112W        W39521   4.242  37.154  14.905
73113W        W39522  23.139  11.338   0.842
73114W        W39523  26.477   1.684  12.890
73115W        W39524  30.416  19.589   1.700
73116W        W39525  21.578  12.821   3.385
73117W        W39526  42.714  17.896   3.578
73118W        W39527  27.936  31.973   0.011
73119W        W39528  38.228   5.625  12.443
73120W        W39529  31.055  17.463   4.283
73121W        W39530   4.175  24.038   5.303
73122W        W39531  30.153  32.027  12.491
73123W        W39532  36.593   1.423  14.233
73124W        W39533  22.514  24.995   3.222
73125W        W39534  41.068  14.659   2.644
73126W        W39535  16.875  34.357  14.830
73127W        W39536   2.980  34.360   0.445
73128W        W39537  37.709  11.676   1.071
73129W        W39538   2.333  21.230   4.161
73130W        W39539  22.220  31.869  12.003
73131W        W39540  15.399  26.539   0.843
73132W        W39541  14.155  12.735   4.534
73133W        W39542  39.065  22.492  12.130
73134W        W39543  13.517  28.069  11.378
73135W        W39544  15.203  40.274  14.110
73136W        W39545  30.730  39.393   3.254
73137W        W39546  42.347  27.147   0.271
73138W        W39547  11.270  27.910   0.679
73139W        W39548   6.911  11.949  14.491
73140W        W39549  36.093  22.733  12.204
73141W        W39550  37.063  36.894  11.663
73142W        W39551  34.734  26.064  12.716
73143W        W39552  21.203  24.446   1.878
73144W        W39553  43.024  23.628  13.430
73145W        W39554   5.918  35.423   3.762
73146W        W39555  32.921   6.690  12.514
73147W        W39556  23.051  41.508   3.455
73148W        W39557  20.836  30.031  13.529
73149W        W39558   6.335  27.974  11.664
73150W        W39559  26.586   1.580   4.138
73151W        W39560  15.289   6.137   0.405
73152W        W39561   4.670   2.838   4.600
73153W        W39562  35.556   2.397   3.669
73154W        W39563   2.045  11.178  12.650
73155W        W39564  38.380  11.445   0.978
73156W        W39565  15.105  21.743  13.534
73157W        W39566  20.914  12.648   0.878
73158W        W39567  10.290  37.937   0.548
73159W        W39568   2.122  31.038   3.366
73160W        W39569  18.229  11.121  14.564
73161W        W39570  22.821  18.108  13.090
73162W        W39571   2.989  30.249  13.847
73163W        W39572  30.685  30.734  11.568
73164W        W39573  43.924  39.013   2.419
73165W        W39574  26.661  25.667  14.090
73166W        W39575  27.470  18.751   4.649
73167W        W39576  23.630   4.793   3.297
73168W        W39577  15.664  23.878  12.479
73169W        W39578  33.498  43.934  14.445
73170W        W39579   1.546  32.598  10.662
73171W        W39580  42.286  40.842  11.089
73172W        W39581   1.459  19.353  10.537
73173W        W39582  20.798  14.294   1.205
73174W        W39583  17.517   4.581   4.058
73175W        W39584  22.961   2.348  11.592
73176W        W39585  37.882  26.865  14.101
73177W        W39586  17.646   2.671   0.366
73178W        W39587  24.192  42.346  14.326
73179W        W39588  23.179  13.853  10.758
73180W        W39589  34.430  22.823   4.647
73181W        W39590   0.005   4.026   1.332
73182W        W39591   5.808  16.667  13.973
73183W        W39592   4.027  12.070  12.491
73184W        W39593  11.393   9.860  12.545
73185W        W39594  10.543   0.984  13.448
73186W        W39595   9.594  10.157   3.033
73187W        W39596   6.329  25.480  13.105
73188W        W39597  22.284   3.807  12.096
73189W        W39598  13.606  17.584   4.556
73190W        W39599  28.879  18.883   1.928
73191W        W39600   4.623  35.101  12.115
73192W        W39601   1.989  28.678   4.137
73193W        W39602  26.518  33.744  12.440
73194W        W39603  38.432  29.174  14.808
73195W        W39604  10.765  43.964  10.902
73196W        W39605   8.902   8.859  14.223
73197W        W39606  14.062   8.950  11.518
73198W        W39607  43.318  11.822  14.372
73199W        W39608  31.607  33.310   0.824
73200W        W39609  22.002   5.713  11.512
73201W        W39610  42.761  33.671   4.663
73202W        W39611  22.961  16.761   4.122
73203W        W39612  43.455  20.650   0.305
73204W        W39613  41.517  35.007  12.060
73205W        W39614  20.281  35.876  13.845
73206W        W39615  28.183  33.181  10.716
73207W        W39616   5.724  22.570   3.221
73208W        W39617  19.291  22.203   3.229
73209W        W39618  15.864  41.969  11.153
73210W        W39619  12.030  16.754  11.989
73211W        W39620  23.721  44.179  12.002
73212W        W39621   4.294  16.518   1.966
73213W        W39622   8.177  33.599  13.137
73214W        W39623  26.392  27.522   1.312
73215W        W39624  18.810  43.408   3.124
73216W        W39625  30.567  12.470   4.088
73217W        W39626  21.130  39.888  13.273
73218W        W39627  19.531  31.220   4.540
73219W        W39628   1.498  20.492   3.720
73220W        W39629   8.710   3.033   2.845
73221W        W39630  35.593   6.802   1.412
73222W        W39631   4.713  31.915  12.002
73223W        W39632  27.020  28.969   3.440
73224W        W39633  15.081  25.017   4.549
73225W        W39634   5.249   7.361   3.706
73226W        W39635  44.364  44.434   1.784
73227W        W39636  15.095  32.445   2.415
73228W        W39637  39.099  36.442  12.966
73229W        W39638  10.747  14.540   1.216
73230W        W39639  12.220  16.628  14.278
73231W        W39640  35.161  28.471   2.070
73232W        W39641   0.181   1.276  12.108
73233W        W39642  13.937  13.801   1.827
73234W        W39643  30.200  30.014  14.056
73235W        W39644  29.100  27.972   1.528
73236W        W39645  16.976  19.956   4.168
73237W        W39646  35.445  26.700   2.490
73238W        W39647  36.308  12.733   1.202
73239W        W39648  37.059  42.852   9.735
73240W        W39649  27.634  18.518  11.536
73241W        W39650  30.780   5.760   2.783
73242W        W39651   4.025  36.465   2.464
73243W        W39652  12.946   8.268  14.597
73244W        W39653  24.212  10.485  12.582
73245W        W39654  40.230  16.633   3.283
73246W        W39655  12.920  41.011  12.133
73247W        W39656  17.650   7.111   2.693
73248W        W39657  37.310  33.968  11.238
73249W        W39658   3.421  24.941  12.410
73250W        W39659   1.788  22.735  14.497
73251W        W39660  22.181  25.278  14.412
73252W        W39661  15.153  10.243   4.885
73253W        W39662  18.695  17.661  13.634
73254W        W39663   9.559   1.683   1.497
73255W        W39664  21.969   7.915  14.438
73256W        W39665  29.994  19.235   3.703
73257W        W39666  18.500  20.267   4.157
73258W        W39667  23.666  27.436   3.742
73259W        W39668  35.503  32.625  12.578
73260W        W39669  15.622  13.867   2.429
73261W        W39670   5.995  40.240  10.672
73262W        W39671  14.755  14.566  10.419
73263W        W39672   1.721  40.996   0.385
73264W        W39673  10.288  21.144  13.261
73265W        W39674  14.356  21.490   3.203
73266W        W39675   7.569  40.482   2.186
73267W        W39676   4.008   4.192  12.964
73268W        W39677   6.787  18.348  14.331
73269W        W39678  32.627  21.502   0.896
73270W        W39679   8.376  30.795  12.551
73271W        W39680  16.010   8.801   4.120
73272W        W39681  22.003   2.892  13.958
73273W        W39682  25.227  32.102  14.413
73274W        W39683  43.238   1.170  14.990
73275W        W39684  20.643  12.077   4.177
73276W        W39685  38.330  36.485  14.016
73277W        W39686  22.134   6.712  12.671
73278W        W39687  31.943  28.330  12.552
73279W        W39688  23.614  32.373  12.990
73280W        W39689  34.532  23.508   1.853
73281W        W39690  37.311  31.662   2.731
73282W        W39691  15.664  20.951   0.952
73283W        W39692  35.971  18.103   3.353
73284W        W39693  25.865  32.116  13.590
73285W        W39694   0.822   6.905  14.500
73286W        W39695  44.842  12.293   4.053
73287W        W39696   5.714  32.175   1.044
73288W        W39697  32.538  44.999   3.108
73289W        W39698  25.161  32.862  13.977
73290W        W39699  33.041  18.587   1.288
73291W        W39700  25.232   9.371   1.359
73292W        W39701   4.836   6.803  13.712
73293W        W39702  38.857   8.113   2.743
73294W        W39703  15.030  35.057   4.614
73295W        W39704  27.184  37.289  11.174
73296W        W39705  23.244  10.307   0.180
73297W        W39706  11.668  20.777  14.801
73298W        W39707  24.081  23.838   0.806
73299W        W39708  21.148  38.488  12.360
73300W        W39709  22.256  37.828   2.714
73301W        W39710  39.796   2.935  14.296
73302W        W39711  36.679  10.372   1.244
73303W        W39712  29.825  41.345   1.793
73304W        W39713  39.852  36.063   4.714
73305W        W39714   8.595  15.565  11.519
73306W        W39715  39.873  39.679  11.668
73307W        W39716   9.214  19.891  11.122
73308W        W39717  43.101  26.662   3.371
73309W        W39718   4.891   6.850  13.176
73310W        W39719  40.250  10.574  12.198
73311W        W39720  28.151  37.857  12.543
73312W        W39721  37.089  13.510  11.521
73313W        W39722  30.699  14.463   4.990
73314W        W39723  44.413   1.463  11.614
73315W        W39724  18.676   1.470   1.608
73316W        W39725  31.705  25.693  11.189
73317W        W39726  38.506  22.800   1.873
73318W        W39727  42.738   7.892  14.349
73319W        W39728  35.523  29.856   0.332
73320W        W39729  34.851   8.037  11.335
73321W        W39730  10.310  39.761  12.084
73322W        W39731  26.273  25.957   0.789
73323W        W39732   9.239  39.563  11.316
73324W        W39733   3.938  30.336   0.285
73325W        W39734  22.870  43.488  13.083
73326W        W39735  17.272  19.068   0.721
73327W        W39736   8.393  24.588  11.676
73328W        W39737  13.581  19.546  11.488
73329W        W39738  43.468   2.870  14.293
73330W        W39739  44.068   9.964  12.060
73331W        W39740  12.131  39.229   3.998
73332W        W39741  22.987  41.368  13.380
73333W        W39742   6.010   1.769  12.086
73334W        W39743  30.113  41.005  12.946
73335W        W39744  37.351  32.771   3.879
73336W        W39745  28.698   7.829   2.227
73337W        W39746  21.258  11.023  12.558
73338W        W39747  43.431   8.770   2.959
73339W        W39748  37.360   6.953   3.635
73340W        W39749  18.229  36.572   2.594
73341W        W39750  44.029  21.507  10.756
73342W        W39751  27.641  43.483  10.993
73343W        W39752  39.897  12.609   4.555
73344W        W39753  40.795  39.882   0.019
73345W        W39754  39.276   9.848   0.916
73346W        W39755   1.180  41.379  14.811
73347W        W39756  24.724  17.216   4.534
73348W        W39757  37.071   4.779  12.390
73349W        W39758  22.058  41.837  14.304
73350W        W39759   1.772   7.900   3.733
73351W        W39760  44.770   4.206  12.458
73352W        W39761  10.197  20.228   4.609
73353W        W39762  26.094  19.614   3.959
73354W        W39763  28.610  42.617   1.831
73355W        W39764  24.976  19.848   2.227
73356W        W39765  11.238   3.736   0.799
73357W        W39766   1.343   8.203  14.963
73358W        W39767  32.616  17.882   0.235
73359W        W39768  12.228  34.832   1.047
73360W        W39769  35.657  25.482  11.158
73361W        W39770  24.307  25.732   1.491
73362W        W39771  37.063  43.368   3.925
73363W        W39772  16.616  17.115   0.283
73364W        W39773  40.005  18.256   0.972
73365W        W39774   9.666   6.141  13.497
73366W        W39775  27.650  42.400  12.961
73367W        W39776   6.736  31.062   1.866
73368W        W39777  21.023  38.566  12.861
73369W        W39778   7.424  43.072   3.659
73370W        W39779  34.892  34.471   0.235
73371W        W39780  33.196   8.216   0.568
73372W        W39781  32.227  35.382  11.990
73373W        W39782  43.176   3.101   0.048
73374W        W39783  44.551  23.157   1.274
73375W        W39784  24.003  44.812  14.988
73376W        W39785   8.398   1.054  10.620
73377W        W39786   1.727  43.232   5.087
73378W        W39787  39.750  13.503   4.021
73379W        W39788  13.722  18.719  13.435
73380W        W39789  37.515  35.640  10.705
73381W        W39790   7.329  32.496  10.512
73382W        W39791  19.164  12.039  12.844
73383W        W39792  39.062  37.064   4.116
73384W        W39793  29.564  31.928   4.096
73385W        W39794   2.272   7.910   3.623
73386W        W39795   1.346  32.361  11.145
73387W        W39796  31.557   9.446   4.080
73388W        W39797   4.132  37.019  12.089
73389W        W39798  23.192   6.517   2.753
73390W        W39799  26.221  32.441   3.117
73391W        W39800  27.366  36.411   0.821
73392W        W39801  12.240  43.926  13.497
73393W        W39802  21.048  17.437  13.358
73394W        W39803  19.118  42.963  11.952
73395W        W39804   4.281  10.884  11.935
73396W        W39805  28.673  17.696   0.007
73397W        W39806  12.576   9.095   1.478
73398W        W39807  41.371  31.604   1.428
73399W        W39808  41.000   3.491   3.859
73400W        W39809  37.549  41.901   1.909
73401W        W39810  44.838  10.890   4.193
73402W        W39811   4.135   5.012   3.264
73403W        W39812  39.977  35.894  13.526
73404W        W39813   8.382   6.616   0.649
73405W        W39814   6.173  33.974   4.496
73406W        W39815   6.369  20.373  10.714
73407W        W39816  40.173  16.803   1.403
73408W        W39817  26.990  41.823   3.654
73409W        W39818  29.018  37.863  12.709
73410W        W39819  10.309   6.404   0.349
73411W        W39820  24.017  42.769   0.403
73412W        W39821  14.221  16.270   3.357
73413W        W39822  18.060   0.252   0.853
73414W        W39823  16.995  35.362  12.344
73415W        W39824   7.336  27.375   3.989
73416W        W39825  21.750  17.295   2.651
73417W        W39826  15.998  18.288  12.141
73418W        W39827   8.881  34.280  13.803
73419W        W39828  37.308  11.331  14.834
73420W        W39829   2.301  29.406   3.772
73421W        W39830   9.702  35.371  12.354
73422W        W39831  12.722  21.744  10.182
73423W        W39832   3.312  19.548  13.437
73424W        W39833  12.122  18.704   1.133
73425W        W39834  26.359  44.077  14.201
73426W        W39835  42.787  10.180   2.941
73427W        W39836  32.298  16.794  14.284
73428W        W39837  33.661   0.922  14.187
73429W        W39838  38.884  17.885  14.355
73430W        W39839  32.742  27.690   3.641
73431W        W39840   5.818  37.014   0.480
73432W        W39841  18.716  14.497  12.477
73433W        W39842  42.794  33.460   2.301
73434W        W39843   1.174  23.589   4.029
73435W        W39844  20.689  19.718   2.964
73436W        W39845  42.021  17.182   5.108
73437W        W39846  12.187  33.387   1.037
73438W        W39847  29.371  18.791   1.737
73439W        W39848   4.477  38.829  10.362
73440W        W39849  13.945  41.784  14.290
73441W        W39850  27.657   1.866   0.431
73442W        W39851   9.256  33.096  12.229
73443W        W39852  39.894  30.854  14.358
73444W        W39853  44.552  29.527   3.693
73445W        W39854  21.596  22.364  12.378
73446W        W39855   3.735   1.749   4.573
73447W        W39856  28.652   8.797   2.633
73448W        W39857   3.924  22.130  12.826
73449W        W39858  30.978  37.167  10.817
73450W        W39859   9.383  27.354   9.950
73451W        W39860   8.385  33.482  11.965
73452W        W39861   8.616  16.223  14.403
73453W        W39862  38.053  20.582   4.555
73454W        W39863  31.395  38.975  13.931
73455W        W39864  18.106  30.985  14.721
73456W        W39865   7.410  32.678   1.902
73457W        W39866  19.693  17.310  14.313
73458W        W39867  19.237   2.703   3.682
73459W        W39868   6.879  15.690   1.573
73460W        W39869  20.578   8.001   4.533
73461W        W39870   0.759  24.579   3.645
73462W        W39871  32.245  33.431  14.414
73463W        W39872  32.589   7.788   4.487
73464W        W39873   7.676  37.360   1.857
73465W        W39874  24.539  12.831   0.865
73466W        W39875   0.959   7.757  12.834
73467W        W39876  33.625  39.977  11.364
73468W        W39877  30.074  19.487   1.326
73469W        W39878  35.874   7.206   4.109
73470W        W39879  31.420  41.850  14.321
73471W        W39880   5.154  37.628   2.212
73472W        W39881  10.620  37.558  11.641
73473W        W39882   8.310   4.962  12.370
73474W        W39883  15.970  13.704   2.773
73475W        W39884  30.305  38.125  12.075
73476W        W39885  44.083   0.677  12.588
73477W        W39886  43.335  26.996   0.451
73478W        W39887  17.917   1.976   3.152
73479W        W39888  12.752  11.112  11.566
73480W        W39889   7.337  11.427  13.949
73481W        W39890   0.309  42.757   0.018
73482W        W39891  36.922  11.398  12.978
73483W        W39892  40.752   5.599   3.362
73484W        W39893  15.345  12.731   3.198
73485W        W39894  14.940  31.648   1.429
73486W        W39895  41.996  30.171  12.969
73487W        W39896   3.022  39.359   2.140
73488W        W39897  31.657  42.851   3.310
73489W        W39898  11.599  14.312   4.005
73490W        W39899  33.340  35.964  14.552
73491W        W39900   1.269   7.757   1.791
73492W        W39901  22.190  42.045   1.920
73493W        W39902  40.625  40.147  11.172
73494W        W39903  41.239  32.117   2.481
73495W        W39904  26.830  33.947  11.677
73496W        W39905  34.566  31.508  12.155
73497W        W39906  40.474  24.086   2.369
73498W        W39907  36.601  22.194  14.832
73499W        W39908  41.726  44.385  14.866
73500W        W39909  12.392  31.614  10.649
73501W        W39910  28.944  28.936   4.869
73502W        W39911  34.642  22.076   2.385
73503W        W39912  30.998  19.335   3.654
73504W        W39913  29.688  37.313   3.012
73505W        W39914  24.658  17.285   3.281
73506W        W39915  28.015  11.651   3.362
73507W        W39916  23.079  14.322  10.946
73508W        W39917  22.710  15.299  13.909
73509W        W39918   7.133   5.675   4.135
73510W        W39919  30.964   6.504   3.198
73511W        W39920   0.014   4.530   1.277
73512W        W39921   1.325  34.903   4.545
73513W        W39922  37.986   1.945   5.173
73514W        W39923  43.302   4.467  13.850
73515W        W39924  23.575   2.738   3.711
73516W        W39925  20.661  37.397  10.695
73517W        W39926   0.174  24.279  13.801
73518W        W39927  43.773  17.355  14.748
73519W        W39928  24.226  23.569  12.466
73520W        W39929  29.949  22.957   1.672
73521W        W39930  17.119  44.570   4.588
73522W        W39931  31.927   0.858  12.583
73523W        W39932  26.141  34.795   3.309
73524W        W39933  35.492  31.422   3.809
73525W        W39934  15.277   3.747  13.040
73526W        W39935  28.466  12.594   0.925
73527W        W39936  32.445  35.939  11.243
73528W        W39937   9.926  20.073   2.791
73529W        W39938   5.729   0.412  14.959
73530W        W39939  25.476  36.049  11.934
73531W        W39940  36.482   3.579  11.135
73532W        W39941  32.587  30.007   0.423
73533W        W39942  22.041   5.274   3.913
73534W        W39943  36.039   2.411  12.750
73535W        W39944  43.051   8.117  14.663
73536W        W39945  29.351   5.315  12.178
73537W        W39946  13.590  11.606   4.578
73538W        W39947  40.579   9.658   2.274
73539W        W39948  32.612  18.904  12.618
73540W        W39949   0.478  32.404   0.920
73541W        W39950  21.789  38.644   4.485
73542W        W39951  43.885  21.292   1.838
73543W        W39952  18.069  42.048  12.574
73544W        W39953  38.840  17.669   3.544
73545W        W39954  44.272  31.245  13.005
73546W        W39955  23.000  17.532  14.391
73547W        W39956  12.354  35.455  13.310
73548W        W39957  35.754   6.180   1.932
73549W        W39958  23.002   8.205  14.385
73550W        W39959   9.909  21.975   1.689
73551W        W39960  34.309  39.854  10.801
73552W        W39961  36.829  30.064   0.746
73553W        W39962  41.889  10.508  10.316
73554W        W39963  38.380   3.280   2.757
73555W        W39964  37.820  26.313  13.881
73556W        W39965  23.488   6.117   1.086
73557W        W39966  26.165  12.955   2.234
73558W        W39967  43.083  22.029   4.209
73559W        W39968   5.304  10.722   3.307
73560W        W39969  14.747  12.292   2.899
73561W        W39970  16.304  11.747  14.466
73562W        W39971  31.163  36.993  12.625
73563W        W39972  22.697   8.853   3.161
73564W        W39973  38.340   4.646   0.697
73565W        W39974  15.383  16.786  11.932
73566W        W39975  32.816  18.735  11.630
73567W        W39976  43.863  24.179   2.960
73568W        W39977   4.365  32.390   1.222
73569W        W39978  30.133  38.516  13.842
73570W        W39979  18.260  28.010  11.574
73571W        W39980  40.450  43.311   3.708
73572W        W39981  26.673   5.511   2.207
73573W        W39982  18.310  39.570   2.798
73574W        W39983  37.368  38.425   1.694
73575W        W39984  13.919  29.122   1.626
73576W        W39985  20.675  44.751  12.467
73577W        W39986   5.268  38.651  11.562
73578W        W39987   6.262   8.703   4.514
73579W        W39988   9.202   8.814   1.900
73580W        W39989  39.334   0.425  14.324
73581W        W39990  13.211  36.287  13.670
73582W        W39991  15.369  17.919   0.386
73583W        W39992  10.715  36.943   3.963
73584W        W39993  19.562  34.613  13.067
73585W        W39994  32.834  23.238   2.903
73586W        W39995  40.018  19.335   4.958
73587W        W39996   3.721  18.030  11.392
73588W        W39997   2.098  16.438   3.589
73589W        W39998  20.000   4.534   4.567
73590W        W39999  23.557  14.341  13.254
73591W        W40000  15.193  13.386   3.724
73592W        W40001  17.540   0.434   3.655
73593W        W40002  27.569  30.994  12.586
73594W        W40003  31.546  38.575   0.353
73595W        W40004  32.992  17.269   0.718
73596W        W40005   6.849   4.876  13.370
73597W        W40006   2.922  44.781  14.283
73598W        W40007  23.676   6.860  13.966
73599W        W40008  32.618  16.238   1.958
73600W        W40009  14.428  27.647  11.161
73601W        W40010  38.317  34.702   2.759
73602W        W40011  12.638  14.519   0.235
73603W        W40012  29.991  26.608   4.126
73604W        W40013  35.860   3.395  13.442
73605W        W40014  17.150   6.952  10.885
73606W        W40015  43.967  21.168   5.025
73607W        W40016  14.888  31.977   0.845
73608W        W40017   8.263  16.638  14.375
73609W        W40018  13.171  37.842  12.725
73610W        W40019  40.986  24.760   3.724
73611W        W40020   2.230  14.287  13.627
73612W        W40021   0.381   5.786  14.253
73613W        W40022  41.967  39.081  10.697
73614W        W40023  19.635  33.285   0.536
73615W        W40024  29.000  17.803  14.404
73616W        W40025   0.469  15.712  11.487
73617W        W40026  18.117  11.248  10.797
73618W        W40027  26.183  13.542  14.932
73619W        W40028  38.554  11.084   0.307
73620W        W40029  42.290  23.681  13.845
73621W        W40030   9.917   9.783  13.481
73622W        W40031  40.041  14.516   4.272
73623W        W40032  42.319  27.163   4.586
73624W        W40033  22.216  20.966   0.453
73625W        W40034  42.963  28.237   5.071
73626W        W40035  11.157  24.193   2.795
73627W        W40036  15.577  31.344  10.686
73628W        W40037  12.767  11.604  10.673
73629W        W40038  14.905  18.291  10.476
73630W        W40039  31.471  18.599   1.932
73631W        W40040  17.542  33.220   0.300
73632W        W40041  20.028  16.681   0.356
73633W        W40042   4.901  41.079   2.711
73634W        W40043  40.348  11.238  14.864
73635W        W40044  18.129  30.943  10.938
73636W        W40045  14.064  10.206  12.353
73637W        W40046  33.728  27.645   3.495
73638W        W40047   3.460  29.537  13.614
73639W        W40048  26.611  12.651  10.721
73640W        W40049  24.011   0.429   2.771
73641W        W40050  11.365  37.887  14.827
73642W        W40051  25.223  34.616   2.293
73643W        W40052  30.079  26.854  12.408
73644W        W40053   4.449  34.288  10.292
73645W        W40054  39.873  22.217   3.151
73646W        W40055  22.074  20.174  11.589
73647W        W40056   8.388  25.459   0.360
73648W        W40057   3.905  29.399  12.004
73649W        W40058  37.817  10.346   2.248
73650W        W40059   3.397   1.989   4.213
73651W        W40060  24.765  14.406  13.424
73652W        W40061  18.740  16.739  12.282
73653W        W40062   0.908  28.925  14.434
73654W        W40063  26.984  26.498  14.934
73655W        W40064  28.249  26.605   0.766
73656W        W40065  27.446  38.463  10.714
73657W        W40066  44.836  22.070   0.828
73658W        W40067  26.586   0.305   1.060
73659W        W40068  25.377  20.198   2.170
73660W        W40069   5.971  41.892   4.046
73661W        W40070  28.068  20.007   2.465
73662W        W40071  11.005  43.184   5.401
73663W        W40072   0.242  38.248  11.432
73664W        W40073  15.342   6.696  10.764
73665W        W40074  35.559  36.935  14.037
73666W        W40075  35.990  41.332   0.498
73667W        W40076   9.389  24.711   4.005
73668W        W40077  32.799   1.602  14.366
73669W        W40078  35.459  42.678   3.997
73670W        W40079   8.787  24.161   3.523
73671W        W40080  27.787   1.202  10.739
73672W        W40081  33.622   1.016   4.110
73673W        W40082  31.380  17.108  11.968
73674W        W40083  33.191  24.032   3.105
73675W        W40084  25.961  26.912  14.176
73676W        W40085  44.405  20.077   2.791
73677W        W40086   5.227  14.295  13.466
73678W        W40087  15.548   8.903  11.795
73679W        W40088   4.006  28.184   4.432
73680W        W40089  10.392  17.846  14.478
73681W        W40090  10.789  29.165  11.611
73682W        W40091   7.553   1.862  14.112
73683W        W40092  17.242  15.689   0.220
73684W        W40093  43.517  13.748   0.496
73685W        W40094  12.164   0.979   2.249
73686W        W40095  22.174  20.464  10.759
73687W        W40096  29.076  14.369  14.406
73688W        W40097   6.655  30.640  12.599
73689W        W40098  27.474  22.909   0.759
73690W        W40099  34.692  38.581  13.948
73691W        W40100  34.873  40.034  13.303
73692W        W40101  23.504  14.195   0.293
73693W        W40102  43.754  15.730   1.753
73694W        W40103   2.861  21.349   3.130
73695W        W40104  32.785  14.780  14.904
73696W        W40105  39.335  34.022  11.967
73697W        W40106  13.681   7.751   2.263
73698W        W40107   2.050   8.701   2.541
73699W        W40108  28.458  30.570   3.233
73700W        W40109  44.080  29.034   4.423
73701W        W40110  16.715   7.227   0.281
73702W        W40111   8.257  27.445  13.660
73703W        W40112  13.303  19.528   3.631
73704W        W40113  17.083  15.505  11.596
73705W        W40114   4.855  43.996  13.684
73706W        W40115  12.860  32.636  14.794
73707W        W40116  39.657  30.652   0.032
73708W        W40117  20.817  36.937   2.870
73709W        W40118   2.809  31.172  10.603
73710W        W40119  40.891  38.834  14.845
73711W        W40120   6.236  42.895  11.492
73712W        W40121  36.605  42.443  14.264
73713W        W40122  28.282   1.454   1.723
73714W        W40123   8.823  25.258   3.269
73715W        W40124   7.878   9.293  14.615
73716W        W40125  34.003   3.989   2.308
73717W        W40126   9.392   1.987  12.468
73718W        W40127   8.620   0.316  12.980
73719W        W40128   3.770  26.743   4.717
73720W        W40129  33.481  41.495  13.433
73721W        W40130  32.493   6.687  12.828
73722W        W40131   5.339   4.707   2.227
73723W        W40132  14.274  27.501  13.929
73724W        W40133  33.254   7.868   2.862
73725W        W40134  34.625  43.262   0.696
73726W        W40135  14.216   2.903  13.871
73727W        W40136  40.503  21.132  11.604
73728W        W40137  35.545  40.768  12.864
73729W        W40138  44.743  14.686   4.638
73730W        W40139  15.547   4.154   1.860
73731W        W40140  19.865  24.462  12.531
73732W        W40141  18.962  35.626  10.441
73733W        W40142  39.027  15.630   0.911
73734W        W40143  30.165  11.752   3.621
73735W        W40144  16.614  26.023  14.027
73736W        W40145   8.310  41.912  10.719
73737W        W40146  37.790  31.962  11.582
73738W        W40147  13.791  38.830   1.754
73739W        W40148   1.976  38.829  13.856
73740W        W40149  13.445  43.181   4.348
73741W        W40150  40.003  30.474  10.779
73742W        W40151   3.877  16.112   4.146
73743W        W40152   0.834  31.789  12.586
73744W        W40153  18.527  27.586   0.450
73745W        W40154  35.145  10.882   2.321
73746W        W40155  28.914  33.493  11.961
73747W        W40156  26.489  26.497   0.976
73748W        W40157  34.909   4.892   1.233
73749W        W40158  11.331  36.073   4.561
73750W        W40159  25.635   0.648  12.244
73751W        W40160  42.348  17.807  11.973
73752W        W40161  41.263   4.461   4.554
73753W        W40162  34.826  39.769  11.054
73754W        W40163  18.139  12.708  13.817
73755W        W40164  13.239  15.380  13.992
73756W        W40165  24.294   3.821   4.123
73757W        W40166  21.601  22.850  12.155
73758W        W40167   6.169   3.146  10.619
73759W        W40168  31.045  23.560  11.281
73760W        W40169   4.432  10.607  12.344
73761W        W40170  23.011  36.408   4.676
73762W        W40171   3.423   2.822  11.870
73763W        W40172   6.622  14.570  14.971
73764W        W40173  10.315  36.073   3.254
73765W        W40174  13.084  10.292  14.454
73766W        W40175  41.106  29.081   2.289
73767W        W40176  40.651  16.966  12.935
73768W        W40177  34.530  42.531   1.186
73769W        W40178  43.125  41.829   1.417
73770W        W40179  30.989  33.329  14.928
73771W        W40180  21.576  25.200   0.974
73772W        W40181  15.830   7.532   1.487
73773W        W40182  38.794  34.279   1.674
73774W        W40183  16.232  10.244  10.350
73775W        W40184  26.475  19.487   3.203
73776W        W40185   1.011   0.235   0.444
73777W        W40186  42.405  37.115   2.263
73778W        W40187  10.930   9.782  13.268
73779W        W40188  39.337  14.524  11.660
73780W        W40189  19.235   1.772   4.214
73781W        W40190   0.387  16.040  14.284
73782W        W40191   7.271   6.405   0.855
73783W        W40192  33.048  36.449   0.579
73784W        W40193  14.708   4.461  10.691
73785W        W40194  40.397  19.626   0.044
73786W        W40195   2.274  42.831  13.629
73787W        W40196  23.634  28.983   2.310
73788W        W40197   4.303   1.459   4.498
73789W        W40198   4.856   0.954  13.994
73790W        W40199   3.427  43.340   4.663
73791W        W40200  37.053  18.701   1.863
73792W        W40201  33.083  19.048  10.920
73793W        W40202  41.066  27.030  12.337
73794W        W40203  44.690   3.197  12.465
73795W        W40204  11.260  40.465  11.185
73796W        W40205  29.469   4.462  12.611
73797W        W40206  39.034  42.513   2.102
73798W        W40207  24.984  23.276  12.725
73799W        W40208  38.975  40.568  14.007
73800W        W40209  21.622  34.925   2.697
73801W        W40210   4.433   9.316  10.329
73802W        W40211  16.434  24.505   9.783
73803W        W40212  27.243  34.968   4.375
73804W        W40213   1.183  13.175  13.767
73805W        W40214  35.935  36.471  10.766
73806W        W40215  11.640  20.700  13.863
73807W        W40216   5.268  17.574   2.005
73808W        W40217  39.644  20.543   3.148
73809W        W40218  22.400   9.693  13.015
73810W        W40219  31.537  14.618   4.091
73811W        W40220  41.940  31.542  13.366
73812W        W40221  41.247  29.418   4.435
73813W        W40222  11.703  38.801  12.003
73814W        W40223  38.159   0.958  14.221
73815W        W40224   9.363  19.711   1.259
73816W        W40225   3.708  18.588   2.174
73817W        W40226   9.242  30.283   0.912
73818W        W40227  41.904  15.575   2.510
73819W        W40228  44.736  37.429   4.250
73820W        W40229  34.351  21.430  13.750
73821W        W40230  20.153  12.852  11.548
73822W        W40231  16.861  33.566  13.649
73823W        W40232   6.229  20.314   2.376
73824W        W40233  38.554  36.374  13.051
73825W        W40234  13.997   4.742   4.633
73826W        W40235  32.901  28.839   4.618
73827W        W40236  36.752   4.787  12.815
73828W        W40237  29.768   3.435   4.578
73829W        W40238  39.812  42.894  14.326
73830W        W40239  16.136   0.904   1.628
73831W        W40240  36.025   8.410  13.570
73832W        W40241  42.394   4.559   0.419
73833W        W40242  22.806  40.489  14.516
73834W        W40243   9.248  23.752   1.448
73835W        W40244  36.221   1.748  13.834
73836W        W40245  38.084  11.070   1.892
73837W        W40246  10.372   2.274  14.159
73838W        W40247  27.482  32.676   2.917
73839W        W40248  13.140   8.693  11.455
73840W        W40249   8.406  31.556   1.227
73841W        W40250  31.037   6.082  13.856
73842W        W40251  20.107  39.036   2.811
73843W        W40252  30.526  14.077  11.040
73844W        W40253   6.659   2.136  12.981
73845W        W40254  44.407  40.024  12.585
73846W        W40255  30.560  30.199  12.479
73847W        W40256  33.532   5.005  12.844
73848W        W40257  31.044  28.937   1.819
73849W        W40258  24.651  23.131  13.117
73850W        W40259  31.953  24.053   3.778
73851W        W40260  13.277  12.439   2.861
73852W        W40261   2.963  40.050  12.548
73853W        W40262  17.317  28.132  14.160
73854W        W40263  27.009  30.518  13.517
73855W        W40264  44.731  13.149   0.323
73856W        W40265  35.515  12.320  14.004
73857W        W40266  40.977  24.152   2.179
73858W        W40267  26.148  42.296   2.437
73859W        W40268   7.787  29.667  13.575
73860W        W40269  26.547  17.004   3.174
73861W        W40270  17.672  30.576   2.916
73862W        W40271   0.494  12.783   4.600
73863W        W40272  12.444  17.305   4.220
73864W        W40273   6.775  42.249  13.937
73865W        W40274   0.029   3.245  11.176
73866W        W40275  23.009  22.788  11.412
73867W        W40276  28.446  39.522   4.086
73868W        W40277  23.931  35.062  12.052
73869W        W40278  26.181  18.717   1.656
73870W        W40279  16.236  37.154   1.811
73871W        W40280   9.751  28.780  13.814
73872W        W40281   3.154   7.285   3.684
73873W        W40282  16.632   8.068  11.574
73874W        W40283  12.324  15.008   1.939
73875W        W40284   0.962   2.088   2.283
73876W        W40285  40.542   1.777   3.111
73877W        W40286  17.672  11.024  12.164
73878W        W40287  23.558  30.952  12.830
73879W        W40288  20.646   9.291  10.713
73880W        W40289  43.508  15.848  10.594
73881W        W40290  34.124  24.970  14.866
73882W        W40291  33.478  32.650  13.344
73883W        W40292   1.815  25.699   3.785
73884W        W40293  42.951   8.138  11.267
73885W        W40294  14.263  18.194  11.573
73886W        W40295  10.567  14.600  10.619
73887W        W40296   7.155  12.316  14.821
73888W        W40297   0.275  38.477   2.062
73889W        W40298  17.705  24.236   3.411
73890W        W40299  22.804  41.301  12.090
73891W        W40300  24.266  16.053  14.331
73892W        W40301  20.334  43.588  10.992
73893W        W40302   6.796  35.281   2.242
73894W        W40303  19.654   9.775   1.326
73895W        W40304  38.069  11.601   0.195
73896W        W40305  43.138  33.098  14.423
73897W        W40306   8.019  36.173   2.602
73898W        W40307  42.707  43.315   1.461
73899W        W40308  14.724  10.077  11.975
73900W        W40309  29.231   5.404  14.552
73901W        W40310  12.209   9.708  13.942
73902W        W40311  15.485  41.066   1.238
73903W        W40312  16.118  25.219   3.635
73904W        W40313  28.013  19.536  11.105
73905W        W40314  16.306  35.985   3.205
73906W        W40315   8.436  37.778  12.026
73907W        W40316  28.068  40.543  14.771
73908W        W40317   3.928  12.281   4.808
73909W        W40318  30.525   9.215   0.135
73910W        W40319  42.599   2.803  14.044
73911W        W40320  12.978  31.393  11.454
73912W        W40321  10.311  39.011   1.777
73913W        W40322  19.692  11.208  14.048
73914W        W40323  40.842  32.835   3.193
73915W        W40324   8.212  26.125  13.108
73916W        W40325  39.328  10.381  11.043
73917W        W40326  20.539  30.470  12.757
73918W        W40327  37.607   6.319  12.049
73919W        W40328   7.631  27.722   3.773
73920W        W40329  33.112   4.478   1.310
73921W        W40330  41.679  35.337   0.307
73922W        W40331  34.018  41.837   3.769
73923W        W40332  32.785   5.853  13.613
73924W        W40333  27.536  20.005  12.791
73925W        W40334  19.762   2.130   1.341
73926W        W40335  42.715  32.430   1.203
73927W        W40336  33.628  24.644  13.601
73928W        W40337  14.306  39.944  11.838
73929W        W40338  30.473   8.256   1.728
73930W        W40339  38.065   7.305   2.242
73931W        W40340  22.355   3.159   5.126
73932W        W40341  26.079  42.482  12.145
73933W        W40342  20.098   6.349   2.885
73934W        W40343  19.506  22.704  12.139
73935W        W40344  38.073  42.049  10.769
73936W        W40345  30.591   9.061   1.088
73937W        W40346  25.572  19.260   2.501
73938W        W40347  11.442  15.417   2.793
73939W        W40348  30.829   1.377   1.392
73940W        W40349   2.050  37.401  12.927
73941W        W40350  37.071   6.698   0.738
73942W        W40351   5.037  30.916  11.308
73943W        W40352  20.319   1.494  14.171
73944W        W40353  36.108   5.891   1.196
73945W        W40354  13.290  39.098   1.793
73946W        W40355   6.675  31.584  11.197
73947W        W40356   7.692  43.892   2.197
73948W        W40357  39.256   1.349  11.980
73949W        W40358  33.001  32.388   1.129
73950W        W40359  14.147  17.951  12.992
73951W        W40360  19.302  12.012   2.858
73952W        W40361  22.123  30.860   2.342
73953W        W40362   9.348   8.918  10.736
73954W        W40363  41.046  28.024   4.574
73955W        W40364  36.020   7.186  10.918
73956W        W40365   4.337  31.471   2.661
73957W        W40366  32.010  35.188  14.247
73958W        W40367  19.274  43.073   1.372
73959W        W40368  44.804  38.193  11.109
73960W        W40369   5.285   3.599   0.509
73961W        W40370  15.274   9.391  10.696
73962W        W40371  30.586   2.265   0.817
73963W        W40372  29.069   5.717  12.675
73964W        W40373   7.583  33.200  10.209
73965W        W40374  16.395  27.604  10.917
73966W        W40375  11.575  37.544  11.587
73967W        W40376  33.348   1.723  11.222
73968W        W40377   7.892  38.916   1.260
73969W        W40378  42.968  35.755   2.057
73970W        W40379   9.173  41.598   4.256
73971W        W40380   4.963  29.537   3.741
73972W        W40381   4.535  19.723  12.082
73973W        W40382  29.182  35.158  13.446
73974W        W40383  21.619  19.285  11.472
73975W        W40384  16.645  18.615  11.616
73976W        W40385  18.505   5.932  13.438
73977W        W40386  17.713  20.327  11.157
73978W        W40387   3.928   1.253   3.654
73979W        W40388  26.255  21.160   4.108
73980W        W40389   7.108  15.865   0.085
73981W        W40390   0.446  23.703   0.406
73982W        W40391  30.674  10.378  12.522
73983W        W40392   4.193  34.965  13.368
73984W        W40393  19.561   8.367   0.035
73985W        W40394  29.759  21.954   3.407
73986W        W40395   8.925  24.535  13.403
73987W        W40396  34.813   9.491   1.277
73988W        W40397   0.989  32.602   0.956
73989W        W40398  24.666   6.348   1.647
73990W        W40399  39.667  17.318   2.178
73991W        W40400  31.904  35.894  11.384
73992W        W40401  34.641   5.798   1.238
73993W        W40402  12.531  29.168  12.081
73994W        W40403  23.274  44.832  13.020
73995W        W40404   0.203   7.792   0.793
73996W        W40405   9.284  32.522   3.406
73997W        W40406  28.698  36.020  14.267
73998W        W40407  26.176  31.115  12.035
73999W        W40408  40.517   5.040  13.146
74000W        W40409  36.928  44.744  10.668
74001W        W40410  14.789   4.964  10.682
74002W        W40411  33.134  18.599   0.382
74003W        W40412  38.716  12.296  12.067
74004W        W40413  27.087   6.835  12.707
74005W        W40414  35.554   4.519   3.702
74006W        W40415  43.886  38.458  10.852
74007W        W40416  31.508  22.683  10.940
74008W        W40417  26.172  23.786   0.313
74009W        W40418  32.375  33.253  11.445
74010W        W40419  19.599  16.638  13.003
74011W        W40420  14.169  27.513  11.576
74012W        W40421   3.308  19.282   2.310
74013W        W40422  44.359  21.793  12.157
74014W        W40423   3.299  15.903  14.884
74015W        W40424  15.299  37.585   2.828
74016W        W40425  40.422  13.659  13.430
74017W        W40426  21.281   5.574  10.328
74018W        W40427   8.145  10.180   3.188
74019W        W40428  22.546  30.253  14.434
74020W        W40429  18.551  36.418   4.309
74021W        W40430  13.082  40.514   2.855
74022W        W40431   8.616  14.738   0.545
74023W        W40432   2.381  26.699   4.741
74024W        W40433   3.909   3.721  10.426
74025W        W40434   3.418  35.517   1.494
74026W        W40435  20.803  28.644   2.109
74027W        W40436   1.439   9.814  12.513
74028W        W40437  11.929  14.990  11.008
74029W        W40438   6.143  16.760   0.270
74030W        W40439  39.786  37.812   4.041
74031W        W40440  44.543  20.183   4.331
74032W        W40441   0.908   6.380   0.425
74033W        W40442  23.743   3.102   4.685
74034W        W40443  37.660  41.516   5.079
74035W        W40444  22.217   8.811  12.510
74036W        W40445   0.972  31.954   2.193
74037W        W40446  37.057  11.618   1.826
74038W        W40447  23.538  40.492   4.272
74039W        W40448  25.903  32.412  14.548
74040W        W40449  14.530   8.348  10.781
74041W        W40450  10.431   3.363   2.643
74042W        W40451  44.962  36.068  11.093
74043W        W40452  24.209  20.280   4.134
74044W        W40453  15.989  25.701  10.170
74045W        W40454  17.672   4.746   1.310
74046W        W40455   4.889  10.842  12.610
74047W        W40456  14.802  33.330  12.195
74048W        W40457   7.811  42.451   1.838
74049W        W40458   8.786  42.910   0.960
74050W        W40459  36.517  10.010  14.489
74051W        W40460  42.406  17.842   0.821
74052W        W40461  38.186   0.260   2.664
74053W        W40462  35.855  28.656   1.217
74054W        W40463  14.901   6.653   4.747
74055W        W40464  18.366  12.487   4.536
74056W        W40465  26.134  17.357   4.569
74057W        W40466  13.431   5.972  11.938
74058W        W40467  23.824  13.531  11.182
74059W        W40468  40.283  42.615  11.171
74060W        W40469  17.561   8.180  13.899
74061W        W40470   1.887  19.013  14.054
74062W        W40471  32.040   3.320   0.696
74063W        W40472  24.159   1.877  12.009
74064W        W40473  14.844  44.782  11.165
74065W        W40474   8.231   8.207   3.916
74066W        W40475  28.306  11.821  13.911
74067W        W40476  30.183  39.008   1.745
74068W        W40477  16.006   1.921  10.750
74069W        W40478  11.210  14.245  12.425
74070W        W40479  17.813  15.013  11.161
74071W        W40480  24.967  42.967   0.241
74072W        W40481  41.981  33.109   2.791
74073W        W40482  24.244  28.123   2.751
74074W        W40483   4.703  35.882  14.461
74075W        W40484  33.201  15.273  11.456
74076W        W40485  21.732  23.483  14.752
74077W        W40486   3.297  18.091   2.666
74078W        W40487  26.048  34.777  13.489
74079W        W40488  14.794  18.757  14.224
74080W        W40489  32.951  20.321   3.351
74081W        W40490  28.004  15.588   1.823
74082W        W40491  32.521   6.432   3.189
74083W        W40492  39.549   5.081   1.861
74084W        W40493  33.785  40.373   1.150
74085W        W40494  31.610  26.734   1.570
74086W        W40495  12.350   4.856   2.713
74087W        W40496   4.407  23.449  11.166
74088W        W40497  13.382  34.067  10.250
74089W        W40498  15.362  15.580   0.023
74090W        W40499  36.715  29.276   2.711
74091W        W40500   6.362  39.881  10.487
74092W        W40501  21.794   0.161  13.007
74093W        W40502  22.763  42.851   3.186
74094W        W40503  22.952  40.346  13.399
74095W        W40504  37.580  44.349   1.830
74096W        W40505  19.587  11.220   3.333
74097W        W40506  36.017  15.484  10.556
74098W        W40507  26.045   5.164   1.181
74099W        W40508  17.652   8.398   3.206
74100W        W40509   1.599  43.568  11.212
74101W        W40510  13.081  15.242   2.567
74102W        W40511  31.092  28.432  10.837
74103W        W40512  37.921  15.214  10.277
74104W        W40513  11.943  22.605   3.188
74105W        W40514  20.643  21.972   3.705
74106W        W40515  35.754  15.770  14.975
74107W        W40516   0.228  15.413   0.791
74108W        W40517   8.630  21.470   3.739
74109W        W40518  21.627   3.404   3.281
74110W        W40519  19.983  13.893   3.384
74111W        W40520  28.171  42.427   3.498
74112W        W40521  33.120  13.057  13.454
74113W        W40522  31.520  33.366  14.944
74114W        W40523  22.649  13.913  10.687
74115W        W40524  17.173   4.948   2.786
74116W        W40525  44.973  31.230  11.186
74117W        W40526  14.196  43.074  11.883
74118W        W40527  26.084  43.845  13.098
74119W        W40528  40.551  25.159  12.707
74120W        W40529  39.739  41.416  13.432
74121W        W40530  14.528  16.968  14.010
74122W        W40531  41.995  35.970  11.891
74123W        W40532  30.456   9.509   2.859
74124W        W40533   3.215  15.861  11.474
74125W        W40534   6.450  21.760   4.298
74126W        W40535  43.618  10.341   3.991
74127W        W40536  22.597   4.902  11.539
74128W        W40537   3.710  17.836  13.491
74129W        W40538  32.404   4.843   3.565
74130W        W40539  36.053  12.097   3.577
74131W        W40540   3.731   0.266   4.824
74132W        W40541  33.840  44.471  10.173
74133W        W40542   3.661  16.730  14.524
74134W        W40543  28.094  25.410  11.563
74135W        W40544  18.239   7.667   1.203
74136W        W40545   0.344  10.792  14.190
74137W        W40546  27.939  37.118   1.678
74138W        W40547  16.614  31.569  11.522
74139W        W40548   5.822  32.218  13.071
74140W        W40549  38.928   2.630  13.870
74141W        W40550  23.530  33.519   4.667
74142W        W40551  29.514   0.059  13.428
74143W        W40552  36.435  22.500   3.088
74144W        W40553  25.051  37.437   4.096
74145W        W40554   2.038  14.157   2.877
74146W        W40555  37.623  37.898  10.835
74147W        W40556  13.160  18.644   2.677
74148W        W40557  42.557  25.036   3.726
74149W        W40558  35.679  14.592   1.961
74150W        W40559  40.890  33.357   0.975
74151W        W40560  10.384  12.735   1.115
74152W        W40561  36.404   8.161   3.816
74153W        W40562  42.738  31.357   3.704
74154W        W40563  23.173  24.460  14.406
74155W        W40564   2.901   6.385  12.561
74156W        W40565  12.583  22.081   3.656
74157W        W40566   9.779   5.406  14.018
74158W        W40567  24.995   9.178  11.456
74159W        W40568  33.339  10.020  10.323
74160W        W40569   2.993  27.589   3.767
74161W        W40570  31.997  16.335   2.969
74162W        W40571  34.533  27.162   0.850
74163W        W40572  34.941  31.574  11.806
74164W        W40573  36.994  14.095   0.700
74165W        W40574   1.692  14.994   3.732
74166W        W40575  21.636  37.658  14.320
74167W        W40576  32.481  12.663  12.943
74168W        W40577  34.476  10.233   3.764
74169W        W40578   3.696  39.866   2.503
74170W        W40579  11.614  21.978   0.293
74171W        W40580  30.454  18.872  12.870
74172W        W40581  19.439  10.335  11.122
74173W        W40582  22.235  44.005  12.960
74174W        W40583   1.397   9.207  13.386
74175W        W40584  39.145  25.238  12.153
74176W        W40585  29.082  37.838   1.417
74177W        W40586  24.519  11.731   0.885
74178W        W40587  29.901  18.631   1.733
74179W        W40588  21.320   7.912   1.288
74180W        W40589  39.543  40.487   2.877
74181W        W40590  21.537   7.217   0.534
74182W        W40591   1.218  43.443   1.191
74183W        W40592  33.420  29.245   0.311
74184W        W40593  24.287  36.344   2.673
74185W        W40594  37.519  28.703   3.252
74186W        W40595  31.040   0.751  12.241
74187W        W40596  36.304  32.549  13.914
74188W        W40597   8.857  16.378   1.317
74189W        W40598  40.592  32.616   1.851
74190W        W40599  33.839  11.253   3.670
74191W        W40600  21.787  15.683   1.361
74192W        W40601   5.769  23.567   3.515
74193W        W40602   7.832  33.585  13.900
74194W        W40603  43.483  41.441   1.640
74195W        W40604  23.200  41.788  14.427
74196W        W40605  30.985  43.875  11.006
74197W        W40606  23.727  25.470   3.702
74198W        W40607  12.898  27.252   1.806
74199W        W40608  29.213   6.532   1.027
74200W        W40609   9.843  16.325   2.226
74201W        W40610  15.834  10.818  10.775
74202W        W40611   1.782  35.021   0.901
74203W        W40612   3.121  39.891  13.787
74204W        W40613   4.654   2.806  11.593
74205W        W40614  12.269  42.499  13.773
74206W        W40615  42.508  19.738   0.847
74207W        W40616  29.420  35.354  12.149
74208W        W40617  24.053  29.235   4.161
74209W        W40618   5.736  34.137   3.549
74210W        W40619   5.621  35.605   2.272
74211W        W40620   3.400   5.464  12.267
74212W        W40621   9.803   1.562   3.658
74213W        W40622  12.609  31.750  11.466
74214W        W40623  18.170   2.190   1.751
74215W        W40624  32.853  34.035  14.075
74216W        W40625  38.325  28.352   3.514
74217W        W40626  23.773  16.832   2.785
74218W        W40627   1.862  43.256   3.788
74219W        W40628  44.420  25.524   4.669
74220W        W40629  39.430  21.242   4.065
74221W        W40630  33.997   2.406  12.171
74222W        W40631  40.944  17.741  14.869
74223W        W40632  24.921  24.727   0.950
74224W        W40633  32.559  37.507   1.046
74225W        W40634  23.009  15.833  11.168
74226W        W40635  24.804  38.638   3.861
74227W        W40636  40.935  15.360   3.589
74228W        W40637  24.983  27.691   2.730
74229W        W40638  12.738  32.402   1.214
74230W        W40639   8.324  12.120   1.527
74231W        W40640  15.297  13.050   4.095
74232W        W40641  39.478   9.427  10.885
74233W        W40642   4.928  41.300   4.513
74234W        W40643  27.747  16.738  13.047
74235W        W40644  10.996  24.137   1.255
74236W        W40645  10.773  27.649  14.046
74237W        W40646  11.707  14.785   1.097
74238W        W40647   0.042  44.798   0.801
74239W        W40648  39.212   6.255  12.972
74240W        W40649  33.033  21.499  13.304
74241W        W40650  43.469  23.924   3.274
74242W        W40651   2.308  41.719  10.020
74243W        W40652  33.461   5.487   4.289
74244W        W40653  20.767   2.699  12.037
74245W        W40654  17.350  12.320  11.537
74246W        W40655  22.271  34.324   2.334
74247W        W40656  41.430   9.200   0.717
74248W        W40657  35.113  20.107  10.671
74249W        W40658  36.409  43.210   0.305
74250W        W40659  39.856  11.782   1.158
74251W        W40660  19.504  13.688   3.372
74252W        W40661   1.165  44.080  12.945
74253W        W40662  36.869  26.499  11.574
74254W        W40663  32.050  12.157  12.527
74255W        W40664  28.011  33.599  10.977
74256W        W40665  18.164  23.021  12.794
74257W        W40666  13.909  44.658  11.115
74258W        W40667  26.206  18.702   0.399
74259W        W40668  40.058  25.486   0.820
74260W        W40669  10.400  43.054  11.965
74261W        W40670  41.586  35.931  13.347
74262W        W40671  40.503   6.408  14.338
74263W        W40672  27.547   0.050  12.881
74264W        W40673  25.931   2.973  13.142
74265W        W40674   1.790  30.038   0.707
74266W        W40675   1.469  32.571   2.631
74267W        W40676  43.776   9.395  13.479
74268W        W40677   6.692  24.933  11.704
74269W        W40678  12.075  13.328  10.658
74270W        W40679  34.839  38.371  12.438
74271W        W40680  35.520  27.026   0.389
74272W        W40681  38.402  33.375   2.235
74273W        W40682  33.116  17.706   1.501
74274W        W40683   8.897  39.815   0.734
74275W        W40684  26.140   7.467  11.139
74276W        W40685   4.803  20.753  13.665
74277W        W40686  36.905  32.341  12.582
74278W        W40687  43.869  28.778   3.593
74279W        W40688  33.383  16.643   3.740
74280W        W40689  26.071  41.253   2.306
74281W        W40690   7.016  18.480   4.033
74282W        W40691  42.225  29.454   1.401
74283W        W40692  42.862  13.397   3.561
74284W        W40693  35.340  14.773  13.403
74285W        W40694  13.289  36.657  12.189
74286W        W40695  31.442  20.740   0.208
74287W        W40696  12.111  38.982   1.056
74288W        W40697  21.006  14.822   1.224
74289W        W40698  34.281  28.281  14.027
74290W        W40699   5.212   9.929  11.626
74291W        W40700  29.510   0.311   2.116
74292W        W40701   0.386  11.359  12.172
74293W        W40702  19.543  21.769  11.220
74294W        W40703  13.997  23.489  11.285
74295W        W40704   1.074  38.777   4.133
74296W        W40705  33.461  17.081   4.286
74297W        W40706  15.834  37.855   2.115
74298W        W40707   1.351  29.670   3.533
74299W        W40708   8.640  30.140   0.450
74300W        W40709  41.819   5.495  13.843
74301W        W40710  33.366   1.838   4.192
74302W        W40711  28.659  38.835  14.515
74303W        W40712   0.145   1.526   3.661
74304W        W40713  44.753  22.736   3.512
74305W        W40714  11.630   6.062   4.692
74306W        W40715   5.159  31.070  10.695
74307W        W40716  13.698  39.480  14.935
74308W        W40717  18.838  31.419   2.300
74309W        W40718   5.658  15.909   0.877
74310W        W40719   8.313  23.633  13.350
74311W        W40720  11.324  28.242  11.154
74312W        W40721   4.254  28.093  13.162
74313W        W40722  43.782  11.865   0.950
74314W        W40723   8.081  44.781   1.913
74315W        W40724   3.211   1.659  11.212
74316W        W40725  23.666   6.472   0.756
74317W        W40726  23.783  44.515   3.792
74318W        W40727   0.910  10.849  10.570
74319W        W40728   6.836  19.145   3.488
74320W        W40729  29.415   5.638   2.486
74321W        W40730  39.993  37.866  12.641
74322W        W40731  32.067  15.030   3.981
74323W        W40732  15.667  11.272   4.382
74324W        W40733  25.506  19.305  11.053
74325W        W40734  30.958  26.505  14.387
74326W        W40735  17.217   2.784   4.483
74327W        W40736   5.211   1.235  13.159
74328W        W40737  22.638   3.109  11.235
74329W        W40738  41.940  41.523   0.831
74330W        W40739  34.171   2.695   3.601
74331W        W40740  29.055  12.332   3.638
74332W        W40741  24.053  36.122  12.987
74333W        W40742  38.771  12.428  10.784
74334W        W40743  26.750  35.225   2.418
74335W        W40744  14.029  19.816  11.516
74336W        W40745   4.602  26.396  11.137
74337W        W40746  23.761   2.804   1.227
74338W        W40747  36.034   2.294   4.942
74339W        W40748  40.747   4.038  12.110
74340W        W40749  41.792  29.611   2.334
74341W        W40750  17.179  34.656  13.149
74342W        W40751  24.130  25.954  14.872
74343W        W40752  39.424   2.189   3.907
74344W        W40753  10.434  35.089  14.987
74345W        W40754   4.939  27.521   2.599
74346W        W40755   9.208  27.484  14.215
74347W        W40756  13.053  16.848  14.964
74348W        W40757  33.660  30.602   3.599
74349W        W40758  19.658   7.988   0.364
74350W        W40759  14.915  40.100  14.511
74351W        W40760  17.700  15.780  13.965
74352W        W40761  16.327   3.275  12.395
74353W        W40762  37.274  16.323  14.048
74354W        W40763  30.546  35.165   1.805
74355W        W40764   0.924  31.982   0.736
74356W        W40765  20.075  43.018  13.939
74357W        W40766  18.645  16.566  11.777
74358W        W40767   5.876  28.747  12.516
74359W        W40768  19.070   9.154   5.042
74360W        W40769   8.419  26.337  13.559
74361W        W40770  19.822  36.856   2.124
74362W        W40771  18.277  24.092   4.110
74363W        W40772   6.417  35.517   3.821
74364W        W40773  18.617  25.975  11.027
74365W        W40774  36.910   2.927   3.630
74366W        W40775  37.897  38.701   2.154
74367W        W40776  22.593  36.680  12.466
74368W        W40777  42.934  23.184   1.886
74369W        W40778  24.375  21.635   1.640
74370W        W40779  36.432  39.466  11.428
74371W        W40780  33.438  31.917  13.904
74372W        W40781  19.833  36.517   0.411
74373W        W40782   9.144  44.282  13.328
74374W        W40783  42.943  22.952  13.047
74375W        W40784   7.433  16.390  12.477
74376W        W40785  18.558  36.967  13.585
74377W        W40786  16.536  14.810  14.675
74378W        W40787   0.777  38.939  10.802
74379W        W40788  36.140  22.248  13.074
74380W        W40789  29.971  43.984   3.038
74381W        W40790  36.888  27.687  10.962
74382W        W40791  35.540  17.424  13.117
74383W        W40792  33.377  35.413  11.855
74384W        W40793   0.067  18.099   1.677
74385W        W40794  28.198   8.212  13.150
74386W        W40795   2.400  44.066   3.664
74387W        W40796  27.636  10.825   1.835
74388W        W40797  11.696  21.105  14.390
74389W        W40798  25.562  38.301  14.858
74390W        W40799   3.500  26.725  14.409
74391W        W40800  28.535  36.738   4.692
74392W        W40801  14.782   1.184   2.762
74393W        W40802  36.116  13.524  13.912
74394W        W40803   4.697  37.386  14.968
74395W        W40804  20.508  18.544   2.207
74396W        W40805  42.466   9.382  11.946
74397W        W40806   4.900  12.193   2.425
74398W        W40807   9.298   9.234   3.286
74399W        W40808  35.597  20.313  12.442
74400W        W40809  38.673   8.912   0.084
74401W        W40810   7.701  32.382   2.743
74402W        W40811  21.250  12.513  14.982
74403W        W40812  40.056  36.348   2.159
74404W        W40813  32.889  42.237   1.099
74405W        W40814   7.549  13.773  13.516
74406W        W40815  35.861  19.165   0.186
74407W        W40816  38.280  28.716  12.660
74408W        W40817  38.555  32.873   0.780
74409W        W40818   8.814   5.076  12.394
74410W        W40819  12.667  13.377   4.134
74411W        W40820  23.018  33.545   3.944
74412W        W40821  35.158  29.687  14.282
74413W        W40822  23.034  23.816   2.493
74414W        W40823  23.813   7.700   2.386
74415W        W40824  14.073  24.985  13.815
74416W        W40825  44.261   1.489  13.091
74417W        W40826  17.710  12.859  14.776
74418W        W40827  44.911  16.303  10.769
74419W        W40828  14.089   4.095  12.309
74420W        W40829  16.029   6.007   4.380
74421W        W40830  17.614  29.518  13.929
74422W        W40831  24.819   7.485   2.086
74423W        W40832  16.084  25.098   0.001
74424W        W40833  35.893  43.766   3.185
74425W        W40834   6.842   8.058   2.494
74426W        W40835  43.545  39.298   2.194
74427W        W40836   6.184  30.466   0.307
74428W        W40837  38.631   2.181   5.097
74429W        W40838  31.562   4.429   1.476
74430W        W40839  24.509  27.580   3.621
74431W        W40840  24.992  29.845   1.275
74432W        W40841  18.346  13.429   0.763
74433W        W40842  13.157  35.955  10.412
74434W        W40843   1.777  24.755   2.245
74435W        W40844  10.748  34.601   1.835
74436W        W40845  27.532  37.626   1.358
74437W        W40846  38.431  39.218   3.649
74438W        W40847  31.417  24.161  13.547
74439W        W40848  39.125   0.756  10.286
74440W        W40849  26.865  39.471  13.061
74441W        W40850  22.736  34.540  12.948
74442W        W40851   9.145  21.961   4.543
74443W        W40852  20.387  24.629  13.863
74444W        W40853  15.222  19.384   3.747
74445W        W40854  21.728   6.958  14.811
74446W        W40855  20.540   3.674  11.150
74447W        W40856  26.664  24.136   4.040
74448W        W40857  36.614  26.511   4.670
74449W        W40858   2.063  29.409  13.395
74450W        W40859  11.326  19.816   1.518
74451W        W40860  41.262  19.552  13.845
74452W        W40861  11.212  15.715   2.301
74453W        W40862   2.509  30.527  11.707
74454W        W40863  25.638  38.996  11.962
74455W        W40864  39.136  27.983  13.060
74456W        W40865  25.696  33.128   0.999
74457W        W40866  42.715   8.105   0.615
74458W        W40867  23.247  20.500  12.385
74459W        W40868  27.706   8.687  12.632
74460W        W40869   5.387  39.339   0.725
74461W        W40870  31.512  28.941   4.722
74462W        W40871   2.175   9.233   4.549
74463W        W40872  38.519  20.475  13.950
74464W        W40873  33.438  42.428  14.732
74465W        W40874  17.379  28.236  11.578
74466W        W40875   0.406   1.156  13.409
74467W        W40876  30.558  15.208  11.240
74468W        W40877  16.600  34.016   4.583
74469W        W40878  29.176   0.875   0.815
74470W        W40879  24.715  23.190   4.151
74471W        W40880  38.569  14.833  11.475
74472W        W40881  41.098  21.863   1.419
74473W        W40882  19.578  29.912  13.881
74474W        W40883  22.523   0.111   1.334
74475W        W40884  44.668  35.992   3.151
74476W        W40885  29.095  25.112  14.196
74477W        W40886  39.349  42.385  11.239
74478W        W40887   4.187  24.630  11.980
74479W        W40888  12.115   7.200   2.211
74480W        W40889  25.478  39.454   3.878
74481W        W40890  30.510   1.103  12.411
74482W        W40891  23.746   2.201  14.447
74483W        W40892  38.336  40.769   2.627
74484W        W40893  43.968   2.250   2.257
74485W        W40894  32.164   0.794   3.222
74486W        W40895  29.328   6.158  12.515
74487W        W40896  33.420   4.488  14.047
74488W        W40897  32.217  29.509  13.499
74489W        W40898  24.370  43.058  14.577
74490W        W40899   8.607  43.343  10.547
74491W        W40900  24.946  32.622  11.903
74492W        W40901  25.603  23.312   1.843
74493W        W40902  30.047  33.382   3.227
74494W        W40903   5.218  17.235   1.032
74495W        W40904   1.803   9.327   4.907
74496W        W40905  15.213  18.204   0.819
74497W        W40906  15.171   7.100   4.077
74498W        W40907  13.433  29.430   2.412
74499W        W40908   2.803   6.381  10.729
74500W        W40909  36.109   6.801   1.428
74501W        W40910   0.924  21.698  12.565
74502W        W40911  41.089  14.960  11.031
74503W        W40912  33.859  25.713   0.184
74504W        W40913  33.232   3.833  11.956
74505W        W40914  36.494  33.067   2.785
74506W        W40915  30.306  19.728  11.463
74507W        W40916  20.172  44.784  11.994
74508W        W40917  17.104  20.223  11.541
74509W        W40918  28.911  28.812  10.704
74510W        W40919  24.659  36.533  14.171
74511W        W40920   1.295  23.743  11.697
74512W        W40921  12.785  22.687  11.450
74513W        W40922  30.985   4.162  14.588
74514W        W40923  25.764   5.625  10.896
74515W        W40924  13.877   7.160   0.039
74516W        W40925   3.463   2.735   2.697
74517W        W40926  18.394  13.892   2.785
74518W        W40927  36.584  19.522   2.263
74519W        W40928   7.011   3.287  12.304
74520W        W40929   1.559  29.598  10.672
74521W        W40930  38.014   7.211   0.160
74522W        W40931  39.227   9.149   2.110
74523W        W40932  26.826  19.756   2.275
74524W        W40933  41.416   4.502  14.240
74525W        W40934  41.863  11.820   2.956
74526W        W40935   8.745   3.306   0.283
74527W        W40936  28.925  19.991  13.722
74528W        W40937   7.956  22.505   2.820
74529W        W40938  44.184  28.570  13.376
74530W        W40939  16.808  29.410   4.179
74531W        W40940  24.858  37.955  14.022
74532W        W40941  27.331  10.414   5.041
74533W        W40942  20.480  25.062  12.948
74534W        W40943  31.457  43.411   4.169
74535W        W40944  38.115  29.461   4.783
74536W        W40945  14.047  42.894   5.005
74537W        W40946  13.580  36.557   5.148
74538W        W40947  44.004  34.613  11.964
74539W        W40948   0.409   6.291   2.404
74540W        W40949  13.400  34.014   5.307
74541W        W40950  24.953   0.944   4.045
74542W        W40951  20.007  22.957   0.255
74543W        W40952  12.536   7.281   0.048
74544W        W40953  11.380   0.490   0.800
74545W        W40954   9.999   3.599  13.895
74546W        W40955  20.036  24.996   2.184
74547W        W40956   2.150   5.702   3.226
74548W        W40957  27.647   4.441  13.453
74549W        W40958   0.019  36.552  14.680
74550W        W40959   6.980  19.645  11.032
74551W        W40960  33.391  31.561  12.499
74552W        W40961   6.220  42.020  12.933
74553W        W40962  40.562  27.027  12.371
74554W        W40963  18.135   8.639  12.092
74555W        W40964  12.807  26.079  11.653
74556W        W40965  10.445  15.130  12.177
74557W        W40966   5.165  26.231   0.327
74558W        W40967   6.636  25.374   1.177
74559W        W40968  15.616  43.146   4.076
74560W        W40969  41.976  30.693  11.088
74561W        W40970  15.760  36.327  10.499
74562W        W40971   1.141  13.577  14.565
74563W        W40972  44.247   0.460  11.189
74564W        W40973  26.745  27.596   0.212
74565W        W40974  16.835  29.101  11.429
74566W        W40975  11.310   0.019  13.490
74567W        W40976  35.467   6.865   0.920
74568W        W40977   5.746  41.953  14.820
74569W        W40978  41.211  12.144  13.526
74570W        W40979  18.854  20.163   3.801
74571W        W40980  14.735  35.923   0.399
74572W        W40981  30.529  37.431  10.778
74573W        W40982  41.133  22.547   1.816
74574W        W40983   5.898  24.603   3.554
74575W        W40984  18.491  24.705  11.387
74576W        W40985  19.691  23.995   1.858
74577W        W40986  27.569  10.181  14.052
74578W        W40987   4.018  28.610   1.677
74579W        W40988  29.732  10.719   1.835
74580W        W40989   8.824  37.839   0.366
74581W        W40990   0.092  14.468   4.956
74582W        W40991   3.359   6.473   4.928
74583W        W40992  11.784  28.619  11.150
74584W        W40993   9.207  11.225   2.089
74585W        W40994  13.201  22.265   2.941
74586W        W40995  39.246  42.473   0.916
74587W        W40996  13.555  15.848   1.852
74588W        W40997   2.426  41.956   2.873
74589W        W40998   7.856  44.686  13.816
74590W        W40999  37.570   0.119  10.977
74591W        W41000  29.045  40.877   3.596
74592W        W41001   6.268   9.282  12.559
74593W        W41002  19.193  39.040   4.577
74594W        W41003  27.228  41.972   4.098
74595W        W41004  22.497  10.198  12.927
74596W        W41005  17.227  10.376  13.324
74597W        W41006  14.850   4.880   1.876
74598W        W41007  32.570  35.757  12.111
74599W        W41008  19.956  13.377  11.556
74600W        W41009   6.974   3.367  13.056
74601W        W41010  11.041  15.216   4.242
74602W        W41011   8.052  12.822   5.037
74603W        W41012   4.836  32.136   1.182
74604W        W41013   5.433  23.577  13.739
74605W        W41014   4.144   5.121  13.915
74606W        W41015   4.757  18.269   2.582
74607W        W41016  37.279  14.560  10.717
74608W        W41017   7.734  17.687  12.847
74609W        W41018  43.056  10.587   1.319
74610W        W41019  37.994  35.521   2.027
74611W        W41020  22.287  29.738  11.436
74612W        W41021  29.566   6.891  11.120
74613W        W41022  25.905  40.075  12.404
74614W        W41023  23.890  33.458   0.222
74615W        W41024  37.097   6.302  12.075
74616W        W41025  12.173  14.545  12.651
74617W        W41026  33.851  18.074   1.767
74618W        W41027   9.323  14.359   0.691
74619W        W41028  42.259   3.409  13.105
74620W        W41029   4.522   3.434  14.878
74621W        W41030  18.496  40.373  12.364
74622W        W41031   1.401   0.878   3.771
74623W        W41032   4.438   1.344  11.374
74624W        W41033  43.710   9.407   3.104
74625W        W41034  26.645  18.473   0.753
74626W        W41035  23.746  31.134   2.628
74627W        W41036   3.892   3.536   2.817
74628W        W41037  37.411  17.425  13.786
74629W        W41038  15.235  25.187  10.643
74630W        W41039   2.886  43.211   0.900
74631W        W41040  34.971   7.023  12.424
74632W        W41041  44.547  36.580  14.510
74633W        W41042  23.758  30.867  11.939
74634W        W41043  13.285  36.018   3.225
74635W        W41044  22.161  26.219  11.377
74636W        W41045  44.240  37.215   0.862
74637W        W41046  43.095  16.316  12.246
74638W        W41047  33.338  40.965   0.812
74639W        W41048  41.961   8.613   2.325
74640W        W41049  25.404  36.157  12.444
74641W        W41050  36.556  40.554   0.894
74642W        W41051  15.871  24.067  11.946
74643W        W41052  29.370   3.228   0.034
74644W        W41053  36.959   8.362   4.642
74645W        W41054  10.903  26.974  12.177
74646W        W41055   9.358  14.554   1.187
74647W        W41056  25.039  24.277   0.748
74648W        W41057  37.366  11.957  13.385
74649W        W41058  40.556  36.277   1.334
74650W        W41059   7.663  12.209   3.890
74651W        W41060   5.830  23.975   3.100
74652W        W41061  43.515  19.223  11.065
74653W        W41062  44.655   9.768   2.579
74654W        W41063   8.566  32.081  13.391
74655W        W41064  27.565  14.520   2.599
74656W        W41065  23.462  25.470   3.264
74657W        W41066  30.014  11.042   4.112
74658W        W41067  19.533   5.136  10.699
74659W        W41068  24.168  41.603   5.104
74660W        W41069  27.258   3.341   5.317
74661W        W41070  12.205   6.640  11.512
74662W        W41071  29.940  37.864   4.097
74663W        W41072   5.830  24.020  14.315
74664W        W41073  24.624  18.080  10.897
74665W        W41074  24.996  21.153   2.224
74666W        W41075  39.791   6.162   3.397
74667W        W41076  15.210  30.943   3.686
74668W        W41077   9.447  42.931   2.724
74669W        W41078  44.323  29.379   4.124
74670W        W41079  25.167  41.940  14.367
74671W        W41080  36.383  40.485   4.529
74672W        W41081  23.054  15.374   4.722
74673W        W41082  25.658  30.491  14.239
74674W        W41083   2.711  12.237   4.590
74675W        W41084  19.689  32.566   1.844
74676W        W41085  15.108  32.590   3.848
74677W        W41086  36.834  42.025  11.186
74678W        W41087  14.285  33.352   3.012
74679W        W41088  11.143  25.458   1.721
74680W        W41089  15.627  11.807  10.732
74681W        W41090  29.463  24.106   4.969
74682W        W41091  33.894  22.729  10.585
74683W        W41092  10.943  19.489   1.367
74684W        W41093  23.803  35.811   4.621
74685W        W41094  19.020   8.265   2.597
74686W        W41095  22.696  36.343  14.916
74687W        W41096  16.458  13.076  12.674
74688W        W41097  20.009  35.577   2.240
74689W        W41098  25.546  32.058   4.030
74690W        W41099  14.760   1.321  10.950
74691W        W41100  28.529  33.547   0.463
74692W        W41101  32.427   2.564  12.077
74693W        W41102  39.066   5.172   4.770
74694W        W41103  25.456   9.890   1.389
74695W        W41104  43.990   5.679   1.799
74696W        W41105   7.326  12.759  14.410
74697W        W41106  15.337  35.049  11.065
74698W        W41107  19.092  37.135  10.354
74699W        W41108  21.321  23.209   2.357
74700W        W41109  11.839   4.400  14.073
74701W        W41110  27.957   4.945   1.486
74702W        W41111  37.630   3.381   0.504
74703W        W41112  20.598  35.923  12.614
74704W        W41113  44.006   4.036  10.896
74705W        W41114  16.294   3.667  13.312
74706W        W41115  27.162  16.016   2.806
74707W        W41116  43.788  43.357  13.545
74708W        W41117  40.702  14.753   1.686
74709W        W41118  22.243  10.663  10.936
74710W        W41119  43.648  31.671   2.397
74711W        W41120  33.298  29.771   1.794
74712W        W41121   7.881  10.871  10.958
74713W        W41122  40.829  12.982   3.201
74714W        W41123   8.151  21.177   2.300
74715W        W41124  43.851  38.901   1.411
74716W        W41125  14.280  32.634  14.713
74717W        W41126  13.799   6.347  13.320
74718W        W41127   4.719  30.610   0.236
74719W        W41128  14.830  29.554  13.470
74720W        W41129  23.251  34.565  12.842
74721W        W41130   2.256  40.138   0.276
74722W        W41131  44.841  24.079  11.221
74723W        W41132  36.981  26.784  11.157
74724W        W41133   1.138  16.237  13.937
74725W        W41134  19.779  14.938  12.167
74726W        W41135  17.285  22.256  12.166
74727W        W41136  40.341  34.492   4.840
74728W        W41137  40.490  18.435   0.265
74729W        W41138  11.467  27.447   1.617
74730W        W41139  29.426  13.345   3.681
74731W        W41140  37.357  34.906  11.656
74732W        W41141  17.614  25.655  13.862
74733W        W41142  43.109  44.493   3.731
74734W        W41143  27.574   0.756  11.639
74735W        W41144   4.391   8.724  12.075
74736W        W41145   4.221  14.871   2.299
74737W        W41146  28.839  35.549   4.525
74738W        W41147  31.122  12.255  14.819
74739W        W41148  14.348  40.856  11.991
74740W        W41149  23.468  40.141   2.730
74741W        W41150  23.639   0.958   2.145
74742W        W41151  34.063  23.429  11.978
74743W        W41152  25.633  38.847  12.872
74744W        W41153  35.599   4.708   1.919
74745W        W41154  31.056  15.370   0.823
74746W        W41155  38.239  17.903   2.771
74747W        W41156  40.478   4.613  12.144
74748W        W41157  29.032  18.041  14.891
74749W        W41158  29.044  35.603  10.814
74750W        W41159  30.298   3.416   1.817
74751W        W41160  34.781  33.014  13.463
74752W        W41161  34.584  20.328   2.739
74753W        W41162  32.999  35.900   2.837
74754W        W41163   6.580   8.867  12.445
74755W        W41164  15.764  41.838   4.503
74756W        W41165   2.682  38.761  12.826
74757W        W41166   5.212  23.638  10.469
74758W        W41167   0.791  30.833   3.194
74759W        W41168  26.198  31.986  14.400
74760W        W41169  17.756   3.779  12.083
74761W        W41170   4.167  28.140  11.581
74762W        W41171  37.312  27.117   4.171
74763W        W41172  21.297  26.219  13.856
74764W        W41173  44.464  17.093   0.301
74765W        W41174   9.680  37.452  12.081
74766W        W41175  25.658  16.402   1.345
74767W        W41176  21.513  29.207  13.478
74768W        W41177  15.319   6.164   1.229
74769W        W41178  12.994  20.065  12.407
74770W        W41179  34.122   3.721  11.886
74771W        W41180  28.968  42.323  11.603
74772W        W41181  21.181  31.944   1.349
74773W        W41182  14.274  20.282  12.832
74774W        W41183  33.463  22.652   1.747
74775W        W41184  35.606  42.004  14.697
74776W        W41185  27.729  16.032   1.799
74777W        W41186  35.405  33.908   1.360
74778W        W41187  38.975  41.249  14.548
74779W        W41188  27.915  17.115  11.477
74780W        W41189  32.209   0.964  14.336
74781W        W41190  29.510  44.709   3.649
74782W        W41191  22.825   8.904  10.769
74783W        W41192   5.354  23.544  14.241
74784W        W41193   7.751  18.223   3.168
74785W        W41194  38.511  22.165  13.811
74786W        W41195   7.387   2.853   4.162
74787W        W41196  34.914  37.170  12.029
74788W        W41197   6.982   7.620  12.135
74789W        W41198   2.902   1.273  11.743
74790W        W41199  32.099   0.183   0.779
74791W        W41200  25.154  24.460  14.965
74792W        W41201  28.693  21.730   0.837
74793W        W41202  17.984   2.237  11.949
74794W        W41203  42.775  24.589  13.561
74795W        W41204  17.560  11.435  13.000
74796W        W41205  14.686  38.278  13.190
74797W        W41206   6.497  42.365  12.197
74798W        W41207  32.478  40.609   3.578
74799W        W41208  34.383  40.250   2.308
74800W        W41209  11.117  18.338  14.897
74801W        W41210  12.025   0.259   4.270
74802W        W41211   0.959   1.915  14.386
74803W        W41212  12.935  24.655  11.076
74804W        W41213   4.971   5.806   0.659
74805W        W41214  22.141  21.814  14.768
74806W        W41215   6.040  30.825  12.855
74807W        W41216  15.691  13.204  12.130
74808W        W41217  24.658   9.208   0.210
74809W        W41218  19.783  42.348  11.551
74810W        W41219  11.938  31.107  14.769
74811W        W41220  11.379  21.492  10.970
74812W        W41221   0.201  15.394  13.304
74813W        W41222   5.516   7.975  12.230
74814W        W41223  26.919  34.536  12.551
74815W        W41224  15.728  14.066  10.329
74816W        W41225  22.460  38.844  11.577
74817W        W41226  11.749  19.491   3.406
74818W        W41227   8.377  32.103   0.926
74819W        W41228  11.719  11.919   3.616
74820W        W41229  39.686  18.207  14.705
74821W        W41230  10.776  20.583   4.398
74822W        W41231  39.918  14.565   1.295
74823W        W41232   2.766   5.461   0.817
74824W        W41233   7.767  23.487   2.580
74825W        W41234  28.887  19.755  10.672
74826W        W41235  36.988   3.767  10.379
74827W        W41236   8.152  29.456   1.248
74828W        W41237  40.180  44.198  11.240
74829W        W41238   1.928  17.244   0.486
74830W        W41239  15.753  34.556   3.679
74831W        W41240  17.060   6.404  14.304
74832W        W41241  20.342  18.751   2.860
74833W        W41242   9.192  19.878  13.082
74834W        W41243  42.526  13.070   3.781
74835W        W41244  37.369  34.385   3.472
74836W        W41245   1.361   3.984  13.939
74837W        W41246  29.397  13.043  12.769
74838W        W41247   4.744  15.865   1.674
74839W        W41248   5.936   5.342  14.315
74840W        W41249  12.100   6.010   0.349
74841W        W41250  43.246  44.897   2.753
74842W        W41251  24.070  39.608  12.517
74843W        W41252  19.764  39.097   0.825
74844W        W41253  10.596  32.547   2.844
74845W        W41254  26.055   7.834   9.998
74846W        W41255  23.080  14.440   4.205
74847W        W41256   4.888  37.791   1.781
74848W        W41257  24.722  14.792   4.159
74849W        W41258  39.151  30.721   0.070
74850W        W41259  10.223   5.911   4.889
74851W        W41260  36.832  29.959   1.253
74852W        W41261   6.343  17.596   2.424
74853W        W41262  41.790  16.012  12.056
74854W        W41263  41.602  32.054  14.969
74855W        W41264  25.577  38.021  14.389
74856W        W41265  32.492  14.407  13.456
74857W        W41266  31.936  42.050   2.752
74858W        W41267  23.489  28.846   0.312
74859W        W41268  33.866   6.421  11.764
74860W        W41269  24.500   2.451   2.422
74861W        W41270  16.280  32.943  13.504
74862W        W41271  11.930  33.129  12.855
74863W        W41272   7.785  19.796  10.717
74864W        W41273  15.866  20.046   0.644
74865W        W41274  44.276  14.309   3.387
74866W        W41275  35.428  15.407   2.825
74867W        W41276  34.292   1.384   4.092
74868W        W41277  13.656   5.781   2.145
74869W        W41278   8.661  19.244   2.455
74870W        W41279  39.925  24.771   4.469
74871W        W41280  23.242   2.867  11.831
74872W        W41281  30.021  30.762  13.036
74873W        W41282  17.335  30.651  11.917
74874W        W41283  15.617  34.899  14.806
74875W        W41284  39.761  21.937  11.525
74876W        W41285  17.261  32.127   1.447
74877W        W41286  13.180  39.580   1.924
74878W        W41287  23.077  23.115  10.422
74879W        W41288  17.060  40.311   2.198
74880W        W41289   7.207  20.287   3.713
74881W        W41290  18.423  32.582  14.886
74882W        W41291   0.306  30.538  13.237
74883W        W41292   9.404   0.842   9.699
74884W        W41293  21.626  32.525  13.804
74885W        W41294  27.554  13.354  11.425
74886W        W41295   7.426   7.668   3.687
74887W        W41296   1.326   6.911  11.674
74888W        W41297   4.396   0.682   2.811
74889W        W41298   4.006  33.133  11.671
74890W        W41299  20.140  34.437  13.996
74891W        W41300  20.263  22.253  11.965
74892W        W41301  31.151   1.370   0.983
74893W        W41302   9.680  31.418  12.990
74894W        W41303  38.386  31.393  11.206
74895W        W41304  25.650  33.135  12.391
74896W        W41305  31.889  31.063   1.717
74897W        W41306  44.762  16.987  14.888
74898W        W41307   0.097   0.943  14.457
74899W        W41308  43.778  37.428   3.767
74900W        W41309  39.553  39.841  10.591
74901W        W41310  37.451  18.046  12.972
74902W        W41311  35.246  35.610   2.663
74903W        W41312  39.487  37.335  12.845
74904W        W41313  33.132   5.860   4.183
74905W        W41314  14.157  29.600   0.745
74906W        W41315  23.565   8.562   1.892
74907W        W41316  20.833  18.248  11.635
74908W        W41317  35.171  18.699   1.437
74909W        W41318  20.712  39.639  13.512
74910W        W41319  31.500  39.529  10.556
74911W        W41320   1.698  12.289   1.235
74912W        W41321  35.201  25.524  11.636
74913W        W41322  31.563  44.552  11.854
74914W        W41323  14.159   6.658  11.953
74915W        W41324  42.384   2.174  11.236
74916W        W41325  19.023  43.096   2.370
74917W        W41326  35.044  27.625   3.789
74918W        W41327  22.982  31.442   0.888
74919W        W41328  16.865  28.040   2.215
74920W        W41329  37.968  41.725  13.584
74921W        W41330   3.702   8.843   1.719
74922W        W41331  30.920   5.812   3.714
74923W        W41332  16.346  12.154  12.887
74924W        W41333  41.791  24.299  12.566
74925W        W41334  13.443  13.342   0.875
74926W        W41335  19.575  13.771   2.150
74927W        W41336  44.942   5.846  13.748
74928W        W41337   2.997  11.780   4.106
74929W        W41338  28.410  26.737  11.584
74930W        W41339   2.366  16.840   3.774
74931W        W41340  30.716   4.885   2.996
74932W        W41341  14.214   5.827   2.907
74933W        W41342  34.329  11.179  14.565
74934W        W41343  37.066  26.613   4.898
74935W        W41344  10.858  33.862   0.194
74936W        W41345   6.077  42.846  11.964
74937W        W41346  41.640  11.762   4.380
74938W        W41347   5.913  28.080  11.976
74939W        W41348   8.351  22.309   1.629
74940W        W41349  14.564  41.272   4.102
74941W        W41350  32.106   6.017  10.657
74942W        W41351  11.088   9.925   1.718
74943W        W41352   7.135   8.222  12.909
74944W        W41353  11.770  35.538   2.582
74945W        W41354  28.169  22.768  10.348
74946W        W41355  18.846  27.420  12.049
74947W        W41356  11.576  12.220   4.046
74948W        W41357   2.462  25.409   1.858
74949W        W41358  18.450  41.803   2.865
74950W        W41359  44.056  33.124   3.721
74951W        W41360  22.063  40.906  12.700
74952W        W41361  43.917  21.095   3.631
74953W        W41362  42.042  11.772   3.935
74954W        W41363  23.021  26.215   3.750
74955W        W41364  40.106  18.631   1.913
74956W        W41365   7.233   2.827  12.485
74957W        W41366  15.849  43.108  13.047
74958W        W41367   5.154  42.948  12.980
74959W        W41368  18.691  18.151  11.938
74960W        W41369  30.510  22.555  10.688
74961W        W41370  38.559  38.817   3.371
74962W        W41371  27.931  29.528   3.255
74963W        W41372  15.986   3.398  13.979
74964W        W41373   9.123   9.951  10.604
74965W        W41374   3.708  32.191   0.836
74966W        W41375   8.177  31.160  13.853
74967W        W41376  14.361  12.145   3.866
74968W        W41377  23.845   3.880  13.055
74969W        W41378   8.285   0.728  12.074
74970W        W41379  41.025  30.686  12.928
74971W        W41380  16.901  43.535   4.437
74972W        W41381   6.954  43.964  14.735
74973W        W41382  28.716  17.035  12.990
74974W        W41383  16.713  17.110   4.513
74975W        W41384  18.090   1.991  13.115
74976W        W41385   8.359  38.151  13.816
74977W        W41386  29.937   9.787   3.690
74978W        W41387  33.504  15.683   3.169
74979W        W41388  12.622  17.673  13.516
74980W        W41389  20.443  21.656   0.218
74981W        W41390  42.773  13.509   3.071
74982W        W41391  10.943  13.186  14.075
74983W        W41392  11.207  43.294   3.654
74984W        W41393  43.581   8.915   1.640
74985W        W41394  36.888  22.553   1.932
74986W        W41395  19.780   0.273  14.022
74987W        W41396  37.610  15.308   1.788
74988W        W41397  25.118  41.816  11.914
74989W        W41398   3.908   4.282   2.989
74990W        W41399   1.472  25.737  13.853
74991W        W41400   9.404  23.123  11.623
74992W        W41401  26.444  41.350  13.031
74993W        W41402  26.606   4.910  11.932
74994W        W41403  26.425   7.163   2.998
74995W        W41404  33.962  33.114  12.634
74996W        W41405  20.187  22.751   1.628
74997W        W41406  33.111  34.333   4.101
74998W        W41407  13.941   0.270   0.329
74999W        W41408  42.214  24.606  12.463
75000W        W41409  23.800  14.851   3.189
75001W        W41410  38.899  19.171  12.436
75002W        W41411  13.730  23.540   1.282
75003W        W41412   1.519  17.796  12.613
75004W        W41413   7.834  29.204   4.613
75005W        W41414  43.805  29.183  11.283
75006W        W41415   8.664   8.457   4.066
75007W        W41416  43.317   6.866   3.665
75008W        W41417  21.450  43.772   2.758
75009W        W41418   9.238  11.112   1.579
75010W        W41419  44.428  20.630   4.124
75011W        W41420  30.743  25.311   4.266
75012W        W41421   7.907  23.629  11.567
75013W        W41422  32.388   3.242  10.762
75014W        W41423   1.848  34.553  13.993
75015W        W41424  30.031  24.172   0.191
75016W        W41425  21.052   8.623   3.335
75017W        W41426  36.386  37.548  11.448
75018W        W41427   4.943  30.218  12.500
75019W        W41428  26.068  25.327   0.975
75020W        W41429   0.482   9.066   3.200
75021W        W41430  31.085  23.722   0.436
75022W        W41431  29.352   9.531   0.963
75023W        W41432  35.359  26.121  14.362
75024W        W41433  24.481  15.471  14.628
75025W        W41434  13.734  43.460  14.945
75026W        W41435  35.636  33.926   4.145
75027W        W41436  30.340   4.335   0.862
75028W        W41437  36.475   5.465  14.338
75029W        W41438  43.109   3.737   4.675
75030W        W41439  13.430  18.148  10.489
75031W        W41440  18.047  18.223  12.707
75032W        W41441  41.087  28.650   1.425
75033W        W41442  10.872  40.817  14.457
75034W        W41443  26.469  18.198   1.635
75035W        W41444   8.314  28.481  11.685
75036W        W41445   2.103  12.378   2.178
75037W        W41446  15.582  28.566   1.409
75038W        W41447  36.386  28.229   1.302
75039W        W41448   6.653  20.873   2.902
75040W        W41449  15.174  13.873   1.437
75041W        W41450  14.879   9.644  13.485
75042W        W41451  13.841   5.397   0.359
75043W        W41452  13.751   3.308  12.856
75044W        W41453   4.280   5.863  11.685
75045W        W41454  26.023   0.528  11.483
75046W        W41455  37.858   9.282  13.895
75047W        W41456   3.422  25.956  11.456
75048W        W41457  13.247  22.209  10.732
75049W        W41458  15.080  37.538  12.538
75050W        W41459  33.590  34.875  10.772
75051W        W41460   4.309  30.119   2.883
75052W        W41461   3.795   3.717   1.260
75053W        W41462  29.183  19.945  12.459
75054W        W41463  29.622  24.735  12.354
75055W        W41464  37.426  22.632   1.866
75056W        W41465  35.431  38.846  10.640
75057W        W41466  28.935   3.772   1.415
75058W        W41467   9.481  27.019   3.733
75059W        W41468  25.549  43.448  11.007
75060W        W41469  12.193   0.402   1.250
75061W        W41470  44.410   3.905   0.285
75062W        W41471  41.488  34.327   0.853
75063W        W41472  20.473  27.086   0.746
75064W        W41473  37.464  42.228  12.964
75065W        W41474  18.044  20.953   1.508
75066W        W41475   3.407   4.365   2.920
75067W        W41476  23.329  41.319   0.379
75068W        W41477  36.906   6.576   3.071
75069W        W41478  17.377  30.915  13.905
75070W        W41479  43.374  44.943   1.358
75071W        W41480  31.863  18.973  11.516
75072W        W41481   6.170   0.029  11.098
75073W        W41482  24.239  41.314  12.090
75074W        W41483   5.725  40.534  14.056
75075W        W41484  26.796  40.171  14.014
75076W        W41485   3.710   8.150   4.554
75077W        W41486   8.358   1.708   1.755
75078W        W41487  26.169   3.374  11.851
75079W        W41488  36.425  37.409  13.302
75080W        W41489  30.968   2.740   2.298
75081W        W41490  35.855  20.224  14.750
75082W        W41491  35.890   1.918   1.214
75083W        W41492  17.845   1.674   0.287
75084W        W41493  22.785  30.998  12.371
75085W        W41494   5.889  36.582   3.316
75086W        W41495  41.082  34.830  13.760
75087W        W41496  30.059  40.250   4.283
75088W        W41497  22.561  25.155  14.752
75089W        W41498  10.231   6.762   3.850
75090W        W41499  10.083  23.004   1.310
75091W        W41500  35.905  25.026  13.143
75092W        W41501  32.096  23.010  13.960
75093W        W41502  20.641  34.133  14.814
75094W        W41503  30.559  27.530  10.690
75095W        W41504  35.019  27.976   0.920
75096W        W41505  19.466  32.278   3.332
75097W        W41506  17.204  32.958   3.744
75098W        W41507  20.066   8.676   3.952
75099W        W41508   4.560  13.522   3.576
75100W        W41509  21.618   2.398   0.325
75101W        W41510  35.903  23.558   1.014
75102W        W41511  32.494  25.920   4.519
75103W        W41512  13.361   9.131   2.242
75104W        W41513  17.612   1.639  11.171
75105W        W41514  39.993  40.321  14.778
75106W        W41515  29.271  31.610   2.204
75107W        W41516  25.798  44.333  12.053
75108W        W41517  32.026  16.056  14.712
75109W        W41518  31.810   3.255   2.233
75110W        W41519  11.016  19.765  14.099
75111W        W41520  20.084  23.110   2.889
75112W        W41521  21.019  38.673  11.906
75113W        W41522   6.819  38.977   4.247
75114W        W41523  31.190  27.930  13.419
75115W        W41524  16.246  36.829  12.549
75116W        W41525  26.532  23.090   0.653
75117W        W41526  34.488  22.914  11.647
75118W        W41527  10.233   0.219   3.590
75119W        W41528  15.645  43.103   2.646
75120W        W41529  34.253  35.496  10.703
75121W        W41530  33.989  32.579  13.267
75122W        W41531  29.485  36.570   2.568
75123W        W41532  11.683  32.406   2.830
75124W        W41533  17.740  24.237   0.987
75125W        W41534  25.563  28.180  14.306
75126W        W41535  15.748  18.070  10.682
75127W        W41536  19.498  15.724  11.161
75128W        W41537  38.619  31.576   4.060
75129W        W41538  26.488  15.485  13.961
75130W        W41539   7.881  30.653   2.363
75131W        W41540  20.295  44.001  10.679
75132W        W41541  31.758   1.571   5.369
75133W        W41542   2.410  33.391   0.736
75134W        W41543  26.733  14.695   2.654
75135W        W41544  44.708  30.123  10.784
75136W        W41545  40.969  24.611  11.603
75137W        W41546  23.680  31.825  11.599
75138W        W41547   9.875  11.440   0.845
75139W        W41548  29.049  13.721   1.743
75140W        W41549  16.424   0.280  13.563
75141W        W41550  34.940   1.995  12.056
75142W        W41551  18.324  36.901  13.115
75143W        W41552   6.894  26.106   5.472
75144W        W41553  39.952  43.490  12.454
75145W        W41554  40.001   7.334  12.474
75146W        W41555  36.572  16.530   0.845
75147W        W41556  43.457   6.320  13.539
75148W        W41557   2.313  15.655   0.956
75149W        W41558  21.107  29.564   0.786
75150W        W41559  10.323  35.576   2.363
75151W        W41560  16.359  40.426  13.399
75152W        W41561  29.084  30.358   0.014
75153W        W41562  32.924   7.359   2.787
75154W        W41563   3.680   7.445   2.825
75155W        W41564  25.231   0.738   2.203
75156W        W41565   1.881  19.243  13.555
75157W        W41566  12.135  29.611  14.242
75158W        W41567  31.900  11.118  12.500
75159W        W41568  23.126   2.929  14.396
75160W        W41569  19.829  21.251  11.867
75161W        W41570  32.964  22.107   4.180
75162W        W41571  22.661  19.650   4.973
75163W        W41572  20.105  41.504   1.240
75164W        W41573   7.963   7.926  12.048
75165W        W41574  12.825   3.344   3.835
75166W        W41575  14.663  37.749   3.556
75167W        W41576   6.525  23.560  11.102
75168W        W41577  12.960   4.872  13.506
75169W        W41578   6.798  16.675  13.957
75170W        W41579   9.268  18.183  11.647
75171W        W41580  38.323  24.773   2.166
75172W        W41581  26.699  36.876  14.720
75173W        W41582  11.856  39.702   0.123
75174W        W41583  44.250   9.898  11.595
75175W        W41584  14.243  25.284   1.716
75176W        W41585  15.687   4.311  13.295
75177W        W41586   1.872  29.565  14.794
75178W        W41587  13.650   6.659   0.814
75179W        W41588  35.522  29.709   4.058
75180W        W41589  44.416  26.082   4.600
75181W        W41590  19.035   7.325  10.766
75182W        W41591  35.990   0.913  14.322
75183W        W41592  38.856   4.306   1.737
75184W        W41593   3.398   3.089  12.329
75185W        W41594  35.995   4.833  11.443
75186W        W41595   5.623  18.506  14.565
75187W        W41596  36.095  34.315  13.717
75188W        W41597   7.392  41.356   0.214
75189W        W41598  42.555  18.737   3.665
75190W        W41599  10.175  18.273  11.663
75191W        W41600  37.598   4.751  12.470
75192W        W41601  44.752   4.559  11.025
75193W        W41602   3.357  33.872   0.083
75194W        W41603  12.877  27.771  12.054
75195W        W41604  24.191  30.441  14.582
75196W        W41605  20.592   4.298   2.815
75197W        W41606  43.907   0.711  13.546
75198W        W41607  23.080  23.024  13.441
75199W        W41608  31.478  37.046  11.981
75200W        W41609  14.283   4.655   5.060
75201W        W41610  13.100   8.441   4.520
75202W        W41611  39.524  34.900   4.158
75203W        W41612  44.331  36.158  12.478
75204W        W41613   0.063   5.389  12.065
75205W        W41614   6.624  44.875   0.884
75206W        W41615  38.158  21.527   3.142
75207W        W41616  26.069  35.669   0.681
75208W        W41617  14.757  31.111   4.927
75209W        W41618  38.848   9.920  10.076
75210W        W41619  26.468   2.445  13.389
75211W        W41620  31.905  16.524   4.275
75212W        W41621  29.109  15.640   2.228
75213W        W41622  12.985  29.849  13.241
75214W        W41623   1.905  33.593   0.999
75215W        W41624  35.967   0.239   3.570
75216W        W41625  33.657  39.316   3.311
75217W        W41626  12.121  21.175   0.729
75218W        W41627  35.489   1.426   3.611
75219W        W41628  39.006  35.579   3.917
75220W        W41629   6.670  25.464  13.500
75221W        W41630  16.184   2.038   3.534
75222W        W41631  42.623  16.323  13.851
75223W        W41632  44.009  24.294  12.958
75224W        W41633  13.624   0.856   0.217
75225W        W41634   5.538  19.117   3.686
75226W        W41635  29.890  27.995   4.172
75227W        W41636  24.567  11.608   4.838
75228W        W41637  33.947  35.363   4.608
75229W        W41638  39.057  27.648   0.932
75230W        W41639  26.007  23.560   3.254
75231W        W41640  19.302  39.040  14.042
75232W        W41641  33.847  30.651   1.792
75233W        W41642  22.329   0.754   3.321
75234W        W41643  22.172  41.512   3.835
75235W        W41644  12.031  33.093   0.347
75236W        W41645  37.147  40.511  13.492
75237W        W41646   6.241  41.790   4.464
75238W        W41647  44.561  13.625   1.279
75239W        W41648  10.636  29.402   3.859
75240W        W41649  12.048  19.686  13.995
75241W        W41650  35.372  13.700   2.317
75242W        W41651  33.915  44.080  14.893
75243W        W41652  21.118  15.039   1.747
75244W        W41653  36.112  38.897  14.540
75245W        W41654  10.239  14.601   0.060
75246W        W41655  10.118  23.321   0.934
75247W        W41656  14.519  34.944   4.649
75248W        W41657   2.040  16.804  11.229
75249W        W41658   8.895  24.209   4.708
75250W        W41659  14.891   7.334   3.702
75251W        W41660  29.509  28.694  12.091
75252W        W41661  33.356  13.590   1.295
75253W        W41662  26.445   1.100   4.184
75254W        W41663   2.375  30.060  11.912
75255W        W41664  33.459  33.011   4.730
75256W        W41665  20.349  23.102  12.061
75257W        W41666  44.292  34.301   1.355
75258W        W41667  18.803  38.703  12.402
75259W        W41668  26.259   2.401   2.836
75260W        W41669   4.266  21.722  12.169
75261W        W41670  31.563  17.183  13.622
75262W        W41671  15.570  24.983   4.936
75263W        W41672  25.697  19.473  13.753
75264W        W41673  36.725  14.597   3.566
75265W        W41674  38.439  44.814   4.085
75266W        W41675  25.070  30.910  11.172
75267W        W41676  15.679  10.175  11.579
75268W        W41677  37.419  14.756   1.047
75269W        W41678   9.609  38.059  10.693
75270W        W41679  22.483  31.911  10.995
75271W        W41680   4.712  33.211  13.039
75272W        W41681   3.729  25.657   3.723
75273W        W41682   2.282  34.838  13.858
75274W        W41683  12.336  42.666  12.990
75275W        W41684  18.241  10.766  11.139
75276W        W41685  12.643  11.452  12.926
75277W        W41686   8.705  43.308   1.358
75278W        W41687  15.987   9.567   4.354
75279W        W41688  32.426  44.875  10.628
75280W        W41689  29.874  18.743   0.923
75281W        W41690   3.363  10.641  13.910
75282W        W41691   2.382  44.272  12.535
75283W        W41692  17.578  41.194   4.525
75284W        W41693  27.603  29.233  13.019
75285W        W41694  15.324  42.950   2.251
75286W        W41695  36.564  20.070  14.633
75287W        W41696  23.003   7.002   2.855
75288W        W41697  35.425  23.502   3.692
75289W        W41698  25.080  31.861   3.732
75290W        W41699  23.292  31.995  14.516
75291W        W41700   8.195   7.366   3.229
75292W        W41701  31.722  35.180  12.063
75293W        W41702  42.556  13.231  11.890
75294W        W41703  26.739  17.755  13.373
75295W        W41704  23.721  16.302   4.237
75296W        W41705  16.116   1.021   0.783
75297W        W41706  41.828  30.425  12.510
75298W        W41707  28.234  24.017   0.962
75299W        W41708  25.141  37.870  11.844
75300W        W41709  24.416  37.826  13.144
75301W        W41710  32.552  21.504  10.726
75302W        W41711  19.650  13.783  11.646
75303W        W41712  41.189  28.703   3.438
75304W        W41713  20.508  41.319   4.505
75305W        W41714   3.954  33.499   3.176
75306W        W41715  44.102  21.036  10.550
75307W        W41716   5.833  30.275  10.671
75308W        W41717   4.425  10.585   2.392
75309W        W41718   6.803  15.918  11.096
75310W        W41719   3.380  26.736   2.851
75311W        W41720  32.620  41.396   1.689
75312W        W41721  29.153  14.386  11.648
75313W        W41722  33.291  17.063   4.995
75314W        W41723  20.551  42.883  13.658
75315W        W41724  24.639  17.901  10.398
75316W        W41725  24.987  30.102   3.612
75317W        W41726   7.592  23.774  13.829
75318W        W41727  43.322  32.164  11.390
75319W        W41728   0.480   4.939  14.517
75320W        W41729  39.529  39.050   3.730
75321W        W41730  28.636   0.373   2.355
75322W        W41731  40.587   3.295  14.464
75323W        W41732  26.626  17.664  10.633
75324W        W41733  30.012   8.846  13.027
75325W        W41734  31.039  37.362   2.686
75326W        W41735  21.581   4.992  13.438
75327W        W41736  26.959   7.344  14.965
75328W        W41737   5.525  41.958   1.884
75329W        W41738  43.301  41.700  11.072
75330W        W41739  27.955  14.663   1.781
75331W        W41740  22.641  24.601  12.979
75332W        W41741  25.991  27.460  11.915
75333W        W41742   2.294  14.300  11.187
75334W        W41743  36.645  24.592   2.402
75335W        W41744  43.001  38.379  13.032
75336W        W41745  14.140  30.653   4.875
75337W        W41746  30.432  17.349  11.816
75338W        W41747  35.505  40.222   0.829
75339W        W41748  15.851  44.662   2.587
75340W        W41749  28.604  18.028   1.824
75341W        W41750  18.361  24.773  14.270
75342W        W41751  35.429  12.678   1.434
75343W        W41752  38.758   9.756   1.034
75344W        W41753  27.236  32.722   1.487
75345W        W41754  15.610   3.876  10.371
75346W        W41755  37.067  40.820   1.963
75347W        W41756  28.994   3.645  13.556
75348W        W41757   5.467  12.663   4.105
75349W        W41758  22.013   2.443  14.978
75350W        W41759  40.768  15.991   0.318
75351W        W41760   2.619  33.393   2.396
75352W        W41761  33.843   5.168   4.209
75353W        W41762   9.306  31.584   3.667
75354W        W41763  21.251  28.920   1.922
75355W        W41764  31.125  27.421  14.999
75356W        W41765  13.305   5.281   4.517
75357W        W41766  37.066  31.645  11.958
75358W        W41767  36.656  29.011   1.719
75359W        W41768   5.198  37.398  14.959
75360W        W41769  33.094  40.113  12.608
75361W        W41770   5.199   6.397  14.415
75362W        W41771  30.877  27.005  14.270
75363W        W41772  21.727  27.134  13.969
75364W        W41773  38.832  42.651   5.073
75365W        W41774  30.125  36.628   0.796
75366W        W41775  23.213   9.120  13.236
75367W        W41776  24.264  41.477   0.416
75368W        W41777  27.515   2.940  11.034
75369W        W41778  26.942  28.105  10.844
75370W        W41779  40.762   3.627   1.334
75371W        W41780  27.614  28.467   4.661
75372W        W41781  24.806   5.289  13.979
75373W        W41782  38.940  13.389   2.714
75374W        W41783  35.163  43.102  12.121
75375W        W41784   0.858  43.930  13.307
75376W        W41785  36.547  34.355  11.945
75377W        W41786  28.586  10.109  12.363
75378W        W41787   6.314   6.947  10.739
75379W        W41788   7.822  28.131   4.912
75380W        W41789  43.529  31.413   3.363
75381W        W41790  41.872  13.334  12.822
75382W        W41791  25.480  30.041   1.974
75383W        W41792   7.628   6.055  14.504
75384W        W41793  35.321  26.313   0.980
75385W        W41794   6.455  26.596  11.098
75386W        W41795   0.532   0.711   1.204
75387W        W41796  11.994  29.058  12.042
75388W        W41797  21.038  19.267   1.785
75389W        W41798   5.853  13.625  11.425
75390W        W41799   1.624  20.843  11.099
75391W        W41800  28.847  31.634  11.889
75392W        W41801  21.050  12.815  13.561
75393W        W41802   1.333  19.544  13.461
75394W        W41803  27.004  32.840  13.889
75395W        W41804  10.586  43.897  12.122
75396W        W41805  44.537  40.840   3.217
75397W        W41806  29.439  10.004   3.680
75398W        W41807  25.884  24.661   4.983
75399W        W41808  35.312  34.656  14.963
75400W        W41809  31.851  22.234   2.770
75401W        W41810  14.594  15.246  11.001
75402W        W41811  18.546  21.178   3.775
75403W        W41812   4.168   8.613   3.721
75404W        W41813  24.020  21.260   2.206
75405W        W41814  39.694   7.403  13.982
75406W        W41815  18.814  37.425   1.875
75407W        W41816   1.797  40.841  14.840
75408W        W41817  37.011   7.078   3.224
75409W        W41818   9.387  40.566   2.647
75410W        W41819  29.586   9.924   4.149
75411W        W41820  38.447  21.802   4.448
75412W        W41821   7.680  26.040  11.967
75413W        W41822  10.725  18.810   3.785
75414W        W41823  38.053  34.055  10.317
75415W        W41824  33.973  36.832  13.519
75416W        W41825  12.342  39.528  10.738
75417W        W41826  21.741  21.692   1.639
75418W        W41827  28.199  21.562  11.909
75419W        W41828  28.513   4.393   0.743
75420W        W41829  23.727  16.889   3.325
75421W        W41830  22.804   1.808  14.982
75422W        W41831  37.261  31.983  11.617
75423W        W41832  10.537  40.102   0.184
75424W        W41833  38.335   9.841  13.901
75425W        W41834  16.051  11.709  11.991
75426W        W41835  26.678   6.263  10.289
75427W        W41836  35.717  35.077   1.071
75428W        W41837  15.586   6.735  12.158
75429W        W41838   8.476  39.148   4.677
75430W        W41839  44.422   6.532  12.797
75431W        W41840  16.624  37.347  14.321
75432W        W41841  17.204  32.663  11.243
75433W        W41842  17.317   5.124   1.849
75434W        W41843   7.144  17.783  14.433
75435W        W41844  26.517   3.633   2.433
75436W        W41845  10.184  17.309   5.010
75437W        W41846  42.738  37.418  13.998
75438W        W41847  33.113  11.903  12.052
75439W        W41848  16.540   4.314   3.219
75440W        W41849  28.440  43.189   4.973
75441W        W41850  42.414  12.570  13.032
75442W        W41851  26.442  30.808  14.760
75443W        W41852  18.063  22.318  11.466
75444W        W41853  20.353  31.449   0.781
75445W        W41854  15.289   2.772   4.603
75446W        W41855  23.448  42.658  12.811
75447W        W41856  19.630  42.541   3.784
75448W        W41857  22.596  39.864   4.398
75449W        W41858  14.726  39.452  14.226
75450W        W41859  11.409   7.248  13.053
75451W        W41860   6.221  29.276  14.819
75452W        W41861  16.818  23.892  14.789
75453W        W41862  16.345  20.716   2.323
75454W        W41863   6.241  27.523   2.249
75455W        W41864  18.251   6.271   3.815
75456W        W41865  25.272  18.609   0.710
75457W        W41866  11.682  38.204   1.878
75458W        W41867   3.767  10.555   2.659
75459W        W41868  22.526  19.769  14.858
75460W        W41869   1.475  14.675   4.878
75461W        W41870  26.656  27.926  14.726
75462W        W41871  40.763  26.860   0.990
75463W        W41872  44.736  21.710  11.237
75464W        W41873  42.328   2.843   2.404
75465W        W41874  21.192  33.384   1.801
75466W        W41875  26.166  38.974  12.884
75467W        W41876  16.157   4.457   1.287
75468W        W41877  43.759  12.557   1.239
75469W        W41878  31.702  20.975   3.275
75470W        W41879   8.276   1.411  11.642
75471W        W41880  13.505  29.955  13.313
75472W        W41881  36.297  16.383  12.845
75473W        W41882  43.710  43.544   4.015
75474W        W41883  24.690   6.076   1.203
75475W        W41884  40.577  28.893   3.190
75476W        W41885  44.818  19.856   3.950
75477W        W41886  35.406  21.955   0.484
75478W        W41887  20.035  19.593  12.103
75479W        W41888   8.705   8.852  13.726
75480W        W41889  40.588  20.424   3.130
75481W        W41890  44.308  41.306   1.949
75482W        W41891  11.633  12.634  13.503
75483W        W41892  42.569  38.574   0.627
75484W        W41893   3.418  44.951   0.035
75485W        W41894  29.855  40.392  14.779
75486W        W41895  11.476   0.779  11.637
75487W        W41896  41.150  14.328   0.228
75488W        W41897  25.198   4.376  11.648
75489W        W41898   5.247  19.516   3.512
75490W        W41899  38.833  11.212   0.829
75491W        W41900  23.774  28.035  11.940
75492W        W41901  42.602   3.599   2.867
75493W        W41902  41.990  20.663  12.307
75494W        W41903  37.841  12.267   4.132
75495W        W41904  37.101  23.958  10.507
75496W        W41905  12.041  19.538  12.154
75497W        W41906   5.853   9.930  12.842
75498W        W41907  33.641  17.568  13.686
75499W        W41908  29.049  44.542  11.187
75500W        W41909  18.541  35.514  10.726
75501W        W41910  41.369  41.525  14.886
75502W        W41911  29.044  28.990  14.814
75503W        W41912  37.904  31.054   0.708
75504W        W41913  21.299   1.285  12.456
75505W        W41914   1.502  14.694   0.961
75506W        W41915  21.268  26.123  11.098
75507W        W41916  13.843  24.737  12.631
75508W        W41917  40.137  25.517   1.752
75509W        W41918  17.257  11.872   0.965
75510W        W41919  33.991  31.105   0.009
75511W        W41920   5.750  13.225  12.859
75512W        W41921  21.281   4.958   0.933
75513W        W41922  16.383   8.723  13.604
75514W        W41923   9.322  29.001   2.789
75515W        W41924  16.482  42.706  14.918
75516W        W41925   7.183  18.462  12.516
75517W        W41926  12.104  17.205   1.102
75518W        W41927  41.357  24.475   3.127
75519W        W41928  39.386  34.830   0.527
75520W        W41929  33.221  35.466  13.427
75521W        W41930  13.160  14.017  13.494
75522W        W41931  19.742  31.120   1.462
75523W        W41932  20.827  19.074  13.531
75524W        W41933   0.686  13.632   1.682
75525W        W41934   3.330  18.310   0.737
75526W        W41935  43.824  11.656  11.428
75527W        W41936  16.458  41.552   0.974
75528W        W41937  32.535  35.932   2.598
75529W        W41938  31.960  28.953   1.809
75530W        W41939   7.116  41.566  14.773
75531W        W41940  38.876  16.552  11.064
75532W        W41941   8.320  22.565  11.409
75533W        W41942  21.151  28.061  14.855
75534W        W41943  23.172   5.943  12.917
75535W        W41944  10.611  10.255  11.392
75536W        W41945   3.504   3.445   2.502
75537W        W41946   8.707   5.750   4.243
75538W        W41947  15.008  37.025  12.648
75539W        W41948  30.194  44.737  12.597
75540W        W41949  41.927   9.305   0.853
75541W        W41950  43.841  38.831  11.696
75542W        W41951  18.190  42.825   2.082
75543W        W41952   5.746   2.341   4.628
75544W        W41953   8.730  34.876   1.209
75545W        W41954   2.493  18.525   3.180
75546W        W41955  41.590  23.092  13.805
75547W        W41956   8.183  23.671   0.217
75548W        W41957  30.406   4.829   0.988
75549W        W41958  27.639  15.171   1.870
75550W        W41959  16.594   0.738   1.456
75551W        W41960  41.249  21.554  13.867
75552W        W41961  32.604  44.030   2.201
75553W        W41962  22.127  44.958   3.635
75554W        W41963  21.252  13.600  14.171
75555W        W41964  40.972  14.338  11.544
75556W        W41965  25.777  15.293  10.780
75557W        W41966  14.195  29.499   1.897
75558W        W41967   5.991  33.831   3.232
75559W        W41968  30.829  31.468  12.732
75560W        W41969  34.101  24.667   1.234
75561W        W41970   4.169  21.329  14.329
75562W        W41971  17.207  33.697   4.438
75563W        W41972  36.841   6.759  14.953
75564W        W41973  26.308  41.418   0.897
75565W        W41974  31.365  12.799   1.702
75566W        W41975  15.250   5.660   0.206
75567W        W41976   2.670  22.263   2.797
75568W        W41977  19.541   4.301   0.450
75569W        W41978   0.253  24.459   0.856
75570W        W41979  37.391  43.091  12.507
75571W        W41980  39.754   6.458   3.820
75572W        W41981  21.967  16.840  11.244
75573W        W41982  26.089  37.879  13.698
75574W        W41983  24.281  21.220  13.096
75575W        W41984  11.020  19.071   4.678
75576W        W41985  32.337  21.846  11.703
75577W        W41986  38.806  28.530   2.310
75578W        W41987  22.889  39.005  14.888
75579W        W41988  16.342   7.931  11.018
75580W        W41989  25.696   9.392  12.379
75581W        W41990   7.630  28.608   5.042
75582W        W41991  18.524  20.645   0.333
75583W        W41992  12.937  31.381   0.842
75584W        W41993   0.479   6.634  14.821
75585W        W41994  30.465  13.561  11.153
75586W        W41995  24.199  16.723  14.802
75587W        W41996  17.747  19.044   1.309
75588W        W41997  38.993  23.008  11.019
75589W        W41998  25.967  20.879   0.209
75590W        W41999  40.889   8.853  14.892
75591W        W42000  33.113  36.443   2.752
75592W        W42001  28.132  41.525   1.277
75593W        W42002  26.153   6.652  12.348
75594W        W42003  37.041  34.414  11.240
75595W        W42004  21.210  12.734   0.437
75596W        W42005  19.712  28.809   5.002
75597W        W42006  33.847   1.656  10.723
75598W        W42007  43.018  26.982  14.866
75599W        W42008  20.176  26.622   0.563
75600W        W42009   1.777  36.303  14.477
75601W        W42010   5.630  11.733   2.729
75602W        W42011  43.941  34.751   1.897
75603W        W42012   5.637   4.621   0.342
75604W        W42013  40.171  31.570  13.473
75605W        W42014   8.132  13.404   2.382
75606W        W42015  10.199  34.365  10.136
75607W        W42016  34.436  21.415   1.829
75608W        W42017  19.816   8.293   3.698
75609W        W42018  24.691  30.103   3.178
75610W        W42019  31.861  29.384   3.137
75611W        W42020   6.899  36.397  12.060
75612W        W42021  30.226  37.966   1.956
75613W        W42022  39.970  18.435  10.450
75614W        W42023  11.999  20.744   1.725
75615W        W42024  21.738  12.848   1.222
75616W        W42025   7.286  16.579  13.833
75617W        W42026   9.193  13.392  13.904
75618W        W42027  28.215   0.331  14.470
75619W        W42028   9.437  12.831   2.488
75620W        W42029  31.497  29.204   2.816
75621W        W42030  25.557  17.655   0.306
75622W        W42031   8.165  29.167   4.207
75623W        W42032  19.424   1.294   2.751
75624W        W42033  35.459  32.576   4.582
75625W        W42034  34.441   7.137   3.537
75626W        W42035   0.730  28.969   2.698
75627W        W42036   0.764   2.341   0.217
75628W        W42037  43.598  21.584   4.486
75629W        W42038   7.960  31.549  10.779
75630W        W42039  18.830  37.122  13.990
75631W        W42040  43.785  35.341  13.457
75632W        W42041  21.529  24.626   0.687
75633W        W42042  13.329  26.652  13.383
75634W        W42043  31.274  32.220   1.372
75635W        W42044  16.000  30.377  10.949
75636W        W42045  15.898  25.597   3.196
75637W        W42046  33.947  28.462   3.818
75638W        W42047  30.124  32.270  14.952
75639W        W42048   6.190  17.293  11.225
75640W        W42049  13.353  16.995   2.244
75641W        W42050  19.325  39.552  14.781
75642W        W42051  20.545   3.718   0.878
75643W        W42052  11.247  34.172   3.809
75644W        W42053  10.761  14.516  14.558
75645W        W42054  31.958  39.936   2.927
75646W        W42055  17.313  41.398   4.144
75647W        W42056  40.362  33.702   3.122
75648W        W42057  27.915  28.819  12.997
75649W        W42058  36.703  35.058   0.760
75650W        W42059  44.920  15.261   1.497
75651W        W42060  32.869  30.654   2.789
75652W        W42061  44.427   7.244   2.404
75653W        W42062   4.850   1.727  12.456
75654W        W42063   9.697  16.319   1.261
75655W        W42064  10.122  21.533   1.124
75656W        W42065   1.925  24.977  13.322
75657W        W42066  34.012  40.945  11.567
75658W        W42067   5.343  35.415   3.971
75659W        W42068  38.749  18.801  10.667
75660W        W42069  23.269  36.852  14.829
75661W        W42070  35.930  38.095   0.343
75662W        W42071   4.874  15.307  10.091
75663W        W42072  14.666  22.803   4.563
75664W        W42073  36.586  12.296   1.326
75665W        W42074  38.547   0.822  12.410
75666W        W42075  26.680  12.626  12.732
75667W        W42076  13.418  16.987   1.278
75668W        W42077  33.490  10.746  13.581
75669W        W42078   6.581   3.851  11.227
75670W        W42079  17.191  44.258   1.283
75671W        W42080  25.182  26.521   3.164
75672W        W42081  39.864  24.321   4.701
75673W        W42082  43.201  21.140   0.307
75674W        W42083  14.380  34.347   4.687
75675W        W42084  44.514  15.510   1.217
75676W        W42085  22.177  37.220  13.219
75677W        W42086  44.582  19.323  12.998
75678W        W42087  25.202  39.986  13.433
75679W        W42088  28.942   9.710  13.600
75680W        W42089  37.998  19.243  12.340
75681W        W42090  17.345  18.343  12.146
75682W        W42091  29.685  43.371   1.311
75683W        W42092  13.235  31.278   2.753
75684W        W42093  41.498  33.638  13.147
75685W        W42094   0.066  16.209  11.595
75686W        W42095  31.016  26.966   2.159
75687W        W42096   0.654  44.390  11.787
75688W        W42097   6.252  40.461   2.626
75689W        W42098  29.182  11.646  11.775
75690W        W42099  36.682  33.031   0.236
75691W        W42100   4.688  30.978  10.417
75692W        W42101  28.057  44.835   3.683
75693W        W42102  23.014  21.845   1.785
75694W        W42103  20.579  43.628   1.727
75695W        W42104  16.682   9.137   3.913
75696W        W42105  30.130  35.050   0.456
75697W        W42106  15.845  12.628   2.877
75698W        W42107  29.393  21.239  10.654
75699W        W42108  24.870  11.185  11.636
75700W        W42109   2.425   8.199  10.778
75701W        W42110   8.344  34.346   3.155
75702W        W42111  36.041  28.452   0.758
75703W        W42112  38.395  41.340  13.032
75704W        W42113   0.342  42.087   4.348
75705W        W42114   4.676  13.096  11.583
75706W        W42115  25.500   4.967  14.559
75707W        W42116   7.901  13.955  13.882
75708W        W42117  37.850   9.233   3.602
75709W        W42118  17.064  44.995   2.877
75710W        W42119  27.439  16.699  11.100
75711W        W42120  35.399  15.037   0.824
75712W        W42121  24.996  42.572   4.592
75713W        W42122  11.203  31.301   3.091
75714W        W42123   4.406  37.083   1.091
75715W        W42124  33.023  26.699   2.644
75716W        W42125  27.392  25.632  12.090
75717W        W42126  29.219   4.619  14.906
75718W        W42127  44.569  35.520  10.868
75719W        W42128  29.562   7.739  14.409
75720W        W42129  37.536  24.047   2.769
75721W        W42130   3.340  22.863   0.941
75722W        W42131  37.468   6.363   1.449
75723W        W42132  32.940  36.663  10.496
75724W        W42133  10.461  43.984   2.278
75725W        W42134  27.092  27.818  12.520
75726W        W42135  40.814  30.634  12.028
75727W        W42136  41.982  27.365   3.560
75728W        W42137  33.114   0.374   2.351
75729W        W42138   5.476  12.761   2.280
75730W        W42139  19.235  44.325   4.188
75731W        W42140   5.499  34.580  12.443
75732W        W42141   0.865  12.753  13.876
75733W        W42142  36.895  31.426  12.936
75734W        W42143  44.385  31.495  10.564
75735W        W42144   1.174  27.090  11.223
75736W        W42145  16.074  33.238  11.102
75737W        W42146   1.444  30.537  10.605
75738W        W42147   4.192  35.484  11.531
75739W        W42148   8.288  30.653  14.775
75740W        W42149  15.818  32.102  13.334
75741W        W42150   6.927  38.350   2.815
75742W        W42151  33.385  25.548   0.261
75743W        W42152  37.833  30.645  14.896
75744W        W42153  37.026  32.944   1.950
75745W        W42154  30.406  35.083   3.800
75746W        W42155  37.469  24.085   4.262
75747W        W42156  16.004  36.048  12.954
75748W        W42157  29.149  38.016  11.729
75749W        W42158  23.000  42.752  14.070
75750W        W42159  16.583  34.352   4.150
75751W        W42160   3.794  22.115  14.698
75752W        W42161  16.144  39.246  12.079
75753W        W42162  16.236  27.608  13.552
75754W        W42163  24.477  34.191   0.002
75755W        W42164  29.636   5.800  11.044
75756W        W42165  37.331  15.974   1.448
75757W        W42166  17.106   0.479   2.762
75758W        W42167  39.946  21.988  14.860
75759W        W42168  26.936  20.970   3.608
75760W        W42169  43.500  30.939  12.404
75761W        W42170  35.414  24.513  10.756
75762W        W42171  25.096  33.876  13.845
75763W        W42172  12.505   8.434  12.660
75764W        W42173  25.767  33.536   4.528
75765W        W42174  44.127   3.160   4.179
75766W        W42175  18.795  39.698  11.073
75767W        W42176   9.635  27.553  13.913
75768W        W42177   3.434  34.564   1.465
75769W        W42178  26.586   5.677  13.946
75770W        W42179  27.977  38.937   3.672
75771W        W42180  39.590  36.626   0.491
75772W        W42181  14.305  34.983  13.460
75773W        W42182  31.112  39.068  13.430
75774W        W42183  27.101  14.272   4.239
75775W        W42184   4.943  26.647  13.418
75776W        W42185  23.762   9.637   0.375
75777W        W42186  22.810  29.220   3.663
75778W        W42187  24.982   9.333   0.922
75779W        W42188  33.091  27.301   1.943
75780W        W42189  39.876  32.101  12.746
75781W        W42190  23.701  10.636  12.604
75782W        W42191  43.183   0.222  10.948
75783W        W42192  35.655  37.902   2.316
75784W        W42193  32.156  11.076   1.528
75785W        W42194  15.714   8.251  13.896
75786W        W42195  17.600  32.061  13.306
75787W        W42196  37.780  14.153  10.671
75788W        W42197  41.834   0.676  13.848
75789W        W42198  31.833  33.377   0.364
75790W        W42199  39.431  14.826   3.208
75791W        W42200  23.583  41.857  13.044
75792W        W42201  24.488  13.554  13.522
75793W        W42202  32.407  27.964   1.640
75794W        W42203  36.287  12.278   3.128
75795W        W42204  36.546  41.074   0.873
75796W        W42205  29.669  18.587   5.134
75797W        W42206  22.196  31.107   0.418
75798W        W42207   8.931   7.414   2.835
75799W        W42208  39.118   0.778   3.701
75800W        W42209  17.730  26.469  13.756
75801W        W42210  12.788  22.027  14.080
75802W        W42211  17.698  12.719   4.464
75803W        W42212  25.589   0.442   2.857
75804W        W42213  21.154  27.404  10.763
75805W        W42214  16.049  15.124  13.325
75806W        W42215  11.792  22.928   4.088
75807W        W42216  12.611  37.412  11.464
75808W        W42217  17.090  31.036  13.442
75809W        W42218  26.471  33.451   1.394
75810W        W42219  42.978   2.760  14.429
75811W        W42220  11.909   8.089  11.774
75812W        W42221  27.048  15.631   0.834
75813W        W42222  23.420  26.091   1.217
75814W        W42223  29.716   3.357  14.087
75815W        W42224  33.859  41.865  12.745
75816W        W42225   5.391  24.644  14.857
75817W        W42226  38.637  14.662  14.063
75818W        W42227  44.774  23.156  11.116
75819W        W42228  39.062  23.058  12.975
75820W        W42229  40.815  23.664   3.810
75821W        W42230  35.505   8.652   4.515
75822W        W42231  31.508  32.110   3.235
75823W        W42232  41.949   8.209  11.569
75824W        W42233  34.110  38.812   1.920
75825W        W42234  23.058  28.956   2.309
75826W        W42235  41.130  42.807  14.275
75827W        W42236  41.523   3.288   2.890
75828W        W42237   7.232  32.488   4.773
75829W        W42238   1.234  13.758  10.541
75830W        W42239  40.092   4.748  14.475
75831W        W42240   6.209  13.606  11.078
75832W        W42241  31.384  15.552   4.405
75833W        W42242  15.899  39.912   4.667
75834W        W42243  13.934  14.078  13.766
75835W        W42244  24.431  26.343   2.919
75836W        W42245   6.218  23.651  14.400
75837W        W42246  31.466  23.284   3.621
75838W        W42247  41.912  40.710   1.243
75839W        W42248  18.330  39.018   0.792
75840W        W42249   8.207  13.755  12.113
75841W        W42250  22.639  11.779   3.858
75842W        W42251  35.593  36.322   3.221
75843W        W42252  33.881  36.803  12.969
75844W        W42253  15.661  23.587  11.197
75845W        W42254  14.514   7.356  10.487
75846W        W42255   8.936  25.043  13.496
75847W        W42256  18.477   3.847   1.198
75848W        W42257  14.896   3.413   0.459
75849W        W42258  36.363  16.090  14.758
75850W        W42259   2.332  10.484   4.336
75851W        W42260   9.181  22.487   4.513
75852W        W42261  30.508   8.070  14.729
75853W        W42262  11.882  15.114   2.737
75854W        W42263   5.703  39.252  12.096
75855W        W42264   0.243  39.913  11.110
75856W        W42265  16.086  17.130   3.657
75857W        W42266  25.313  25.695   3.721
75858W        W42267  14.722  31.386  14.622
75859W        W42268  38.098  39.819  13.062
75860W        W42269  15.297  22.263  11.422
75861W        W42270   0.518  14.292  12.297
75862W        W42271  12.842  39.566  11.627
75863W        W42272  28.126  11.158   4.593
75864W        W42273  37.642  41.549  12.495
75865W        W42274  14.557  14.522   1.618
75866W        W42275   8.799  20.805   4.564
75867W        W42276  33.309  19.495  12.503
75868W        W42277  21.102   8.698   1.710
75869W        W42278  29.883  18.153   1.488
75870W        W42279   4.198  26.622  11.416
75871W        W42280  26.115  12.622  13.053
75872W        W42281   9.217   7.760  13.036
75873W        W42282  36.344   6.843   0.022
75874W        W42283   6.992  19.454   0.469
75875W        W42284  41.090  16.156  11.706
75876W        W42285  29.699  38.497   2.485
75877W        W42286  15.700   1.968   4.836
75878W        W42287  25.467  26.292  13.103
75879W        W42288  17.951  12.791  11.925
75880W        W42289   0.981   5.681   4.344
75881W        W42290  16.331  38.406   2.668
75882W        W42291   3.317  24.665   3.732
75883W        W42292   9.265  10.232  14.796
75884W        W42293   9.790  17.551  11.965
75885W        W42294  41.280  32.661   2.165
75886W        W42295  34.574  26.024   2.639
75887W        W42296   4.230  28.136  12.441
75888W        W42297   4.233  39.586  14.539
75889W        W42298   2.710  37.691   0.190
75890W        W42299  12.272   2.390   0.714
75891W        W42300  34.027  36.525   2.887
75892W        W42301  14.658   3.679   5.124
75893W        W42302   1.791  16.538   2.722
75894W        W42303  15.130  39.770  14.165
75895W        W42304  38.019  21.201  14.529
75896W        W42305  33.183  20.057   2.289
75897W        W42306  12.801  31.088  12.133
75898W        W42307   1.971  12.670  11.730
75899W        W42308  42.243  42.639   1.919
75900W        W42309   9.133  25.068   0.702
75901W        W42310  21.624  24.027  14.535
75902W        W42311  40.558  18.799  11.186
75903W        W42312  33.493  41.498   2.502
75904W        W42313  35.291  33.580  11.622
75905W        W42314  37.369  21.198   0.725
75906W        W42315   5.181  44.722  11.961
75907W        W42316  11.547   8.175   2.799
75908W        W42317   8.930  14.006   3.829
75909W        W42318   2.661  15.578   1.339
75910W        W42319  17.785  41.970   1.655
75911W        W42320   0.289  33.063  12.072
75912W        W42321  21.872   6.946   2.301
75913W        W42322  11.301  26.699   1.929
75914W        W42323  22.016  39.138   1.306
75915W        W42324  27.048  30.958  10.735
75916W        W42325  11.635  23.915   2.937
75917W        W42326  43.759  32.450  11.422
75918W        W42327  38.891  18.272  12.941
75919W        W42328  10.398  38.330  11.927
75920W        W42329  23.193   4.590   1.630
75921W        W42330   2.902  34.114  13.872
75922W        W42331  25.638  13.841   0.756
75923W        W42332  29.462  22.218   2.156
75924W        W42333  31.179   4.484  12.377
75925W        W42334  13.691   0.607  12.777
75926W        W42335  14.246  20.019   0.266
75927W        W42336  17.384  36.792   4.715
75928W        W42337   2.151   0.968   0.678
75929W        W42338  14.814   3.360   5.506
75930W        W42339  18.528  16.857   4.752
75931W        W42340   5.077  18.226   3.838
75932W        W42341   8.316  21.574  10.578
75933W        W42342   9.134  17.136  10.711
75934W        W42343  12.282  38.253  11.223
75935W        W42344  24.918  15.758  13.811
75936W        W42345  14.243  30.817  14.039
75937W        W42346  14.776  11.052  11.916
75938W        W42347  20.733  35.634  13.052
75939W        W42348  40.204  26.557   0.223
75940W        W42349  33.858  40.328  12.051
75941W        W42350   9.611  17.140   1.904
75942W        W42351   1.532  13.755  11.029
75943W        W42352  27.666   0.433  12.045
75944W        W42353  29.624  14.304  10.372
75945W        W42354  36.533  36.529   2.061
75946W        W42355  17.099  10.381   1.730
75947W        W42356  20.743  31.819  14.323
75948W        W42357  14.573  41.818  10.601
75949W        W42358  13.377  34.024   4.743
75950W        W42359  43.419  33.155  13.981
75951W        W42360   3.976  31.115   2.220
75952W        W42361  33.328  44.379  10.155
75953W        W42362  14.050  29.223   1.105
75954W        W42363   6.723   5.725   2.341
75955W        W42364  36.834  19.292   0.980
75956W        W42365   4.833  33.317   4.525
75957W        W42366   2.436  26.210  13.576
75958W        W42367  35.514  16.062  14.271
75959W        W42368  31.185  40.960  12.094
75960W        W42369   6.954  13.236   3.269
75961W        W42370   4.772  16.107  14.812
75962W        W42371  32.001  11.323   4.465
75963W        W42372  38.923  13.789   4.504
75964W        W42373   0.767  38.410  14.290
75965W        W42374   3.310  18.595  12.415
75966W        W42375  28.635  13.604  10.747
75967W        W42376   9.242  18.505   3.649
75968W        W42377  40.986  28.554  14.350
75969W        W42378  11.111   5.511  13.479
75970W        W42379  17.606  21.588   3.355
75971W        W42380  34.393  41.475   1.915
75972W        W42381  38.700  19.754  14.366
75973W        W42382  39.194  11.319   3.826
75974W        W42383  37.764   1.342   0.807
75975W        W42384   6.345  33.533   1.000
75976W        W42385  15.323  11.305   1.680
75977W        W42386   8.908  11.321   4.351
75978W        W42387  33.305  16.228  14.253
75979W        W42388  16.800  27.728   3.168
75980W        W42389   6.212  24.476  13.976
75981W        W42390  13.847   8.307  12.050
75982W        W42391  32.820   5.180   0.673
75983W        W42392  13.300  25.995  14.331
75984W        W42393  13.466  37.892  14.972
75985W        W42394   8.084  24.026   2.687
75986W        W42395  25.814  12.674  13.492
75987W        W42396  42.338  17.711   3.863
75988W        W42397  39.407  42.898   3.176
75989W        W42398   4.005   5.806  10.322
75990W        W42399   2.054  33.385   2.692
75991W        W42400   7.316  34.338  10.654
75992W        W42401  12.691   3.250   4.803
75993W        W42402  29.633  26.877  13.475
75994W        W42403  12.261   8.380   0.347
75995W        W42404  38.981   9.586  10.886
75996W        W42405   0.100  42.392   2.724
75997W        W42406  33.629  19.577  12.057
75998W        W42407  14.063  14.787  11.232
75999W        W42408  24.633  23.589   3.294
76000W        W42409  23.421  21.989   2.150
76001W        W42410  21.842  35.500  14.359
76002W        W42411  29.017  13.923  10.905
76003W        W42412  32.096  24.947   3.787
76004W        W42413  26.148  30.769   2.880
76005W        W42414  32.357  23.621  10.350
76006W        W42415   4.792  28.592  13.922
76007W        W42416  43.259  42.812   0.915
76008W        W42417   1.371   3.946  13.011
76009W        W42418   0.968   7.326   1.790
76010W        W42419  41.211  15.618  13.028
76011W        W42420  10.965  30.987  12.462
76012W        W42421  35.351  28.989   3.300
76013W        W42422  37.519  40.882   4.279
76014W        W42423  17.018   6.733   1.793
76015W        W42424  30.329  25.315   3.178
76016W        W42425  29.820   1.002   1.349
76017W        W42426  33.716  19.470   0.876
76018W        W42427   0.153  14.883  13.449
76019W        W42428  40.526  16.248  13.926
76020W        W42429  27.994  27.043   1.907
76021W        W42430  29.463  22.676  10.271
76022W        W42431  18.221  17.868  13.536
76023W        W42432  29.704   9.692   0.144
76024W        W42433   2.788  17.552  11.361
76025W        W42434  10.743  38.066  14.008
76026W        W42435  16.862  43.063  14.871
76027W        W42436  36.577  18.603  11.715
76028W        W42437  18.077  11.731   3.643
76029W        W42438  21.645  38.487  13.559
76030W        W42439   7.256  10.452  11.370
76031W        W42440  14.748  17.044   0.021
76032W        W42441  27.379  20.503  14.021
76033W        W42442  30.041  37.756  11.580
76034W        W42443  37.992  24.334   2.710
76035W        W42444   4.325  44.330  13.262
76036W        W42445  37.460  31.549  14.750
76037W        W42446  36.094  25.512  13.077
76038W        W42447  38.410   3.369  12.821
76039W        W42448  15.745   3.294   3.497
76040W        W42449  34.320  43.767  14.748
76041W        W42450   7.851   7.206   4.541
76042W        W42451  11.910   0.836  11.341
76043W        W42452  28.198  18.312   4.210
76044W        W42453  42.326  32.948  12.474
76045W        W42454  14.369   7.767   1.779
76046W        W42455   4.340  37.856   4.022
76047W        W42456  17.235  17.350  11.198
76048W        W42457  30.550  22.305  14.048
76049W        W42458  19.687  30.377  14.070
76050W        W42459  34.568  34.543  13.738
76051W        W42460  21.360   8.817   1.275
76052W        W42461  13.812  21.668   2.334
76053W        W42462  38.171  21.852   1.806
76054W        W42463  29.429   3.501   0.511
76055W        W42464  35.087   9.298   1.842
76056W        W42465   1.367  22.912   1.704
76057W        W42466  37.597  40.464   0.809
76058W        W42467  35.021  34.347   4.730
76059W        W42468  18.336   9.605  13.021
76060W        W42469  29.104  26.465   0.200
76061W        W42470  15.103  16.783   4.267
76062W        W42471  40.121  30.147   4.491
76063W        W42472  36.399   6.150  13.127
76064W        W42473  15.256  29.537  12.983
76065W        W42474  14.117   3.242  12.513
76066W        W42475  18.142  21.836  14.349
76067W        W42476  40.485  19.057   3.164
76068W        W42477  25.502  24.038   0.752
76069W        W42478  22.756   1.402   1.309
76070W        W42479   3.049  43.327   1.768
76071W        W42480  17.102  33.455  12.524
76072W        W42481  32.623   5.489   0.297
76073W        W42482  17.483  16.112   3.459
76074W        W42483   8.602  14.862   3.030
76075W        W42484  34.032  36.066  12.293
76076W        W42485  33.097  43.890  13.379
76077W        W42486  21.089  30.950  13.159
76078W        W42487  34.467  36.402  11.739
76079W        W42488  35.337  25.068   5.140
76080W        W42489  10.958  28.919   0.528
76081W        W42490  34.285  21.573  11.725
76082W        W42491  23.236  32.266   4.516
76083W        W42492  30.766  22.159   1.770
76084W        W42493  23.726  24.632  12.616
76085W        W42494  13.419  38.830   0.931
76086W        W42495  39.951   5.826   4.476
76087W        W42496  33.689   9.304   4.238
76088W        W42497   8.832  21.179  13.888
76089W        W42498  27.162  16.766  11.557
76090W        W42499  38.400   8.415   4.081
76091W        W42500  34.704  37.997  11.002
76092W        W42501  32.910   1.481   1.295
76093W        W42502  15.128  43.001   2.754
76094W        W42503  17.845  32.495   0.760
76095W        W42504  32.814   1.992   3.342
76096W        W42505  29.606   0.044  14.301
76097W        W42506   7.752   1.256   0.506
76098W        W42507  17.267  44.293   0.388
76099W        W42508  29.129  44.737  13.397
76100W        W42509  23.676  30.648  13.308
76101W        W42510  39.958  32.622  12.910
76102W        W42511  28.644  12.451   4.542
76103W        W42512   2.883  32.432  12.085
76104W        W42513  41.692  33.615  11.923
76105W        W42514  27.926  35.495   0.747
76106W        W42515  14.260  24.633   1.046
76107W        W42516  37.575  36.990   1.340
76108W        W42517  19.476  30.136   1.429
76109W        W42518   6.663  33.801   4.998
76110W        W42519  18.463  30.412   4.252
76111W        W42520  28.004  18.035   4.729
76112W        W42521  15.082  30.433   1.289
76113W        W42522  32.226  24.097   4.391
76114W        W42523   6.090  39.777  12.805
76115W        W42524   9.832   6.431   3.355
76116W        W42525  36.912  31.956  12.952
76117W        W42526  44.425  30.582  14.157
76118W        W42527   0.362  17.651   1.685
76119W        W42528   4.760  20.170   4.559
76120W        W42529   6.124  30.217  14.851
76121W        W42530   9.152   1.463  14.263
76122W        W42531  18.727  22.532   2.395
76123W        W42532  10.681   6.449   0.955
76124W        W42533   5.935  30.873   4.212
76125W        W42534  11.200  10.477  10.701
76126W        W42535  43.413  12.845   1.510
76127W        W42536  20.350  34.026  10.630
76128W        W42537  11.616   2.312   4.530
76129W        W42538  38.360   3.930   0.100
76130W        W42539  18.798  43.270  11.050
76131W        W42540  26.445   4.641  14.081
76132W        W42541  28.779  37.334  11.661
76133W        W42542  26.741   0.992  11.422
76134W        W42543  43.894  14.718   3.582
76135W        W42544  32.514  27.753   3.157
76136W        W42545  17.969   6.825   4.134
76137W        W42546   2.034  15.652  12.032
76138W        W42547  37.375   9.484  13.829
76139W        W42548  34.474   7.663   3.593
76140W        W42549  21.319   4.183  11.105
76141W        W42550  15.548  23.401   5.364
76142W        W42551   9.314  27.324   4.986
76143W        W42552   3.344  34.334  12.072
76144W        W42553  39.801  13.640  14.716
76145W        W42554  34.006  21.687   3.235
76146W        W42555  30.158  32.053  14.016
76147W        W42556  13.157  30.955  13.907
76148W        W42557  12.181  15.980  12.375
76149W        W42558   8.532   7.738   2.866
76150W        W42559  12.636  10.367   2.087
76151W        W42560  24.043  33.313   1.676
76152W        W42561   7.364  11.361  11.610
76153W        W42562   8.000   7.400   0.468
76154W        W42563   6.174  15.090  11.194
76155W        W42564  27.900  10.182  14.855
76156W        W42565  33.969  25.789   4.338
76157W        W42566  10.226  32.910  11.798
76158W        W42567  27.962   7.866  11.059
76159W        W42568  38.967  21.042   4.212
76160W        W42569   1.858  28.187   4.142
76161W        W42570   8.241  24.928  11.314
76162W        W42571  38.572  21.290   2.899
76163W        W42572  34.393   5.869  10.180
76164W        W42573  13.707  13.605  13.915
76165W        W42574  26.716   4.872  14.993
76166W        W42575   2.955  27.478  11.692
76167W        W42576   5.219  41.399  11.693
76168W        W42577  15.280   7.794  14.933
76169W        W42578  13.359  36.661   4.345
76170W        W42579   5.791  14.527   2.726
76171W        W42580  41.834  32.428   3.302
76172W        W42581  22.779  37.754   2.536
76173W        W42582   6.719   2.814  10.912
76174W        W42583  10.570  42.493  11.062
76175W        W42584  31.804  12.703  11.162
76176W        W42585   4.313  19.216   1.872
76177W        W42586  26.947  21.730  10.145
76178W        W42587  16.955  44.129   4.863
76179W        W42588  11.293  15.555   0.223
76180W        W42589  13.238   3.117   4.058
76181W        W42590  39.049  38.207   1.783
76182W        W42591  41.495  36.569   3.412
76183W        W42592  19.054  34.051   4.493
76184W        W42593  44.737   3.725   2.306
76185W        W42594   0.747  28.251   4.624
76186W        W42595  36.152  36.474  14.754
76187W        W42596   3.840  25.467   1.727
76188W        W42597  19.319  39.707  13.315
76189W        W42598   5.914  21.975   2.262
76190W        W42599  10.102  44.028  11.973
76191W        W42600  36.943  39.991   3.176
76192W        W42601   2.465   9.647   2.147
76193W        W42602  15.366  32.825   2.165
76194W        W42603  11.308  40.646  12.516
76195W        W42604  16.630  27.727  12.748
76196W        W42605  20.207   1.251   4.479
76197W        W42606  26.493  15.510  10.850
76198W        W42607  19.282   3.881  12.657
76199W        W42608  43.907  25.329  13.485
76200W        W42609  18.724  14.109   4.987
76201W        W42610  32.220  22.092  14.494
76202W        W42611  17.230  28.854   2.066
76203W        W42612  24.614  30.811  11.412
76204W        W42613  24.519  40.810  12.976
76205W        W42614  31.541  40.442   1.732
76206W        W42615   7.646  25.669   5.458
76207W        W42616  17.668  31.642   3.615
76208W        W42617  43.283  31.925   0.312
76209W        W42618  20.669  33.471   2.495
76210W        W42619  39.551  14.270   2.798
76211W        W42620  44.389  25.985   0.036
76212W        W42621   4.416  30.922  13.614
76213W        W42622  12.838  20.179  11.055
76214W        W42623  31.996  31.969   0.027
76215W        W42624  33.317  29.014   3.212
76216W        W42625   7.493  44.758  11.620
76217W        W42626   8.924   5.399  10.634
76218W        W42627   7.081  24.510  11.156
76219W        W42628  20.533  38.387  13.008
76220W        W42629   2.742  30.081  12.846
76221W        W42630  33.126  14.778  11.772
76222W        W42631   4.498  40.394   4.215
76223W        W42632  35.924  17.298  10.357
76224W        W42633  41.345  31.619   2.378
76225W        W42634  37.546  33.188  13.911
76226W        W42635  26.223   5.263   2.186
76227W        W42636  32.143   4.844   2.715
76228W        W42637  40.279  33.594   1.850
76229W        W42638  44.013  19.242   5.043
76230W        W42639  25.448  32.552   4.153
76231W        W42640  21.857  37.542  11.059
76232W        W42641   0.941  20.966  10.609
76233W        W42642   9.117  10.837  13.535
76234W        W42643   2.770  42.950  13.513
76235W        W42644  30.181  38.880   2.648
76236W        W42645  19.593  21.515   4.326
76237W        W42646  21.596  17.521  12.494
76238W        W42647  42.733  38.829   3.914
76239W        W42648  11.159  34.947   3.077
76240W        W42649   0.966  35.419   0.446
76241W        W42650  15.492   6.278  14.079
76242W        W42651  42.782   3.515  10.371
76243W        W42652  23.126   1.394  11.718
76244W        W42653   3.950  37.615   3.764
76245W        W42654  30.073  44.376   4.807
76246W        W42655   5.966  38.950  12.578
76247W        W42656  20.029  44.499   0.905
76248W        W42657  40.105   1.331   1.250
76249W        W42658  25.364  31.964  12.212
76250W        W42659   6.472  28.405  13.478
76251W        W42660  13.694  40.105  11.051
76252W        W42661  10.756  42.878  14.688
76253W        W42662  18.000  21.782   1.369
76254W        W42663  21.797  18.527   3.821
76255W        W42664  21.322  26.862  10.465
76256W        W42665  31.347  43.813   0.229
76257W        W42666   0.418  13.225  11.373
76258W        W42667  17.240  18.257  14.001
76259W        W42668  32.862  10.511   3.301
76260W        W42669  10.104  26.252  11.010
76261W        W42670  11.594  20.450  11.119
76262W        W42671  18.703   0.482  11.608
76263W        W42672   2.008  31.830   1.345
76264W        W42673  34.114  19.552   1.695
76265W        W42674  17.794   7.223  12.937
76266W        W42675  31.874  38.378  12.303
76267W        W42676  31.633  21.000   4.113
76268W        W42677  38.787   4.323   2.722
76269W        W42678  19.408  28.007   2.275
76270W        W42679  33.358  22.027  10.593
76271W        W42680  36.441  21.726   1.418
76272W        W42681  34.044  21.328   0.509
76273W        W42682  13.200  10.161  12.071
76274W        W42683   2.449  17.087   2.785
76275W        W42684   0.288  16.394  13.368
76276W        W42685  22.652  19.981  11.750
76277W        W42686   4.619   1.789  11.602
76278W        W42687   2.315  26.938   0.051
76279W        W42688  17.142   3.368   0.320
76280W        W42689  44.340   4.105   4.191
76281W        W42690  27.090   5.228   3.344
76282W        W42691  14.806  18.222   1.477
76283W        W42692   7.383   4.370   2.895
76284W        W42693  30.551  24.257  14.525
76285W        W42694  10.700   8.679   4.547
76286W        W42695  18.755   7.138  12.625
76287W        W42696  25.994  13.457   3.210
76288W        W42697  24.560  30.064   2.077
76289W        W42698   3.976  35.946  11.630
76290W        W42699  40.083  10.005   1.424
76291W        W42700  11.345  13.699  12.772
76292W        W42701  32.648  36.981   1.166
76293W        W42702  12.102  14.623  13.185
76294W        W42703  29.141   7.597  10.694
76295W        W42704  25.259  10.889   0.958
76296W        W42705  23.152   8.584  10.482
76297W        W42706  15.724  44.965   1.640
76298W        W42707   0.872  17.120   1.945
76299W        W42708   8.074  22.085   0.872
76300W        W42709  34.965   3.782   2.307
76301W        W42710  24.572  26.093  13.698
76302W        W42711  13.212  44.695   9.746
76303W        W42712  20.115   0.518  14.834
76304W        W42713  20.621  33.927   2.173
76305W        W42714  27.470  41.396  13.028
76306W        W42715   9.207  43.680  11.132
76307W        W42716  44.497  37.043  13.837
76308W        W42717  27.683  40.922   4.085
76309W        W42718  42.380  12.209   3.594
76310W        W42719  20.167  30.195   3.845
76311W        W42720  15.281  30.904  10.736
76312W        W42721  14.189  15.507   4.572
76313W        W42722  26.291  36.440   1.793
76314W        W42723   3.843   5.593   0.243
76315W        W42724   9.148  44.127  10.872
76316W        W42725  16.095   4.041  11.958
76317W        W42726   6.274   0.293   3.956
76318W        W42727  33.791  11.374   2.769
76319W        W42728   5.824  31.577   3.758
76320W        W42729  40.578  28.449  13.138
76321W        W42730  18.027  27.605   4.701
76322W        W42731  38.048  28.580   0.944
76323W        W42732  35.571   6.382  12.591
76324W        W42733  36.341  44.939   0.164
76325W        W42734  35.787  24.034  13.051
76326W        W42735  26.868  30.527   1.747
76327W        W42736  25.997  36.402   4.320
76328W        W42737  27.914  36.874  11.651
76329W        W42738  12.837  14.799  14.849
76330W        W42739  25.045  29.952   4.617
76331W        W42740  13.872  17.050  13.527
76332W        W42741  30.316  16.935  12.097
76333W        W42742   8.451  28.434  11.181
76334W        W42743  33.832  29.538   1.758
76335W        W42744  41.944   2.024  13.324
76336W        W42745   5.190  33.927   0.051
76337W        W42746  36.634  18.640  11.193
76338W        W42747  33.127  42.016  12.659
76339W        W42748  33.293  39.841   4.394
76340W        W42749  23.810  13.219   4.555
76341W        W42750   6.628  39.598   3.181
76342W        W42751   6.184  14.579  12.953
76343W        W42752  15.069  28.638   1.689
76344W        W42753   2.251  28.388   1.305
76345W        W42754   9.402  33.638  14.416
76346W        W42755  18.880   4.879   3.696
76347W        W42756  26.542  17.300  11.851
76348W        W42757  20.043  15.705  11.197
76349W        W42758   3.360  17.855  13.011
76350W        W42759  43.391  31.185   4.800
76351W        W42760  36.973  21.490   0.194
76352W        W42761  17.243   2.339   0.290
76353W        W42762   6.976  21.556  11.420
76354W        W42763  24.318  17.177  12.508
76355W        W42764   6.124  44.834  14.328
76356W        W42765  41.327   3.885  13.592
76357W        W42766  41.988  39.986  12.820
76358W        W42767   1.408  41.977   0.704
76359W        W42768  20.296   6.881   4.168
76360W        W42769   0.215  44.517  14.567
76361W        W42770  33.247  29.670   4.485
76362W        W42771  38.096  38.050   3.034
76363W        W42772  43.479   0.982   2.899
76364W        W42773   3.861  16.319   3.617
76365W        W42774  11.691   5.797  10.814
76366W        W42775  42.831  28.984   2.784
76367W        W42776  17.712  36.987   0.753
76368W        W42777  11.109  21.031   0.298
76369W        W42778  17.306  17.808   0.039
76370W        W42779  19.037  10.557   9.785
76371W        W42780  35.094   1.006   4.232
76372W        W42781  23.249   5.167   0.203
76373W        W42782  25.783  27.911  12.426
76374W        W42783   9.625  13.111   1.438
76375W        W42784  26.465  44.821  10.977
76376W        W42785  28.664  44.810  11.529
76377W        W42786  34.477   8.651   1.481
76378W        W42787  40.525  20.083  12.248
76379W        W42788  28.647  12.565  13.176
76380W        W42789   9.201   9.865  14.352
76381W        W42790  42.638  21.198   1.408
76382W        W42791  11.229  43.977  10.123
76383W        W42792  14.723  34.460  11.727
76384W        W42793  39.530   6.339  13.484
76385W        W42794  37.545   2.906   0.756
76386W        W42795  28.443  30.213  12.548
76387W        W42796   7.364  42.601   4.533
76388W        W42797   6.101  10.390   1.437
76389W        W42798  14.192  30.952  13.532
76390W        W42799  16.654  42.947  10.054
76391W        W42800  13.832  13.320  13.485
76392W        W42801  12.335  38.349   4.290
76393W        W42802  41.465  14.089  13.797
76394W        W42803  35.121  39.085  13.609
76395W        W42804  39.653   8.894  13.467
76396W        W42805  38.887  34.102  10.631
76397W        W42806   7.433  24.329  11.562
76398W        W42807  21.145  24.785   3.224
76399W        W42808   2.510  29.154   1.873
76400W        W42809  10.817  22.521   0.880
76401W        W42810   3.917   7.353   3.266
76402W        W42811   5.769  19.515  12.931
76403W        W42812  39.825  13.818  12.596
76404W        W42813  21.914  32.589   2.725
76405W        W42814  38.365   2.948   1.223
76406W        W42815  16.259   3.231   4.189
76407W        W42816   7.270  35.507   2.427
76408W        W42817  40.287   3.134  12.096
76409W        W42818  10.645   7.474   1.025
76410W        W42819  13.742   9.946   1.664
76411W        W42820  15.824   7.577   0.616
76412W        W42821  10.381  22.737  11.362
76413W        W42822  44.378  35.930   4.928
76414W        W42823  26.878  27.024  11.540
76415W        W42824   1.172  23.490  12.114
76416W        W42825  34.447  15.061   3.721
76417W        W42826  42.229   0.516   1.723
76418W        W42827  35.823  37.314   4.036
76419W        W42828  38.947  36.445   5.327
76420W        W42829  36.583  14.701  11.539
76421W        W42830  20.516  11.083  14.724
76422W        W42831   9.323  33.917   2.867
76423W        W42832  27.251   3.881  12.570
76424W        W42833  21.653  36.598   4.689
76425W        W42834  29.913   4.644   0.816
76426W        W42835   8.172  37.858   0.731
76427W        W42836   5.013  24.487  12.177
76428W        W42837  24.522  34.462  13.303
76429W        W42838   9.909  33.508  14.358
76430W        W42839  28.195   0.809   3.602
76431W        W42840  15.069  17.114   2.694
76432W        W42841  44.733  30.013   4.597
76433W        W42842  16.705  18.936   4.169
76434W        W42843  21.670  28.665  11.432
76435W        W42844  18.125  28.008  13.769
76436W        W42845  41.252  27.653   4.879
76437W        W42846   9.773   0.738  14.963
76438W        W42847   3.642  26.979  10.334
76439W        W42848  10.310   2.840   0.713
76440W        W42849  19.396  32.343   4.693
76441W        W42850   4.666  34.445   3.171
76442W        W42851  26.686  11.972  13.342
76443W        W42852  35.512  32.890   2.810
76444W        W42853  27.090  44.956   4.371
76445W        W42854  18.037  15.344  11.648
76446W        W42855  13.019  34.854   1.133
76447W        W42856   8.558   8.087   3.257
76448W        W42857  20.161  39.034   0.097
76449W        W42858   2.868  44.606   2.241
76450W        W42859  29.861  33.092   2.421
76451W        W42860  32.020   6.975   4.482
76452W        W42861  20.600   8.805   0.695
76453W        W42862  27.898  17.368   4.022
76454W        W42863  39.986  33.075   0.213
76455W        W42864   1.960  27.902  12.475
76456W        W42865  14.596   5.885   2.525
76457W        W42866  33.927  20.525  14.134
76458W        W42867  19.534  24.137  14.743
76459W        W42868   6.217  21.634  13.292
76460W        W42869   7.947  20.762   4.191
76461W        W42870  33.177  34.981   0.536
76462W        W42871  37.722  23.616   1.189
76463W        W42872   3.997  20.638  11.244
76464W        W42873  11.596  39.283   4.114
76465W        W42874  16.262  21.930  10.840
76466W        W42875  37.502   1.931  10.235
76467W        W42876   0.852  12.078   4.150
76468W        W42877  16.802  16.520  11.166
76469W        W42878  40.441   2.836  10.787
76470W        W42879  26.939  12.075  14.769
76471W        W42880  38.309  16.626   0.511
76472W        W42881  37.885  43.952   2.271
76473W        W42882  22.059  13.896  13.993
76474W        W42883  24.117  18.777  13.840
76475W        W42884  35.772  12.119   3.067
76476W        W42885  39.094   8.166  14.976
76477W        W42886  38.590  34.969   1.408
76478W        W42887  26.498   1.578  14.896
76479W        W42888  33.499  25.282  10.062
76480W        W42889  33.612   8.883  11.868
76481W        W42890   7.294  38.582  11.446
76482W        W42891  39.940  15.327   0.549
76483W        W42892  42.952  25.187   1.641
76484W        W42893  24.318  12.269   0.014
76485W        W42894  31.077   8.422   5.859
76486W        W42895   1.814  15.809   4.907
76487W        W42896   5.465  26.484   1.439
76488W        W42897  26.674  20.698  11.963
76489W        W42898  23.521   9.136  11.559
76490W        W42899  17.591  13.665   2.298
76491W        W42900   3.447  25.367   3.100
76492W        W42901  35.375   9.788  14.829
76493W        W42902  19.152   5.355  13.897
76494W        W42903  34.293  44.338   1.813
76495W        W42904   0.963   2.192  12.524
76496W        W42905  18.688   7.190  13.978
76497W        W42906  41.750   5.823   3.049
76498W        W42907  33.848  29.918   2.188
76499W        W42908  38.936  38.810  13.803
76500W        W42909   5.765  42.715   0.368
76501W        W42910  42.988  29.974   2.514
76502W        W42911  36.871  40.225  13.171
76503W        W42912  15.351  41.515  13.369
76504W        W42913  29.499   6.943  13.808
76505W        W42914  12.346  38.307  12.532
76506W        W42915  11.943  36.595  11.379
76507W        W42916  41.112  28.040  14.343
76508W        W42917  26.504  26.942   0.716
76509W        W42918  26.428  14.651  11.108
76510W        W42919   4.338  37.435   2.585
76511W        W42920  33.024  42.140  11.780
76512W        W42921  24.231  43.042  12.698
76513W        W42922  43.869   9.583  12.998
76514W        W42923  41.753  31.449   3.264
76515W        W42924  21.186  37.184  12.363
76516W        W42925   5.002   8.518   4.098
76517W        W42926  22.449   7.644   0.374
76518W        W42927  14.138   4.317  13.282
76519W        W42928  18.168  42.020   0.031
76520W        W42929  44.842   8.154   3.225
76521W        W42930  40.279  36.956   3.305
76522W        W42931  14.775  44.041   1.412
76523W        W42932  28.083  22.435   3.813
76524W        W42933  33.485  35.909   4.680
76525W        W42934  36.350  13.550   2.226
76526W        W42935   7.619  10.886  12.140
76527W        W42936   4.247  36.612   1.179
76528W        W42937  20.165  42.363  10.628
76529W        W42938  17.551   8.343   0.226
76530W        W42939   2.362  10.301  14.875
76531W        W42940  28.986   8.397  11.971
76532W        W42941  36.477  19.773   3.124
76533W        W42942  16.351   8.117  14.849
76534W        W42943  26.168   1.453   3.410
76535W        W42944  25.387  17.128   0.254
76536W        W42945  25.910  13.396  14.510
76537W        W42946  31.992  23.069  14.580
76538W        W42947  39.818  18.422   2.311
76539W        W42948  15.302  19.226  13.489
76540W        W42949   2.788  23.074  12.651
76541W        W42950  28.942   8.676   1.797
76542W        W42951  28.540  14.516  11.967
76543W        W42952  42.970  42.843   2.303
76544W        W42953   9.768  23.140   4.410
76545W        W42954  37.458  26.007   4.276
76546W        W42955  39.843   6.150   4.880
76547W        W42956  39.457   7.416  11.009
76548W        W42957  26.807  26.623   1.372
76549W        W42958  14.642   1.495   3.159
76550W        W42959  28.641  36.095   0.800
76551W        W42960  28.912  35.582  13.063
76552W        W42961   2.518  42.502  13.316
76553W        W42962  19.581  19.072   0.345
76554W        W42963  34.186   6.145   2.052
76555W        W42964   3.346  42.923   5.047
76556W        W42965  43.458  34.771   4.764
76557W        W42966  38.612  25.964  11.201
76558W        W42967  17.811  29.214   0.226
76559W        W42968  23.568   8.321  13.362
76560W        W42969  18.247  44.716   3.664
76561W        W42970   4.494  35.530   4.532
76562W        W42971  30.860   3.448   0.116
76563W        W42972   8.117  16.573   1.272
76564W        W42973  39.660  12.753   2.121
76565W        W42974  21.563   0.468   0.857
76566W        W42975  14.148  36.750   2.398
76567W        W42976  33.145  24.528  13.466
76568W        W42977  33.889   6.431  13.314
76569W        W42978  16.712  36.856  14.131
76570W        W42979   1.067  30.585   0.305
76571W        W42980  34.417  33.400  10.627
76572W        W42981  26.512   8.515   1.264
76573W        W42982  27.900  39.566   0.856
76574W        W42983  27.393  21.739   5.518
76575W        W42984   1.767  40.466  13.007
76576W        W42985  11.853  42.833   1.480
76577W        W42986   0.062  32.585   2.567
76578W        W42987  15.022  21.353  12.065
76579W        W42988  34.089  11.220  11.156
76580W        W42989  40.720  40.333  12.101
76581W        W42990   6.666   7.908  12.426
76582W        W42991   9.733  23.455   1.273
76583W        W42992  40.687  33.114  13.465
76584W        W42993   4.888  37.296   1.834
76585W        W42994   7.206  32.367   2.266
76586W        W42995  15.208  29.695  14.784
76587W        W42996  36.595   0.692   4.889
76588W        W42997  34.075  21.890  13.519
76589W        W42998  18.730  44.989  10.685
76590W        W42999  25.492   1.342  11.154
76591W        W43000  13.689  18.980   3.182
76592W        W43001  43.976  29.631   3.857
76593W        W43002  13.081  12.196   3.281
76594W        W43003  41.712  25.951  11.501
76595W        W43004  36.461  34.112  11.490
76596W        W43005  29.722   6.952   2.222
76597W        W43006  40.903  29.320  12.610
76598W        W43007  18.093  25.424   4.131
76599W        W43008  41.478  24.897  13.583
76600W        W43009  28.905  25.090  10.789
76601W        W43010  22.104   7.865  13.899
76602W        W43011   3.477   7.445  14.285
76603W        W43012   8.600   7.902   0.058
76604W        W43013  28.459  25.370   0.781
76605W        W43014  30.106  37.431   4.357
76606W        W43015  20.420  30.339  13.571
76607W        W43016  17.683  32.242  12.824
76608W        W43017  31.102  20.840   4.501
76609W        W43018  36.954   5.907  12.946
76610W        W43019  13.640   2.822   0.480
76611W        W43020   1.501   2.353  14.170
76612W        W43021  40.498  12.889   0.887
76613W        W43022  26.853  14.943   0.354
76614W        W43023  24.033  41.067   2.713
76615W        W43024  36.128  22.369   2.680
76616W        W43025   3.458  24.888   3.296
76617W        W43026  25.031  40.836   1.338
76618W        W43027   6.304  11.766   1.647
76619W        W43028  13.345  39.399  10.724
76620W        W43029  13.111  22.534   0.171
76621W        W43030   9.156  32.547  11.601
76622W        W43031  27.669   2.905   4.540
76623W        W43032  23.422  20.020   4.741
76624W        W43033  24.278   3.965  12.732
76625W        W43034   4.669  22.732  14.977
76626W        W43035   1.972  11.340   2.802
76627W        W43036  41.362  19.986  12.964
76628W        W43037  21.459  14.423  11.110
76629W        W43038   1.401  41.249  13.974
76630W        W43039   4.781  40.789  13.135
76631W        W43040   1.702  23.672  13.079
76632W        W43041   9.918  13.668   3.098
76633W        W43042   0.505  18.127  13.951
76634W        W43043   6.925  35.473   1.739
76635W        W43044  25.022  35.108  13.726
76636W        W43045   8.433   0.476  12.533
76637W        W43046  27.951   5.308   1.898
76638W        W43047   6.463  14.146  13.051
76639W        W43048  14.508  31.552   3.671
76640W        W43049  10.997  14.886  13.541
76641W        W43050  37.590  44.548   4.955
76642W        W43051  24.590   2.635   3.704
76643W        W43052  34.004  34.627   2.452
76644W        W43053  31.495  42.220   4.593
76645W        W43054  43.271  18.488  14.851
76646W        W43055  40.378  44.362  13.111
76647W        W43056  36.321  44.927  12.415
76648W        W43057   4.378  18.180   4.438
76649W        W43058   9.145   9.940   1.890
76650W        W43059  38.286  35.820   3.285
76651W        W43060  14.709  18.632   1.175
76652W        W43061  43.935  13.685   2.668
76653W        W43062  10.653  28.664  11.507
76654W        W43063  21.603  10.482   1.673
76655W        W43064  32.333  12.202   3.774
76656W        W43065  22.254  10.482   0.083
76657W        W43066  23.247  19.046   4.754
76658W        W43067  13.785  14.572  13.006
76659W        W43068  28.454   3.791  11.819
76660W        W43069  41.961   4.432   1.438
76661W        W43070  33.315  18.919  13.759
76662W        W43071   4.955  42.980   3.106
76663W        W43072   8.471  14.496  14.756
76664W        W43073  31.704  43.279  12.591
76665W        W43074   1.224  39.769  13.943
76666W        W43075  38.382  28.023  11.692
76667W        W43076   3.714   2.388  12.038
76668W        W43077  36.435  41.449  14.182
76669W        W43078  28.009  39.985   1.318
76670W        W43079   5.011   1.298   3.321
76671W        W43080  20.732   8.407  14.630
76672W        W43081   9.178   2.829   2.861
76673W        W43082  33.092  41.486   9.818
76674W        W43083  13.227   5.078   4.989
76675W        W43084  39.271  17.120   1.374
76676W        W43085  11.935   7.246  13.104
76677W        W43086  35.956  16.785  14.821
76678W        W43087  29.168   1.433   3.351
76679W        W43088   5.883  39.430   0.597
76680W        W43089  36.785  25.122  12.617
76681W        W43090  37.060  14.494   3.181
76682W        W43091  35.461  42.296  12.927
76683W        W43092  20.416  29.008   3.150
76684W        W43093  12.329  38.034   1.279
76685W        W43094  11.229  16.759   3.211
76686W        W43095  31.929  20.658   4.409
76687W        W43096  10.425   3.888   4.881
76688W        W43097  33.654   9.836   0.813
76689W        W43098  10.776  31.667  10.173
76690W        W43099  26.538  14.435   0.707
76691W        W43100  44.069  39.232  14.072
76692W        W43101   1.215  19.745  10.845
76693W        W43102  20.679  14.204   3.165
76694W        W43103  40.747   0.195  10.959
76695W        W43104  40.513  14.282   1.861
76696W        W43105  13.737  33.009  13.590
76697W        W43106  12.755  40.302   3.230
76698W        W43107  21.732   7.996   1.638
76699W        W43108  40.240  37.440   2.612
76700W        W43109  16.279  19.005  14.972
76701W        W43110  22.955   8.662  12.014
76702W        W43111  30.537  11.959  11.918
76703W        W43112  20.173   3.526  12.477
76704W        W43113   9.131  12.708   0.195
76705W        W43114  14.253  44.395  13.463
76706W        W43115  33.175  14.800  13.927
76707W        W43116  40.348  27.708  11.090
76708W        W43117  10.642  18.584  13.365
76709W        W43118  33.919  33.005   0.932
76710W        W43119  36.158  34.033   3.163
76711W        W43120   1.892   1.689  11.617
76712W        W43121  37.987   0.541  11.833
76713W        W43122   9.832   6.650  14.715
76714W        W43123  18.693  39.896   0.161
76715W        W43124  41.500  36.455   0.395
76716W        W43125  10.250   0.306   9.811
76717W        W43126   0.446  15.559  12.878
76718W        W43127  25.145  14.673  10.607
76719W        W43128  16.850  43.979   0.452
76720W        W43129   1.677  13.878  12.374
76721W        W43130  14.034  41.309   4.084
76722W        W43131  24.568  32.867   0.387
76723W        W43132   3.480  30.071  13.670
76724W        W43133  31.059  26.518  12.554
76725W        W43134   4.478  28.873  14.964
76726W        W43135  38.868   8.247  14.404
76727W        W43136  42.433  24.715   3.347
76728W        W43137  19.794   6.773   3.081
76729W        W43138  38.473  16.128   5.418
76730W        W43139  22.791   6.871  10.687
76731W        W43140  19.761   8.357  12.967
76732W        W43141  26.543   7.161  11.656
76733W        W43142  21.832  31.697  11.629
76734W        W43143   7.746  27.409   1.754
76735W        W43144  29.180   1.897  13.858
76736W        W43145  29.091  17.693  10.895
76737W        W43146  22.133  26.205  14.098
76738W        W43147  35.476  17.047  13.497
76739W        W43148  35.884  34.163   2.739
76740W        W43149   9.340  31.138   3.062
76741W        W43150  28.022  32.111  10.669
76742W        W43151  42.835  29.628  13.461
76743W        W43152  17.734  43.731  12.050
76744W        W43153  21.725  39.503   4.236
76745W        W43154  22.047  26.690  13.893
76746W        W43155  30.624  23.714  12.560
76747W        W43156  24.677  10.629  12.926
76748W        W43157  43.268   4.306  12.440
76749W        W43158   3.373  23.932   1.814
76750W        W43159  29.916  23.838  10.665
76751W        W43160  37.967  34.682   1.944
76752W        W43161   6.864  16.119   4.664
76753W        W43162  23.889  39.114  14.938
76754W        W43163  25.289  15.671   5.138
76755W        W43164  27.253  23.280  11.139
76756W        W43165  30.544  42.560  12.546
76757W        W43166  30.632  24.611  12.096
76758W        W43167   0.542  27.790   4.147
76759W        W43168  16.627  32.625   0.992
76760W        W43169   7.248  11.524   4.641
76761W        W43170  22.766  32.225  13.547
76762W        W43171  25.654  30.729  13.305
76763W        W43172  12.199  41.071   4.971
76764W        W43173  27.929  39.786  10.725
76765W        W43174  12.170   8.500   3.146
76766W        W43175  28.050  42.313  14.326
76767W        W43176  36.852  43.730  11.616
76768W        W43177  43.893  23.128   2.369
76769W        W43178   0.578  20.134  13.373
76770W        W43179   5.021  19.670   2.664
76771W        W43180  12.746  28.977   1.898
76772W        W43181  22.705  23.020   0.755
76773W        W43182  21.954  12.226   0.380
76774W        W43183  12.316  19.535  12.974
76775W        W43184  28.084  16.777  11.811
76776W        W43185  44.262  10.319   1.566
76777W        W43186  20.330  10.894   2.294
76778W        W43187  43.427  35.768   3.287
76779W        W43188  20.354  25.627  12.828
76780W        W43189  13.348  17.044  13.362
76781W        W43190  21.958  21.160  10.356
76782W        W43191   8.707  11.937  13.805
76783W        W43192  43.050  19.257   0.216
76784W        W43193  33.055  30.401  11.565
76785W        W43194  13.187  29.625   4.895
76786W        W43195  13.839  30.930  14.324
76787W        W43196  14.674  44.236  14.492
76788W        W43197  30.885  11.496  13.132
76789W        W43198  38.695  11.533  11.740
76790W        W43199  26.165   3.440  13.166
76791W        W43200  19.760  44.359   0.478
76792W        W43201  42.261  19.866  13.423
76793W        W43202   9.835  42.964   3.645
76794W        W43203  18.053   0.973   2.193
76795W        W43204  44.970  23.161  12.642
76796W        W43205  33.040  33.688   2.071
76797W        W43206  36.554  16.300   2.942
76798W        W43207  24.977   8.152   2.292
76799W        W43208  26.240  36.444  13.531
76800W        W43209   2.736  40.340  14.883
76801W        W43210  21.007  34.990   5.019
76802W        W43211  30.041  40.918  11.052
76803W        W43212   9.316  14.574  12.209
76804W        W43213  21.456   7.367   3.595
76805W        W43214   4.409  10.792  14.449
76806W        W43215  14.132  33.394  12.435
76807W        W43216  24.673  42.117  14.319
76808W        W43217  34.542  22.943  12.611
76809W        W43218   4.159  21.069  14.778
76810W        W43219  44.717  28.988   3.612
76811W        W43220   8.185  31.165  11.532
76812W        W43221  22.302  39.839  12.877
76813W        W43222  36.383  36.894  14.965
76814W        W43223  26.669  39.616  11.170
76815W        W43224  37.413  44.286  11.912
76816W        W43225  40.397   1.894   4.553
76817W        W43226  36.087  37.418  14.784
76818W        W43227  12.677   8.679   0.549
76819W        W43228  42.478  44.768   3.227
76820W        W43229   0.672  37.434   4.517
76821W        W43230  13.802   2.044  11.528
76822W        W43231  17.774  22.297  13.015
76823W        W43232  17.091  35.826   4.461
76824W        W43233  19.571   9.274   4.674
76825W        W43234  11.596  15.080   3.832
76826W        W43235  18.632  17.436  13.167
76827W        W43236   6.769  41.609   0.281
76828W        W43237  33.328  34.259  14.398
76829W        W43238  13.096  19.756   1.755
76830W        W43239  41.014  38.006  14.238
76831W        W43240   7.465  30.342   2.436
76832W        W43241   8.843  11.862   1.040
76833W        W43242   2.456  21.792  11.116
76834W        W43243  42.738  16.618  14.893
76835W        W43244  39.734  26.026  13.428
76836W        W43245   6.710  39.476   0.796
76837W        W43246  18.392  34.443   0.402
76838W        W43247  40.120  13.091  12.125
76839W        W43248   4.306  37.062  13.983
76840W        W43249  23.161  26.544   0.447
76841W        W43250  29.447  37.365   0.706
76842W        W43251  35.589  16.537  14.512
76843W        W43252  43.822  11.697   2.865
76844W        W43253  14.370  24.962  10.667
76845W        W43254  33.731  42.773  12.189
76846W        W43255  28.580  32.125  11.581
76847W        W43256  30.211  21.234  11.237
76848W        W43257   6.226   9.178  13.093
76849W        W43258  26.026  24.096  14.890
76850W        W43259  42.706   4.324  10.560
76851W        W43260  41.178  23.666  14.448
76852W        W43261  33.104   2.073   4.580
76853W        W43262  31.059  16.639  12.645
76854W        W43263   4.201   7.490  13.949
76855W        W43264  19.782  31.890  11.609
76856W        W43265  39.605  25.575  11.929
76857W        W43266  17.327  32.432   0.642
76858W        W43267  24.633   8.912  11.152
76859W        W43268  24.824  40.589   1.760
76860W        W43269  40.591  40.846   3.372
76861W        W43270  11.345  27.643   2.089
76862W        W43271  44.518  27.531   0.957
76863W        W43272  16.295  10.333   2.348
76864W        W43273   3.243  35.015   0.856
76865W        W43274  39.912  38.574  14.059
76866W        W43275   1.717  15.166   0.847
76867W        W43276   4.779  27.646  11.877
76868W        W43277   0.880  11.614   2.234
76869W        W43278  37.565  37.609  13.968
76870W        W43279  25.981  11.294   0.401
76871W        W43280  42.425  12.348   1.205
76872W        W43281  20.521  41.814   1.249
76873W        W43282  30.989   5.448   3.323
76874W        W43283  32.969  28.392  13.711
76875W        W43284  11.102  44.873  13.033
76876W        W43285   8.012  44.724  13.163
76877W        W43286  24.031  18.221   0.018
76878W        W43287  38.806  41.231   1.753
76879W        W43288  30.826  39.876   4.706
76880W        W43289   3.160  42.370  11.916
76881W        W43290  20.041   2.803  14.398
76882W        W43291  32.973  17.199  14.304
76883W        W43292  10.898  22.806   1.361
76884W        W43293  13.801  44.726  11.964
76885W        W43294  11.952  42.004  14.391
76886W        W43295  35.688  31.002  13.516
76887W        W43296  11.763  36.635   0.911
76888W        W43297   8.705   3.599  10.742
76889W        W43298  17.530  25.468   1.324
76890W        W43299   0.350  35.593  12.460
76891W        W43300  41.924  10.714   1.400
76892W        W43301  28.136  19.167   3.905
76893W        W43302   2.908  40.699  13.040
76894W        W43303  23.978   0.949  11.908
76895W        W43304  19.492  11.427  10.770
76896W        W43305  44.620  41.448  14.431
76897W        W43306  43.894  32.141   4.101
76898W        W43307  40.022  41.317  10.486
76899W        W43308   0.372   9.192   0.995
76900W        W43309  28.227  11.543  12.426
76901W        W43310  18.056  10.881  12.505
76902W        W43311  17.264  25.687  10.523
76903W        W43312  21.740  18.450  11.198
76904W        W43313  34.369  40.968   0.817
76905W        W43314  31.551  39.616   0.337
76906W        W43315  39.225  35.106  14.525
76907W        W43316  41.520   0.801   3.667
76908W        W43317  36.953   5.559  14.520
76909W        W43318  10.497  30.049  12.147
76910W        W43319  17.207  40.980  14.873
76911W        W43320  30.065  27.936  14.132
76912W        W43321  10.269  28.429  12.077
76913W        W43322   4.604  26.540  12.156
76914W        W43323   7.932  29.989   3.900
76915W        W43324  44.859  44.906   0.300
76916W        W43325  28.512  25.163  13.045
76917W        W43326  39.579  20.787  14.735
76918W        W43327   3.200  13.168  11.237
76919W        W43328   4.314  24.714   1.858
76920W        W43329  25.146  22.769   2.704
76921W        W43330   8.457  32.146  13.892
76922W        W43331   6.481  13.323   1.388
76923W        W43332  29.067  21.343  13.985
76924W        W43333  24.617  24.577   3.117
76925W        W43334  35.086  26.646   1.299
76926W        W43335   5.947  29.724  13.429
76927W        W43336  26.703  41.260   1.198
76928W        W43337   4.381   0.308  11.138
76929W        W43338  31.441  40.228   0.812
76930W        W43339  37.592  16.131   3.092
76931W        W43340  16.520  31.737  10.990
76932W        W43341   0.463  40.785  14.779
76933W        W43342   1.320  24.604   2.931
76934W        W43343   0.648  24.842   0.857
76935W        W43344  16.137   3.021  11.997
76936W        W43345  21.089  26.326  13.037
76937W        W43346   8.555  27.636  11.562
76938W        W43347  17.108   3.241   2.656
76939W        W43348  21.166  33.087  14.306
76940W        W43349  14.558  38.929   1.238
76941W        W43350  11.085  44.353   0.865
76942W        W43351  21.460  32.389   2.842
76943W        W43352   4.112   4.721   2.187
76944W        W43353  15.157  11.759   4.809
76945W        W43354  34.698   2.361  14.749
76946W        W43355   1.160  11.156   2.310
76947W        W43356  13.758  17.749   2.843
76948W        W43357  37.005  30.767   3.860
76949W        W43358  26.692  18.832  12.505
76950W        W43359  41.779  21.402   3.196
76951W        W43360   2.735  19.565   0.024
76952W        W43361  31.164  18.913   4.046
76953W        W43362  34.995  28.507  12.062
76954W        W43363  17.521   6.870  13.612
76955W        W43364  26.529  25.635  14.630
76956W        W43365  12.230  34.015  14.302
76957W        W43366  31.100  11.710   3.089
76958W        W43367  32.401  37.991   1.309
76959W        W43368  30.957  30.612  14.618
76960W        W43369   9.244  19.638   2.264
76961W        W43370  24.784  27.472   0.404
76962W        W43371  39.084  13.638   2.302
76963W        W43372  19.830  43.335   4.193
76964W        W43373  42.949  19.158   3.343
76965W        W43374   6.323  10.156  10.667
76966W        W43375  42.935  39.851  12.608
76967W        W43376  25.644  23.643   0.430
76968W        W43377   0.485  39.606  13.681
76969W        W43378   8.980  30.152   4.991
76970W        W43379  38.825  42.579  10.322
76971W        W43380  26.493   3.561   1.350
76972W        W43381  22.624   3.928  11.716
76973W        W43382   7.625  21.985  14.559
76974W        W43383   3.989   2.374   3.184
76975W        W43384  18.219  34.025  10.633
76976W        W43385  12.194  28.590   4.444
76977W        W43386   1.386  19.859   0.379
76978W        W43387  12.293  15.513  12.186
76979W        W43388   0.661  25.485  14.855
76980W        W43389  12.217  25.022   2.745
76981W        W43390   2.270   6.966   1.122
76982W        W43391  22.513  38.111  10.193
76983W        W43392  16.076  41.044  12.813
76984W        W43393   3.729  26.589  10.657
76985W        W43394  39.893  15.386  13.560
76986W        W43395  13.383  36.727   1.903
76987W        W43396  10.163  25.542  10.663
76988W        W43397  37.520  41.394   0.792
76989W        W43398  33.123  34.265   2.221
76990W        W43399  33.581   1.855   3.722
76991W        W43400   8.208  17.093   1.827
76992W        W43401  29.137   6.775   4.588
76993W        W43402  29.239  22.551  11.665
76994W        W43403  30.535  41.286   2.703
76995W        W43404   9.918   8.258   0.482
76996W        W43405  25.979  28.389  10.681
76997W        W43406  25.185  18.833   2.618
76998W        W43407  43.997  23.845   0.143
76999W        W43408  44.214  35.944   3.433
77000W        W43409   3.771   4.681   2.647
77001W        W43410  31.522  33.419  11.631
77002W        W43411   8.399   6.307  10.680
77003W        W43412  23.648  32.158   0.973
77004W        W43413  20.587   2.331   1.199
77005W        W43414   7.198  38.404  12.386
77006W        W43415   1.677  39.509  13.300
77007W        W43416  25.002  20.534  12.845
77008W        W43417  37.578  15.177  11.194
77009W        W43418   3.396   8.884   1.296
77010W        W43419  32.853   5.008   4.543
77011W        W43420  10.870  22.571   2.304
77012W        W43421  25.713   6.155   0.004
77013W        W43422  32.110  35.096  13.384
77014W        W43423  14.622  31.933  13.905
77015W        W43424  26.634  20.273   3.653
77016W        W43425   7.911  27.508   0.919
77017W        W43426   4.297  26.578   0.477
77018W        W43427  13.860  33.739   0.795
77019W        W43428  21.119  23.938   1.892
77020W        W43429  17.703  24.681  12.981
77021W        W43430  17.564  44.904   3.726
77022W        W43431  35.396  14.079  14.522
77023W        W43432  35.345  29.399   0.021
77024W        W43433  42.228  40.583   0.431
77025W        W43434  36.984  40.855   1.024
77026W        W43435  11.208  41.827   0.778
77027W        W43436  21.080  21.315  11.392
77028W        W43437   7.733   6.304   5.039
77029W        W43438  30.974  42.238   0.984
77030W        W43439  11.375  19.282  11.495
77031W        W43440  35.220  26.577  10.333
77032W        W43441  21.279   9.138   1.935
77033W        W43442  43.374  15.095   0.546
77034W        W43443  40.905   7.731   5.116
77035W        W43444  37.460  22.057  11.188
77036W        W43445  41.237   7.816  10.656
77037W        W43446  24.429   1.987   4.159
77038W        W43447   5.353   3.593  11.504
77039W        W43448   8.899  23.293  11.597
77040W        W43449  20.860  37.101  13.266
77041W        W43450  42.920  24.242   4.560
77042W        W43451  29.539  21.224  10.142
77043W        W43452  30.534  38.886   3.146
77044W        W43453  20.548  41.379  12.556
77045W        W43454   6.639  42.541  13.538
77046W        W43455  20.598   2.470   3.204
77047W        W43456  14.757  39.496   4.221
77048W        W43457   5.403  12.491  11.231
77049W        W43458  16.840   1.129  13.919
77050W        W43459   7.208  35.827  11.203
77051W        W43460   5.906  15.865  11.154
77052W        W43461  28.697  21.251  11.950
77053W        W43462   6.815   8.627   0.348
77054W        W43463  40.497  10.421  13.766
77055W        W43464  29.937   3.667   3.423
77056W        W43465  29.028   3.104  12.556
77057W        W43466  42.912  38.367   3.740
77058W        W43467   9.951  31.929   3.226
77059W        W43468  34.454  39.840  11.390
77060W        W43469  10.343  23.545   4.386
77061W        W43470  26.147  25.244   2.338
77062W        W43471  14.414   8.795   2.736
77063W        W43472   5.749  16.108  11.575
77064W        W43473  27.912   7.141   3.795
77065W        W43474  14.209  42.449   4.106
77066W        W43475  33.084  30.275  12.922
77067W        W43476  13.337   2.712  13.755
77068W        W43477  15.580   0.184  10.467
77069W        W43478  19.524  20.531   0.341
77070W        W43479  16.541   0.435  11.641
77071W        W43480  36.473  35.667  11.826
77072W        W43481  28.243  23.171  13.542
77073W        W43482  44.428  32.136   4.157
77074W        W43483  31.983  13.793   0.323
77075W        W43484   3.672  32.270   2.726
77076W        W43485  32.000   5.460   4.586
77077W        W43486  13.590  33.475  12.382
77078W        W43487  34.866   9.777  14.908
77079W        W43488   0.311   5.843   3.929
77080W        W43489  43.929  44.915   4.326
77081W        W43490  17.053  25.540   1.502
77082W        W43491  34.302  42.685   2.725
77083W        W43492  26.464  13.848  12.007
77084W        W43493  30.235  30.474  11.599
77085W        W43494  35.474  37.059  14.517
77086W        W43495  24.950   8.293   3.124
77087W        W43496  38.389  25.705   4.243
77088W        W43497   7.185  29.908   3.357
77089W        W43498   7.137  38.959  13.340
77090W        W43499  11.349   2.092   4.915
77091W        W43500   9.741   5.635  13.546
77092W        W43501  20.256  36.981  11.078
77093W        W43502  20.004  28.907  12.575
77094W        W43503   1.989   0.373   0.358
77095W        W43504  42.038  34.292  12.871
77096W        W43505  20.967  35.106   2.467
77097W        W43506  31.415  44.980  13.096
77098W        W43507  33.345  39.937   1.793
77099W        W43508  42.581  12.397   3.112
77100W        W43509  43.420  14.294  10.236
77101W        W43510  10.849  37.562   2.769
77102W        W43511  39.593  39.357  11.399
77103W        W43512  41.827   6.710  11.100
77104W        W43513   7.821   9.434  11.089
77105W        W43514  43.292  32.618  10.550
77106W        W43515  22.196  34.139  11.601
77107W        W43516  16.996  42.798   1.175
77108W        W43517  11.899  44.019  12.805
77109W        W43518  36.128  33.891   0.894
77110W        W43519  18.387  31.672   2.275
77111W        W43520  19.507  14.097  13.967
77112W        W43521  19.608   9.491   0.405
77113W        W43522  29.662  41.168   2.781
77114W        W43523  36.143   0.247   1.966
77115W        W43524  44.431   8.769  14.482
77116W        W43525  23.617  33.751   3.322
77117W        W43526  26.554  27.224   2.732
77118W        W43527   5.314  11.579   3.894
77119W        W43528   6.919  40.043  10.743
77120W        W43529  43.956   5.703   4.386
77121W        W43530  16.984  43.776   1.286
77122W        W43531  32.340  30.638   2.719
77123W        W43532   8.334  34.571  14.986
77124W        W43533  25.351  37.054  12.722
77125W        W43534   0.162  23.398   2.662
77126W        W43535   2.001  28.256  10.992
77127W        W43536  11.537  11.628  14.087
77128W        W43537   4.790   1.869  13.508
77129W        W43538  34.495  14.828   1.351
77130W        W43539   3.236  31.691  11.128
77131W        W43540  34.200  19.033   1.785
77132W        W43541  19.452   3.667   1.531
77133W        W43542   0.849   9.110   3.555
77134W        W43543  12.951   2.902   4.485
77135W        W43544  20.329  30.728   2.683
77136W        W43545  30.968  31.397   1.706
77137W        W43546  35.384  13.078  12.641
77138W        W43547  41.555   4.287  13.799
77139W        W43548   7.798  35.710   4.230
77140W        W43549  36.768  38.106   4.615
77141W        W43550  24.424  15.164   2.073
77142W        W43551   2.017  38.384   1.137
77143W        W43552  13.282  20.214  11.990
77144W        W43553  32.039  17.273  14.357
77145W        W43554  25.101   3.360  11.862
77146W        W43555   7.390  32.359   0.904
77147W        W43556  38.690  36.204   1.780
77148W        W43557  38.601  27.585  11.554
77149W        W43558  16.017  13.801  14.858
77150W        W43559  19.699   2.126  11.529
77151W        W43560  14.759  10.206   1.636
77152W        W43561  25.079  24.174  12.442
77153W        W43562  20.582   0.265  14.878
77154W        W43563  11.956  38.505  14.427
77155W        W43564  32.111  18.951   4.109
77156W        W43565  35.784   9.342  10.730
77157W        W43566  29.051  17.937   0.842
77158W        W43567   9.282   1.740   4.911
77159W        W43568  26.889  14.768  12.472
77160W        W43569  22.125  27.598   0.421
77161W        W43570  37.107   3.815   3.562
77162W        W43571   7.453   9.811  11.940
77163W        W43572  11.756  10.161   1.913
77164W        W43573  42.578  32.559  11.976
77165W        W43574   5.410  40.756   3.323
77166W        W43575  11.732  22.045  12.018
77167W        W43576  16.693  15.203   1.290
77168W        W43577   9.252  41.267  12.110
77169W        W43578  30.665  18.271   0.402
77170W        W43579  27.440  36.291  13.951
77171W        W43580  39.453  42.492  12.476
77172W        W43581  36.344  37.875   4.408
77173W        W43582  14.196  42.261  10.720
77174W        W43583  17.192  11.246  12.009
77175W        W43584   9.775  22.318  13.491
77176W        W43585  35.954  31.148   3.569
77177W        W43586  34.413  24.743   4.872
77178W        W43587  40.873  41.882   2.912
77179W        W43588  44.272  29.107  12.628
77180W        W43589  23.183  10.403  10.679
77181W        W43590  30.601  22.046  14.513
77182W        W43591  44.738  15.398   4.935
77183W        W43592   9.702  41.825   2.930
77184W        W43593  28.519   5.283  10.627
77185W        W43594  12.742  41.100   4.203
77186W        W43595  11.708  36.222  12.983
77187W        W43596  34.014  38.408  12.017
77188W        W43597  41.469  13.434  14.573
77189W        W43598  41.645  15.712   2.101
77190W        W43599  38.783   2.214  12.871
77191W        W43600  38.499  40.450  11.007
77192W        W43601  16.850  13.043   2.585
77193W        W43602  39.424   2.398  10.651
77194W        W43603  16.163  43.822   2.344
77195W        W43604   3.994  37.999   1.940
77196W        W43605  27.025  34.140   4.724
77197W        W43606  44.206  13.149   0.385
77198W        W43607  26.476  33.047   4.535
77199W        W43608  42.767   1.803  11.102
77200W        W43609  15.633  39.262  13.173
77201W        W43610  43.587  18.320   4.280
77202W        W43611  26.055  29.985   2.780
77203W        W43612   9.611   0.872  13.586
77204W        W43613  33.122  28.541   0.752
77205W        W43614  12.231  30.867  12.884
77206W        W43615   1.421   2.809  13.442
77207W        W43616  42.086  10.550  11.174
77208W        W43617  34.046   1.750   1.797
77209W        W43618  39.136   6.959   3.329
77210W        W43619  41.129  27.901   3.123
77211W        W43620  27.997   6.608  13.903
77212W        W43621  36.793   8.988   1.407
77213W        W43622   5.700  32.772  11.725
77214W        W43623  15.714   8.114  11.612
77215W        W43624  17.675  32.860   3.082
77216W        W43625  18.758  18.850  12.548
77217W        W43626  33.795   0.526   4.085
77218W        W43627  40.410  43.442   3.109
77219W        W43628  31.650  27.919   4.605
77220W        W43629  32.353  41.559  11.483
77221W        W43630  15.781  22.130   3.896
77222W        W43631  18.235  32.201   0.587
77223W        W43632  26.587  19.539   4.112
77224W        W43633  20.561   2.798  14.535
77225W        W43634  27.100  28.485   1.794
77226W        W43635  14.330  10.795  14.380
77227W        W43636  37.656  11.157  13.414
77228W        W43637  10.343  10.693  13.138
77229W        W43638  16.513  24.562   0.707
77230W        W43639   1.176   2.274  11.162
77231W        W43640  40.900   3.693  13.054
77232W        W43641  10.809   0.178  13.618
77233W        W43642  22.752   9.717   4.394
77234W        W43643  18.618  13.881   0.824
77235W        W43644  12.899  37.435  10.176
77236W        W43645  17.183   9.334  10.897
77237W        W43646   0.929  44.314   0.463
77238W        W43647   1.316  17.270   1.724
77239W        W43648  35.067  25.320  14.312
77240W        W43649  15.309  20.294   4.049
77241W        W43650  29.560  10.330   4.456
77242W        W43651  37.312  17.206  12.570
77243W        W43652  36.638   5.076  12.377
77244W        W43653  19.977  44.678   3.241
77245W        W43654  20.270  42.668  13.282
77246W        W43655  24.566  18.607  11.605
77247W        W43656  11.740  24.200   1.968
77248W        W43657  30.244  15.226  14.297
77249W        W43658  28.487  22.731  14.435
77250W        W43659  37.151  42.777  14.878
77251W        W43660  42.048  37.346   0.629
77252W        W43661  19.200   6.824   1.727
77253W        W43662  12.693  28.975  13.913
77254W        W43663  24.317  26.024   3.306
77255W        W43664  30.528   7.160  13.046
77256W        W43665  12.801   4.169  13.081
77257W        W43666  27.323  30.527  14.849
77258W        W43667  11.169   7.013   0.388
77259W        W43668  43.755  23.760   1.507
77260W        W43669  22.212  14.029   0.451
77261W        W43670  20.334  15.210   0.419
77262W        W43671  43.772   2.699  11.125
77263W        W43672   0.292  32.304   4.708
77264W        W43673  26.310   0.572   3.373
77265W        W43674  32.169  23.997  12.919
77266W        W43675  14.521   1.907  12.678
77267W        W43676  11.827  40.064   3.703
77268W        W43677  18.998  20.141  13.362
77269W        W43678  26.567  32.235   2.154
77270W        W43679  29.937  23.505  13.869
77271W        W43680  40.839  29.205   2.714
77272W        W43681  43.719   8.510  13.006
77273W        W43682  19.941  18.944   0.710
77274W        W43683  21.115  30.621  13.575
77275W        W43684  40.549  38.105  12.434
77276W        W43685  18.580  36.952   2.664
77277W        W43686  11.808  21.496  10.670
77278W        W43687  12.279  33.030  12.483
77279W        W43688  28.063  10.278   0.831
77280W        W43689  43.232  19.704   1.744
77281W        W43690  40.638  14.879  13.274
77282W        W43691  22.524  35.538   3.342
77283W        W43692  37.370  25.107   3.727
77284W        W43693  18.733  21.559   2.328
77285W        W43694  27.250  10.671   0.011
77286W        W43695  28.058  30.406  12.931
77287W        W43696  19.613  28.268  11.691
77288W        W43697  15.180  42.316  12.061
77289W        W43698  24.042  42.122  14.768
77290W        W43699   7.549  12.187  10.704
77291W        W43700  24.672  16.857  12.951
77292W        W43701  11.571   0.497  12.077
77293W        W43702   7.750  36.517   2.339
77294W        W43703  20.560  28.254   1.851
77295W        W43704  20.494  17.129  12.934
77296W        W43705  32.846  15.176  10.555
77297W        W43706   2.254   3.525  10.420
77298W        W43707  10.093  16.222   4.557
77299W        W43708  42.308  44.352   0.757
77300W        W43709  18.079   8.303   2.325
77301W        W43710  28.981  18.327  14.455
77302W        W43711  37.477  24.387  10.648
77303W        W43712  27.969  29.918   2.816
77304W        W43713   6.433  36.698  11.972
77305W        W43714  34.469  40.032  12.430
77306W        W43715   9.919  32.125   0.985
77307W        W43716   7.271   2.548   1.480
77308W        W43717  34.309  16.565  11.185
77309W        W43718  27.003  14.224   3.738
77310W        W43719   9.647  42.065  11.975
77311W        W43720  21.503  35.560  13.464
77312W        W43721  39.594  21.566   5.754
77313W        W43722  10.497  31.985   1.825
77314W        W43723  35.367  32.143   1.683
77315W        W43724   2.285  31.380  13.779
77316W        W43725  34.690  28.526  13.817
77317W        W43726  10.158   7.178   3.074
77318W        W43727  25.025  24.772  11.570
77319W        W43728   1.405   9.536   1.372
77320W        W43729  21.143   5.001  14.755
77321W        W43730  14.332   4.929  13.042
77322W        W43731   6.296  29.473  12.646
77323W        W43732   1.860  12.731  12.972
77324W        W43733  40.566  29.638  10.772
77325W        W43734  33.074  14.412   3.301
77326W        W43735  31.975  20.626   0.322
77327W        W43736  31.585  21.522   2.162
77328W        W43737   2.433  15.006   2.454
77329W        W43738  22.277  18.828   2.825
77330W        W43739   3.398  26.161  10.598
77331W        W43740  10.493   9.416  12.430
77332W        W43741  31.147  15.054   4.431
77333W        W43742  15.751  24.013   2.252
77334W        W43743  41.021  12.655  11.183
77335W        W43744   3.239  19.768   2.152
77336W        W43745   6.267  26.859   1.649
77337W        W43746  32.969  26.167  11.607
77338W        W43747  22.777   2.922   4.878
77339W        W43748  38.546   0.271  14.958
77340W        W43749  10.313   8.840   1.879
77341W        W43750   5.752  12.480   3.704
77342W        W43751  33.228  43.498  14.292
77343W        W43752  34.337  42.227  13.353
77344W        W43753  37.771  32.437   3.798
77345W        W43754  14.391  43.331  10.119
77346W        W43755  35.929  33.574   3.219
77347W        W43756   8.071  32.497   4.554
77348W        W43757   2.359  19.334   1.689
77349W        W43758  26.216   0.312   4.394
77350W        W43759  14.401   1.452   3.623
77351W        W43760  17.010   4.636   0.894
77352W        W43761  21.913  39.854   0.699
77353W        W43762  31.769  14.396  12.926
77354W        W43763  35.869  19.781  10.618
77355W        W43764   5.356  44.304   1.476
77356W        W43765   3.921  12.682   4.439
77357W        W43766  36.858  27.476  11.850
77358W        W43767  16.833  18.722   3.220
77359W        W43768  16.852  22.642  13.304
77360W        W43769  25.926  30.076  14.404
77361W        W43770   9.245  18.095  13.965
77362W        W43771  44.113  32.628  14.492
77363W        W43772  35.072  20.670  11.916
77364W        W43773  30.530   2.490   0.346
77365W        W43774  39.007  44.342  11.445
77366W        W43775  12.767  40.817   3.187
77367W        W43776  13.413  43.864  14.902
77368W        W43777  19.315  33.813  10.680
77369W        W43778  10.318  29.005   2.616
77370W        W43779  39.721  28.486   0.265
77371W        W43780  34.583  37.699  10.350
77372W        W43781  34.459  19.757  14.367
77373W        W43782  40.675   4.549  13.431
77374W        W43783  10.213  21.305  11.475
77375W        W43784  29.408  13.860  10.569
77376W        W43785   5.145   1.283  12.438
77377W        W43786   5.436   8.209   4.286
77378W        W43787  22.930   9.314   3.124
77379W        W43788  35.258  36.386  13.809
77380W        W43789  15.537  42.022   3.542
77381W        W43790  34.660  35.964  11.520
77382W        W43791  44.019   6.960  11.165
77383W        W43792   9.739  39.086  11.974
77384W        W43793  39.097  14.097  14.896
77385W        W43794  43.232  40.344   5.303
77386W        W43795  25.033  21.533  13.375
77387W        W43796  15.725  12.595  14.902
77388W        W43797  22.162   0.518  12.854
77389W        W43798  11.106  31.979   0.651
77390W        W43799  12.203  10.405   1.742
77391W        W43800  36.836  38.469   1.668
77392W        W43801  42.023  13.193   3.761
77393W        W43802  25.465  23.515  14.949
77394W        W43803  10.298  39.513   1.646
77395W        W43804  31.895  43.371  14.813
77396W        W43805  29.108  25.147  13.503
77397W        W43806  10.587  44.750  10.623
77398W        W43807  10.323  12.797  11.000
77399W        W43808  33.827  19.620  11.569
77400W        W43809  44.640  38.990  11.027
77401W        W43810  33.639  30.149  11.460
77402W        W43811  21.520  24.802  14.732
77403W        W43812   1.250  30.217   1.851
77404W        W43813  42.509  38.029  11.053
77405W        W43814  13.532  35.503   0.812
77406W        W43815  14.015  43.452   2.242
77407W        W43816  28.041  15.551   4.557
77408W        W43817  19.093  30.894  10.508
77409W        W43818  37.677  12.540   1.674
77410W        W43819   9.443  31.602  11.217
77411W        W43820  12.550   7.963  10.647
77412W        W43821  31.231  13.821   0.105
77413W        W43822  34.650   8.150   2.789
77414W        W43823  31.651  38.724  12.609
77415W        W43824  41.772   2.738   4.462
77416W        W43825  28.908   3.989  10.567
77417W        W43826  23.658  30.863  11.439
77418W        W43827  24.602  26.417  11.936
77419W        W43828   5.019  28.596   1.806
77420W        W43829   4.402  42.081   1.923
77421W        W43830  42.356  11.939   3.130
77422W        W43831  20.821  37.523  12.989
77423W        W43832   9.765  21.659  12.642
77424W        W43833  36.350   3.675  12.076
77425W        W43834  33.084   5.839  11.421
77426W        W43835   9.680  27.697  10.771
77427W        W43836  43.744   8.822   2.139
77428W        W43837   1.486   7.608   1.336
77429W        W43838  34.892  32.138  11.077
77430W        W43839  20.738  31.141   0.411
77431W        W43840  34.456  36.352   4.333
77432W        W43841  28.812  37.605  13.088
77433W        W43842  43.751  18.676  14.944
77434W        W43843  10.239  10.487  10.147
77435W        W43844  38.506  20.872  11.599
77436W        W43845  32.577  24.255   2.290
77437W        W43846  22.164  44.419   4.535
77438W        W43847  31.674  27.582   1.990
77439W        W43848  10.235  20.077  11.133
77440W        W43849  10.846  42.878   4.410
77441W        W43850   1.572  21.578   0.286
77442W        W43851  16.780  28.272   0.363
77443W        W43852   0.087   4.941   2.712
77444W        W43853  14.336  17.696   1.400
77445W        W43854  19.293  39.559   1.611
77446W        W43855  21.565   3.823  14.556
77447W        W43856  25.228  12.132   0.309
77448W        W43857  30.574  26.942   4.605
77449W        W43858  44.450  29.976   0.839
77450W        W43859  36.831  15.818  13.459
77451W        W43860   5.653  14.575  13.420
77452W        W43861   1.942  41.677   2.887
77453W        W43862   6.695  26.802  14.965
77454W        W43863  32.429  19.530   1.202
77455W        W43864   8.181  20.128   0.738
77456W        W43865   3.275  19.076   0.371
77457W        W43866  41.520  21.798  12.047
77458W        W43867  34.983  42.539   4.081
77459W        W43868  30.956  22.597  11.576
77460W        W43869  12.743   6.181  12.129
77461W        W43870   6.109  18.066   2.485
77462W        W43871  23.214   4.114   0.081
77463W        W43872  41.401  17.764  10.148
77464W        W43873  22.808  12.888  13.895
77465W        W43874  34.963  41.732  14.470
77466W        W43875   2.692  26.168   3.650
77467W        W43876   1.263  22.999  12.163
77468W        W43877  24.204  17.351  11.142
77469W        W43878   8.042  40.473  14.053
77470W        W43879  41.567  29.209   0.735
77471W        W43880  21.579   5.035   1.379
77472W        W43881  42.599  13.592   4.653
77473W        W43882  25.431  18.589   1.204
77474W        W43883  41.202  14.367  13.460
77475W        W43884   1.397  19.275  11.964
77476W        W43885  25.697  21.684  11.993
77477W        W43886   2.899  14.678  12.830
77478W        W43887  31.863  18.168  14.936
77479W        W43888  13.306  17.167   4.532
77480W        W43889  10.077   2.459   1.603
77481W        W43890  21.391  18.071  12.862
77482W        W43891  24.727  29.074  13.217
77483W        W43892  30.972  10.808   2.359
77484W        W43893   0.975  43.931  12.451
77485W        W43894   9.185  31.402   5.384
77486W        W43895   4.289  32.961  14.982
77487W        W43896  32.161  38.839   0.972
77488W        W43897  41.107  42.014  10.647
77489W        W43898   6.285  30.411  10.425
77490W        W43899  33.839  17.109  12.939
77491W        W43900  10.614  31.090   3.698
77492W        W43901  31.803   8.030  11.580
77493W        W43902  21.955  42.876   2.800
77494W        W43903  12.692  32.130   3.764
77495W        W43904  41.568  35.934   0.269
77496W        W43905  42.490  23.191   4.217
77497W        W43906  13.328  32.732  13.323
77498W        W43907   4.932  33.327   0.887
77499W        W43908  35.388  17.786  11.103
77500W        W43909  11.337  35.372   0.884
77501W        W43910  10.139  10.844   1.829
77502W        W43911  24.487   0.202  12.921
77503W        W43912   1.280  19.513   4.967
77504W        W43913  44.870  17.101   0.857
77505W        W43914  29.593  38.898  12.488
77506W        W43915  35.875  21.624  13.084
77507W        W43916  32.981  18.084   1.181
77508W        W43917  22.512  19.825  11.256
77509W        W43918  23.005  13.361  10.618
77510W        W43919  25.992   3.443  11.380
77511W        W43920  20.551  21.665   4.199
77512W        W43921  15.534  11.903   3.641
77513W        W43922  41.997  17.299  10.070
77514W        W43923  16.859   7.448  13.877
77515W        W43924  20.630  22.494  13.864
77516W        W43925   3.221  17.274  12.974
77517W        W43926  36.781  23.569   3.631
77518W        W43927  35.354   5.575   0.734
77519W        W43928   1.981   5.683   0.939
77520W        W43929  39.273  44.751   0.586
77521W        W43930  23.524  13.294   1.358
77522W        W43931  41.257  44.349   3.081
77523W        W43932  18.610  38.385   3.203
77524W        W43933  40.213  39.225   1.964
77525W        W43934  27.731  17.828   3.662
77526W        W43935  16.729  34.553   0.306
77527W        W43936   7.949   6.472   0.402
77528W        W43937  22.784  29.646   0.360
77529W        W43938  30.593  41.870   4.198
77530W        W43939   1.577   8.127   3.021
77531W        W43940  28.538  14.163  12.345
77532W        W43941  41.393   0.268   2.881
77533W        W43942  16.825  44.512   3.224
77534W        W43943  27.002  15.587  12.055
77535W        W43944   0.792  15.805  11.928
77536W        W43945   9.111  35.529  12.103
77537W        W43946   4.378  27.272   1.767
77538W        W43947  29.456  42.031   4.121
77539W        W43948  12.659  12.173  10.726
77540W        W43949   5.516   1.565   2.702
77541W        W43950   0.858   2.184  10.283
77542W        W43951   1.945  30.220   2.424
77543W        W43952  39.527  23.595   0.926
77544W        W43953   8.861  25.590  12.984
77545W        W43954  26.503  40.012   3.844
77546W        W43955  38.960  21.639   1.818
77547W        W43956   9.716  19.646  11.565
77548W        W43957   5.421  37.024  14.667
77549W        W43958   3.967  23.744   3.147
77550W        W43959  11.229  30.019  12.772
77551W        W43960  24.529  17.471   0.471
77552W        W43961  25.000   6.720  14.828
77553W        W43962   6.901  20.415   2.041
77554W        W43963  42.840  33.660   3.840
77555W        W43964   3.244  26.255  14.339
77556W        W43965  14.402  29.272   1.459
77557W        W43966   8.426  21.065  11.830
77558W        W43967  23.923   3.570  12.602
77559W        W43968   9.945  42.815   2.563
77560W        W43969  11.228  30.766   4.505
77561W        W43970   9.573  40.112  13.851
77562W        W43971  29.118  10.919   3.237
77563W        W43972  43.753  30.903   4.536
77564W        W43973   7.159  28.341   2.309
77565W        W43974  29.519  23.264  12.544
77566W        W43975  14.588  34.055  10.450
77567W        W43976   6.116   9.159   0.941
77568W        W43977  28.511  23.144   0.380
77569W        W43978   9.744  14.285   1.403
77570W        W43979  29.666  28.923   2.101
77571W        W43980   3.247   8.780  10.785
77572W        W43981  24.477  27.386  12.052
77573W        W43982  42.545  24.246  12.965
77574W        W43983  33.075   8.658   3.753
77575W        W43984  18.396  22.743  12.342
77576W        W43985  37.830  35.810  10.321
77577W        W43986   6.972  14.835   1.303
77578W        W43987  20.649   6.180   2.462
77579W        W43988   4.192   4.464   1.175
77580W        W43989  13.541  11.308   3.175
77581W        W43990   8.647  22.273  12.929
77582W        W43991   4.717   7.155   3.705
77583W        W43992  34.929  36.457   2.708
77584W        W43993  43.813  14.687   4.609
77585W        W43994  41.827  10.650   2.301
77586W        W43995  26.068  32.401   1.894
77587W        W43996  24.296  31.752  14.757
77588W        W43997  35.396   1.973   1.895
77589W        W43998  21.144  35.465   1.620
77590W        W43999   1.389  21.603  13.426
77591W        W44000  21.818   7.362  12.951
77592W        W44001   1.483   2.797   2.078
77593W        W44002  34.538  14.314   1.384
77594W        W44003  18.620  12.955  13.451
77595W        W44004   1.983   2.196  14.114
77596W        W44005  28.052  24.719  14.031
77597W        W44006   8.713  26.116   0.401
77598W        W44007  20.301   6.383  10.610
77599W        W44008  29.353  26.605  11.824
77600W        W44009  11.266  39.774  12.880
77601W        W44010  22.641  18.661   1.568
77602W        W44011  24.533   9.202  14.315
77603W        W44012  34.036  14.279   2.316
77604W        W44013  14.083  20.821   1.666
77605W        W44014   6.909  10.636  12.961
77606W        W44015  20.884  29.439  14.741
77607W        W44016  21.912  14.079   4.143
77608W        W44017  39.060  15.872  14.742
77609W        W44018   8.453  41.505  12.624
77610W        W44019  31.600   1.657   2.017
77611W        W44020  22.540  44.467  14.492
77612W        W44021  34.416  37.479   3.409
77613W        W44022  31.506  29.992  14.587
77614W        W44023  35.271  23.174  14.408
77615W        W44024  28.342  35.459   3.255
77616W        W44025  23.188   3.224   4.709
77617W        W44026  25.213   0.924  14.971
77618W        W44027  25.015  31.940   3.211
77619W        W44028  44.775  32.150   1.808
77620W        W44029  20.131  30.428   1.437
77621W        W44030   8.116  32.905   9.737
77622W        W44031   5.467  15.989   3.161
77623W        W44032   1.805  14.330   1.859
77624W        W44033  19.650   1.861   3.890
77625W        W44034  33.650  40.338  10.982
77626W        W44035  23.306   7.712   4.549
77627W        W44036  44.288   4.252  13.566
77628W        W44037  43.365   4.330  14.356
77629W        W44038  24.141   9.278   3.996
77630W        W44039   7.768  23.309   0.913
77631W        W44040  25.418   3.001  12.070
77632W        W44041   3.435   7.478  11.061
77633W        W44042  24.565  13.718   3.245
77634W        W44043  19.060   1.407   3.132
77635W        W44044  27.636  28.182   4.200
77636W        W44045  37.864  35.061  12.846
77637W        W44046  43.392  18.018  13.151
77638W        W44047   2.825  27.485   0.416
77639W        W44048  13.598  15.019  11.115
77640W        W44049  31.369   7.391  12.777
77641W        W44050  37.277  13.036  12.628
77642W        W44051  30.011  20.193  14.558
77643W        W44052  23.599  30.977   4.635
77644W        W44053  10.160  11.038   4.637
77645W        W44054  36.550  24.655   2.917
77646W        W44055  25.335  12.906   2.980
77647W        W44056   1.016   4.296   3.275
77648W        W44057  39.838  43.357  14.848
77649W        W44058  20.816  20.949  14.586
77650W        W44059  23.712  39.060  13.475
77651W        W44060   3.162   6.240   4.490
77652W        W44061  19.035  32.987  14.415
77653W        W44062  41.194  23.765   4.564
77654W        W44063  30.165  12.605   3.190
77655W        W44064  14.872   5.403   1.949
77656W        W44065   8.794   8.644  11.035
77657W        W44066  31.789  38.739   4.822
77658W        W44067  32.458   2.498  14.512
77659W        W44068  28.015  13.073   1.533
77660W        W44069   2.282  28.880   1.470
77661W        W44070  30.642  18.199  11.501
77662W        W44071   2.207  11.386   4.144
77663W        W44072   9.084  17.525   2.368
77664W        W44073  37.298  29.560  12.040
77665W        W44074  11.905   6.803   2.499
77666W        W44075  40.012  35.053   4.338
77667W        W44076  41.665   5.956   0.256
77668W        W44077  19.154  11.160  13.369
77669W        W44078   4.763  28.011  13.033
77670W        W44079   6.179  17.553   4.444
77671W        W44080   2.340  12.645  14.298
77672W        W44081  21.236   2.120   2.693
77673W        W44082  23.117  12.620  11.067
77674W        W44083  12.286  13.967  13.937
77675W        W44084  41.745  28.691  13.919
77676W        W44085  43.806  25.009  11.962
77677W        W44086  33.005  37.347   1.243
77678W        W44087  18.652  18.167  13.782
77679W        W44088  28.415  28.703  10.660
77680W        W44089  16.309  34.494   2.795
77681W        W44090   2.856   1.446   1.207
77682W        W44091   7.594  25.580   0.957
77683W        W44092   3.168  20.557  14.461
77684W        W44093   7.487  20.529  11.058
77685W        W44094  40.835  41.360   2.004
77686W        W44095  42.751  21.223  13.817
77687W        W44096  21.400  14.980  13.372
77688W        W44097  27.917  41.991   1.086
77689W        W44098  14.870   5.696  14.845
77690W        W44099  35.162  33.966   0.820
77691W        W44100   0.876  42.401   1.715
77692W        W44101  31.022  33.179   1.258
77693W        W44102   2.074   3.405   3.674
77694W        W44103  21.166  32.451   1.240
77695W        W44104  24.687  15.759  10.628
77696W        W44105  16.188   4.226   4.869
77697W        W44106  26.196  20.988   1.500
77698W        W44107  26.999  20.255   2.313
77699W        W44108  13.659  41.843  11.544
77700W        W44109  10.409  33.567  14.254
77701W        W44110  29.131  32.018   2.637
77702W        W44111   7.386  17.124   1.709
77703W        W44112  14.817   0.999   5.156
77704W        W44113  16.726   8.411  11.948
77705W        W44114  31.528  30.861   1.381
77706W        W44115  23.062  13.883   4.113
77707W        W44116  24.194  38.621  11.734
77708W        W44117  33.506  38.506  12.640
77709W        W44118   5.738  10.928   2.302
77710W        W44119  22.876  18.667   4.937
77711W        W44120   4.701   9.787   3.922
77712W        W44121  29.659   1.569   3.330
77713W        W44122   3.889  41.848  14.995
77714W        W44123   3.073   6.317   3.786
77715W        W44124  17.332  14.204  11.136
77716W        W44125   0.921  34.521  13.755
77717W        W44126   0.034  35.058  13.790
77718W        W44127  25.511   9.377  13.271
77719W        W44128  12.194  10.932  13.465
77720W        W44129  28.601  40.272  11.128
77721W        W44130   2.856   9.378   1.978
77722W        W44131  33.146  12.763   2.328
77723W        W44132  25.249   2.638   4.170
77724W        W44133  34.576  44.956   0.489
77725W        W44134  19.850  33.036   1.798
77726W        W44135  40.379  43.687   2.644
77727W        W44136  34.257  30.742  11.112
77728W        W44137   6.275  27.325  10.500
77729W        W44138   7.825  28.062  14.323
77730W        W44139  30.410  32.694   1.852
77731W        W44140  30.676  39.407   4.517
77732W        W44141  15.256   3.016  13.555
77733W        W44142  11.700  25.309  12.099
77734W        W44143   7.858  44.589  11.237
77735W        W44144  27.188  38.981   4.258
77736W        W44145   8.920  23.019   1.926
77737W        W44146   7.673  30.960  11.343
77738W        W44147  31.778  28.552  13.010
77739W        W44148  37.429  36.257  11.501
77740W        W44149   7.562  43.743   2.681
77741W        W44150  36.151  26.897   1.362
77742W        W44151   9.313  11.424   0.821
77743W        W44152  31.802  18.232  13.075
77744W        W44153   7.689   5.734   2.240
77745W        W44154  34.815  21.307  13.490
77746W        W44155  10.510  23.592  12.939
77747W        W44156  41.144  36.685   4.142
77748W        W44157   4.754   3.510  11.967
77749W        W44158  36.405  16.331   2.456
77750W        W44159   0.260  22.626   4.306
77751W        W44160  31.701  27.000  11.104
77752W        W44161  18.691  43.041  14.523
77753W        W44162   8.925  27.406   3.158
77754W        W44163  16.337  27.371  10.461
77755W        W44164  13.322  18.535  12.008
77756W        W44165   1.950  39.859   2.450
77757W        W44166   8.271  28.506   3.093
77758W        W44167  43.379  40.998   1.920
77759W        W44168   5.612  24.858   1.853
77760W        W44169  13.577  39.117  10.353
77761W        W44170  31.013  12.317   2.780
77762W        W44171   9.796  40.347   1.587
77763W        W44172  33.464  34.131   2.899
77764W        W44173   1.330  16.341  10.727
77765W        W44174  16.455   3.791  11.670
77766W        W44175   0.485  39.371   3.899
77767W        W44176   3.525  20.363  11.252
77768W        W44177  15.109  29.148  13.337
77769W        W44178  11.846   0.551  14.750
77770W        W44179  39.531   0.794  14.712
77771W        W44180  24.599  30.213   1.218
77772W        W44181  32.997  23.637  12.998
77773W        W44182  33.912  42.978   4.583
77774W        W44183  25.710  20.895   2.815
77775W        W44184   4.710  27.001   3.740
77776W        W44185  44.806  18.975  10.665
77777W        W44186  28.411  11.664   4.994
77778W        W44187  19.460  40.440   0.029
77779W        W44188  31.988   8.961   1.199
77780W        W44189  36.485  23.270  12.967
77781W        W44190  34.380  37.909  11.805
77782W        W44191  30.367  30.689   3.847
77783W        W44192  22.316  36.925   2.871
77784W        W44193  15.789  22.121   2.903
77785W        W44194   6.480  13.574   1.834
77786W        W44195  28.645  26.633   4.670
77787W        W44196   6.604   5.726  13.019
77788W        W44197  29.168  44.296  13.074
77789W        W44198  34.417  19.127  12.601
77790W        W44199   2.397  38.844   4.107
77791W        W44200  15.703  33.229   5.115
77792W        W44201  41.481  38.354   2.394
77793W        W44202  27.962  37.024  13.101
77794W        W44203  15.908  25.072   3.197
77795W        W44204  13.572   1.954   1.704
77796W        W44205  11.258  30.627  14.125
77797W        W44206   2.000  21.451   2.640
77798W        W44207   3.979  14.926   1.830
77799W        W44208  32.214  38.381   0.725
77800W        W44209  37.194   4.271   4.128
77801W        W44210  19.309  28.146  13.504
77802W        W44211   0.796   7.940  11.454
77803W        W44212  16.856  10.060   0.012
77804W        W44213  18.719  11.997  10.741
77805W        W44214  42.197  31.541   2.093
77806W        W44215  44.769  39.415  12.602
77807W        W44216  24.615  12.304   4.081
77808W        W44217   4.862  10.960  13.105
77809W        W44218  33.037  30.898  10.771
77810W        W44219   0.504   3.929  13.791
77811W        W44220  33.191  29.382  10.894
77812W        W44221  36.485   3.668  13.012
77813W        W44222   9.812  31.585   4.194
77814W        W44223  24.704   3.894   0.826
77815W        W44224  24.082  40.064  14.817
77816W        W44225  34.479  38.164  10.566
77817W        W44226  27.457   8.990  10.821
77818W        W44227  38.967  19.845  12.920
77819W        W44228  41.364  44.877   3.707
77820W        W44229  44.714  38.320  14.318
77821W        W44230  42.272  44.853   3.744
77822W        W44231  35.063  37.023   4.146
77823W        W44232   2.924  21.797   0.213
77824W        W44233   8.873  39.251   1.923
77825W        W44234   8.709  19.164   0.757
77826W        W44235   6.575  39.044  14.508
77827W        W44236  38.659   4.757   0.263
77828W        W44237  41.258   3.566  11.686
77829W        W44238  21.806  24.356   4.031
77830W        W44239  42.793  43.573  12.004
77831W        W44240  17.283  36.599  13.281
77832W        W44241  43.763   8.082   5.076
77833W        W44242  42.901   4.301   2.451
77834W        W44243  26.549  34.936  13.529
77835W        W44244  27.883  22.079  14.866
77836W        W44245  19.156  21.969   3.862
77837W        W44246  30.162  24.556   3.761
77838W        W44247  31.809   8.160  12.779
77839W        W44248  22.677  33.950  12.934
77840W        W44249  36.297  28.611  12.391
77841W        W44250   4.710  12.282  10.698
77842W        W44251  23.650  17.972  13.576
77843W        W44252  22.603  10.896   3.853
77844W        W44253  34.197  44.986   4.840
77845W        W44254  29.001  32.500   1.363
77846W        W44255   7.652   7.779  10.785
77847W        W44256  12.219   8.968   1.841
77848W        W44257  15.173   5.121   4.087
77849W        W44258   0.159   8.391   0.316
77850W        W44259   6.610  27.824   0.945
77851W        W44260   6.516   1.223   4.222
77852W        W44261   4.677  13.656  10.765
77853W        W44262  36.941   0.511  13.024
77854W        W44263  24.338  42.981   1.349
77855W        W44264   6.415  40.024   2.387
77856W        W44265  40.430  19.793  11.405
77857W        W44266  29.652  36.056  13.377
77858W        W44267  40.638   5.303   2.961
77859W        W44268  35.096  15.197   1.969
77860W        W44269   9.022  35.931   2.047
77861W        W44270  21.008  12.544  11.635
77862W        W44271  29.019  40.305   4.290
77863W        W44272  28.978  21.511   0.370
77864W        W44273  43.859  13.471  11.679
77865W        W44274  16.628  18.636   1.449
77866W        W44275  10.467   2.722   3.748
77867W        W44276  20.978   9.486   0.229
77868W        W44277  16.146   8.618   3.228
77869W        W44278  21.584  31.105  13.164
77870W        W44279  31.186  16.809  14.894
77871W        W44280  43.917  21.578   0.400
77872W        W44281  25.084  23.265   1.762
77873W        W44282  38.034  22.225   4.917
77874W        W44283   0.945  22.602  12.929
77875W        W44284   3.510  19.626  12.182
77876W        W44285   1.658  43.925   3.269
77877W        W44286  40.031  25.115   3.128
77878W        W44287  13.296  42.754   0.351
77879W        W44288  11.194  42.455   1.387
77880W        W44289   3.954  24.410  14.529
77881W        W44290  29.678   6.999  12.465
77882W        W44291  35.382   5.943  12.412
77883W        W44292  24.258  38.148   0.060
77884W        W44293  10.800  38.033  11.575
77885W        W44294   7.421  42.001  11.147
77886W        W44295  18.002  43.029   0.300
77887W        W44296  29.936  40.352  11.612
77888W        W44297   7.426  17.375  13.480
77889W        W44298  40.468  15.852  14.903
77890W        W44299   8.712  44.711   2.650
77891W        W44300   1.796   0.269  11.885
77892W        W44301   3.300  23.780  10.170
77893W        W44302  28.105  24.423   2.762
77894W        W44303  20.170  29.727   3.593
77895W        W44304  40.572  22.193  10.183
77896W        W44305  44.482  41.901  13.784
77897W        W44306   2.495  10.090   0.406
77898W        W44307  11.958  37.303   5.522
77899W        W44308  15.439   7.370  12.919
77900W        W44309  30.930  18.819   0.711
77901W        W44310  42.580  28.038   2.334
77902W        W44311  42.780  21.634   1.153
77903W        W44312   8.613  33.045  14.375
77904W        W44313  13.601  27.751   3.049
77905W        W44314  34.797  28.302  12.492
77906W        W44315   6.808   4.722   4.451
77907W        W44316  30.354   2.306   4.510
77908W        W44317  16.768  35.600  11.941
77909W        W44318  15.842  31.614  13.516
77910W        W44319  31.143  44.698  13.993
77911W        W44320  31.065  14.680  12.392
77912W        W44321  23.271  31.193   1.857
77913W        W44322  38.268   3.499   2.291
77914W        W44323  23.992   6.319  12.961
77915W        W44324  33.885  23.025  14.667
77916W        W44325  30.015   6.496  12.995
77917W        W44326  13.378  33.351  11.320
77918W        W44327  27.152  31.002   4.649
77919W        W44328  15.216  15.233  14.541
77920W        W44329  22.037  36.147   1.726
77921W        W44330  20.673  17.666   1.189
77922W        W44331  28.680  14.268   4.073
77923W        W44332  37.867   8.215   2.791
77924W        W44333  23.477  24.511  11.937
77925W        W44334   6.768  38.958   0.562
77926W        W44335  21.000  20.401   0.921
77927W        W44336   3.253  26.024   0.852
77928W        W44337  11.589  34.323   1.756
77929W        W44338  27.092  25.339   4.516
77930W        W44339  15.153  38.314   0.420
77931W        W44340  12.851  38.350   1.833
77932W        W44341  35.592   1.218  11.094
77933W        W44342   5.776  41.444   1.728
77934W        W44343  25.057  19.669   5.015
77935W        W44344  28.574   0.760  10.531
77936W        W44345   0.227  27.770  13.980
77937W        W44346  24.288  27.106   2.411
77938W        W44347   2.404  36.478   0.273
77939W        W44348   7.662  44.521  14.765
77940W        W44349  17.129  40.007  13.642
77941W        W44350  14.514   1.297  11.387
77942W        W44351  30.180  40.463  12.968
77943W        W44352  37.121  29.226   1.756
77944W        W44353   1.114  18.306  11.568
77945W        W44354  43.467  20.991   5.024
77946W        W44355  38.888   2.339  11.988
77947W        W44356  42.572   8.590   0.719
77948W        W44357  31.830  39.294  14.827
77949W        W44358  31.919  33.567  14.029
77950W        W44359  31.305  17.290   3.160
77951W        W44360  36.119  40.986  10.578
77952W        W44361  18.770   2.774   2.343
77953W        W44362  44.282  15.678  14.841
77954W        W44363  11.188  19.587   3.642
77955W        W44364   1.356  20.444   1.021
77956W        W44365  22.177  10.192   4.896
77957W        W44366  42.781   1.227  12.624
77958W        W44367  36.335  11.336   2.164
77959W        W44368  21.707  12.519   2.506
77960W        W44369  34.992  39.761   3.226
77961W        W44370  35.895  36.645   2.865
77962W        W44371   3.726  14.714   2.218
77963W        W44372  37.933   6.636   2.848
77964W        W44373  23.647  18.383  13.153
77965W        W44374  14.862   2.368  13.015
77966W        W44375  12.341  15.261   3.270
77967W        W44376  25.010  42.303  11.613
77968W        W44377  20.571   4.749   4.049
77969W        W44378  34.095  43.552   2.424
77970W        W44379   7.655  11.397   2.769
77971W        W44380  27.450  13.387   0.698
77972W        W44381  27.389  41.314  14.371
77973W        W44382  36.337   7.911  11.542
77974W        W44383  13.731  40.028  12.657
77975W        W44384  39.361   4.973  13.347
77976W        W44385  25.637  14.296  14.787
77977W        W44386  26.965   1.157   0.416
77978W        W44387  44.368  42.106   3.104
77979W        W44388  38.850  11.491   4.612
77980W        W44389  14.613  38.570   2.142
77981W        W44390  20.001  25.377  12.538
77982W        W44391  38.092  32.051   3.641
77983W        W44392  23.302  32.307  11.186
77984W        W44393  32.122  21.260  11.260
77985W        W44394  24.021  23.582  14.555
77986W        W44395   4.166   8.279  12.020
77987W        W44396  24.614   6.440  11.265
77988W        W44397  12.900  39.919   1.313
77989W        W44398  22.243  18.610  11.262
77990W        W44399  15.304  16.535  12.389
77991W        W44400  40.733  36.493   4.401
77992W        W44401  42.432  42.133   3.788
77993W        W44402  12.689  33.822  10.699
77994W        W44403   2.112  44.395  12.116
77995W        W44404  38.779  25.445   3.204
77996W        W44405  11.816   9.570  12.491
77997W        W44406  38.639  25.700  13.898
77998W        W44407  27.748  12.692  13.838
77999W        W44408   8.637  21.137   2.466
78000W        W44409  13.265   2.605  12.936
78001W        W44410  15.090  30.654   0.037
78002W        W44411   9.593  43.997  13.511
78003W        W44412  43.955  44.490  11.079
78004W        W44413  40.504   8.495  13.804
78005W        W44414  29.737  40.638  14.337
78006W        W44415  34.157  13.121   3.123
78007W        W44416  11.811  22.252  14.851
78008W        W44417   6.357  32.777   3.160
78009W        W44418  30.073   4.428  10.538
78010W        W44419   7.414  33.666   3.293
78011W        W44420  21.171  31.007  11.124
78012W        W44421  11.640  33.488  14.824
78013W        W44422  32.208  24.406   0.760
78014W        W44423   6.798  34.054   2.748
78015W        W44424  33.055   2.191   1.687
78016W        W44425  13.823  35.537  13.065
78017W        W44426  38.185   5.084  14.254
78018W        W44427  35.980   3.444   4.361
78019W        W44428   7.299   1.321   2.784
78020W        W44429  16.623  10.163   0.481
78021W        W44430  13.340  21.450  12.568
78022W        W44431  12.167  19.444   4.728
78023W        W44432  31.883  29.136   1.017
78024W        W44433  39.088  37.524   0.183
78025W        W44434  30.060  31.481   1.471
78026W        W44435   7.632  27.823  11.708
78027W        W44436  24.248   3.030   1.248
78028W        W44437  14.282  18.463  11.099
78029W        W44438  13.748  27.672  13.047
78030W        W44439   8.832  39.638  13.646
78031W        W44440  29.598  29.575  11.616
78032W        W44441  43.823   9.388   1.711
78033W        W44442  24.651  31.218   1.229
78034W        W44443  18.137  32.693   4.180
78035W        W44444  37.395  29.002  14.883
78036W        W44445  36.886  33.292   2.325
78037W        W44446  30.161   5.131   1.332
78038W        W44447  26.420  17.582  13.737
78039W        W44448  11.170  32.499   1.495
78040W        W44449  20.890   9.700   0.709
78041W        W44450   0.987  25.252   0.830
78042W        W44451  12.150  18.575  11.549
78043W        W44452  20.676  41.570   3.663
78044W        W44453  30.004  24.019   2.646
78045W        W44454   1.336  25.190   0.293
78046W        W44455  24.756  30.466   2.791
78047W        W44456  43.042  32.389  10.971
78048W        W44457  39.034  41.024  12.364
78049W        W44458  41.909  42.675   3.461
78050W        W44459  16.496   7.230  12.093
78051W        W44460   4.532  38.363   2.618
78052W        W44461   1.372  38.033  11.948
78053W        W44462  44.673  32.229   3.725
78054W        W44463  40.014   1.453   1.748
78055W        W44464  32.784  22.974   0.071
78056W        W44465  28.632  27.190  14.871
78057W        W44466  24.748  38.045   1.226
78058W        W44467  28.137  37.444  11.047
78059W        W44468  14.967   3.251  13.957
78060W        W44469  16.971  10.358  13.907
78061W        W44470   5.775   8.260  11.479
78062W        W44471  32.958  23.530   1.785
78063W        W44472  25.449  44.304  12.433
78064W        W44473  26.720  32.095   1.467
78065W        W44474  20.787  10.841  12.492
78066W        W44475   6.348  32.029   2.554
78067W        W44476  32.854   9.857  13.244
78068W        W44477   3.997  29.043  13.512
78069W        W44478  21.787  22.940   4.422
78070W        W44479  33.152   4.933   1.811
78071W        W44480  22.929   1.918   4.958
78072W        W44481  18.374  13.664   1.236
78073W        W44482  22.983   9.871   0.001
78074W        W44483   7.180  22.872   5.227
78075W        W44484  22.156  18.948  14.044
78076W        W44485  32.612  15.849  12.332
78077W        W44486  17.822   0.515   2.263
78078W        W44487  30.157  29.152  13.556
78079W        W44488  33.388   0.209  11.676
78080W        W44489  29.760  18.408   4.271
78081W        W44490  11.288  26.201   2.819
78082W        W44491  10.809  24.178  13.494
78083W        W44492   9.718  10.437  14.068
78084W        W44493   2.387   8.701   2.957
78085W        W44494   9.224  38.338   3.290
78086W        W44495  30.119  36.480  12.518
78087W        W44496   4.177  20.160   2.890
78088W        W44497  11.681  40.027   0.962
78089W        W44498  14.236  16.771   1.731
78090W        W44499   8.280  36.819   0.765
78091W        W44500  28.941  30.038   1.226
78092W        W44501  38.116  39.884  10.396
78093W        W44502  24.753  26.013  10.413
78094W        W44503  36.890  38.866   2.963
78095W        W44504   2.235  17.325   1.835
78096W        W44505  12.401  13.824   4.039
78097W        W44506  22.098  21.269   5.077
78098W        W44507  40.488  28.183  12.252
78099W        W44508  28.862   1.803   4.554
78100W        W44509  12.092  16.821   0.295
78101W        W44510   5.660  33.590   0.423
78102W        W44511  31.652  17.257   1.792
78103W        W44512  25.667   9.109  11.932
78104W        W44513  12.636  12.096   0.312
78105W        W44514   2.464   1.502   4.664
78106W        W44515  31.851  24.003  14.318
78107W        W44516  33.409  16.165   4.277
78108W        W44517  13.479  35.313   0.304
78109W        W44518   0.063  37.535  12.974
78110W        W44519  32.527  16.681   4.180
78111W        W44520  20.720   6.662  13.732
78112W        W44521   8.461  33.999   4.280
78113W        W44522  37.078  12.528  12.693
78114W        W44523  18.435   7.439   4.605
78115W        W44524  32.343   1.249   9.778
78116W        W44525  41.318  22.966   2.665
78117W        W44526   2.205   9.435  11.154
78118W        W44527   8.826  23.804  11.523
78119W        W44528  39.400   7.795  12.352
78120W        W44529  41.135  37.254  13.459
78121W        W44530  11.786  24.224  12.059
78122W        W44531  13.785   5.636   2.690
78123W        W44532  28.668  36.800   0.674
78124W        W44533   1.705   8.009  14.533
78125W        W44534  37.383  14.575   2.445
78126W        W44535  16.590  12.852   0.663
78127W        W44536  16.076  35.256  11.565
78128W        W44537   0.720  20.604   2.720
78129W        W44538  15.299  29.453   0.466
78130W        W44539  10.925   0.780  12.485
78131W        W44540  18.497  38.333   5.050
78132W        W44541  19.596  12.347  13.536
78133W        W44542  24.608  14.416   2.582
78134W        W44543   7.145  43.929  12.330
78135W        W44544  15.497  16.650  12.951
78136W        W44545  11.368  17.253   2.472
78137W        W44546   7.386  26.629  12.475
78138W        W44547  12.996   1.432  10.165
78139W        W44548   1.528  15.576  13.513
78140W        W44549  30.102  41.740  11.108
78141W        W44550  12.570  12.248   3.349
78142W        W44551   5.680  42.412   1.646
78143W        W44552  28.404  29.464  11.073
78144W        W44553   5.910   7.192  11.646
78145W        W44554  41.800   3.651   0.950
78146W        W44555  11.267   6.303  13.871
78147W        W44556  12.718  43.996   2.153
78148W        W44557  41.283  42.688  12.589
78149W        W44558  44.408   0.168   0.337
78150W        W44559   2.364  15.214   4.503
78151W        W44560   9.664  32.101   3.638
78152W        W44561  22.163  16.633   0.447
78153W        W44562  23.515   1.291   0.866
78154W        W44563  17.409  30.848   3.272
78155W        W44564  22.179  23.768   3.269
78156W        W44565  31.724  35.893   4.607
78157W        W44566  33.821  23.322  11.182
78158W        W44567   1.506   0.915  13.334
78159W        W44568   7.821  16.039  10.034
78160W        W44569  38.636   5.302   2.793
78161W        W44570  37.619  28.552   0.032
78162W        W44571   9.828  28.636   1.517
78163W        W44572  15.009  40.281   3.581
78164W        W44573  44.761  14.249  11.656
78165W        W44574  14.334   3.889  10.602
78166W        W44575   6.919   2.493  13.535
78167W        W44576   1.890   0.258   3.224
78168W        W44577  37.778  16.927   3.443
78169W        W44578  44.898  34.943   4.753
78170W        W44579  27.345   7.874  11.192
78171W        W44580   8.742  33.350  13.779
78172W        W44581  41.400  34.395  13.498
78173W        W44582  31.406   9.445  14.925
78174W        W44583  35.918  44.395  12.221
78175W        W44584  15.063  43.998  14.245
78176W        W44585   9.578  18.042   1.943
78177W        W44586  36.512  17.008   4.161
78178W        W44587  40.530   5.402  14.985
78179W        W44588   2.783   1.349  12.247
78180W        W44589  26.717  39.422  14.392
78181W        W44590  31.284  40.049   4.454
78182W        W44591   5.899  25.977  11.639
78183W        W44592  33.215   7.201   3.214
78184W        W44593  25.689  20.000   1.805
78185W        W44594  37.052   4.682  10.609
78186W        W44595  13.553  24.001  14.382
78187W        W44596  38.776   5.883  11.485
78188W        W44597  26.444  31.435   1.972
78189W        W44598  40.948   0.496   0.268
78190W        W44599  38.055   3.174   0.282
78191W        W44600  16.634  22.159  10.529
78192W        W44601  42.129  15.777  10.319
78193W        W44602  41.374  13.188  10.779
78194W        W44603  14.077  10.856   3.614
78195W        W44604  13.828  10.842  14.375
78196W        W44605   2.768  31.680   4.605
78197W        W44606   2.470  24.616  10.676
78198W        W44607  39.862  18.822  14.112
78199W        W44608  13.606  38.530   1.320
78200W        W44609   5.791  18.406   2.275
78201W        W44610  10.299  36.594  12.887
78202W        W44611   0.190   2.358  11.165
78203W        W44612   1.823  18.275   0.333
78204W        W44613  20.195  31.375   1.690
78205W        W44614  34.921  36.163   1.361
78206W        W44615  26.462  13.569   3.443
78207W        W44616  36.144  34.477  11.198
78208W        W44617   6.054  34.865   3.308
78209W        W44618   5.239  39.661  14.238
78210W        W44619  15.353  30.443  14.357
78211W        W44620  10.898   4.745  14.440
78212W        W44621  20.611  17.046   0.416
78213W        W44622  12.972  23.144  14.318
78214W        W44623  40.764  10.931   4.446
78215W        W44624  26.117   3.229   1.677
78216W        W44625  16.162  38.969   2.246
78217W        W44626  25.548  42.770  13.457
78218W        W44627  40.465  37.094  13.932
78219W        W44628  36.818  32.440  14.832
78220W        W44629   6.277  22.614  13.006
78221W        W44630  20.452  40.654   2.318
78222W        W44631  36.012  31.513   4.501
78223W        W44632   8.894  17.959   1.011
78224W        W44633  17.201   7.877   4.070
78225W        W44634   6.363  20.688  13.452
78226W        W44635  24.017  30.899   3.300
78227W        W44636  32.293  28.947  14.230
78228W        W44637  25.500  24.075  14.854
78229W        W44638  29.096   6.228   4.681
78230W        W44639  15.844  28.684  14.306
78231W        W44640   6.763  38.390  12.103
78232W        W44641  26.733  38.644  13.860
78233W        W44642   8.680  11.584   3.356
78234W        W44643  18.524  13.603   3.649
78235W        W44644  37.399   9.668  14.333
78236W        W44645   3.728  42.140   3.894
78237W        W44646  12.747  38.072   0.372
78238W        W44647  30.619   9.570   4.880
78239W        W44648  41.194  43.757   0.383
78240W        W44649  36.890  18.207  12.558
78241W        W44650  39.947  41.293  11.049
78242W        W44651  43.570  30.171  12.140
78243W        W44652  13.711  22.366   4.508
78244W        W44653  11.011  24.466  12.970
78245W        W44654   1.275   1.388  13.284
78246W        W44655  38.502  27.492   1.844
78247W        W44656  39.374  23.597  14.573
78248W        W44657  19.547  36.749   3.132
78249W        W44658  39.810  34.024  13.428
78250W        W44659  40.387  37.744  10.115
78251W        W44660  16.279  23.758   2.888
78252W        W44661   1.582   1.485  11.178
78253W        W44662  11.807  37.241  11.935
78254W        W44663  38.776  43.790   1.969
78255W        W44664  16.569  16.229  12.404
78256W        W44665  37.251  29.610  10.955
78257W        W44666   4.427  28.516  10.959
78258W        W44667  15.111  17.159   3.739
78259W        W44668   2.255  37.940  13.860
78260W        W44669  39.314  13.624   3.777
78261W        W44670  11.449  18.178   2.218
78262W        W44671   7.812  20.190   3.777
78263W        W44672  42.787  18.720   1.616
78264W        W44673   1.191  39.439  12.548
78265W        W44674  40.071  12.776   0.097
78266W        W44675  15.800  12.135   4.995
78267W        W44676  26.013  26.711   0.960
78268W        W44677  24.799   2.753   1.193
78269W        W44678  18.228  42.689  11.917
78270W        W44679  36.121  19.447   2.043
78271W        W44680   1.817  36.324  12.562
78272W        W44681  13.448   7.524   5.066
78273W        W44682   3.952  11.727  11.579
78274W        W44683  31.851  36.635   3.728
78275W        W44684  12.314  37.695  11.120
78276W        W44685  14.607  14.018  13.414
78277W        W44686  39.347  18.602  13.140
78278W        W44687  19.815  10.689  11.148
78279W        W44688  22.849  31.834  11.344
78280W        W44689   6.453  29.120  11.071
78281W        W44690  42.965  23.012  12.115
78282W        W44691  37.792   1.713  14.401
78283W        W44692  37.274  26.927  14.328
78284W        W44693  36.967   6.298  10.623
78285W        W44694   7.647   5.853   4.143
78286W        W44695  27.928  18.946  13.677
78287W        W44696  26.135  25.698  14.120
78288W        W44697  33.799   5.462  12.965
78289W        W44698  24.619  34.687   3.275
78290W        W44699  10.497  38.897  13.588
78291W        W44700  14.494  17.514   0.905
78292W        W44701   5.705  36.503  11.385
78293W        W44702  30.923  23.046   1.770
78294W        W44703  37.404   1.775   0.749
78295W        W44704  25.221  44.901   3.531
78296W        W44705  33.989  22.224   3.119
78297W        W44706  33.831   4.513  12.075
78298W        W44707  38.334  33.905   4.117
78299W        W44708  43.448  25.310  12.189
78300W        W44709  12.464  20.941   3.860
78301W        W44710  27.342  31.752   2.704
78302W        W44711  41.423   8.946   1.459
78303W        W44712   5.703  26.815   2.097
78304W        W44713  34.961   6.661   3.283
78305W        W44714  39.092  15.543   4.204
78306W        W44715  11.143  28.883  14.776
78307W        W44716  24.486  32.092  10.786
78308W        W44717  20.112  29.434   3.161
78309W        W44718  36.615  31.269   0.279
78310W        W44719  44.540   1.419   0.427
78311W        W44720  24.424   0.514  10.813
78312W        W44721   8.674  41.396   0.755
78313W        W44722  24.434  21.869  11.693
78314W        W44723  15.673  33.107  11.917
78315W        W44724  17.555   1.407  12.629
78316W        W44725  14.256  23.725   1.069
78317W        W44726   5.961  37.863  11.583
78318W        W44727   2.254   1.165  13.449
78319W        W44728  29.643  40.526   4.461
78320W        W44729   9.841   8.885   2.596
78321W        W44730  19.029   2.188   0.028
78322W        W44731  40.940  44.728   2.359
78323W        W44732  18.001  28.228   1.411
78324W        W44733   0.898   9.921  10.619
78325W        W44734  21.605  42.168  12.916
78326W        W44735   8.077   2.337  14.454
78327W        W44736  28.591  30.919  14.415
78328W        W44737  23.164  22.205  13.934
78329W        W44738  36.024  25.264   1.319
78330W        W44739  24.098  44.689   3.172
78331W        W44740  28.969  22.169   1.438
78332W        W44741  23.317  16.824  14.051
78333W        W44742  36.862  33.505  10.457
78334W        W44743  11.000  27.413   3.293
78335W        W44744  15.350  34.509   1.364
78336W        W44745  44.920   3.631   0.946
78337W        W44746  22.515  32.022   3.181
78338W        W44747   8.617  26.441   1.235
78339W        W44748  30.014  10.971  12.483
78340W        W44749   2.674   7.128   3.625
78341W        W44750  15.648   3.053   4.341
78342W        W44751  44.228  37.462  14.105
78343W        W44752  32.654   2.982   1.900
78344W        W44753   4.916  29.166  14.211
78345W        W44754   3.445   0.824  10.477
78346W        W44755  43.447  26.214  13.872
78347W        W44756  20.007  44.267  11.992
78348W        W44757  10.115  14.115  14.428
78349W        W44758  13.401  13.253   1.790
78350W        W44759   8.144  34.015  13.873
78351W        W44760  15.752  18.191  14.108
78352W        W44761   2.936  32.172  12.584
78353W        W44762  36.210  29.586   2.119
78354W        W44763  25.091   7.440  10.693
78355W        W44764  44.400  29.405   1.354
78356W        W44765  36.301  12.298   4.897
78357W        W44766  20.732  38.433  13.973
78358W        W44767  12.419  36.931   4.058
78359W        W44768  31.438   1.211   2.221
78360W        W44769  28.075  22.741  13.928
78361W        W44770   3.154  40.085   0.025
78362W        W44771  24.247  24.181   0.416
78363W        W44772  43.779  30.058  11.683
78364W        W44773  43.511  15.121   3.581
78365W        W44774   0.960  18.733  10.779
78366W        W44775  11.672  37.444   2.073
78367W        W44776  31.431  13.198   0.719
78368W        W44777   8.933  10.685   1.431
78369W        W44778  41.889   9.254  12.007
78370W        W44779  28.955   1.755  12.072
78371W        W44780  39.314   0.316  10.481
78372W        W44781  23.936  10.845   0.920
78373W        W44782   7.288  36.795  11.490
78374W        W44783  34.184  12.323  13.993
78375W        W44784   1.520  44.749   0.784
78376W        W44785  44.709   3.179   0.715
78377W        W44786  44.401  30.612  14.671
78378W        W44787  25.885  15.792  14.521
78379W        W44788  25.888  40.251  13.796
78380W        W44789  15.664  22.507   5.418
78381W        W44790  24.133  26.653  13.099
78382W        W44791  43.999  18.051  13.820
78383W        W44792  14.783  38.019   0.202
78384W        W44793   4.170  36.055   1.789
78385W        W44794  29.212  31.840   1.738
78386W        W44795  24.476  27.665   2.728
78387W        W44796   5.761   0.521   0.736
78388W        W44797  12.438  25.520  10.613
78389W        W44798  23.153  39.828  14.984
78390W        W44799  24.593  25.085  13.797
78391W        W44800  26.495   4.050  10.474
78392W        W44801   9.364  30.650   3.217
78393W        W44802  17.602  36.441   3.339
78394W        W44803  33.338  10.264   3.343
78395W        W44804  34.438  31.067   1.886
78396W        W44805  38.658  16.192  10.171
78397W        W44806  42.717  18.165  14.885
78398W        W44807   1.981   9.365  13.997
78399W        W44808  21.863   1.824  13.821
78400W        W44809  14.149  16.558   2.206
78401W        W44810   4.242  14.596  13.380
78402W        W44811   2.016  24.411  13.486
78403W        W44812   1.833   7.490  14.087
78404W        W44813  33.373  15.761  14.933
78405W        W44814  38.591  16.740  12.426
78406W        W44815   9.151   0.242  14.461
78407W        W44816  43.199  26.268  10.192
78408W        W44817  22.387   3.477   1.306
78409W        W44818  12.262  18.714   2.658
78410W        W44819  15.678  35.226   5.011
78411W        W44820   4.295  17.526  13.804
78412W        W44821  23.972   3.679  13.535
78413W        W44822  31.500  34.771  14.957
78414W        W44823   5.900  17.727  10.966
78415W        W44824  17.205  44.214  11.528
78416W        W44825  37.044   5.826   0.349
78417W        W44826  23.596   0.003  12.637
78418W        W44827  29.902  14.567  14.707
78419W        W44828  20.725   8.455  12.375
78420W        W44829  26.667  34.932  14.511
78421W        W44830  42.809  31.660   0.265
78422W        W44831  12.104  42.274   4.147
78423W        W44832  32.315   7.578   2.691
78424W        W44833  29.141  23.874   2.097
78425W        W44834  37.407  31.313  12.938
78426W        W44835   9.422  30.272   9.529
78427W        W44836  19.358  27.111  14.399
78428W        W44837  12.310  17.691  13.109
78429W        W44838  15.710  28.329  11.162
78430W        W44839   6.781  14.086  12.623
78431W        W44840  33.101  20.185   4.229
78432W        W44841  30.140  18.185   3.001
78433W        W44842   9.174   4.801  12.143
78434W        W44843   0.448   7.158  10.877
78435W        W44844  36.835  36.542   0.252
78436W        W44845  42.306  23.685  11.160
78437W        W44846  36.530  39.275  13.856
78438W        W44847   4.857  39.427   3.577
78439W        W44848  42.466  19.459  12.485
78440W        W44849  18.145  30.121  11.959
78441W        W44850  29.575  17.227   1.281
78442W        W44851  39.860  31.676   2.384
78443W        W44852  17.086   0.173   0.919
78444W        W44853  20.915   1.848  13.009
78445W        W44854  10.663  39.883  12.512
78446W        W44855  41.907   6.843   0.837
78447W        W44856  20.053  11.349   2.319
78448W        W44857  28.936  34.297  14.210
78449W        W44858  31.157   7.159  11.222
78450W        W44859  35.485  16.278  13.797
78451W        W44860  41.997  30.917  14.950
78452W        W44861  36.624  43.974  12.026
78453W        W44862  11.260  40.663   4.109
78454W        W44863  26.381  10.706   4.645
78455W        W44864  41.245   9.200  14.689
78456W        W44865  36.346  22.418  14.411
78457W        W44866  21.601   0.725   3.563
78458W        W44867  42.296  11.419  11.607
78459W        W44868   2.480  32.349  12.830
78460W        W44869  29.602   3.645   5.059
78461W        W44870  39.622  14.000  10.459
78462W        W44871   3.348  19.743  13.921
78463W        W44872  30.034   2.841  10.659
78464W        W44873  19.947  29.017   2.257
78465W        W44874  35.508  39.941   1.265
78466W        W44875   2.720  42.441  11.666
78467W        W44876  33.662  16.078  13.890
78468W        W44877  42.595   7.914  11.957
78469W        W44878   9.714  37.830   2.258
78470W        W44879  27.559  10.368   0.924
78471W        W44880  17.029   1.336   9.633
78472W        W44881  28.530  12.534   2.235
78473W        W44882  10.874   4.924   1.767
78474W        W44883  19.385  11.174  12.569
78475W        W44884  21.957  12.148  14.377
78476W        W44885  24.741  10.664   3.125
78477W        W44886  17.700  22.997  12.528
78478W        W44887  32.853  29.157  13.547
78479W        W44888  18.122  32.880  14.312
78480W        W44889   6.240  35.709  14.683
78481W        W44890  39.022   6.628   0.218
78482W        W44891  17.266  41.853  11.838
78483W        W44892  36.150  23.119  14.174
78484W        W44893  28.383  29.525  13.450
78485W        W44894  16.131  42.044  12.405
78486W        W44895  31.437  41.117   3.026
78487W        W44896   7.362  27.505   4.471
78488W        W44897  27.526  37.922   1.838
78489W        W44898  21.054   7.167  13.317
78490W        W44899  17.901  40.401   5.059
78491W        W44900  11.186  17.225  11.091
78492W        W44901  10.886  24.743  14.404
78493W        W44902  12.696  36.321   0.380
78494W        W44903  11.900  10.094   2.785
78495W        W44904  24.938  36.785  14.530
78496W        W44905   1.453  34.849  12.503
78497W        W44906  33.516   3.901   2.165
78498W        W44907  44.712  43.526  13.308
78499W        W44908   4.635   6.870  14.736
78500W        W44909  36.545  21.144   2.827
78501W        W44910   6.602  40.750  13.009
78502W        W44911  31.705  44.920   4.614
78503W        W44912   9.778  44.098  10.290
78504W        W44913  10.736  30.472   4.300
78505W        W44914  23.948   0.766   5.019
78506W        W44915  29.918   5.289   4.549
78507W        W44916  11.964  15.291  10.575
78508W        W44917  36.074  18.600   1.936
78509W        W44918  39.583  33.240  12.113
78510W        W44919  19.587   1.422   1.872
78511W        W44920  43.592  24.358  11.983
78512W        W44921  32.939  32.192   0.162
78513W        W44922   2.869  35.594   4.607
78514W        W44923  43.502  28.523  14.456
78515W        W44924  32.582   6.774  10.241
78516W        W44925  12.912  34.926   3.740
78517W        W44926  12.280  28.644  14.152
78518W        W44927  19.782  18.148   4.694
78519W        W44928   1.437  10.443  11.117
78520W        W44929  26.034  42.142  10.610
78521W        W44930   0.482   8.010   1.992
78522W        W44931   6.439   8.624   4.059
78523W        W44932   5.761  29.469   1.332
78524W        W44933  44.802  43.181   2.217
78525W        W44934  21.955  23.304  12.843
78526W        W44935   4.887  28.635  11.164
78527W        W44936  38.103  24.067   1.932
78528W        W44937   5.729  14.698  10.665
78529W        W44938   1.555   5.379  12.114
78530W        W44939   8.411  20.003   3.678
78531W        W44940  37.578  35.670   4.064
78532W        W44941  12.623  26.970   3.313
78533W        W44942  27.759  27.669   0.435
78534W        W44943  41.799  16.874  10.287
78535W        W44944   0.684  24.707   1.684
78536W        W44945   2.827  10.837   1.683
78537W        W44946  42.244  28.672   3.740
78538W        W44947  34.443  38.500  10.957
78539W        W44948  34.585  42.340   0.719
78540W        W44949  39.469  27.003  13.786
78541W        W44950   4.803  33.208   3.635
78542W        W44951   5.243  30.204  14.993
78543W        W44952  12.072   1.607   9.884
78544W        W44953  32.943  14.125  12.600
78545W        W44954  30.815  30.475   2.760
78546W        W44955   3.686  39.927  11.949
78547W        W44956   0.228   3.960  14.623
78548W        W44957   2.390   0.427  12.999
78549W        W44958  42.689  34.131  11.980
78550W        W44959   3.481  14.661  11.086
78551W        W44960  28.540  43.900  13.507
78552W        W44961  37.526   3.769   1.811
78553W        W44962  38.533  10.729  11.458
78554W        W44963  21.206  21.219   4.583
78555W        W44964  15.276  21.817  10.659
78556W        W44965  43.021   6.430   1.371
78557W        W44966  10.525   2.257   4.517
78558W        W44967  15.579  41.424   4.853
78559W        W44968  32.309   4.939   5.410
78560W        W44969   4.702  22.026   3.677
78561W        W44970  10.795   0.790   2.251
78562W        W44971  17.477  31.401   4.036
78563W        W44972  40.825  12.694   2.765
78564W        W44973  44.466   3.755  13.788
78565W        W44974  23.622  18.725  14.239
78566W        W44975  28.427  43.152   3.815
78567W        W44976  34.506  28.136  11.251
78568W        W44977  35.662   7.690   4.194
78569W        W44978  17.568  15.230  12.520
78570W        W44979  32.914  22.562  11.004
78571W        W44980   4.078  39.167  11.168
78572W        W44981  24.998  10.831  14.858
78573W        W44982  35.434  36.596  10.719
78574W        W44983  35.870   0.241   2.802
78575W        W44984  42.447  14.379  13.436
78576W        W44985  36.908  44.228  13.811
78577W        W44986   3.980  34.681  11.144
78578W        W44987  30.855  21.615  12.892
78579W        W44988   1.456  44.380   1.804
78580W        W44989   3.350  31.238  12.472
78581W        W44990  42.749   4.348  11.513
78582W        W44991  30.010   9.262   0.276
78583W        W44992  30.104  43.695   1.401
78584W        W44993  20.515  13.164  14.314
78585W        W44994  24.616  27.670   1.797
78586W        W44995  35.772  36.510  13.856
78587W        W44996  33.964  43.092   0.120
78588W        W44997  10.378  43.399  14.412
78589W        W44998   4.057  29.685  11.469
78590W        W44999  41.762   7.916  13.306
78591W        W45000  32.201   3.406  14.303
78592W        W45001  14.351  20.345   1.598
78593W        W45002   5.946  42.457   0.778
78594W        W45003  15.579  19.613   0.725
78595W        W45004  32.321   6.030  13.449
78596W        W45005  15.850  29.022   1.413
78597W        W45006  35.327  39.487   1.456
78598W        W45007  11.219  34.882  14.623
78599W        W45008  31.974  35.285  12.913
78600W        W45009  29.965  22.478  12.437
78601W        W45010  30.566  43.384  12.072
78602W        W45011  17.811   7.430   1.838
78603W        W45012  31.996  28.435  14.405
78604W        W45013  40.818   8.431   0.830
78605W        W45014  23.877  33.118   3.403
78606W        W45015  24.245  21.941  14.888
78607W        W45016  40.241  42.568  14.361
78608W        W45017  13.768  15.587  14.948
78609W        W45018  26.510  18.739   3.688
78610W        W45019  23.005   1.429   4.752
78611W        W45020  42.463  35.192  13.097
78612W        W45021   9.647  27.546   1.480
78613W        W45022  18.314  22.551   2.089
78614W        W45023  22.938  26.934  13.430
78615W        W45024  14.795   7.344   1.466
78616W        W45025   0.825  27.194  12.049
78617W        W45026  16.365  19.042   0.501
78618W        W45027   4.226  20.250   3.823
78619W        W45028  38.942  43.500   0.174
78620W        W45029  36.359   3.259   2.238
78621W        W45030  15.171  16.437   2.067
78622W        W45031   8.267  17.240   1.311
78623W        W45032  10.945  10.405   2.483
78624W        W45033   1.210  14.362   5.206
78625W        W45034  16.038  41.101  12.307
78626W        W45035  42.340  18.231  12.933
78627W        W45036  37.927  16.447  12.890
78628W        W45037  18.580  31.636   4.614
78629W        W45038  38.463  19.453  11.549
78630W        W45039  42.496   2.187   3.769
78631W        W45040  36.992  22.942   4.174
78632W        W45041  14.227  44.509  14.392
78633W        W45042  21.183  17.969  11.894
78634W        W45043  26.353  35.937  12.427
78635W        W45044  27.545  19.979   3.220
78636W        W45045  22.604   1.408  14.385
78637W        W45046  23.011   5.613  13.461
78638W        W45047  33.481  15.007   0.994
78639W        W45048  34.952  34.665  10.855
78640W        W45049  36.454  10.760   3.372
78641W        W45050  33.998  41.606  11.161
78642W        W45051  35.616  41.057   3.373
78643W        W45052   7.432  44.225   2.837
78644W        W45053  26.945   6.412   2.136
78645W        W45054  19.592   5.980  12.559
78646W        W45055  11.287  44.128   0.409
78647W        W45056   7.874  19.476   0.197
78648W        W45057  36.833  40.462   1.344
78649W        W45058  17.505   1.327   0.476
78650W        W45059  16.464  41.664   5.041
78651W        W45060   4.428  18.397  10.937
78652W        W45061  23.559   2.145   0.719
78653W        W45062  14.625   6.758  12.105
78654W        W45063  18.963   0.432   0.528
78655W        W45064  20.384   7.749  14.859
78656W        W45065  16.187  37.020   2.780
78657W        W45066  12.978  31.537   1.331
78658W        W45067  42.371  25.245   3.294
78659W        W45068  42.881  15.521   3.112
78660W        W45069  26.475  20.679  12.611
78661W        W45070  42.801  34.466   0.100
78662W        W45071  14.755  29.082   3.681
78663W        W45072   9.227   7.699  14.489
78664W        W45073   1.679   5.789  11.471
78665W        W45074  17.733  41.602  14.431
78666W        W45075  42.435  39.183   4.165
78667W        W45076  44.497   6.983  14.653
78668W        W45077  43.905  25.259  11.009
78669W        W45078   6.934  34.579  14.912
78670W        W45079   5.039  39.846   3.819
78671W        W45080  12.809  40.915   1.784
78672W        W45081   9.320  23.964  14.842
78673W        W45082  30.581  33.444   1.244
78674W        W45083  28.033   6.237  14.743
78675W        W45084  16.186  34.074  11.417
78676W        W45085  21.468  31.928   1.849
78677W        W45086  16.802  19.560   2.058
78678W        W45087   8.370  32.548  12.901
78679W        W45088  36.457  33.404  14.477
78680W        W45089  29.702  25.060  14.911
78681W        W45090  22.480  14.748   3.203
78682W        W45091  41.977   2.492  12.494
78683W        W45092  12.783  18.623   4.448
78684W        W45093  17.756  18.788   0.879
78685W        W45094  19.320  33.691  13.992
78686W        W45095  18.802  12.069  10.234
78687W        W45096   0.278  17.483  13.003
78688W        W45097  18.323  41.864   1.836
78689W        W45098  44.181  21.214  11.614
78690W        W45099  25.736  23.761   5.349
78691W        W45100  39.013  36.314   0.794
78692W        W45101  33.897  11.130   1.933
78693W        W45102  19.616  15.214   3.188
78694W        W45103   4.918  17.602   5.078
78695W        W45104   8.777  20.644   1.737
78696W        W45105  37.979  16.159   2.081
78697W        W45106  36.280  22.709   4.408
78698W        W45107  36.115  28.654  11.462
78699W        W45108  40.376  19.202   2.119
78700W        W45109   8.263  15.963  11.443
78701W        W45110  30.373   6.200  13.305
78702W        W45111  36.586  19.745  13.901
78703W        W45112  39.918  34.761   2.682
78704W        W45113  17.189   1.403   2.361
78705W        W45114   0.035  37.053   2.029
78706W        W45115  27.642  27.920   3.733
78707W        W45116  19.536  11.231  13.042
78708W        W45117  39.541   7.751   2.930
78709W        W45118  15.604  31.359  13.051
78710W        W45119  21.427  38.788   2.715
78711W        W45120  17.823   1.065  11.689
78712W        W45121  36.275  38.127   1.465
78713W        W45122   8.357  10.817  10.764
78714W        W45123  32.225   1.557   4.518
78715W        W45124  13.998  22.214   4.009
78716W        W45125   7.748   1.957  13.661
78717W        W45126  30.461  15.168   2.230
78718W        W45127  42.319  42.002  13.528
78719W        W45128  16.658  27.883  13.652
78720W        W45129  19.251  32.788  12.296
78721W        W45130  32.480   5.289   1.603
78722W        W45131  39.485   2.077   0.030
78723W        W45132  15.442  41.072   3.803
78724W        W45133  13.781  14.824  14.282
78725W        W45134  36.924  27.283  11.274
78726W        W45135  34.407  36.142  13.930
78727W        W45136  31.471  32.020  14.960
78728W        W45137  19.615  29.218  12.674
78729W        W45138   3.369  44.848  11.952
78730W        W45139  28.488   6.357   0.024
78731W        W45140  27.721  38.720   0.973
78732W        W45141  39.778  40.394  12.076
78733W        W45142  29.615  22.538  14.606
78734W        W45143  11.526  32.548  11.768
78735W        W45144  34.925   0.989   2.380
78736W        W45145  20.087  32.135   2.804
78737W        W45146  24.849  13.433   4.587
78738W        W45147  31.941  37.417   4.184
78739W        W45148   4.950  41.451  10.702
78740W        W45149  44.893   3.687  12.469
78741W        W45150  18.714   8.564   3.643
78742W        W45151  15.145  20.960   3.031
78743W        W45152  41.610  27.711   2.987
78744W        W45153  22.427  34.037  12.066
78745W        W45154  16.127   8.826   1.477
78746W        W45155   7.427  30.521  14.756
78747W        W45156   6.813  13.727   2.633
78748W        W45157  27.223  37.135   4.584
78749W        W45158  44.398  29.578   2.377
78750W        W45159  16.190  16.271  12.741
78751W        W45160  15.368  35.401  10.700
78752W        W45161  26.062  18.087  12.023
78753W        W45162  25.523  21.709   2.971
78754W        W45163  29.056  20.501   2.667
78755W        W45164  19.884  12.717  13.098
78756W        W45165  35.594  30.299  10.605
78757W        W45166  33.878  39.071   3.712
78758W        W45167  15.174  44.520  10.804
78759W        W45168  32.169  26.465  13.369
78760W        W45169  11.705  20.448  13.365
78761W        W45170  12.208  41.966  13.888
78762W        W45171   0.238  32.605   4.303
78763W        W45172  30.427  16.605   2.295
78764W        W45173  24.458  29.910  10.494
78765W        W45174  30.948   6.693   2.723
78766W        W45175   3.413  24.739  13.892
78767W        W45176  43.278   8.613   1.947
78768W        W45177  43.650  12.816  10.244
78769W        W45178  38.062   8.303   4.467
78770W        W45179  19.019   4.627  13.383
78771W        W45180  27.363  14.191   0.354
78772W        W45181  30.081  22.413  13.802
78773W        W45182  40.670  26.454   3.243
78774W        W45183  31.100  24.130   4.182
78775W        W45184   2.259   8.915  11.128
78776W        W45185  23.148  25.184  11.490
78777W        W45186  24.068   1.907   1.440
78778W        W45187  34.057   9.812  11.006
78779W        W45188  27.515  21.772  10.075
78780W        W45189  17.241  15.052   2.448
78781W        W45190  37.478  25.553  14.413
78782W        W45191  22.011  37.537   1.578
78783W        W45192   4.237   3.496   4.610
78784W        W45193  33.037   3.807   2.361
78785W        W45194  20.674  17.741  12.340
78786W        W45195  14.634  31.718   0.464
78787W        W45196   8.421  14.411   3.204
78788W        W45197   1.415  35.848  13.823
78789W        W45198   1.467   0.574  14.495
78790W        W45199  40.818  12.697   3.763
78791W        W45200  18.886  11.957   3.237
78792W        W45201  30.183   6.528  14.915
78793W        W45202  38.568  24.014  11.597
78794W        W45203  31.112  14.933  12.878
78795W        W45204  34.537  39.115   1.928
78796W        W45205  27.960   2.751  14.966
78797W        W45206  10.838  19.753  11.162
78798W        W45207  21.765  17.714   4.733
78799W        W45208  20.138  14.682   2.909
78800W        W45209  19.117  17.208  13.036
78801W        W45210   2.017  44.737  14.490
78802W        W45211  30.337   5.385  10.822
78803W        W45212  42.798   2.677   2.610
78804W        W45213  20.636  42.008   2.708
78805W        W45214   9.691  14.814  12.544
78806W        W45215  20.186  43.167  13.418
78807W        W45216  18.510   4.662   3.184
78808W        W45217  36.094  35.063  10.720
78809W        W45218  28.946  36.653  11.054
78810W        W45219  43.627  42.826  14.513
78811W        W45220   7.876   9.415   1.474
78812W        W45221  13.251  41.756  12.465
78813W        W45222  40.377   2.072  12.113
78814W        W45223  14.646  35.486  13.911
78815W        W45224  18.098  10.566   0.417
78816W        W45225  23.874  28.865   4.998
78817W        W45226  21.148  12.031   3.556
78818W        W45227  44.760  42.068   1.391
78819W        W45228  31.532  43.306   1.684
78820W        W45229  29.602  41.459   0.376
78821W        W45230  16.234  10.083   4.047
78822W        W45231  23.628  44.964   1.767
78823W        W45232   3.287  23.255  14.740
78824W        W45233  18.808  19.783  12.955
78825W        W45234   3.577  27.981  12.055
78826W        W45235  38.802  19.633   4.159
78827W        W45236   0.481  23.607   2.136
78828W        W45237  22.567  40.497   2.748
78829W        W45238   2.615  14.799   2.941
78830W        W45239   0.398  19.673   1.922
78831W        W45240  28.376   8.830   0.195
78832W        W45241  19.831  43.735   0.941
78833W        W45242  35.943  27.123   0.061
78834W        W45243  28.342  26.574  10.333
78835W        W45244   0.603   2.540   3.738
78836W        W45245  37.819  14.556  13.598
78837W        W45246   1.505  39.645   0.827
78838W        W45247  16.246  11.257   3.764
78839W        W45248  34.379  20.540  13.313
78840W        W45249  25.967  38.489  13.003
78841W        W45250   4.810  21.579  12.107
78842W        W45251  19.979   7.169  10.834
78843W        W45252  12.431  33.015   1.324
78844W        W45253   6.721  22.132  10.091
78845W        W45254  16.547   8.627   1.259
78846W        W45255  14.755  13.706  11.540
78847W        W45256  12.362  41.246  14.381
78848W        W45257  21.166  11.956   4.073
78849W        W45258  36.949  37.603   2.415
78850W        W45259  29.934  34.992  12.565
78851W        W45260  24.225  17.360  13.828
78852W        W45261  37.116  21.250   3.688
78853W        W45262  39.794  30.955   4.584
78854W        W45263  34.803   1.296   1.475
78855W        W45264  29.436  15.294   4.626
78856W        W45265  39.549  29.237  12.740
78857W        W45266   6.447  15.755   0.329
78858W        W45267  41.228  18.126  12.471
78859W        W45268  17.730   8.665  12.961
78860W        W45269  38.963  23.498  10.841
78861W        W45270  36.490  26.994   4.538
78862W        W45271   6.596   8.602   5.334
78863W        W45272  26.690  28.136   3.618
78864W        W45273  39.325  43.563  13.326
78865W        W45274  21.459  16.194   3.141
78866W        W45275  19.650  27.617  13.402
78867W        W45276  28.626   2.868   3.207
78868W        W45277  31.670  36.127   2.728
78869W        W45278  12.368  28.695  11.203
78870W        W45279   4.653   1.713   0.424
78871W        W45280   6.117  37.524  12.941
78872W        W45281   1.946  14.016  14.300
78873W        W45282  19.258   8.261  12.811
78874W        W45283  31.210  40.437  10.983
78875W        W45284  43.707   0.355  11.079
78876W        W45285  34.454  25.101   2.990
78877W        W45286  27.662  18.137   3.213
78878W        W45287   5.812  37.858   3.215
78879W        W45288   3.991  34.467  11.611
78880W        W45289  17.745   4.893  12.153
78881W        W45290  40.348  34.415  11.567
78882W        W45291  31.498  25.388   2.804
78883W        W45292  27.750  29.000   2.092
78884W        W45293  21.067  35.963   0.831
78885W        W45294  26.066  43.243  14.217
78886W        W45295  37.744  11.198   3.254
78887W        W45296  31.213  33.612  14.568
78888W        W45297  42.912  30.321   1.674
78889W        W45298  11.506  35.452  14.926
78890W        W45299  42.893  21.918   0.710
78891W        W45300  15.053  12.339  11.164
78892W        W45301   7.596  42.117   4.506
78893W        W45302  11.727  22.583   4.919
78894W        W45303  40.306  17.803   2.640
78895W        W45304  39.010  31.072  14.717
78896W        W45305  29.161  24.046  12.790
78897W        W45306   3.644  26.199  11.055
78898W        W45307   1.311  40.413  14.847
78899W        W45308   2.993  22.914  11.672
78900W        W45309   7.555  11.915   2.842
78901W        W45310  26.655  20.204  13.336
78902W        W45311  43.266   5.960   1.346
78903W        W45312  19.300   8.229   3.659
78904W        W45313  10.750  35.856  13.186
78905W        W45314   4.342   6.340   4.022
78906W        W45315  30.937   4.706  13.769
78907W        W45316  38.109  29.136  12.971
78908W        W45317  28.274  22.487  14.850
78909W        W45318  42.213  22.969   0.617
78910W        W45319   6.739  34.842  11.997
78911W        W45320  28.150  44.622   5.077
78912W        W45321  37.784  26.584   2.775
78913W        W45322  35.226  12.401   2.775
78914W        W45323  30.076   9.651  12.203
78915W        W45324  31.904   1.826   1.024
78916W        W45325  11.763  15.440  13.505
78917W        W45326   2.801   7.415  12.633
78918W        W45327  19.146  10.761   4.319
78919W        W45328   1.476  20.221   2.319
78920W        W45329  40.581  37.867   3.732
78921W        W45330  12.828  21.457   3.165
78922W        W45331   4.775  35.649  14.926
78923W        W45332  39.433   0.851   2.208
78924W        W45333  11.506  25.514   4.400
78925W        W45334   1.970  23.769   0.896
78926W        W45335  42.460   0.279   0.190
78927W        W45336  44.355  27.960  13.564
78928W        W45337  17.188  44.481  11.103
78929W        W45338  22.219  22.504   2.673
78930W        W45339  37.640  12.369   3.665
78931W        W45340  10.873  12.248   0.617
78932W        W45341   9.243  40.657   4.534
78933W        W45342  30.528   0.554  13.853
78934W        W45343  34.317   2.910  11.567
78935W        W45344  19.169  10.183   3.382
78936W        W45345  44.194  29.417  11.045
78937W        W45346  22.423  34.185   2.827
78938W        W45347  12.856  41.910  11.145
78939W        W45348  43.193  42.964  10.657
78940W        W45349  40.108   7.858   4.783
78941W        W45350  18.296  33.575   0.560
78942W        W45351  19.037  24.506  12.178
78943W        W45352  43.313  16.118   2.547
78944W        W45353  16.100   2.251  11.714
78945W        W45354  25.175  11.423   3.154
78946W        W45355   3.301   1.468  13.462
78947W        W45356  14.746   2.247  10.434
78948W        W45357  38.746  24.723  13.999
78949W        W45358  41.326   0.730  12.655
78950W        W45359  37.899   7.722  12.985
78951W        W45360  40.396  17.116  13.354
78952W        W45361  24.278  17.354  12.992
78953W        W45362  22.662   8.484  11.051
78954W        W45363  12.703   8.247  13.096
78955W        W45364  20.372   0.959  13.965
78956W        W45365   9.289  35.543   2.307
78957W        W45366  18.679   0.519  12.594
78958W        W45367  15.663  12.233   4.082
78959W        W45368  19.089  13.946   3.120
78960W        W45369  18.531  10.921   0.525
78961W        W45370  38.523  22.169   2.355
78962W        W45371   8.813  34.637  10.728
78963W        W45372  14.274  32.920  11.104
78964W        W45373  24.059  37.926   0.519
78965W        W45374  36.609  25.952   1.741
78966W        W45375  19.272  40.450   4.104
78967W        W45376  18.596  44.199  11.886
78968W        W45377  24.637  31.552   3.101
78969W        W45378  13.146   2.944  13.329
78970W        W45379   3.927  35.937  13.038
78971W        W45380  18.617  23.270  11.655
78972W        W45381  14.084  11.580  11.365
78973W        W45382  25.448   2.025  10.666
78974W        W45383   4.756  16.785  12.146
78975W        W45384  32.532  10.402  10.888
78976W        W45385   8.610   9.718  13.739
78977W        W45386   6.498  21.684  11.514
78978W        W45387  38.108  17.546   1.646
78979W        W45388  41.936  41.841  13.837
78980W        W45389  18.542  43.718  10.996
78981W        W45390   3.730  34.894   1.795
78982W        W45391   5.658   4.030  10.801
78983W        W45392   0.230  33.652  11.964
78984W        W45393  35.359  25.681   2.319
78985W        W45394  24.241  13.154   3.769
78986W        W45395  13.657  38.816  10.776
78987W        W45396  33.380  23.046  12.391
78988W        W45397  16.210  28.118  13.469
78989W        W45398  37.769  17.038  13.893
78990W        W45399  24.778  22.554   3.295
78991W        W45400   0.829  33.584  13.082
78992W        W45401  17.699  21.797  12.124
78993W        W45402  14.357   0.559   3.696
78994W        W45403  33.932  30.116  14.963
78995W        W45404   6.928  23.152   0.415
78996W        W45405  18.979  32.891   2.829
78997W        W45406   8.079  21.548   0.889
78998W        W45407  25.132   1.259   2.254
78999W        W45408  33.177  34.272  11.192
79000W        W45409  39.460  21.756   1.848
79001W        W45410  15.987  22.189   0.291
79002W        W45411  20.824  21.749  10.670
79003W        W45412  33.623  40.570   9.954
79004W        W45413  10.484  29.875   2.316
79005W        W45414  21.233   1.269   2.455
79006W        W45415  19.239  39.963   3.908
79007W        W45416  26.703  16.074   2.305
79008W        W45417  35.997  31.720  14.848
79009W        W45418  33.052  26.551   1.275
79010W        W45419   6.111  18.544  13.120
79011W        W45420   1.515  15.045   4.218
79012W        W45421  29.120   2.524   4.053
79013W        W45422  14.660  41.479  12.440
79014W        W45423  20.316  16.360   2.369
79015W        W45424  17.536  10.832  11.662
79016W        W45425   1.508   9.279   2.219
79017W        W45426  22.043  37.999   1.822
79018W        W45427  16.755  39.444  13.554
79019W        W45428  24.497   0.283   0.966
79020W        W45429  35.121  34.026   3.258
79021W        W45430  41.804   4.783  12.968
79022W        W45431  26.716  38.856   2.712
79023W        W45432   2.274   4.388   1.349
79024W        W45433  36.123   6.635   3.588
79025W        W45434  23.297   7.649  12.534
79026W        W45435  14.855   2.152  11.495
79027W        W45436  12.179  23.960   4.739
79028W        W45437  36.731  18.120  11.581
79029W        W45438  24.548   9.797  14.629
79030W        W45439  10.428  22.434  14.711
79031W        W45440  38.209  16.573   1.011
79032W        W45441  37.301  15.865  12.297
79033W        W45442  24.309   6.107  13.586
79034W        W45443   0.289  13.541   3.867
79035W        W45444  20.381  44.302   2.356
79036W        W45445  21.886  37.987  11.654
79037W        W45446  19.034  23.099  12.857
79038W        W45447  10.577  40.994  12.084
79039W        W45448  32.185  29.547  11.307
79040W        W45449  40.875   0.298   1.198
79041W        W45450  34.251  42.510   0.363
79042W        W45451  20.248  36.119  11.493
79043W        W45452  27.995  40.633   0.701
79044W        W45453  36.330  17.133  14.500
79045W        W45454   4.487   0.271   0.260
79046W        W45455  25.627   5.113  10.931
79047W        W45456   7.944  26.932   1.594
79048W        W45457  42.486   9.471  11.436
79049W        W45458   1.417   2.410  11.611
79050W        W45459  23.995  13.987   0.344
79051W        W45460   7.482   7.367   0.771
79052W        W45461  31.575  10.159  13.120
79053W        W45462  33.178  18.916   1.645
79054W        W45463  39.407  38.747   4.218
79055W        W45464  26.621  18.325   4.985
79056W        W45465  16.597  22.604  12.246
79057W        W45466  36.686  23.070  13.414
79058W        W45467  33.469  27.914  12.488
79059W        W45468  14.681   3.691  10.212
79060W        W45469   0.759  35.977   1.815
79061W        W45470  18.992   4.903  11.589
79062W        W45471  39.626   8.273   4.573
79063W        W45472  40.630  17.008  12.158
79064W        W45473  29.004  41.772   0.265
79065W        W45474  32.825  39.798   0.674
79066W        W45475  41.035  20.984  11.278
79067W        W45476  36.247  44.333   1.903
79068W        W45477  24.030   2.262   0.912
79069W        W45478  35.074  23.575   2.130
79070W        W45479  36.809   6.819   2.623
79071W        W45480   0.578  14.745   1.303
79072W        W45481  10.710   8.767  13.765
79073W        W45482  17.038  20.758   3.137
79074W        W45483  32.953  10.114  11.636
79075W        W45484  37.918  15.743   4.717
79076W        W45485  29.910  15.585  11.574
79077W        W45486  23.815  38.505  13.387
79078W        W45487  14.323   7.662  12.032
79079W        W45488  32.653   0.440  12.896
79080W        W45489  39.197   5.932   0.827
79081W        W45490  28.407  10.235  14.796
79082W        W45491  37.877  34.373   1.329
79083W        W45492  41.830  27.122   0.187
79084W        W45493  29.321  11.596  12.296
79085W        W45494  20.500  18.595   4.172
79086W        W45495   7.816  33.306   1.471
79087W        W45496   9.503   2.496  12.420
79088W        W45497  12.888  40.805  10.239
79089W        W45498  19.042   8.683  11.127
79090W        W45499   3.988  11.597  14.859
79091W        W45500  36.671  34.047   1.855
79092W        W45501   4.681  33.104   2.715
79093W        W45502  21.805  24.947  11.616
79094W        W45503   4.455  30.726  14.503
79095W        W45504   9.165  38.520  14.926
79096W        W45505  20.838   2.686  11.155
79097W        W45506  16.170  29.610  14.599
79098W        W45507  27.396  11.948   4.150
79099W        W45508   5.656  17.590   0.314
79100W        W45509   1.891   4.848  12.693
79101W        W45510  42.955  31.623  12.645
79102W        W45511  34.998  44.395   3.162
79103W        W45512  36.314  31.552  13.881
79104W        W45513   1.478  15.093   0.375
79105W        W45514  30.030  31.510  12.403
79106W        W45515  14.853  19.153  14.568
79107W        W45516  43.012  23.273  11.634
79108W        W45517  37.680  25.724  12.082
79109W        W45518  29.341  24.857  11.646
79110W        W45519  30.039  26.740  14.449
79111W        W45520  31.676  15.666   5.056
79112W        W45521  32.368  12.774   1.298
79113W        W45522  22.498  21.156   1.199
79114W        W45523  26.024  44.793  12.037
79115W        W45524  42.573  22.201   4.186
79116W        W45525   8.962  29.604  14.693
79117W        W45526  24.485  31.429   4.675
79118W        W45527  33.185  11.086  10.506
79119W        W45528   3.513  28.688   0.438
79120W        W45529  34.629  20.819  11.755
79121W        W45530  39.284  15.685   4.654
79122W        W45531  43.009  39.192   4.138
79123W        W45532  33.857  32.613   1.282
79124W        W45533  18.130  19.838  11.584
79125W        W45534  44.554  38.372   0.386
79126W        W45535  16.204  19.330  12.060
79127W        W45536  35.698  28.977  11.604
79128W        W45537  23.983  35.019   2.841
79129W        W45538  29.536   2.264   4.244
79130W        W45539  30.565   3.595  12.890
79131W        W45540  10.411  33.923  11.619
79132W        W45541  24.228  22.108   1.776
79133W        W45542   5.669   3.220  11.650
79134W        W45543  14.687  12.663   4.561
79135W        W45544  34.358  26.150  13.097
79136W        W45545  19.595  23.414   2.655
79137W        W45546   2.497  25.676   2.770
79138W        W45547  21.330  22.544   3.572
79139W        W45548  34.118  39.944   3.592
79140W        W45549  25.086   1.749  14.524
79141W        W45550  10.198  32.864   0.249
79142W        W45551   3.718  14.404   1.793
79143W        W45552   4.060  16.289   4.631
79144W        W45553  41.838  32.473  13.248
79145W        W45554   7.884   6.610   4.595
79146W        W45555   5.407  44.035   1.934
79147W        W45556  41.242  19.086  11.508
79148W        W45557  34.316  11.662  14.833
79149W        W45558  44.114  27.042   3.313
79150W        W45559  26.270  26.593   1.444
79151W        W45560  28.217  20.830  10.557
79152W        W45561  37.270  17.585  14.708
79153W        W45562   5.033  31.437  11.931
79154W        W45563  18.616  19.323   1.253
79155W        W45564  30.838   1.022  13.221
79156W        W45565  17.796  20.297   2.218
79157W        W45566  16.052  41.453   0.657
79158W        W45567  16.021  33.448   2.698
79159W        W45568  23.689  10.393   3.238
79160W        W45569  10.861  22.257  13.046
79161W        W45570  24.179   2.797   2.670
79162W        W45571  44.136  36.845   1.979
79163W        W45572  44.915   8.580  11.573
79164W        W45573  33.421   9.626   4.588
79165W        W45574  30.196  34.929  12.121
79166W        W45575  33.954   7.848   3.780
79167W        W45576   2.361  40.568   4.244
79168W        W45577  26.058   4.906   2.546
79169W        W45578  16.414  13.329  13.337
79170W        W45579  36.947   0.511  12.070
79171W        W45580  30.390  23.539   4.089
79172W        W45581  14.818  44.807   1.890
79173W        W45582  41.294  37.401  11.036
79174W        W45583  34.208   0.498  10.212
79175W        W45584  12.363  33.968  14.835
79176W        W45585  15.597  39.739   9.838
79177W        W45586  22.224  21.939   1.691
79178W        W45587   5.170  12.724  14.395
79179W        W45588  16.864  25.719  12.205
79180W        W45589  31.328   4.169   0.480
79181W        W45590  39.689  30.050   2.793
79182W        W45591  12.464  32.770   0.431
79183W        W45592   8.399   7.410  11.413
79184W        W45593  11.050  17.664   4.240
79185W        W45594  23.228   1.969   0.332
79186W        W45595  23.203  39.608   2.003
79187W        W45596   0.317   1.697   2.762
79188W        W45597   6.286   5.455   2.460
79189W        W45598   7.415  29.312   2.536
79190W        W45599   0.327  16.736  14.022
79191W        W45600  11.669  44.835  11.741
79192W        W45601  28.570  25.619   1.665
79193W        W45602  36.381   1.937   2.702
79194W        W45603  37.851  15.088   3.091
79195W        W45604   5.384  17.118  13.386
79196W        W45605  34.866   5.745   1.701
79197W        W45606  41.016  38.588   2.265
79198W        W45607  34.397   6.494   4.425
79199W        W45608   5.184  31.262  14.897
79200W        W45609  29.459  23.722  13.977
79201W        W45610  39.359  28.226   2.907
79202W        W45611  30.650  18.681  14.702
79203W        W45612  18.440  26.221  12.950
79204W        W45613  10.193  29.584   1.540
79205W        W45614   3.338  17.521  13.416
79206W        W45615   3.306  40.779  12.189
79207W        W45616  22.079  25.941   0.597
79208W        W45617  38.445  14.634  12.426
79209W        W45618  24.897   1.921  13.114
79210W        W45619  10.567  34.513   5.121
79211W        W45620  43.948  19.562  14.307
79212W        W45621   3.300  22.075   3.164
79213W        W45622  40.772   6.793  13.569
79214W        W45623  27.019  42.263  13.481
79215W        W45624  24.724   1.976  11.217
79216W        W45625  41.067  36.854  11.054
79217W        W45626  29.989   0.316   0.719
79218W        W45627  22.702  26.198  11.095
79219W        W45628  26.732  29.938  14.002
79220W        W45629  31.488  21.764  14.370
79221W        W45630  33.007   0.415  13.333
79222W        W45631  10.042  41.235   1.944
79223W        W45632  28.227  26.591   0.248
79224W        W45633  42.940  35.223   5.031
79225W        W45634  30.569  43.042   5.032
79226W        W45635  30.354  42.606  11.659
79227W        W45636   3.346  33.305   0.196
79228W        W45637  29.842   9.249   9.790
79229W        W45638  16.867  39.934  12.895
79230W        W45639  30.014  35.465  10.954
79231W        W45640   3.671  30.911   2.642
79232W        W45641  35.456   4.945  13.259
79233W        W45642   1.520  25.701  13.343
79234W        W45643  32.884  25.116   1.702
79235W        W45644  15.289   4.008  12.581
79236W        W45645  29.509  39.355  14.931
79237W        W45646  15.733  26.679  12.978
79238W        W45647  16.237   4.313   0.284
79239W        W45648  26.039  32.953   0.231
79240W        W45649  38.071  39.076   3.132
79241W        W45650  34.316   3.966  10.184
79242W        W45651  14.934  12.768   0.251
79243W        W45652  16.311  21.364  11.554
79244W        W45653  10.743  43.638  14.917
79245W        W45654  35.368   7.456   1.678
79246W        W45655  38.824  33.990  13.375
79247W        W45656  43.323  29.577   2.359
79248W        W45657  16.397   9.888  13.001
79249W        W45658   8.420  22.691   2.758
79250W        W45659  34.086   1.056  11.002
79251W        W45660   5.199  28.731  14.445
79252W        W45661  33.505  43.938  11.138
79253W        W45662  37.742  27.208   2.223
79254W        W45663   1.889  10.824  13.996
79255W        W45664  36.760   7.546  13.512
79256W        W45665  36.853  12.121   1.737
79257W        W45666  27.523  13.866  11.568
79258W        W45667   1.026  33.018   4.609
79259W        W45668  39.794  30.050   2.288
79260W        W45669  18.142  22.041  11.912
79261W        W45670  17.086  20.210  10.699
79262W        W45671  25.441  42.684   2.690
79263W        W45672  27.856  27.544  12.390
79264W        W45673  37.436  38.001  12.968
79265W        W45674  40.725  40.459  13.012
79266W        W45675  28.030  40.090   0.803
79267W        W45676  33.971  23.022  12.914
79268W        W45677   9.041  24.460   2.204
79269W        W45678   5.709  28.558  12.068
79270W        W45679  22.209  20.104  13.852
79271W        W45680   9.323   3.002  11.698
79272W        W45681  23.819  22.531  13.018
79273W        W45682  27.681   9.185  14.347
79274W        W45683  26.465  44.256   3.784
79275W        W45684  20.680  33.573  11.949
79276W        W45685  16.573  42.305  10.515
79277W        W45686  14.561  18.969   3.211
79278W        W45687  20.188  24.859  12.557
79279W        W45688  20.140  41.078  13.948
79280W        W45689  10.818  18.784  14.049
79281W        W45690  40.246  41.679  11.605
79282W        W45691  13.901   4.930   1.706
79283W        W45692  43.071  42.334  11.443
79284W        W45693  43.159  30.471   2.257
79285W        W45694   2.739   6.465   0.350
79286W        W45695  29.441  13.095   5.054
79287W        W45696  11.227  11.677  10.907
79288W        W45697  18.705  35.869  12.161
79289W        W45698  39.959  26.198   3.793
79290W        W45699  37.252   4.411   2.250
79291W        W45700  30.497  44.197   4.573
79292W        W45701  26.091  42.005  13.354
79293W        W45702   1.619  23.315   4.110
79294W        W45703  14.746  13.138  14.832
79295W        W45704  42.994  35.451   3.357
79296W        W45705  16.795  35.126  13.562
79297W        W45706   6.958  20.287   4.184
79298W        W45707   6.748  17.900  11.499
79299W        W45708   2.031  40.341  11.205
79300W        W45709  43.187   0.672  10.248
79301W        W45710  33.133  23.904   4.025
79302W        W45711  25.276  36.962   3.276
79303W        W45712  40.841  21.851  13.630
79304W        W45713  42.255  34.066  11.443
79305W        W45714  23.190  20.959   0.518
79306W        W45715  13.336   7.601  14.735
79307W        W45716  16.298  12.233   4.777
79308W        W45717   6.250   6.615  13.340
79309W        W45718   3.380  35.157  12.433
79310W        W45719  18.564  22.064   2.233
79311W        W45720   0.911  16.679  12.409
79312W        W45721  27.966   7.003   2.688
79313W        W45722  11.719  33.398   0.715
79314W        W45723  24.422  14.350   4.165
79315W        W45724  41.011  33.435  14.457
79316W        W45725  19.608  32.144  14.736
79317W        W45726  32.300  17.906  11.144
79318W        W45727  35.904  15.628   1.265
79319W        W45728  27.353  25.576  13.115
79320W        W45729   4.415  40.847   3.368
79321W        W45730  38.784   4.721   0.944
79322W        W45731  21.521  26.706   3.145
79323W        W45732   9.919  25.052  10.725
79324W        W45733  16.819   3.618  12.010
79325W        W45734  13.969  12.789   1.168
79326W        W45735  26.863  15.182  12.842
79327W        W45736  29.516   0.691   3.615
79328W        W45737  17.155  34.953   1.289
79329W        W45738  31.735   6.211   3.745
79330W        W45739   4.280  27.137  11.468
79331W        W45740  44.825   5.518  13.362
79332W        W45741  36.561  26.876  10.891
79333W        W45742  17.228  29.228   4.433
79334W        W45743  29.200  26.099   1.674
79335W        W45744  31.530  31.020   2.802
79336W        W45745  38.699  15.575   0.004
79337W        W45746  17.506  10.203   0.796
79338W        W45747  34.995  29.246   1.204
79339W        W45748   8.832  44.306   0.837
79340W        W45749  33.176  36.918   1.456
79341W        W45750  21.765  43.779  13.522
79342W        W45751  11.816  17.817   2.078
79343W        W45752  11.054  16.813   2.719
79344W        W45753  22.330  14.218   1.266
79345W        W45754  10.364  34.998   0.968
79346W        W45755  26.526   9.424  11.836
79347W        W45756  13.750  35.756   1.429
79348W        W45757  17.100   4.307   4.273
79349W        W45758  30.357  20.743   4.057
79350W        W45759  23.205   7.915   0.714
79351W        W45760   4.600  23.214   1.846
79352W        W45761   5.190   5.314   0.830
79353W        W45762   0.170  37.538  10.614
79354W        W45763   0.520  34.601  14.436
79355W        W45764  34.472  21.086   0.703
79356W        W45765  36.873  14.886  10.574
79357W        W45766   0.845   5.381  14.905
79358W        W45767  17.571  44.248  12.851
79359W        W45768  29.650  19.580  14.706
79360W        W45769  11.651  34.826  13.768
79361W        W45770  36.411   2.803   2.889
79362W        W45771   7.937  10.626   4.889
79363W        W45772  31.279  20.221  13.967
79364W        W45773  35.394  35.356  11.111
79365W        W45774  31.158  18.324  11.715
79366W        W45775  35.021  43.236   1.444
79367W        W45776  33.160  42.440  14.289
79368W        W45777  44.198  38.616  12.327
79369W        W45778  20.786  31.863  12.458
79370W        W45779   7.244  24.628   2.657
79371W        W45780   2.477  40.064  11.647
79372W        W45781  36.375  32.596   3.346
79373W        W45782  20.958  13.197   1.630
79374W        W45783  13.091  41.623   3.635
79375W        W45784   8.241  16.814  13.886
79376W        W45785  37.546  36.699  11.714
79377W        W45786   9.749  43.278   1.180
79378W        W45787  35.404  13.001  11.494
79379W        W45788  41.547  26.176  14.928
79380W        W45789  36.938  14.362   0.254
79381W        W45790  10.908  42.091   4.623
79382W        W45791  40.816  12.427  13.369
79383W        W45792  42.116  22.716  11.030
79384W        W45793  37.347  25.997   3.685
79385W        W45794  23.673   9.898   4.148
79386W        W45795   5.215  15.054  14.075
79387W        W45796  22.122  34.946  13.049
79388W        W45797  40.480  14.142   3.703
79389W        W45798  43.784  20.023  14.098
79390W        W45799  33.749   4.805  13.792
79391W        W45800  24.400  37.419   0.828
79392W        W45801  16.749  30.481  13.098
79393W        W45802  31.813  21.122   2.403
79394W        W45803  22.786  18.445   0.422
79395W        W45804  25.010  44.061  13.486
79396W        W45805   8.478  39.842   3.304
79397W        W45806  43.369  22.636  12.885
79398W        W45807  44.036  22.037  11.021
79399W        W45808  37.578  24.549   4.435
79400W        W45809  28.404  37.392   1.778
79401W        W45810  38.131  18.837  12.937
79402W        W45811  25.149  28.523   0.855
79403W        W45812  32.816  23.663   3.222
79404W        W45813  31.211  36.950   1.822
79405W        W45814  13.348  32.622   4.246
79406W        W45815  39.363   0.502  10.971
79407W        W45816  31.836  10.380   1.211
79408W        W45817  33.103  42.513   0.693
79409W        W45818  21.878   7.828   0.834
79410W        W45819  28.005  35.982  11.671
79411W        W45820  39.012  24.638   4.531
79412W        W45821   5.150  39.671   0.424
79413W        W45822   3.948   0.428   2.625
79414W        W45823  33.584  12.848  13.519
79415W        W45824   4.509  32.909  11.493
79416W        W45825  13.903  36.589   1.843
79417W        W45826   3.800  30.913  12.882
79418W        W45827   1.401  38.546  13.554
79419W        W45828  44.936  25.593  14.261
79420W        W45829   0.472  34.390  12.866
79421W        W45830   5.336  44.461  12.412
79422W        W45831  23.277  10.074   2.285
79423W        W45832  36.188  32.026   4.575
79424W        W45833  44.175  23.183   3.221
79425W        W45834  15.362  33.055   0.585
79426W        W45835  39.452  15.541  14.547
79427W        W45836   3.184  37.083  13.219
79428W        W45837  17.642  32.062   4.544
79429W        W45838  44.720  25.784   2.827
79430W        W45839  11.153  35.174   4.103
79431W        W45840  15.588  39.805   0.781
79432W        W45841  12.663  27.852  10.817
79433W        W45842  30.351  35.455  11.972
79434W        W45843  40.089  22.733   0.850
79435W        W45844   1.219  20.720  14.792
79436W        W45845   2.267  35.634  11.694
79437W        W45846  20.482  34.178  11.935
79438W        W45847  36.422   4.225   3.447
79439W        W45848  21.501  20.661  12.992
79440W        W45849  15.272  20.554   0.838
79441W        W45850  25.195  30.710  12.562
79442W        W45851  21.070  18.318   1.728
79443W        W45852  42.390  44.459  14.281
79444W        W45853  13.539  24.577   4.124
79445W        W45854   2.380  13.775   4.189
79446W        W45855  44.114  35.592  11.050
79447W        W45856  36.038  38.094   3.632
79448W        W45857  10.533  18.073  12.639
79449W        W45858  17.923  14.337  14.162
79450W        W45859   9.967  32.558   3.630
79451W        W45860  39.528  24.652  12.373
79452W        W45861  27.653  20.181   1.687
79453W        W45862   5.411  38.405   1.486
79454W        W45863  37.396  18.635   0.550
79455W        W45864  10.877  37.614  14.369
79456W        W45865  32.507  31.962  14.250
79457W        W45866   1.872  19.139   3.468
79458W        W45867   8.304   2.738  13.619
79459W        W45868  29.115  30.497   1.031
79460W        W45869  35.024  23.877   0.197
79461W        W45870  44.623  36.459   0.037
79462W        W45871  13.962  35.396   0.516
79463W        W45872   0.742  36.737  12.867
79464W        W45873  12.123  10.235  13.921
79465W        W45874   7.595  42.816  11.601
79466W        W45875  27.211  23.014  11.944
79467W        W45876  29.939  14.864  12.098
79468W        W45877  17.481  22.508  12.628
79469W        W45878   4.479   0.531   1.260
79470W        W45879  28.758   4.928   0.049
79471W        W45880  29.499   5.804  12.947
79472W        W45881  40.321  25.063  14.210
79473W        W45882  27.665   7.467  11.179
79474W        W45883  15.271   0.922   0.861
79475W        W45884  27.547  20.057  13.826
79476W        W45885  34.449  33.847  11.499
79477W        W45886  25.131  43.176  10.801
79478W        W45887  22.076   6.180  12.770
79479W        W45888   9.258  23.972  12.534
79480W        W45889  22.785   7.805  13.073
79481W        W45890   1.154  26.991   1.750
79482W        W45891   6.715  21.565   2.240
79483W        W45892  13.737   4.941  14.430
79484W        W45893  15.609  43.948  13.567
79485W        W45894  24.175  16.337  13.885
79486W        W45895  11.274  33.897   0.964
79487W        W45896  42.033  36.424  11.037
79488W        W45897  35.416   5.102   1.602
79489W        W45898  34.535  43.549   0.260
79490W        W45899   1.466   8.624   3.408
79491W        W45900  31.890  41.786  14.609
79492W        W45901   2.430  14.853   1.134
79493W        W45902  24.967  36.147  13.883
79494W        W45903  20.682  24.751  12.491
79495W        W45904   1.841  31.226   4.272
79496W        W45905  30.077  34.927  14.394
79497W        W45906  21.236  11.059  11.201
79498W        W45907  27.816   7.410  13.683
79499W        W45908  28.695  30.329  11.239
79500W        W45909  43.194  17.198   3.781
79501W        W45910  25.135   5.394   3.647
79502W        W45911   9.736  14.374  13.462
79503W        W45912  40.744  15.207  14.507
79504W        W45913   3.263   3.599   4.726
79505W        W45914  22.500  34.580  11.177
79506W        W45915  35.094  21.688  10.674
79507W        W45916  39.001  12.772   0.925
79508W        W45917  38.966  26.971   0.725
79509W        W45918   8.261   8.372   4.412
79510W        W45919  43.137  17.209  12.715
79511W        W45920   2.856  11.994   3.638
79512W        W45921   5.489   9.783  14.257
79513W        W45922  34.470  44.902  12.766
79514W        W45923  44.845  31.627   1.670
79515W        W45924  16.305   3.114   2.196
79516W        W45925  35.666  43.678   4.175
79517W        W45926  17.434  37.139   0.348
79518W        W45927  35.817  41.345  10.805
79519W        W45928  27.430   4.363   0.802
79520W        W45929  28.030  37.449   4.989
79521W        W45930  42.536  26.738   2.277
79522W        W45931  17.689  34.218   2.697
79523W        W45932  10.218   5.682  13.903
79524W        W45933  25.681   4.882   2.192
79525W        W45934  32.953  40.505   1.759
79526W        W45935  15.153  40.007  13.678
79527W        W45936   1.394  30.515   1.021
79528W        W45937   8.294  10.846  12.944
79529W        W45938  41.035  39.520  14.719
79530W        W45939  38.940   7.061  10.396
79531W        W45940   3.962  17.135  11.418
79532W        W45941   8.492   4.094  12.399
79533W        W45942   8.784   8.191  12.631
79534W        W45943  14.624  18.263  14.226
79535W        W45944  30.728  12.944   3.888
79536W        W45945  18.989  34.008   0.795
79537W        W45946  43.811  16.385  11.021
79538W        W45947   9.640   1.581   4.568
79539W        W45948  36.385   0.230  11.117
79540W        W45949  15.129   0.954   0.367
79541W        W45950  35.530  33.432   4.282
79542W        W45951  14.125   3.865   1.021
79543W        W45952   6.325  33.876   1.407
79544W        W45953  40.620  31.894  14.093
79545W        W45954  37.953  18.051   1.577
79546W        W45955  26.910  16.642   4.801
79547W        W45956  29.077  35.090   4.543
79548W        W45957  44.013  39.548  14.880
79549W        W45958  41.565   8.337   3.575
79550W        W45959   6.754  33.928  12.710
79551W        W45960  28.637  35.962  14.761
79552W        W45961  44.601   4.715  12.426
79553W        W45962  24.608  31.885  11.644
79554W        W45963  14.397  22.217   1.236
79555W        W45964   1.806  10.414  14.313
79556W        W45965  26.179  40.503  12.294
79557W        W45966  17.922   1.007   1.231
79558W        W45967  43.447  41.961   2.365
79559W        W45968  40.539  14.772  14.255
79560W        W45969  17.769  27.877  11.422
79561W        W45970  10.177   5.263   2.217
79562W        W45971  37.404  21.194   3.246
79563W        W45972  30.519  22.533   2.984
79564W        W45973  43.263  35.472   0.539
79565W        W45974   4.227  22.758  14.690
79566W        W45975  35.564   6.801   0.407
79567W        W45976  22.279  44.870  14.306
79568W        W45977   7.879  26.919  11.561
79569W        W45978  12.534  43.475   1.362
79570W        W45979  34.850   7.370  13.315
79571W        W45980  13.259  34.832  12.062
79572W        W45981   7.680  40.514  12.015
79573W        W45982  18.173   9.554   1.248
79574W        W45983  20.113  14.504  10.669
79575W        W45984  38.523  21.678   0.112
79576W        W45985   5.315   9.251  10.875
79577W        W45986  34.640   4.460   0.311
79578W        W45987  21.336   4.930  13.881
79579W        W45988  20.183  11.087  13.866
79580W        W45989   0.977   3.903   4.185
79581W        W45990  37.697  20.245  10.941
79582W        W45991  43.824   7.755  11.540
79583W        W45992  43.138   8.103  11.950
79584W        W45993  18.774  26.076   3.313
79585W        W45994  38.916  20.509   2.153
79586W        W45995  16.990  25.162  13.964
79587W        W45996  29.373  17.750  14.054
79588W        W45997  44.396  31.968   3.320
79589W        W45998  19.587  31.662  12.889
79590W        W45999  26.538  32.643   0.834
79591W        W46000  43.402  11.394  11.019
79592W        W46001   5.692  42.512  12.546
79593W        W46002  35.440   7.652  11.944
79594W        W46003   3.867  37.082  12.599
79595W        W46004  13.132  26.850   3.342
79596W        W46005  43.782  15.771   2.722
79597W        W46006  30.458  40.385  11.702
79598W        W46007  11.305  19.217  10.643
79599W        W46008  24.779  13.313   0.765
79600W        W46009  39.437   6.345   1.314
79601W        W46010  42.218  23.456   3.723
79602W        W46011  13.767  15.285  13.344
79603W        W46012  17.969  22.027  10.747
79604W        W46013  24.203   7.680  11.488
79605W        W46014  13.993  20.166  13.260
79606W        W46015   1.394  37.623   3.120
79607W        W46016  39.415  42.322  11.956
79608W        W46017  15.807  43.283   3.524
79609W        W46018   5.403  44.257  11.946
79610W        W46019  20.194  14.359   3.317
79611W        W46020  43.392  15.975  13.030
79612W        W46021  24.925  35.360   1.770
79613W        W46022  35.367  16.288   2.153
79614W        W46023  10.319  28.568  11.105
79615W        W46024  39.029  39.398  14.635
79616W        W46025  26.100  17.230   3.358
79617W        W46026  37.674  43.017  10.857
79618W        W46027  35.604  36.133  11.582
79619W        W46028  14.195   6.946   2.639
79620W        W46029  15.171   1.778   0.913
79621W        W46030  32.554  43.342  12.419
79622W        W46031  18.724  27.491   0.925
79623W        W46032  23.600   2.858   2.329
79624W        W46033  30.526  17.355  12.872
79625W        W46034   0.427  34.971   1.019
79626W        W46035   6.772  10.922   1.190
79627W        W46036   3.813  42.684  12.321
79628W        W46037  24.003  25.970  14.358
79629W        W46038  41.857   2.422   3.559
79630W        W46039   0.828  32.522  11.143
79631W        W46040   2.921  20.163   0.300
79632W        W46041  12.655  41.236  14.867
79633W        W46042   0.898  12.648  12.908
79634W        W46043  41.864  28.851  13.390
79635W        W46044  22.298  26.610  13.168
79636W        W46045  40.469  32.050   3.525
79637W        W46046  42.539  27.519  14.507
79638W        W46047  34.156  42.207   2.361
79639W        W46048   3.009  16.033   4.561
79640W        W46049   0.449  26.464   4.517
79641W        W46050  27.470  16.092   4.119
79642W        W46051  32.355  18.722  11.308
79643W        W46052  26.034  16.930  13.665
79644W        W46053  14.782  43.613   0.016
79645W        W46054  38.181  12.410  11.171
79646W        W46055  43.378   9.406  12.912
79647W        W46056  28.595  43.291  13.799
79648W        W46057  18.851  19.178   2.742
79649W        W46058  27.009  16.817   4.320
79650W        W46059  16.388  24.890   3.307
79651W        W46060  22.599   2.997   1.286
79652W        W46061  24.198  17.119   1.171
79653W        W46062  27.059  28.618   2.669
79654W        W46063   4.203  33.594  13.007
79655W        W46064  29.863   0.789  11.975
79656W        W46065  17.823  14.692   2.343
79657W        W46066  36.501  30.092  12.028
79658W        W46067   3.866  22.528   4.233
79659W        W46068  19.676   7.115  13.566
79660W        W46069  40.059   7.760  14.918
79661W        W46070  12.616  27.396  14.020
79662W        W46071  15.859  27.399   3.241
79663W        W46072  15.177   0.542  11.979
79664W        W46073  23.978  19.494   4.423
79665W        W46074  10.913  16.901  14.766
79666W        W46075  44.280  43.386  14.780
79667W        W46076  30.478   8.786  11.165
79668W        W46077  23.059  42.979   3.569
79669W        W46078  35.970  10.913   2.684
79670W        W46079  39.632   9.276  11.681
79671W        W46080  33.568  41.527   4.612
79672W        W46081  25.105  44.470   4.906
79673W        W46082  23.128  34.520   1.116
79674W        W46083  42.554   0.852   4.559
79675W        W46084  41.357  22.319  10.705
79676W        W46085   8.135  14.923   4.108
79677W        W46086  40.634  18.276   3.605
79678W        W46087  18.670   9.064  12.528
79679W        W46088   1.027  32.538   3.647
79680W        W46089  36.638  15.027  13.026
79681W        W46090  31.896   4.746   3.670
79682W        W46091  10.654  37.513   1.846
79683W        W46092   3.452  32.554   4.146
79684W        W46093  12.348  12.000  12.386
79685W        W46094  16.029   5.299  12.552
79686W        W46095  27.724   6.665   0.833
79687W        W46096  32.358  15.768   4.568
79688W        W46097  34.501  38.194  13.022
79689W        W46098   0.261  24.966   2.800
79690W        W46099   3.876  20.112  10.981
79691W        W46100  14.168  31.015   3.091
79692W        W46101  26.013  30.415  13.073
79693W        W46102  10.048  36.006   2.340
79694W        W46103  36.848   9.384   0.506
79695W        W46104  25.542  36.678  11.592
79696W        W46105  12.803  37.831   1.413
79697W        W46106  39.298  39.401  10.418
79698W        W46107  31.194   9.619   1.939
79699W        W46108  22.733  31.116   0.476
79700W        W46109  42.472  18.628  14.796
79701W        W46110  25.203  40.278  12.011
79702W        W46111  40.157  37.490   1.904
79703W        W46112  30.186  43.854   4.843
79704W        W46113  15.542  13.126  13.059
79705W        W46114   8.757   0.563  14.376
79706W        W46115  21.494  30.613   3.911
79707W        W46116  29.435  11.160  12.086
79708W        W46117   8.248   9.395   3.939
79709W        W46118  20.227  21.474   1.218
79710W        W46119   3.319  15.274   2.318
79711W        W46120  40.986  40.996  12.415
79712W        W46121   7.404  16.067  12.024
79713W        W46122   1.995   9.909  13.885
79714W        W46123  21.249   2.363   4.424
79715W        W46124  41.556  17.569  14.035
79716W        W46125  29.634   1.758   2.857
79717W        W46126   3.760  35.766   4.648
79718W        W46127   5.620   9.204  11.580
79719W        W46128  14.336  19.036   1.850
79720W        W46129  27.224  20.062   2.785
79721W        W46130  17.800  21.058   4.180
79722W        W46131  25.721  20.788   1.412
79723W        W46132  22.173  38.900   0.259
79724W        W46133  24.786   1.025   1.320
79725W        W46134  21.356  38.122   2.588
79726W        W46135   4.633   1.242  14.667
79727W        W46136  36.036  24.425   0.269
79728W        W46137  33.469   5.448  10.737
79729W        W46138   3.050   2.323  13.070
79730W        W46139  19.903  19.045   2.910
79731W        W46140  12.588  41.412   1.761
79732W        W46141  15.904  40.950   1.948
79733W        W46142  16.662  18.163   0.308
79734W        W46143  31.554   4.641  12.059
79735W        W46144  44.944  11.388  10.472
79736W        W46145  16.921   0.983   3.411
79737W        W46146  18.839  21.073   4.160
79738W        W46147   1.812  27.187   4.190
79739W        W46148  43.743  38.635  13.501
79740W        W46149  21.423  22.047  13.364
79741W        W46150  22.222  24.090   0.890
79742W        W46151  40.449  16.403   2.554
79743W        W46152  14.196  25.979  12.333
79744W        W46153  30.087  21.605  13.506
79745W        W46154  39.111  14.709   3.979
79746W        W46155  26.132  19.104   1.277
79747W        W46156   8.807  35.420   0.358
79748W        W46157  41.667  39.668   2.726
79749W        W46158   4.957  32.819  14.414
79750W        W46159  11.230  38.171  13.773
79751W        W46160  33.843  17.294  14.354
79752W        W46161  25.100   2.692  13.512
79753W        W46162  20.249   9.604   3.526
79754W        W46163  20.154   8.832   0.444
79755W        W46164  39.087   1.270  10.260
79756W        W46165   4.748  40.555   1.318
79757W        W46166  18.534  17.742   4.906
79758W        W46167  32.560   8.295  14.781
79759W        W46168  16.087  13.415   0.204
79760W        W46169  33.025  18.605  12.681
79761W        W46170  29.672  25.657  13.896
79762W        W46171  26.510   5.684   2.683
79763W        W46172   2.688   1.849  11.876
79764W        W46173  12.844   6.648   2.405
79765W        W46174  23.591  15.521   3.754
79766W        W46175  17.597  31.209  12.942
79767W        W46176  40.457  33.900   4.028
79768W        W46177  36.954  36.985  12.564
79769W        W46178  16.815   5.331   1.879
79770W        W46179  32.565  38.510  10.638
79771W        W46180  31.157  16.967   4.440
79772W        W46181  14.339  15.160  11.449
79773W        W46182  11.274   6.878   1.265
79774W        W46183  13.834  38.517   3.521
79775W        W46184  19.060  19.586   0.874
79776W        W46185  22.865  24.154   1.729
79777W        W46186  43.938  38.505   2.236
79778W        W46187  22.689  16.362  14.156
79779W        W46188  19.994  32.296  11.130
79780W        W46189  31.702  43.432   0.296
79781W        W46190  37.584  43.923  14.377
79782W        W46191   8.425  17.549  11.163
79783W        W46192  21.098   4.819   2.231
79784W        W46193   1.707   0.655   4.163
79785W        W46194  19.353   8.289  14.556
79786W        W46195   1.521   4.462  12.138
79787W        W46196   3.834  36.629   4.199
79788W        W46197  30.118  31.119   3.621
79789W        W46198  17.796  18.600  11.193
79790W        W46199   4.249   8.816   0.885
79791W        W46200  10.180  26.817  11.947
79792W        W46201  33.758   9.776  12.829
79793W        W46202   7.115  39.817  12.494
79794W        W46203  39.247  36.874  13.611
79795W        W46204  14.052  30.945   0.946
79796W        W46205  37.481  31.421  13.440
79797W        W46206  41.785  38.546   4.149
79798W        W46207  41.330  40.427   0.689
79799W        W46208  15.347   6.466  12.565
79800W        W46209   5.184  20.843   0.877
79801W        W46210  16.670  11.556   0.875
79802W        W46211  36.149  35.785   3.068
79803W        W46212  15.337  39.438  11.680
79804W        W46213  27.050  28.941  12.033
79805W        W46214  19.136  12.136  14.962
79806W        W46215  18.591  43.188   2.112
79807W        W46216  22.038  10.875   0.442
79808W        W46217   1.601  19.437   1.680
79809W        W46218  15.001  11.133   0.229
79810W        W46219  23.788  30.675  12.448
79811W        W46220  34.991   8.373  13.921
79812W        W46221  37.611   2.356   1.265
79813W        W46222  10.878  37.465  10.725
79814W        W46223   1.191   6.814  13.626
79815W        W46224  31.836   3.902  13.282
79816W        W46225   0.474  35.920   3.588
79817W        W46226  38.079  36.814  10.577
79818W        W46227   9.057   0.447  11.128
79819W        W46228  25.248  27.761   0.413
79820W        W46229  44.403  31.642   0.582
79821W        W46230  40.599  31.624   2.644
79822W        W46231  18.507  41.870  13.929
79823W        W46232  38.422  30.077   0.311
79824W        W46233  26.396  14.665   0.245
79825W        W46234  14.718  29.210  14.416
79826W        W46235  26.714  32.018   5.136
79827W        W46236   9.313  44.447  10.518
79828W        W46237  10.869  21.705   3.274
79829W        W46238  40.524  39.164   2.389
79830W        W46239  33.644   9.460  14.786
79831W        W46240   5.931   8.744  14.363
79832W        W46241  19.658   5.906   1.405
79833W        W46242   8.699  19.707  14.902
79834W        W46243  27.360   7.059  10.643
79835W        W46244  44.929   7.232   2.154
79836W        W46245  43.853   2.499  14.946
79837W        W46246  22.807  34.636   2.889
79838W        W46247  21.639  43.290   1.001
79839W        W46248  17.252  32.889  10.743
79840W        W46249   7.569   6.841  11.764
79841W        W46250  15.639  32.861  11.448
79842W        W46251  28.952   0.484   4.264
79843W        W46252   0.545  21.577   2.943
79844W        W46253  15.203  25.063   3.089
79845W        W46254  17.994   5.791   3.185
79846W        W46255  29.116   3.975   3.379
79847W        W46256  14.828  24.509   2.440
79848W        W46257  39.694  15.778   2.308
79849W        W46258  22.920  36.614  12.061
79850W        W46259  24.614  25.996   4.570
79851W        W46260  44.045  39.628   4.607
79852W        W46261  41.742   0.769  14.764
79853W        W46262  35.071   1.059   5.026
79854W        W46263  29.009  43.837  13.732
79855W        W46264   6.280  34.579  12.009
79856W        W46265   0.461  20.973   2.427
79857W        W46266  17.658  19.601   2.898
79858W        W46267  23.002  28.804   9.713
79859W        W46268   1.954  39.751   3.750
79860W        W46269   0.762   6.941   3.703
79861W        W46270  39.249  27.742  11.027
79862W        W46271  43.711  24.670  14.738
79863W        W46272  25.511  41.305  13.415
79864W        W46273  41.031  40.013  14.575
79865W        W46274  12.881   8.317  11.795
79866W        W46275  19.907  40.670  11.197
79867W        W46276  15.209  34.404   9.760
79868W        W46277  31.718  14.928  11.186
79869W        W46278  21.494  16.026   0.663
79870W        W46279  39.393  17.068  12.602
79871W        W46280  31.140   8.489   1.492
79872W        W46281  36.255   9.419  13.443
79873W        W46282   8.304  23.106  13.823
79874W        W46283   2.290   7.655  13.312
79875W        W46284   6.763  23.519  12.452
79876W        W46285  40.420  40.826  11.582
79877W        W46286   5.842   4.772   3.787
79878W        W46287   3.134  31.097  13.894
79879W        W46288   3.270  42.845  10.666
79880W        W46289  35.048  16.908   4.893
79881W        W46290  20.850  40.522   4.201
79882W        W46291  27.575  34.319  13.871
79883W        W46292  19.299  39.502   3.721
79884W        W46293   7.963  23.323   4.896
79885W        W46294   2.744  27.103   4.011
79886W        W46295  29.037  21.092  13.011
79887W        W46296  23.748  43.962  14.834
79888W        W46297  39.378  30.219  12.446
79889W        W46298   8.772  32.935  13.418
79890W        W46299   2.754  32.384   0.450
79891W        W46300  12.378  19.167   2.446
79892W        W46301  35.087  19.373   4.769
79893W        W46302  14.844  40.618  14.700
79894W        W46303  43.275  27.040  12.912
79895W        W46304  43.787  21.123  13.935
79896W        W46305  30.117  41.531  12.835
79897W        W46306  21.479  34.880  11.233
79898W        W46307  31.977  26.860   4.791
79899W        W46308  11.797   3.207   4.308
79900W        W46309  35.565  20.896   1.848
79901W        W46310  32.053  44.049  12.508
79902W        W46311  43.240  25.635  12.581
79903W        W46312  28.187  10.847   4.982
79904W        W46313  24.407  34.617  13.774
79905W        W46314  34.528  12.580  13.346
79906W        W46315  30.480  10.200  12.997
79907W        W46316  10.105   1.239   2.821
79908W        W46317  42.207  16.472  12.608
79909W        W46318  30.143  17.071  12.624
79910W        W46319  40.803  43.369   0.332
79911W        W46320  17.856  42.478  14.376
79912W        W46321  23.217  40.608   2.858
79913W        W46322   2.221   7.769  14.352
79914W        W46323  26.637  30.434   1.222
79915W        W46324   4.155  44.500   3.709
79916W        W46325   2.668   2.681   0.246
79917W        W46326  35.337   4.645   4.140
79918W        W46327  15.096  12.942  12.830
79919W        W46328   9.322  32.338   1.497
79920W        W46329  15.280  34.505   4.606
79921W        W46330  30.461   5.358   0.351
79922W        W46331  27.755  10.546   0.242
79923W        W46332  20.089  24.708   1.412
79924W        W46333  39.357  43.258  14.996
79925W        W46334  25.195  18.665   1.822
79926W        W46335  24.288  41.782  13.433
79927W        W46336   4.832  19.532   3.152
79928W        W46337  21.585  18.760  11.586
79929W        W46338  22.104  24.276   3.215
79930W        W46339  18.032   5.781  14.787
79931W        W46340   4.386   7.237   2.381
79932W        W46341  15.834  24.972  11.663
79933W        W46342  41.971  25.896  12.358
79934W        W46343   0.408  29.635  10.715
79935W        W46344  37.464  18.767   3.255
79936W        W46345   7.894  33.903  13.439
79937W        W46346  30.182  41.707   1.320
79938W        W46347  16.857  13.097   4.459
79939W        W46348  29.444   9.194   0.514
79940W        W46349   6.448  14.505  12.039
79941W        W46350  35.839  20.624  11.274
79942W        W46351  40.525  36.669   2.181
79943W        W46352  23.642  35.379   0.412
79944W        W46353  27.996  36.130   2.778
79945W        W46354  12.319  43.587   0.895
79946W        W46355   9.122   8.690   0.029
79947W        W46356  25.658   8.400  13.471
79948W        W46357  13.885  36.946   2.813
79949W        W46358  40.540  25.722   0.756
79950W        W46359  19.058  28.068   4.125
79951W        W46360  41.857  33.911   4.802
79952W        W46361  23.774   2.316   1.863
79953W        W46362  33.591   0.245  11.203
79954W        W46363  43.280   7.325   4.805
79955W        W46364  31.922   0.014   0.320
79956W        W46365  13.025  22.812  13.919
79957W        W46366   4.884  37.644  12.563
79958W        W46367  13.427  41.899   2.709
79959W        W46368  21.137  44.154  14.319
79960W        W46369  26.965   6.403   0.695
79961W        W46370  40.612  44.296  12.635
79962W        W46371  23.144  10.189   3.741
79963W        W46372  12.742  24.256  14.928
79964W        W46373   3.693  19.281  14.445
79965W        W46374  22.192   5.618  11.053
79966W        W46375  26.248   2.689  14.069
79967W        W46376   6.997  43.394  13.069
79968W        W46377  39.977   8.705  14.956
79969W        W46378  29.584  32.487  13.521
79970W        W46379  10.423  40.230  12.218
79971W        W46380  16.743   4.141  11.930
79972W        W46381  24.596   9.683  14.113
79973W        W46382  29.866  10.834  14.729
79974W        W46383  25.529  34.839  14.882
79975W        W46384  10.301  39.982   4.251
79976W        W46385  29.192   4.588  12.179
79977W        W46386  12.180   5.842  11.050
79978W        W46387  19.865  23.577  12.628
79979W        W46388  25.232   4.340  13.981
79980W        W46389  43.967  27.091  12.408
79981W        W46390  21.914  32.804   2.187
79982W        W46391  20.070  44.912   4.218
79983W        W46392  41.983   1.400  11.602
79984W        W46393  24.499  41.766  14.723
79985W        W46394   6.286   5.376  11.547
79986W        W46395  38.884  12.872   2.704
79987W        W46396  23.145  33.105  11.575
79988W        W46397  34.582  27.195   4.526
79989W        W46398  30.631  30.182  11.627
79990W        W46399  24.458   2.384  13.714
79991W        W46400  12.305  23.853  11.065
79992W        W46401   8.852  26.163  11.625
79993W        W46402   1.766  13.704   2.130
79994W        W46403  12.308  30.418  13.780
79995W        W46404  43.850  18.046   2.587
79996W        W46405   8.526  41.448  11.661
79997W        W46406  16.924  40.396   1.313
79998W        W46407   4.630  42.512  12.323
79999W        W46408  32.841  19.631  10.755
80000W        W46409  34.012  43.685   0.220
80001W        W46410  21.564  19.208   1.795
80002W        W46411  30.797  42.897   9.869
80003W        W46412  13.310  44.335  13.869
80004W        W46413  42.348  20.175   3.601
80005W        W46414  41.151  16.811   1.491
80006W        W46415   1.396   1.225   3.348
80007W        W46416  28.468   2.298  13.738
80008W        W46417  42.373  33.531   3.695
80009W        W46418  40.063   8.297   2.268
80010W        W46419  30.109   3.706   0.817
80011W        W46420  37.679  16.541  13.779
80012W        W46421  43.330   0.319  11.428
80013W        W46422  11.511  21.520  12.238
80014W        W46423  31.903   5.714  13.446
80015W        W46424   6.719  16.556  12.658
80016W        W46425  17.488  25.297  12.097
80017W        W46426  26.825   3.798  13.326
80018W        W46427  15.546  24.003  11.512
80019W        W46428  17.867  29.890  13.281
80020W        W46429   3.781   5.166  13.029
80021W        W46430   3.777  25.934   1.974
80022W        W46431  21.439  19.292   2.759
80023W        W46432  11.220  30.563  10.273
80024W        W46433   3.559  36.647   1.733
80025W        W46434  10.925  22.309   4.296
80026W        W46435  22.087  12.717   4.250
80027W        W46436  37.377   5.502  11.159
80028W        W46437   0.831  19.309   1.259
80029W        W46438  28.657  17.811   3.630
80030W        W46439  21.875  13.728   0.139
80031W        W46440  23.615  22.213   2.593
80032W        W46441  44.797  23.760   4.680
80033W        W46442  30.682  21.110   4.257
80034W        W46443  28.648   7.734  14.465
80035W        W46444   6.416  24.758  14.363
80036W        W46445  36.987   0.107  14.539
80037W        W46446   1.218   9.551  14.313
80038W        W46447   2.749  11.902  11.209
80039W        W46448  24.136  24.630  10.925
80040W        W46449  11.621  37.818   3.990
80041W        W46450  38.528   5.109   0.620
80042W        W46451  25.442  26.030   1.137
80043W        W46452   1.351  29.068  11.165
80044W        W46453   7.163  17.121  13.046
80045W        W46454   2.208  23.124  11.870
80046W        W46455  13.329   1.840  10.297
80047W        W46456  13.738  18.953  14.723
80048W        W46457  15.057  27.414   2.173
80049W        W46458  40.244  43.880  14.186
80050W        W46459   1.025  27.923   0.251
80051W        W46460  29.715   2.465   1.435
80052W        W46461   7.794  33.369  13.402
80053W        W46462  43.117  15.804  12.615
80054W        W46463  30.632  41.554  14.970
80055W        W46464  33.503   3.245  14.851
80056W        W46465   6.691  30.195  11.621
80057W        W46466  13.094  24.524  10.608
80058W        W46467  16.109  17.228   0.411
80059W        W46468  19.774  35.185   1.972
80060W        W46469  40.811  12.280   0.354
80061W        W46470  33.423  31.724   9.896
80062W        W46471  34.146   5.672   1.285
80063W        W46472   2.364   3.948   1.032
80064W        W46473   2.192   6.411   1.277
80065W        W46474  32.069   9.793   3.215
80066W        W46475  23.931  21.672   1.897
80067W        W46476   8.970   5.981  11.546
80068W        W46477  43.348  27.871   3.361
80069W        W46478  26.374   9.481   1.326
80070W        W46479  27.453  40.008   3.570
80071W        W46480  35.838   5.406  13.528
80072W        W46481  18.180   3.517   3.743
80073W        W46482  15.176  40.574  12.469
80074W        W46483  25.669  44.418  10.727
80075W        W46484  41.852  16.013  11.189
80076W        W46485  29.882  12.383  13.486
80077W        W46486   1.708   9.797  10.615
80078W        W46487   6.189  20.339   4.577
80079W        W46488  18.280  24.504  14.819
80080W        W46489  26.826  25.562  13.602
80081W        W46490  23.041  29.397   0.893
80082W        W46491  16.239   3.792   4.038
80083W        W46492  16.685  25.970   4.554
80084W        W46493  34.969   3.555  13.416
80085W        W46494  26.008  36.922  10.710
80086W        W46495   0.277  37.576  13.919
80087W        W46496  22.565  25.036   2.329
80088W        W46497  10.640  44.341   1.780
80089W        W46498   3.003  19.226  10.640
80090W        W46499  37.729  32.873   1.168
80091W        W46500  31.527  20.732   2.233
80092W        W46501   4.474  38.023  14.541
80093W        W46502  27.124  17.897   1.028
80094W        W46503  10.246  13.231   5.066
80095W        W46504   8.653  43.439  12.749
80096W        W46505  33.593  39.296   4.165
80097W        W46506  13.258  16.523  11.222
80098W        W46507  14.840  16.020   1.897
80099W        W46508  42.854  17.132  14.875
80100W        W46509  40.829   3.216  12.908
80101W        W46510  10.899   5.488   0.012
80102W        W46511  27.955   7.320  12.660
80103W        W46512   1.742  17.150  11.459
80104W        W46513  35.108  22.966   0.305
80105W        W46514  26.513  38.107   3.183
80106W        W46515  11.603  25.648   2.128
80107W        W46516  28.008  43.928  13.394
80108W        W46517  26.440  12.633   1.833
80109W        W46518  32.278  29.526  10.789
80110W        W46519  44.540  11.406   3.202
80111W        W46520  18.310  35.641   0.848
80112W        W46521  27.204  31.152  13.088
80113W        W46522   9.145   4.850   0.195
80114W        W46523  33.870  11.662  11.059
80115W        W46524  28.236  27.935   0.386
80116W        W46525  26.959  42.999   4.591
80117W        W46526  12.402  34.314   1.365
80118W        W46527  33.872   8.195  14.358
80119W        W46528  33.586  28.350   0.875
80120W        W46529  10.938   0.916   0.894
80121W        W46530  43.157  17.129  10.003
80122W        W46531  36.270  42.855   4.529
80123W        W46532  29.114  41.400  12.433
80124W        W46533  22.987  18.116  11.043
80125W        W46534   1.366  32.423  13.942
80126W        W46535  39.112  14.792  10.592
80127W        W46536  42.067  25.099   4.609
80128W        W46537  25.992  40.920  14.371
80129W        W46538  35.344  39.349  14.009
80130W        W46539  25.737  10.226  11.157
80131W        W46540   1.025  22.543   5.025
80132W        W46541   5.099  17.113  12.958
80133W        W46542  39.777  16.152   0.299
80134W        W46543   9.900  36.606  10.529
80135W        W46544   5.723  16.888  12.032
80136W        W46545  37.267   3.365  10.587
80137W        W46546  33.511  23.620   3.759
80138W        W46547  10.302  41.410   2.344
80139W        W46548  24.566  26.484  13.329
80140W        W46549  14.812   7.751  13.999
80141W        W46550  21.129  22.122  14.407
80142W        W46551  42.738  15.446  13.626
80143W        W46552  17.800  42.664   3.681
80144W        W46553   5.866  11.747  12.592
80145W        W46554  27.196  15.270  13.266
80146W        W46555  28.749   0.054   4.049
80147W        W46556  16.199  33.510   4.031
80148W        W46557  37.114   7.289   2.709
80149W        W46558   8.456   3.540  12.075
80150W        W46559  29.639  43.081   2.227
80151W        W46560   5.671   6.436   2.601
80152W        W46561  16.254   7.748  14.015
80153W        W46562  41.397  15.681  14.829
80154W        W46563  41.075  17.197  10.087
80155W        W46564   2.740  11.292  14.011
80156W        W46565  17.295   4.975  13.928
80157W        W46566  27.623  38.166   2.325
80158W        W46567  10.709  41.152   1.337
80159W        W46568  44.504  25.749   0.911
80160W        W46569  14.097  39.177  10.293
80161W        W46570  20.753   6.942   3.269
80162W        W46571   0.065   3.322   2.326
80163W        W46572  36.370   1.753   1.113
80164W        W46573   9.480   8.426  10.969
80165W        W46574  40.109   8.252   0.209
80166W        W46575  34.883  39.509  11.579
80167W        W46576  38.251   8.381  12.996
80168W        W46577  25.601  31.599   3.335
80169W        W46578  44.568   0.181  12.150
80170W        W46579  36.072  22.066   2.265
80171W        W46580  18.576  33.485   3.319
80172W        W46581  23.708  30.487   4.760
80173W        W46582  33.079  13.802  14.671
80174W        W46583   5.823  39.291  10.900
80175W        W46584   2.953  20.499  13.542
80176W        W46585  39.627   3.789   4.875
80177W        W46586   9.159  19.051  10.482
80178W        W46587  39.385  10.591   1.275
80179W        W46588  18.504  17.271   5.170
80180W        W46589  22.587  32.948  13.007
80181W        W46590   4.417   9.338  10.839
80182W        W46591  37.862  10.721   4.209
80183W        W46592   3.813  24.451  14.048
80184W        W46593  31.597  35.909  10.576
80185W        W46594  29.211  38.630   1.826
80186W        W46595  19.273   8.390  11.460
80187W        W46596  23.420   5.637   0.941
80188W        W46597  41.538   9.905  13.494
80189W        W46598  32.571  34.223  10.540
80190W        W46599  15.599  42.360  11.407
80191W        W46600  43.483   5.177  13.072
80192W        W46601  44.929   5.654   4.378
80193W        W46602  35.025   3.336  14.929
80194W        W46603  39.365  11.190   3.001
80195W        W46604  18.046   7.133   0.502
80196W        W46605  15.285  36.391   4.092
80197W        W46606  43.600  32.327   3.644
80198W        W46607  16.580  24.370  14.743
80199W        W46608   0.692  12.235   2.803
80200W        W46609  14.284  35.844   5.232
80201W        W46610   0.352  33.194  10.728
80202W        W46611   2.692  38.079   5.000
80203W        W46612  28.845  12.097  12.097
80204W        W46613  16.553   6.536   1.631
80205W        W46614  19.140  23.389  14.409
80206W        W46615  33.209  16.004  11.974
80207W        W46616   6.928  38.457   0.458
80208W        W46617  29.786  37.998  11.972
80209W        W46618  14.184   3.665  14.473
80210W        W46619  43.417  18.168   3.241
80211W        W46620  40.562  16.036  11.602
80212W        W46621   9.839  35.996  11.185
80213W        W46622  17.897  32.957  12.416
80214W        W46623  19.119  42.684   3.800
80215W        W46624  27.251   5.564   4.600
80216W        W46625  12.752  15.317  13.830
80217W        W46626  16.565  34.668   3.232
80218W        W46627  13.321  25.656  14.836
80219W        W46628  40.466  25.465   3.669
80220W        W46629  10.208  43.665   1.781
80221W        W46630  28.476  23.112  11.726
80222W        W46631  25.304   5.130   2.467
80223W        W46632   2.135   9.158   3.142
80224W        W46633  32.459   6.542  12.336
80225W        W46634  43.740  35.250   1.894
80226W        W46635  31.776  18.040  11.138
80227W        W46636  31.154  21.547   4.004
80228W        W46637  10.831   9.476   1.480
80229W        W46638  18.694  23.462   1.267
80230W        W46639  41.072   5.585   2.153
80231W        W46640  27.626  20.334  11.018
80232W        W46641  26.079   6.264   2.415
80233W        W46642  11.648  21.746  14.830
80234W        W46643   6.544  37.898  12.436
80235W        W46644  12.807  42.426   2.262
80236W        W46645  42.293   4.829   4.194
80237W        W46646  28.059  18.665  14.171
80238W        W46647  43.458  23.128  10.963
80239W        W46648  35.025  12.208  13.786
80240W        W46649  23.765   6.662   5.029
80241W        W46650  42.974  25.593  11.672
80242W        W46651   1.043   4.492  12.432
80243W        W46652  16.296  33.024   2.544
80244W        W46653  20.714  29.298  10.535
80245W        W46654   8.970  26.941   3.685
80246W        W46655  11.155  10.132  12.932
80247W        W46656  28.580  34.000  13.123
80248W        W46657   8.899  12.715   3.753
80249W        W46658  18.861  23.095   0.926
80250W        W46659   3.089   3.313  10.973
80251W        W46660  20.553  11.066   0.236
80252W        W46661   8.249  15.100  11.121
80253W        W46662  14.972   3.932   0.564
80254W        W46663  22.180  35.895  11.980
80255W        W46664  35.697   4.440   0.401
80256W        W46665   1.124   9.339  11.550
80257W        W46666  25.473  28.071  11.532
80258W        W46667   9.763  24.132  14.090
80259W        W46668  37.899  35.618  12.005
80260W        W46669  27.906   0.294  12.498
80261W        W46670  25.078  40.241   3.152
80262W        W46671  26.172  40.595   1.332
80263W        W46672  30.936  16.683  11.597
80264W        W46673  27.495  36.578   0.316
80265W        W46674  40.470   3.002   2.168
80266W        W46675  42.455   2.482   4.202
80267W        W46676  20.375  25.681   2.867
80268W        W46677  35.231  32.593  13.956
80269W        W46678  13.635   6.854   4.009
80270W        W46679  12.765   0.423  14.834
80271W        W46680  42.117  24.769  14.820
80272W        W46681  21.818   6.901  12.300
80273W        W46682  30.187  22.965  10.716
80274W        W46683  32.633  41.306  12.952
80275W        W46684  44.102  27.514   3.095
80276W        W46685  42.796  33.362  13.173
80277W        W46686  36.168  43.358  10.739
80278W        W46687  44.757  17.496  14.961
80279W        W46688   3.731  18.687   0.775
80280W        W46689  21.719   9.063  13.376
80281W        W46690  21.549  42.642  13.094
80282W        W46691   0.816  38.568   3.725
80283W        W46692  21.638  10.246  10.131
80284W        W46693  30.030  14.200  11.150
80285W        W46694   2.293   0.093   4.818
80286W        W46695  17.055   7.792  14.495
80287W        W46696  21.051  36.011  12.904
80288W        W46697  26.262  15.648   2.501
80289W        W46698  19.781   3.786   3.462
80290W        W46699  32.440  44.280   1.728
80291W        W46700  11.745  27.457  11.136
80292W        W46701  28.488  43.105   1.708
80293W        W46702   3.804  16.066  14.946
80294W        W46703   6.827  34.939   3.584
80295W        W46704   2.031  15.089   4.122
80296W        W46705  31.683   6.911  14.507
80297W        W46706  31.186  11.887  13.297
80298W        W46707  13.083  41.438  12.889
80299W        W46708  34.233  21.468  12.231
80300W        W46709  21.100  29.462   3.611
80301W        W46710  24.297  22.268   1.257
80302W        W46711   7.883   9.101   1.045
80303W        W46712  36.916  15.709   1.272
80304W        W46713  38.334   7.485   1.006
80305W        W46714  20.082   2.463  11.647
80306W        W46715  39.779  22.885   1.776
80307W        W46716   8.854  12.290   2.812
80308W        W46717  19.125  35.860  12.471
80309W        W46718   8.603  42.514   2.799
80310W        W46719  16.744  28.532   4.251
80311W        W46720  13.610  35.572   3.132
80312W        W46721   7.251  18.305   3.604
80313W        W46722   3.947  33.604   0.632
80314W        W46723  11.059  23.545  12.977
80315W        W46724  22.236  42.904   4.662
80316W        W46725   9.326  16.647  14.709
80317W        W46726  36.305  32.458  14.817
80318W        W46727  22.683  43.841  14.968
80319W        W46728   4.954  28.501  12.852
80320W        W46729  23.252  12.382  11.492
80321W        W46730  32.365  19.929  12.575
80322W        W46731  38.174  29.698  12.673
80323W        W46732  41.245  23.178  11.655
80324W        W46733  26.420  39.494  13.970
80325W        W46734  18.244  40.314  11.917
80326W        W46735  15.077  14.551  12.750
80327W        W46736   1.236  11.283  12.825
80328W        W46737   6.876  16.594   3.713
80329W        W46738  22.736  25.017  11.870
80330W        W46739  28.400  32.884   3.315
80331W        W46740   6.113   5.842  13.112
80332W        W46741  28.641  40.713   1.320
80333W        W46742   6.120  37.827  14.919
80334W        W46743   4.946  40.230  13.113
80335W        W46744  25.044  21.066  10.313
80336W        W46745  36.457  27.379   3.718
80337W        W46746   5.240  14.746  10.893
80338W        W46747  15.194  28.436  13.030
80339W        W46748  29.142  14.311  10.572
80340W        W46749  29.999   7.329  14.516
80341W        W46750   1.203  37.897   2.209
80342W        W46751  44.409  22.239   1.242
80343W        W46752  13.580  14.035  12.159
80344W        W46753  41.645   3.462  12.463
80345W        W46754  22.945  44.998  11.529
80346W        W46755   6.239  42.947   0.422
80347W        W46756  30.922  37.922   2.448
80348W        W46757  44.066  14.601   1.296
80349W        W46758  21.258   8.150  14.044
80350W        W46759  25.001  41.935   1.971
80351W        W46760  33.955  28.964   2.688
80352W        W46761  35.569  33.182  12.451
80353W        W46762   8.691  10.768   0.929
80354W        W46763  29.974  17.631  10.882
80355W        W46764   8.622  34.804  12.050
80356W        W46765   7.572  20.618  11.946
80357W        W46766  33.979   4.169  14.947
80358W        W46767  10.863   5.973  11.368
80359W        W46768  20.796  15.755   3.492
80360W        W46769   0.872  37.598   1.398
80361W        W46770  13.372  32.085   0.246
80362W        W46771  37.794  13.538   1.272
80363W        W46772  34.289   4.888  11.633
80364W        W46773  23.982   6.892   0.857
80365W        W46774  22.739   8.925   2.223
80366W        W46775  20.282   9.126  10.368
80367W        W46776  14.939  24.722  11.819
80368W        W46777  35.946  11.962   1.806
80369W        W46778  17.187   5.979  10.595
80370W        W46779  35.388   6.355   3.411
80371W        W46780  41.167  14.826  11.519
80372W        W46781  30.724  24.978   3.355
80373W        W46782  10.367   9.900  12.532
80374W        W46783   0.958  22.371  11.140
80375W        W46784  14.767  33.600  11.218
80376W        W46785  14.540  26.147  13.462
80377W        W46786   6.744  31.510  12.678
80378W        W46787  39.899  36.725   3.048
80379W        W46788   3.698  12.329  14.871
80380W        W46789  44.878  21.042   0.853
80381W        W46790  38.343  44.311   3.150
80382W        W46791  17.863  17.076   3.567
80383W        W46792  16.475  14.229   0.456
80384W        W46793  32.159  12.164  14.783
80385W        W46794   3.234   8.583  11.269
80386W        W46795  44.539  15.481   0.269
80387W        W46796  36.065  19.412  12.497
80388W        W46797   5.204  21.971   1.952
80389W        W46798   8.666   8.749   4.499
80390W        W46799  27.157  43.155   2.741
80391W        W46800  29.380  13.559  12.806
80392W        W46801  37.990  10.629   0.998
80393W        W46802  15.567  29.872   0.677
80394W        W46803   3.804  10.411   1.879
80395W        W46804  11.949  21.108  13.820
80396W        W46805   1.781   6.950   0.382
80397W        W46806  22.505  24.997  13.293
80398W        W46807   5.843  12.136  11.927
80399W        W46808  25.668   9.117   1.214
80400W        W46809  12.310  44.585   4.216
80401W        W46810  34.622  20.224  10.709
80402W        W46811  19.062  22.537  13.033
80403W        W46812  35.795  28.151   4.342
80404W        W46813  25.118  37.987  12.833
80405W        W46814  38.251   4.078  14.610
80406W        W46815   5.529   5.421   3.129
80407W        W46816  43.129  12.461   4.663
80408W        W46817  19.286  16.686  14.869
80409W        W46818  25.791  27.585  11.220
80410W        W46819   6.758  33.143   0.200
80411W        W46820  18.913  24.502   2.338
80412W        W46821  42.904  35.824   0.626
80413W        W46822  30.584   5.314  14.840
80414W        W46823  23.302   0.133  12.240
80415W        W46824  20.581  29.432   2.879
80416W        W46825  20.997  42.552   3.073
80417W        W46826   0.856   2.697   1.589
80418W        W46827   7.867  26.359  12.361
80419W        W46828  44.601   4.407   3.886
80420W        W46829  30.148  28.855  10.669
80421W        W46830  28.998   1.079  10.353
80422W        W46831  29.352  21.048  13.419
80423W        W46832   8.501  25.805  11.489
80424W        W46833  20.398  42.033   0.320
80425W        W46834  44.795  26.410  12.872
80426W        W46835  34.795  21.516   2.211
80427W        W46836  43.369  37.340  13.892
80428W        W46837  16.112  10.559   4.202
80429W        W46838  26.017  41.614  12.330
80430W        W46839  38.310   2.938   0.649
80431W        W46840  21.722  33.519   3.168
80432W        W46841  36.186  33.475   3.667
80433W        W46842  21.175  13.262  13.339
80434W        W46843  13.061  22.693  10.778
80435W        W46844  35.964   3.418  11.117
80436W        W46845  15.040  39.319  13.042
80437W        W46846   3.224  10.637   2.612
80438W        W46847   2.974  38.413   3.693
80439W        W46848  24.042  26.185  11.474
80440W        W46849  18.199  10.387  13.481
80441W        W46850  30.968  42.610  12.876
80442W        W46851  23.909  21.142  12.683
80443W        W46852  17.738  15.787   0.919
80444W        W46853  29.026  19.280   3.953
80445W        W46854   5.920  32.453   2.878
80446W        W46855  11.587  26.615  13.515
80447W        W46856  31.563  24.880  10.678
80448W        W46857  28.620  20.746   1.721
80449W        W46858  30.592  24.758  14.675
80450W        W46859  24.195  27.300   1.939
80451W        W46860  29.680   2.395  12.778
80452W        W46861  38.398   7.451  11.579
80453W        W46862  42.693  26.674   1.788
80454W        W46863   1.789  43.893   1.267
80455W        W46864   6.474  41.979  11.047
80456W        W46865  37.008  18.779   0.205
80457W        W46866  17.233  12.189   0.349
80458W        W46867  43.498  25.691   0.399
80459W        W46868  25.217  29.679   3.805
80460W        W46869  28.161  41.850   4.784
80461W        W46870  15.517  14.221  12.907
80462W        W46871   4.633  24.881   5.215
80463W        W46872  42.256  39.400  14.566
80464W        W46873  19.755   9.365   2.249
80465W        W46874  10.809   8.270  14.712
80466W        W46875  12.853  12.675  14.757
80467W        W46876  28.650   0.749   3.351
80468W        W46877  25.276  14.557  13.393
80469W        W46878  24.978   7.907   0.365
80470W        W46879  24.436  44.487  12.447
80471W        W46880   0.526  21.565  10.737
80472W        W46881  44.947  22.188   1.356
80473W        W46882  42.999  39.766   2.766
80474W        W46883  34.708   2.117   4.624
80475W        W46884  21.455  29.652   3.990
80476W        W46885   1.151  12.134  10.582
80477W        W46886   2.847  34.933   2.664
80478W        W46887  29.561  36.598  12.553
80479W        W46888  30.578   6.628  11.177
80480W        W46889   1.392  24.126  11.356
80481W        W46890  44.201  39.291  13.585
80482W        W46891   8.161  25.865  13.547
80483W        W46892  44.352  11.735   4.648
80484W        W46893  11.648   8.822   0.834
80485W        W46894  20.221  20.314   0.195
80486W        W46895  12.171  44.089   4.331
80487W        W46896  13.424  34.905   3.851
80488W        W46897  22.725  39.506  15.000
80489W        W46898  41.630  27.564  12.657
80490W        W46899  27.630  29.410   3.702
80491W        W46900   9.435  10.917  12.571
80492W        W46901  44.915   2.849  12.086
80493W        W46902  15.628   2.280   2.414
80494W        W46903  34.436  13.201  13.100
80495W        W46904  21.978   6.428   1.449
80496W        W46905  16.676   7.584   3.746
80497W        W46906  36.072  18.837  10.634
80498W        W46907  43.213  16.712  14.402
80499W        W46908   3.876  34.407   1.672
80500W        W46909  41.826  19.649   4.301
80501W        W46910  44.408   6.273   2.813
80502W        W46911  10.230  24.485   2.826
80503W        W46912   5.820  29.729  12.502
80504W        W46913  38.486  20.467  12.563
80505W        W46914  26.035  15.838  10.576
80506W        W46915   9.901  33.984   3.560
80507W        W46916   1.925  39.954  12.475
80508W        W46917  32.393  22.644  14.817
80509W        W46918  34.919   3.305   3.661
80510W        W46919  15.761  17.722   1.286
80511W        W46920  40.495  37.124  14.448
80512W        W46921  19.808  27.106  13.409
80513W        W46922   5.060   6.251   3.767
80514W        W46923  21.859  33.321   2.720
80515W        W46924   7.633   3.238  14.565
80516W        W46925  38.421  39.350   1.811
80517W        W46926   5.758  24.003  12.864
80518W        W46927  37.959  33.260  11.235
80519W        W46928  36.941  11.232  14.389
80520W        W46929  35.424   1.068   4.649
80521W        W46930  23.999  30.057  11.693
80522W        W46931  25.526  22.910  11.623
80523W        W46932   2.452  44.904   2.375
80524W        W46933   6.706  41.725   4.672
80525W        W46934  25.496  12.904   4.050
80526W        W46935  12.095   1.201  13.553
80527W        W46936  22.851   7.508   0.720
80528W        W46937  20.204  18.697  12.309
80529W        W46938  31.823  39.847   0.747
80530W        W46939  18.417   7.037  11.692
80531W        W46940  37.831   3.252   2.128
80532W        W46941  26.774  11.835  12.420
80533W        W46942  27.522  13.098  12.562
80534W        W46943  44.959  32.146   0.752
80535W        W46944   0.641   0.775   3.050
80536W        W46945  29.135  21.663   4.174
80537W        W46946  33.524  14.718   3.347
80538W        W46947   7.136  16.580  11.473
80539W        W46948  36.659  37.942   3.444
80540W        W46949  28.867   3.291   2.323
80541W        W46950   0.102  11.892  11.193
80542W        W46951  14.073  10.202   2.847
80543W        W46952   6.899  44.380   1.199
80544W        W46953   0.889  44.666  13.884
80545W        W46954   3.284  12.619  14.752
80546W        W46955  13.794  10.883   0.765
80547W        W46956  12.870  14.394   3.611
80548W        W46957  40.356  25.163  10.220
80549W        W46958  13.328   9.879   0.219
80550W        W46959  39.993  25.090  13.816
80551W        W46960   1.881  40.957  12.850
80552W        W46961  33.112   2.824  12.574
80553W        W46962   4.356  16.568   2.874
80554W        W46963  11.070  36.094   4.101
80555W        W46964  11.711   7.720  10.865
80556W        W46965  35.764  32.997  10.758
80557W        W46966  18.493  26.752   3.631
80558W        W46967   7.930   7.800  13.834
80559W        W46968  31.116  42.849   3.331
80560W        W46969   0.407  27.420  12.223
80561W        W46970  12.593   7.742   4.578
80562W        W46971   2.937  37.462   1.357
80563W        W46972  30.492  36.377  11.737
80564W        W46973   4.601   8.651   2.666
80565W        W46974  28.715  10.694  12.497
80566W        W46975  23.073  35.906  13.380
80567W        W46976  14.680  28.385  13.017
80568W        W46977  21.641  39.600  14.262
80569W        W46978  23.623  27.962   0.486
80570W        W46979  32.524  33.081   0.798
80571W        W46980  10.784  31.814   1.089
80572W        W46981  33.223  24.809   4.216
80573W        W46982   8.824  26.512   0.743
80574W        W46983   2.067   5.860   2.740
80575W        W46984   7.902  42.781  10.712
80576W        W46985  11.821  29.420  13.749
80577W        W46986  44.643   4.240  13.961
80578W        W46987   6.282   0.564   4.972
80579W        W46988  19.947  27.674  13.891
80580W        W46989  34.562  16.674   1.749
80581W        W46990  27.237  32.207   1.394
80582W        W46991  15.710  16.083   1.376
80583W        W46992  21.782  21.167  13.594
80584W        W46993  12.113  35.964  11.586
80585W        W46994  33.030  21.539   0.194
80586W        W46995  32.094  13.526  11.294
80587W        W46996  10.076  35.997   1.324
80588W        W46997   7.272  43.589   2.230
80589W        W46998  38.231  30.425  13.981
80590W        W46999  10.253  25.335   2.989
80591W        W47000   1.494  22.754  14.921
80592W        W47001  30.618  11.527   3.703
80593W        W47002  44.895   3.526  10.725
80594W        W47003   5.673  33.540  13.923
80595W        W47004  38.091  28.127  12.917
80596W        W47005  16.680  12.747   1.651
80597W        W47006   3.341   3.214   1.795
80598W        W47007  37.131  14.162  12.064
80599W        W47008  30.641  36.337  13.036
80600W        W47009  23.609  24.244  14.624
80601W        W47010   4.325  27.572  12.441
80602W        W47011  18.274  30.908   4.078
80603W        W47012  43.727  14.678  13.047
80604W        W47013  20.138  40.036   2.708
80605W        W47014  11.334  25.103   1.360
80606W        W47015  28.511  40.886   4.443
80607W        W47016   5.699   8.649   1.928
80608W        W47017  19.703  11.284   4.613
80609W        W47018  36.749  10.312   4.564
80610W        W47019  27.055  43.152   5.084
80611W        W47020  31.127  13.844   3.589
80612W        W47021  41.152  11.302  11.113
80613W        W47022  13.577  28.583  10.717
80614W        W47023  11.032   5.708  12.992
80615W        W47024  16.020   1.513   0.813
80616W        W47025  29.125  36.625   4.620
80617W        W47026  29.543  24.445  11.432
80618W        W47027  12.096  17.837  10.719
80619W        W47028   8.863  43.307  11.020
80620W        W47029  20.958   0.960  12.251
80621W        W47030  23.527  14.125   4.131
80622W        W47031  42.895  29.472   2.643
80623W        W47032  36.074   5.914   0.695
80624W        W47033  34.024  12.216   4.191
80625W        W47034   7.439  37.328   2.831
80626W        W47035  23.996   5.693  13.637
80627W        W47036  39.520  38.347  11.980
80628W        W47037  21.857  41.455   4.245
80629W        W47038  44.498  40.741  11.950
80630W        W47039  23.868  14.686   2.133
80631W        W47040  29.567  34.079  12.367
80632W        W47041   6.860  10.171   0.961
80633W        W47042  33.607  12.352  11.590
80634W        W47043  32.798   1.404   5.326
80635W        W47044  41.963  20.110   4.542
80636W        W47045  14.066  38.766   1.204
80637W        W47046  36.617  29.344  13.640
80638W        W47047  43.465  16.506   4.285
80639W        W47048   0.469   2.257  10.728
80640W        W47049  34.079   5.259   1.584
80641W        W47050  39.731  26.676  10.382
80642W        W47051  17.238  28.699   4.442
80643W        W47052  10.776  37.978   4.785
80644W        W47053  23.597   1.944  10.580
80645W        W47054  13.208  36.129   0.356
80646W        W47055   4.419  13.250  14.460
80647W        W47056  23.928  35.814  11.255
80648W        W47057  22.095   6.439   0.540
80649W        W47058  37.141   1.934  11.434
80650W        W47059  11.084  21.912   1.476
80651W        W47060  42.662  44.033   0.968
80652W        W47061  21.642  40.837  11.853
80653W        W47062   7.045  35.444   4.727
80654W        W47063   0.063  30.563   0.446
80655W        W47064  19.907  26.126  14.892
80656W        W47065  11.412   5.370   4.112
80657W        W47066  13.241   1.273  11.629
80658W        W47067  39.077  23.291  14.975
80659W        W47068  21.299  11.572   3.733
80660W        W47069  27.800  30.694  14.802
80661W        W47070  27.828   9.976   5.703
80662W        W47071  37.983  40.730  13.515
80663W        W47072  38.343  16.165   0.738
80664W        W47073  34.550   1.651   4.504
80665W        W47074   0.887  29.534  14.796
80666W        W47075   1.975  44.808  11.711
80667W        W47076  29.384   1.934   4.593
80668W        W47077  37.063   5.864  10.886
80669W        W47078  40.781  40.989  14.208
80670W        W47079  10.018  23.126   0.467
80671W        W47080  43.006  14.203  12.335
80672W        W47081  43.530  17.503  13.075
80673W        W47082  19.861   8.341  14.587
80674W        W47083  41.064   2.703   3.222
80675W        W47084  14.685  44.893  13.926
80676W        W47085  27.828  27.144  10.713
80677W        W47086   0.146  41.921  12.024
80678W        W47087  18.916  27.113  12.457
80679W        W47088  16.087  29.502  14.092
80680W        W47089   9.210   2.975  10.778
80681W        W47090  12.533  16.784   1.480
80682W        W47091  24.277  29.353  13.297
80683W        W47092  26.176  15.062   4.191
80684W        W47093  44.943  34.651   0.897
80685W        W47094  42.044  35.556   3.197
80686W        W47095   5.410  31.884  13.767
80687W        W47096  30.431  30.161  10.725
80688W        W47097  30.588  14.349   4.513
80689W        W47098  24.443  42.003   2.684
80690W        W47099  10.761  16.323  13.077
80691W        W47100  33.865   8.052   3.293
80692W        W47101  21.847  13.109  13.918
80693W        W47102  28.228  39.909  11.214
80694W        W47103   1.492  23.042   2.823
80695W        W47104  19.770  20.081   4.915
80696W        W47105  24.712  30.557   4.773
80697W        W47106   2.401  25.066  11.576
80698W        W47107  10.810  40.578  12.329
80699W        W47108  23.109  35.313   3.895
80700W        W47109  19.996  30.799   1.809
80701W        W47110  19.118   4.511   2.609
80702W        W47111  36.401  15.806   1.187
80703W        W47112  17.246  17.856  11.248
80704W        W47113   7.447  33.210  11.850
80705W        W47114  32.593  24.929  13.029
80706W        W47115  34.647  35.430   2.474
80707W        W47116  27.190   6.607  10.778
80708W        W47117  31.700  42.875  12.253
80709W        W47118  16.659  25.351   0.752
80710W        W47119  15.130  10.212  12.299
80711W        W47120  11.167  16.462  11.721
80712W        W47121  14.179  30.852   0.006
80713W        W47122  10.158  44.180   1.904
80714W        W47123   7.583  26.090   1.784
80715W        W47124  32.385  20.052   1.018
80716W        W47125  22.195  12.735  13.083
80717W        W47126  44.672  24.849  11.833
80718W        W47127  22.053  10.354  11.319
80719W        W47128  41.950  38.967   2.211
80720W        W47129  15.202  18.343   5.283
80721W        W47130  21.089  27.608  12.523
80722W        W47131  39.120   8.605  11.130
80723W        W47132  34.609  33.987   3.293
80724W        W47133   3.388  16.542  14.130
80725W        W47134  34.899  28.815  12.609
80726W        W47135   6.451  21.691   0.329
80727W        W47136   3.876  31.356   2.856
80728W        W47137   9.517   6.655  13.528
80729W        W47138  23.777   4.276   3.371
80730W        W47139  15.800  12.065  14.860
80731W        W47140  18.706  10.047   2.132
80732W        W47141   0.948   8.886  12.460
80733W        W47142  42.151  21.125   1.217
80734W        W47143  34.445   1.734  13.428
80735W        W47144  14.763   0.126  10.240
80736W        W47145   4.755  10.992  12.139
80737W        W47146  28.508   1.966  14.360
80738W        W47147  41.324   0.513   4.849
80739W        W47148  38.453  40.855   1.598
80740W        W47149   0.966  12.103   0.694
80741W        W47150  31.088  35.746  14.121
80742W        W47151  35.132  41.537  14.932
80743W        W47152  41.511  31.690   4.186
80744W        W47153  20.095  35.219  11.674
80745W        W47154  24.772   6.774   4.256
80746W        W47155  13.319  22.892   3.009
80747W        W47156  35.409  15.890   1.358
80748W        W47157   1.266  35.286  11.085
80749W        W47158  10.383  10.752   4.196
80750W        W47159  27.249   1.412  14.375
80751W        W47160  27.604  37.369  14.418
80752W        W47161  25.420  30.186  10.691
80753W        W47162  43.273  13.733  13.960
80754W        W47163   7.628  28.070  12.649
80755W        W47164  40.783  16.075   1.862
80756W        W47165  25.747  40.228  12.857
80757W        W47166   7.946  12.721  12.765
80758W        W47167   4.875   7.167  11.497
80759W        W47168  37.835  27.042  10.445
80760W        W47169  26.209  13.150   3.586
80761W        W47170   2.406  29.058  13.640
80762W        W47171  11.948   0.112  12.078
80763W        W47172  30.140  10.117  14.433
80764W        W47173  23.898   0.982   4.083
80765W        W47174  18.290  23.324   4.928
80766W        W47175  31.826  35.328  13.768
80767W        W47176  12.810  13.927  11.230
80768W        W47177  35.307  11.018   2.968
80769W        W47178  15.259  38.964   2.725
80770W        W47179  29.419  25.161   5.042
80771W        W47180   0.623  12.238   1.644
80772W        W47181   2.717  11.338   4.137
80773W        W47182  33.461  26.559  10.499
80774W        W47183  34.591  38.586   1.952
80775W        W47184  26.319  11.784  14.229
80776W        W47185   7.602  30.155   4.860
80777W        W47186  25.722  12.337   3.545
80778W        W47187  40.506  44.550   1.243
80779W        W47188  17.190  32.391  14.509
80780W        W47189   1.643   0.402  14.059
80781W        W47190  20.026  15.444  12.373
80782W        W47191   5.728  10.228  12.425
80783W        W47192  32.990  34.794   4.272
80784W        W47193   8.118  20.726  12.943
80785W        W47194  27.904  25.682  11.957
80786W        W47195  18.220   6.631   1.304
80787W        W47196  14.068  43.950   2.130
80788W        W47197  29.058  25.438   3.716
80789W        W47198   1.861  12.372   2.627
80790W        W47199  22.311  44.890  10.907
80791W        W47200   9.873  40.377   2.095
80792W        W47201  12.470  40.483  10.586
80793W        W47202  43.340  22.680   4.797
80794W        W47203  31.740   0.788   2.231
80795W        W47204  17.027  18.299   3.614
80796W        W47205  36.986  23.958  11.722
80797W        W47206  40.002   4.156  13.940
80798W        W47207  27.502  17.705   0.075
80799W        W47208  34.892  21.315  14.496
80800W        W47209  13.624   0.855   3.742
80801W        W47210  14.131  11.281   4.243
80802W        W47211  10.766  28.698  14.496
80803W        W47212   9.259   0.861  11.487
80804W        W47213  27.176   0.250   3.237
80805W        W47214  39.222  35.527  12.779
80806W        W47215  13.743  41.412  13.990
80807W        W47216  10.358   2.179  12.878
80808W        W47217   0.502   6.163   0.035
80809W        W47218   1.730   6.823   1.788
80810W        W47219  42.545  20.090   0.368
80811W        W47220   7.589  34.032  13.840
80812W        W47221  19.916   0.191   3.314
80813W        W47222  43.347  37.778   1.218
80814W        W47223  13.341  33.030  10.482
80815W        W47224  10.096   1.281  13.439
80816W        W47225   4.894  20.948   2.851
80817W        W47226  20.384  37.386  10.252
80818W        W47227  21.192   1.273  11.578
80819W        W47228  24.583  24.738  11.228
80820W        W47229  43.040  21.671  13.869
80821W        W47230  13.841  12.648  14.742
80822W        W47231  44.253  39.563  11.290
80823W        W47232  22.580   9.264  14.401
80824W        W47233  42.901   8.113   0.141
80825W        W47234  42.145   5.618  12.032
80826W        W47235   3.988  15.558  13.033
80827W        W47236   3.872   8.095  14.247
80828W        W47237   5.783   0.507   4.755
80829W        W47238  17.262  43.145   2.417
80830W        W47239  30.973  29.594   3.691
80831W        W47240   6.438  21.512   5.277
80832W        W47241   1.471   0.747   4.635
80833W        W47242  14.060   4.128  10.204
80834W        W47243   2.931  24.182   2.908
80835W        W47244   9.757   6.878   3.644
80836W        W47245  36.917   4.335  12.603
80837W        W47246  38.350  22.665   2.359
80838W        W47247  35.585  29.964  14.365
80839W        W47248  37.084   2.370  12.525
80840W        W47249  37.904   3.247   4.397
80841W        W47250   3.173  12.348   4.302
80842W        W47251  15.879  44.194   2.112
80843W        W47252  27.186  43.247   0.467
80844W        W47253  10.206  22.589  13.419
80845W        W47254  27.505  20.727  12.476
80846W        W47255  26.699  43.503   1.433
80847W        W47256  30.576  19.887  13.087
80848W        W47257  11.323   1.207   2.751
80849W        W47258  17.011  11.359  11.061
80850W        W47259   9.459  15.067   2.083
80851W        W47260  13.904  29.396  12.502
80852W        W47261  15.584  39.362   2.257
80853W        W47262   0.909   5.005   4.956
80854W        W47263   3.963  33.508   1.153
80855W        W47264  31.630   0.143  14.347
80856W        W47265  30.223  40.068   1.751
80857W        W47266  13.791   3.453   1.763
80858W        W47267  10.151  36.703  13.949
80859W        W47268   7.144  42.406  13.620
80860W        W47269  36.916   2.580   3.238
80861W        W47270  37.851  17.695  12.221
80862W        W47271   0.751  43.570  14.812
80863W        W47272  32.472  42.051   2.813
80864W        W47273  43.660   3.720  11.147
80865W        W47274  18.409  25.640  12.339
80866W        W47275  21.461  17.054  12.790
80867W        W47276   9.111  35.541   4.229
80868W        W47277  12.798   7.576  12.467
80869W        W47278  10.163  37.654   1.685
80870W        W47279  15.182  12.249  14.013
80871W        W47280  14.395   0.713   1.186
80872W        W47281  32.630   8.092  13.844
80873W        W47282  44.105  41.869   4.447
80874W        W47283   8.171  23.547   2.906
80875W        W47284  13.266  16.971   4.058
80876W        W47285  23.069  27.798   1.389
80877W        W47286  30.615   3.107  14.272
80878W        W47287  25.860  27.067   2.002
80879W        W47288   5.938  11.261  14.503
80880W        W47289  33.386  22.801  12.933
80881W        W47290   6.392  42.622  14.834
80882W        W47291  32.988   0.248  14.301
80883W        W47292   1.767   4.364   1.608
80884W        W47293  16.127  34.909  14.833
80885W        W47294  16.369   5.738   4.686
80886W        W47295  18.292  38.762   3.352
80887W        W47296  33.158   4.360   3.589
80888W        W47297  20.670  25.144  14.560
80889W        W47298  20.999  16.536   1.960
80890W        W47299  31.409   6.213   3.263
80891W        W47300  11.805   8.693   0.298
80892W        W47301   6.728  41.398  13.009
80893W        W47302  13.343  31.023  14.519
80894W        W47303   7.784  32.410  11.795
80895W        W47304  34.166  13.118   4.392
80896W        W47305  43.459  38.934   2.686
80897W        W47306  16.057  40.408   4.787
80898W        W47307  12.705  16.764  12.595
80899W        W47308  44.268  37.834   0.074
80900W        W47309  26.900  24.737   0.225
80901W        W47310  19.418  26.215  13.547
80902W        W47311  42.807  13.889  13.826
80903W        W47312   3.409  25.441  11.535
80904W        W47313  23.430  22.935   0.413
80905W        W47314  44.052   5.737   3.868
80906W        W47315   0.465  29.199   1.954
80907W        W47316  17.970  31.860  12.640
80908W        W47317  12.868  29.967  11.591
80909W        W47318  24.721  22.790  14.469
80910W        W47319  36.841   7.487   0.628
80911W        W47320  15.536  17.048   4.117
80912W        W47321  16.331  15.780  11.229
80913W        W47322  34.010  44.936  11.067
80914W        W47323   2.589  42.475   4.107
80915W        W47324   0.236  39.075   4.256
80916W        W47325  27.894  41.312   5.099
80917W        W47326  17.713  26.931   4.188
80918W        W47327   8.795  19.198  13.273
80919W        W47328  40.938  34.841   1.275
80920W        W47329  25.533  42.522   1.368
80921W        W47330  42.795  37.597   0.438
80922W        W47331  28.387  16.695   2.743
80923W        W47332  23.360   6.427  13.891
80924W        W47333  18.837  18.645  13.518
80925W        W47334   4.064  38.820   0.298
80926W        W47335   9.491   6.005  11.559
80927W        W47336   7.082  13.751  13.332
80928W        W47337   6.695   4.843   3.368
80929W        W47338  19.493  24.775  12.104
80930W        W47339  44.147  13.588  10.777
80931W        W47340  32.118  22.071   3.765
80932W        W47341  29.959  34.467  13.920
80933W        W47342   5.331  39.031  10.426
80934W        W47343  44.993   9.285  13.798
80935W        W47344  36.357  14.578  12.205
80936W        W47345  17.226  26.384  10.443
80937W        W47346  17.044  39.668   4.037
80938W        W47347  40.423  10.880   4.029
80939W        W47348  41.064  12.592  12.926
80940W        W47349   0.549  42.953   0.455
80941W        W47350   8.413  13.977  14.825
80942W        W47351  18.637  37.816   2.702
80943W        W47352   9.735  32.610   0.292
80944W        W47353  28.525  15.761   4.593
80945W        W47354  28.364  19.077  14.450
80946W        W47355  13.296  43.158  11.584
80947W        W47356  33.491  43.505  10.789
80948W        W47357  10.377  14.178   0.829
80949W        W47358   4.633  12.555   1.730
80950W        W47359  42.425  31.083   0.801
80951W        W47360  10.186  20.447   4.121
80952W        W47361  16.333  13.385  10.675
80953W        W47362  20.222  42.158  14.735
80954W        W47363   4.858  25.231   3.248
80955W        W47364   5.969  19.747  11.217
80956W        W47365  16.217  25.461  14.355
80957W        W47366  31.465  32.018  12.035
80958W        W47367  17.283  22.481   0.323
80959W        W47368  38.809  40.520  10.610
80960W        W47369  24.836  17.058   0.511
80961W        W47370   3.463  16.170   3.300
80962W        W47371  40.629  16.124  10.776
80963W        W47372   4.415  26.535   3.700
80964W        W47373  24.063  39.471  11.131
80965W        W47374  41.258  29.007  12.797
80966W        W47375  23.725   5.205  13.141
80967W        W47376  28.657  13.681  11.598
80968W        W47377  33.933  16.558  13.038
80969W        W47378  18.157   5.225   0.441
80970W        W47379  28.049  30.580   2.171
80971W        W47380  10.602  35.116  12.793
80972W        W47381   5.657  18.767   0.447
80973W        W47382  12.214   9.136  13.123
80974W        W47383  36.495  23.063   4.061
80975W        W47384  40.472  11.777  13.452
80976W        W47385  43.270  31.900  14.425
80977W        W47386  36.444  31.694  13.055
80978W        W47387  22.226   1.519  14.015
80979W        W47388  21.244  18.254   0.487
80980W        W47389  12.831  19.681   1.299
80981W        W47390  15.312  40.044   2.717
80982W        W47391  19.779  11.763   2.112
80983W        W47392   1.951  41.196   2.670
80984W        W47393  18.681  44.034  10.597
80985W        W47394   8.238   9.832  14.534
80986W        W47395  17.509  26.667   3.781
80987W        W47396   3.456  27.575   2.843
80988W        W47397  10.219  31.385  11.636
80989W        W47398  35.496  30.037   1.289
80990W        W47399  37.287  33.408   2.000
80991W        W47400  30.737  35.861  13.147
80992W        W47401   1.290   0.007   2.782
80993W        W47402  24.236  11.634   1.308
80994W        W47403  13.745  36.449  14.395
80995W        W47404  27.038   7.448   4.020
80996W        W47405  11.582  39.270  13.530
80997W        W47406  43.480   2.257   5.056
80998W        W47407  11.155  40.943  11.008
80999W        W47408   1.639  34.151  12.542
81000W        W47409  40.245  25.206  10.765
81001W        W47410   9.211   7.825   1.640
81002W        W47411  12.583  11.153   2.806
81003W        W47412  15.686  11.757   4.630
81004W        W47413  30.495  25.194   3.813
81005W        W47414  33.390  34.700   2.123
81006W        W47415  10.053   2.307   2.094
81007W        W47416  21.109  20.730   4.807
81008W        W47417  41.152  20.868   3.830
81009W        W47418  11.167  42.918  11.581
81010W        W47419   3.897   8.785   4.593
81011W        W47420  31.269  37.876   0.805
81012W        W47421  44.846  18.711  11.427
81013W        W47422  36.829   1.360  13.429
81014W        W47423  28.747  43.775   0.815
81015W        W47424  40.853   1.902   1.397
81016W        W47425   3.557  40.792   0.968
81017W        W47426  34.519   9.569  11.471
81018W        W47427   7.006  38.027   2.157
81019W        W47428  36.965   2.820  13.932
81020W        W47429   1.998  28.843  13.361
81021W        W47430  25.451  37.218  11.442
81022W        W47431  31.551  21.120   1.001
81023W        W47432  19.560  34.470  12.153
81024W        W47433  32.115  30.439  11.725
81025W        W47434  24.655  22.741  12.178
81026W        W47435  16.206   3.049  14.961
81027W        W47436  22.243  26.684   1.680
81028W        W47437  38.488  31.046  14.834
81029W        W47438  14.790  27.551   4.973
81030W        W47439  32.946   9.114  10.642
81031W        W47440  11.113  29.508  10.422
81032W        W47441  26.106  43.693  14.484
81033W        W47442  23.004  32.614   3.607
81034W        W47443  40.395   1.313   0.229
81035W        W47444  13.767  10.145   1.182
81036W        W47445  29.333  34.607   4.523
81037W        W47446  14.353  29.338  10.772
81038W        W47447   2.888   2.829  13.568
81039W        W47448  23.008  21.024   2.451
81040W        W47449  39.009   9.328  13.722
81041W        W47450  34.524  33.169   3.147
81042W        W47451  36.925  43.932   3.243
81043W        W47452   7.514  27.090  10.614
81044W        W47453  11.927  14.398   0.825
81045W        W47454  31.512  28.460  13.479
81046W        W47455  19.463  25.451   5.059
81047W        W47456  23.156   7.984  14.841
81048W        W47457  18.784   4.703  12.925
81049W        W47458   5.646   5.889  10.585
81050W        W47459  23.276  25.767  14.963
81051W        W47460  18.095  13.385   0.300
81052W        W47461  15.362   1.356   1.968
81053W        W47462  44.006  42.529  10.776
81054W        W47463   3.659  38.112   3.207
81055W        W47464  39.616  17.339   3.608
81056W        W47465  23.217  22.528  13.501
81057W        W47466  34.740   0.207  11.983
81058W        W47467  10.123  15.152   2.925
81059W        W47468  22.861  29.675   1.325
81060W        W47469  39.842   4.553   1.235
81061W        W47470  25.428  40.380   1.982
81062W        W47471  42.254  22.648   4.072
81063W        W47472  39.110  27.364  13.618
81064W        W47473  35.087  32.074   1.271
81065W        W47474  29.145  17.445   0.714
81066W        W47475   2.150   1.278   1.941
81067W        W47476  33.272  31.838   4.173
81068W        W47477  23.684  15.234   2.841
81069W        W47478   2.345  44.330   4.128
81070W        W47479  29.911  32.341  10.847
81071W        W47480  19.932  33.046   4.903
81072W        W47481  37.145  15.349   2.657
81073W        W47482  11.634   7.266  12.111
81074W        W47483  19.152   8.799   1.844
81075W        W47484  15.552   4.401   3.138
81076W        W47485   3.999  34.260   4.534
81077W        W47486  22.160  39.827  10.550
81078W        W47487   7.864  41.001   1.599
81079W        W47488  42.957  40.912   3.209
81080W        W47489  40.327  36.057   0.924
81081W        W47490  28.789  29.169  12.038
81082W        W47491  26.552  37.165   2.271
81083W        W47492  40.038  30.856   0.376
81084W        W47493  40.086  37.572   0.442
81085W        W47494   7.246  29.316   1.376
81086W        W47495  41.690  31.687  12.925
81087W        W47496  12.301  27.240   3.596
81088W        W47497   8.222  11.796  14.880
81089W        W47498  17.630  26.562  13.262
81090W        W47499  37.363  36.946   0.845
81091W        W47500  31.711  38.786  11.049
81092W        W47501  41.960  31.886  11.622
81093W        W47502  14.290  28.975  14.567
81094W        W47503  38.381  16.024  10.599
81095W        W47504  31.868   5.210  14.384
81096W        W47505   1.021  14.964   3.129
81097W        W47506   3.565   1.197   2.392
81098W        W47507   5.663  44.907  11.983
81099W        W47508  11.837  39.542  11.622
81100W        W47509  30.451   3.343  12.463
81101W        W47510  30.891  23.523  10.790
81102W        W47511  36.068  33.188   1.708
81103W        W47512  13.151  13.072  10.975
81104W        W47513   1.066  14.541   1.243
81105W        W47514   2.010  30.989   1.509
81106W        W47515   9.586  38.788   2.458
81107W        W47516  21.836  38.350   3.308
81108W        W47517  40.764  25.910  11.898
81109W        W47518   7.663  43.018   4.151
81110W        W47519   4.227  18.812   0.359
81111W        W47520  39.534  37.816   0.894
81112W        W47521   7.355   2.645   1.975
81113W        W47522  28.485   5.034   2.570
81114W        W47523  29.986   1.907  13.253
81115W        W47524   1.241   0.470   2.343
81116W        W47525  29.060   5.344   0.375
81117W        W47526  11.663   1.080  12.101
81118W        W47527  12.846  15.373   3.348
81119W        W47528   6.804  19.335   2.122
81120W        W47529   9.986   2.412   0.042
81121W        W47530  38.249  10.706   0.519
81122W        W47531  35.563  44.219   0.009
81123W        W47532  34.583  40.976  12.887
81124W        W47533  37.969  15.141   2.596
81125W        W47534  32.944  15.177   0.207
81126W        W47535  38.847  11.720  11.289
81127W        W47536  17.742   9.130   2.273
81128W        W47537  13.358  32.597   0.485
81129W        W47538  29.455  19.705   2.699
81130W        W47539  16.092   8.283  10.675
81131W        W47540   4.968   1.309   0.483
81132W        W47541  10.991  22.153  12.540
81133W        W47542   9.763  31.465  14.338
81134W        W47543  24.684  44.189   3.638
81135W        W47544  27.998   0.710   5.107
81136W        W47545  35.415  41.911  14.244
81137W        W47546  37.091   4.955  11.443
81138W        W47547  29.878  24.942   4.651
81139W        W47548  43.303  28.977   0.402
81140W        W47549  33.020  12.518   3.166
81141W        W47550  43.885  35.396   0.728
81142W        W47551   7.152  27.134   0.200
81143W        W47552  13.239  16.136   4.363
81144W        W47553  38.508  29.179   1.336
81145W        W47554  14.327  44.449   2.210
81146W        W47555  37.450   9.744   4.897
81147W        W47556  18.796  24.520   0.309
81148W        W47557  11.219   8.358  13.460
81149W        W47558   7.696  12.701  14.011
81150W        W47559  31.159  23.944  14.959
81151W        W47560  28.601  41.697  14.509
81152W        W47561  22.294  17.416  12.957
81153W        W47562  36.484  19.554   1.293
81154W        W47563  41.133  39.636  14.207
81155W        W47564   7.068   9.040  12.457
81156W        W47565  35.985  22.160   3.147
81157W        W47566  29.244  38.475  13.997
81158W        W47567  16.484  34.141  14.489
81159W        W47568  20.690  16.139  13.825
81160W        W47569  23.993  35.435  10.737
81161W        W47570  30.970  24.079  14.301
81162W        W47571  35.927  32.513   4.344
81163W        W47572   8.967   5.364  13.631
81164W        W47573  20.774  36.075  13.987
81165W        W47574  37.684  41.136   0.332
81166W        W47575   1.022  33.146   0.894
81167W        W47576   1.713  37.815   4.817
81168W        W47577   3.442  28.892  14.951
81169W        W47578  25.412  38.603   0.948
81170W        W47579  16.058  19.163   1.332
81171W        W47580  32.570   1.121   3.292
81172W        W47581   8.231  22.382  12.307
81173W        W47582  18.594  29.687  14.847
81174W        W47583  35.577  23.083   4.203
81175W        W47584  21.266  41.746   2.035
81176W        W47585   4.322  29.120  12.188
81177W        W47586  10.439  18.227   2.109
81178W        W47587  36.402  40.578  14.384
81179W        W47588   4.708  40.585   2.680
81180W        W47589   0.307  12.942  12.706
81181W        W47590   7.334  22.777   3.306
81182W        W47591  38.084  35.625  11.531
81183W        W47592  23.145   1.317  10.668
81184W        W47593  35.551  34.635  12.360
81185W        W47594   0.832  15.045  11.663
81186W        W47595  40.252   6.730  12.382
81187W        W47596  39.305  21.018  14.240
81188W        W47597  13.862   2.689   2.159
81189W        W47598  29.132  23.175   2.125
81190W        W47599  14.311  17.167   1.225
81191W        W47600   6.731   4.963  14.360
81192W        W47601  21.123   8.604   3.855
81193W        W47602  12.903  18.128   3.714
81194W        W47603  12.939   3.469  14.457
81195W        W47604  44.831  43.765  13.755
81196W        W47605   3.455  28.378  14.996
81197W        W47606   7.097  34.918   3.145
81198W        W47607   9.400  27.964  13.611
81199W        W47608   4.995  37.087   3.265
81200W        W47609  29.889   4.323   2.830
81201W        W47610  20.131   0.997   1.706
81202W        W47611  25.298  21.386  10.677
81203W        W47612  21.271  32.358   5.153
81204W        W47613  10.613   4.483   0.939
81205W        W47614  34.543  11.185  11.382
81206W        W47615  21.514  26.506  10.837
81207W        W47616   5.292  17.401  12.536
81208W        W47617  11.185  31.643  11.801
81209W        W47618  10.915  15.755   3.160
81210W        W47619  24.434  37.591   0.289
81211W        W47620   4.259  34.131   1.864
81212W        W47621  11.757  15.854   2.825
81213W        W47622   7.115  37.701   4.417
81214W        W47623   5.916  15.220  12.961
81215W        W47624  14.133  32.563  10.732
81216W        W47625  35.833  32.302   4.838
81217W        W47626  33.494   6.878   1.957
81218W        W47627  13.882  32.543   4.281
81219W        W47628  12.262  22.704   3.574
81220W        W47629  21.433  36.931   0.921
81221W        W47630  41.297   7.198  13.853
81222W        W47631   3.830  34.680  13.584
81223W        W47632   9.527   2.104   4.524
81224W        W47633  22.938  42.249  11.149
81225W        W47634   4.433   0.563   3.900
81226W        W47635  37.083  42.984  12.087
81227W        W47636  33.986  29.631  14.778
81228W        W47637  20.706  24.509   3.181
81229W        W47638  14.402   2.432   2.747
81230W        W47639  14.641  41.217   1.854
81231W        W47640  15.719  19.082  14.279
81232W        W47641  23.165  23.755   1.842
81233W        W47642   8.146  25.157   1.187
81234W        W47643   1.219  20.538   2.779
81235W        W47644  16.850  35.047  11.283
81236W        W47645  42.441   2.706  13.099
81237W        W47646   3.503   8.213   2.705
81238W        W47647   5.219   7.732   3.238
81239W        W47648  33.172  14.860   1.379
81240W        W47649   6.486  28.567   3.762
81241W        W47650  36.421   5.178  12.856
81242W        W47651   2.339  23.484   1.378
81243W        W47652  34.714  26.417   4.256
81244W        W47653  35.255  28.228   4.269
81245W        W47654  43.316  32.897   4.074
81246W        W47655  34.890   7.759   2.498
81247W        W47656   3.459   5.228  13.629
81248W        W47657  38.232  31.237   3.240
81249W        W47658  14.579  34.535  13.507
81250W        W47659  43.653  12.165  11.488
81251W        W47660  11.851  25.940  12.721
81252W        W47661  33.115   0.996  11.741
81253W        W47662  44.443  12.573   4.803
81254W        W47663  11.472  25.184   3.587
81255W        W47664  16.076  14.780  14.986
81256W        W47665  37.246  13.038  11.321
81257W        W47666  43.040  13.673  12.133
81258W        W47667  35.445  38.845   4.255
81259W        W47668  41.327   4.659   0.841
81260W        W47669  21.148  41.343   1.107
81261W        W47670  39.083  41.962  14.837
81262W        W47671  21.418  38.881  11.610
81263W        W47672   2.244  34.853  14.804
81264W        W47673  34.987   1.529   2.038
81265W        W47674  10.544   8.102  14.259
81266W        W47675  33.482  44.774   4.461
81267W        W47676  23.066  18.725   1.226
81268W        W47677  34.162  19.137  13.982
81269W        W47678   7.677  33.714  10.157
81270W        W47679  40.129  24.796  13.415
81271W        W47680   1.396  43.538   3.678
81272W        W47681   0.263  30.972   4.481
81273W        W47682   3.158   1.658  12.012
81274W        W47683  14.275  44.521   1.700
81275W        W47684   8.181  39.365   1.235
81276W        W47685  31.893  26.041  12.426
81277W        W47686  21.171  34.939  10.766
81278W        W47687  18.012  33.788   2.723
81279W        W47688  19.132   1.108   0.877
81280W        W47689  40.786  22.712   4.145
81281W        W47690   8.807   4.494  13.364
81282W        W47691   9.649   7.506   4.261
81283W        W47692  40.099  21.055  11.138
81284W        W47693  16.666  32.959  14.332
81285W        W47694   7.481  34.575   3.117
81286W        W47695  27.244  17.771  13.536
81287W        W47696  23.623  40.929  10.750
81288W        W47697   2.662   8.206   0.354
81289W        W47698  37.529  13.142   3.170
81290W        W47699  19.262  43.085  13.590
81291W        W47700  18.776   9.556  12.659
81292W        W47701  19.273  32.796   3.252
81293W        W47702  40.081  18.814   1.048
81294W        W47703  37.862  44.011   4.585
81295W        W47704  22.452  18.259   1.934
81296W        W47705  14.110  20.501  14.041
81297W        W47706  30.180  13.185   2.273
81298W        W47707  44.985   8.156  13.042
81299W        W47708   4.358  27.782   1.822
81300W        W47709   7.326  29.373   4.675
81301W        W47710  38.097  19.893  11.123
81302W        W47711  42.881  41.401   2.232
81303W        W47712   6.038  18.338  14.800
81304W        W47713  38.655  34.127   0.423
81305W        W47714  27.751  44.397   2.901
81306W        W47715   7.398  13.571  11.196
81307W        W47716   3.779  43.964  10.863
81308W        W47717  12.215  28.140   3.666
81309W        W47718   2.943  36.428   3.152
81310W        W47719   1.946   5.188  14.248
81311W        W47720  13.155  23.642  14.450
81312W        W47721   1.977  11.225  12.134
81313W        W47722  31.974   1.254   2.190
81314W        W47723  25.992  42.431   3.305
81315W        W47724   6.213  11.740   4.926
81316W        W47725   1.026  26.216  12.075
81317W        W47726  16.105   4.535   0.758
81318W        W47727  19.062  41.389   1.273
81319W        W47728   8.131  14.853  14.891
81320W        W47729  43.090  17.217  13.224
81321W        W47730  11.189  26.439   2.378
81322W        W47731  10.797  34.817   4.208
81323W        W47732  24.260  11.407  12.231
81324W        W47733  17.858   3.237  12.624
81325W        W47734  28.657  19.240  13.120
81326W        W47735  20.735  30.666  11.191
81327W        W47736   6.661   3.450   1.024
81328W        W47737   6.781  23.547  11.547
81329W        W47738   1.223  43.861  13.914
81330W        W47739  41.070  12.086  12.980
81331W        W47740  35.917   4.920  10.411
81332W        W47741  16.379  41.034   1.778
81333W        W47742  14.717   7.364   4.603
81334W        W47743  40.562  43.948   3.057
81335W        W47744  27.960  10.420   1.777
81336W        W47745  28.085   4.938  10.097
81337W        W47746  37.469   6.163   0.299
81338W        W47747  17.754  38.134  12.412
81339W        W47748   8.762   1.291  10.335
81340W        W47749   8.664  44.678   3.687
81341W        W47750  25.118   1.363   4.307
81342W        W47751  37.451   0.452   0.399
81343W        W47752   6.670  28.402   1.067
81344W        W47753   6.657  23.197   9.915
81345W        W47754  16.152  25.626   4.720
81346W        W47755  15.772   5.068  10.528
81347W        W47756  17.849  29.411  12.518
81348W        W47757  11.926  37.654   9.989
81349W        W47758  19.558  35.016   0.210
81350W        W47759  26.243  27.682  10.978
81351W        W47760   1.497  15.646   0.246
81352W        W47761  22.433  42.209  13.554
81353W        W47762  30.471  30.947  11.141
81354W        W47763  35.081  11.360   3.474
81355W        W47764  32.359   4.768   4.539
81356W        W47765  39.388  40.163  12.397
81357W        W47766  26.223  32.548   3.639
81358W        W47767  34.634  37.017  10.736
81359W        W47768  37.581  42.460   0.247
81360W        W47769  30.474  30.919  13.272
81361W        W47770  21.789  32.530   4.678
81362W        W47771  11.818  36.776   3.788
81363W        W47772  21.592  15.613   4.564
81364W        W47773   9.545  27.531  13.396
81365W        W47774  16.329  37.472   1.382
81366W        W47775   3.286  28.802  13.088
81367W        W47776  19.126  21.783   4.346
81368W        W47777  13.402  32.490  11.164
81369W        W47778  32.601  16.892  11.078
81370W        W47779  37.208  31.721   0.256
81371W        W47780  38.847   7.268   5.120
81372W        W47781   0.470  18.051  11.328
81373W        W47782   3.249  12.029  11.266
81374W        W47783   4.256   9.991   2.727
81375W        W47784  23.265   9.431  11.902
81376W        W47785  11.735  34.429  11.587
81377W        W47786  38.856  10.923   3.802
81378W        W47787  19.048  32.581  11.295
81379W        W47788   8.547  13.648  11.730
81380W        W47789  34.975   0.936   3.290
81381W        W47790  17.678  12.876  13.988
81382W        W47791  23.029   8.915  14.459
81383W        W47792  20.792   5.118   4.690
81384W        W47793  22.534  25.958  13.824
81385W        W47794   6.687   0.445   4.232
81386W        W47795  30.461  21.071  14.488
81387W        W47796  18.018  24.944  14.640
81388W        W47797  30.582  22.664  11.176
81389W        W47798   0.146  20.311  13.148
81390W        W47799   4.784  33.107  14.853
81391W        W47800  11.472  12.338  12.037
81392W        W47801  28.470  39.106   3.766
81393W        W47802  37.306  35.826   4.612
81394W        W47803   8.288   3.924  14.830
81395W        W47804  21.656  22.515   0.886
81396W        W47805   7.462  13.348   3.281
81397W        W47806   6.428  26.763   4.967
81398W        W47807  29.492  13.167  11.073
81399W        W47808  27.052  41.497  12.181
81400W        W47809  35.610   7.358  10.620
81401W        W47810  35.541  27.724  11.161
81402W        W47811  11.132  22.940  11.057
81403W        W47812   3.818  16.278  12.643
81404W        W47813  11.746   1.120  13.928
81405W        W47814  36.890  39.093   0.860
81406W        W47815  15.524  42.870   3.632
81407W        W47816  40.034  26.911   1.401
81408W        W47817  15.141  43.814  14.710
81409W        W47818  23.944  37.394  13.789
81410W        W47819   3.795  25.532  13.800
81411W        W47820  32.436   1.433  14.930
81412W        W47821  11.659  38.322   0.503
81413W        W47822  34.691  26.577   0.366
81414W        W47823  35.172   0.929  11.105
81415W        W47824  28.718  11.743  11.536
81416W        W47825  17.037  32.610   1.445
81417W        W47826  25.866  29.505   3.068
81418W        W47827  16.413  17.088   3.183
81419W        W47828  43.821   4.737   0.345
81420W        W47829  26.373  35.857   5.139
81421W        W47830  11.928  23.044  14.425
81422W        W47831  38.494  15.878   2.836
81423W        W47832  26.016   6.403   2.911
81424W        W47833  28.295  33.477  13.675
81425W        W47834  42.460   7.878   3.190
81426W        W47835   8.009  32.967   3.647
81427W        W47836  23.688   8.337  10.472
81428W        W47837  11.161  19.826  13.619
81429W        W47838  11.526  32.956  12.064
81430W        W47839  27.105  12.174  13.610
81431W        W47840  30.568  13.143  12.040
81432W        W47841  39.306  42.885   1.825
81433W        W47842  16.343  30.971   4.543
81434W        W47843   2.699  31.994   2.665
81435W        W47844  39.002   0.337   0.221
81436W        W47845  24.197   3.252   2.415
81437W        W47846  35.352  36.041   4.182
81438W        W47847  13.237   7.964  11.075
81439W        W47848   1.699  18.676   4.691
81440W        W47849  35.394  15.593   1.785
81441W        W47850  22.105  33.517  13.976
81442W        W47851  21.037  44.860   0.365
81443W        W47852   8.416  22.471   4.331
81444W        W47853  43.910   5.318   3.624
81445W        W47854  10.223   6.332  13.048
81446W        W47855   8.629  23.453  14.440
81447W        W47856  20.708  35.202  12.024
81448W        W47857  44.858   3.270  13.967
81449W        W47858   7.439  15.062   3.271
81450W        W47859   9.389  33.888   3.384
81451W        W47860  26.983  28.258   0.880
81452W        W47861  29.423  20.456   0.532
81453W        W47862  25.527  24.078   2.941
81454W        W47863  43.993  40.953  13.556
81455W        W47864  18.617  22.961   1.393
81456W        W47865  20.599   0.721  13.550
81457W        W47866  42.451  33.503   0.444
81458W        W47867  22.623   2.032   1.460
81459W        W47868  17.161  19.304   4.566
81460W        W47869  12.329   1.197   2.685
81461W        W47870  14.415  43.182   2.606
81462W        W47871   9.832  15.663  14.695
81463W        W47872   7.643  18.646  13.366
81464W        W47873  39.408  33.333   2.889
81465W        W47874  24.691  24.635  14.024
81466W        W47875  25.139  43.344   4.116
81467W        W47876  26.487  42.781   4.586
81468W        W47877  39.524  34.587  13.930
81469W        W47878  26.922  44.767   1.901
81470W        W47879  34.161  34.234   0.810
81471W        W47880   4.725   4.445  14.277
81472W        W47881   0.487  23.575   3.058
81473W        W47882  33.756  43.896  11.586
81474W        W47883  17.254  42.952  10.878
81475W        W47884  40.581  22.190  10.707
81476W        W47885  41.199  13.113   1.452
81477W        W47886  13.295   8.942  12.596
81478W        W47887  33.337  34.496   1.203
81479W        W47888  30.928  10.172  14.864
81480W        W47889  37.838   4.029  14.971
81481W        W47890   3.027  33.815   3.920
81482W        W47891  17.365  34.511  14.061
81483W        W47892  30.860  21.257  13.318
81484W        W47893  18.499   6.833  14.396
81485W        W47894  25.403  10.248   4.842
81486W        W47895  35.893   7.628  11.664
81487W        W47896   4.201  41.322   3.234
81488W        W47897   9.738  41.242   4.264
81489W        W47898   7.957  21.274   4.074
81490W        W47899  19.976  29.897  11.000
81491W        W47900  13.134  17.905  14.379
81492W        W47901  36.614  13.622   2.756
81493W        W47902  38.098   8.661  12.083
81494W        W47903  27.233  21.186   0.447
81495W        W47904  35.531   7.128  11.075
81496W        W47905   1.166  21.084  13.601
81497W        W47906  16.075  10.362  10.838
81498W        W47907  30.987  36.318  13.420
81499W        W47908  41.738  37.419  12.394
81500W        W47909  29.079   6.967  14.171
81501W        W47910   1.857  30.874  13.531
81502W        W47911   1.847  31.920  13.560
81503W        W47912  21.093  22.562   4.036
81504W        W47913  36.837   5.224   3.304
81505W        W47914  31.701   0.814  14.377
81506W        W47915  25.354  24.534   2.377
81507W        W47916   2.009  22.830  11.033
81508W        W47917   0.796  25.033   1.300
81509W        W47918   8.280  13.273   1.102
81510W        W47919  23.032  24.255   2.207
81511W        W47920   8.546  36.043  12.528
81512W        W47921  44.880  19.246   3.165
81513W        W47922   7.857  41.685   4.362
81514W        W47923  17.741  18.022  11.436
81515W        W47924  29.967  36.557   3.289
81516W        W47925   4.617  27.167   2.880
81517W        W47926  23.991  21.991   3.719
81518W        W47927  27.528  36.377   3.495
81519W        W47928  28.851  39.483  11.591
81520W        W47929  22.628  23.757  14.786
81521W        W47930   6.401  36.500   3.479
81522W        W47931  23.690  24.440   3.637
81523W        W47932  38.923  43.128  10.153
81524W        W47933  21.251  39.947  14.261
81525W        W47934  12.817  11.742   3.237
81526W        W47935  35.390   2.062  14.374
81527W        W47936  16.649   5.272  11.381
81528W        W47937  15.234  23.546   3.991
81529W        W47938  24.038  27.621   4.883
81530W        W47939  41.852  44.227  11.965
81531W        W47940  30.047   5.713  14.509
81532W        W47941   6.811  36.660  11.614
81533W        W47942  19.779  24.613  14.745
81534W        W47943  33.332  27.059   1.410
81535W        W47944   9.669  16.369  14.997
81536W        W47945  25.479   2.135  14.380
81537W        W47946  37.502  14.500  14.028
81538W        W47947  42.654  15.705  10.196
81539W        W47948  21.314  14.337  14.349
81540W        W47949  17.441   0.989   1.745
81541W        W47950  29.928  44.874   2.686
81542W        W47951  28.117  44.216   1.239
81543W        W47952   0.261   2.481   3.311
81544W        W47953  21.734  31.445   0.586
81545W        W47954  15.463  12.025  11.169
81546W        W47955  18.272   0.801  12.738
81547W        W47956  21.194  37.752  13.283
81548W        W47957  44.392  23.974  12.926
81549W        W47958  38.377   8.647   2.334
81550W        W47959  20.414  23.419   0.777
81551W        W47960  29.898   6.025   1.280
81552W        W47961   9.093  10.389  13.252
81553W        W47962  11.273  18.778  11.509
81554W        W47963  30.597  15.386  13.953
81555W        W47964   9.899   6.155   3.802
81556W        W47965   6.103  41.780   3.440
81557W        W47966  31.421  43.746  14.372
81558W        W47967  18.775  33.575  11.960
81559W        W47968  26.653  12.902   0.921
81560W        W47969  16.131  22.714   1.918
81561W        W47970  18.068  21.190  10.619
81562W        W47971  33.056  16.679  13.470
81563W        W47972  28.567  13.598  14.391
81564W        W47973  39.355  23.671  13.605
81565W        W47974  36.453  34.339  14.511
81566W        W47975   5.726  43.045   0.890
81567W        W47976  38.956   7.269  10.864
81568W        W47977  18.138  29.947   1.962
81569W        W47978  24.387  25.122   1.600
81570W        W47979  12.011  13.690  14.277
81571W        W47980  20.005  11.013  12.892
81572W        W47981  29.945  15.402   4.669
81573W        W47982  28.961  26.987   4.409
81574W        W47983  18.759  32.882  11.612
81575W        W47984  23.099  37.707   4.146
81576W        W47985  31.339  33.885   3.698
81577W        W47986  37.231   9.209  11.249
81578W        W47987  33.561  28.679   2.915
81579W        W47988   6.673   3.646  12.102
81580W        W47989  14.754  29.000  10.760
81581W        W47990  26.677  20.671  13.615
81582W        W47991  31.630   9.791   2.861
81583W        W47992  24.063  17.567  14.343
81584W        W47993  43.473  23.488  14.782
81585W        W47994  28.866   6.133   3.170
81586W        W47995   3.262  25.718  14.365
81587W        W47996  11.248  12.939  13.372
81588W        W47997  38.542  30.013  13.826
81589W        W47998  34.596   1.973  12.937
81590W        W47999  17.108   3.776   4.069
81591W        W48000  44.527  25.083  13.716
81592W        W48001  12.403  31.194  14.994
81593W        W48002  16.524  28.095   0.773
81594W        W48003   5.092  20.366   4.189
81595W        W48004   2.719  26.516   3.266
81596W        W48005  35.146  34.041   2.084
81597W        W48006  18.029  11.896  11.882
81598W        W48007  38.045   6.371   2.274
81599W        W48008  24.206   7.772  12.875
81600W        W48009  12.932  32.455  13.504
81601W        W48010  27.602  20.740   1.802
81602W        W48011   3.696   1.861  11.293
81603W        W48012  28.600  37.006   2.301
81604W        W48013   1.703  22.414   3.821
81605W        W48014  26.582   5.310  14.363
81606W        W48015   5.230  28.008   1.810
81607W        W48016  20.813  13.645  13.358
81608W        W48017  25.045  36.540  12.515
81609W        W48018  11.753  31.470   3.787
81610W        W48019  25.928  27.370  10.690
81611W        W48020  18.677   6.170   1.267
81612W        W48021   0.887  30.559   0.810
81613W        W48022   0.336  34.042  10.540
81614W        W48023  16.809  33.630   0.310
81615W        W48024   6.492  39.400   1.886
81616W        W48025   9.204  24.388  12.908
81617W        W48026  39.112  27.905   3.244
81618W        W48027  36.979   8.888  14.719
81619W        W48028  27.625  20.657  11.439
81620W        W48029  43.920   0.856   0.269
81621W        W48030  39.187   6.202   2.695
81622W        W48031   5.392  30.916   2.582
81623W        W48032  11.117  14.612   0.392
81624W        W48033  21.136   7.292  12.036
81625W        W48034  13.634   8.428   3.898
81626W        W48035  37.929  15.567  11.224
81627W        W48036  21.538  12.579  13.274
81628W        W48037   4.444  19.753   0.334
81629W        W48038  35.129  43.779   2.162
81630W        W48039  26.661   6.339   4.560
81631W        W48040  15.323   1.874  11.481
81632W        W48041   5.141  27.756   4.214
81633W        W48042  12.755   0.223  11.864
81634W        W48043  32.222   6.055   4.010
81635W        W48044   4.447  27.611   2.685
81636W        W48045  18.731  35.041   1.641
81637W        W48046  31.604   9.808  14.597
81638W        W48047   8.142  11.569   0.342
81639W        W48048  21.825   0.080  11.107
81640W        W48049  43.863  10.447   1.009
81641W        W48050  18.232  37.016  10.303
81642W        W48051  30.067  35.694  12.529
81643W        W48052  20.813  17.414  11.348
81644W        W48053  29.253  43.385  12.024
81645W        W48054  36.894  11.856   2.804
81646W        W48055   6.681  26.074   1.811
81647W        W48056  42.553  24.255   4.170
81648W        W48057   3.330  18.314  11.523
81649W        W48058  33.664  27.669  13.538
81650W        W48059  11.338  37.409  10.976
81651W        W48060  41.517   8.652   0.525
81652W        W48061  24.802   5.672   3.396
81653W        W48062  44.009   1.191  13.421
81654W        W48063   1.162  44.717  11.111
81655W        W48064  27.414  13.223  11.933
81656W        W48065  18.707  33.003   1.087
81657W        W48066  34.387  41.443  12.794
81658W        W48067  18.081  37.923   2.678
81659W        W48068  15.169  28.687   1.139
81660W        W48069  14.212  42.541   0.671
81661W        W48070  19.281  31.813   1.487
81662W        W48071  30.989  32.059   3.209
81663W        W48072  31.934  40.797  12.551
81664W        W48073   6.993  39.044  12.118
81665W        W48074  12.652  27.592  12.511
81666W        W48075  31.438  19.627  13.152
81667W        W48076  34.273  22.491  11.440
81668W        W48077  21.766  25.473   3.572
81669W        W48078  24.344   3.498   1.581
81670W        W48079  20.013  22.598   4.108
81671W        W48080  14.482  42.579  12.103
81672W        W48081   1.410   4.840  12.521
81673W        W48082  36.928  35.609  12.074
81674W        W48083  37.475  34.596  13.961
81675W        W48084  13.271  36.773  13.519
81676W        W48085  11.595  25.932  14.678
81677W        W48086  26.450  19.554   5.201
81678W        W48087  20.526  27.032   2.669
81679W        W48088  38.901  37.123  11.542
81680W        W48089  20.939  44.946  14.665
81681W        W48090  37.439  22.181   4.151
81682W        W48091  23.417   4.905  10.916
81683W        W48092   2.898   6.899  10.799
81684W        W48093  42.118  14.665  11.661
81685W        W48094  25.977  41.363   4.450
81686W        W48095  12.259  36.549   4.408
81687W        W48096  31.218  32.366   4.222
81688W        W48097  43.884  28.115  13.354
81689W        W48098  33.471  43.229  12.181
81690W        W48099  10.913  11.748   2.171
81691W        W48100  11.123  32.054  10.059
81692W        W48101  40.961  23.191   3.928
81693W        W48102  29.059  21.975   1.911
81694W        W48103  12.319  39.869  13.394
81695W        W48104  37.260  25.129  10.978
81696W        W48105   8.821  34.682   0.726
81697W        W48106  32.444  42.571   4.633
81698W        W48107  33.993  34.153  11.743
81699W        W48108   3.952  14.655  11.309
81700W        W48109  17.642   7.555  11.005
81701W        W48110  17.265  17.666   4.159
81702W        W48111   9.510   5.489   1.824
81703W        W48112   6.030  24.191   0.233
81704W        W48113  34.147   9.700   0.986
81705W        W48114  25.062  28.377  10.734
81706W        W48115  27.624  18.015  12.373
81707W        W48116  29.111   3.778   4.393
81708W        W48117  33.595  24.575   1.254
81709W        W48118   6.883  16.845   3.239
81710W        W48119   8.666   4.929  13.860
81711W        W48120   5.212  36.864  11.078
81712W        W48121  15.584  42.541  11.882
81713W        W48122  13.944  28.587   3.312
81714W        W48123  19.153  14.601   4.577
81715W        W48124   4.233   0.091   3.784
81716W        W48125   5.950  19.417   2.382
81717W        W48126  21.240  15.846   1.302
81718W        W48127  39.613  16.820  14.178
81719W        W48128  15.238  40.803  12.005
81720W        W48129  36.636  34.896   3.176
81721W        W48130   8.894  14.873  11.981
81722W        W48131  13.600  24.173  12.417
81723W        W48132  32.075  33.819   0.381
81724W        W48133   5.242  15.663   4.134
81725W        W48134  29.889  42.879   1.367
81726W        W48135  32.258   3.177   3.055
81727W        W48136  14.023  17.335   0.695
81728W        W48137  18.561  10.316  11.272
81729W        W48138  12.647  20.206   0.570
81730W        W48139  30.561   6.223   4.897
81731W        W48140  24.178  19.661   1.027
81732W        W48141  18.623  29.394   3.295
81733W        W48142  13.762  27.409   4.510
81734W        W48143  30.060  42.434   1.122
81735W        W48144  24.493  36.017   3.010
81736W        W48145   3.651  36.966  13.496
81737W        W48146  40.729   5.937  14.472
81738W        W48147  44.321  27.054  10.445
81739W        W48148  20.095  14.420   0.939
81740W        W48149  11.318  29.532   4.395
81741W        W48150  43.488  23.612  11.253
81742W        W48151   0.536  32.971  11.151
81743W        W48152  36.553  41.575  10.314
81744W        W48153   3.423  14.357   0.856
81745W        W48154  37.003  31.639   4.863
81746W        W48155  22.969   1.858   4.454
81747W        W48156  38.559  41.938  11.077
81748W        W48157  42.427  25.216   2.397
81749W        W48158   3.959  31.920   4.538
81750W        W48159  18.647   3.516  11.146
81751W        W48160  16.366   8.635  12.634
81752W        W48161  21.234  10.153   0.018
81753W        W48162  15.799  44.845   3.238
81754W        W48163  33.004   8.824  11.086
81755W        W48164   1.954  17.994  10.987
81756W        W48165   9.679  31.174   3.722
81757W        W48166  27.740  40.605  13.056
81758W        W48167  20.452  32.570  14.612
81759W        W48168   9.882  19.808   4.602
81760W        W48169  16.127  40.550   0.625
81761W        W48170  36.840   9.572   2.738
81762W        W48171  29.593  38.565   1.495
81763W        W48172  23.454   0.301  13.038
81764W        W48173   8.655  25.764  14.241
81765W        W48174   1.492   1.778   4.559
81766W        W48175  20.910  24.438   4.178
81767W        W48176  33.330  32.919  11.180
81768W        W48177  20.265  24.071  14.421
81769W        W48178  11.540  11.911   2.739
81770W        W48179  39.726  20.562   9.770
81771W        W48180  33.550  13.549   0.344
81772W        W48181  36.002  23.795   4.936
81773W        W48182   5.759   6.713  11.533
81774W        W48183  11.050  33.933   2.808
81775W        W48184   1.884  27.167   1.357
81776W        W48185  32.002  42.319   4.817
81777W        W48186  23.098  42.747   1.709
81778W        W48187   5.823   5.725  13.546
81779W        W48188  14.755  23.476   3.752
81780W        W48189  14.672  36.015  13.417
81781W        W48190  15.506   7.967  14.288
81782W        W48191   3.777  13.131  10.601
81783W        W48192  17.988  32.548   1.270
81784W        W48193   2.977  18.288   2.302
81785W        W48194  35.118  21.562  12.033
81786W        W48195  19.313  12.559   0.507
81787W        W48196  39.953  42.448  12.580
81788W        W48197   9.837   8.137   4.286
81789W        W48198  41.745  40.445   1.687
81790W        W48199  12.438  27.712   4.246
81791W        W48200   0.550  15.673   4.118
81792W        W48201   4.708   9.173   2.706
81793W        W48202  15.232  43.109   4.530
81794W        W48203  10.413  41.916   0.179
81795W        W48204  11.595   0.121   4.601
81796W        W48205  18.915  42.432   0.333
81797W        W48206  36.636  44.027   2.831
81798W        W48207  25.466  35.537   4.089
81799W        W48208  29.682  41.138   0.822
81800W        W48209  19.720  24.064   4.758
81801W        W48210   7.223   5.854  14.267
81802W        W48211   5.286  38.351  12.418
81803W        W48212  40.095  17.012  11.998
81804W        W48213  35.407   1.771   2.869
81805W        W48214  22.771  24.187  11.356
81806W        W48215   2.224   6.497  11.481
81807W        W48216  20.195  37.439   2.140
81808W        W48217  24.600  21.022  14.038
81809W        W48218  23.965  38.628  11.267
81810W        W48219  37.400   7.810  14.300
81811W        W48220  44.554  11.661   1.295
81812W        W48221   5.977  27.083  14.036
81813W        W48222   4.725  21.142   3.668
81814W        W48223  32.077   1.481  13.380
81815W        W48224  43.538  44.211   3.895
81816W        W48225  28.617  39.552  13.185
81817W        W48226  39.964  23.131   4.171
81818W        W48227  39.960  14.080   3.300
81819W        W48228  17.710  34.851   3.694
81820W        W48229  17.747  35.302   0.035
81821W        W48230  13.735   7.097  12.625
81822W        W48231  25.099  30.490  14.010
81823W        W48232  29.216  43.601  11.125
81824W        W48233  32.760  37.711  14.934
81825W        W48234  31.998  18.792  13.774
81826W        W48235  27.952  13.322   0.345
81827W        W48236  31.499  24.369   0.052
81828W        W48237  31.598  25.423  11.611
81829W        W48238  26.497  29.037   0.749
81830W        W48239  35.025  21.619   0.388
81831W        W48240  44.366   6.478  14.474
81832W        W48241  24.521   9.818  12.026
81833W        W48242  17.416  10.951   2.193
81834W        W48243  33.453  24.747  13.124
81835W        W48244   3.756  22.831  13.939
81836W        W48245  20.502  41.017   4.071
81837W        W48246  13.153   3.925   3.637
81838W        W48247  20.169   8.787   1.519
81839W        W48248  16.018  41.894   0.927
81840W        W48249  13.229  26.079   1.821
81841W        W48250  42.482  15.291   1.854
81842W        W48251  33.552  31.756   5.069
81843W        W48252   7.174  37.882  14.863
81844W        W48253  19.672  16.987  13.883
81845W        W48254  20.715  21.068  12.374
81846W        W48255  28.962  15.083  12.515
81847W        W48256   3.529   0.545   3.422
81848W        W48257  25.264  32.552   2.343
81849W        W48258  19.034  15.639  14.852
81850W        W48259   1.004  39.003   2.877
81851W        W48260  43.394   4.683  10.993
81852W        W48261   9.606  28.855   2.389
81853W        W48262   3.348  21.133   2.389
81854W        W48263   6.161  11.775  12.159
81855W        W48264  26.249   2.748   4.819
81856W        W48265  21.501  27.679  14.860
81857W        W48266  21.981  41.884  12.356
81858W        W48267   5.210  42.817  11.747
81859W        W48268  44.214  22.760   1.203
81860W        W48269  24.102  17.437   4.008
81861W        W48270   8.391   8.885  10.771
81862W        W48271   6.820  31.009  12.914
81863W        W48272  39.575  19.500  13.049
81864W        W48273  39.051  38.836   0.395
81865W        W48274  30.661  29.143   3.716
81866W        W48275  29.517   9.242  11.862
81867W        W48276  19.752  19.120   1.254
81868W        W48277  26.065  14.119  13.941
81869W        W48278  16.104  43.703   0.699
81870W        W48279  18.784   6.684   4.533
81871W        W48280  12.305  36.468  12.398
81872W        W48281  13.760  22.665   4.066
81873W        W48282  24.967  14.958  14.254
81874W        W48283  41.293   2.200  14.807
81875W        W48284  16.730  35.925   1.803
81876W        W48285  18.179  18.584   0.673
81877W        W48286  13.587  20.905  12.243
81878W        W48287  17.973   6.762  11.604
81879W        W48288  44.277  16.159  10.869
81880W        W48289  10.260  25.911  13.555
81881W        W48290   0.021  17.046  12.790
81882W        W48291   9.027   0.003  12.983
81883W        W48292   2.215   3.267  14.518
81884W        W48293  24.077  44.330  12.883
81885W        W48294  13.997  41.765   0.276
81886W        W48295  28.201   5.687   5.285
81887W        W48296   9.697  23.636   4.603
81888W        W48297  10.398  40.970  10.742
81889W        W48298  14.211   6.795  14.881
81890W        W48299  12.050  10.118   0.782
81891W        W48300  31.592  13.117   4.414
81892W        W48301  44.965  28.440   0.726
81893W        W48302  27.714  17.334  14.773
81894W        W48303  40.980  23.619  12.659
81895W        W48304  27.421  11.174   2.963
81896W        W48305   6.862  13.273  14.770
81897W        W48306   8.174   2.410  11.532
81898W        W48307   1.736  35.823  12.432
81899W        W48308   7.709  21.601  12.310
81900W        W48309   8.616  15.284   4.147
81901W        W48310   8.261   2.796   2.762
81902W        W48311  25.013   2.785   2.692
81903W        W48312   0.301   2.336   0.823
81904W        W48313  39.076  24.633  14.428
81905W        W48314   2.935  36.575   1.063
81906W        W48315  17.512  44.378   0.879
81907W        W48316  16.003  36.949  12.027
81908W        W48317   7.317  16.988   2.219
81909W        W48318  11.103  42.803  12.409
81910W        W48319  25.778  20.243   0.506
81911W        W48320  32.769  39.015  14.133
81912W        W48321  27.242   7.713  12.278
81913W        W48322  28.418  28.901  14.266
81914W        W48323   3.164   2.521   2.351
81915W        W48324  11.974  27.469   1.943
81916W        W48325  28.231  44.879  14.999
81917W        W48326  12.287  17.290   2.796
81918W        W48327  29.952  40.003  12.056
81919W        W48328  12.300  37.419   3.857
81920W        W48329   3.895  36.195  11.122
81921W        W48330  13.717   7.311  14.548
81922W        W48331  33.713  23.551  10.733
81923W        W48332  35.316  10.580  13.606
81924W        W48333  18.773  44.752   4.512
81925W        W48334  32.094   3.707  14.718
81926W        W48335   9.122  14.967   3.830
81927W        W48336  17.142  43.655   4.876
81928W        W48337  35.068  21.579   2.640
81929W        W48338  39.928   3.255   0.105
81930W        W48339   6.760   2.954   0.861
81931W        W48340  38.566  36.427  14.515
81932W        W48341  40.099  28.859   1.291
81933W        W48342   9.188  12.967   3.360
81934W        W48343  31.467  11.151   2.732
81935W        W48344  14.440   8.724  13.284
81936W        W48345  39.008  12.664  10.331
81937W        W48346  20.585   9.403  12.136
81938W        W48347  26.439  21.096  11.718
81939W        W48348  38.227  38.304   2.137
81940W        W48349   3.953   6.921  13.169
81941W        W48350  17.115   6.275  12.598
81942W        W48351  40.508   5.976  10.667
81943W        W48352  24.892   1.395  13.013
81944W        W48353  18.055  19.324   3.149
81945W        W48354  33.054   6.540   2.381
81946W        W48355  35.660  13.323  13.989
81947W        W48356  13.120  28.109   2.248
81948W        W48357  14.683  15.825   1.442
81949W        W48358  25.210  42.188   2.842
81950W        W48359   8.972  29.906  13.833
81951W        W48360   3.052  19.784  12.021
81952W        W48361  21.568   4.176   4.623
81953W        W48362   1.675  35.832  14.322
81954W        W48363  38.135  30.959  12.964
81955W        W48364  36.034   8.745  12.418
81956W        W48365  20.111  11.246  12.022
81957W        W48366   8.162   7.361  10.353
81958W        W48367  20.421  32.937  13.773
81959W        W48368   8.224  15.659   4.701
81960W        W48369  19.140  18.818   0.169
81961W        W48370  37.301  32.313  13.092
81962W        W48371  41.987  23.796   3.322
81963W        W48372   6.183  11.126  12.605
81964W        W48373   0.893  39.990  11.543
81965W        W48374  33.122  25.552  12.133
81966W        W48375  20.233  44.946  12.666
81967W        W48376  25.144  36.324  10.721
81968W        W48377  18.792  24.899   3.041
81969W        W48378  38.177  36.210   0.316
81970W        W48379  10.418  35.637   3.801
81971W        W48380  36.585  23.701   1.141
81972W        W48381  17.223   1.598  14.748
81973W        W48382  27.735  17.506  12.410
81974W        W48383  16.541  20.293  14.457
81975W        W48384   7.952  23.417   5.417
81976W        W48385   2.974  33.395   4.263
81977W        W48386  14.157   2.074   4.181
81978W        W48387  19.789  10.434   4.926
81979W        W48388  23.750  32.587  11.099
81980W        W48389  11.529   6.697   3.383
81981W        W48390   3.260  30.963   1.801
81982W        W48391  20.342   2.484   1.848
81983W        W48392  14.305  16.743   3.773
81984W        W48393  16.751   9.088  11.556
81985W        W48394   9.635  22.201   4.478
81986W        W48395  22.987  39.970   1.707
81987W        W48396  25.588   8.631  11.649
81988W        W48397   9.079  14.678   0.318
81989W        W48398  30.489  30.877   2.687
81990W        W48399  29.511  41.579  13.395
81991W        W48400   7.416  24.657   1.315
81992W        W48401  37.638  23.680   0.260
81993W        W48402  31.346  23.730   4.398
81994W        W48403  32.265  22.710   4.640
81995W        W48404  22.090  22.752   3.695
81996W        W48405   8.550  20.554  11.992
81997W        W48406  35.370  32.181  10.737
81998W        W48407  31.674  19.105   1.813
81999W        W48408  32.651  34.308   0.890
82000W        W48409   4.333  35.361  13.703
82001W        W48410  35.457  10.625   3.362
82002W        W48411  37.023  32.667  10.656
82003W        W48412  25.870   7.444   4.214
82004W        W48413   6.680  20.200  14.824
82005W        W48414  32.849  41.566  12.558
82006W        W48415  41.017  29.598  10.522
82007W        W48416  29.197   3.464   3.445
82008W        W48417  35.848  31.457   3.111
82009W        W48418  36.676  26.927   1.349
82010W        W48419  34.386   2.732  12.043
82011W        W48420  24.475  19.996   3.103
82012W        W48421  35.796   3.002  11.477
82013W        W48422  11.866  41.093   3.168
82014W        W48423  16.099  44.013   4.874
82015W        W48424   8.678  15.127  12.412
82016W        W48425  26.144  29.856   0.248
82017W        W48426   4.219   0.569   1.712
82018W        W48427  14.319  41.719   4.160
82019W        W48428  42.346  25.750   3.342
82020W        W48429  38.898  35.357   4.929
82021W        W48430  19.697  42.454   2.794
82022W        W48431   9.801  30.549   1.387
82023W        W48432  41.371  43.484  13.054
82024W        W48433  18.486  13.193  11.192
82025W        W48434  25.101   4.693  10.722
82026W        W48435  35.570  15.242   3.697
82027W        W48436   2.649   7.245   2.728
82028W        W48437  16.762  35.051  10.777
82029W        W48438   7.428  42.716   0.901
82030W        W48439  19.716  23.147   5.211
82031W        W48440  33.524  44.963   0.221
82032W        W48441   0.723  24.089  12.910
82033W        W48442  37.011  24.417  10.864
82034W        W48443  10.125  29.958   4.291
82035W        W48444  14.213  14.347   1.247
82036W        W48445  41.710  14.178  11.213
82037W        W48446  40.933  43.295  13.279
82038W        W48447  33.426  44.329   2.223
82039W        W48448  18.480  41.385  11.586
82040W        W48449   9.890  30.891  11.595
82041W        W48450   3.499   9.284  10.846
82042W        W48451   8.067  31.610  12.917
82043W        W48452  33.026  13.902   3.282
82044W        W48453   5.844  32.062   1.957
82045W        W48454  16.985  33.616   4.928
82046W        W48455  15.783  43.761   1.836
82047W        W48456  21.473  43.571  13.146
82048W        W48457  35.022   8.193  10.526
82049W        W48458  18.464   6.726   4.055
82050W        W48459   9.889  27.613  11.982
82051W        W48460  13.366  24.950   3.762
82052W        W48461   4.312  29.872  12.667
82053W        W48462  27.850  25.699  13.027
82054W        W48463  21.803   8.371  10.606
82055W        W48464   1.371  13.660   2.904
82056W        W48465   8.979  12.411  12.035
82057W        W48466  24.438  20.276   0.239
82058W        W48467   1.536  30.285   4.721
82059W        W48468  17.714   0.822  14.909
82060W        W48469  32.416  44.350   3.167
82061W        W48470  40.569   8.074   4.878
82062W        W48471  41.546  24.401   0.446
82063W        W48472  32.201   5.530   9.947
82064W        W48473  24.609  33.319   2.364
82065W        W48474  43.022  43.318   1.858
82066W        W48475  38.176  21.137   3.789
82067W        W48476  33.071   2.738   1.659
82068W        W48477  10.390   9.156   0.656
82069W        W48478  41.027  16.530   1.911
82070W        W48479  44.967   0.170  12.571
82071W        W48480  41.726  38.351  13.461
82072W        W48481  20.343  38.079  13.953
82073W        W48482  40.411   3.921  12.503
82074W        W48483  25.312  24.961   0.725
82075W        W48484  29.468  27.822  14.902
82076W        W48485  31.978  22.449  10.793
82077W        W48486  32.998   8.371   4.584
82078W        W48487  27.983  38.805  12.445
82079W        W48488   7.588  15.327   2.831
82080W        W48489  16.816   1.455   4.522
82081W        W48490  30.372  23.487  13.077
82082W        W48491  39.742  35.953   3.304
82083W        W48492   3.388   2.994  10.655
82084W        W48493  16.482   3.408  12.876
82085W        W48494  21.574  27.635   3.225
82086W        W48495  17.613   8.743   1.944
82087W        W48496  35.622  10.159  13.575
82088W        W48497  11.387  40.522  13.917
82089W        W48498  26.941  26.089   0.291
82090W        W48499   9.093  23.142  12.057
82091W        W48500  36.824  37.602  11.188
82092W        W48501  23.564  27.639   1.262
82093W        W48502  39.818  37.386   2.286
82094W        W48503   3.954   2.413  10.572
82095W        W48504  39.508   5.784   4.219
82096W        W48505   9.194  35.957   3.638
82097W        W48506   4.199  31.896   1.910
82098W        W48507  15.798  44.945  13.087
82099W        W48508  37.901   6.680   0.983
82100W        W48509  34.857  36.844   2.359
82101W        W48510  29.550  29.284   4.583
82102W        W48511   7.387  10.658   3.042
82103W        W48512  16.180   4.057   2.577
82104W        W48513  43.356  41.886  14.968
82105W        W48514  13.469   2.981   4.508
82106W        W48515   8.759  15.238   0.490
82107W        W48516  35.002  29.500   0.739
82108W        W48517  19.843  12.127  13.944
82109W        W48518  42.104  33.945   1.943
82110W        W48519  40.447  17.737   1.604
82111W        W48520  21.568  23.416  13.392
82112W        W48521   8.716  37.913  12.439
82113W        W48522  17.575  15.458   1.726
82114W        W48523   0.902   7.920  13.538
82115W        W48524  35.010  41.075   3.613
82116W        W48525   4.685   7.565  10.458
82117W        W48526  26.953  41.287  11.187
82118W        W48527  14.702  26.933   0.682
82119W        W48528   8.168   6.380  11.575
82120W        W48529  16.753  21.643  11.751
82121W        W48530  21.079  32.138   3.135
82122W        W48531  41.311  13.201   3.233
82123W        W48532  12.328  31.922   4.691
82124W        W48533   6.043  16.409  13.374
82125W        W48534  24.123  28.449  13.429
82126W        W48535  44.411  19.651   2.485
82127W        W48536  43.486  27.641  14.019
82128W        W48537  22.203  30.702   3.369
82129W        W48538   3.807  19.727  13.457
82130W        W48539  43.467  32.653  11.041
82131W        W48540  40.042  18.257   3.578
82132W        W48541  14.156  36.574  11.181
82133W        W48542  37.962  17.359   0.998
82134W        W48543  42.390  17.854   2.816
82135W        W48544   6.592   0.770  11.573
82136W        W48545  25.253  12.257   3.301
82137W        W48546  14.248  39.695  13.312
82138W        W48547  34.562  29.563   0.481
82139W        W48548  30.994  41.677  11.593
82140W        W48549  23.746  10.898   3.271
82141W        W48550  14.623  24.955   1.894
82142W        W48551  12.527  18.781   1.956
82143W        W48552  19.514  16.633  10.642
82144W        W48553  18.800  44.491  12.819
82145W        W48554  20.655  23.597   0.348
82146W        W48555  18.848   1.353  14.618
82147W        W48556  20.316   5.886  13.083
82148W        W48557  28.397  25.023  10.817
82149W        W48558  15.388  31.927  14.307
82150W        W48559  42.411  16.924   3.203
82151W        W48560  42.067  31.069   2.687
82152W        W48561  42.771   2.166  12.100
82153W        W48562   6.695  35.882  11.124
82154W        W48563  43.833  26.148   0.756
82155W        W48564  43.831   5.716  11.376
82156W        W48565  12.457  22.423   3.145
82157W        W48566  19.624  13.386   1.790
82158W        W48567  31.559  11.800   0.072
82159W        W48568   7.595   3.918   2.995
82160W        W48569  26.646  44.274   2.452
82161W        W48570  34.323  20.567  12.060
82162W        W48571  26.760  36.010  13.433
82163W        W48572  26.273  34.845  13.991
82164W        W48573  43.074  44.448  10.721
82165W        W48574  38.361  10.728   2.940
82166W        W48575  28.046  19.546  12.043
82167W        W48576   6.947  24.125   4.025
82168W        W48577  44.031  12.499  12.569
82169W        W48578  38.852  16.137   1.264
82170W        W48579   6.161   8.723  13.401
82171W        W48580  17.064   0.085   3.761
82172W        W48581  35.070  29.742   1.360
82173W        W48582  30.944  16.572  13.153
82174W        W48583   1.843  18.601  12.781
82175W        W48584  29.129  39.446  11.142
82176W        W48585  33.473  10.410   4.289
82177W        W48586  36.671  41.004  14.263
82178W        W48587   6.888  15.424  13.298
82179W        W48588   3.848  17.649  14.495
82180W        W48589   9.664  38.445   4.677
82181W        W48590  31.000   8.062   3.266
82182W        W48591  19.303  31.271   1.661
82183W        W48592  41.586  15.643   4.068
82184W        W48593  13.008   8.211   0.126
82185W        W48594  18.290  34.994  12.877
82186W        W48595  29.292  19.564  11.570
82187W        W48596  34.390  11.232  14.034
82188W        W48597   2.194   2.210  13.424
82189W        W48598  41.187  11.101  12.990
82190W        W48599  24.442   0.023  12.436
82191W        W48600  34.415  27.472  12.903
82192W        W48601  37.569  40.309   2.781
82193W        W48602   5.263  23.499   0.321
82194W        W48603  21.806  11.256   4.133
82195W        W48604  25.551  13.571   1.289
82196W        W48605  37.758  37.694   0.284
82197W        W48606   2.414  34.376   3.327
82198W        W48607  32.451  44.761  11.493
82199W        W48608  23.212  29.615  11.304
82200W        W48609  36.085  26.926  12.149
82201W        W48610  42.769  21.643  13.426
82202W        W48611  13.690   0.279   0.825
82203W        W48612  21.531  30.948   1.832
82204W        W48613  42.332  16.007   2.824
82205W        W48614  19.578  37.013  14.406
82206W        W48615   0.812  31.565  11.158
82207W        W48616  28.568  21.194   3.024
82208W        W48617  11.321   4.178   0.490
82209W        W48618  41.299  29.407   1.135
82210W        W48619  19.586  26.744   3.294
82211W        W48620   1.949  14.597  13.122
82212W        W48621  40.405  15.153  11.845
82213W        W48622  26.730   9.416   3.567
82214W        W48623  36.259  15.644   4.959
82215W        W48624  34.566   4.309   2.880
82216W        W48625  16.672  26.808   3.298
82217W        W48626  35.576  10.115   0.552
82218W        W48627  20.757   2.906   4.755
82219W        W48628  15.140  12.880  11.104
82220W        W48629  41.884  14.693  11.221
82221W        W48630  18.504   3.952   1.727
82222W        W48631  22.245  17.902   4.614
82223W        W48632  43.711  29.692  11.134
82224W        W48633  31.640  16.378  14.902
82225W        W48634  19.071  18.283  14.068
82226W        W48635  34.537  24.911  13.660
82227W        W48636  37.762  26.246  11.513
82228W        W48637  20.110  29.247   4.155
82229W        W48638   8.247  20.102  11.347
82230W        W48639   2.963  23.912  10.543
82231W        W48640  30.548  44.316  13.391
82232W        W48641  37.481  27.111  11.782
82233W        W48642  33.710  12.152  14.136
82234W        W48643  20.972  26.890   4.808
82235W        W48644  14.841  41.622  11.959
82236W        W48645  38.873   7.772  12.163
82237W        W48646  16.074  31.310   4.884
82238W        W48647  42.636  17.533  14.196
82239W        W48648  10.789   6.219   0.481
82240W        W48649  42.372  17.312   3.533
82241W        W48650  16.283  15.027  12.859
82242W        W48651  13.263   4.492   2.746
82243W        W48652   3.276  19.362   0.813
82244W        W48653  32.070  28.231   4.619
82245W        W48654   8.245  44.998   3.401
82246W        W48655  36.368  35.587  11.330
82247W        W48656  35.761  20.963   3.649
82248W        W48657  13.833  32.322   0.444
82249W        W48658  20.795  19.620   0.468
82250W        W48659   1.485   5.116   0.363
82251W        W48660   1.477   1.037   1.186
82252W        W48661  31.035  28.623   3.701
82253W        W48662  36.358   1.875   4.980
82254W        W48663   0.442   8.712  14.929
82255W        W48664  22.814   3.375   3.789
82256W        W48665  16.654  13.679   0.322
82257W        W48666  20.772  21.050   0.457
82258W        W48667  16.841  37.453   1.258
82259W        W48668  16.682  43.370   4.935
82260W        W48669  35.862  29.732  14.923
82261W        W48670  18.009   8.133  11.996
82262W        W48671   8.334  13.883   2.357
82263W        W48672   2.345  18.042  14.021
82264W        W48673  10.814  26.116   3.112
82265W        W48674  44.899  41.470  11.866
82266W        W48675   3.858  35.161  13.782
82267W        W48676  29.663  44.360   2.858
82268W        W48677  39.055   9.633   1.991
82269W        W48678  32.338  38.515  14.994
82270W        W48679  42.069  41.976   2.806
82271W        W48680  44.930  30.121   1.331
82272W        W48681  19.179  33.846  12.334
82273W        W48682  28.039  33.205   3.144
82274W        W48683  42.027  41.948  11.591
82275W        W48684  44.859  23.545  11.913
82276W        W48685  26.208  26.654  11.179
82277W        W48686  41.766  10.924   4.148
82278W        W48687  36.042   7.415  13.795
82279W        W48688  32.453  31.861   3.987
82280W        W48689  35.442  40.884  11.671
82281W        W48690  39.855  41.447  14.568
82282W        W48691  18.122  25.757  13.184
82283W        W48692   7.941   1.543   3.659
82284W        W48693   4.055   4.582  13.841
82285W        W48694  40.364  37.315   1.411
82286W        W48695  21.027   3.337   4.642
82287W        W48696  33.904  37.626   1.244
82288W        W48697  41.937  24.542  10.654
82289W        W48698   4.826  30.053   4.954
82290W        W48699   0.408  39.973  11.868
82291W        W48700  10.571  13.230  12.449
82292W        W48701  40.024  42.968   0.188
82293W        W48702  13.708  30.463   0.173
82294W        W48703  43.053   2.035   0.711
82295W        W48704  17.809  27.812  10.884
82296W        W48705  23.439  13.222   2.264
82297W        W48706   7.831  25.879   4.980
82298W        W48707   4.901   0.001  14.975
82299W        W48708  17.998   0.184   3.665
82300W        W48709  40.285   5.138   4.094
82301W        W48710   7.451  10.411  14.034
82302W        W48711  27.222  35.421   1.701
82303W        W48712   4.671  29.881   1.649
82304W        W48713  35.387  40.388  12.509
82305W        W48714  40.067  10.807  14.892
82306W        W48715   1.452  13.754  14.116
82307W        W48716  23.585   9.268  14.466
82308W        W48717   2.963  33.707  13.381
82309W        W48718  41.643  15.191   4.318
82310W        W48719  27.278  34.860  14.713
82311W        W48720   4.401  26.282  11.749
82312W        W48721  40.632  41.307  11.636
82313W        W48722  41.475  37.136  14.005
82314W        W48723  12.380  30.987  14.494
82315W        W48724   8.194  32.703  11.642
82316W        W48725   1.041  11.792   1.137
82317W        W48726   3.921  41.452   1.144
82318W        W48727  11.451  34.941  12.758
82319W        W48728   5.967  11.213   4.856
82320W        W48729   0.771  22.787  13.437
82321W        W48730  25.140   1.791   2.289
82322W        W48731   3.807  15.690   2.287
82323W        W48732   6.680  37.614   2.020
82324W        W48733  18.573  38.442  14.941
82325W        W48734  41.589   5.475  11.634
82326W        W48735   2.832  43.911  14.304
82327W        W48736  33.869  27.187  14.437
82328W        W48737  10.836  42.810  12.850
82329W        W48738  42.427  15.211  13.964
82330W        W48739   8.256  12.491   4.688
82331W        W48740  44.343  21.538   1.727
82332W        W48741  16.759  31.989  12.496
82333W        W48742   8.531   8.489   3.586
82334W        W48743   4.287  41.461   2.231
82335W        W48744  18.092  16.208   2.749
82336W        W48745  39.459   9.313  13.953
82337W        W48746  13.080  39.483  12.080
82338W        W48747  16.850  17.080  12.854
82339W        W48748  23.174  32.135  11.670
82340W        W48749   7.754  36.933   0.862
82341W        W48750   0.690   2.317  12.085
82342W        W48751  39.541  18.579   3.990
82343W        W48752  39.966  20.052  11.177
82344W        W48753  43.982  10.790   2.343
82345W        W48754  23.100  14.817  11.129
82346W        W48755  14.056  27.204   3.606
82347W        W48756  28.962  32.339  12.936
82348W        W48757  11.959  24.181   0.896
82349W        W48758  43.805   6.709  11.546
82350W        W48759  29.170  36.579  14.837
82351W        W48760  12.729   0.936   3.727
82352W        W48761  32.119  22.167  11.209
82353W        W48762  15.660  24.339   5.008
82354W        W48763  37.510   7.380   1.325
82355W        W48764  10.148  23.994   3.794
82356W        W48765  11.104   5.276  13.974
82357W        W48766  26.168  15.855   0.997
82358W        W48767  21.905  20.568   3.248
82359W        W48768  11.115  17.833  10.482
82360W        W48769  31.619  17.285  12.373
82361W        W48770  30.479  13.781  13.857
82362W        W48771  21.081   9.414  13.304
82363W        W48772  42.492  25.298  11.195
82364W        W48773  38.346   9.305   1.805
82365W        W48774   0.020   3.103   1.151
82366W        W48775  31.890   6.566  14.892
82367W        W48776   7.736  35.100  11.184
82368W        W48777  14.770   7.270  11.425
82369W        W48778  12.333   1.463  13.066
82370W        W48779  37.567  44.601  10.992
82371W        W48780  21.871  38.071  12.611
82372W        W48781   4.930  25.007  11.679
82373W        W48782   5.008  40.500   4.207
82374W        W48783  13.908  15.273   4.185
82375W        W48784  37.489  27.020   3.695
82376W        W48785  19.830  10.503  12.535
82377W        W48786  31.618  28.263   3.299
82378W        W48787  14.513  39.734   4.624
82379W        W48788  35.416   0.623   4.383
82380W        W48789  33.075  12.767   3.611
82381W        W48790  18.678  29.358  11.309
82382W        W48791  27.166  22.432  11.972
82383W        W48792  23.349  14.592   3.405
82384W        W48793   8.142  11.430   3.762
82385W        W48794  12.797  23.979   3.851
82386W        W48795  19.516  44.444   1.373
82387W        W48796  24.167   7.033   1.927
82388W        W48797  30.952  12.263   0.506
82389W        W48798  15.362  44.404  14.144
82390W        W48799  23.729   9.605  14.026
82391W        W48800  13.457  31.538  11.490
82392W        W48801   8.251  19.845   0.153
82393W        W48802  11.300  26.969   1.458
82394W        W48803  13.708  28.962   2.296
82395W        W48804  27.076  27.058   3.992
82396W        W48805  16.288  19.013  11.597
82397W        W48806  13.153  25.890  12.962
82398W        W48807  44.798  21.286   1.753
82399W        W48808   5.997  31.348  12.869
82400W        W48809  25.630  37.444   2.072
82401W        W48810  20.853   2.495   4.058
82402W        W48811  26.587  22.203  14.323
82403W        W48812  31.519   9.283   1.175
82404W        W48813  30.106   5.962   2.292
82405W        W48814   9.578   6.198  14.793
82406W        W48815  12.091   0.569   0.242
82407W        W48816  18.056  29.116   2.337
82408W        W48817  22.316  36.765  14.148
82409W        W48818  23.402  17.528   2.178
82410W        W48819   9.065  40.726  14.083
82411W        W48820  41.414   2.970  13.033
82412W        W48821  16.217   4.829   0.338
82413W        W48822  19.315  17.294   1.170
82414W        W48823  35.003  44.473   2.226
82415W        W48824  13.608  38.554   4.722
82416W        W48825  26.594  13.419  11.747
82417W        W48826  30.859  39.944   4.202
82418W        W48827  25.476  43.984   3.796
82419W        W48828   1.024   9.730  12.160
82420W        W48829  17.816   5.804  14.317
82421W        W48830   9.998  37.201  13.984
82422W        W48831  33.680   5.513  14.888
82423W        W48832  10.063  40.021  11.718
82424W        W48833  28.480  42.998  12.178
82425W        W48834  42.030  12.113  10.539
82426W        W48835   7.492  30.052   2.005
82427W        W48836  30.100  13.045  12.198
82428W        W48837  43.779  15.194  14.802
82429W        W48838  32.530  18.142   1.434
82430W        W48839  25.079  17.970   4.145
82431W        W48840  32.370  13.585   4.265
82432W        W48841  44.801   9.475   3.469
82433W        W48842  19.664  33.678  11.045
82434W        W48843  23.307  37.112   4.514
82435W        W48844  16.816   4.739  13.907
82436W        W48845  32.665   5.933   3.282
82437W        W48846  43.057  38.316  11.664
82438W        W48847  40.591   5.909  14.964
82439W        W48848  25.062  18.146  10.628
82440W        W48849  12.156  15.272  11.400
82441W        W48850  18.701  16.383   3.848
82442W        W48851  15.709  32.799   0.278
82443W        W48852  43.512  26.082   3.644
82444W        W48853  26.998  17.608  14.457
82445W        W48854  27.202   2.467   4.981
82446W        W48855   5.139  19.310  10.754
82447W        W48856  28.670  26.772   3.781
82448W        W48857  17.513   5.600   4.092
82449W        W48858  41.957  18.093   0.819
82450W        W48859   5.138  43.830   0.527
82451W        W48860  15.287  37.399   1.679
82452W        W48861  34.053   0.837   0.388
82453W        W48862   0.521   6.052   0.547
82454W        W48863  32.423  29.591   1.167
82455W        W48864   2.436   6.316   4.570
82456W        W48865  34.358  35.068   0.196
82457W        W48866  24.462   7.249   0.765
82458W        W48867  13.187  33.969   1.137
82459W        W48868  17.234  39.275  11.883
82460W        W48869  10.918   2.874   4.020
82461W        W48870  43.905  23.449  11.494
82462W        W48871  35.561  32.423  14.395
82463W        W48872   7.707  38.398   0.989
82464W        W48873  20.568   4.537  12.441
82465W        W48874  30.896   3.802  13.657
82466W        W48875  12.357  42.793   2.912
82467W        W48876  38.584  21.839  11.925
82468W        W48877   3.777  17.304   2.677
82469W        W48878  29.054  31.748  13.595
82470W        W48879  38.864  44.229  12.960
82471W        W48880   4.911  32.597  13.588
82472W        W48881  15.711  17.513   1.751
82473W        W48882  29.265  25.145  12.066
82474W        W48883  14.536  15.842  14.579
82475W        W48884  38.072   2.934  10.609
82476W        W48885  38.312  25.110   0.343
82477W        W48886  16.354  44.012   0.284
82478W        W48887   7.268  37.827   2.790
82479W        W48888  44.793  19.775   2.097
82480W        W48889  17.182  32.069  14.088
82481W        W48890   0.241  18.256  10.736
82482W        W48891  17.793  42.772  13.950
82483W        W48892  11.669  39.440  13.058
82484W        W48893  15.222   5.842  10.957
82485W        W48894  21.841  12.224  11.116
82486W        W48895   7.016  21.844   1.338
82487W        W48896  14.779  12.582  14.789
82488W        W48897   0.576   2.905   0.288
82489W        W48898  15.153  19.785   0.463
82490W        W48899  32.948  33.818  11.219
82491W        W48900  19.174  30.932   3.646
82492W        W48901  10.147  23.629   0.528
82493W        W48902   5.910   7.936  11.105
82494W        W48903  32.375  11.341  12.578
82495W        W48904  38.098   3.341  14.633
82496W        W48905  23.099  39.297   2.835
82497W        W48906   3.719  27.410   2.396
82498W        W48907  36.000  10.552   3.634
82499W        W48908   8.242  23.562   2.388
82500W        W48909  21.063  12.936   4.273
82501W        W48910  28.688   3.805   2.336
82502W        W48911   7.220  33.208   0.407
82503W        W48912  26.407  23.123  10.758
82504W        W48913  19.522   2.137   3.079
82505W        W48914  37.640   1.391  12.922
82506W        W48915  15.627  25.793  13.380
82507W        W48916  13.165  43.508   3.448
82508W        W48917  41.943  27.341   2.680
82509W        W48918  21.073  43.543   1.926
82510W        W48919  17.685  37.609  14.489
82511W        W48920   4.296  17.944   0.750
82512W        W48921  27.337   6.068   0.818
82513W        W48922  42.365  42.399  11.990
82514W        W48923   6.506   1.361  13.668
82515W        W48924  42.728  35.315   1.966
82516W        W48925  27.287  24.021   2.675
82517W        W48926  10.240  10.167   2.382
82518W        W48927  38.029   2.013  12.675
82519W        W48928  18.656  38.506  13.565
82520W        W48929  13.277  37.441  14.738
82521W        W48930  16.833  44.643   1.268
82522W        W48931  16.248   3.579  14.924
82523W        W48932   1.381  14.910   1.428
82524W        W48933   4.505  20.069   1.949
82525W        W48934  29.767  31.415   2.312
82526W        W48935  29.412  40.824  13.058
82527W        W48936   5.166  29.927   1.808
82528W        W48937   0.253  34.061  12.526
82529W        W48938  21.937  44.335  12.011
82530W        W48939  34.483  37.117   3.782
82531W        W48940  33.181   0.861   2.044
82532W        W48941  21.087  37.639  12.564
82533W        W48942  36.523   0.817   1.177
82534W        W48943   9.655  18.044   4.808
82535W        W48944  44.647  31.957   4.584
82536W        W48945  26.247  27.888   3.863
82537W        W48946   7.568   7.895   1.881
82538W        W48947  23.766   7.659  12.339
82539W        W48948  18.291  28.206   0.335
82540W        W48949  10.784   7.314  12.089
82541W        W48950   9.095  44.890   3.185
82542W        W48951  34.567  23.913  10.798
82543W        W48952   7.768  21.121   4.529
82544W        W48953  15.401  37.327  13.982
82545W        W48954   2.871  26.643   3.794
82546W        W48955  18.142  17.723  13.039
82547W        W48956   1.911  10.509   1.995
82548W        W48957  32.838   5.451  12.076
82549W        W48958   5.012  39.952   4.309
82550W        W48959   4.514  16.124  11.885
82551W        W48960   1.007  39.954   1.853
82552W        W48961  44.238  41.569  12.609
82553W        W48962  31.099  36.460   0.546
82554W        W48963   0.493   4.996  13.054
82555W        W48964   0.461   1.679   4.064
82556W        W48965  16.477  42.576  11.850
82557W        W48966  44.902  24.164   1.471
82558W        W48967   1.832   8.371  14.881
82559W        W48968  36.068  24.228   2.702
82560W        W48969  26.538  35.980   0.759
82561W        W48970  12.956  17.765   3.166
82562W        W48971  37.510  27.235  13.955
82563W        W48972   0.773  20.217   0.318
82564W        W48973  37.076  23.452  12.175
82565W        W48974  31.433  25.110   0.010
82566W        W48975  39.428   9.140   3.389
82567W        W48976  14.131   5.124   1.254
82568W        W48977  21.718  27.977   3.598
82569W        W48978  28.614  41.584  13.502
82570W        W48979  36.117  18.015  11.016
82571W        W48980  21.510   9.593  12.509
82572W        W48981   5.924   3.758   3.819
82573W        W48982  16.751  15.091   0.398
82574W        W48983  42.572  39.464   3.762
82575W        W48984  16.461  10.294  14.067
82576W        W48985  18.315   1.010  11.629
82577W        W48986  14.389  37.863  13.352
82578W        W48987   1.661  43.569   4.149
82579W        W48988  28.105  36.962   0.782
82580W        W48989  44.999  20.260   2.196
82581W        W48990   5.924   1.536  14.749
82582W        W48991  20.837  21.376  11.943
82583W        W48992   9.326  39.099   0.856
82584W        W48993  22.496  26.187   0.425
82585W        W48994  43.437   6.272   4.471
82586W        W48995  40.499  20.135   1.845
82587W        W48996   7.602  18.655   0.329
82588W        W48997  18.880   4.875   0.871
82589W        W48998   9.282  26.902  12.866
82590W        W48999  12.793  30.750  12.545
82591W        W49000  11.250   5.686  11.504
82592W        W49001  22.187   4.438   4.412
82593W        W49002  26.681  25.477   2.218
82594W        W49003  40.596  13.430  14.769
82595W        W49004  10.266  18.484   1.654
82596W        W49005  37.595  34.940   4.758
82597W        W49006   7.158  19.728   0.901
82598W        W49007   9.902  36.941  13.527
82599W        W49008  16.718  11.598   2.182
82600W        W49009  35.384  30.162   4.269
82601W        W49010  12.054  31.465   4.719
82602W        W49011  12.122   8.821  13.529
82603W        W49012   2.863  29.973  11.746
82604W        W49013  15.433  40.044   3.773
82605W        W49014  17.806  38.915   0.869
82606W        W49015   7.110  12.011  11.038
82607W        W49016  38.797   3.776   0.662
82608W        W49017  42.528  36.308  11.039
82609W        W49018   3.427   4.577  12.650
82610W        W49019  23.628  38.377   1.249
82611W        W49020  28.736  14.624  12.485
82612W        W49021   7.415   0.344   0.881
82613W        W49022  24.039   8.134   2.769
82614W        W49023  40.569   4.289   0.831
82615W        W49024  36.555  40.446  14.865
82616W        W49025   3.498  22.564  12.795
82617W        W49026  13.460   0.187  12.980
82618W        W49027  10.339  32.915   2.098
82619W        W49028   1.248  34.768  11.997
82620W        W49029   7.353  44.460  11.209
82621W        W49030   3.247  20.039  14.345
82622W        W49031  38.896  28.055  13.559
82623W        W49032  37.095  37.426  13.856
82624W        W49033   7.530  12.572   3.134
82625W        W49034  26.999  11.123   4.102
82626W        W49035   0.320  22.519  11.076
82627W        W49036  10.921  42.406   1.894
82628W        W49037  22.967  19.991   0.211
82629W        W49038  35.744   1.986  13.721
82630W        W49039  21.027  26.459  10.647
82631W        W49040  43.906  42.992   1.444
82632W        W49041  23.804  40.449   0.699
82633W        W49042  11.697  12.442  12.986
82634W        W49043  44.478  34.577   4.818
82635W        W49044  23.315  20.102  13.385
82636W        W49045  43.771  29.112  12.557
82637W        W49046  37.289  12.866   2.818
82638W        W49047  13.536  38.559   3.098
82639W        W49048  19.298  40.863   1.162
82640W        W49049  16.279  14.228  11.167
82641W        W49050  43.502   3.440  12.896
82642W        W49051  44.832  23.625   0.782
82643W        W49052  37.807  40.789   4.709
82644W        W49053  36.483  41.084   1.842
82645W        W49054   8.181  39.260   0.221
82646W        W49055  33.629  25.137   3.472
82647W        W49056   9.447  14.561   2.378
82648W        W49057  12.770  15.994   5.066
82649W        W49058  21.660  34.116   1.529
82650W        W49059  20.765  33.370   1.481
82651W        W49060  27.816   1.590   4.727
82652W        W49061  28.110  31.533   3.178
82653W        W49062  37.221  13.185   3.641
82654W        W49063  41.309  20.696   2.158
82655W        W49064  41.461  17.662  12.463
82656W        W49065  40.392  12.780  13.369
82657W        W49066  29.064  41.703   3.229
82658W        W49067  21.271   0.323  13.169
82659W        W49068   4.625  38.436  12.937
82660W        W49069   9.292  39.568  12.766
82661W        W49070   3.598   9.179   3.029
82662W        W49071  13.128  31.689   1.821
82663W        W49072  44.980  34.168  12.952
82664W        W49073  27.902  23.179   0.944
82665W        W49074   4.420  14.436  13.840
82666W        W49075   6.735  11.187  10.495
82667W        W49076   2.441  39.102   1.159
82668W        W49077   7.728  10.461  10.046
82669W        W49078  35.735   0.383   4.747
82670W        W49079  43.937  20.079   3.637
82671W        W49080  10.431  42.761   1.602
82672W        W49081  22.099  25.251  13.522
82673W        W49082  29.633   8.914  11.088
82674W        W49083  13.910  33.655  10.889
82675W        W49084  22.456  32.065   1.328
82676W        W49085  21.666   5.782  12.952
82677W        W49086   3.169  38.317   3.221
82678W        W49087  34.831  15.830   3.557
82679W        W49088  31.487   8.386   0.655
82680W        W49089  23.836  17.169  12.798
82681W        W49090  42.333   1.931  14.041
82682W        W49091  10.373   6.701  11.454
82683W        W49092  12.143  23.645  10.617
82684W        W49093  40.285   3.730   1.121
82685W        W49094  42.821   1.369   1.897
82686W        W49095  26.030   8.362   2.526
82687W        W49096  10.861  20.084   0.364
82688W        W49097   5.727  38.416  11.502
82689W        W49098   3.775  23.672   2.669
82690W        W49099  34.521  31.550   1.675
82691W        W49100  21.739   6.143  11.502
82692W        W49101  40.378  32.685   4.274
82693W        W49102  13.564  15.678  12.161
82694W        W49103   7.354   5.180   3.312
82695W        W49104  43.273  21.139   3.168
82696W        W49105  28.612  33.467  10.579
82697W        W49106  40.757  23.658  14.122
82698W        W49107  31.452  40.612   3.164
82699W        W49108  12.378  12.870  14.802
82700W        W49109  39.511   2.703   1.941
82701W        W49110   1.050  39.824   3.240
82702W        W49111  30.489   6.684  11.967
82703W        W49112  22.010  25.041  10.671
82704W        W49113  27.926  22.298  13.081
82705W        W49114  33.119   3.361  12.120
82706W        W49115  10.645  24.288   2.618
82707W        W49116  20.230  35.838  13.323
82708W        W49117  21.110  37.499  11.637
82709W        W49118  17.087  34.160   4.220
82710W        W49119   3.313  39.427  10.756
82711W        W49120  20.952  18.222   2.262
82712W        W49121  13.608  27.438   0.371
82713W        W49122  21.770  10.010   1.766
82714W        W49123  33.560  29.708  11.760
82715W        W49124  22.610  37.251  13.503
82716W        W49125   2.236  22.272  10.632
82717W        W49126   6.844   2.544   1.195
82718W        W49127   9.211  14.258  14.361
82719W        W49128  20.773  19.572  11.646
82720W        W49129   2.166  36.611   4.089
82721W        W49130  23.668  26.889  10.665
82722W        W49131   8.220  23.196  12.033
82723W        W49132  21.679  42.309  11.581
82724W        W49133  26.772  15.092  12.042
82725W        W49134  20.271  34.813   0.847
82726W        W49135  43.831  24.648  12.345
82727W        W49136   7.794  21.000  11.662
82728W        W49137  17.346  17.260   5.607
82729W        W49138   5.725  21.935  14.616
82730W        W49139  10.498  24.953   3.672
82731W        W49140  34.797   2.172   0.384
82732W        W49141  15.391   0.321   2.370
82733W        W49142  42.826  11.188   3.209
82734W        W49143  41.305  41.629   2.891
82735W        W49144  16.232  37.645  14.835
82736W        W49145   3.750  14.129  10.626
82737W        W49146  35.577   5.850  13.397
82738W        W49147   9.590  25.005  10.310
82739W        W49148  31.493  23.482   3.121
82740W        W49149  38.406  44.334   4.380
82741W        W49150  23.449   7.777   0.273
82742W        W49151  35.449   4.208   1.790
82743W        W49152  39.364   7.909  10.850
82744W        W49153   2.977  43.739  11.406
82745W        W49154  17.229  44.832   3.334
82746W        W49155  39.327   4.462   2.283
82747W        W49156  20.086  18.890   4.311
82748W        W49157  22.345  44.791  10.387
82749W        W49158  35.973  34.146  14.442
82750W        W49159  43.221  21.141  14.027
82751W        W49160   1.429  16.759  11.841
82752W        W49161  41.395   8.724  12.592
82753W        W49162  38.742   9.556   2.749
82754W        W49163   2.969  40.060   3.268
82755W        W49164  39.936  35.479   2.387
82756W        W49165  43.047   6.896   4.992
82757W        W49166  42.657  42.400  10.193
82758W        W49167   5.699  14.156   0.189
82759W        W49168  29.003  28.446   4.692
82760W        W49169  34.645  42.964  14.506
82761W        W49170  18.012  24.546  12.571
82762W        W49171   9.919  28.523  13.348
82763W        W49172  37.993  44.938   3.791
82764W        W49173  44.533  32.355  12.218
82765W        W49174  38.106  40.471   0.874
82766W        W49175   2.517  20.115   2.227
82767W        W49176  27.514  24.481  10.775
82768W        W49177  42.265  28.550  12.115
82769W        W49178   0.338   6.433  11.778
82770W        W49179   1.511  12.619   0.406
82771W        W49180   6.899  14.185  10.633
82772W        W49181  14.249   2.565   4.079
82773W        W49182  12.380   8.612   3.618
82774W        W49183  11.803   9.377  12.960
82775W        W49184   9.314  34.018   0.307
82776W        W49185   5.190  41.219   2.178
82777W        W49186   4.200  28.612  13.248
82778W        W49187   1.551  25.159  14.823
82779W        W49188   6.697  14.294   0.417
82780W        W49189   5.961   1.014  14.883
82781W        W49190   3.932  10.631  14.151
82782W        W49191   9.168  44.875  12.485
82783W        W49192  20.047  38.135   3.284
82784W        W49193   3.450  41.322   0.943
82785W        W49194  37.519  31.078   1.438
82786W        W49195  42.798   0.113  13.880
82787W        W49196  34.586  25.877   0.002
82788W        W49197  41.527  29.916   2.706
82789W        W49198  18.517  17.004   0.046
82790W        W49199  28.422  29.368   0.624
82791W        W49200  44.979   1.020  11.669
82792W        W49201   4.738  38.810   4.627
82793W        W49202  12.286   6.062   2.323
82794W        W49203  22.282  29.098   2.872
82795W        W49204  27.381  35.515   0.742
82796W        W49205   5.374  21.412   2.000
82797W        W49206   8.149  10.798   4.010
82798W        W49207  38.121  34.116  12.952
82799W        W49208  14.571  20.151  12.430
82800W        W49209  19.962  36.480   5.041
82801W        W49210  40.180   8.688   4.189
82802W        W49211  39.459  10.374   4.126
82803W        W49212  16.150  13.107   4.265
82804W        W49213  18.042  39.435   4.105
82805W        W49214  33.464  36.626   3.612
82806W        W49215  25.983  33.070  13.394
82807W        W49216  36.954  29.676   0.416
82808W        W49217   6.863   9.768  11.263
82809W        W49218  31.565   3.861   2.779
82810W        W49219  24.612   1.862  14.315
82811W        W49220  42.374  11.841   1.266
82812W        W49221  25.766  12.823   4.488
82813W        W49222  40.770  20.654  14.482
82814W        W49223  11.862   7.721  12.127
82815W        W49224   9.916  17.331   2.324
82816W        W49225  31.021   4.045  12.563
82817W        W49226  28.499  35.897  10.534
82818W        W49227  15.234   8.065  13.452
82819W        W49228  26.109  12.804   0.377
82820W        W49229  11.820   2.311   5.021
82821W        W49230  33.762  35.808   3.669
82822W        W49231  16.347  41.926   1.346
82823W        W49232   5.184  17.484   4.242
82824W        W49233  32.931  12.574   1.880
82825W        W49234  10.403  16.405  13.914
82826W        W49235  10.717  13.612  12.084
82827W        W49236  16.816   7.628   4.264
82828W        W49237  33.652   1.269  13.524
82829W        W49238  12.377  41.255   0.625
82830W        W49239  27.004   4.428  11.543
82831W        W49240  15.794  28.970  12.593
82832W        W49241   0.547  39.880   3.144
82833W        W49242  18.572  39.688   3.226
82834W        W49243  33.692   1.754   4.596
82835W        W49244  28.299  31.209   0.284
82836W        W49245  40.140  31.536  12.626
82837W        W49246   2.217  11.216  11.659
82838W        W49247  41.655  33.615   1.267
82839W        W49248   8.686  43.397   2.874
82840W        W49249  34.575  11.627  13.751
82841W        W49250  37.008  18.508   3.262
82842W        W49251   1.375  15.777  11.619
82843W        W49252  11.665   6.770  10.461
82844W        W49253  17.083  29.449   0.575
82845W        W49254   9.273  22.789   1.618
82846W        W49255  22.250   4.142  10.944
82847W        W49256  41.176  10.983   2.955
82848W        W49257  36.885  16.128   4.035
82849W        W49258  22.082  25.727  11.249
82850W        W49259  13.841  24.696  11.304
82851W        W49260  24.226  35.068   4.151
82852W        W49261  19.189  34.796   0.543
82853W        W49262  13.305  44.139   0.349
82854W        W49263  31.489  11.766  10.735
82855W        W49264  23.125  29.213   3.229
82856W        W49265  16.986  21.609   1.508
82857W        W49266   5.375  18.973   4.184
82858W        W49267  34.025  13.340   0.398
82859W        W49268   4.003  25.946  11.875
82860W        W49269  27.640  18.534  12.418
82861W        W49270  42.341  11.237  10.705
82862W        W49271   1.983  29.205   1.189
82863W        W49272  17.157  43.666   2.297
82864W        W49273  38.858  30.169   3.812
82865W        W49274  10.921  43.806   4.577
82866W        W49275  23.382   7.359   2.888
82867W        W49276  11.088  16.105   1.500
82868W        W49277  13.302   1.842  11.607
82869W        W49278  18.543  13.467  13.447
82870W        W49279  21.233  30.668  14.479
82871W        W49280  38.609  30.337  10.906
82872W        W49281  37.589  14.895  12.434
82873W        W49282   9.487  21.225   2.256
82874W        W49283  20.322  38.474  13.624
82875W        W49284  22.475  10.341   3.349
82876W        W49285   3.240   2.929   3.333
82877W        W49286  21.045  26.651  10.021
82878W        W49287  42.031  16.279   4.683
82879W        W49288   9.141  28.860   3.276
82880W        W49289  23.724  43.781  12.345
82881W        W49290  41.269  33.135   3.177
82882W        W49291  13.912  35.033   3.981
82883W        W49292  30.261  40.971  12.035
82884W        W49293  12.772   3.393   9.873
82885W        W49294  40.793   4.252   4.599
82886W        W49295  12.919  36.298  10.743
82887W        W49296  38.359  44.528   0.826
82888W        W49297  36.048  11.701   5.288
82889W        W49298  41.903  25.777  14.779
82890W        W49299  27.095  13.049  10.585
82891W        W49300  42.868  41.852  12.648
82892W        W49301  40.504   6.649  13.131
82893W        W49302  34.465  36.135  13.141
82894W        W49303  33.986  10.434  13.033
82895W        W49304   2.212  21.636  11.550
82896W        W49305   3.875   4.364  12.479
82897W        W49306  44.710  11.292  12.896
82898W        W49307   8.105  32.576   2.062
82899W        W49308   8.710  38.977  14.353
82900W        W49309   6.829   7.121  12.121
82901W        W49310  28.169  27.868  14.400
82902W        W49311   0.787  26.051  13.076
82903W        W49312  29.221   0.149  12.085
82904W        W49313  40.873  39.362   0.203
82905W        W49314  16.195   3.494   3.623
82906W        W49315  24.716  44.757  12.789
82907W        W49316  26.110  30.180  13.540
82908W        W49317  44.405   2.907   1.747
82909W        W49318  10.177  18.386  13.570
82910W        W49319  22.450  38.413  11.987
82911W        W49320  35.997  29.010  12.545
82912W        W49321  19.601  33.473   4.415
82913W        W49322  34.154   7.349  13.754
82914W        W49323  11.701  26.002   4.523
82915W        W49324  11.064  43.530  12.952
82916W        W49325  35.130   2.253   4.041
82917W        W49326  31.938  14.216   0.035
82918W        W49327  40.288  18.792  14.475
82919W        W49328  16.697  20.179   4.537
82920W        W49329  28.808  17.142  11.443
82921W        W49330   9.670  27.061  13.153
82922W        W49331  19.720  13.355  12.021
82923W        W49332  34.458  22.299   2.846
82924W        W49333  22.424   7.597   3.517
82925W        W49334  15.803  20.937   0.063
82926W        W49335  37.060  16.700  12.482
82927W        W49336  22.624  14.434  10.717
82928W        W49337   4.762  39.881  14.659
82929W        W49338  13.486  35.583  13.458
82930W        W49339   9.101  13.172   2.274
82931W        W49340  42.067   4.785  12.548
82932W        W49341  15.359  10.696  12.982
82933W        W49342   5.165   4.859   4.060
82934W        W49343  32.110  24.613  13.481
82935W        W49344  37.080   1.238  12.501
82936W        W49345  44.026  14.651   2.192
82937W        W49346  17.232  20.008  11.980
82938W        W49347  27.245  18.187  12.919
82939W        W49348  31.669   0.868  13.452
82940W        W49349  15.073  27.457  13.075
82941W        W49350  35.345  35.621  12.537
82942W        W49351  44.302   1.779   3.842
82943W        W49352   3.646  15.411   1.007
82944W        W49353  20.512  21.471   3.688
82945W        W49354  25.056   9.855   4.726
82946W        W49355  14.907  42.713   5.312
82947W        W49356  40.866  25.701   3.922
82948W        W49357  32.913   9.826   1.454
82949W        W49358  14.463  34.638   5.278
82950W        W49359  11.958   1.966   4.224
82951W        W49360   5.735  12.236  10.914
82952W        W49361  31.252   9.411  12.979
82953W        W49362  10.387  13.921   4.561
82954W        W49363  41.530  24.190  13.025
82955W        W49364  16.189   8.935   2.356
82956W        W49365  24.741   3.844   3.161
82957W        W49366  34.631  40.516   2.748
82958W        W49367   6.203  28.645   0.981
82959W        W49368  33.793   3.933  11.103
82960W        W49369  16.270  19.842  11.927
82961W        W49370   1.160   9.658  13.599
82962W        W49371  25.768  34.326  13.450
82963W        W49372   9.636  10.903   1.918
82964W        W49373  30.789  30.778   3.509
82965W        W49374   7.348  43.808   3.161
82966W        W49375  41.696   2.950  11.257
82967W        W49376   4.640   0.492  10.738
82968W        W49377  14.088  23.126  12.600
82969W        W49378  36.876  32.083   3.454
82970W        W49379  38.359  42.584   0.910
82971W        W49380  30.673   5.849  13.067
82972W        W49381  11.578   5.463  13.273
82973W        W49382  42.878  19.812   5.084
82974W        W49383  35.472  13.171   2.242
82975W        W49384   6.624  36.565   0.004
82976W        W49385  34.564   1.728   0.286
82977W        W49386  43.261   5.988   4.066
82978W        W49387  44.429  18.495   3.832
82979W        W49388   2.442   8.299   3.313
82980W        W49389   4.269  44.085   2.896
82981W        W49390  20.488  30.488   4.209
82982W        W49391   0.923   1.689  12.623
82983W        W49392  20.344  39.834   3.120
82984W        W49393  32.433  18.776   0.161
82985W        W49394  17.340   9.131  14.597
82986W        W49395  24.468   8.828  13.944
82987W        W49396  14.039  13.790   0.390
82988W        W49397  34.606   4.246  10.798
82989W        W49398  16.572   6.641   2.654
82990W        W49399  17.645  44.859   4.472
82991W        W49400  20.274  28.199  12.021
82992W        W49401   6.401  21.521  14.837
82993W        W49402  15.708  22.051  11.218
82994W        W49403  30.860  19.816  10.779
82995W        W49404  28.440  19.702  10.894
82996W        W49405  35.988  43.761   1.702
82997W        W49406  42.246  18.276   0.441
82998W        W49407  11.688  19.966   1.003
82999W        W49408   5.769  33.464   4.586
83000W        W49409  34.933  18.406  12.510
83001W        W49410  29.361  44.222  11.940
83002W        W49411   0.312  19.770   3.738
83003W        W49412   5.845  18.224   1.762
83004W        W49413  33.553  43.227  13.052
83005W        W49414  24.250  14.575  13.408
83006W        W49415   0.433  22.954   2.768
83007W        W49416  26.275  12.347  10.986
83008W        W49417  21.826  34.123   2.511
83009W        W49418  41.075  37.819   1.781
83010W        W49419  28.020  42.797  10.807
83011W        W49420  39.568  43.970   1.255
83012W        W49421  28.685   6.332   2.360
83013W        W49422  15.667  22.578   4.619
83014W        W49423  16.791   8.152   2.777
83015W        W49424  39.178  29.952   2.978
83016W        W49425  12.642  30.260   4.750
83017W        W49426  29.435  28.023   3.590
83018W        W49427  15.310  36.135  10.980
83019W        W49428  13.089  27.417   0.337
83020W        W49429  29.566  10.693   2.332
83021W        W49430  21.546  19.164  12.404
83022W        W49431  30.975  26.593   4.551
83023W        W49432   5.317  20.849   4.217
83024W        W49433  42.248  10.857  14.306
83025W        W49434  24.430  15.626  13.551
83026W        W49435  14.099  40.570   0.859
83027W        W49436   9.113  21.230  12.528
83028W        W49437  29.802  22.953  11.066
83029W        W49438  12.227  35.899  13.566
83030W        W49439  31.059  19.338  13.385
83031W        W49440  39.431  23.391  10.603
83032W        W49441  43.202   0.819  11.482
83033W        W49442  23.159  14.144  12.887
83034W        W49443  29.377   8.826   3.189
83035W        W49444  23.768  36.711  13.109
83036W        W49445  29.547  20.860  11.070
83037W        W49446  12.974  23.704   3.211
83038W        W49447  10.764   4.059   4.064
83039W        W49448  43.116  21.839   1.523
83040W        W49449  38.439  41.800   1.522
83041W        W49450  25.750  14.351  13.251
83042W        W49451  40.974   2.998   3.675
83043W        W49452  42.313  22.576   0.263
83044W        W49453  30.148  28.440  11.549
83045W        W49454  16.064  20.439   3.420
83046W        W49455  14.078  39.300  13.567
83047W        W49456  11.424  32.698   0.233
83048W        W49457   1.477  23.421  12.516
83049W        W49458  15.723  13.115  14.745
83050W        W49459  24.629  42.074  12.083
83051W        W49460   5.425  34.073  12.588
83052W        W49461  26.965  19.414   0.850
83053W        W49462   4.451  32.052  13.444
83054W        W49463  16.127  24.201  10.254
83055W        W49464   5.662  18.262  13.024
83056W        W49465   2.970  25.196   1.847
83057W        W49466  19.082  28.987   1.390
83058W        W49467  34.403  40.559   1.835
83059W        W49468  18.324  16.660   2.815
83060W        W49469   9.743  40.884   3.891
83061W        W49470   7.138  40.445   3.539
83062W        W49471  10.044  40.148  10.127
83063W        W49472   8.817  32.467  13.144
83064W        W49473  37.502  13.559   4.285
83065W        W49474  39.894  14.690  12.254
83066W        W49475  36.329  43.613   1.222
83067W        W49476  29.347  29.060  14.382
83068W        W49477  31.626  18.100  11.642
83069W        W49478  35.069  25.613  14.973
83070W        W49479  11.202  36.507  12.374
83071W        W49480  25.572  19.452  11.546
83072W        W49481  42.800  35.120  11.966
83073W        W49482   0.016  23.990  14.996
83074W        W49483   7.887   7.678   0.929
83075W        W49484  37.960  33.935   2.630
83076W        W49485  11.644  43.927   0.073
83077W        W49486  27.929  20.746  11.005
83078W        W49487   2.870   2.311   4.689
83079W        W49488  21.549  33.151   2.342
83080W        W49489  43.382  17.697  10.816
83081W        W49490  17.706  40.702   1.559
83082W        W49491  43.430  10.881  11.100
83083W        W49492  34.948  24.232   2.405
83084W        W49493  35.993  33.397  14.189
83085W        W49494  33.668  11.155  12.785
83086W        W49495  30.929  36.436   2.515
83087W        W49496  29.682  43.386   4.166
83088W        W49497  42.437   2.901   1.887
83089W        W49498  31.998   4.748   0.183
83090W        W49499  23.122  25.706  12.829
83091W        W49500  14.884  27.066  13.359
83092W        W49501  18.121  21.485   3.294
83093W        W49502  10.892  23.432  11.090
83094W        W49503   3.032  32.532   3.839
83095W        W49504   2.795  36.509  11.604
83096W        W49505  28.288  30.128   4.754
83097W        W49506   2.322  36.671   2.305
83098W        W49507  40.067  41.931  12.747
83099W        W49508  14.280   0.084   5.450
83100W        W49509  21.715  17.257   0.042
83101W        W49510  29.818   3.775  11.112
83102W        W49511   5.862  11.261   2.815
83103W        W49512  19.590  43.325   4.998
83104W        W49513  37.510  33.329   4.695
83105W        W49514  13.819  18.943   4.001
83106W        W49515  25.183  26.563  11.408
83107W        W49516   0.240   0.904  13.835
83108W        W49517  25.196  17.943   1.228
83109W        W49518  31.062  29.588   2.698
83110W        W49519   7.469  27.431  14.903
83111W        W49520  12.751  35.109  14.518
83112W        W49521   8.751  33.592   3.423
83113W        W49522  32.066  30.891  10.733
83114W        W49523  14.024  33.062  14.462
83115W        W49524  27.179  32.294  13.431
83116W        W49525  40.382   7.767   3.555
83117W        W49526   0.800  24.488   1.202
83118W        W49527  35.473  28.945  14.737
83119W        W49528  25.442  34.443  14.507
83120W        W49529  18.667  22.590  10.871
83121W        W49530   2.115  32.962   4.695
83122W        W49531   5.264  16.657  12.172
83123W        W49532   7.710  32.833  10.563
83124W        W49533   8.545  15.281  11.944
83125W        W49534  16.884  15.257  10.754
83126W        W49535  22.624  14.797   0.038
83127W        W49536  24.971  17.057  14.990
83128W        W49537  22.218   4.962   0.469
83129W        W49538  23.182  10.245   3.193
83130W        W49539  17.004  39.439  12.828
83131W        W49540  13.376  14.788  13.538
83132W        W49541   7.704  36.673  13.333
83133W        W49542   5.434   1.537   1.814
83134W        W49543  38.528  37.310   0.271
83135W        W49544  30.161  34.971   1.414
83136W        W49545  31.534  26.866  13.021
83137W        W49546   1.710   0.359  13.572
83138W        W49547  20.640   0.476   4.660
83139W        W49548  27.615   5.460  11.032
83140W        W49549   7.019  28.499   0.720
83141W        W49550  13.278  22.617  11.668
83142W        W49551  19.586  11.687  11.208
83143W        W49552  10.501   2.010  11.529
83144W        W49553  12.868  28.653   3.263
83145W        W49554  11.286  44.630   0.497
83146W        W49555   7.946  13.602  12.589
83147W        W49556  37.797  32.066   3.191
83148W        W49557  31.084  23.505   1.905
83149W        W49558   0.172   5.819   2.377
83150W        W49559  30.996  19.639  12.903
83151W        W49560  44.454  32.849   4.549
83152W        W49561  28.223  27.455   1.712
83153W        W49562  10.548  37.547   3.212
83154W        W49563  31.168   6.266  10.080
83155W        W49564  39.833  40.514  10.726
83156W        W49565  25.213   1.337   3.804
83157W        W49566   0.729   9.608   0.393
83158W        W49567  13.770  31.143  14.825
83159W        W49568   6.670  27.653   0.331
83160W        W49569  30.154  42.697   1.788
83161W        W49570  31.175  16.810  13.543
83162W        W49571  35.952  44.220   3.410
83163W        W49572  14.279   7.749  12.900
83164W        W49573  40.293  40.554   4.684
83165W        W49574  36.862   3.821  11.384
83166W        W49575  33.510  39.052   0.564
83167W        W49576  24.114   5.426  11.495
83168W        W49577   7.331  29.344   0.438
83169W        W49578   1.197  43.235  14.773
83170W        W49579  33.421  22.958   2.221
83171W        W49580  26.152  17.411  10.576
83172W        W49581   8.138   1.895  14.947
83173W        W49582  27.188  31.362  12.618
83174W        W49583  32.900  32.403  12.022
83175W        W49584  19.234   7.761  14.001
83176W        W49585  38.374  41.493   1.940
83177W        W49586   2.718  14.658   3.423
83178W        W49587   6.616  24.547   0.278
83179W        W49588  27.623  15.690   2.650
83180W        W49589  13.111   7.612   1.021
83181W        W49590  26.219  39.624   4.082
83182W        W49591  17.332   1.754   4.750
83183W        W49592  13.171   9.612   2.920
83184W        W49593  36.266  19.368   5.647
83185W        W49594  13.983   9.095  11.040
83186W        W49595   6.366  21.626  11.028
83187W        W49596  10.336   8.871   2.762
83188W        W49597  34.503  18.463   0.056
83189W        W49598  29.907  40.979   4.643
83190W        W49599  33.924  15.694   2.878
83191W        W49600  29.180  37.502  11.934
83192W        W49601   5.786  12.191   1.133
83193W        W49602  14.514  11.128  13.008
83194W        W49603  37.763  40.419   1.306
83195W        W49604  29.100   7.805  12.519
83196W        W49605   0.814  22.093  12.906
83197W        W49606  20.964   4.329  11.564
83198W        W49607  40.926  26.502  14.686
83199W        W49608   3.255  25.655  13.822
83200W        W49609  41.927  11.770  13.998
83201W        W49610  22.780  18.867   2.630
83202W        W49611  11.022  22.095   2.441
83203W        W49612   2.270   0.431  14.869
83204W        W49613  13.409  23.110   1.471
83205W        W49614  37.942  31.188  11.887
83206W        W49615  31.106  38.653  10.763
83207W        W49616  21.606  27.150   0.703
83208W        W49617  27.135  44.931  12.568
83209W        W49618  29.532  32.996  11.506
83210W        W49619  14.164  44.368   3.097
83211W        W49620  27.014  29.202  11.597
83212W        W49621  21.854  31.420  12.850
83213W        W49622  10.164  10.405  14.331
83214W        W49623  20.988  15.620  12.650
83215W        W49624  16.958  29.092  12.433
83216W        W49625   9.145  30.298  10.939
83217W        W49626  40.072  23.910   1.749
83218W        W49627  28.194  12.306  13.020
83219W        W49628   7.052  41.674   3.539
83220W        W49629   0.140   7.590  10.902
83221W        W49630  25.478  30.568   1.253
83222W        W49631   5.787  29.446  13.860
83223W        W49632  23.554  34.014   1.863
83224W        W49633  17.083  42.021   2.770
83225W        W49634   3.831   0.971  10.843
83226W        W49635  14.656  28.947   0.405
83227W        W49636  38.089   8.824   3.918
83228W        W49637  23.011  18.118   3.102
83229W        W49638  32.918  16.745   0.688
83230W        W49639   2.388   3.300  12.101
83231W        W49640  30.082  13.042  14.465
83232W        W49641   4.385  28.414  14.173
83233W        W49642  25.420  26.752  13.411
83234W        W49643   0.334   7.902   0.301
83235W        W49644  21.140  21.755   0.826
83236W        W49645  22.716  18.637  14.014
83237W        W49646   3.927  16.467  11.043
83238W        W49647   2.019  15.271  14.313
83239W        W49648  16.344  27.425   1.174
83240W        W49649  41.569   6.487  11.524
83241W        W49650   5.680  33.011   1.862
83242W        W49651  12.208  25.440  11.983
83243W        W49652  15.236  38.563  11.242
83244W        W49653  27.590  15.553  12.352
83245W        W49654  16.392  43.438  12.107
83246W        W49655  14.056   0.684  14.991
83247W        W49656  16.224  13.342  13.858
83248W        W49657  40.439  39.956   0.930
83249W        W49658  32.442  27.556   0.261
83250W        W49659  26.329  14.249   1.138
83251W        W49660  33.758  10.378   5.128
83252W        W49661  27.179  23.408  14.460
83253W        W49662  24.604  20.803  13.552
83254W        W49663  29.376  12.073  12.084
83255W        W49664   3.745  21.608  14.474
83256W        W49665  37.466  22.186   3.224
83257W        W49666  18.625  40.252  14.739
83258W        W49667  21.747  22.365   4.354
83259W        W49668  25.596  23.825   1.955
83260W        W49669  38.881  35.947   5.089
83261W        W49670  34.894  44.583  12.808
83262W        W49671  42.695  19.032   4.613
83263W        W49672  28.097  20.146  11.621
83264W        W49673  22.027  35.117  12.558
83265W        W49674  20.655   2.377   2.238
83266W        W49675   8.817  18.440  11.522
83267W        W49676  30.000  28.897  13.133
83268W        W49677  30.663  27.258  12.955
83269W        W49678  37.559  27.083   2.766
83270W        W49679  10.665  44.839   2.508
83271W        W49680   3.400  35.878  13.034
83272W        W49681  34.786   6.338   0.391
83273W        W49682  40.668  44.295  11.244
83274W        W49683   6.905  31.567  11.669
83275W        W49684  37.183   1.990  12.000
83276W        W49685  25.487   6.433  12.960
83277W        W49686  12.170  37.185   1.193
83278W        W49687   4.064  37.902  12.329
83279W        W49688  12.627  29.512   0.588
83280W        W49689  44.543  28.405  14.859
83281W        W49690  17.375   1.138  13.989
83282W        W49691  21.193  37.549   1.416
83283W        W49692  20.666  18.737   4.644
83284W        W49693  42.350  39.812  11.984
83285W        W49694   5.302  42.546   1.952
83286W        W49695  27.444  33.481  12.941
83287W        W49696  17.324  37.718  13.141
83288W        W49697  43.529  39.303   1.293
83289W        W49698  14.322  13.648   1.380
83290W        W49699  11.842  10.983  11.378
83291W        W49700  40.893   4.805   2.519
83292W        W49701   9.670  31.562   2.105
83293W        W49702   3.455  17.846  14.780
83294W        W49703  31.056  17.184   2.657
83295W        W49704  24.650  30.440  11.755
83296W        W49705  16.233  37.826  13.648
83297W        W49706  35.580  40.715   0.918
83298W        W49707  35.011  38.552  14.380
83299W        W49708  34.587  36.404   2.338
83300W        W49709  25.348   9.153   3.483
83301W        W49710  17.897  27.863  11.957
83302W        W49711  11.738  42.952   0.483
83303W        W49712  28.594   4.235  10.129
83304W        W49713   5.805   7.381  13.354
83305W        W49714  28.888  33.232  13.436
83306W        W49715  41.031   8.176   1.291
83307W        W49716   3.417  38.880  10.655
83308W        W49717  27.401  31.716   1.303
83309W        W49718  28.397  40.439   0.955
83310W        W49719  32.039  30.183  12.151
83311W        W49720  21.676  30.129   4.053
83312W        W49721   6.787  29.501   1.242
83313W        W49722  39.859   0.666  12.017
83314W        W49723  38.483  37.870   3.338
83315W        W49724  34.973  38.322   0.940
83316W        W49725  38.649  21.402   9.891
83317W        W49726   2.842  42.699   0.988
83318W        W49727   3.827  42.964  10.714
83319W        W49728   8.857  31.433   1.500
83320W        W49729   4.670  32.816   1.707
83321W        W49730  14.140   2.208   0.847
83322W        W49731  40.836  15.100  13.986
83323W        W49732   0.492  28.238  13.967
83324W        W49733  44.580  24.305  13.766
83325W        W49734   0.934  26.463  11.627
83326W        W49735  39.307  28.344  14.411
83327W        W49736   2.918  17.744   3.051
83328W        W49737   3.195   5.948  13.343
83329W        W49738  28.931  44.018   0.386
83330W        W49739  14.311  12.870  14.715
83331W        W49740  22.143   4.638  11.491
83332W        W49741  19.221  16.071   3.035
83333W        W49742  23.218  23.521  10.702
83334W        W49743  17.292  38.776  13.097
83335W        W49744  32.036  14.144   3.466
83336W        W49745  29.102  20.189   4.409
83337W        W49746  36.357   9.297  12.060
83338W        W49747   1.544  24.624  13.518
83339W        W49748  11.333  11.171  12.822
83340W        W49749   6.871   9.724   0.689
83341W        W49750  33.350   6.810   4.223
83342W        W49751  10.929  16.340  13.921
83343W        W49752  11.919   5.261   0.705
83344W        W49753  26.050  17.639   1.726
83345W        W49754  31.963   3.698  12.434
83346W        W49755  24.817  31.012  12.814
83347W        W49756  20.535   5.362   2.826
83348W        W49757  28.527   1.247  14.741
83349W        W49758   4.825  23.697   0.578
83350W        W49759  35.791  27.202  14.078
83351W        W49760   7.949  19.459  11.102
83352W        W49761  29.111   7.772  13.031
83353W        W49762  16.346  20.893  12.353
83354W        W49763  29.471  41.388  11.619
83355W        W49764  15.615  26.618   2.366
83356W        W49765  33.020  37.304   2.671
83357W        W49766   4.296  25.156   2.793
83358W        W49767  14.852  31.418  13.462
83359W        W49768   0.324  14.429   3.386
83360W        W49769   9.468  37.432   1.337
83361W        W49770  37.427   6.342   0.944
83362W        W49771  25.772   5.271  14.872
83363W        W49772  10.766  12.533  14.367
83364W        W49773   1.792  33.891  13.708
83365W        W49774  33.853   4.811  12.500
83366W        W49775   7.931   2.867   3.273
83367W        W49776  34.618  32.105  13.407
83368W        W49777  16.084  35.860  13.429
83369W        W49778  36.063  32.227   3.520
83370W        W49779  27.884   1.406   0.374
83371W        W49780  30.048   2.403   1.014
83372W        W49781  21.087  13.716   2.343
83373W        W49782  43.541  13.372  13.410
83374W        W49783  29.484  41.859   0.044
83375W        W49784  37.476   5.390  14.763
83376W        W49785   4.756  25.471   1.819
83377W        W49786   3.666  27.306   9.910
83378W        W49787  20.021   4.749   2.322
83379W        W49788  35.498  22.979   3.698
83380W        W49789  25.217  19.752   2.683
83381W        W49790   3.254  19.843   5.237
83382W        W49791  24.951  36.478   4.133
83383W        W49792   9.848   0.799   3.201
83384W        W49793  32.303  41.881   2.345
83385W        W49794  16.116  12.357  13.311
83386W        W49795  18.352  22.596  14.776
83387W        W49796  38.253  16.174   3.660
83388W        W49797  11.495   8.896  11.443
83389W        W49798  44.433  11.761   0.403
83390W        W49799  22.563  15.034  14.346
83391W        W49800  37.066  38.406  12.887
83392W        W49801  40.609  32.686  12.470
83393W        W49802   8.728  39.835   2.842
83394W        W49803   8.226  43.543   1.384
83395W        W49804  28.230  41.490  11.119
83396W        W49805  17.601  31.948   1.824
83397W        W49806  13.440   5.160  10.699
83398W        W49807   4.741  23.359   3.787
83399W        W49808  26.887  42.472   4.557
83400W        W49809  24.832  23.719  12.401
83401W        W49810  20.634  15.236  13.077
83402W        W49811  12.024  44.533  11.485
83403W        W49812  28.046  15.236   4.134
83404W        W49813  29.633  34.031   3.835
83405W        W49814  24.807  43.776   3.334
83406W        W49815  21.312  21.178   4.064
83407W        W49816   7.739  23.628  13.308
83408W        W49817  31.553  25.918  14.743
83409W        W49818  15.446  37.163  12.393
83410W        W49819  37.338  21.859   1.474
83411W        W49820  16.810  32.139  10.812
83412W        W49821  11.929  37.670   1.212
83413W        W49822  12.742  43.284   1.819
83414W        W49823  44.407  10.337  12.974
83415W        W49824  43.261   2.798  11.195
83416W        W49825  23.675  10.218   3.736
83417W        W49826  21.553   8.865   4.040
83418W        W49827  19.081  15.576  10.382
83419W        W49828   5.923  18.788   0.949
83420W        W49829  35.571   1.917  10.563
83421W        W49830  41.215  11.987   0.504
83422W        W49831   2.758  23.148   0.938
83423W        W49832  20.632   0.199   1.832
83424W        W49833  17.417  13.366   3.189
83425W        W49834  15.162  21.622  12.485
83426W        W49835  37.168  11.653   0.960
83427W        W49836  20.494  28.568  11.736
83428W        W49837   3.207  40.505   4.514
83429W        W49838   1.454  24.763  14.014
83430W        W49839  38.769  42.297   0.676
83431W        W49840  40.033  37.862  14.979
83432W        W49841  37.058  27.552  14.916
83433W        W49842  22.657  15.225  13.034
83434W        W49843  26.890  15.309   1.486
83435W        W49844   8.239  31.294  12.479
83436W        W49845  22.080   1.931  14.853
83437W        W49846  23.740  12.148   4.367
83438W        W49847  28.929  15.650  10.827
83439W        W49848   9.406  21.223   4.039
83440W        W49849  41.908   8.793  12.553
83441W        W49850  31.544  41.235   2.477
83442W        W49851  35.853  14.017  10.943
83443W        W49852  10.233  31.277   5.438
83444W        W49853  44.426  26.270   5.288
83445W        W49854  40.876  23.025  11.978
83446W        W49855  30.629   5.816  14.090
83447W        W49856  34.083  11.880  11.924
83448W        W49857  11.246  14.743   1.916
83449W        W49858   7.406  30.990  14.542
83450W        W49859  35.397  21.027   0.192
83451W        W49860  40.832  44.962  14.012
83452W        W49861  36.462  28.015   1.789
83453W        W49862  37.888  32.388   1.025
83454W        W49863   0.168   1.545  11.236
83455W        W49864  43.796  11.479  12.465
83456W        W49865   4.229  12.320  11.061
83457W        W49866  28.255  31.921  14.599
83458W        W49867   8.184  14.609   2.742
83459W        W49868  17.785  17.735   0.913
83460W        W49869   8.815  43.793   3.209
83461W        W49870   8.265  10.260   0.204
83462W        W49871  27.057   1.970  11.297
83463W        W49872   8.943  27.241  10.222
83464W        W49873  10.568  36.867  11.235
83465W        W49874  18.901  28.164  13.120
83466W        W49875  26.995  23.008   0.878
83467W        W49876  43.017   6.589  11.953
83468W        W49877  38.898  43.561   4.508
83469W        W49878  21.287  19.313  13.435
83470W        W49879  19.690  30.948  13.381
83471W        W49880  16.607  10.640  11.551
83472W        W49881  38.631   9.305   4.471
83473W        W49882  41.878   0.527  11.569
83474W        W49883  44.002  37.000  14.056
83475W        W49884  30.608  12.625   2.850
83476W        W49885   7.947   1.753   1.445
83477W        W49886  16.178  38.536   3.138
83478W        W49887   0.359  23.971   4.438
83479W        W49888   7.724  19.298  10.648
83480W        W49889  21.645  20.122   3.320
83481W        W49890  31.332  25.480  12.937
83482W        W49891  28.899  38.802   2.239
83483W        W49892   1.369   4.125   1.349
83484W        W49893  13.050  12.882   2.722
83485W        W49894  34.489   4.775   2.240
83486W        W49895  16.247  19.604  14.966
83487W        W49896  34.024  13.337  12.344
83488W        W49897  10.145   9.868  14.400
83489W        W49898  10.154  42.830  11.291
83490W        W49899  27.648   2.723   2.230
83491W        W49900  40.913  12.964  10.784
83492W        W49901  37.982  42.697   1.306
83493W        W49902  29.008  25.665  11.491
83494W        W49903  19.340  17.310   2.354
83495W        W49904  28.277  39.064  13.849
83496W        W49905  22.657  17.442   0.501
83497W        W49906  30.444  28.022   4.096
83498W        W49907   2.425   3.577   1.416
83499W        W49908  42.947  27.429  13.227
83500W        W49909  25.752  11.197  13.606
83501W        W49910  37.019  39.335   2.200
83502W        W49911   8.124  29.710   3.498
83503W        W49912  30.135  19.398  11.121
83504W        W49913  36.980  39.274  14.998
83505W        W49914  25.227  12.660  12.692
83506W        W49915  20.211  12.927   1.392
83507W        W49916  32.845  35.101   1.837
83508W        W49917  26.973  44.258   1.829
83509W        W49918  22.209  36.542   4.019
83510W        W49919  32.589  33.043  14.385
83511W        W49920  18.654  23.572   4.653
83512W        W49921  44.718  13.817   5.145
83513W        W49922   8.735  39.138  12.179
83514W        W49923  42.467  16.288   4.421
83515W        W49924  16.054  25.010  14.479
83516W        W49925  23.635  32.348  11.573
83517W        W49926  13.293  43.661  11.567
83518W        W49927   9.382  43.321  14.012
83519W        W49928  13.094   1.473   0.364
83520W        W49929  19.465   0.407  11.666
83521W        W49930  23.750  29.045   0.978
83522W        W49931  43.037  43.427  12.461
83523W        W49932  17.311   1.410   4.348
83524W        W49933  31.700   2.283   0.753
83525W        W49934  29.074   4.992   5.034
83526W        W49935   6.347  41.341   5.118
83527W        W49936  18.633  24.680  11.885
83528W        W49937  41.289   4.292   3.684
83529W        W49938  17.999   0.970   4.449
83530W        W49939   0.409   2.877   0.796
83531W        W49940  12.721  17.104   4.858
83532W        W49941  24.988  28.275  11.638
83533W        W49942  34.800  20.804  13.412
83534W        W49943   9.252   9.468  13.374
83535W        W49944   3.044   6.339  14.042
83536W        W49945  39.432  15.239  13.338
83537W        W49946  43.790  13.714  14.546
83538W        W49947  35.271  26.555   4.242
83539W        W49948  15.518   9.745   4.249
83540W        W49949  38.507  36.580  10.752
83541W        W49950  33.883  18.505   0.821
83542W        W49951  38.493  38.724  12.665
83543W        W49952  27.688  24.682  11.209
83544W        W49953  21.042  33.153   2.253
83545W        W49954   9.094  29.483   2.668
83546W        W49955  26.566  30.309  13.703
83547W        W49956   1.916  16.353   0.420
83548W        W49957  12.694  10.641  12.484
83549W        W49958  21.036  43.736   3.572
83550W        W49959  33.507  23.014  11.479
83551W        W49960  26.726  21.198   0.556
83552W        W49961  12.841  10.752  14.354
83553W        W49962  44.892  22.162   4.965
83554W        W49963  34.451  30.855  13.001
83555W        W49964  11.163  35.360  12.454
83556W        W49965  21.282  39.188  10.605
83557W        W49966  25.056  30.576  10.774
83558W        W49967   7.330  32.155  12.991
83559W        W49968  33.869  16.245  14.332
83560W        W49969  19.539   6.372  13.054
83561W        W49970  10.713  39.764  11.237
83562W        W49971  16.318  36.782  13.521
83563W        W49972  34.802  25.511   1.455
83564W        W49973  30.313  26.524   2.865
83565W        W49974  16.008  26.747  14.067
83566W        W49975  14.029   7.342  10.720
83567W        W49976   7.827  33.126  14.606
83568W        W49977  25.178  41.788  10.916
83569W        W49978  24.526   9.470  13.366
83570W        W49979   7.892  43.418   0.872
83571W        W49980  41.387  21.265  10.744
83572W        W49981   8.624   2.499  10.208
83573W        W49982   0.804  36.430  11.533
83574W        W49983  25.277   9.364   0.015
83575W        W49984  34.026  40.475  13.453
83576W        W49985   2.232  43.896   1.983
83577W        W49986  34.893  18.567   0.967
83578W        W49987  10.828  26.156   1.290
83579W        W49988   0.982   5.859  13.749
83580W        W49989  42.086  23.107  12.884
83581W        W49990  24.205  27.156  11.674
83582W        W49991  37.397  25.762   3.199
83583W        W49992   4.919  31.345   0.754
83584W        W49993  13.375   3.323   0.448
83585W        W49994  33.790  44.441  11.094
83586W        W49995   0.997   8.701   4.586
83587W        W49996  23.574  17.308  10.482
83588W        W49997  15.729  19.231  12.277
83589W        W49998  16.227  41.750   2.378
83590W        W49999  21.775   1.270   1.460
83591W        W50000   8.103   5.415  13.316
83592W        W50001   4.557   5.726  10.262
83593W        W50002  14.117  44.512   0.791
83594W        W50003  16.172  35.058   4.001
83595W        W50004  21.785  40.009   2.332
83596W        W50005  24.044   2.342  12.227
83597W        W50006  31.313  41.002   1.124
83598W        W50007  36.587  19.741   3.629
83599W        W50008  30.980  13.381  11.768
83600W        W50009  17.729  26.881   2.531
83601W        W50010  10.123  23.419   0.060
83602W        W50011   2.358  30.980  11.909
83603W        W50012  32.167  26.926   0.875
83604W        W50013  41.362  43.210  12.610
83605W        W50014  23.251  14.137   3.157
83606W        W50015   0.333   8.329   3.983
83607W        W50016  31.102  44.805   4.125
83608W        W50017   6.983  19.119   1.702
83609W        W50018  18.542  31.614  12.092
83610W        W50019  18.507  17.226   1.745
83611W        W50020  32.066   1.758   2.339
83612W        W50021  26.143  39.700  11.167
83613W        W50022  19.792  35.279   1.466
83614W        W50023  13.826   7.196   3.630
83615W        W50024  27.692  37.939   0.204
83616W        W50025   7.948   6.350   3.628
83617W        W50026  28.627   0.331  12.859
83618W        W50027  39.133  22.757   0.677
83619W        W50028  11.852  32.455  12.602
83620W        W50029   9.355  28.950   5.063
83621W        W50030  31.389   0.728  14.836
83622W        W50031  14.448  22.333  12.922
83623W        W50032  30.895  28.506   1.595
83624W        W50033  38.892  30.643   2.486
83625W        W50034  43.840  41.237  12.887
83626W        W50035  37.020   7.210  10.808
83627W        W50036   4.843   6.982   4.168
83628W        W50037   2.236  24.606  14.830
83629W        W50038   2.761  18.220  14.447
83630W        W50039  23.180  21.228   0.957
83631W        W50040  37.289   9.388   3.966
83632W        W50041  23.063   6.297   3.210
83633W        W50042  43.040  43.662   1.232
83634W        W50043   9.712   3.505  12.950
83635W        W50044   5.685  20.584  12.291
83636W        W50045  32.014  18.617  14.783
83637W        W50046  37.291  18.963   2.795
83638W        W50047  25.449   6.590   0.016
83639W        W50048  43.308  36.604  11.250
83640W        W50049  26.479  16.690  13.730
83641W        W50050  37.544  18.527  12.100
83642W        W50051  42.912  25.408   2.440
83643W        W50052  25.092  36.102   1.262
83644W        W50053  26.972  29.072   2.442
83645W        W50054  17.364   9.502   0.794
83646W        W50055   9.644  35.606   3.331
83647W        W50056   2.295   0.945  12.976
83648W        W50057  32.117  39.367  14.392
83649W        W50058  41.227  15.277  14.255
83650W        W50059  32.618  16.171   3.845
83651W        W50060   3.350  28.206   3.233
83652W        W50061  36.961  25.954   2.858
83653W        W50062   6.183   8.441  10.389
83654W        W50063  15.511   1.281  13.528
83655W        W50064  37.901   5.450  14.479
83656W        W50065  10.207   1.903   0.121
83657W        W50066  33.309  30.664  12.651
83658W        W50067  37.582   8.609  11.971
83659W        W50068  21.402  30.534  11.907
83660W        W50069  16.240  11.314   1.994
83661W        W50070  32.408  14.335  10.705
83662W        W50071  22.756  10.711  10.984
83663W        W50072   2.190  38.624  11.619
83664W        W50073  21.909  38.130  14.803
83665W        W50074  11.451   2.788  14.037
83666W        W50075  39.984  32.568   3.309
83667W        W50076   6.229  16.505  10.850
83668W        W50077  42.762  16.611  11.531
83669W        W50078  42.829  15.209  13.175
83670W        W50079  32.003  25.162   2.881
83671W        W50080  20.179  11.045   0.764
83672W        W50081  36.584  31.648  11.164
83673W        W50082  22.574   5.836   0.356
83674W        W50083  28.636  11.801   1.672
83675W        W50084  35.009  27.564   4.677
83676W        W50085  11.731  23.365   3.811
83677W        W50086  24.043  26.539  14.118
83678W        W50087  20.644  11.167   4.125
83679W        W50088  25.489  11.370  14.038
83680W        W50089  30.527  17.377   2.732
83681W        W50090  40.180  44.861  14.800
83682W        W50091   5.235  27.643   0.464
83683W        W50092  33.030  43.146  12.908
83684W        W50093  13.629  31.179   1.863
83685W        W50094  11.320  12.727   4.140
83686W        W50095  16.979  38.983   1.222
83687W        W50096  39.278  11.822   2.864
83688W        W50097   2.124  42.054  14.937
83689W        W50098  33.321  24.100  13.712
83690W        W50099  15.675   6.209  12.294
83691W        W50100  10.152  30.267   3.193
83692W        W50101  32.409  31.032   1.699
83693W        W50102  37.225   8.344   4.206
83694W        W50103  40.339  44.151   0.886
83695W        W50104  11.571  29.094  11.019
83696W        W50105   7.532   4.780   4.558
83697W        W50106  16.775   8.241  14.555
83698W        W50107  23.001  25.561   1.944
83699W        W50108  39.355  26.732   1.814
83700W        W50109  20.678  37.665  14.549
83701W        W50110   9.656  18.526  13.501
83702W        W50111  11.825  18.589   3.940
83703W        W50112  33.160  15.691   5.147
83704W        W50113   6.134  31.552   4.179
83705W        W50114  33.791  23.024   2.565
83706W        W50115  16.178  20.720   1.845
83707W        W50116   5.458  36.540   0.674
83708W        W50117  39.883   8.560  12.824
83709W        W50118  29.620  27.645   0.399
83710W        W50119  40.938  10.053  14.486
83711W        W50120  26.535  12.580   2.339
83712W        W50121   8.119  27.945  13.905
83713W        W50122  34.461  12.136   3.907
83714W        W50123  43.572  19.708   1.154
83715W        W50124  22.562   4.491  10.721
83716W        W50125   3.967   9.403  11.099
83717W        W50126  34.493  16.398   1.193
83718W        W50127  12.904  26.755   1.707
83719W        W50128  13.660  36.017  13.221
83720W        W50129  32.572  23.956  10.684
83721W        W50130  40.431  10.183   3.106
83722W        W50131   2.288  42.333   2.146
83723W        W50132  19.982  22.343   3.663
83724W        W50133  26.989  12.885   0.278
83725W        W50134  30.549  24.689  12.614
83726W        W50135  34.598  42.367  12.898
83727W        W50136  37.803  14.253   2.492
83728W        W50137   4.007   6.149  14.749
83729W        W50138  28.145  32.101  13.102
83730W        W50139  37.074  28.700   1.722
83731W        W50140  17.155   4.136   0.884
83732W        W50141  23.502   1.782  14.312
83733W        W50142   8.324  18.278  11.594
83734W        W50143  21.165  29.971  14.033
83735W        W50144  17.157  18.012  10.393
83736W        W50145  36.569  14.289  11.214
83737W        W50146  38.405  18.068   2.319
83738W        W50147  33.669   3.489  12.084
83739W        W50148  19.544  16.793   3.366
83740W        W50149  18.610  44.494  11.469
83741W        W50150  32.616  35.449  14.239
83742W        W50151   0.011  17.154  14.021
83743W        W50152  40.554  10.468  11.436
83744W        W50153  16.848  39.848   3.611
83745W        W50154  17.031  25.251  14.627
83746W        W50155  23.062   9.425   0.297
83747W        W50156  38.185  39.183   0.360
83748W        W50157  16.654  25.645  14.543
83749W        W50158  14.012  35.097   4.632
83750W        W50159   0.257  18.086  12.086
83751W        W50160  22.589  38.245   2.605
83752W        W50161  37.542  31.928   2.337
83753W        W50162   5.761  34.508   4.243
83754W        W50163  44.786  43.577   3.090
83755W        W50164  14.584  39.535  12.955
83756W        W50165  33.221  21.693   5.060
83757W        W50166   6.869  44.284  12.592
83758W        W50167  40.464   7.183  12.290
83759W        W50168  32.608  36.224   4.233
83760W        W50169  40.957  19.527  11.276
83761W        W50170  43.847  15.146  12.837
83762W        W50171  11.696  13.288  14.877
83763W        W50172  40.829  14.015   3.128
83764W        W50173   2.084  29.324  11.675
83765W        W50174  23.458   4.162   3.797
83766W        W50175   9.366  15.666   0.417
83767W        W50176   6.976   0.447   2.455
83768W        W50177  16.810  36.907   3.353
83769W        W50178   9.734  39.016  10.877
83770W        W50179  22.191  31.907   2.332
83771W        W50180  19.996  33.923   4.642
83772W        W50181  34.471  39.648   1.938
83773W        W50182  39.032  28.951  10.155
83774W        W50183  44.218  19.796  12.132
83775W        W50184   9.590   3.932  13.888
83776W        W50185  42.234  10.669   0.654
83777W        W50186   7.726  27.582  14.091
83778W        W50187  18.554  10.593   2.756
83779W        W50188  40.529   0.376  11.616
83780W        W50189  42.953   0.050  13.037
83781W        W50190  14.688  32.071  12.156
83782W        W50191  39.747  22.642   4.073
83783W        W50192  10.900  44.527   2.188
83784W        W50193  35.918  36.934  14.771
83785W        W50194   8.810  28.694  14.515
83786W        W50195  16.153  26.092   3.206
83787W        W50196   3.795  20.590  13.069
83788W        W50197  17.146  10.239   4.258
83789W        W50198   5.044  15.587   3.634
83790W        W50199  36.024   8.408  10.728
83791W        W50200   9.535  12.663  13.743
83792W        W50201  37.805   5.892   4.746
83793W        W50202  19.292  13.358   1.251
83794W        W50203  40.144   9.424  11.625
83795W        W50204  22.419  22.396   1.241
83796W        W50205   4.197  14.077   1.794
83797W        W50206  42.423  30.862  10.809
83798W        W50207  44.187   0.821  14.801
83799W        W50208  32.511  23.767  11.572
83800W        W50209  16.678  38.395   1.730
83801W        W50210   6.063   6.335  12.500
83802W        W50211  20.160  17.840  12.373
83803W        W50212  16.130  28.550  11.539
83804W        W50213   0.366  34.365  10.927
83805W        W50214  40.989  14.358   4.469
83806W        W50215  40.662  31.673  12.671
83807W        W50216  38.343   0.666   3.685
83808W        W50217  26.720  36.103  12.032
83809W        W50218  12.756  37.443  14.854
83810W        W50219  29.257  43.058   4.155
83811W        W50220  23.730  24.242   1.397
83812W        W50221  14.275  16.079  13.759
83813W        W50222  37.914   9.584   1.657
83814W        W50223   8.424  17.682  12.054
83815W        W50224  25.541   6.671   3.055
83816W        W50225  19.198  33.471  11.063
83817W        W50226  34.979   7.856   0.537
83818W        W50227  13.427   7.463  10.439
83819W        W50228  32.929   5.428  10.728
83820W        W50229  14.011  11.592   3.824
83821W        W50230  20.005   6.827  14.354
83822W        W50231  19.804   9.147   0.760
83823W        W50232  36.202  26.587   3.867
83824W        W50233  23.150  10.385  11.579
83825W        W50234   1.379  26.710  10.961
83826W        W50235  42.563  22.692  12.274
83827W        W50236  34.445  31.452   4.687
83828W        W50237  21.651  30.954  12.108
83829W        W50238  26.724   1.770  10.962
83830W        W50239   9.026   7.686  11.962
83831W        W50240  33.295  25.455   1.657
83832W        W50241  12.139   0.967   1.347
83833W        W50242  20.051  30.332  12.880
83834W        W50243   3.184  14.751   2.203
83835W        W50244  40.966  13.821  11.305
83836W        W50245   0.569   8.289   2.791
83837W        W50246  17.592  37.805   3.817
83838W        W50247  34.799  32.844  14.618
83839W        W50248  12.889  30.198   4.278
83840W        W50249  15.217   2.038  13.177
83841W        W50250  14.310  25.082   4.095
83842W        W50251  43.823  26.779  11.423
83843W        W50252   3.528   0.850   0.265
83844W        W50253   8.201  25.953  14.522
83845W        W50254  17.857  19.218  10.368
83846W        W50255  21.774  36.001  14.450
83847W        W50256  28.475  35.863   2.887
83848W        W50257  24.580  37.747  14.390
83849W        W50258   4.304  40.046   1.919
83850W        W50259   1.696  33.463  14.570
83851W        W50260  16.743  10.647  14.307
83852W        W50261  24.077   6.942   3.639
83853W        W50262  13.307  20.346  11.096
83854W        W50263  32.421  26.031   0.220
83855W        W50264  14.148  39.890  13.996
83856W        W50265  36.927  37.359  10.739
83857W        W50266  11.436  18.203  12.936
83858W        W50267  31.975   5.190  13.516
83859W        W50268  43.191  42.956  14.931
83860W        W50269  33.519  24.086   1.363
83861W        W50270  25.695  29.629  14.489
83862W        W50271  13.277  31.239  11.906
83863W        W50272  28.653  22.587  10.458
83864W        W50273  12.942  37.564  14.372
83865W        W50274  20.989  17.129  12.965
83866W        W50275  28.741  31.013   3.111
83867W        W50276  39.742  36.427  11.125
83868W        W50277  25.360   0.972   4.541
83869W        W50278  13.503   0.944   0.838
83870W        W50279  12.129  16.719   3.671
83871W        W50280   5.755  23.553  11.550
83872W        W50281   2.053  40.057  10.794
83873W        W50282  31.802   3.802  11.923
83874W        W50283   9.441  19.971   1.937
83875W        W50284  41.170  17.138  12.997
83876W        W50285  17.677  21.531   0.399
83877W        W50286  21.884  35.518   2.326
83878W        W50287   9.367  31.112  14.344
83879W        W50288  39.941  34.140  14.725
83880W        W50289  13.229  15.537   2.139
83881W        W50290  26.570   7.214  12.568
83882W        W50291  14.285  19.978  11.936
83883W        W50292   3.969  43.060   0.651
83884W        W50293   9.202   4.231  13.026
83885W        W50294  25.244  10.727   1.492
83886W        W50295  20.248  22.098   4.057
83887W        W50296   6.873  24.514  14.785
83888W        W50297  32.363  14.278   0.481
83889W        W50298  21.281  18.791   1.722
83890W        W50299  12.368  23.245   2.663
83891W        W50300  28.100   7.781  12.873
83892W        W50301  30.490  10.566  10.635
83893W        W50302  24.205  44.395  14.743
83894W        W50303  40.058  32.818  11.135
83895W        W50304  41.553  39.298  11.127
83896W        W50305  37.024   4.142   1.767
83897W        W50306   5.249  40.098  14.545
83898W        W50307  12.432  19.767  12.480
83899W        W50308  23.578  14.147   2.685
83900W        W50309  19.264  33.751  14.794
83901W        W50310  17.530  29.489  10.953
83902W        W50311   0.487  30.361  11.850
83903W        W50312  32.597  42.072  13.971
83904W        W50313  15.395  29.987   2.179
83905W        W50314  12.857  36.903   5.517
83906W        W50315  10.717   5.285  12.605
83907W        W50316  16.018  13.096   1.769
83908W        W50317  28.589  41.775   1.467
83909W        W50318   4.716  37.145   2.342
83910W        W50319  39.488  16.117  13.364
83911W        W50320  20.152  42.131  12.969
83912W        W50321  40.310  32.606  13.327
83913W        W50322  24.633  21.869   1.223
83914W        W50323   8.826  42.022  10.616
83915W        W50324  19.538  15.308  13.195
83916W        W50325  37.910  32.470   2.056
83917W        W50326  30.596   1.407  14.907
83918W        W50327   2.978  28.993   4.278
83919W        W50328  24.182  29.593  14.302
83920W        W50329   9.227  20.653  13.786
83921W        W50330  32.611  34.618   2.708
83922W        W50331  33.904   1.872   1.277
83923W        W50332  34.535  28.220   1.879
83924W        W50333  34.944  31.090   2.794
83925W        W50334  26.811  38.215  14.846
83926W        W50335  14.679  12.871  12.408
83927W        W50336  33.566  11.328  13.259
83928W        W50337  15.366  19.613   9.679
83929W        W50338  42.203   6.476   1.827
83930W        W50339  27.693  27.331  13.295
83931W        W50340  13.490  33.907  12.085
83932W        W50341  42.962  43.826   1.782
83933W        W50342  16.765   4.965   4.889
83934W        W50343   9.122  23.496  14.604
83935W        W50344   3.349  30.057  11.895
83936W        W50345   7.566  37.413   0.953
83937W        W50346  38.771  18.714   0.042
83938W        W50347  34.872  26.408   1.711
83939W        W50348  42.925  43.261   4.611
83940W        W50349  31.061  41.165  11.653
83941W        W50350  40.906  14.247  13.059
83942W        W50351  27.970  25.104   0.814
83943W        W50352   4.708   0.893   3.206
83944W        W50353   9.922  20.366   0.705
83945W        W50354  13.618  18.654   1.757
83946W        W50355  44.561  36.301   3.592
83947W        W50356  10.616  28.578   3.280
83948W        W50357  31.816  21.615  13.080
83949W        W50358   6.744  14.727   1.755
83950W        W50359  22.624  18.485  14.503
83951W        W50360  20.979  40.024  12.807
83952W        W50361  43.041   6.693  13.652
83953W        W50362  15.008  32.721  10.619
83954W        W50363  44.365  44.467  12.926
83955W        W50364  17.250   8.506   0.985
83956W        W50365  23.472  43.305   3.430
83957W        W50366   6.239  39.355  10.598
83958W        W50367  20.746  25.330  12.032
83959W        W50368  38.953  39.453  12.558
83960W        W50369  30.842  19.586   3.216
83961W        W50370  26.990  44.589  11.132
83962W        W50371  31.182   2.902   1.830
83963W        W50372  40.810  22.811   2.452
83964W        W50373  36.316  32.429   2.233
83965W        W50374  39.661  12.013  14.985
83966W        W50375  37.908  42.898   2.192
83967W        W50376  24.805  15.842  10.109
83968W        W50377  29.821  23.424   1.437
83969W        W50378  16.248  15.793   0.533
83970W        W50379  44.751   1.325  13.076
83971W        W50380  38.374  37.531  13.592
83972W        W50381  14.646   5.197   0.771
83973W        W50382  10.420  29.670  10.426
83974W        W50383  14.278  37.304  11.563
83975W        W50384  32.845   5.343  13.470
83976W        W50385  13.568  26.676   4.282
83977W        W50386  25.240  30.529   3.749
83978W        W50387   0.620   7.754   2.628
83979W        W50388  23.975  26.886   1.680
83980W        W50389  44.925  11.733  11.657
83981W        W50390  18.534   4.206   4.172
83982W        W50391  22.986  19.747   4.562
83983W        W50392  20.094  36.373   0.860
83984W        W50393  19.261  41.419  14.281
83985W        W50394  43.745  23.819  13.857
83986W        W50395  40.398  10.141   2.217
83987W        W50396  39.654  32.178  13.924
83988W        W50397  35.101  36.873   1.913
83989W        W50398  22.029  15.213  11.649
83990W        W50399   4.885  31.182  13.638
83991W        W50400   4.222   4.195   0.703
83992W        W50401   9.957  26.800   4.625
83993W        W50402  38.138  43.949   4.109
83994W        W50403  33.392  28.098   0.461
83995W        W50404  31.090   5.899   1.838
83996W        W50405  37.492  27.738  13.873
83997W        W50406   8.612   9.339   3.554
83998W        W50407  24.678  25.203   3.585
83999W        W50408   6.322  15.597   1.679
84000W        W50409  19.637  27.239  13.892
84001W        W50410  23.122  26.378  11.921
84002W        W50411  30.885  29.124   4.590
84003W        W50412  21.587  35.002  12.910
84004W        W50413   4.435   7.971  13.961
84005W        W50414  30.532  35.553  11.067
84006W        W50415  32.975  37.396   0.294
84007W        W50416  43.437  26.625  13.176
84008W        W50417  16.899  11.475  11.618
84009W        W50418  38.473  22.282   3.292
84010W        W50419   1.799  21.300   3.210
84011W        W50420  35.594  44.596  11.895
84012W        W50421   8.907   8.331   0.403
84013W        W50422  28.294   2.461  11.319
84014W        W50423  10.952  19.216  14.987
84015W        W50424  26.644  12.067   0.528
84016W        W50425  43.591   3.980   2.719
84017W        W50426  31.652  10.965   1.743
84018W        W50427   2.944  11.783  14.015
84019W        W50428  18.702  29.090   4.920
84020W        W50429   6.398  39.135   3.227
84021W        W50430  30.617  23.760  13.461
84022W        W50431  22.160  10.966  14.948
84023W        W50432  29.980   0.823   2.627
84024W        W50433  29.469  31.383  12.522
84025W        W50434  22.668   2.986  13.464
84026W        W50435  44.797   1.961  12.009
84027W        W50436   6.770  24.107   4.517
84028W        W50437  32.496  24.111  10.147
84029W        W50438   2.382   9.171   0.239
84030W        W50439  37.551   8.090  14.722
84031W        W50440   1.920  24.183  14.395
84032W        W50441  26.360  18.014  14.014
84033W        W50442   0.583  23.282  13.472
84034W        W50443  41.764  30.760   9.788
84035W        W50444  33.992  32.412   3.256
84036W        W50445  37.888   4.368   3.119
84037W        W50446   1.765   8.141   4.639
84038W        W50447   5.869   0.003   4.066
84039W        W50448   9.783  26.462   0.863
84040W        W50449  19.184  32.890  12.809
84041W        W50450  38.113  10.548  13.694
84042W        W50451  11.654  22.534  11.858
84043W        W50452   2.950  37.114  14.353
84044W        W50453  23.212  11.691   1.255
84045W        W50454   4.496   3.626   2.852
84046W        W50455  17.356  43.258  11.667
84047W        W50456   5.792  11.181   4.357
84048W        W50457  33.304  44.810  11.348
84049W        W50458  27.477   8.381   1.358
84050W        W50459  22.632   0.964   1.554
84051W        W50460  37.441  17.326   1.002
84052W        W50461  29.524   7.144  13.323
84053W        W50462  12.455   7.800   2.804
84054W        W50463   6.740   5.809  14.491
84055W        W50464   0.255  32.876   1.152
84056W        W50465  41.507  21.180   2.434
84057W        W50466  22.669  22.124  14.885
84058W        W50467  15.176  30.408  11.449
84059W        W50468  33.624   2.428  13.911
84060W        W50469  37.416  29.519  14.759
84061W        W50470   3.731  31.524   2.400
84062W        W50471  20.696  11.961   2.192
84063W        W50472  18.746   2.226  14.476
84064W        W50473  39.798  21.444   4.993
84065W        W50474  11.038  19.039   2.425
84066W        W50475  25.370  35.382  11.707
84067W        W50476  19.319  20.157   0.021
84068W        W50477  13.232  10.777   0.825
84069W        W50478   1.765  39.043  10.832
84070W        W50479   1.436  18.102  11.176
84071W        W50480   7.466  23.752   0.826
84072W        W50481  33.653   9.787  10.655
84073W        W50482  33.698  40.826  12.019
84074W        W50483  42.573  30.545   1.338
84075W        W50484   7.946  34.913   3.717
84076W        W50485   7.846  23.785  12.411
84077W        W50486  10.306   7.787   3.698
84078W        W50487  40.800  11.640   0.408
84079W        W50488  40.895  13.979  10.785
84080W        W50489  37.384  41.397  11.522
84081W        W50490  25.022  11.329   2.237
84082W        W50491  23.592  39.963  14.026
84083W        W50492  44.669  37.929  14.716
84084W        W50493   4.955   7.298  14.927
84085W        W50494  28.532  41.527   2.352
84086W        W50495  29.114   4.791   2.843
84087W        W50496  18.568  29.571  14.349
84088W        W50497   1.032   3.571   3.763
84089W        W50498  39.013  11.399   2.714
84090W        W50499  31.963   0.827   4.541
84091W        W50500  43.760  10.769  11.474
84092W        W50501  34.881  38.035   2.783
84093W        W50502  33.040  14.909   3.247
84094W        W50503   3.493   3.818   3.712
84095W        W50504  39.358  23.407  14.066
84096W        W50505  17.661  28.704   3.658
84097W        W50506  44.120  34.404  11.501
84098W        W50507   4.839  14.420  12.559
84099W        W50508  39.160  14.920   1.722
84100W        W50509   6.704  27.382  10.772
84101W        W50510   2.046  22.017  11.931
84102W        W50511   6.946  26.711   0.449
84103W        W50512  35.456  24.514  11.267
84104W        W50513  12.390   7.162   0.891
84105W        W50514   0.427  42.461   4.709
84106W        W50515  44.253  17.196  11.168
84107W        W50516  18.654   6.926   1.828
84108W        W50517   4.210  19.336  13.638
84109W        W50518  21.663   4.710  13.036
84110W        W50519  15.567  35.568   1.418
84111W        W50520  26.105  25.032   9.844
84112W        W50521  22.202  30.921   4.016
84113W        W50522   4.286  35.641   1.490
84114W        W50523   2.936   9.195   4.194
84115W        W50524  26.746   9.436  14.278
84116W        W50525  41.738   7.765  11.407
84117W        W50526  34.083  25.956  14.806
84118W        W50527  36.018  11.587   4.663
84119W        W50528   5.165   2.729  11.472
84120W        W50529  25.921   1.819   3.685
84121W        W50530  15.687  20.147   2.109
84122W        W50531  30.518  43.075  11.522
84123W        W50532  13.448  29.611   0.020
84124W        W50533  38.910  40.297   0.515
84125W        W50534  36.279   7.217   3.745
84126W        W50535  10.267  36.365   1.675
84127W        W50536   0.188  40.200  10.628
84128W        W50537  10.758  29.030   3.517
84129W        W50538   8.691  28.062  10.693
84130W        W50539  13.709  22.619   3.192
84131W        W50540  15.194  19.683  11.480
84132W        W50541   9.653  26.899   5.019
84133W        W50542  34.532  27.784   4.574
84134W        W50543  10.776  28.526  11.983
84135W        W50544  18.261  19.564  11.122
84136W        W50545   2.043   8.524  14.015
84137W        W50546   0.026   4.376   3.078
84138W        W50547  18.760   6.812  14.855
84139W        W50548  27.602  18.019  10.692
84140W        W50549  22.823   6.268  14.409
84141W        W50550  27.130  38.337  11.100
84142W        W50551  19.586  17.805  13.458
84143W        W50552  13.252   4.508  11.871
84144W        W50553  21.983   7.390  10.538
84145W        W50554  39.310  32.079   2.749
84146W        W50555  43.022  31.014  12.228
84147W        W50556  19.028  30.617  13.065
84148W        W50557   6.911  10.891   4.119
84149W        W50558  15.130   4.795   1.425
84150W        W50559  44.788  29.866  12.616
84151W        W50560  28.683  40.357  12.875
84152W        W50561   8.333  41.755  13.598
84153W        W50562  37.999  44.252  14.403
84154W        W50563  18.807  37.150   5.028
84155W        W50564  12.848  31.919   4.696
84156W        W50565  11.292  43.076  12.843
84157W        W50566  10.842  25.630   1.301
84158W        W50567   5.337  36.596   2.114
84159W        W50568  10.003   3.850   3.254
84160W        W50569  14.367  28.011   3.093
84161W        W50570  28.236  14.729   1.329
84162W        W50571  14.092  10.280  14.956
84163W        W50572   5.861  32.015  14.080
84164W        W50573  15.451  43.934  11.886
84165W        W50574  10.267  40.128   0.904
84166W        W50575   0.556  35.169   2.446
84167W        W50576  22.718  16.221   2.612
84168W        W50577  44.702  23.226   4.776
84169W        W50578  11.566  10.338  11.999
84170W        W50579  44.709   5.752  11.902
84171W        W50580  32.829  16.918  12.830
84172W        W50581   9.444   3.264   2.277
84173W        W50582   2.727  26.922  13.840
84174W        W50583  37.287   6.852   2.461
84175W        W50584  29.232  25.150   2.796
84176W        W50585  23.536  16.103  14.996
84177W        W50586   5.978  21.771   4.575
84178W        W50587  13.582  19.455  10.692
84179W        W50588  38.746  44.512  13.426
84180W        W50589  33.495  10.350   0.764
84181W        W50590  42.200   9.395   3.124
84182W        W50591  44.011   6.391  11.909
84183W        W50592  14.235  33.096  14.943
84184W        W50593  36.794  23.289  12.564
84185W        W50594  18.549  17.281   2.609
84186W        W50595  27.056   3.173  10.783
84187W        W50596   6.924  41.782  11.247
84188W        W50597  39.930   3.665  11.905
84189W        W50598  27.733   5.850   0.517
84190W        W50599  23.881  30.411  11.184
84191W        W50600   3.491   9.872   0.360
84192W        W50601  21.768   4.042   2.822
84193W        W50602  25.211   1.553   1.811
84194W        W50603  31.002   4.897  10.955
84195W        W50604  11.658  21.490  13.567
84196W        W50605   7.163   2.215  11.675
84197W        W50606  18.682  35.340  12.097
84198W        W50607  22.544  27.630   2.140
84199W        W50608   6.173  31.704  11.180
84200W        W50609  27.074  27.974  13.463
84201W        W50610  24.972  30.026   0.642
84202W        W50611  40.697  34.339   2.416
84203W        W50612  43.413   0.063  13.903
84204W        W50613  21.458  12.262   0.514
84205W        W50614  16.608  19.148   4.629
84206W        W50615   4.846  14.578  14.983
84207W        W50616   0.442  16.250  10.734
84208W        W50617  41.408  42.896  13.858
84209W        W50618   6.748  19.005   0.701
84210W        W50619   7.691  18.689   2.952
84211W        W50620  40.865  24.119  14.417
84212W        W50621  21.688  13.784   1.647
84213W        W50622  29.576  27.601   3.342
84214W        W50623  38.564  25.696   1.716
84215W        W50624  42.244  42.747  10.283
84216W        W50625   7.729  12.862  11.000
84217W        W50626   7.784   9.775  12.387
84218W        W50627  24.433  19.241   0.803
84219W        W50628  27.172  36.790  11.050
84220W        W50629  34.159  20.508   2.960
84221W        W50630  35.313   8.707   0.788
84222W        W50631  25.976  29.723   0.776
84223W        W50632  35.395  42.188   2.419
84224W        W50633  18.111  39.356  11.123
84225W        W50634   6.222  40.378   4.637
84226W        W50635  16.174  44.278  12.432
84227W        W50636  30.326   9.647   0.487
84228W        W50637  30.246   7.390  12.050
84229W        W50638  14.931   7.853   3.752
84230W        W50639  31.875  41.590  12.900
84231W        W50640  20.501  38.344   4.134
84232W        W50641  38.202   6.877   3.303
84233W        W50642  37.690  32.652  13.084
84234W        W50643  40.245   5.842   0.759
84235W        W50644  36.272  24.538   0.752
84236W        W50645  10.236  16.797   3.182
84237W        W50646  12.217  43.481   2.654
84238W        W50647  14.087  31.336  14.061
84239W        W50648  18.835  42.064   4.309
84240W        W50649  15.349   4.728   0.581
84241W        W50650  32.663  38.534  12.021
84242W        W50651  29.633  29.134  13.404
84243W        W50652  17.481  18.409  13.122
84244W        W50653  10.305  40.988  13.408
84245W        W50654   6.784  19.107  12.058
84246W        W50655  10.823   9.215  10.751
84247W        W50656  25.961  32.009   3.261
84248W        W50657  36.900  33.036   3.866
84249W        W50658  12.607  15.854  13.033
84250W        W50659   4.364  32.363  12.956
84251W        W50660  34.718  21.855   2.903
84252W        W50661   2.738  25.661   3.725
84253W        W50662   7.249  14.340   0.305
84254W        W50663  24.226  28.875   0.849
84255W        W50664  13.582  22.891   3.624
84256W        W50665  40.458  29.579  12.489
84257W        W50666  11.746   3.533  11.201
84258W        W50667  12.904   2.180  12.968
84259W        W50668   0.984  36.542   1.057
84260W        W50669   5.050   7.218  14.041
84261W        W50670   3.415  41.122  13.092
84262W        W50671  25.172  15.358  12.692
84263W        W50672  11.185  25.617  13.361
84264W        W50673  36.230   8.516  11.574
84265W        W50674  21.164   5.385   1.474
84266W        W50675  28.783  30.597  10.822
84267W        W50676  30.039  23.081   2.173
84268W        W50677  13.192  35.518   4.333
84269W        W50678  21.507  28.453   3.565
84270W        W50679  15.179  27.508   0.467
84271W        W50680  37.024  13.378   4.143
84272W        W50681  25.263  33.428  10.432
84273W        W50682  30.360  21.952  14.994
84274W        W50683  29.160  13.446  10.773
84275W        W50684  15.728  33.125   2.402
84276W        W50685  25.995  26.575   1.884
84277W        W50686   0.421  29.126  10.793
84278W        W50687  36.378  39.179   9.850
84279W        W50688  40.746  36.024  11.604
84280W        W50689  13.265  23.053   0.109
84281W        W50690  27.192   2.401   2.558
84282W        W50691  37.794  43.322  13.468
84283W        W50692  17.760  18.764  14.370
84284W        W50693  26.590  25.558  11.459
84285W        W50694   6.880   3.502  13.550
84286W        W50695  26.697   9.168   2.304
84287W        W50696  41.558  13.786   0.991
84288W        W50697   9.922  36.125  11.678
84289W        W50698  19.284  22.921   3.819
84290W        W50699  39.133  34.558   4.191
84291W        W50700  32.356  22.568   0.948
84292W        W50701  13.852  22.599  14.272
84293W        W50702  24.330  28.938  11.136
84294W        W50703  32.936  24.017  12.203
84295W        W50704   2.427   1.761   5.097
84296W        W50705   9.677   0.908   0.814
84297W        W50706   6.540   8.342  14.199
84298W        W50707  40.943  38.042  11.583
84299W        W50708  20.842  27.077   3.095
84300W        W50709  27.955  31.905   4.596
84301W        W50710   4.265  11.345  13.521
84302W        W50711  40.777  17.714   1.205
84303W        W50712  23.489  39.065   4.719
84304W        W50713  21.080  16.962  11.184
84305W        W50714  39.270  42.718  11.633
84306W        W50715  20.687  30.253  10.890
84307W        W50716  14.542  36.070  12.917
84308W        W50717  14.088   2.900   0.184
84309W        W50718  14.856   4.828  12.853
84310W        W50719  44.992  18.184   2.200
84311W        W50720  37.186  38.016  12.501
84312W        W50721   7.487  17.906   1.297
84313W        W50722  33.366  25.686  13.010
84314W        W50723  35.110  32.130   2.658
84315W        W50724  44.876  37.499   2.391
84316W        W50725  34.312  12.201   2.859
84317W        W50726   0.744  43.762  13.757
84318W        W50727  27.146  24.269  13.777
84319W        W50728  26.555  14.726   1.152
84320W        W50729   5.283  37.822  11.764
84321W        W50730   0.041  26.253  13.302
84322W        W50731  38.713  41.045  14.145
84323W        W50732  19.113  29.843   4.461
84324W        W50733  19.551  35.359  11.797
84325W        W50734   3.756  18.707  12.136
84326W        W50735  21.705  42.559  14.035
84327W        W50736  33.971  13.710   4.245
84328W        W50737  19.654   4.918   1.404
84329W        W50738   9.250  43.058   0.768
84330W        W50739   1.304  29.218   3.763
84331W        W50740  28.712  10.436  11.403
84332W        W50741  26.722  23.815  12.095
84333W        W50742  34.638   7.158  13.727
84334W        W50743  32.825   7.362  10.911
84335W        W50744   9.193  26.622  14.779
84336W        W50745  25.685  11.331   1.827
84337W        W50746   1.000   3.299   1.377
84338W        W50747  21.823  21.047  14.479
84339W        W50748  36.751  36.081  14.161
84340W        W50749  24.507  19.845  10.214
84341W        W50750  26.448  16.505   3.220
84342W        W50751   4.877  34.209   3.604
84343W        W50752  17.298   0.552  14.822
84344W        W50753   0.822  31.052  10.176
84345W        W50754  30.536  41.642   5.025
84346W        W50755  23.119  19.528   2.380
84347W        W50756  35.930  16.536   2.378
84348W        W50757  42.944  10.320  11.610
84349W        W50758   9.361  17.064  11.170
84350W        W50759   9.595  30.423  12.550
84351W        W50760  40.372  44.589   2.943
84352W        W50761   5.829  40.481  12.513
84353W        W50762  41.459  25.520  11.692
84354W        W50763  25.951  11.225   1.379
84355W        W50764  27.775  26.859  12.388
84356W        W50765   9.356   0.212   0.354
84357W        W50766   0.962  43.931   0.117
84358W        W50767  10.717  25.261  13.898
84359W        W50768  31.349   3.458   3.648
84360W        W50769  39.535  19.672   1.251
84361W        W50770  20.286  16.637  13.384
84362W        W50771   0.724   5.144   2.821
84363W        W50772  31.794   8.620   1.969
84364W        W50773  27.194  23.436   3.966
84365W        W50774  18.491  15.838   3.225
84366W        W50775  33.433  30.954   4.431
84367W        W50776   0.556  25.067   3.641
84368W        W50777  14.287  37.499  12.955
84369W        W50778   9.227  42.585  12.571
84370W        W50779  42.317  17.465  11.026
84371W        W50780  31.914  37.963   1.539
84372W        W50781   8.701  28.011   1.324
84373W        W50782  22.003  30.991  14.927
84374W        W50783  21.297   6.424  10.795
84375W        W50784  25.129   7.691  13.869
84376W        W50785  34.679   4.793   2.723
84377W        W50786  11.398   6.837   2.864
84378W        W50787   2.680  39.372   3.763
84379W        W50788  13.556   6.205   0.002
84380W        W50789  15.065  36.926  14.956
84381W        W50790  13.588  26.542   0.199
84382W        W50791  29.079  11.208  14.437
84383W        W50792  32.386   3.270  11.587
84384W        W50793  29.795  12.849   3.707
84385W        W50794  14.795  35.865   4.885
84386W        W50795   4.967  18.560  10.218
84387W        W50796   0.367  27.251   3.282
84388W        W50797   4.398  44.003   1.507
84389W        W50798  36.487  30.419   3.834
84390W        W50799   4.838  27.209  11.575
84391W        W50800  15.094   8.067  10.790
84392W        W50801  43.642  42.882  10.889
84393W        W50802  31.131  19.442   4.136
84394W        W50803  37.704  25.546   2.798
84395W        W50804  40.893  30.892  11.130
84396W        W50805  23.582   0.612  12.062
84397W        W50806   6.755  40.818  11.157
84398W        W50807  39.301  25.117  14.333
84399W        W50808   3.683   2.699   2.227
84400W        W50809  25.362   5.973  13.184
84401W        W50810  10.677   5.326  13.120
84402W        W50811   5.959  40.500   0.033
84403W        W50812   6.530  12.688  13.166
84404W        W50813   6.915   8.392   3.989
84405W        W50814  19.708   6.575  13.510
84406W        W50815  10.377  43.281   0.795
84407W        W50816  35.239   4.747  11.992
84408W        W50817  33.630   8.115   1.324
84409W        W50818   5.463  28.145   4.488
84410W        W50819  38.902  25.364  12.594
84411W        W50820  37.601  27.946   1.599
84412W        W50821   2.047   8.303  11.643
84413W        W50822  20.398  23.165  12.921
84414W        W50823  36.768  40.023   2.690
84415W        W50824   2.712  15.608   4.618
84416W        W50825  34.488   0.824   0.675
84417W        W50826  18.884  41.799   3.870
84418W        W50827  21.615   6.206   0.480
84419W        W50828  27.163   9.363   2.161
84420W        W50829  14.677   8.242  13.835
84421W        W50830  27.722  37.042  12.632
84422W        W50831  26.492  39.373   2.792
84423W        W50832  12.791  16.070   4.560
84424W        W50833  36.496  21.729  12.446
84425W        W50834  14.970  40.420  10.807
84426W        W50835  35.844   1.099   2.210
84427W        W50836  28.195  11.855   2.910
84428W        W50837  22.004  37.500   0.592
84429W        W50838   3.270  41.403  12.657
84430W        W50839  21.015  10.325   4.103
84431W        W50840  35.568  29.496  14.577
84432W        W50841   3.824  21.642   4.684
84433W        W50842   1.009   7.468   1.303
84434W        W50843  39.020   6.754  13.094
84435W        W50844  38.983  32.564  11.661
84436W        W50845  14.744  11.319   1.021
84437W        W50846  22.032  21.610   5.466
84438W        W50847  21.714  44.181  13.204
84439W        W50848  21.236  31.707  14.214
84440W        W50849  10.233  16.298  12.059
84441W        W50850  13.152  24.977   1.237
84442W        W50851   4.668  28.064  11.593
84443W        W50852  38.438  31.865  14.995
84444W        W50853  12.510  27.075   4.882
84445W        W50854  14.606  14.307  12.514
84446W        W50855  24.702  40.858  14.867
84447W        W50856  10.368  25.878   3.263
84448W        W50857   7.622  12.385   2.660
84449W        W50858  25.624   7.659  14.002
84450W        W50859   6.306  43.563  14.183
84451W        W50860   4.822  22.984   4.155
84452W        W50861  41.599  12.221   4.130
84453W        W50862  16.906  18.215  11.442
84454W        W50863  31.031  22.513  12.812
84455W        W50864   6.768  33.468  11.886
84456W        W50865  14.032  42.260  12.124
84457W        W50866  25.036  25.705  12.541
84458W        W50867  17.163  12.768   3.756
84459W        W50868  20.378  42.995   0.717
84460W        W50869  17.585  12.730   2.112
84461W        W50870  43.848  26.263  11.334
84462W        W50871   6.284  23.051  11.232
84463W        W50872  29.612  31.575  12.998
84464W        W50873   3.733  14.588  13.137
84465W        W50874  27.915  35.022  11.439
84466W        W50875  15.145  41.368   1.855
84467W        W50876   2.658  16.999   1.940
84468W        W50877  18.284  31.476  12.560
84469W        W50878  30.955  33.070  14.480
84470W        W50879  43.733  26.619   3.612
84471W        W50880  16.910  19.874   3.294
84472W        W50881  14.893  12.213   4.690
84473W        W50882  24.876   9.251   4.961
84474W        W50883  39.446  15.217  12.829
84475W        W50884  20.269  25.518  14.549
84476W        W50885   8.613   0.073  14.407
84477W        W50886   1.849  23.907  13.517
84478W        W50887   0.227  22.626   1.133
84479W        W50888  29.120   0.919  12.446
84480W        W50889  33.126  35.448  14.422
84481W        W50890  21.813  35.528   4.284
84482W        W50891  19.046  13.885   2.189
84483W        W50892  42.773  38.064   4.586
84484W        W50893  24.691  17.487  14.982
84485W        W50894  21.024   9.454  11.536
84486W        W50895   4.446  24.436   5.522
84487W        W50896  37.814  33.503   0.339
84488W        W50897  22.371  23.206  11.940
84489W        W50898   9.192   1.552  10.179
84490W        W50899   0.063  34.598  14.695
84491W        W50900  42.842  12.855   0.808
84492W        W50901  25.633   1.088   2.146
84493W        W50902  18.598  36.602  13.982
84494W        W50903  39.277  19.457   4.019
84495W        W50904  39.787   9.724  13.904
84496W        W50905  13.838  43.344   4.057
84497W        W50906  26.147  20.385   0.176
84498W        W50907  14.792  33.548   3.298
84499W        W50908   6.777  32.610  13.927
84500W        W50909  30.458  21.853  13.784
84501W        W50910  29.634  19.554  14.177
84502W        W50911  38.053   0.490  10.411
84503W        W50912  22.086  23.112  14.683
84504W        W50913  40.530  41.479   4.537
84505W        W50914  22.597  22.724   4.742
84506W        W50915  44.902  33.650   3.744
84507W        W50916  39.345  36.871  13.099
84508W        W50917   4.488   4.429  12.926
84509W        W50918  20.477   9.114  13.131
84510W        W50919  11.179  20.245   1.754
84511W        W50920  11.857  25.544   0.146
84512W        W50921  31.608  18.086   2.846
84513W        W50922  15.705  19.323  10.882
84514W        W50923  27.606  27.405   4.604
84515W        W50924   6.356  39.985  10.990
84516W        W50925  13.142  23.448  11.414
84517W        W50926  29.043  18.150  13.161
84518W        W50927  42.731  21.502  11.601
84519W        W50928   5.941  19.186   1.850
84520W        W50929   1.519  26.017   3.011
84521W        W50930  18.003  34.678   3.267
84522W        W50931  11.097  20.397   4.040
84523W        W50932  31.936   1.912  12.388
84524W        W50933  41.194  30.010  14.416
84525W        W50934  32.653  44.946   5.035
84526W        W50935  16.136   7.623   3.267
84527W        W50936  24.487  29.347   0.090
84528W        W50937   9.701  32.602  13.018
84529W        W50938  21.240   7.247  14.538
84530W        W50939  11.330  36.895   3.216
84531W        W50940  35.479  28.685  14.252
84532W        W50941  34.484   6.127   1.616
84533W        W50942  42.845   6.679   0.889
84534W        W50943  16.681  16.215  10.731
84535W        W50944  20.833   6.138  12.151
84536W        W50945   9.116   2.298  14.538
84537W        W50946   9.828   7.295  11.911
84538W        W50947  31.158  28.444  11.922
84539W        W50948  21.828   6.956   4.136
84540W        W50949  10.387  30.850   4.119
84541W        W50950  37.399  40.531   3.231
84542W        W50951  13.779  44.490  14.075
84543W        W50952  43.272  27.562   3.760
84544W        W50953   0.887   9.728  11.142
84545W        W50954   2.763  30.967  13.084
84546W        W50955  24.518  26.918   1.726
84547W        W50956  30.671  35.344   2.333
84548W        W50957   9.400  12.811  10.636
84549W        W50958  43.204  42.702  11.105
84550W        W50959   0.269  14.220  11.556
84551W        W50960  14.566  35.201   3.244
84552W        W50961  15.131  36.746   1.147
84553W        W50962  12.740   9.140  14.801
84554W        W50963  10.050  14.325   1.819
84555W        W50964  15.033  43.499  14.109
84556W        W50965  15.156  35.577  11.161
84557W        W50966  11.252  24.487  13.417
84558W        W50967   7.002  35.914  14.084
84559W        W50968  11.752  27.062  11.457
84560W        W50969  29.932  30.640   3.541
84561W        W50970  12.371   6.869  11.994
84562W        W50971  36.545  25.232   1.257
84563W        W50972  40.190  16.349   1.732
84564W        W50973   0.854  41.846  10.507
84565W        W50974  23.160  26.844   1.266
84566W        W50975  10.906  14.247  10.964
84567W        W50976  37.806   5.985   4.241
84568W        W50977  16.524  33.467  14.891
84569W        W50978   1.961  38.273   2.533
84570W        W50979  14.237  20.992   0.319
84571W        W50980  26.016   7.866   4.628
84572W        W50981  43.463   3.740   4.119
84573W        W50982  38.902  44.724   1.959
84574W        W50983   3.722  43.256   0.173
84575W        W50984  19.377  18.817  11.718
84576W        W50985   6.345  22.515  13.513
84577W        W50986  31.710  39.036   1.163
84578W        W50987  42.258  11.671   2.643
84579W        W50988  19.020  12.784   3.633
84580W        W50989  31.732  19.226  13.015
84581W        W50990  35.004  43.580  13.050
84582W        W50991  37.509  21.553  10.430
84583W        W50992  36.989  41.016  13.471
84584W        W50993  30.759  38.845   5.272
84585W        W50994   0.918  11.259   4.530
84586W        W50995  34.049   4.272  14.365
84587W        W50996  33.563  36.671   1.717
84588W        W50997  42.973  29.020  10.712
84589W        W50998  10.816  15.232   3.276
84590W        W50999  18.449  39.061  12.363
84591W        W51000  30.691  44.334   2.824
84592W        W51001  44.953  32.196   4.208
84593W        W51002  11.210  38.363  13.183
84594W        W51003  42.233  15.356  14.447
84595W        W51004   1.937  43.390   2.428
84596W        W51005  31.619   0.635  10.386
84597W        W51006  17.900  22.918   2.238
84598W        W51007  31.508  25.304   1.901
84599W        W51008   2.742  22.503  11.524
84600W        W51009   4.388  39.794  12.471
84601W        W51010  18.814  40.749   1.825
84602W        W51011   2.024   1.266  13.902
84603W        W51012  24.076  44.480   4.772
84604W        W51013   9.176   6.393   1.950
84605W        W51014  17.492  11.193   0.480
84606W        W51015  17.809   0.954  12.546
84607W        W51016  17.748  17.799  14.358
84608W        W51017  31.427  36.290   3.712
84609W        W51018  13.495  38.985   4.429
84610W        W51019  13.756  32.909  13.087
84611W        W51020  16.578  20.261   2.689
84612W        W51021  44.788  21.197  12.509
84613W        W51022  10.084  11.599  13.287
84614W        W51023   9.924  43.744   1.346
84615W        W51024  18.432   8.382   1.930
84616W        W51025  25.811  12.236   0.841
84617W        W51026   0.589  18.337  11.736
84618W        W51027  39.830  12.667  12.090
84619W        W51028  34.068  41.041  12.940
84620W        W51029  28.898  25.161  11.707
84621W        W51030  23.673  10.670  13.971
84622W        W51031   9.801  14.004  11.932
84623W        W51032   1.824  12.451  14.168
84624W        W51033  32.138  22.118  13.967
84625W        W51034  19.735  12.808   2.678
84626W        W51035  29.321   8.178   4.698
84627W        W51036  12.677   1.301  10.602
84628W        W51037  44.530  33.632  10.440
84629W        W51038  31.064  40.524  12.990
84630W        W51039  24.430  20.173  11.017
84631W        W51040  37.485  11.145  14.369
84632W        W51041  21.992  14.207   2.755
84633W        W51042  40.434  44.651   0.741
84634W        W51043  11.423  34.873  11.743
84635W        W51044  20.470  34.335  10.223
84636W        W51045  10.314  26.431   4.541
84637W        W51046  38.125  13.758  10.703
84638W        W51047  43.659   7.918   0.876
84639W        W51048  32.862  11.649  11.570
84640W        W51049  13.246  13.686  11.926
84641W        W51050   8.699  20.226   4.837
84642W        W51051   6.410  20.175   0.342
84643W        W51052  15.704  40.662  12.862
84644W        W51053  23.025   3.897   1.025
84645W        W51054  41.961   3.258  12.044
84646W        W51055  29.939  27.250  13.665
84647W        W51056   7.297  10.553   4.312
84648W        W51057  22.205  32.895   1.340
84649W        W51058  34.366  26.979   1.382
84650W        W51059  32.616   3.422   4.548
84651W        W51060  29.485  33.595  10.148
84652W        W51061  16.525   7.776  14.493
84653W        W51062  33.666  40.573   2.904
84654W        W51063   4.561  37.183  13.489
84655W        W51064  29.980  17.302  12.198
84656W        W51065   2.175  25.561   1.421
84657W        W51066  40.803   2.266  13.998
84658W        W51067  41.878   9.981  11.244
84659W        W51068   4.510  29.364   1.170
84660W        W51069  13.362  33.620   4.153
84661W        W51070  34.924  17.273   4.243
84662W        W51071  39.556   4.005   2.257
84663W        W51072   3.737  34.474   4.112
84664W        W51073  20.158  30.385  12.391
84665W        W51074  34.067  26.894   3.801
84666W        W51075  41.526  11.898   1.874
84667W        W51076  38.017  36.535  13.071
84668W        W51077   5.992  29.316  14.338
84669W        W51078   6.781  42.572   1.239
84670W        W51079   2.172   5.330   4.782
84671W        W51080   9.839  17.216  12.345
84672W        W51081  29.472  23.307  11.188
84673W        W51082  32.936   5.336  11.589
84674W        W51083   5.373  10.115   2.492
84675W        W51084  41.366  28.224  10.986
84676W        W51085  38.313  19.436  13.826
84677W        W51086  26.736  42.005   4.338
84678W        W51087  23.272  15.115  12.468
84679W        W51088   0.504  13.740   0.361
84680W        W51089  16.272  39.769   1.206
84681W        W51090   1.215  11.242   4.074
84682W        W51091   5.183  14.741  13.106
84683W        W51092  26.271  30.083   4.155
84684W        W51093  24.813  26.285   4.959
84685W        W51094  19.607   7.529  12.477
84686W        W51095  10.436   5.929  11.108
84687W        W51096   3.616  24.618   2.525
84688W        W51097  38.104  35.297   3.364
84689W        W51098   2.974   3.208  12.664
84690W        W51099   7.485   5.473  14.575
84691W        W51100   0.446  15.284   2.377
84692W        W51101   9.392  20.068   2.837
84693W        W51102  35.449  12.121  13.479
84694W        W51103  41.276  18.547   2.875
84695W        W51104  13.085  26.236  13.905
84696W        W51105  25.396  30.223  12.437
84697W        W51106  20.012  35.970   0.049
84698W        W51107   6.321  44.695   2.209
84699W        W51108  34.729  32.072   2.330
84700W        W51109  23.096  11.974  13.962
84701W        W51110  34.033   0.844   1.354
84702W        W51111  14.141  18.812   2.959
84703W        W51112   6.513  11.284  12.219
84704W        W51113  34.352   7.904   3.157
84705W        W51114  30.984   2.682  12.187
84706W        W51115   2.830  44.312   3.495
84707W        W51116  40.240  40.485   0.229
84708W        W51117   2.999  39.778   3.705
84709W        W51118  11.274  16.277   2.388
84710W        W51119  24.644  25.398   1.964
84711W        W51120  27.974   1.773   0.018
84712W        W51121  16.932  40.468   4.978
84713W        W51122  25.608  18.274  12.173
84714W        W51123  29.796  31.109   1.190
84715W        W51124  40.595  38.529  11.605
84716W        W51125  27.455  10.311  10.506
84717W        W51126  11.707  30.829  12.008
84718W        W51127  27.110   0.479  10.907
84719W        W51128  22.144  15.205  13.017
84720W        W51129   1.921  40.815  11.059
84721W        W51130  10.494  40.242   4.652
84722W        W51131  40.912   5.060  14.768
84723W        W51132  16.683  16.991   1.719
84724W        W51133  32.098   0.714   5.023
84725W        W51134  38.444  19.573   4.534
84726W        W51135   5.408  13.969   3.336
84727W        W51136  32.207  13.726  12.250
84728W        W51137   4.380  32.827   2.363
84729W        W51138   0.290   0.256   0.010
84730W        W51139   5.378  23.053   0.556
84731W        W51140   3.970   9.348  14.150
84732W        W51141  19.845  35.039   3.541
84733W        W51142   5.382  40.610  11.168
84734W        W51143  32.039  34.863  13.846
84735W        W51144  22.008  15.013   1.795
84736W        W51145  43.833  39.848  11.299
84737W        W51146  19.806  26.939  12.498
84738W        W51147  30.226   8.886   1.539
84739W        W51148  26.495   7.640  11.491
84740W        W51149  21.566   2.958  11.637
84741W        W51150  27.074  41.548   3.195
84742W        W51151  40.573  13.195  13.613
84743W        W51152  36.596  27.364  13.085
84744W        W51153  30.846  22.155  10.660
84745W        W51154  17.339  31.462  13.307
84746W        W51155  31.830  42.816  14.557
84747W        W51156  12.728   4.335  10.545
84748W        W51157  24.777  27.665  13.321
84749W        W51158  34.908   2.423   0.876
84750W        W51159  18.835  19.658  14.515
84751W        W51160  23.540   3.141  13.502
84752W        W51161   1.331  16.776   4.380
84753W        W51162  25.149  38.893  13.535
84754W        W51163  12.251   9.135  13.935
84755W        W51164   2.242  17.738   0.767
84756W        W51165   0.474  32.457   1.446
84757W        W51166   6.407  20.171   1.904
84758W        W51167  27.090  40.053  12.017
84759W        W51168  15.270  13.636  11.565
84760W        W51169  31.174  39.416  13.020
84761W        W51170  24.102  18.351  12.863
84762W        W51171   9.195  20.124   0.977
84763W        W51172  10.746  25.678  11.401
84764W        W51173  44.806  25.574   1.902
84765W        W51174  29.469  26.035   4.577
84766W        W51175   5.547  15.067  13.294
84767W        W51176   9.618  24.857  14.767
84768W        W51177  32.759  26.029   1.919
84769W        W51178  37.452  25.439   4.457
84770W        W51179  25.232  22.878   5.000
84771W        W51180   2.446  18.236   3.616
84772W        W51181  30.316  31.608  12.811
84773W        W51182   6.454  35.535   1.944
84774W        W51183  28.580   6.985   1.743
84775W        W51184  28.259  22.289  13.475
84776W        W51185   7.153  10.208   2.344
84777W        W51186  28.371  17.938  11.058
84778W        W51187   1.490   7.283   1.773
84779W        W51188  43.409   6.182  11.994
84780W        W51189   1.379  10.210   3.366
84781W        W51190  37.359  43.853   4.531
84782W        W51191   9.606   0.874  13.054
84783W        W51192  40.976  31.316  14.859
84784W        W51193  37.382   1.556  14.849
84785W        W51194  24.463  32.480   2.659
84786W        W51195  29.709  37.887   1.837
84787W        W51196  18.224  18.597  10.901
84788W        W51197  38.029   0.359   4.617
84789W        W51198  12.730  37.452   2.187
84790W        W51199  42.291   5.234  14.976
84791W        W51200  44.764   3.736  11.167
84792W        W51201  21.813  24.044  11.634
84793W        W51202  28.990  23.281   3.726
84794W        W51203  16.850   8.667  13.336
84795W        W51204  33.485  13.602  12.119
84796W        W51205   8.123   9.853  12.800
84797W        W51206  16.751  29.725   0.312
84798W        W51207  11.382   3.677  11.993
84799W        W51208  43.033  12.648  11.022
84800W        W51209   2.577  18.785  11.340
84801W        W51210  18.097  13.184  13.572
84802W        W51211  19.019  30.363  11.604
84803W        W51212   8.431  12.578   2.271
84804W        W51213   2.237   7.943  14.865
84805W        W51214  43.785  36.056   0.764
84806W        W51215   6.757  31.404   2.368
84807W        W51216   2.431   3.318   3.321
84808W        W51217  38.393  29.998   3.618
84809W        W51218  33.454  38.916  12.924
84810W        W51219  15.434   9.321   4.558
84811W        W51220  42.470  33.842  10.469
84812W        W51221  39.726  18.254  11.452
84813W        W51222  27.159  36.811   1.103
84814W        W51223  32.937  44.168  12.936
84815W        W51224  33.408   0.244   4.261
84816W        W51225  22.192  10.211  14.658
84817W        W51226  38.407   1.771   3.668
84818W        W51227  15.477  22.718  11.541
84819W        W51228  35.334  16.922   1.376
84820W        W51229   3.194   9.455   0.346
84821W        W51230   3.781  27.220  14.473
84822W        W51231  43.567   4.250   3.163
84823W        W51232  28.703   5.755   4.380
84824W        W51233   3.100   9.371   2.907
84825W        W51234  42.550  23.196   4.847
84826W        W51235   6.291  24.927  11.351
84827W        W51236   4.821  34.747   2.748
84828W        W51237  21.236  29.990   4.348
84829W        W51238  41.739   8.348  12.805
84830W        W51239  18.279  24.197  11.918
84831W        W51240   3.656  27.567  10.904
84832W        W51241  20.545  21.878  14.191
84833W        W51242  16.170  25.774   2.781
84834W        W51243   4.227  20.185   0.022
84835W        W51244  24.996  10.660  11.391
84836W        W51245  14.047   4.386  14.642
84837W        W51246  17.089  16.032  11.594
84838W        W51247   5.168  10.297   1.006
84839W        W51248  20.053   4.413  13.887
84840W        W51249  10.166  37.507  12.325
84841W        W51250  29.007  37.361  14.592
84842W        W51251  42.505   7.388  12.547
84843W        W51252  17.588  27.501  13.791
84844W        W51253   6.860   9.556   3.580
84845W        W51254   2.616  13.093  10.632
84846W        W51255  16.063  16.254   0.324
84847W        W51256  11.402  31.551   0.744
84848W        W51257   3.275  26.874   9.989
84849W        W51258  10.398  21.552   4.768
84850W        W51259  22.489  37.100  10.995
84851W        W51260  14.315   3.351  11.694
84852W        W51261   2.241  14.785  12.227
84853W        W51262   6.760   7.277   3.707
84854W        W51263  19.904  40.312   5.060
84855W        W51264  30.369  21.398   4.586
84856W        W51265  20.293  16.069  14.513
84857W        W51266   9.410  37.895  14.330
84858W        W51267  20.898   1.742  14.247
84859W        W51268   4.697  10.627  11.756
84860W        W51269  34.961   3.392  11.763
84861W        W51270  13.284  26.557  11.165
84862W        W51271   2.285  40.407  14.362
84863W        W51272  31.925  40.494   2.363
84864W        W51273  22.522  21.652   0.070
84865W        W51274  25.471  15.289   3.638
84866W        W51275  39.371  13.764   4.267
84867W        W51276   8.077  38.334  14.944
84868W        W51277  31.588   1.343  13.602
84869W        W51278  17.779  36.306   4.635
84870W        W51279   2.804  24.915   1.391
84871W        W51280  18.527  39.558   4.153
84872W        W51281  41.558  38.620  13.891
84873W        W51282   0.926  40.785   2.221
84874W        W51283  20.800   1.403  12.513
84875W        W51284  10.573   7.660   4.396
84876W        W51285  41.384  30.967   0.990
84877W        W51286  12.093  23.681   2.746
84878W        W51287  35.440  27.978   1.310
84879W        W51288   4.430  16.449  12.647
84880W        W51289  13.273  40.716   3.300
84881W        W51290  42.477  39.562  13.528
84882W        W51291  17.730  30.687  12.971
84883W        W51292   2.499  19.455   5.001
84884W        W51293  28.436  11.428   9.777
84885W        W51294  33.383  11.328   1.879
84886W        W51295  18.607  39.243  11.000
84887W        W51296   2.150  31.095  11.448
84888W        W51297  42.468  27.554   0.561
84889W        W51298  39.947   4.656  13.990
84890W        W51299  12.236   0.248  12.510
84891W        W51300  20.075  29.444  12.514
84892W        W51301  19.548  18.806   4.655
84893W        W51302  28.452  21.014   1.298
84894W        W51303  42.728   8.706   1.204
84895W        W51304  18.910  18.222   3.692
84896W        W51305   0.233  40.554   0.800
84897W        W51306  10.547  17.531  13.464
84898W        W51307  31.977  43.303   4.360
84899W        W51308  21.947  27.034  14.493
84900W        W51309   9.809  10.905  14.263
84901W        W51310  28.053  43.508  12.752
84902W        W51311  17.347  21.225  14.777
84903W        W51312   5.694  27.909   0.330
84904W        W51313   5.779  19.338  11.471
84905W        W51314  33.478   4.053   5.669
84906W        W51315  13.146   5.728  13.386
84907W        W51316  39.309  26.057  11.601
84908W        W51317  11.278   7.117  11.326
84909W        W51318  39.815  29.118   2.712
84910W        W51319   4.358  33.064  13.390
84911W        W51320  22.644  35.866  14.048
84912W        W51321  29.628  11.612  11.308
84913W        W51322  38.633  31.562  11.636
84914W        W51323  41.020  26.613  13.272
84915W        W51324   9.385   5.106  13.516
84916W        W51325   7.516  11.558   4.161
84917W        W51326  35.059   5.632   2.258
84918W        W51327  34.100  14.239   3.780
84919W        W51328   2.985  40.777   3.794
84920W        W51329  15.124  39.602   5.437
84921W        W51330   0.514  21.600   1.281
84922W        W51331  17.230   9.237   4.540
84923W        W51332  29.613  37.907   4.508
84924W        W51333  11.661  41.829  12.372
84925W        W51334  34.825   1.192   2.848
84926W        W51335  21.173  31.662   2.239
84927W        W51336  15.603  43.455   0.431
84928W        W51337  42.266  24.680  13.928
84929W        W51338   2.263   7.737  13.822
84930W        W51339  42.869  20.519  11.095
84931W        W51340  37.993  18.252   1.095
84932W        W51341  11.879  39.950   1.447
84933W        W51342  24.028  36.786   0.361
84934W        W51343  44.189  18.233  12.846
84935W        W51344   8.310  42.848  12.019
84936W        W51345   3.792  24.782   0.739
84937W        W51346   1.834  20.692   4.573
84938W        W51347  15.880   2.700  11.705
84939W        W51348  25.974  21.540   2.771
84940W        W51349   8.065  27.561  11.749
84941W        W51350  37.553   2.897  12.357
84942W        W51351  44.769  29.903  11.735
84943W        W51352  31.940  25.440   3.667
84944W        W51353  24.814  29.827   0.169
84945W        W51354  21.614  14.973  14.243
84946W        W51355  35.762  27.254   4.090
84947W        W51356  11.911  23.307  14.885
84948W        W51357   6.872  10.677  11.671
84949W        W51358   0.485  28.519   3.747
84950W        W51359  19.494   3.580   2.629
84951W        W51360   1.127   7.720  11.051
84952W        W51361  41.659  30.689  12.053
84953W        W51362  44.918  27.722  13.522
84954W        W51363   0.719  44.862   1.694
84955W        W51364  19.471  39.849  13.792
84956W        W51365   3.907  35.149   2.223
84957W        W51366  34.166  12.492   2.372
84958W        W51367  43.412   1.904   2.406
84959W        W51368  41.495  21.447  12.466
84960W        W51369  26.958   7.297  12.913
84961W        W51370  36.411   2.232   3.623
84962W        W51371  22.247  38.864  12.063
84963W        W51372  25.714   5.620   1.303
84964W        W51373  37.313  34.515   2.934
84965W        W51374  17.475  17.185   1.709
84966W        W51375  27.879  29.135  12.577
84967W        W51376   7.443  38.256   1.918
84968W        W51377  36.898   5.426  11.618
84969W        W51378  24.356  32.128  12.079
84970W        W51379  36.571  35.068   2.699
84971W        W51380  44.376  18.672  11.202
84972W        W51381  44.936  20.790  13.076
84973W        W51382  11.901  30.303  10.691
84974W        W51383   4.982  13.518  12.079
84975W        W51384  32.461  31.075  13.426
84976W        W51385  17.816   9.147   1.238
84977W        W51386  38.352  38.957  14.922
84978W        W51387  44.818   1.739   1.185
84979W        W51388  30.084  19.166  10.663
84980W        W51389  39.528  28.613   1.810
84981W        W51390   8.346  21.918   2.552
84982W        W51391  37.002  14.894  14.369
84983W        W51392  13.241  18.733   3.992
84984W        W51393  40.559   2.469  14.442
84985W        W51394  12.582  43.892  12.145
84986W        W51395  10.744  39.475   3.159
84987W        W51396   9.462  35.346   0.943
84988W        W51397  26.526  29.135  14.372
84989W        W51398  40.315  44.255   1.693
84990W        W51399  19.682  18.767  10.944
84991W        W51400  34.843  21.812  13.415
84992W        W51401  28.975   0.456   4.789
84993W        W51402   6.957  27.423  12.505
84994W        W51403  13.561  20.736   1.682
84995W        W51404  42.635   6.191   1.838
84996W        W51405  12.831  24.275   2.458
84997W        W51406  31.570  14.735   2.196
84998W        W51407  24.110   2.830  10.404
84999W        W51408  17.485  26.133  14.478
85000W        W51409   0.299  18.493  14.884
85001W        W51410  39.457   5.565   1.727
85002W        W51411  30.679  26.486   3.237
85003W        W51412   2.493  11.643  10.626
85004W        W51413  36.013  27.590  10.969
85005W        W51414  13.580  32.593  11.777
85006W        W51415  10.253  33.868  10.302
85007W        W51416  39.057  31.987   2.306
85008W        W51417  28.694  17.686   0.533
85009W        W51418   2.490  17.734  13.635
85010W        W51419  14.126  25.096   1.249
85011W        W51420  39.992   3.750   2.396
85012W        W51421   3.308  34.415   0.041
85013W        W51422  38.444   7.939  10.808
85014W        W51423  34.377  24.926   2.095
85015W        W51424  28.632  31.801  12.347
85016W        W51425   5.770  29.760  10.583
85017W        W51426  27.490  33.890  14.777
85018W        W51427  33.011  20.625  13.166
85019W        W51428  10.790  20.671   1.241
85020W        W51429  16.328  35.403  12.140
85021W        W51430  34.291   5.207  13.416
85022W        W51431  38.038  34.868   0.437
85023W        W51432  36.999  41.262  12.903
85024W        W51433  17.792  27.384  13.006
85025W        W51434  23.537  44.029  14.356
85026W        W51435  26.521   5.176   2.687
85027W        W51436  40.511  43.056  12.087
85028W        W51437  32.455  37.674   4.125
85029W        W51438  34.926  20.529  13.841
85030W        W51439  38.305   6.395   3.146
85031W        W51440  31.343  31.609  12.692
85032W        W51441  32.445  18.861   2.098
85033W        W51442  17.192  14.284   0.709
85034W        W51443   9.530  32.079  13.586
85035W        W51444   7.972  18.716  13.952
85036W        W51445  18.635  16.043   1.018
85037W        W51446   0.242  23.034  14.836
85038W        W51447   7.135  13.872  11.541
85039W        W51448  21.672  25.526  13.395
85040W        W51449   4.568  22.019   4.980
85041W        W51450   5.300   8.669   1.192
85042W        W51451  12.112   2.877   3.580
85043W        W51452  33.860  32.940  14.477
85044W        W51453  35.459   9.672   3.010
85045W        W51454  26.364  17.982   3.331
85046W        W51455  21.976  35.923  12.937
85047W        W51456  27.683   0.941   0.811
85048W        W51457  12.541  30.500   2.188
85049W        W51458  11.286  31.931  12.968
85050W        W51459   2.054  30.420  14.386
85051W        W51460  11.269   5.817   4.994
85052W        W51461   0.867  28.248   5.129
85053W        W51462  23.548   2.888   1.801
85054W        W51463  29.969  39.514   0.961
85055W        W51464  39.828  32.709  11.587
85056W        W51465  14.984  40.431   2.489
85057W        W51466  33.444   7.359   2.766
85058W        W51467   6.137   1.728   4.118
85059W        W51468  22.439  32.862   3.473
85060W        W51469  28.376   8.599  13.435
85061W        W51470  23.162   7.418  12.971
85062W        W51471  41.377  25.228   0.015
85063W        W51472   8.756  18.584   4.533
85064W        W51473  37.927  34.184  14.758
85065W        W51474  27.598  29.939   3.170
85066W        W51475  15.935  14.245   4.557
85067W        W51476   2.677  15.145   1.636
85068W        W51477  35.507  17.567  12.239
85069W        W51478  19.954  30.586  11.491
85070W        W51479  16.820   4.268   1.888
85071W        W51480  26.962  35.289  14.752
85072W        W51481  43.416  20.651   3.028
85073W        W51482  43.225  24.650   3.640
85074W        W51483  43.555  40.460  14.223
85075W        W51484  34.961   0.932   0.872
85076W        W51485  12.671  27.123  13.526
85077W        W51486  27.579  21.333  12.557
85078W        W51487  26.073   6.797   0.199
85079W        W51488  32.261  42.541   3.743
85080W        W51489  29.134  22.552  10.659
85081W        W51490  12.578  23.069  13.994
85082W        W51491  13.054  43.049   3.644
85083W        W51492  39.872  27.791  14.056
85084W        W51493   4.382  39.494   3.765
85085W        W51494  28.375   8.170  14.404
85086W        W51495  13.941  31.426  13.557
85087W        W51496  28.620  12.182  10.677
85088W        W51497  42.697   7.543   2.831
85089W        W51498  40.723  32.187  11.525
85090W        W51499  24.507  38.455   2.954
85091W        W51500  22.167   9.917   3.250
85092W        W51501   5.638  26.677  13.921
85093W        W51502  18.900  33.409  13.876
85094W        W51503   8.575  35.962   1.270
85095W        W51504  11.788  39.215   1.568
85096W        W51505  17.601  14.101   1.305
85097W        W51506  22.421  40.506   4.891
85098W        W51507   9.392  33.465   2.102
85099W        W51508   4.787  37.553   5.225
85100W        W51509  27.505  24.140  14.523
85101W        W51510  18.789   5.845  13.021
85102W        W51511  32.163  15.871   5.039
85103W        W51512   2.410  39.776  13.222
85104W        W51513  15.806  22.241   1.486
85105W        W51514  26.139  34.695   1.312
85106W        W51515  43.985  36.965  10.744
85107W        W51516  38.915   2.954   1.872
85108W        W51517  31.813   7.687  13.800
85109W        W51518  11.287   2.317  13.879
85110W        W51519  36.924  15.831   1.840
85111W        W51520  14.290  25.694   4.611
85112W        W51521   4.625  11.608  12.795
85113W        W51522  15.214  20.479  11.712
85114W        W51523  32.977   5.725  12.495
85115W        W51524  21.313  35.147  11.672
85116W        W51525  36.119  34.398   0.840
85117W        W51526  33.507  25.105   1.299
85118W        W51527  26.699  42.334   3.702
85119W        W51528   2.706  10.301  11.538
85120W        W51529  27.589   3.685  11.306
85121W        W51530  24.101  37.647  11.506
85122W        W51531  39.002  18.967   1.451
85123W        W51532  18.787  30.152   1.724
85124W        W51533  29.493   0.991   0.444
85125W        W51534  26.568  31.753   2.349
85126W        W51535  22.019  25.013  14.843
85127W        W51536   0.306  37.030  13.005
85128W        W51537  18.061  31.057  11.916
85129W        W51538   8.389  38.152   0.336
85130W        W51539  41.619  44.924   4.237
85131W        W51540   2.278  30.682  14.814
85132W        W51541   9.873  39.759   4.535
85133W        W51542  37.931  21.122   4.726
85134W        W51543  36.578  13.818   0.776
85135W        W51544  11.474  21.976  12.467
85136W        W51545  17.261  21.293  12.618
85137W        W51546  36.405  34.397  10.612
85138W        W51547  19.239  27.423   0.883
85139W        W51548   0.500  31.993   1.218
85140W        W51549  43.026  39.735  11.158
85141W        W51550  10.483   9.240  11.135
85142W        W51551  38.079  12.693  12.595
85143W        W51552   9.357  27.467  10.445
85144W        W51553   7.782  39.060  14.441
85145W        W51554   5.958  43.325  12.989
85146W        W51555   5.680  43.122  10.774
85147W        W51556  19.692   8.764   1.207
85148W        W51557  39.254  16.198  11.091
85149W        W51558  16.603   8.839   1.732
85150W        W51559  15.867  34.359   5.003
85151W        W51560  18.524  10.394   4.736
85152W        W51561  22.544  25.957  12.814
85153W        W51562  23.725  17.645  12.055
85154W        W51563  33.406  25.112  14.484
85155W        W51564  37.148  39.985   4.506
85156W        W51565   0.888  17.205  12.341
85157W        W51566  16.698   9.886  13.810
85158W        W51567  37.641  44.106   4.113
85159W        W51568  21.442  34.347  11.183
85160W        W51569  21.779  27.420  13.525
85161W        W51570  20.868  37.958   0.841
85162W        W51571   8.104  42.992   2.319
85163W        W51572  33.647  24.987   3.955
85164W        W51573  30.029  30.341   0.480
85165W        W51574  34.659  14.676  12.157
85166W        W51575  24.105   7.655  10.973
85167W        W51576   0.386  31.347   0.884
85168W        W51577  44.296  19.145   2.397
85169W        W51578  13.168   5.700  12.852
85170W        W51579  15.152   0.519  14.125
85171W        W51580   3.929  35.669  13.888
85172W        W51581   2.950  14.169   0.695
85173W        W51582  32.159  20.465  12.511
85174W        W51583  29.235   3.351   2.897
85175W        W51584  15.516  14.547   3.586
85176W        W51585  37.896  12.905   0.187
85177W        W51586  21.834  44.871   4.504
85178W        W51587  14.183  38.115   2.719
85179W        W51588  19.025  12.536  12.699
85180W        W51589  37.073  44.348   1.689
85181W        W51590  19.668   7.028  10.443
85182W        W51591  41.859  20.796   0.408
85183W        W51592   4.383   5.875   2.663
85184W        W51593   9.184  34.360   2.655
85185W        W51594  43.401  23.581  10.755
85186W        W51595  41.870   4.141   2.340
85187W        W51596  24.134  30.203   2.332
85188W        W51597  29.352  30.614   5.005
85189W        W51598  17.228  39.758  11.047
85190W        W51599   9.876   2.877   3.150
85191W        W51600  25.552  29.202   2.162
85192W        W51601   3.429   5.240   2.412
85193W        W51602   6.432  33.751   4.097
85194W        W51603  13.973  25.510   3.929
85195W        W51604  44.039  42.489   0.275
85196W        W51605  31.731  23.995   2.312
85197W        W51606  36.371   3.655  14.931
85198W        W51607  10.779  21.144  10.541
85199W        W51608  37.528   2.060  11.078
85200W        W51609  40.002  29.352  12.519
85201W        W51610  17.268   7.779  14.029
85202W        W51611  26.982   5.675   1.813
85203W        W51612  18.765  13.304   1.353
85204W        W51613  14.388   3.004   1.281
85205W        W51614   3.916   3.224  12.542
85206W        W51615  37.881  25.499  12.513
85207W        W51616  16.021  10.183  12.843
85208W        W51617  14.168  31.158   3.641
85209W        W51618   5.350  42.005  11.128
85210W        W51619  30.582   9.868   4.464
85211W        W51620  20.935  30.568  11.719
85212W        W51621   2.521  26.179   2.872
85213W        W51622  27.643  32.508   1.246
85214W        W51623  25.140   6.660   0.745
85215W        W51624  23.691  43.772   2.673
85216W        W51625  16.143  43.481  10.659
85217W        W51626   6.958   4.401  11.954
85218W        W51627  12.559  27.982  14.930
85219W        W51628  16.893   9.663  13.345
85220W        W51629  31.698  14.579  13.755
85221W        W51630   9.327  11.357   4.689
85222W        W51631  29.414  22.102   1.155
85223W        W51632  23.197  31.264  12.552
85224W        W51633  34.950  16.583   0.396
85225W        W51634  25.543  42.030   4.101
85226W        W51635  16.645   1.045   2.481
85227W        W51636  12.599  29.266   5.018
85228W        W51637  39.843  26.434   1.275
85229W        W51638  29.569   3.320  11.688
85230W        W51639  35.701  28.689  13.342
85231W        W51640  23.999   0.733  14.046
85232W        W51641  33.113  17.286   3.230
85233W        W51642  16.201  23.054   1.199
85234W        W51643  41.362   0.457  13.972
85235W        W51644  23.462  32.972  10.678
85236W        W51645  19.431  38.512  13.919
85237W        W51646  34.952  42.087  14.940
85238W        W51647  40.305  20.165   2.329
85239W        W51648   3.165  39.571   4.584
85240W        W51649   4.300  31.842  13.881
85241W        W51650  41.873  37.791  13.958
85242W        W51651  44.694  17.785   2.367
85243W        W51652   0.334  24.739   1.286
85244W        W51653  27.136  35.593  13.405
85245W        W51654  23.906   7.004  10.938
85246W        W51655  42.421  11.388   0.305
85247W        W51656   3.249  28.513  13.566
85248W        W51657   0.352  11.421  11.666
85249W        W51658   3.966  17.621   0.966
85250W        W51659   8.527  44.815  13.114
85251W        W51660  19.804  44.093  13.464
85252W        W51661  11.272  13.359  13.710
85253W        W51662  14.093  18.818  10.137
85254W        W51663   7.768  25.232  14.290
85255W        W51664  34.675  18.046   3.710
85256W        W51665  25.512  35.871  14.770
85257W        W51666  34.859  13.769   4.125
85258W        W51667  18.254   2.016   2.716
85259W        W51668  37.916  26.618   4.755
85260W        W51669  28.567  43.229  14.837
85261W        W51670   4.723  11.284   1.877
85262W        W51671  25.074  13.305  12.408
85263W        W51672  36.655  35.954   0.874
85264W        W51673  16.911  28.296   4.698
85265W        W51674  21.236   0.806  12.646
85266W        W51675  38.551   9.902   4.069
85267W        W51676   4.266  18.350  14.485
85268W        W51677  43.009   7.755   4.062
85269W        W51678   4.909  33.336  14.400
85270W        W51679  17.243   4.676  12.116
85271W        W51680  27.634  23.534  10.436
85272W        W51681  11.394  27.663   2.596
85273W        W51682  30.839   6.470  11.648
85274W        W51683  38.382  24.760  13.616
85275W        W51684  16.532   7.945   0.798
85276W        W51685  29.663  29.011  10.509
85277W        W51686  14.125   4.469   3.211
85278W        W51687   2.326   5.066  12.929
85279W        W51688  38.570  18.706   3.993
85280W        W51689   5.338   3.282  14.248
85281W        W51690  38.549  14.071  12.049
85282W        W51691  33.875  31.835  12.484
85283W        W51692  35.597  34.928   3.236
85284W        W51693  43.565  24.015  14.894
85285W        W51694  11.555  40.954   0.769
85286W        W51695   0.150  12.335  11.566
85287W        W51696  38.157  31.408  13.383
85288W        W51697  10.099  32.417   0.592
85289W        W51698  11.769  11.870   1.885
85290W        W51699  17.367  34.591   0.436
85291W        W51700  31.414  23.590   1.449
85292W        W51701  44.043   8.151   1.440
85293W        W51702  33.305   8.703   4.294
85294W        W51703   4.167   6.184  12.602
85295W        W51704  26.397  32.919   1.351
85296W        W51705  28.166  29.577   1.015
85297W        W51706   9.250  24.692  14.402
85298W        W51707  40.403  20.425   4.488
85299W        W51708  12.149   7.866   0.141
85300W        W51709  33.903  12.588   4.590
85301W        W51710   4.873   2.890  10.516
85302W        W51711  22.113  21.293   0.839
85303W        W51712  26.525   8.806  13.755
85304W        W51713   2.439  10.189   3.416
85305W        W51714  42.020  31.140   4.691
85306W        W51715  40.566   7.552   4.007
85307W        W51716   1.193  22.829  14.061
85308W        W51717  30.391  33.974  11.174
85309W        W51718   9.854  36.464   1.168
85310W        W51719  13.640  19.301   0.855
85311W        W51720  17.993   4.398  14.849
85312W        W51721  21.152  44.867  12.937
85313W        W51722  38.334  18.134   3.648
85314W        W51723  16.472  41.458  10.044
85315W        W51724  15.142  36.437   2.280
85316W        W51725   2.876  18.336   4.812
85317W        W51726  12.063   1.965  13.027
85318W        W51727  30.217   4.965  14.995
85319W        W51728   8.864  21.343  14.361
85320W        W51729  37.688  27.941  10.412
85321W        W51730  31.653  14.901  12.899
85322W        W51731  30.627  24.684  13.639
85323W        W51732  28.369  30.721  12.648
85324W        W51733  38.581   3.993   4.473
85325W        W51734  25.240  20.120  10.712
85326W        W51735   0.161   7.759   1.673
85327W        W51736  21.127   1.619   0.053
85328W        W51737  35.404  32.294   0.415
85329W        W51738  24.447  11.649   1.793
85330W        W51739   7.564  15.707  14.898
85331W        W51740  35.856   2.754   2.401
85332W        W51741  27.106  34.599  11.622
85333W        W51742  44.753   7.946  14.438
85334W        W51743  12.226  31.270   3.728
85335W        W51744  23.058  25.935   4.183
85336W        W51745   2.767   1.959   1.948
85337W        W51746  11.813  29.652   0.899
85338W        W51747  11.686  22.587   3.700
85339W        W51748  13.139   8.710   3.172
85340W        W51749  35.657  10.441  12.418
85341W        W51750  38.118  12.769  13.477
85342W        W51751  18.529  30.650   3.477
85343W        W51752  26.698  20.298   0.991
85344W        W51753  31.574  19.106   0.868
85345W        W51754  15.677   1.117   2.782
85346W        W51755  18.558  15.719   0.094
85347W        W51756  43.265   7.940  10.748
85348W        W51757   7.113  30.125  14.631
85349W        W51758  12.247   5.555   3.614
85350W        W51759   2.406  16.777  12.602
85351W        W51760  35.056  23.669  10.692
85352W        W51761   6.283  15.871  13.972
85353W        W51762  27.555  28.214   0.799
85354W        W51763   9.608  11.275   0.424
85355W        W51764  14.226  19.793  12.996
85356W        W51765  41.895  24.668   4.305
85357W        W51766  35.588  15.745  10.390
85358W        W51767   9.136   0.880  13.328
85359W        W51768   1.098  26.502   1.378
85360W        W51769  21.959  13.282   1.387
85361W        W51770  18.509  12.301   3.235
85362W        W51771  40.898  32.337   2.149
85363W        W51772  10.109  36.434  13.527
85364W        W51773  35.334   8.876  14.789
85365W        W51774   7.723  13.434  13.844
85366W        W51775  27.943   9.281  14.831
85367W        W51776  22.897  43.576   0.436
85368W        W51777  11.954  11.472   3.636
85369W        W51778  43.937   9.859   3.262
85370W        W51779  27.399  36.899  14.381
85371W        W51780   4.793  20.085  10.880
85372W        W51781  33.078   2.971   1.138
85373W        W51782  24.300   0.679  14.483
85374W        W51783  23.276  41.744   1.464
85375W        W51784  24.229  38.809  13.498
85376W        W51785  37.924  35.934  10.813
85377W        W51786  40.131  36.560  12.843
85378W        W51787  12.357  16.759  10.721
85379W        W51788   3.934   2.784   0.882
85380W        W51789  43.528  32.052  10.280
85381W        W51790  23.581  42.508   4.215
85382W        W51791   7.723  38.042   3.108
85383W        W51792  34.833   1.847   3.371
85384W        W51793  11.411  21.537  14.412
85385W        W51794  35.789  36.945   0.932
85386W        W51795  41.115  39.925   4.532
85387W        W51796  23.210   1.466   4.252
85388W        W51797  17.224  24.654   3.399
85389W        W51798  15.050  24.684  13.649
85390W        W51799  35.342  25.050   1.772
85391W        W51800  20.613   6.703   0.193
85392W        W51801  28.933  13.010   3.130
85393W        W51802  13.385   4.870   1.759
85394W        W51803  13.180  17.868   1.022
85395W        W51804  33.143   6.883   2.785
85396W        W51805  14.594   2.522   4.463
85397W        W51806   8.076  16.315   3.853
85398W        W51807  10.312  13.207  13.620
85399W        W51808  22.537  27.093  11.108
85400W        W51809  33.919  26.101  14.338
85401W        W51810  19.981  22.781  12.875
85402W        W51811  11.721  44.074   3.199
85403W        W51812  30.426   1.786   0.985
85404W        W51813   0.847  43.098  13.037
85405W        W51814  20.477  24.093  13.937
85406W        W51815  19.477  35.398   3.832
85407W        W51816  30.809  26.661  13.786
85408W        W51817  23.577   3.494  10.680
85409W        W51818   6.559   3.526   1.507
85410W        W51819  42.901  12.090  14.516
85411W        W51820  33.431  22.329   0.092
85412W        W51821   1.382  43.004  10.667
85413W        W51822  28.998  15.252   4.348
85414W        W51823   4.173  19.712   1.753
85415W        W51824  14.605   1.323  11.903
85416W        W51825   8.714   0.218   3.386
85417W        W51826  21.035   0.332  12.685
85418W        W51827  18.647   5.742  11.686
85419W        W51828  37.820  20.100   1.829
85420W        W51829  44.889  36.089   0.479
85421W        W51830   2.522  36.525  11.186
85422W        W51831  20.062  41.351  13.415
85423W        W51832  27.432  40.523   3.558
85424W        W51833   4.727  23.010  12.107
85425W        W51834  23.265   5.475   4.163
85426W        W51835  35.572  16.499   4.116
85427W        W51836  40.382  29.103   4.826
85428W        W51837   1.426  37.576  13.503
85429W        W51838  41.987  21.653   0.551
85430W        W51839  15.615  21.146  14.171
85431W        W51840  18.875  25.457  14.218
85432W        W51841  35.222  15.240   3.308
85433W        W51842  28.517   7.787   2.705
85434W        W51843   5.747   6.736  12.502
85435W        W51844  26.719   6.850   9.931
85436W        W51845   9.176  30.835  12.056
85437W        W51846   0.728  33.097   2.822
85438W        W51847  10.620   8.656  11.950
85439W        W51848  31.693   3.279   0.286
85440W        W51849   8.318   0.151  10.522
85441W        W51850  36.299  20.804  13.888
85442W        W51851  25.898   7.982   3.326
85443W        W51852  26.657   5.847   3.170
85444W        W51853  26.181  43.111   2.790
85445W        W51854  10.449  43.220  14.907
85446W        W51855  44.281  10.415   2.071
85447W        W51856  41.065   7.414   0.963
85448W        W51857  21.917  37.550   2.090
85449W        W51858  18.824   8.731  10.677
85450W        W51859  22.890   1.672  12.085
85451W        W51860  36.180  30.547  14.381
85452W        W51861  37.411  41.423   4.095
85453W        W51862  36.533   5.840   1.950
85454W        W51863  40.727  32.157   2.614
85455W        W51864  32.370  32.719   0.417
85456W        W51865  17.377  20.814   3.545
85457W        W51866  25.089   7.472   3.004
85458W        W51867  39.964  29.271  13.046
85459W        W51868   0.535  41.994  11.247
85460W        W51869  34.369  40.594  13.870
85461W        W51870  43.102  41.912   0.429
85462W        W51871  38.293  35.341  11.145
85463W        W51872  40.426  39.165   4.761
85464W        W51873  41.090  12.785  12.058
85465W        W51874  24.999   4.894   3.602
85466W        W51875  16.773  23.053  12.047
85467W        W51876  29.470  30.404   3.643
85468W        W51877   2.382  38.812   4.610
85469W        W51878   1.720  17.006   0.925
85470W        W51879  21.276  19.598  11.668
85471W        W51880  16.207  12.199  10.759
85472W        W51881   5.727   0.805  12.619
85473W        W51882  36.122  27.156  13.052
85474W        W51883  35.374  18.283  14.861
85475W        W51884   8.102  25.568  14.929
85476W        W51885  22.035  15.801   2.434
85477W        W51886  18.080  14.295  12.457
85478W        W51887  40.234   1.406   3.343
85479W        W51888   7.213  35.133  10.011
85480W        W51889  28.695  31.606   3.798
85481W        W51890  37.647  36.291  14.291
85482W        W51891  33.698   7.359  10.601
85483W        W51892  16.513  18.246   3.628
85484W        W51893  43.758  19.944   3.169
85485W        W51894  33.155  41.369  12.950
85486W        W51895   5.209  38.013   0.645
85487W        W51896  31.367  44.108  12.916
85488W        W51897  22.662   3.966  11.189
85489W        W51898  41.718  10.740   0.636
85490W        W51899  42.802  23.523   2.977
85491W        W51900  37.396  18.763   1.449
85492W        W51901  24.880  26.863  10.656
85493W        W51902   4.665  43.321   2.815
85494W        W51903  17.079  15.288  12.599
85495W        W51904  43.669  20.267  13.084
85496W        W51905   3.434  38.610   0.205
85497W        W51906  16.316  30.828  12.024
85498W        W51907   8.359  26.241   0.762
85499W        W51908  42.320  34.584  14.914
85500W        W51909  29.481  27.252   1.343
85501W        W51910  35.568  27.467  10.704
85502W        W51911  30.100  31.263   2.681
85503W        W51912   7.016   8.396  10.706
85504W        W51913  15.872  26.247   4.322
85505W        W51914  12.617  36.970  12.837
85506W        W51915  19.194  28.931  10.514
85507W        W51916  12.154  40.426   9.725
85508W        W51917  40.341   7.837  11.980
85509W        W51918   7.523  19.691   4.782
85510W        W51919  31.921  42.551   1.916
85511W        W51920  28.115   5.742  11.381
85512W        W51921  25.006  30.501   3.269
85513W        W51922  25.573  31.141   4.842
85514W        W51923  10.571  12.841  13.941
85515W        W51924  20.671  27.471   0.433
85516W        W51925  18.786  26.582   3.253
85517W        W51926  38.940  33.465   4.435
85518W        W51927  38.266  14.764   1.928
85519W        W51928   0.960  41.742  12.040
85520W        W51929  10.791  35.585   2.886
85521W        W51930  35.661  30.382  13.763
85522W        W51931  17.026  28.226   1.276
85523W        W51932   0.205  40.691  11.446
85524W        W51933   2.315  13.639  14.300
85525W        W51934  39.488   2.700   1.425
85526W        W51935   6.337  30.918   2.359
85527W        W51936  24.908   6.284   4.106
85528W        W51937  11.849  41.080  14.423
85529W        W51938  43.539   5.248   4.537
85530W        W51939  24.603   2.930   2.251
85531W        W51940  28.670  28.228   0.456
85532W        W51941  15.789  37.424   1.811
85533W        W51942   4.943  40.752   3.103
85534W        W51943   0.925  41.772  14.554
85535W        W51944  16.871  38.653   5.249
85536W        W51945  38.888  32.889  13.576
85537W        W51946  36.061   9.344  11.552
85538W        W51947  19.813  42.821  10.678
85539W        W51948  38.598  43.407  11.459
85540W        W51949  38.842  38.700   1.728
85541W        W51950   7.200  10.719  13.489
85542W        W51951  34.398  26.399  14.087
85543W        W51952  10.937  30.933   4.111
85544W        W51953  18.797  17.368   0.338
85545W        W51954  15.731  16.223  10.746
85546W        W51955  32.504  16.234   2.948
85547W        W51956  43.614   5.422  13.995
85548W        W51957  36.173   8.765  14.409
85549W        W51958  25.719  34.013   3.074
85550W        W51959  24.170   9.656  11.071
85551W        W51960   6.913  42.255  11.098
85552W        W51961  29.126  13.625  13.261
85553W        W51962   2.116  25.099  12.778
85554W        W51963  36.986  35.078  14.492
85555W        W51964  36.021  39.004  10.715
85556W        W51965   9.323  14.572  11.198
85557W        W51966   4.187  42.397  14.524
85558W        W51967  44.372  38.392  13.892
85559W        W51968  28.937  16.918  13.655
85560W        W51969  23.750  35.300   4.850
85561W        W51970   8.952  14.749  14.073
85562W        W51971  19.194  37.997  10.910
85563W        W51972  20.156   0.446   1.750
85564W        W51973  23.462  29.962  14.389
85565W        W51974   7.875  43.730  13.053
85566W        W51975  41.236  42.793  11.066
85567W        W51976  30.944  32.822  13.967
85568W        W51977  39.822  16.423  14.466
85569W        W51978   7.740   4.700   4.090
85570W        W51979  25.482   0.903   3.141
85571W        W51980  37.026  22.595  13.282
85572W        W51981   8.865  37.123  13.438
85573W        W51982  27.671  38.780  11.053
85574W        W51983  44.869  14.158   0.481
85575W        W51984  20.822  18.230   4.662
85576W        W51985  15.625  44.766  12.103
85577W        W51986  31.087  17.550  14.248
85578W        W51987  20.451  28.629  14.780
85579W        W51988  31.111  19.578  14.721
85580W        W51989  28.405  33.106   0.762
85581W        W51990  38.073  20.235  13.886
85582W        W51991   5.918  17.268  10.743
85583W        W51992   7.166  32.032  13.648
85584W        W51993  10.883  39.933   4.455
85585W        W51994  44.530   2.457  14.339
85586W        W51995  27.474  24.988   0.656
85587W        W51996   7.955  20.946   3.200
85588W        W51997   8.774  30.362  14.056
85589W        W51998  32.907  17.353  11.087
85590W        W51999  27.916  42.774  14.518
85591W        W52000   2.804  18.978  13.018
85592W        W52001  39.951  34.737   3.895
85593W        W52002  28.987  17.259  10.651
85594W        W52003  31.927  22.718  11.227
85595W        W52004   5.008  39.815  11.515
85596W        W52005  38.605  27.018   1.663
85597W        W52006  17.971  15.987   3.247
85598W        W52007  19.087  18.478  14.792
85599W        W52008  11.579   8.732  13.507
85600W        W52009  17.564  29.617   0.461
85601W        W52010  19.213  30.356  13.865
85602W        W52011  38.952  21.128  10.865
85603W        W52012   4.799  30.446  12.930
85604W        W52013  16.199   8.123   3.369
85605W        W52014   1.953  21.042  10.757
85606W        W52015  14.314  23.112  13.939
85607W        W52016   2.465  25.761   0.446
85608W        W52017   7.373  12.896   3.505
85609W        W52018   1.031   4.903  10.609
85610W        W52019   4.465  27.552  14.792
85611W        W52020   3.945  26.657  12.516
85612W        W52021  25.401  26.606   0.066
85613W        W52022  20.985  11.899   1.309
85614W        W52023  13.481  35.538  10.575
85615W        W52024  40.799  30.530  13.413
85616W        W52025  37.118  34.580  12.546
85617W        W52026  35.387  38.059   2.766
85618W        W52027  18.307  20.326   2.229
85619W        W52028  12.423   4.185  12.432
85620W        W52029  25.069   5.710  14.166
85621W        W52030   4.709   9.224  12.627
85622W        W52031   6.603  17.477   5.162
85623W        W52032  22.969  38.810  11.523
85624W        W52033  38.583  35.843  12.923
85625W        W52034  41.614  20.085  10.715
85626W        W52035  27.345   7.194  13.871
85627W        W52036  34.475  33.222   4.164
85628W        W52037   2.377  35.184  11.884
85629W        W52038  11.431  19.645   0.493
85630W        W52039   7.748  21.414   3.137
85631W        W52040  32.900  10.679  10.661
85632W        W52041  37.488  43.436  14.467
85633W        W52042  25.263   5.370   0.949
85634W        W52043  33.539  32.423  13.848
85635W        W52044  11.166  41.088  12.748
85636W        W52045  35.507   3.750  11.653
85637W        W52046  12.108  38.145   0.332
85638W        W52047  39.521  23.460   2.843
85639W        W52048  44.972  34.386  11.250
85640W        W52049  24.943  25.971   2.260
85641W        W52050   6.380  31.997  10.259
85642W        W52051  12.044  12.985  12.324
85643W        W52052  12.505  27.297  10.770
85644W        W52053  14.130  42.919   1.683
85645W        W52054  12.316  36.361  14.399
85646W        W52055   6.254   2.799   0.952
85647W        W52056  42.866  11.403   3.677
85648W        W52057   0.239  11.276  14.369
85649W        W52058   2.771  40.107   0.428
85650W        W52059  11.343   7.327   1.732
85651W        W52060   7.973  31.700  14.843
85652W        W52061  44.810  16.907  10.441
85653W        W52062  32.429  25.153  12.580
85654W        W52063   8.372   1.219   1.944
85655W        W52064  15.291  18.769   5.015
85656W        W52065  37.100   6.081  14.344
85657W        W52066  19.108  37.442  14.765
85658W        W52067   4.450   8.867  10.622
85659W        W52068  35.499   5.089   0.889
85660W        W52069  44.968  37.861  14.281
85661W        W52070  33.352  36.930   4.645
85662W        W52071  25.622  44.012  11.670
85663W        W52072   2.201  21.080  12.000
85664W        W52073   5.403  41.872   0.527
85665W        W52074  40.518  42.375  10.739
85666W        W52075  21.685  40.064  13.987
85667W        W52076  30.419  38.944  14.879
85668W        W52077  35.963  23.626   1.900
85669W        W52078  34.796  28.323   3.216
85670W        W52079  12.485  12.709   0.299
85671W        W52080  29.277  29.999  14.245
85672W        W52081  16.251  34.711   3.644
85673W        W52082  19.406  26.519  10.633
85674W        W52083  26.657   9.796   1.649
85675W        W52084   7.243  10.698  14.425
85676W        W52085  34.390   9.163  14.322
85677W        W52086  36.866   8.392   0.238
85678W        W52087  43.253  17.090   3.269
85679W        W52088  12.652  15.454  13.352
85680W        W52089  16.331  20.257  11.142
85681W        W52090  31.623  27.749   2.846
85682W        W52091  14.892   3.896   1.430
85683W        W52092  36.285   7.633   2.738
85684W        W52093  32.804  36.120  11.590
85685W        W52094  12.119   4.390   2.688
85686W        W52095  37.099  25.729  13.868
85687W        W52096  37.408   0.716   4.607
85688W        W52097  15.128  15.387   3.452
85689W        W52098   3.223  11.891  12.773
85690W        W52099   3.441   6.690  14.043
85691W        W52100  30.451  21.529  11.973
85692W        W52101  26.930   3.610   3.696
85693W        W52102   3.245  42.812  10.136
85694W        W52103  11.613   4.164   1.811
85695W        W52104  11.192  10.298  11.671
85696W        W52105  37.103  26.288   4.045
85697W        W52106  27.773   7.421   0.356
85698W        W52107  16.937   1.913  10.778
85699W        W52108  15.334  23.347  10.744
85700W        W52109  39.868  41.517   0.083
85701W        W52110  22.764   9.176   4.467
85702W        W52111  20.963  37.962   4.761
85703W        W52112  11.275  43.334  11.921
85704W        W52113  38.606  23.763  12.053
85705W        W52114  30.706  13.188   2.118
85706W        W52115  20.050   0.751  12.116
85707W        W52116   0.752  36.565   3.713
85708W        W52117  38.767  29.652  14.912
85709W        W52118  15.134  21.742   1.289
85710W        W52119   6.758  25.179  13.969
85711W        W52120  10.572  22.114  13.995
85712W        W52121  14.360   6.543   1.244
85713W        W52122  40.983  21.314  13.475
85714W        W52123  11.379  21.309  11.445
85715W        W52124  41.942  21.156  12.504
85716W        W52125  18.399   3.694  10.731
85717W        W52126   6.163   2.517  11.427
85718W        W52127  25.188  24.125   2.100
85719W        W52128  37.512  21.424   0.225
85720W        W52129  36.935  28.741  13.035
85721W        W52130  39.817  40.185  11.555
85722W        W52131  28.940   8.360   0.350
85723W        W52132  28.165  22.818   0.577
85724W        W52133  21.971   8.378  13.574
85725W        W52134  27.902  17.703  14.245
85726W        W52135  19.846  37.854   0.707
85727W        W52136  22.445   8.779  12.994
85728W        W52137  12.812  37.371   1.689
85729W        W52138  17.323  20.373   1.016
85730W        W52139   5.469  37.090  14.138
85731W        W52140  15.133  40.409  11.348
85732W        W52141  40.920  21.985  11.908
85733W        W52142  10.184  25.115  13.882
85734W        W52143  40.095  43.776   3.315
85735W        W52144  34.036  39.525  13.644
85736W        W52145  21.421  10.217   2.737
85737W        W52146  34.342  20.036  12.052
85738W        W52147   7.236  22.680   0.158
85739W        W52148  28.582  20.720   0.880
85740W        W52149   7.761  32.683  11.310
85741W        W52150  16.660  19.302  13.323
85742W        W52151  26.594  38.172   2.290
85743W        W52152   9.147  25.550   3.667
85744W        W52153  17.151  13.267   3.607
85745W        W52154   9.621  20.475  14.555
85746W        W52155  22.796   2.678  12.102
85747W        W52156  14.292  12.856  10.809
85748W        W52157  35.649  15.602  11.869
85749W        W52158  44.539   7.733  10.734
85750W        W52159  12.397   1.802   5.423
85751W        W52160   0.651   0.952  10.923
85752W        W52161  16.058  14.856   3.958
85753W        W52162  14.303  34.968   0.429
85754W        W52163  18.559  40.191   3.068
85755W        W52164  26.058   9.097  12.612
85756W        W52165  18.033  13.091  14.416
85757W        W52166  19.631  33.684  13.595
85758W        W52167  25.738  21.110  13.018
85759W        W52168  42.433   7.040  11.622
85760W        W52169   3.271  35.621  10.740
85761W        W52170   6.175  29.581  12.143
85762W        W52171   4.675   4.839  13.207
85763W        W52172  33.863  40.852   0.892
85764W        W52173  41.350  22.291  12.136
85765W        W52174  28.002  44.640  12.087
85766W        W52175  31.612  22.678   1.442
85767W        W52176  32.353  30.086  14.967
85768W        W52177   8.764  38.504  14.547
85769W        W52178   7.834  42.110   4.040
85770W        W52179  21.802  38.589   0.034
85771W        W52180  32.544  12.775   3.688
85772W        W52181  11.408  37.643  10.023
85773W        W52182  34.957  25.379   4.217
85774W        W52183  35.931  31.699   2.652
85775W        W52184   4.668  41.455  14.406
85776W        W52185   4.675   1.647   0.962
85777W        W52186   2.229  42.032  10.813
85778W        W52187  14.137  37.123   3.252
85779W        W52188  27.401  43.795  14.417
85780W        W52189  30.505  22.575  14.515
85781W        W52190  43.296  30.779   0.852
85782W        W52191  10.323  42.246  14.784
85783W        W52192  15.308   7.206  14.729
85784W        W52193  32.551  13.059  14.537
85785W        W52194  17.690  34.111  13.345
85786W        W52195  11.933  30.925  12.460
85787W        W52196  27.770  10.967   2.334
85788W        W52197   9.162  15.849  10.494
85789W        W52198  17.386   3.357  12.444
85790W        W52199  13.588  39.464  13.575
85791W        W52200  42.170  36.432  11.878
85792W        W52201  44.150  27.523  10.696
85793W        W52202  30.479  28.030   1.287
85794W        W52203  32.366  40.377   0.226
85795W        W52204   2.344  13.602   0.717
85796W        W52205  34.062  42.340   0.839
85797W        W52206   1.260   8.843  10.269
85798W        W52207  16.708   2.142   1.807
85799W        W52208   0.010  10.863  14.606
85800W        W52209  16.792  18.566   4.546
85801W        W52210  25.196   1.229  14.404
85802W        W52211  30.639  17.777  12.510
85803W        W52212  34.276   2.268   5.563
85804W        W52213  28.184  38.762   4.512
85805W        W52214  15.829  14.746   4.446
85806W        W52215   5.233  43.305  11.588
85807W        W52216  31.417  16.247   3.084
85808W        W52217  40.283  11.381  10.539
85809W        W52218   2.038  22.115  11.429
85810W        W52219   8.597   4.886  12.842
85811W        W52220  11.459  40.976   0.265
85812W        W52221  11.925  18.394  12.829
85813W        W52222  38.220   8.920  13.977
85814W        W52223   3.839   8.838  14.319
85815W        W52224  40.939  28.403  14.865
85816W        W52225   4.186   1.449  12.407
85817W        W52226  35.855  11.163   2.262
85818W        W52227   5.218  34.361  10.803
85819W        W52228  37.381  12.751   1.180
85820W        W52229  44.819  10.506   3.509
85821W        W52230   8.699  22.705   3.181
85822W        W52231   1.220  27.948   2.112
85823W        W52232  18.252  36.554  10.616
85824W        W52233   2.127  42.324   4.252
85825W        W52234  17.239  40.854  11.973
85826W        W52235   0.780  20.085  13.845
85827W        W52236  35.960  16.798  13.388
85828W        W52237   6.497  33.822   3.154
85829W        W52238  41.413  27.623   3.844
85830W        W52239  23.259  34.124   1.451
85831W        W52240  42.790  10.179   1.453
85832W        W52241  19.996  36.448  10.416
85833W        W52242  29.431   7.611   4.140
85834W        W52243  24.302  14.654   1.820
85835W        W52244  43.870   3.286   4.765
85836W        W52245   8.568  16.633  13.085
85837W        W52246  30.044  10.269   1.846
85838W        W52247  20.245   8.974   4.340
85839W        W52248  27.315  35.299   1.207
85840W        W52249  31.422  29.701   3.068
85841W        W52250   4.473   4.350   2.151
85842W        W52251   8.732  40.279  14.485
85843W        W52252  30.874  25.621  14.362
85844W        W52253   9.157  12.409  12.996
85845W        W52254  18.148  32.497  11.559
85846W        W52255  18.602  44.199   1.409
85847W        W52256  18.120  17.164  11.221
85848W        W52257   0.229  19.249   0.887
85849W        W52258  15.893  34.909   1.757
85850W        W52259  27.937  13.541   0.833
85851W        W52260  36.630  14.609   2.954
85852W        W52261  37.447  24.992   4.208
85853W        W52262  31.623  20.724  14.731
85854W        W52263  23.244  21.291   2.842
85855W        W52264   3.574  32.964   4.778
85856W        W52265   4.380  37.856  11.047
85857W        W52266   3.192  26.255   3.616
85858W        W52267  34.506  39.279   0.158
85859W        W52268  10.687  26.619   2.384
85860W        W52269  43.455  10.596   3.553
85861W        W52270   9.668   0.412  14.525
85862W        W52271   5.206   9.985   0.168
85863W        W52272   8.315  31.693   2.614
85864W        W52273   7.732   1.272   1.418
85865W        W52274  18.051  27.575   2.726
85866W        W52275  25.474  21.844  13.447
85867W        W52276  23.639   9.717  12.542
85868W        W52277  44.961  13.229   3.095
85869W        W52278  15.625  44.076  14.455
85870W        W52279  24.535  15.680   3.930
85871W        W52280   6.539  42.462  10.800
85872W        W52281   9.005  30.127   1.420
85873W        W52282  20.263  30.993   2.244
85874W        W52283  33.027  25.989  14.793
85875W        W52284  11.377  26.477   4.580
85876W        W52285  30.873   7.030   3.118
85877W        W52286  29.888  38.029   2.347
85878W        W52287  38.746  34.893  13.332
85879W        W52288  34.348  10.722  13.250
85880W        W52289  12.525  10.736  13.875
85881W        W52290  23.743  32.844  14.335
85882W        W52291  22.182  44.148  14.853
85883W        W52292   3.195  31.038  13.374
85884W        W52293   6.441  20.139   4.145
85885W        W52294  43.545  22.172  12.130
85886W        W52295   8.892   8.174   1.393
85887W        W52296  32.066  21.596   3.565
85888W        W52297  44.898  19.594  11.075
85889W        W52298   7.983   4.826  11.280
85890W        W52299  21.452  31.420   2.663
85891W        W52300  28.654  43.418   1.256
85892W        W52301  14.369  13.484   1.925
85893W        W52302  11.801  19.035   3.153
85894W        W52303  38.093   4.904   2.236
85895W        W52304  20.720  31.052   1.323
85896W        W52305  16.105   0.422  13.185
85897W        W52306  30.958  20.197  11.181
85898W        W52307  21.168  13.913   1.060
85899W        W52308  44.194  20.016   1.824
85900W        W52309   6.331  19.687   1.277
85901W        W52310  40.148   2.810   0.263
85902W        W52311  40.864  31.837   2.238
85903W        W52312  39.216  11.428  12.345
85904W        W52313  18.169   4.814   1.223
85905W        W52314  36.493   6.551   2.279
85906W        W52315   8.358  37.902  14.846
85907W        W52316   3.172   3.977   0.310
85908W        W52317  17.320  31.888   0.955
85909W        W52318  43.147  10.529   2.772
85910W        W52319  31.156   7.559  12.001
85911W        W52320  17.723  39.102  11.906
85912W        W52321   2.291  29.079  14.132
85913W        W52322  20.957  11.807  11.053
85914W        W52323  25.116  23.520   0.327
85915W        W52324  34.625  37.480  13.565
85916W        W52325  24.492  25.558  11.673
85917W        W52326  32.501  30.444  12.087
85918W        W52327  20.086  36.433   2.588
85919W        W52328  34.075  28.774   1.283
85920W        W52329  24.712  11.137  11.163
85921W        W52330  14.622  19.578  12.040
85922W        W52331  36.378   7.617  11.938
85923W        W52332  33.419  25.995  13.436
85924W        W52333  32.775  12.280  13.910
85925W        W52334  37.550  15.350  14.281
85926W        W52335   2.296  38.360   4.814
85927W        W52336  31.457  36.587  11.086
85928W        W52337  24.517  13.914   2.703
85929W        W52338  12.809  13.924  12.133
85930W        W52339   0.960   5.872   0.256
85931W        W52340  40.872  24.555   3.260
85932W        W52341  41.459  20.661   3.237
85933W        W52342  14.791  23.726   3.303
85934W        W52343  37.363  14.818   1.987
85935W        W52344  28.902  18.241   0.448
85936W        W52345  31.124  27.360   4.217
85937W        W52346  18.737  42.384  12.494
85938W        W52347  10.672  37.786   1.406
85939W        W52348   3.771  43.027  11.944
85940W        W52349  32.625  36.812  13.924
85941W        W52350   3.346  30.433   3.639
85942W        W52351  37.983  15.414   0.470
85943W        W52352  26.779  38.377  13.417
85944W        W52353  14.199  36.401  13.555
85945W        W52354  22.443  40.407   3.247
85946W        W52355  36.011  27.990   2.041
85947W        W52356  33.948  20.139   3.274
85948W        W52357  28.784  20.525   2.188
85949W        W52358  12.773  20.927   1.832
85950W        W52359  14.436  12.012  11.389
85951W        W52360  44.293  16.544  12.491
85952W        W52361  21.263  27.715   0.359
85953W        W52362  43.512  32.381  11.875
85954W        W52363  25.127  12.423   2.821
85955W        W52364   3.480  27.477  12.690
85956W        W52365  33.964  26.620   2.713
85957W        W52366   0.857  24.090   4.579
85958W        W52367  33.349  24.455  14.947
85959W        W52368  16.104  28.825   2.305
85960W        W52369   2.680  20.129   4.616
85961W        W52370   3.952   9.937  13.033
85962W        W52371  36.014  25.609  10.736
85963W        W52372  14.165  37.643   3.332
85964W        W52373   2.243  25.672  12.851
85965W        W52374   7.782  13.601   3.593
85966W        W52375  41.217  39.546   1.969
85967W        W52376  29.572   5.262  10.247
85968W        W52377   1.766  29.708  11.158
85969W        W52378  22.843  32.548  11.111
85970W        W52379  30.766   7.628  15.000
85971W        W52380   6.001  24.020  12.421
85972W        W52381   2.782  10.520   0.112
85973W        W52382  23.933  33.869  13.446
85974W        W52383  23.483  30.022   4.781
85975W        W52384   1.496  24.539  10.677
85976W        W52385  10.223  29.611  12.008
85977W        W52386   4.160  35.199   1.734
85978W        W52387  38.167  27.574  13.426
85979W        W52388  32.392   7.400   1.432
85980W        W52389  32.071  40.376  10.724
85981W        W52390  26.102  43.106   4.684
85982W        W52391   5.369   5.519   3.604
85983W        W52392  14.252  27.592  12.546
85984W        W52393  43.481  27.143  14.967
85985W        W52394   4.738   2.260  14.535
85986W        W52395  22.668   6.876  12.132
85987W        W52396  30.552  27.592   0.662
85988W        W52397  21.612  36.221   3.730
85989W        W52398  31.970  38.345   1.200
85990W        W52399   0.864  14.158  10.842
85991W        W52400  18.311  11.459   2.766
85992W        W52401  17.316  17.579  14.587
85993W        W52402  30.406  16.088  11.079
85994W        W52403  21.126  23.409   1.899
85995W        W52404  29.736   2.189   4.931
85996W        W52405   5.427  40.104  13.514
85997W        W52406  10.914  37.290  13.013
85998W        W52407  26.344  39.843  12.383
85999W        W52408   7.036  25.356   0.240
86000W        W52409  30.923  15.731   4.090
86001W        W52410   4.291  34.425  13.521
86002W        W52411   5.595   1.301  12.708
86003W        W52412  41.981  37.398   3.065
86004W        W52413  18.381   5.631   1.270
86005W        W52414  34.987  41.592   3.691
86006W        W52415  37.353  16.621   3.235
86007W        W52416  26.196  15.341   4.822
86008W        W52417  27.115  23.943   3.927
86009W        W52418  10.627  20.403   1.718
86010W        W52419  35.991  34.340   4.664
86011W        W52420  39.895  15.157  12.025
86012W        W52421  20.271  32.575  14.112
86013W        W52422  37.566  24.720  11.022
86014W        W52423   3.665  25.045   1.181
86015W        W52424  14.664  35.587  14.996
86016W        W52425   2.735   7.765   1.935
86017W        W52426  33.046  13.916  12.130
86018W        W52427  15.773  37.031  11.562
86019W        W52428  27.083  12.625   0.730
86020W        W52429   0.714  30.638   2.244
86021W        W52430  22.655  12.379  10.981
86022W        W52431  13.198  40.992   1.420
86023W        W52432  18.962  31.942  12.501
86024W        W52433  41.243  37.809   3.226
86025W        W52434   9.194  27.895  10.682
86026W        W52435  31.139  13.336   1.835
86027W        W52436  18.022  17.639  11.621
86028W        W52437  35.839  19.808   4.259
86029W        W52438  40.065  32.032  12.044
86030W        W52439  18.906  10.033  12.490
86031W        W52440  35.016  11.619   1.810
86032W        W52441  38.281  30.124  13.104
86033W        W52442  26.020   5.731  14.919
86034W        W52443  38.054  20.486   0.694
86035W        W52444  21.006  24.473  11.554
86036W        W52445   2.618  24.554   3.628
86037W        W52446  37.886  25.695  14.732
86038W        W52447  17.038  35.505   1.244
86039W        W52448  11.245  24.570   4.171
86040W        W52449   0.499   7.815  13.060
86041W        W52450  35.183  42.933  13.504
86042W        W52451   4.832   0.528  12.817
86043W        W52452  23.650  25.063  14.048
86044W        W52453  11.868   5.749   3.957
86045W        W52454  13.649   0.929  13.355
86046W        W52455  25.405   1.791   3.654
86047W        W52456  36.407   8.665  11.112
86048W        W52457  15.060  15.759   4.160
86049W        W52458  23.633  30.410  10.691
86050W        W52459   1.905  43.069   1.282
86051W        W52460  27.030  26.719   4.400
86052W        W52461  11.916  26.044   4.041
86053W        W52462  34.416   9.879  13.613
86054W        W52463  42.078  23.445  11.568
86055W        W52464  16.872  35.049   3.423
86056W        W52465  27.203  20.557  14.981
86057W        W52466  18.756  14.060   0.235
86058W        W52467   7.895   2.282  10.526
86059W        W52468  19.060  39.094  10.247
86060W        W52469  11.600   6.703   0.469
86061W        W52470  41.563  35.648  14.029
86062W        W52471  16.592  12.288   1.941
86063W        W52472   6.913  44.106   0.247
86064W        W52473  43.404  13.313   1.714
86065W        W52474   4.790  34.009  11.484
86066W        W52475  16.743  17.034   4.011
86067W        W52476   0.806  15.675  10.070
86068W        W52477  17.914  28.479  13.596
86069W        W52478  33.077  40.880   4.246
86070W        W52479  14.081  34.452   2.377
86071W        W52480  35.338   4.034  13.961
86072W        W52481   9.189  18.037   2.273
86073W        W52482  22.490   8.064  14.343
86074W        W52483   4.027  29.085  10.657
86075W        W52484  11.850  35.374   1.739
86076W        W52485  10.793   3.508  11.459
86077W        W52486  28.749  13.700  13.892
86078W        W52487   9.753  32.424   3.167
86079W        W52488  19.769  35.321  12.781
86080W        W52489  12.375  25.227   2.304
86081W        W52490  17.029  10.508   0.767
86082W        W52491  23.547  19.655   4.089
86083W        W52492  16.766  41.975  11.696
86084W        W52493  43.171   8.946  11.723
86085W        W52494  13.179   6.200   1.560
86086W        W52495  23.491  10.188  12.749
86087W        W52496  21.482  19.604  13.831
86088W        W52497   2.901  20.626   4.597
86089W        W52498  21.741  41.530  12.038
86090W        W52499  44.432  12.103   3.748
86091W        W52500  23.226  18.027   2.305
86092W        W52501  14.119  23.080   4.211
86093W        W52502   1.000  18.075  13.812
86094W        W52503   5.581  37.983   4.625
86095W        W52504  38.194  27.027   1.370
86096W        W52505  35.395   3.995   0.353
86097W        W52506  20.616  31.423   4.577
86098W        W52507  39.860  31.387  14.358
86099W        W52508  32.211  34.548   3.801
86100W        W52509   5.995  20.289  13.681
86101W        W52510  11.054  13.387  10.605
86102W        W52511   0.425  36.887   1.721
86103W        W52512  18.608  33.360   1.453
86104W        W52513  35.420  25.625  14.556
86105W        W52514  34.884  25.861   4.411
86106W        W52515  40.901  15.129   1.394
86107W        W52516  29.626  40.990   3.275
86108W        W52517  13.787  10.577   4.714
86109W        W52518  34.101  37.372   1.669
86110W        W52519  35.112   8.245   1.857
86111W        W52520  29.751  40.615   4.994
86112W        W52521  14.189  18.468  12.002
86113W        W52522  11.343  44.413  10.357
86114W        W52523  15.107  40.362   3.054
86115W        W52524  14.369  33.056   3.491
86116W        W52525   8.660  38.085   0.798
86117W        W52526  34.873  31.098  12.104
86118W        W52527   0.506  36.449  14.714
86119W        W52528  24.910  11.677  11.411
86120W        W52529  11.417  13.899  13.247
86121W        W52530   7.884  39.326   2.605
86122W        W52531   5.518  27.780  13.314
86123W        W52532   4.338   4.131  12.543
86124W        W52533   3.557  39.608   4.266
86125W        W52534  38.974  16.270  14.398
86126W        W52535  37.366  22.154  12.182
86127W        W52536  27.514  16.400   0.976
86128W        W52537  29.257  19.648   3.691
86129W        W52538  12.590  29.076   1.277
86130W        W52539  44.240   4.675  10.102
86131W        W52540   4.648   6.871   3.262
86132W        W52541  32.338  22.368   2.908
86133W        W52542  29.461  33.887   1.926
86134W        W52543  44.107   4.006   2.695
86135W        W52544  13.119  29.598   3.864
86136W        W52545  43.597  38.459  14.817
86137W        W52546  10.178   3.799  13.452
86138W        W52547  42.337  22.261  14.309
86139W        W52548  35.452  12.548   0.439
86140W        W52549  25.544  20.119  11.998
86141W        W52550  13.026  21.040   2.269
86142W        W52551  31.958  20.618   2.494
86143W        W52552  10.331  10.853  14.531
86144W        W52553  32.837  26.035  14.317
86145W        W52554  31.953  19.741   4.289
86146W        W52555  40.393  24.789   0.762
86147W        W52556   9.192  32.146  14.582
86148W        W52557  18.547  19.612  14.076
86149W        W52558  44.678  11.768  14.923
86150W        W52559  17.142  22.839   4.379
86151W        W52560  14.902  34.152   0.500
86152W        W52561   0.059  28.854  11.031
86153W        W52562   5.256   3.907   0.062
86154W        W52563  35.743  32.043   1.314
86155W        W52564  29.378  15.793   1.483
86156W        W52565  23.953  23.873  14.999
86157W        W52566  19.474   8.807  14.777
86158W        W52567   6.275  36.088  13.380
86159W        W52568   4.657   3.961  11.198
86160W        W52569  15.425   8.805  12.486
86161W        W52570  32.139  39.757  11.600
86162W        W52571  34.951  27.993   0.390
86163W        W52572   9.253   4.479   4.561
86164W        W52573   5.317   5.837  12.774
86165W        W52574  18.668  30.173  14.706
86166W        W52575  23.409  39.311  10.767
86167W        W52576  43.939  26.198   2.296
86168W        W52577  44.306   5.909   0.690
86169W        W52578   4.845  19.555  10.175
86170W        W52579  30.012  15.283   0.873
86171W        W52580  10.630   9.738   0.345
86172W        W52581  28.028  21.913   3.615
86173W        W52582  38.945  23.447  12.298
86174W        W52583  12.159   3.382  13.980
86175W        W52584  36.102   7.894   3.152
86176W        W52585  21.675  15.326  12.072
86177W        W52586  12.629  26.544   4.095
86178W        W52587   8.863  18.334   4.094
86179W        W52588  22.837  38.128   2.162
86180W        W52589   0.522   7.295   1.422
86181W        W52590  15.574   2.664  11.001
86182W        W52591   5.179   6.447  11.058
86183W        W52592  33.171  10.778   1.503
86184W        W52593   3.421  18.315   3.112
86185W        W52594  17.236  22.363   4.588
86186W        W52595  36.976   8.135   1.679
86187W        W52596  10.130  42.253  11.023
86188W        W52597   3.372  35.732   2.778
86189W        W52598  32.985  35.539  12.477
86190W        W52599  38.267  37.506   1.550
86191W        W52600  14.159   3.228   3.321
86192W        W52601  30.389  12.402  13.408
86193W        W52602   6.626  30.498   2.241
86194W        W52603   2.061  44.912  12.205
86195W        W52604  27.483  41.819  12.119
86196W        W52605  44.058   4.364   1.484
86197W        W52606  40.452  38.505  13.809
86198W        W52607  42.041   1.019   4.484
86199W        W52608   5.307  16.215   0.494
86200W        W52609  17.035  30.481  11.101
86201W        W52610  23.536  16.069   4.657
86202W        W52611  20.656  40.806   4.582
86203W        W52612  19.198  18.227   2.429
86204W        W52613  24.302  15.754  10.248
86205W        W52614   3.702  27.842   4.211
86206W        W52615  29.526   8.470  12.578
86207W        W52616   9.396  27.109   2.375
86208W        W52617  17.791  37.344   3.678
86209W        W52618  20.065   8.375   1.232
86210W        W52619  34.023   7.329   3.778
86211W        W52620  21.305   4.794   3.579
86212W        W52621  43.897  42.529   3.230
86213W        W52622   8.639   1.382  12.527
86214W        W52623  21.493  17.735   2.808
86215W        W52624  10.926   5.406   0.856
86216W        W52625  12.789  42.615   4.948
86217W        W52626  12.712  13.999   2.905
86218W        W52627  39.784  20.098   2.354
86219W        W52628  44.044  26.157   4.978
86220W        W52629   6.686   9.871  14.785
86221W        W52630  17.073  11.374  14.795
86222W        W52631  43.901  17.154   1.687
86223W        W52632  18.056  41.102   0.781
86224W        W52633  42.579  32.547  12.689
86225W        W52634  14.543  25.358  11.169
86226W        W52635   9.778  19.860   1.567
86227W        W52636  25.078  13.628  10.732
86228W        W52637  42.727  15.660  12.924
86229W        W52638  17.508  11.946  11.842
86230W        W52639  15.623  40.992  14.557
86231W        W52640  39.562   7.837   3.937
86232W        W52641   9.561  35.801  14.821
86233W        W52642  31.043  19.414   0.213
86234W        W52643  20.732   5.225  12.056
86235W        W52644  25.947  43.846  14.962
86236W        W52645  23.717  37.655  11.163
86237W        W52646  30.140  34.031   2.804
86238W        W52647  13.138   9.302  10.675
86239W        W52648  38.126  43.573  11.651
86240W        W52649  18.499  30.752  12.957
86241W        W52650   3.867  20.737   3.690
86242W        W52651  17.780  16.270   4.795
86243W        W52652  29.495  28.468  14.397
86244W        W52653  35.042  29.853   3.104
86245W        W52654  25.457   5.173   3.317
86246W        W52655  20.406  12.685  12.402
86247W        W52656  39.129   1.253   4.481
86248W        W52657  13.742   0.252  11.923
86249W        W52658  19.056  29.823   1.459
86250W        W52659  22.854  32.152   2.784
86251W        W52660  21.558  15.670   2.148
86252W        W52661  11.731  20.340   3.726
86253W        W52662  43.546  10.984   4.505
86254W        W52663   5.140  35.583   0.884
86255W        W52664  33.417  24.698   2.767
86256W        W52665  12.168  34.332   2.293
86257W        W52666  19.980  16.177  13.581
86258W        W52667  20.513  38.797   0.394
86259W        W52668  36.066  22.470  13.539
86260W        W52669  35.022  32.573  10.835
86261W        W52670   0.230  37.612   4.214
86262W        W52671  20.997  33.830   2.726
86263W        W52672  11.442  32.113   3.273
86264W        W52673  20.047   1.723   4.677
86265W        W52674  40.027  31.886   3.719
86266W        W52675  26.204  21.134   0.581
86267W        W52676   2.219   3.992   4.741
86268W        W52677  34.377  18.392  11.682
86269W        W52678  36.316  17.524   0.188
86270W        W52679  16.741   8.019   2.225
86271W        W52680   5.337  27.108   2.336
86272W        W52681  13.134  14.769  11.258
86273W        W52682   5.753  25.113   3.588
86274W        W52683  40.944  43.487   3.573
86275W        W52684  15.960  30.012  14.356
86276W        W52685  39.591  34.074  13.901
86277W        W52686   0.395  37.349  11.051
86278W        W52687  44.886   8.211   4.972
86279W        W52688   6.537  14.721  13.393
86280W        W52689   7.700  34.388   4.593
86281W        W52690  29.994  44.227  13.561
86282W        W52691  42.376  11.942   2.193
86283W        W52692  38.849  21.039  11.959
86284W        W52693  13.290  28.870   0.822
86285W        W52694  38.661  29.857  12.849
86286W        W52695  14.688   3.440   1.285
86287W        W52696   7.687  25.652  13.629
86288W        W52697  30.174  17.177  10.724
86289W        W52698  39.280  13.544  14.856
86290W        W52699  17.209  34.423   1.212
86291W        W52700  14.596  18.747  14.752
86292W        W52701  31.456  25.188   3.773
86293W        W52702  36.970   8.918   0.745
86294W        W52703  44.018  16.760  12.077
86295W        W52704   8.876  23.200   4.278
86296W        W52705  19.255   2.230  14.543
86297W        W52706  35.110  31.736  10.850
86298W        W52707  10.625   4.643   3.294
86299W        W52708   6.087   6.721   3.747
86300W        W52709  27.459  25.156  11.851
86301W        W52710   6.728  20.050   4.583
86302W        W52711   1.746  17.369  12.375
86303W        W52712  35.717   6.670  13.564
86304W        W52713   7.874   9.736   3.238
86305W        W52714  31.234  22.586   2.383
86306W        W52715  13.240   0.746  11.634
86307W        W52716  13.550  14.215   4.764
86308W        W52717  29.494  42.873  12.006
86309W        W52718  31.428  37.944   1.743
86310W        W52719  25.049  33.179  13.558
86311W        W52720  15.074  26.433  11.151
86312W        W52721  25.856  27.437   0.446
86313W        W52722  38.949   5.806  12.854
86314W        W52723  26.621  37.898  13.560
86315W        W52724   2.951  13.838   0.256
86316W        W52725  12.185  18.134   0.792
86317W        W52726  44.870   0.990   2.525
86318W        W52727   8.843  12.165  11.105
86319W        W52728  33.869  13.172  13.879
86320W        W52729  13.329  24.996   0.625
86321W        W52730   8.266  31.975  10.739
86322W        W52731  15.255   3.970   1.019
86323W        W52732  30.142   6.524  10.602
86324W        W52733  15.735  21.214   3.383
86325W        W52734  28.527  20.980  12.916
86326W        W52735  23.129   6.507   0.750
86327W        W52736  28.727  27.472   1.679
86328W        W52737  34.400  41.550  10.742
86329W        W52738  26.152  34.414  14.758
86330W        W52739  16.292  33.375   1.246
86331W        W52740  10.771  23.926   0.830
86332W        W52741   1.942  41.565   1.765
86333W        W52742   8.154  31.122  11.030
86334W        W52743  13.946  37.779   0.077
86335W        W52744  40.678  22.141   4.658
86336W        W52745  31.053  12.967  12.113
86337W        W52746   0.810  44.339  11.257
86338W        W52747  26.208  19.769  10.667
86339W        W52748  20.177  30.163  13.993
86340W        W52749  34.507  42.943  12.718
86341W        W52750   1.203  17.649   4.884
86342W        W52751  34.067  42.432  14.077
86343W        W52752  39.892  35.441   4.722
86344W        W52753  28.501  22.077   1.224
86345W        W52754  19.683  17.146   3.845
86346W        W52755   6.750  24.092  10.269
86347W        W52756  23.739   6.993   3.218
86348W        W52757  17.045  37.947   2.961
86349W        W52758  44.740  17.124  13.574
86350W        W52759  40.998  33.024   1.875
86351W        W52760  11.598  32.771   1.583
86352W        W52761  17.249   4.796  10.273
86353W        W52762  35.766  18.988   2.066
86354W        W52763  42.880  30.860   3.642
86355W        W52764  21.311  17.552  12.928
86356W        W52765  17.695  35.707   2.643
86357W        W52766  18.314  23.247   4.426
86358W        W52767  25.771  43.541   1.137
86359W        W52768  32.839  20.455   1.481
86360W        W52769   7.671   3.978  12.653
86361W        W52770   5.745  12.737  12.972
86362W        W52771  20.699  34.905  12.443
86363W        W52772  35.256  27.453   0.342
86364W        W52773  43.970  31.373   3.655
86365W        W52774  20.543   4.226   3.714
86366W        W52775   0.927  11.991  11.396
86367W        W52776  14.198  19.190  12.568
86368W        W52777  27.168   4.792   4.197
86369W        W52778  44.951  33.676  13.087
86370W        W52779  12.909   1.968   0.321
86371W        W52780  12.949  35.171   0.007
86372W        W52781  43.831  10.793   3.825
86373W        W52782   0.083  38.540   0.279
86374W        W52783   1.944  42.468  13.770
86375W        W52784  12.540  25.667   4.190
86376W        W52785  37.136  43.291  11.661
86377W        W52786  15.014  18.030  12.161
86378W        W52787  18.579   3.539   2.698
86379W        W52788   8.303  29.425  13.502
86380W        W52789  41.004  33.351  11.455
86381W        W52790  23.045  35.533   3.425
86382W        W52791  40.820  44.360  10.781
86383W        W52792  28.429  19.662   0.739
86384W        W52793   9.545   1.862   3.311
86385W        W52794  39.405   4.246   1.758
86386W        W52795  24.485  43.746   3.781
86387W        W52796  36.846  39.799  14.287
86388W        W52797   2.480  44.543   3.173
86389W        W52798  15.240   7.435  11.612
86390W        W52799   4.366  23.672  12.063
86391W        W52800  19.815  44.848  12.382
86392W        W52801   4.226  42.861   2.209
86393W        W52802   6.318   0.811  13.472
86394W        W52803  11.708  20.781  12.959
86395W        W52804  18.070  17.401   2.324
86396W        W52805  34.976  34.355  12.977
86397W        W52806  24.307  27.551  11.080
86398W        W52807  33.406  10.088   0.321
86399W        W52808  17.062  22.693  12.406
86400W        W52809  27.970   3.995  11.560
86401W        W52810   8.624  13.214  14.787
86402W        W52811  36.889   3.284   2.170
86403W        W52812   5.314  15.509   3.202
86404W        W52813   9.272  43.348  11.998
86405W        W52814   2.443   0.449   3.100
86406W        W52815  18.371   2.096  14.067
86407W        W52816  36.398  35.979  13.174
86408W        W52817   5.267  24.575  13.379
86409W        W52818  34.106  18.981   0.829
86410W        W52819  11.160  43.657  10.978
86411W        W52820  22.676   5.796   1.818
86412W        W52821   1.816   2.831   0.407
86413W        W52822   3.032  40.541   0.268
86414W        W52823  43.268  11.610  14.845
86415W        W52824  38.314  26.927  12.849
86416W        W52825  43.424  18.588  13.940
86417W        W52826  35.556  36.566  12.501
86418W        W52827   8.113  27.601   4.581
86419W        W52828   9.171  23.552   0.645
86420W        W52829  23.487  11.672  11.589
86421W        W52830  22.214  15.598   0.354
86422W        W52831  15.710  12.723   3.888
86423W        W52832  29.413   7.704   4.980
86424W        W52833   2.455  34.615  13.421
86425W        W52834   3.906  32.622  12.903
86426W        W52835   0.591  19.108  14.533
86427W        W52836   4.358  31.630   4.356
86428W        W52837   6.137  42.218   3.696
86429W        W52838  22.264  29.202   2.011
86430W        W52839  10.445  41.438   0.988
86431W        W52840   0.347  33.398  12.929
86432W        W52841   8.725  22.791  13.806
86433W        W52842  28.389   7.317  12.409
86434W        W52843  21.769  16.768   2.409
86435W        W52844  43.027  22.701   1.712
86436W        W52845  38.953  24.478   3.191
86437W        W52846   5.754   6.471  14.879
86438W        W52847  37.714  40.730  12.825
86439W        W52848  41.923  35.877  13.715
86440W        W52849  11.394  43.908   2.571
86441W        W52850  38.775  34.953  14.340
86442W        W52851  18.813   3.243  14.781
86443W        W52852  39.816  19.816  13.885
86444W        W52853   5.317  39.839   3.087
86445W        W52854  27.496  44.489   0.527
86446W        W52855  28.671  28.479  11.059
86447W        W52856   0.267  28.060  12.469
86448W        W52857  17.096  25.903  13.396
86449W        W52858  30.329   8.689   2.025
86450W        W52859   9.766  21.899  14.930
86451W        W52860   6.470  25.446   0.266
86452W        W52861   9.927  25.562  13.717
86453W        W52862  25.642  15.185   2.687
86454W        W52863  29.546   5.934   4.667
86455W        W52864  38.583   5.695   0.056
86456W        W52865  14.643  25.088   1.390
86457W        W52866  21.700  12.798  12.338
86458W        W52867  36.365  42.441  14.741
86459W        W52868  19.132   5.990   0.186
86460W        W52869   8.778   0.440  14.872
86461W        W52870   4.433  25.238   4.117
86462W        W52871  19.592   0.901  13.464
86463W        W52872  42.440  38.344   2.882
86464W        W52873  41.934  14.280  12.983
86465W        W52874  16.019  21.887  10.360
86466W        W52875   6.318   9.101  12.062
86467W        W52876  12.856  21.514  14.294
86468W        W52877  16.205  23.279   3.124
86469W        W52878  26.174  34.633   3.806
86470W        W52879  20.314  10.754   4.162
86471W        W52880  43.374  31.221   1.173
86472W        W52881  43.845   2.421  11.905
86473W        W52882   7.585   4.941  13.880
86474W        W52883   2.341   9.661   2.658
86475W        W52884  37.574  19.773   3.146
86476W        W52885  37.345   4.393   9.953
86477W        W52886   0.471  15.791  10.450
86478W        W52887  13.535  24.053   4.376
86479W        W52888   6.935  22.212  12.587
86480W        W52889  13.236  15.153   1.764
86481W        W52890  21.406   4.710  14.354
86482W        W52891   5.437   7.711   2.245
86483W        W52892  30.011  22.886  11.870
86484W        W52893  36.898   4.435  13.150
86485W        W52894  11.121  23.743  14.479
86486W        W52895  44.957  40.551  11.879
86487W        W52896   0.735  11.865  14.849
86488W        W52897  43.317  10.048   1.166
86489W        W52898  23.124  22.023  13.427
86490W        W52899  44.855  37.905  11.522
86491W        W52900  44.859  20.984  12.039
86492W        W52901  38.881  14.174  13.927
86493W        W52902  41.964  43.562  10.568
86494W        W52903  21.024  15.805   0.721
86495W        W52904  17.738  24.198  13.975
86496W        W52905  14.230  13.700   4.436
86497W        W52906  38.693  23.642   4.683
86498W        W52907  18.933  35.394  12.568
86499W        W52908  36.493   9.831   4.622
86500W        W52909   3.740  37.088   3.211
86501W        W52910  26.092  30.218  14.877
86502W        W52911   3.712   3.215  11.628
86503W        W52912  36.325  37.524  14.311
86504W        W52913  33.721   9.309  12.571
86505W        W52914   3.880  28.281   3.188
86506W        W52915  10.843   4.300  10.549
86507W        W52916  21.577  31.669   4.778
86508W        W52917  15.137  25.122   1.854
86509W        W52918  33.608  39.831  11.855
86510W        W52919  16.021  32.399  10.633
86511W        W52920  42.316   4.437   1.831
86512W        W52921  13.217  18.941  13.528
86513W        W52922  14.583  21.980   0.799
86514W        W52923  40.214  10.774   0.388
86515W        W52924  21.475  42.543  12.008
86516W        W52925   8.863  29.664   3.105
86517W        W52926   7.817  19.980  13.046
86518W        W52927  35.437  16.062   3.913
86519W        W52928  15.119  43.345  11.984
86520W        W52929  37.876  26.288   4.371
86521W        W52930  28.516  26.262   2.377
86522W        W52931  18.740  40.411  11.909
86523W        W52932   4.791  41.489   2.408
86524W        W52933  38.833  35.280   1.892
86525W        W52934  21.519   1.357   1.940
86526W        W52935  19.263  41.489   2.681
86527W        W52936  41.000  10.150   0.921
86528W        W52937  13.764  11.922  10.715
86529W        W52938  42.845  17.681   4.018
86530W        W52939  43.338  16.004   4.692
86531W        W52940  23.191  18.059   0.793
86532W        W52941   8.951  14.422  13.020
86533W        W52942  20.930  23.898  13.785
86534W        W52943  17.228   4.172  11.187
86535W        W52944  27.413  17.681  14.031
86536W        W52945  29.555   5.095  13.336
86537W        W52946  26.198  33.862   1.710
86538W        W52947  21.242  42.727   2.301
86539W        W52948  26.362  26.879   4.955
86540W        W52949  40.790  38.341  14.582
86541W        W52950  31.575   1.929   2.459
86542W        W52951  32.263   0.816   2.198
86543W        W52952  10.343  27.649  11.622
86544W        W52953  22.533  23.096  12.530
86545W        W52954  43.444  33.669  13.930
86546W        W52955  23.175   8.596  11.011
86547W        W52956  24.962  20.633   5.090
86548W        W52957  25.893  13.647  13.594
86549W        W52958  13.208   4.414  13.291
86550W        W52959  35.399   1.081  10.467
86551W        W52960  19.248   9.302  11.853
86552W        W52961  14.694   4.216  11.126
86553W        W52962  28.904   5.299  12.403
86554W        W52963  15.153  20.104   3.242
86555W        W52964  17.271   3.233   4.977
86556W        W52965  34.938  38.906   4.106
86557W        W52966  28.062   8.335   1.307
86558W        W52967  35.259  11.085  13.476
86559W        W52968  30.962  19.335  14.271
86560W        W52969   0.692   5.953  12.547
86561W        W52970   4.068   2.112  12.994
86562W        W52971  36.108   5.888   1.690
86563W        W52972  22.146  36.509   0.592
86564W        W52973  42.115  22.063   1.317
86565W        W52974   7.112  13.829   3.863
86566W        W52975  34.597  32.553  11.143
86567W        W52976  14.819   0.280  11.064
86568W        W52977  18.116  44.705  11.486
86569W        W52978  23.719  21.930  14.892
86570W        W52979  29.179   4.212   5.356
86571W        W52980  18.677   0.507   0.104
86572W        W52981   7.916  34.288  14.795
86573W        W52982  19.971  27.781  10.826
86574W        W52983  29.446   4.926  14.489
86575W        W52984  37.942  25.480  10.735
86576W        W52985  37.877  28.021  13.374
86577W        W52986  31.867  41.822  13.363
86578W        W52987  14.698  28.935  14.878
86579W        W52988   6.197  32.170   1.581
86580W        W52989  17.325  42.968   2.893
86581W        W52990  25.630  35.653   0.255
86582W        W52991  23.054  14.319  11.940
86583W        W52992  28.038   6.190  14.216
86584W        W52993   2.304  26.884   2.377
86585W        W52994  23.728  14.804   4.897
86586W        W52995  38.247   4.391  12.739
86587W        W52996  18.807  13.300  13.873
86588W        W52997   0.839  33.576   3.727
86589W        W52998  13.314  34.229  13.302
86590W        W52999  20.738  27.679  14.496
86591W        W53000  41.929  41.976  14.785
86592W        W53001   6.770  27.687  11.779
86593W        W53002  44.475  20.629  14.301
86594W        W53003   4.045  19.615  12.174
86595W        W53004  21.083   3.313  14.104
86596W        W53005  37.263   3.650   1.364
86597W        W53006  24.770  26.783  11.609
86598W        W53007  21.183  17.906   3.213
86599W        W53008  33.873  28.701  12.647
86600W        W53009  44.738   4.504  10.482
86601W        W53010  44.031  15.658  12.478
86602W        W53011   7.081  37.058   1.521
86603W        W53012  16.095   2.822  13.601
86604W        W53013  28.529  15.680   3.625
86605W        W53014   1.946   8.690  13.538
86606W        W53015   8.731   7.652  12.905
86607W        W53016  14.683  30.885  13.780
86608W        W53017   3.083  20.225   4.926
86609W        W53018  27.987  34.877  11.922
86610W        W53019  41.277  19.641   4.205
86611W        W53020  14.637   8.104  14.357
86612W        W53021  11.100  11.149   0.411
86613W        W53022  38.460  15.190  10.227
86614W        W53023  29.215  13.725   2.651
86615W        W53024  14.716   2.725  10.730
86616W        W53025   3.068  15.388  11.265
86617W        W53026   6.717   8.540  10.287
86618W        W53027  34.832   2.879  11.706
86619W        W53028  40.934  38.236   3.184
86620W        W53029   1.945  25.936  12.506
86621W        W53030  18.637  10.068   2.651
86622W        W53031  13.739  31.487  13.082
86623W        W53032  41.003  20.156  12.062
86624W        W53033   1.120  37.048   4.563
86625W        W53034  19.831  19.547   0.401
86626W        W53035  36.316  29.436  14.989
86627W        W53036  38.757  29.335  11.148
86628W        W53037   7.761  36.337  12.159
86629W        W53038  29.035  25.501   1.393
86630W        W53039  42.357  23.582   1.310
86631W        W53040   4.399  11.335  14.378
86632W        W53041  16.233  27.113   0.767
86633W        W53042  13.096  39.858   0.771
86634W        W53043  11.515   0.857  15.000
86635W        W53044  30.529  23.744   2.781
86636W        W53045  15.765  36.778   2.950
86637W        W53046   0.465   5.766  13.750
86638W        W53047   9.879  22.116   4.027
86639W        W53048   3.791  24.563   9.746
86640W        W53049  31.427  42.096  13.480
86641W        W53050   6.321  25.463  11.841
86642W        W53051  24.703  29.090  11.998
86643W        W53052   0.437  33.192   0.242
86644W        W53053  29.104  22.525  11.169
86645W        W53054  11.108  29.041   3.116
86646W        W53055  28.542  11.688   3.273
86647W        W53056  10.327  37.131   1.725
86648W        W53057  44.576  13.644   4.603
86649W        W53058  23.474  44.893  14.997
86650W        W53059  38.768  16.764  11.921
86651W        W53060   1.804  15.490  11.571
86652W        W53061  38.984   2.219  14.931
86653W        W53062  44.360  13.408  11.532
86654W        W53063  26.641   4.857   4.548
86655W        W53064  30.957   0.959   1.822
86656W        W53065  19.330  14.920   4.189
86657W        W53066   6.321  20.077  13.010
86658W        W53067  20.215  29.477   2.200
86659W        W53068  20.204  21.706  13.829
86660W        W53069  41.445  22.223  11.198
86661W        W53070  19.460  35.102  13.760
86662W        W53071  12.248  15.091  13.364
86663W        W53072   6.158  19.598   4.097
86664W        W53073  14.394   3.965   9.843
86665W        W53074  34.865  38.355   3.233
86666W        W53075  17.610   4.389  14.481
86667W        W53076  32.895  44.746  14.431
86668W        W53077   7.841  35.057  14.317
86669W        W53078  25.689  22.717  11.165
86670W        W53079   2.975   0.858   3.659
86671W        W53080   5.698   9.926  12.001
86672W        W53081  35.959  27.029   4.513
86673W        W53082  33.904  26.605  10.188
86674W        W53083  24.838  13.954   4.569
86675W        W53084  43.490  17.090  11.688
86676W        W53085  21.765  29.052  13.905
86677W        W53086  14.269  20.560  13.540
86678W        W53087  20.607  39.332   0.245
86679W        W53088  16.111  20.226   1.849
86680W        W53089  27.219  21.249   5.080
86681W        W53090  20.170   2.405  12.392
86682W        W53091  41.477  16.695  10.620
86683W        W53092  12.221  36.913  13.198
86684W        W53093   6.810  17.239   0.018
86685W        W53094  13.966  31.498  10.250
86686W        W53095  22.501   1.347  14.913
86687W        W53096  24.787  25.637  11.245
86688W        W53097  43.632  17.362   3.523
86689W        W53098   7.659   0.060   1.774
86690W        W53099  12.212  20.826   9.839
86691W        W53100  16.639  28.573  11.471
86692W        W53101  15.876  10.670  12.916
86693W        W53102   2.757   4.218   3.162
86694W        W53103  41.065   8.312   3.756
86695W        W53104   8.766  43.992  12.087
86696W        W53105  19.238   1.784   2.763
86697W        W53106  16.378  35.695  13.044
86698W        W53107  21.528  15.571  14.849
86699W        W53108  28.720  19.333   2.313
86700W        W53109  31.725   7.388  10.940
86701W        W53110  21.765  28.503   1.665
86702W        W53111  33.621   0.802  11.007
86703W        W53112  27.996  22.972   3.704
86704W        W53113   5.526  31.552  12.906
86705W        W53114  34.087   1.142  13.779
86706W        W53115  25.600   6.198   2.650
86707W        W53116   9.613   2.400  14.533
86708W        W53117  12.670  16.689  13.597
86709W        W53118  41.323  22.080  13.769
86710W        W53119  34.416  11.214   1.866
86711W        W53120   6.269  19.862  12.100
86712W        W53121   5.338   2.771  12.918
86713W        W53122   6.832  36.134  11.607
86714W        W53123   4.943  11.927  12.516
86715W        W53124  20.488  30.958   1.783
86716W        W53125  43.855  30.477   3.720
86717W        W53126   4.799  38.347  10.298
86718W        W53127  37.585   5.054  11.304
86719W        W53128  44.572  22.157   0.280
86720W        W53129   6.160  19.104  11.759
86721W        W53130  17.325  32.450   3.748
86722W        W53131  41.296  16.585  12.520
86723W        W53132  29.430  16.551   0.723
86724W        W53133   9.117  28.336   3.277
86725W        W53134   1.299  22.038   2.814
86726W        W53135   4.706  43.798   1.152
86727W        W53136  21.082  34.999   1.395
86728W        W53137  16.317  11.471  13.436
86729W        W53138  33.601  20.329   2.089
86730W        W53139   5.841  22.100   9.678
86731W        W53140  28.093  33.352  11.420
86732W        W53141  25.436   4.605  13.590
86733W        W53142  18.200   0.334   4.467
86734W        W53143  38.658  13.352   0.722
86735W        W53144  32.079   1.302  10.688
86736W        W53145   8.916   3.254   2.235
86737W        W53146   8.332  41.682  11.190
86738W        W53147   6.219  25.817  13.523
86739W        W53148  27.096   7.638  14.552
86740W        W53149  38.970   1.455   2.692
86741W        W53150  13.671  24.135   3.886
86742W        W53151   1.532  25.535  12.583
86743W        W53152   7.233  29.898   4.573
86744W        W53153  33.620  18.290  11.468
86745W        W53154  25.173   7.910  12.863
86746W        W53155  42.238  12.315  10.987
86747W        W53156  14.093  11.300   3.337
86748W        W53157   6.205   5.344  13.071
86749W        W53158  28.401  36.938  11.898
86750W        W53159  36.115  26.956   3.069
86751W        W53160  38.897   4.397   3.630
86752W        W53161  17.715  13.868  13.964
86753W        W53162  40.981  16.721   2.382
86754W        W53163  15.016  38.424   1.242
86755W        W53164  21.470  33.830   4.612
86756W        W53165  13.677   8.183   1.297
86757W        W53166  21.106   0.653  13.556
86758W        W53167   8.851   2.266  13.943
86759W        W53168  27.040  16.603   0.911
86760W        W53169  35.821   7.633  14.974
86761W        W53170   7.317   2.446   0.967
86762W        W53171   7.342  36.074  12.000
86763W        W53172  30.856  36.891  14.453
86764W        W53173  16.284   8.382   0.677
86765W        W53174  23.212  24.468   2.659
86766W        W53175   6.796  30.490  13.064
86767W        W53176  13.114  17.068  12.382
86768W        W53177  42.361  30.666   2.856
86769W        W53178   0.867  34.096  11.625
86770W        W53179   9.661  40.327  11.906
86771W        W53180  36.574  15.216   4.755
86772W        W53181  14.631  41.306   3.593
86773W        W53182  29.697  32.613   2.301
86774W        W53183   2.535  43.987  14.805
86775W        W53184  36.311  36.857   0.898
86776W        W53185   9.752  36.430   2.124
86777W        W53186  34.028  10.750   0.704
86778W        W53187  16.611   8.209   0.299
86779W        W53188  11.111  41.578  10.922
86780W        W53189  28.684  26.315   0.957
86781W        W53190  23.003  13.805   0.932
86782W        W53191  23.723  43.605   1.854
86783W        W53192   3.402  23.689  10.663
86784W        W53193  33.136  23.038   4.407
86785W        W53194  36.527  15.150  14.293
86786W        W53195  36.653  18.827  10.675
86787W        W53196   9.894  14.972   3.347
86788W        W53197  20.805  32.325  10.864
86789W        W53198  25.290  18.763  12.264
86790W        W53199   4.567  30.640  12.507
86791W        W53200  37.404  25.659  14.919
86792W        W53201  25.244  20.657  14.781
86793W        W53202   4.894  29.613   4.652
86794W        W53203   0.660  17.657  12.202
86795W        W53204  22.108  25.281   2.323
86796W        W53205  13.014  10.350   1.050
86797W        W53206  40.167  20.573  10.934
86798W        W53207  32.448  30.164   4.869
86799W        W53208  43.704   4.676  10.052
86800W        W53209  19.830  39.548  14.494
86801W        W53210  12.249  32.678   9.410
86802W        W53211  37.348  35.938   2.228
86803W        W53212  17.546   4.369   4.555
86804W        W53213   2.915  33.592  12.578
86805W        W53214  39.409  18.630   0.511
86806W        W53215  39.524  32.829  11.209
86807W        W53216   9.622  34.117  14.451
86808W        W53217  38.500  40.260  12.412
86809W        W53218  15.203  26.082   3.191
86810W        W53219  21.796  23.171   3.947
86811W        W53220  30.044  40.744  12.506
86812W        W53221  11.341  20.800   3.096
86813W        W53222  29.718  30.959  14.893
86814W        W53223  25.603   0.911  13.590
86815W        W53224  16.178  27.425  14.033
86816W        W53225  17.962  41.768   2.646
86817W        W53226  31.131  38.472   3.106
86818W        W53227   0.744   1.416   2.795
86819W        W53228  11.883  41.867   2.966
86820W        W53229  11.213  32.110   4.104
86821W        W53230  34.451   9.807   1.965
86822W        W53231   8.210  12.658  10.956
86823W        W53232  30.175   5.732  13.045
86824W        W53233  13.326  13.315   3.366
86825W        W53234  25.956  23.665  12.403
86826W        W53235   0.796   2.316  13.442
86827W        W53236   8.446  27.079   0.002
86828W        W53237  14.778  31.365   2.350
86829W        W53238   4.393  28.934   1.433
86830W        W53239   0.463  39.915  12.421
86831W        W53240  37.994  10.426   4.627
86832W        W53241  19.038  24.992  12.991
86833W        W53242  29.222   0.083   3.136
86834W        W53243  37.617   4.776   1.652
86835W        W53244   8.185  28.926   2.162
86836W        W53245  16.041  18.272   9.759
86837W        W53246  18.702   0.904   1.784
86838W        W53247   0.452  14.269  14.167
86839W        W53248  18.073  39.432  12.120
86840W        W53249  37.009  42.483  12.997
86841W        W53250  41.033  14.557   1.275
86842W        W53251   2.985  24.756  11.558
86843W        W53252  42.008  20.415   3.237
86844W        W53253  36.218  39.408   1.217
86845W        W53254  44.019  10.273   2.483
86846W        W53255   6.240   7.861  12.865
86847W        W53256  21.157  40.866   0.187
86848W        W53257  27.924  19.069  10.173
86849W        W53258  35.131  28.438   2.826
86850W        W53259   5.855  34.048   1.334
86851W        W53260  41.561  11.752   0.810
86852W        W53261   8.411   1.948  14.468
86853W        W53262  11.308  19.778  11.437
86854W        W53263   9.401   0.260   4.559
86855W        W53264  33.481  39.974   0.905
86856W        W53265  13.437  16.504   0.565
86857W        W53266  29.923   5.382  11.145
86858W        W53267  30.787  22.515   4.181
86859W        W53268   2.350   0.712   0.283
86860W        W53269  31.739   9.370   3.146
86861W        W53270  14.238   9.428  11.560
86862W        W53271  20.052   3.252   2.273
86863W        W53272   2.106  32.390  13.583
86864W        W53273  37.901   0.793   4.373
86865W        W53274   7.396   6.836  12.612
86866W        W53275  37.288  15.821   4.759
86867W        W53276  28.930   6.295   0.337
86868W        W53277  42.250  38.986   4.646
86869W        W53278   0.729  24.709   2.737
86870W        W53279  24.293  30.877   0.823
86871W        W53280  25.695  21.479  12.485
86872W        W53281  26.036  30.088   3.690
86873W        W53282  30.643   5.299   1.465
86874W        W53283  42.242  38.789   2.635
86875W        W53284  12.689  43.469   0.439
86876W        W53285  10.343  38.372  10.568
86877W        W53286  13.589  19.133  13.860
86878W        W53287   9.224  26.074  12.148
86879W        W53288  14.823   5.965   2.073
86880W        W53289  26.595   0.723  12.984
86881W        W53290  41.283   7.931   3.408
86882W        W53291   9.677  10.809   4.709
86883W        W53292  26.474  43.034  11.616
86884W        W53293  31.878  19.845  11.878
86885W        W53294  13.949   0.023  12.848
86886W        W53295  18.211  23.773   0.401
86887W        W53296  11.873  36.741  13.568
86888W        W53297  32.770   2.966   3.960
86889W        W53298  35.307   4.794  12.792
86890W        W53299   2.894  18.675  14.757
86891W        W53300  29.136  10.503   0.380
86892W        W53301  36.912  39.332  10.746
86893W        W53302  22.094  11.229  13.463
86894W        W53303  38.501  29.927   4.115
86895W        W53304   2.865  30.333   0.342
86896W        W53305  32.139  24.137   1.213
86897W        W53306  40.349   9.284   1.831
86898W        W53307   5.346  25.540  14.353
86899W        W53308   3.077  16.397   3.574
86900W        W53309  41.986  11.566   1.032
86901W        W53310  34.116  10.906  12.834
86902W        W53311  33.288  16.904  11.017
86903W        W53312  18.203  25.734   2.440
86904W        W53313  14.620  36.293  12.010
86905W        W53314   4.853  40.621  11.238
86906W        W53315  26.574   6.414  12.081
86907W        W53316   6.711   5.121   4.779
86908W        W53317  26.926   8.920   2.810
86909W        W53318  43.504  42.581   4.767
86910W        W53319  24.627  13.245   4.135
86911W        W53320  42.836  37.517   1.889
86912W        W53321  38.830  21.674   1.329
86913W        W53322   9.707  42.004  10.915
86914W        W53323   9.835  20.308   3.749
86915W        W53324  19.357   0.817  14.197
86916W        W53325  21.985  19.625  13.919
86917W        W53326  15.192  28.934  14.244
86918W        W53327  44.957  41.441   2.774
86919W        W53328  32.083  26.598   1.402
86920W        W53329  13.446  44.574  12.606
86921W        W53330  15.052   4.945  11.534
86922W        W53331   6.153  20.205  14.884
86923W        W53332  28.517  15.207   3.862
86924W        W53333   5.842  42.566  11.608
86925W        W53334  40.678   7.959  12.341
86926W        W53335  44.212  41.965  14.682
86927W        W53336   5.795  11.193   3.833
86928W        W53337  28.046  11.690   0.987
86929W        W53338  23.508  42.942   2.634
86930W        W53339  36.870  14.247  11.633
86931W        W53340  30.589  18.175   3.268
86932W        W53341  33.639  27.447  12.588
86933W        W53342  14.105  26.194  11.099
86934W        W53343   9.362  34.102  13.709
86935W        W53344   7.151  26.905   4.018
86936W        W53345  24.467  35.475  12.929
86937W        W53346  39.983   2.922   2.012
86938W        W53347  16.346   3.248   3.185
86939W        W53348  31.157  41.489   2.725
86940W        W53349  34.834   4.354  12.019
86941W        W53350  23.196  19.514   5.011
86942W        W53351   7.948  39.011  10.185
86943W        W53352  44.881   0.582   4.752
86944W        W53353  33.890  25.150  10.455
86945W        W53354  40.900  42.977  11.428
86946W        W53355  25.795  41.333  10.416
86947W        W53356  40.522   4.635  11.280
86948W        W53357   2.795  22.194   3.312
86949W        W53358  19.299  10.834  11.140
86950W        W53359   0.727  32.601  13.055
86951W        W53360  34.429  43.463  13.413
86952W        W53361  26.067  32.648   2.679
86953W        W53362  30.392  14.715  14.507
86954W        W53363  35.844  23.801   2.847
86955W        W53364  38.952   7.737  11.099
86956W        W53365  34.761  44.393  10.946
86957W        W53366  21.104  38.818   3.731
86958W        W53367   8.463  10.401   4.082
86959W        W53368  14.551  18.007   0.727
86960W        W53369  26.064   4.708  10.372
86961W        W53370  27.469  38.923   3.826
86962W        W53371  15.380  37.308   0.350
86963W        W53372  16.592  30.680   2.632
86964W        W53373  19.738  27.513   0.944
86965W        W53374  42.216  28.531  11.214
86966W        W53375  37.022   2.983  14.407
86967W        W53376  25.929  35.128   0.883
86968W        W53377   6.118  21.701  13.812
86969W        W53378  26.090   6.479  14.214
86970W        W53379   0.325   0.946   1.633
86971W        W53380  14.668  12.753   0.700
86972W        W53381  35.307   7.483  14.865
86973W        W53382  13.581  10.403  14.306
86974W        W53383  30.188  28.474  14.907
86975W        W53384  34.813  34.769  10.371
86976W        W53385  21.080   2.984  14.857
86977W        W53386  40.311  14.955  12.884
86978W        W53387  34.128  16.633   3.861
86979W        W53388   5.921  11.391   0.885
86980W        W53389  14.734  21.794  13.892
86981W        W53390  43.057  30.273   0.723
86982W        W53391  14.575   2.930   3.497
86983W        W53392  39.080  29.189  11.632
86984W        W53393   9.607  35.757   2.654
86985W        W53394  19.678  32.603  14.966
86986W        W53395  25.286  12.551  13.472
86987W        W53396  23.687  35.117  12.923
86988W        W53397  14.628  41.998   3.294
86989W        W53398  17.128  25.691   4.512
86990W        W53399  32.896  22.256   3.124
86991W        W53400  27.931  44.423  10.475
86992W        W53401  19.225   4.710  11.149
86993W        W53402  39.080  19.591  10.923
86994W        W53403   2.914   7.932  10.621
86995W        W53404  22.496  28.375  14.020
86996W        W53405   2.755  21.698  14.680
86997W        W53406  13.619   3.431   4.241
86998W        W53407   4.828  29.421   3.245
86999W        W53408  12.295  44.943   4.582
87000W        W53409   9.612  12.282  14.887
87001W        W53410   2.092   5.234  11.287
87002W        W53411  44.605  40.067  10.404
87003W        W53412  26.757  21.000   4.105
87004W        W53413  39.495  38.858   3.252
87005W        W53414   0.773  18.666  12.584
87006W        W53415   9.095  14.144  12.383
87007W        W53416  29.565  28.814   9.985
87008W        W53417  18.567  13.625   2.178
87009W        W53418  32.078  26.279  13.843
87010W        W53419  35.912   0.745   3.638
87011W        W53420  30.855   9.865  12.476
87012W        W53421  10.992  44.531  13.920
87013W        W53422   9.687  39.334   4.135
87014W        W53423  12.732  11.162  14.672
87015W        W53424  40.462  14.176  10.208
87016W        W53425   6.249  23.391   0.792
87017W        W53426  26.843  37.789  11.550
87018W        W53427  26.246  23.120   3.125
87019W        W53428  13.286  20.268  13.724
87020W        W53429  30.066  23.499   1.873
87021W        W53430  34.452  28.073   2.897
87022W        W53431  33.010  25.328   4.141
87023W        W53432  11.627  10.205  13.220
87024W        W53433  38.287  25.068  14.427
87025W        W53434  17.057  21.931  11.328
87026W        W53435  30.921  27.992   9.901
87027W        W53436   1.316  30.650   3.216
87028W        W53437   5.780  18.081  12.563
87029W        W53438  25.220   2.838  12.519
87030W        W53439   4.828  42.930  12.102
87031W        W53440   9.626  44.510   4.555
87032W        W53441   1.136  32.029   5.236
87033W        W53442  19.653  35.028  10.953
87034W        W53443  28.534  44.644   2.804
87035W        W53444  28.647  10.100   3.971
87036W        W53445  25.215  26.739   0.535
87037W        W53446  42.995  23.427   4.594
87038W        W53447  43.294  43.400   0.372
87039W        W53448  10.139  28.098  14.543
87040W        W53449   3.794  26.112   3.440
87041W        W53450  26.433  16.009  10.852
87042W        W53451  20.945  26.159  13.504
87043W        W53452  13.515  39.784  11.580
87044W        W53453   5.535  10.357  12.922
87045W        W53454  39.366  43.833   4.676
87046W        W53455  13.963  13.289   0.959
87047W        W53456  25.641  14.912  12.062
87048W        W53457  21.794  26.423  13.294
87049W        W53458   1.520   5.855  13.709
87050W        W53459  18.231  22.342  14.294
87051W        W53460  10.415  13.592   1.268
87052W        W53461  11.829  42.863   4.931
87053W        W53462  40.480  43.374  13.064
87054W        W53463  24.246  39.539  11.628
87055W        W53464   5.421  32.051  12.758
87056W        W53465  39.607  12.586  14.533
87057W        W53466  37.571  28.935   1.484
87058W        W53467  33.395  26.740  12.117
87059W        W53468  37.570  14.208  11.132
87060W        W53469   1.334  31.188   1.694
87061W        W53470  42.825  17.653  14.925
87062W        W53471  19.165  21.291   4.487
87063W        W53472  16.083   0.024  14.052
87064W        W53473  29.542  14.026   3.247
87065W        W53474   7.841  15.873   2.646
87066W        W53475  15.228  24.792   2.612
87067W        W53476  11.256  37.918   0.756
87068W        W53477  23.671  40.985  14.332
87069W        W53478  30.007   3.013   2.699
87070W        W53479  44.681  12.158   4.548
87071W        W53480   7.104  34.896   1.638
87072W        W53481  30.521   7.176   3.965
87073W        W53482  29.757  29.175   0.217
87074W        W53483  28.541  34.453  13.511
87075W        W53484   1.185  15.190  13.444
87076W        W53485  10.617  20.693  14.021
87077W        W53486  39.326  18.590  11.991
87078W        W53487   2.406   7.160   3.184
87079W        W53488   4.729   3.524   2.388
87080W        W53489  36.503  10.019  10.459
87081W        W53490  17.099  28.256  12.989
87082W        W53491  41.133  43.028   2.864
87083W        W53492  39.839  32.721   1.472
87084W        W53493   3.046  41.732  11.900
87085W        W53494  38.016  24.977   1.465
87086W        W53495  44.975  12.286   0.742
87087W        W53496  31.569  15.827  14.037
87088W        W53497   0.963  23.455   4.481
87089W        W53498  15.200   0.402  14.995
87090W        W53499   0.077  44.575  12.386
87091W        W53500   2.822  33.982  12.942
87092W        W53501  24.125  20.613  13.390
87093W        W53502  31.456  19.757   0.064
87094W        W53503  10.173  41.737  14.759
87095W        W53504   2.326   9.303   3.596
87096W        W53505   9.582   9.058   2.183
87097W        W53506  17.693  22.781   3.299
87098W        W53507  41.264  28.043  13.409
87099W        W53508  37.073   5.595  10.456
87100W        W53509   6.121  29.841   2.722
87101W        W53510  39.930  27.755   0.973
87102W        W53511  29.164  11.175   0.903
87103W        W53512  13.706   4.648   0.748
87104W        W53513  22.476  34.452   0.023
87105W        W53514  40.086   1.989   0.860
87106W        W53515   8.124  20.004  10.348
87107W        W53516  17.042   1.512   0.696
87108W        W53517  13.551  16.371   1.874
87109W        W53518  24.905  41.432  14.798
87110W        W53519  43.071  41.603   5.163
87111W        W53520   0.137  24.938  11.587
87112W        W53521  30.300   3.509   4.477
87113W        W53522  27.948   2.290   0.311
87114W        W53523   1.837  28.507   5.027
87115W        W53524   2.124  27.205  11.263
87116W        W53525  17.840  12.360  13.099
87117W        W53526  35.007  28.694   0.089
87118W        W53527  40.370  43.946   2.145
87119W        W53528  41.909  42.487  14.964
87120W        W53529  17.663  39.836  10.737
87121W        W53530  15.279  13.841  10.690
87122W        W53531   8.768   5.462   2.245
87123W        W53532  21.787   9.642  11.171
87124W        W53533   4.956  30.425   0.823
87125W        W53534  16.059  40.531  13.849
87126W        W53535   8.853  19.431  12.390
87127W        W53536  32.177  10.435   4.522
87128W        W53537   5.595  20.265  13.309
87129W        W53538  10.102   3.965  12.591
87130W        W53539  12.240  38.055  14.471
87131W        W53540  33.134  23.655  13.504
87132W        W53541  11.914  31.538   0.807
87133W        W53542   5.582   1.504  12.237
87134W        W53543   9.373   2.208  14.077
87135W        W53544  27.240  20.132   4.427
87136W        W53545   6.038   9.499  11.898
87137W        W53546  40.401  33.646  10.775
87138W        W53547  18.862  26.164   2.002
87139W        W53548  25.222  34.020   4.100
87140W        W53549  27.627  26.998   1.223
87141W        W53550   4.377  39.930  13.824
87142W        W53551  30.589  29.665  11.609
87143W        W53552  38.979   1.980   2.743
87144W        W53553  43.449   7.138   0.811
87145W        W53554  32.651   6.762   0.903
87146W        W53555  33.900  22.740  13.861
87147W        W53556  39.855  28.501   2.214
87148W        W53557  39.803  11.676   2.887
87149W        W53558  39.813  18.854   1.504
87150W        W53559  19.379  16.611   0.846
87151W        W53560   8.132   4.195   1.758
87152W        W53561   1.329  15.526  11.174
87153W        W53562  23.618  29.760   1.743
87154W        W53563   7.234  13.680   1.399
87155W        W53564  33.936  39.026   0.179
87156W        W53565  30.352  19.630  10.715
87157W        W53566  35.033  26.065   0.222
87158W        W53567   5.126   8.986   3.938
87159W        W53568  19.590  18.214  11.766
87160W        W53569  37.568  24.164   0.495
87161W        W53570  26.479  14.207  12.350
87162W        W53571  30.912  29.434   1.719
87163W        W53572   2.819  17.963  11.040
87164W        W53573  38.346   0.812   1.325
87165W        W53574  37.308  38.080   3.237
87166W        W53575  15.961  21.918  12.116
87167W        W53576  30.387  11.095  13.890
87168W        W53577  29.028  44.998   3.615
87169W        W53578  33.537  30.444  13.690
87170W        W53579  32.620  18.002   4.729
87171W        W53580   9.798  26.685  10.963
87172W        W53581  43.744  12.597  11.762
87173W        W53582  31.985   1.427   0.241
87174W        W53583  31.952  16.912  11.809
87175W        W53584  38.723  44.963   2.392
87176W        W53585  11.585  10.691  11.057
87177W        W53586  34.406  34.770  11.127
87178W        W53587  14.308   9.449   3.210
87179W        W53588   5.377   9.148   2.323
87180W        W53589  14.150  18.156   5.174
87181W        W53590  29.092   3.542  11.507
87182W        W53591  21.415  16.839   4.253
87183W        W53592   2.644   8.112  14.503
87184W        W53593  34.207  10.779  14.257
87185W        W53594  42.872  34.780  12.434
87186W        W53595  20.593  37.611   3.424
87187W        W53596  29.712   4.488  12.155
87188W        W53597   6.263  17.232   4.848
87189W        W53598  26.248  21.081   2.796
87190W        W53599  29.106  40.235  13.218
87191W        W53600  35.012  24.753  13.503
87192W        W53601   1.683   4.156   0.612
87193W        W53602  37.108  36.424  14.379
87194W        W53603  24.549  13.148  11.538
87195W        W53604  18.347  17.303   4.517
87196W        W53605  30.260   2.512   1.495
87197W        W53606  17.136  30.924  12.887
87198W        W53607   1.727  12.757   0.847
87199W        W53608  43.523  39.331  14.918
87200W        W53609  35.534   3.249   3.045
87201W        W53610   3.553  13.771   3.435
87202W        W53611  30.581  33.829   0.888
87203W        W53612  11.659  25.682   0.635
87204W        W53613   3.848  24.019  13.758
87205W        W53614  34.538  27.479   1.410
87206W        W53615  26.813  42.693   5.037
87207W        W53616  37.740  43.982   0.252
87208W        W53617  42.178  32.626   4.695
87209W        W53618  12.213  37.228  10.912
87210W        W53619   4.373   3.463  14.334
87211W        W53620  22.421  36.702  11.843
87212W        W53621  35.974   6.421  14.364
87213W        W53622  18.230   3.474   1.951
87214W        W53623  39.328  38.898  12.992
87215W        W53624  19.556  16.789  14.412
87216W        W53625  21.513   7.882   4.277
87217W        W53626  21.223  43.053  11.491
87218W        W53627   9.071  13.029  10.975
87219W        W53628  40.488  30.160   1.842
87220W        W53629  36.315   7.293  14.230
87221W        W53630  20.704  38.743   1.794
87222W        W53631  10.208   3.308  11.521
87223W        W53632  29.386  42.338   4.862
87224W        W53633  18.184  38.720  13.468
87225W        W53634  11.271   0.386  12.464
87226W        W53635  40.036  42.060   0.256
87227W        W53636  24.409  18.670  12.458
87228W        W53637  13.185  25.211  13.794
87229W        W53638  35.085  39.785  13.861
87230W        W53639  31.450  24.149  13.035
87231W        W53640  40.861  10.566   2.789
87232W        W53641  26.677   4.333  11.929
87233W        W53642   0.393  24.193   1.315
87234W        W53643  13.628  29.022  13.781
87235W        W53644  17.303  37.209   5.089
87236W        W53645   2.702  27.174  13.367
87237W        W53646  11.709  11.026   3.791
87238W        W53647   5.839  14.009   2.780
87239W        W53648  28.581  32.494  11.961
87240W        W53649  33.405  35.641   1.910
87241W        W53650  36.880  40.084  11.218
87242W        W53651  38.377   1.931  10.712
87243W        W53652  44.970  28.039   3.284
87244W        W53653   6.218  20.851   4.577
87245W        W53654  33.973  44.704  10.617
87246W        W53655  16.274  38.827   0.971
87247W        W53656  44.196   3.323  12.434
87248W        W53657  35.503  23.677   4.737
87249W        W53658  43.497  17.047   4.181
87250W        W53659   4.372  40.972   2.836
87251W        W53660  13.417   9.457  12.552
87252W        W53661  35.405  40.798   2.047
87253W        W53662  24.127  16.685   3.581
87254W        W53663   9.715  42.277   4.268
87255W        W53664  37.568  21.058   2.737
87256W        W53665  40.949   9.385  12.760
87257W        W53666  19.577  33.160  13.109
87258W        W53667  21.523  25.365  11.567
87259W        W53668   8.614  44.730   3.162
87260W        W53669  30.085   9.586  14.323
87261W        W53670  31.485  20.037  11.130
87262W        W53671  35.135  19.434   1.775
87263W        W53672  38.858  16.247  10.648
87264W        W53673  26.264  26.172  12.487
87265W        W53674  15.655  29.138  14.139
87266W        W53675  36.265  44.447  12.659
87267W        W53676  31.944  27.945  14.579
87268W        W53677  36.999  19.801  14.868
87269W        W53678   7.533  26.743  11.160
87270W        W53679   6.908  42.706  12.301
87271W        W53680  12.749  21.475   5.007
87272W        W53681  13.484  33.504  14.433
87273W        W53682  42.691  10.865  10.597
87274W        W53683  26.168  44.050   2.430
87275W        W53684  22.279   3.892   2.678
87276W        W53685  30.047  22.524  11.514
87277W        W53686  20.595  25.703   0.793
87278W        W53687  23.258  13.152   0.907
87279W        W53688  29.458   7.203  11.509
87280W        W53689  39.239  39.907  10.974
87281W        W53690  14.754  19.067  11.968
87282W        W53691  39.754  10.607  11.996
87283W        W53692  14.731  42.975  11.880
87284W        W53693  26.917  27.327  12.607
87285W        W53694  37.586   2.245   4.519
87286W        W53695  16.391  17.381  11.134
87287W        W53696   9.429  26.102  13.964
87288W        W53697  39.963  29.736  11.562
87289W        W53698  20.213  41.873   2.274
87290W        W53699  13.199  30.137  12.868
87291W        W53700  42.412  41.104  12.536
87292W        W53701   7.860  11.739  14.494
87293W        W53702  28.994  22.168   2.400
87294W        W53703  16.703  28.652  12.381
87295W        W53704  23.019   2.444   3.533
87296W        W53705  20.513   5.699   2.275
87297W        W53706  17.761  18.023  11.955
87298W        W53707  19.006  39.268   1.937
87299W        W53708  25.052  20.251   0.251
87300W        W53709   7.150  21.057   0.852
87301W        W53710  18.827  23.301   1.759
87302W        W53711  21.668  32.733   1.194
87303W        W53712  31.686  21.742   2.683
87304W        W53713  44.492  27.617   2.209
87305W        W53714  32.869   1.230   3.745
87306W        W53715   4.388  19.203  10.499
87307W        W53716  13.372  18.963  10.202
87308W        W53717   4.401  28.474   2.787
87309W        W53718  22.434  32.487   2.768
87310W        W53719  43.432  28.161   2.951
87311W        W53720  39.188  38.262   0.882
87312W        W53721  23.194  41.986   3.279
87313W        W53722  24.973   7.228  12.582
87314W        W53723   4.999  38.646   0.184
87315W        W53724  11.159  34.618  13.980
87316W        W53725  31.865  32.764  11.139
87317W        W53726  23.716   1.459   4.236
87318W        W53727  26.963  30.015  13.508
87319W        W53728  26.254  42.789   2.399
87320W        W53729   7.406  42.426  11.953
87321W        W53730  33.589   7.887  13.909
87322W        W53731  30.400  26.050   3.127
87323W        W53732   8.179   0.359  14.313
87324W        W53733  18.059  32.976   0.826
87325W        W53734  19.449  32.149  14.250
87326W        W53735   0.334  20.819   9.944
87327W        W53736   4.664  25.925   2.510
87328W        W53737   5.288  15.934  11.688
87329W        W53738  35.638  40.286   4.433
87330W        W53739  20.175  31.307  11.160
87331W        W53740  33.817  30.991  13.754
87332W        W53741  27.637  27.584  14.616
87333W        W53742  40.948   5.835   4.388
87334W        W53743  30.498  20.248   4.239
87335W        W53744   3.737  29.721  14.002
87336W        W53745  32.343  32.944  12.516
87337W        W53746  20.950  17.043   3.383
87338W        W53747  38.459  24.285   3.316
87339W        W53748  32.300  27.445   3.595
87340W        W53749  24.733  39.524  14.999
87341W        W53750  27.641   4.804   3.326
87342W        W53751   9.029  39.384   0.432
87343W        W53752  33.160  35.673  11.436
87344W        W53753  26.524   2.329   4.678
87345W        W53754  37.463   8.973   2.035
87346W        W53755  17.272  29.887  11.737
87347W        W53756  10.846   7.306  13.956
87348W        W53757   8.027  24.674  12.088
87349W        W53758   7.723  32.559   9.739
87350W        W53759  38.466  18.187  14.410
87351W        W53760  29.555  18.553   1.301
87352W        W53761  18.712  38.744  11.034
87353W        W53762   1.261  38.494  11.633
87354W        W53763  22.966  44.989   0.072
87355W        W53764  17.904  15.524   1.327
87356W        W53765   0.482  10.971  13.287
87357W        W53766  28.501  11.339  11.784
87358W        W53767  18.986  40.635   0.115
87359W        W53768  10.114  30.677   1.003
87360W        W53769   6.964  31.631   3.246
87361W        W53770  32.143  26.487  11.046
87362W        W53771   5.914  30.619  14.604
87363W        W53772  19.389  36.499   1.383
87364W        W53773  38.837  15.790  14.257
87365W        W53774  22.253   4.964  13.790
87366W        W53775  26.753  15.030  11.210
87367W        W53776   4.539   5.310   3.413
87368W        W53777  23.999  36.930  13.510
87369W        W53778  29.559  34.003   2.910
87370W        W53779  10.645  15.566  12.385
87371W        W53780   5.309  16.013  13.966
87372W        W53781  20.752  10.704   3.904
87373W        W53782   7.960  28.449  12.512
87374W        W53783  25.703  31.225   0.179
87375W        W53784   1.626  42.791  14.023
87376W        W53785  13.312  25.218   4.188
87377W        W53786  34.825   9.247  10.710
87378W        W53787  16.753  20.590  12.408
87379W        W53788  35.253  26.762   3.376
87380W        W53789  31.278  34.652  13.188
87381W        W53790   6.724  16.346   2.326
87382W        W53791   7.909  29.164  13.703
87383W        W53792  14.127  17.374   4.996
87384W        W53793   9.322  38.843   4.164
87385W        W53794  23.067  41.819  11.589
87386W        W53795  26.003  12.473   2.216
87387W        W53796  35.995  43.165  14.090
87388W        W53797  28.016  13.837  14.977
87389W        W53798  15.605  13.940   0.213
87390W        W53799  21.282  22.705  11.710
87391W        W53800  37.368   0.243   2.678
87392W        W53801  44.378   9.732  13.842
87393W        W53802  18.196  22.180   1.085
87394W        W53803  10.673  31.530  13.169
87395W        W53804  34.556  40.740  11.170
87396W        W53805  27.233  11.755  13.904
87397W        W53806  44.521  15.557  12.617
87398W        W53807   0.475  16.935  13.061
87399W        W53808  44.266  20.303  12.011
87400W        W53809   3.725  44.396  14.184
87401W        W53810  35.889  41.147  11.632
87402W        W53811  29.906  35.802   2.804
87403W        W53812  34.956  29.183   0.315
87404W        W53813  28.117   0.844   4.627
87405W        W53814  41.498  38.874   3.823
87406W        W53815  43.287  33.140   0.819
87407W        W53816  36.408  26.378  14.120
87408W        W53817  41.001  28.558   2.347
87409W        W53818  15.610   2.554  12.510
87410W        W53819  20.973  18.723   2.124
87411W        W53820  25.150  38.376   4.641
87412W        W53821  36.622   1.965  12.410
87413W        W53822   7.822  44.603   2.686
87414W        W53823   1.068  20.196  12.989
87415W        W53824   1.502  44.411   3.211
87416W        W53825  36.247   7.365  14.813
87417W        W53826   0.788  33.944   2.248
87418W        W53827  21.597  39.647  13.227
87419W        W53828  21.899  17.106  13.040
87420W        W53829  42.776  14.434  14.581
87421W        W53830  11.386  27.515  14.841
87422W        W53831  31.523   3.049  13.003
87423W        W53832  35.019  34.776  11.590
87424W        W53833   5.298   6.420   1.703
87425W        W53834   7.940   7.172  11.581
87426W        W53835  29.191   7.069   3.064
87427W        W53836   8.881  37.815   3.706
87428W        W53837  13.314  12.557   4.134
87429W        W53838   1.609  44.340  12.098
87430W        W53839   9.360  24.981   0.211
87431W        W53840  27.174  20.614   4.271
87432W        W53841  24.812   5.263   2.318
87433W        W53842  31.533  24.923  11.629
87434W        W53843   9.825  42.754  12.950
87435W        W53844  33.178  29.572  13.514
87436W        W53845  40.887   3.399   0.553
87437W        W53846  24.424  12.226  14.285
87438W        W53847  32.156   9.241  12.498
87439W        W53848  12.763  43.462   3.839
87440W        W53849  43.886  23.943  13.356
87441W        W53850  25.753  15.008  11.198
87442W        W53851  43.858  34.417  13.620
87443W        W53852  31.493  11.771  11.804
87444W        W53853  44.347  14.094   0.307
87445W        W53854   7.343  43.285   3.193
87446W        W53855  22.981  38.423  11.118
87447W        W53856  21.038  31.509  10.867
87448W        W53857  10.837  37.009   1.872
87449W        W53858  44.037  24.224  14.743
87450W        W53859  31.888  41.855  12.456
87451W        W53860   4.922  38.609   2.933
87452W        W53861  32.817  43.952   4.556
87453W        W53862  41.534  25.081  13.088
87454W        W53863   4.805  25.804   1.427
87455W        W53864  44.123  10.451   4.990
87456W        W53865  33.408  18.237  10.564
87457W        W53866   0.796  13.850   0.877
87458W        W53867  31.549  17.064   2.756
87459W        W53868  34.353  19.985   0.890
87460W        W53869  29.106   7.396  12.005
87461W        W53870  16.216  27.477   0.417
87462W        W53871   3.449   4.846  11.733
87463W        W53872  37.867   1.537  14.993
87464W        W53873   5.098  19.860   0.798
87465W        W53874  33.075  11.176  14.624
87466W        W53875  43.066  25.281  10.736
87467W        W53876  33.411  43.068   2.643
87468W        W53877  13.557  15.715  13.083
87469W        W53878  31.562  35.300   1.862
87470W        W53879  44.373  34.996  10.936
87471W        W53880   1.563  42.970   0.892
87472W        W53881  11.739  40.364  12.541
87473W        W53882  23.740   8.075   2.013
87474W        W53883  39.790  41.297   2.411
87475W        W53884  29.885  32.339   4.616
87476W        W53885  13.655  31.403  14.369
87477W        W53886  29.679  39.451   0.444
87478W        W53887   3.192  31.991   1.712
87479W        W53888   2.519  20.137   2.747
87480W        W53889  24.989  41.956  14.866
87481W        W53890  34.412   9.356  11.012
87482W        W53891   9.720  20.375  13.680
87483W        W53892  13.449  10.292   1.959
87484W        W53893  14.536  11.082  11.003
87485W        W53894  40.799   5.046  12.129
87486W        W53895  16.504   3.436  14.084
87487W        W53896  27.995  15.793  12.085
87488W        W53897  34.587   7.649  13.886
87489W        W53898   2.311   4.940  12.414
87490W        W53899   6.009  20.759   0.332
87491W        W53900  43.416  26.463  11.521
87492W        W53901  18.270   0.262  12.810
87493W        W53902  40.196  36.966   0.965
87494W        W53903   7.222  27.451  11.969
87495W        W53904   5.267  40.223   9.917
87496W        W53905   3.204  24.175  11.961
87497W        W53906  37.873  30.090  10.475
87498W        W53907  29.968  21.615   3.789
87499W        W53908  40.550  35.522  13.964
87500W        W53909  40.804  44.249  14.931
87501W        W53910  11.509  19.066  13.364
87502W        W53911  23.966  18.719   4.833
87503W        W53912  40.053  22.880   3.703
87504W        W53913  36.098   4.673   2.115
87505W        W53914  21.683  10.148  14.778
87506W        W53915   2.887   3.174  12.158
87507W        W53916  22.577  21.054   4.373
87508W        W53917  13.489  31.388  11.014
87509W        W53918  10.176  18.213  10.817
87510W        W53919   4.350  29.131  13.130
87511W        W53920   8.189   0.726  11.241
87512W        W53921   9.120   0.498   1.820
87513W        W53922  12.135  16.409   4.098
87514W        W53923  31.431  36.081   0.633
87515W        W53924  30.200  23.647   0.302
87516W        W53925  10.226  20.174  13.576
87517W        W53926  18.266  22.177   3.331
87518W        W53927  42.300  32.175   3.848
87519W        W53928  30.932   1.329   2.249
87520W        W53929   5.794  18.133  10.662
87521W        W53930  21.016  18.642  10.734
87522W        W53931  26.200  21.605   2.302
87523W        W53932  24.206   9.976   2.371
87524W        W53933  22.674   5.460  11.235
87525W        W53934   6.172   9.891   0.363
87526W        W53935  34.162  44.971   2.387
87527W        W53936   6.317  10.850   1.547
87528W        W53937   6.354  10.861   0.292
87529W        W53938   5.205  26.604   2.430
87530W        W53939  41.386   8.888  13.447
87531W        W53940   4.862  36.901  11.461
87532W        W53941  11.091   9.280   2.738
87533W        W53942  28.754   4.374   4.035
87534W        W53943  11.914  41.536   5.050
87535W        W53944  14.067  10.345  14.453
87536W        W53945  33.786  33.304  11.665
87537W        W53946  17.646  17.338   4.390
87538W        W53947  22.502  17.631   2.619
87539W        W53948  39.911  28.244  10.701
87540W        W53949  29.266  20.722   3.581
87541W        W53950   4.810  26.696  10.746
87542W        W53951  32.911  27.578  14.828
87543W        W53952  32.842   9.062   0.939
87544W        W53953  31.962  15.704  13.501
87545W        W53954  24.261   6.219  14.520
87546W        W53955   7.951  31.187   0.520
87547W        W53956  31.906  34.138   1.196
87548W        W53957   1.377   9.335   5.200
87549W        W53958  34.449  35.571  14.011
87550W        W53959   9.371  40.099  14.839
87551W        W53960  19.815   5.889   2.817
87552W        W53961  14.577   1.799   1.928
87553W        W53962  44.519  10.714  14.509
87554W        W53963  31.391  30.993  14.454
87555W        W53964  27.558   7.364  10.310
87556W        W53965  13.179  36.421   3.947
87557W        W53966   8.182  13.605   4.522
87558W        W53967  41.058  23.669  11.712
87559W        W53968  44.409   7.862  10.253
87560W        W53969  25.197  10.399   3.299
87561W        W53970  28.500  18.407  11.301
87562W        W53971   6.443   6.683   1.014
87563W        W53972  38.094  37.899   2.546
87564W        W53973   3.790  16.207  12.125
87565W        W53974  31.614  25.869   0.655
87566W        W53975  15.204  39.477   1.445
87567W        W53976  42.386  35.849  10.814
87568W        W53977  10.355  23.391  11.084
87569W        W53978  29.105  25.725   4.366
87570W        W53979  15.566  17.036  10.051
87571W        W53980  38.329  17.353   2.711
87572W        W53981  42.152   3.461  12.488
87573W        W53982   8.084  40.757  11.096
87574W        W53983  20.721  35.345   1.220
87575W        W53984  19.311  44.790  12.313
87576W        W53985   0.491  25.971   1.697
87577W        W53986  36.659  40.064   1.800
87578W        W53987   2.445   3.051   3.777
87579W        W53988  15.222  18.786   1.736
87580W        W53989   1.469   9.370  13.902
87581W        W53990  33.165  25.036   3.743
87582W        W53991  17.408  28.050   2.235
87583W        W53992  24.654   9.414   4.005
87584W        W53993  37.851  37.672   4.139
87585W        W53994   8.213   5.067   1.469
87586W        W53995   4.254  22.642  13.481
87587W        W53996  35.070  23.232  10.422
87588W        W53997   8.584  33.141   2.133
87589W        W53998  20.927  23.502   3.629
87590W        W53999  12.798  27.444   3.539
87591W        W54000  16.276  43.772  12.482
87592W        W54001   7.124  26.230   0.467
87593W        W54002   0.262  34.089   1.274
87594W        W54003  24.524   2.928  13.370
87595W        W54004  36.181  20.986   1.207
87596W        W54005  44.674  19.897  13.876
87597W        W54006  36.984   9.188   3.293
87598W        W54007  20.443  30.489  11.571
87599W        W54008  39.288  13.255   4.158
87600W        W54009  21.314  19.194  11.062
87601W        W54010  42.040   4.855  14.727
87602W        W54011  36.954  14.677  13.912
87603W        W54012  33.797  41.424  11.624
87604W        W54013   2.969  44.014   3.087
87605W        W54014  44.312  32.426  10.417
87606W        W54015  19.317  37.364   0.249
87607W        W54016  17.803  29.844  11.709
87608W        W54017  36.883  16.078   2.553
87609W        W54018  14.398  17.382  10.741
87610W        W54019  11.569  10.166   4.401
87611W        W54020  22.145  10.273   0.530
87612W        W54021  26.518  42.654  11.959
87613W        W54022  40.015  44.986   1.476
87614W        W54023  35.308   8.731   4.052
87615W        W54024  33.530  23.899  11.102
87616W        W54025  42.423  21.599   3.769
87617W        W54026  19.780  13.383   3.685
87618W        W54027   7.326   8.072   0.247
87619W        W54028  12.234  37.761   2.770
87620W        W54029  22.933  28.598  11.212
87621W        W54030  39.561   3.607   0.005
87622W        W54031   5.419  12.097  12.535
87623W        W54032  34.634  35.458   0.420
87624W        W54033  38.337  22.618  12.898
87625W        W54034  14.576   9.291   2.779
87626W        W54035  31.442  14.293   0.192
87627W        W54036  31.097  41.691  14.764
87628W        W54037  23.233  37.147  10.682
87629W        W54038  41.238  23.706   2.255
87630W        W54039  23.202  42.764   0.743
87631W        W54040  17.375  15.773  11.278
87632W        W54041  37.009  29.739   2.783
87633W        W54042  38.239   7.925   1.264
87634W        W54043  40.796  37.322  11.089
87635W        W54044  33.568   3.486   0.399
87636W        W54045  14.739   7.870  13.491
87637W        W54046  13.117  16.573  13.399
87638W        W54047   1.722  41.026   1.309
87639W        W54048  13.812  11.904   4.185
87640W        W54049  12.619  28.449  10.682
87641W        W54050   9.694  17.607  13.276
87642W        W54051   3.411  23.231  12.018
87643W        W54052  13.545  18.068   4.385
87644W        W54053  10.230   6.191  12.543
87645W        W54054  39.728  34.252   2.760
87646W        W54055  37.099  22.179  14.653
87647W        W54056   6.993   4.877  14.785
87648W        W54057  27.094   5.695   0.044
87649W        W54058  21.411  42.982  13.935
87650W        W54059  32.617  24.050   4.843
87651W        W54060  24.072  34.636   0.789
87652W        W54061  26.681  34.519  14.835
87653W        W54062   9.271  28.638  12.315
87654W        W54063  15.719   6.161  12.801
87655W        W54064   3.411  35.874  13.901
87656W        W54065   3.074  42.535  13.513
87657W        W54066  42.377  22.009   0.841
87658W        W54067  37.435  41.227   3.561
87659W        W54068  17.430  13.730  10.920
87660W        W54069  44.152   4.082  14.065
87661W        W54070  29.673   5.619  13.394
87662W        W54071  16.777  41.118   1.049
87663W        W54072  36.164  24.894  13.638
87664W        W54073   2.296   7.325  10.747
87665W        W54074   1.753  26.605   4.407
87666W        W54075   3.081  33.529  14.377
87667W        W54076  17.665  20.290  12.052
87668W        W54077  35.967  37.321  12.357
87669W        W54078  17.530   1.124  13.077
87670W        W54079   8.213  11.095   2.213
87671W        W54080  30.013  10.439   2.324
87672W        W54081  11.522  36.445  13.867
87673W        W54082   8.145  15.706   3.395
87674W        W54083  35.652  39.077  14.378
87675W        W54084  11.390  29.333  14.039
87676W        W54085  17.607   5.297  10.907
87677W        W54086  39.755  30.479   4.818
87678W        W54087  17.990  18.210   4.058
87679W        W54088  34.617  21.510  10.767
87680W        W54089   4.839  24.994  11.176
87681W        W54090  30.643  27.556   0.156
87682W        W54091   7.286   5.745  13.300
87683W        W54092  39.507   8.013  13.683
87684W        W54093  26.958   3.925  11.643
87685W        W54094   9.399  13.132   0.423
87686W        W54095   0.737  39.494   1.052
87687W        W54096  18.513  24.568   1.262
87688W        W54097  28.015  14.748  11.247
87689W        W54098  34.431  20.628   1.482
87690W        W54099  13.395   6.920  11.950
87691W        W54100  37.741  21.701  13.869
87692W        W54101  14.836  35.785   3.375
87693W        W54102  18.702   7.052   3.711
87694W        W54103  32.783  39.828   4.379
87695W        W54104  25.159   5.016  11.140
87696W        W54105   1.823  36.848  10.856
87697W        W54106   8.230  41.210   1.907
87698W        W54107  13.544  16.965  10.348
87699W        W54108  18.101  19.535  12.721
87700W        W54109  13.676  42.203  14.388
87701W        W54110  42.387  11.804   4.898
87702W        W54111   7.769  10.452  11.226
87703W        W54112  32.133  12.596  11.567
87704W        W54113   6.210  34.874   1.493
87705W        W54114   0.205   6.700  13.427
87706W        W54115  35.672  19.698   0.041
87707W        W54116  22.309  36.001   3.198
87708W        W54117  10.774   6.096  13.895
87709W        W54118  24.654  18.577   2.701
87710W        W54119  35.787  27.577  14.435
87711W        W54120   9.039   8.483   3.718
87712W        W54121  19.080  12.691  13.574
87713W        W54122   6.884  11.364   3.193
87714W        W54123  17.165   6.351  10.171
87715W        W54124  16.125  43.540   0.176
87716W        W54125  10.905  38.988  12.498
87717W        W54126  10.799  42.393   4.207
87718W        W54127  17.253  35.378   3.268
87719W        W54128  25.718  17.361  14.905
87720W        W54129  22.222   4.789   1.568
87721W        W54130  30.587   0.018   0.202
87722W        W54131  37.400  42.110   2.349
87723W        W54132   3.613  17.642   1.362
87724W        W54133  32.791  35.361  14.932
87725W        W54134   0.513  41.927  14.004
87726W        W54135  44.422  32.084  12.733
87727W        W54136  24.100  36.271   0.425
87728W        W54137   6.862  20.626  12.504
87729W        W54138  39.028   7.869   1.735
87730W        W54139  41.337  27.114   0.354
87731W        W54140   5.001   4.403  12.944
87732W        W54141  14.864   8.366   1.841
87733W        W54142  11.683  20.485   0.223
87734W        W54143   9.653  19.872  13.795
87735W        W54144   1.803  16.804   2.288
87736W        W54145  37.635   9.291  13.405
87737W        W54146  17.273   8.100  12.721
87738W        W54147  25.670  40.831  12.043
87739W        W54148  38.870   0.367   3.477
87740W        W54149   2.934  16.320  14.258
87741W        W54150  18.654  21.927  10.248
87742W        W54151  41.402  34.109  11.183
87743W        W54152  39.537  31.198   3.622
87744W        W54153  37.367   1.416  14.346
87745W        W54154   1.000  39.326  11.094
87746W        W54155  25.186  29.034   0.792
87747W        W54156  42.474  20.717   1.519
87748W        W54157  21.290  39.898  10.992
87749W        W54158  39.955   5.406   1.724
87750W        W54159  17.129  41.754  14.341
87751W        W54160   3.754   2.303  14.992
87752W        W54161  27.899  23.593   3.367
87753W        W54162   7.405  31.552  11.619
87754W        W54163  27.516   4.336  13.970
87755W        W54164   3.469  29.206  11.374
87756W        W54165  20.470  29.863   3.162
87757W        W54166  22.075  12.659   2.181
87758W        W54167   3.810  43.296   4.992
87759W        W54168  26.033  42.562  13.421
87760W        W54169   5.410  23.125  13.461
87761W        W54170  18.157   0.410  10.950
87762W        W54171  41.735   7.729   3.553
87763W        W54172  17.430  33.692  10.323
87764W        W54173  10.691   0.489   1.841
87765W        W54174  15.741  31.973   1.871
87766W        W54175   3.402   4.677  14.765
87767W        W54176  19.808  23.152   4.247
87768W        W54177  28.429  21.680   0.393
87769W        W54178  38.057  26.957  12.403
87770W        W54179   3.240   0.460   3.852
87771W        W54180  29.826  10.416   1.079
87772W        W54181  18.136  21.548  11.946
87773W        W54182  34.646  13.585  11.527
87774W        W54183  26.737  27.051  12.217
87775W        W54184  26.180  20.159   2.703
87776W        W54185  39.936  44.030  11.649
87777W        W54186  19.677  40.594  12.078
87778W        W54187  27.236  24.859  10.438
87779W        W54188  25.769  36.924   3.109
87780W        W54189  23.930  24.456  14.286
87781W        W54190  29.249  33.444   1.774
87782W        W54191  12.803  23.712  12.218
87783W        W54192  29.541   6.362   1.429
87784W        W54193   9.834  25.116   5.149
87785W        W54194   1.298  43.217   3.247
87786W        W54195  42.694  31.633   2.123
87787W        W54196  36.398  26.542  11.761
87788W        W54197  31.562  36.040  14.976
87789W        W54198   9.835  41.443  13.857
87790W        W54199  18.253  26.205   1.453
87791W        W54200  18.033  42.333  11.596
87792W        W54201  31.883  14.548  11.602
87793W        W54202  35.461  43.337  12.903
87794W        W54203  27.777  28.178   0.341
87795W        W54204   0.562  26.727  13.616
87796W        W54205  17.195   2.029  13.003
87797W        W54206  31.994   1.668  12.894
87798W        W54207  43.384  10.640   1.938
87799W        W54208   6.148   0.276  13.380
87800W        W54209  38.809  17.779   2.084
87801W        W54210  35.354  13.127  13.615
87802W        W54211   2.974  23.538  10.960
87803W        W54212   8.641  19.336   3.321
87804W        W54213  16.732  33.100   3.574
87805W        W54214  21.484  33.134   1.451
87806W        W54215  10.422  23.229  14.547
87807W        W54216  18.272  20.973   3.397
87808W        W54217  22.536  20.030   4.607
87809W        W54218  30.010  43.970   0.444
87810W        W54219  10.872  16.125   4.695
87811W        W54220  33.123  26.792   3.915
87812W        W54221  33.722  15.580  14.016
87813W        W54222  43.798  36.973   1.038
87814W        W54223  42.195  28.972  12.409
87815W        W54224  31.839  15.854   3.743
87816W        W54225   4.999   6.333  14.895
87817W        W54226  31.969  41.196   0.769
87818W        W54227  36.128  31.683   1.328
87819W        W54228  12.114  33.551   0.028
87820W        W54229   9.720   7.280   3.319
87821W        W54230  42.772  30.691   0.891
87822W        W54231  17.201  22.650   3.392
87823W        W54232   9.611  26.974  10.209
87824W        W54233  13.309  13.686  10.946
87825W        W54234  23.076  34.187  13.172
87826W        W54235   8.327  12.281   0.069
87827W        W54236  28.061  14.157  12.677
87828W        W54237  31.960  15.823   3.180
87829W        W54238  39.897   3.411  11.425
87830W        W54239  18.241   2.937  13.909
87831W        W54240  20.971   2.466  14.811
87832W        W54241  30.038  18.258  13.483
87833W        W54242   5.902  33.037  13.740
87834W        W54243   9.604   8.294  14.475
87835W        W54244   0.625   6.321  10.523
87836W        W54245  29.687   2.404  13.329
87837W        W54246  41.002  24.066  11.396
87838W        W54247  17.254  42.865  11.371
87839W        W54248  22.164   7.352   1.319
87840W        W54249  39.898  21.050   4.122
87841W        W54250  34.917  36.119   0.761
87842W        W54251  11.741  39.172   0.185
87843W        W54252   2.394  17.902  11.460
87844W        W54253   4.980  26.124  13.417
87845W        W54254  37.399  23.555   1.859
87846W        W54255  35.120   8.701  13.514
87847W        W54256  11.785  40.219  14.995
87848W        W54257  18.727   1.358   0.608
87849W        W54258   6.386  26.384  14.784
87850W        W54259  39.771   1.414   3.695
87851W        W54260  32.695  28.712   1.094
87852W        W54261  22.520   6.763   0.363
87853W        W54262  14.683  21.705  12.262
87854W        W54263  18.243  29.189  10.402
87855W        W54264  28.479  31.579   2.826
87856W        W54265  30.922  21.309  12.006
87857W        W54266  40.065  21.069   2.333
87858W        W54267  16.012   6.300  14.943
87859W        W54268  25.479   5.327  10.493
87860W        W54269  43.932  26.012   3.317
87861W        W54270  36.852  15.169   1.322
87862W        W54271   2.896  37.431  12.373
87863W        W54272  33.620  39.378  13.247
87864W        W54273   3.707  28.615  13.361
87865W        W54274  33.309  13.793   4.941
87866W        W54275   7.614  43.466  14.460
87867W        W54276   9.320   7.085  10.288
87868W        W54277   3.727   6.563  10.986
87869W        W54278   4.796   5.898   2.247
87870W        W54279  37.077  21.408   2.338
87871W        W54280   7.460   1.804  11.697
87872W        W54281  44.868  15.145   0.514
87873W        W54282  41.833  37.984   2.205
87874W        W54283  31.034   7.954   2.748
87875W        W54284   0.028  36.107  13.775
87876W        W54285   2.198  42.757  14.147
87877W        W54286  36.806   0.047   0.405
87878W        W54287  43.452  30.034  12.972
87879W        W54288  15.613   5.364   4.178
87880W        W54289  18.057   3.939   3.469
87881W        W54290  35.303  31.840   4.087
87882W        W54291  23.603   0.984   3.108
87883W        W54292  13.185  27.785   5.067
87884W        W54293  26.752  23.072   3.141
87885W        W54294  27.193   3.088  14.375
87886W        W54295  22.819  23.331   3.741
87887W        W54296  12.561  34.543   0.773
87888W        W54297  21.857  10.756   4.917
87889W        W54298  11.708   9.711  14.353
87890W        W54299  25.201  20.827   2.622
87891W        W54300  33.105  10.402  14.886
87892W        W54301  42.795  16.207  10.867
87893W        W54302  12.771  18.633  13.518
87894W        W54303  32.387  37.172   3.084
87895W        W54304  19.458  22.195  10.746
87896W        W54305  24.205  31.157   2.896
87897W        W54306  23.299  32.586   0.296
87898W        W54307  21.904   3.857  11.721
87899W        W54308  28.887  15.113   1.354
87900W        W54309   8.702  18.744   2.665
87901W        W54310  28.542  21.260   4.110
87902W        W54311  12.417   8.943  14.379
87903W        W54312  24.142  29.131   2.321
87904W        W54313  29.528  32.207  12.089
87905W        W54314   8.786  27.477  14.944
87906W        W54315  41.903  24.000  10.800
87907W        W54316  37.456  44.998   2.199
87908W        W54317   5.468  35.043  13.156
87909W        W54318   0.732  22.322   1.875
87910W        W54319  13.669  26.102   3.256
87911W        W54320  14.985   4.895   3.662
87912W        W54321  25.123  12.878  13.890
87913W        W54322   3.692  31.902   4.101
87914W        W54323   1.926  25.402   1.854
87915W        W54324  15.604  21.667   2.695
87916W        W54325  32.847  34.628   0.340
87917W        W54326  34.380  40.380  11.482
87918W        W54327  32.637  32.687  10.689
87919W        W54328   2.470  37.074   4.159
87920W        W54329  17.265  36.293   4.608
87921W        W54330  17.380   6.733   1.442
87922W        W54331  24.958   4.461  13.394
87923W        W54332  25.932  16.783   4.492
87924W        W54333  13.679  17.866  13.178
87925W        W54334  37.773  11.754   4.153
87926W        W54335   5.921  41.791  12.148
87927W        W54336  11.374  11.688  12.833
87928W        W54337   3.931  14.637  13.894
87929W        W54338  31.037   0.028  14.378
87930W        W54339   5.963  35.410   1.928
87931W        W54340  29.415  32.064  10.321
87932W        W54341   4.757  20.590  10.746
87933W        W54342  22.002  43.203  12.519
87934W        W54343  18.488  30.469  11.610
87935W        W54344   0.218  16.909  13.521
87936W        W54345   5.079  23.076   2.853
87937W        W54346   0.938   4.991  12.388
87938W        W54347   1.953  33.094   0.862
87939W        W54348  17.760  23.154   1.809
87940W        W54349  30.007  31.192  11.127
87941W        W54350  21.940  38.416  11.965
87942W        W54351  21.262  15.239   2.214
87943W        W54352  27.526  16.861  14.607
87944W        W54353  10.686  39.093   0.964
87945W        W54354  37.241  21.743  13.583
87946W        W54355  35.343  26.020   1.895
87947W        W54356  26.514  35.511   0.492
87948W        W54357  16.705  34.775  12.567
87949W        W54358  29.202   7.903   2.143
87950W        W54359  18.642  21.751  13.089
87951W        W54360  38.436  32.806  13.842
87952W        W54361  16.484  19.682  12.363
87953W        W54362  36.973  20.339  10.407
87954W        W54363   6.975  25.895   5.005
87955W        W54364  18.815   9.761   4.003
87956W        W54365  26.238  19.426  12.895
87957W        W54366  41.322   4.880  12.054
87958W        W54367  25.652   8.240   5.777
87959W        W54368  11.391   6.794   2.352
87960W        W54369  10.193  32.138   1.422
87961W        W54370  14.716  44.137  13.387
87962W        W54371   3.536  40.819  13.869
87963W        W54372  29.467  37.411  10.644
87964W        W54373  10.245  14.591  14.560
87965W        W54374  44.286  14.081  10.733
87966W        W54375   3.863  26.069   2.463
87967W        W54376  36.253  14.361  13.574
87968W        W54377  34.282  11.373   0.933
87969W        W54378  36.120  41.762  10.835
87970W        W54379  33.290   7.115   5.050
87971W        W54380  30.515  29.603   2.934
87972W        W54381  44.508  17.822   2.884
87973W        W54382  34.928   6.335   1.344
87974W        W54383   7.170  17.763   0.362
87975W        W54384  13.153  20.974  12.526
87976W        W54385   2.657  20.097   1.257
87977W        W54386  41.020  36.550   3.643
87978W        W54387  44.521  27.760   3.369
87979W        W54388  25.389  12.568  10.926
87980W        W54389  12.675   5.000  14.406
87981W        W54390  39.066  29.765   0.353
87982W        W54391  30.988  29.918  12.565
87983W        W54392  17.863  44.824   1.174
87984W        W54393  30.186  43.059  11.928
87985W        W54394   9.764  11.434   3.312
87986W        W54395  14.696   3.602  14.293
87987W        W54396  25.455  14.779   3.767
87988W        W54397  38.979  24.436  12.486
87989W        W54398  40.423   0.901   2.329
87990W        W54399  18.177  31.288   4.578
87991W        W54400  17.286   2.217   5.157
87992W        W54401  22.744  28.961  11.907
87993W        W54402  17.131  12.388   0.831
87994W        W54403   5.374  43.878  14.535
87995W        W54404  29.324  27.716   2.643
87996W        W54405  42.684  44.555   5.042
87997W        W54406  22.490  25.968  12.319
87998W        W54407   3.661  40.021   0.021
87999W        W54408  37.078   9.660  11.010
88000W        W54409  36.654   9.044   2.942
88001W        W54410  23.607  28.941  10.667
88002W        W54411  13.677   4.866   3.151
88003W        W54412  29.916  23.604  13.335
88004W        W54413   8.092   2.226   0.363
88005W        W54414  34.553  29.938  10.690
88006W        W54415   7.334   4.684   1.638
88007W        W54416  30.097   3.339  13.414
88008W        W54417  32.857  27.614   2.270
88009W        W54418  22.322  26.306   3.201
88010W        W54419  19.729   1.213   0.277
88011W        W54420  18.845  11.287  11.675
88012W        W54421  36.888  24.767  11.979
88013W        W54422  21.740  44.960  14.836
88014W        W54423  13.309  31.016   4.821
88015W        W54424  41.179  14.675   0.660
88016W        W54425  20.817  11.310  12.698
88017W        W54426  26.628  33.835   1.103
88018W        W54427  18.835  34.211   2.611
88019W        W54428   2.841  11.029  14.919
88020W        W54429  10.434  27.487   1.649
88021W        W54430  24.209  36.735  10.746
88022W        W54431  11.983  23.388   2.211
88023W        W54432  37.215  37.493   5.096
88024W        W54433  36.337  10.901   1.871
88025W        W54434  30.996  23.092   0.785
88026W        W54435   6.223   1.722   5.292
88027W        W54436  39.049   0.957  13.453
88028W        W54437  35.457  32.086   0.892
88029W        W54438  26.428  33.630   3.738
88030W        W54439   3.894  18.078   3.160
88031W        W54440  14.901  14.160   1.779
88032W        W54441  35.160  35.881   3.317
88033W        W54442  28.845  30.515  12.576
88034W        W54443  23.190   0.855  10.970
88035W        W54444   8.056  17.475  14.302
88036W        W54445   3.458  35.369  11.144
88037W        W54446  30.975  44.408   2.375
88038W        W54447  12.434  23.100  14.500
88039W        W54448  28.738  11.779   2.796
88040W        W54449  40.411  32.881  12.914
88041W        W54450  44.945   3.441  14.493
88042W        W54451   6.115  28.566  10.297
88043W        W54452  26.641   3.525   4.235
88044W        W54453   3.989  26.647   0.867
88045W        W54454  20.725   9.892  12.024
88046W        W54455  12.761  31.658  13.849
88047W        W54456  25.537  25.099   2.305
88048W        W54457   8.846  16.040   2.251
88049W        W54458  32.612  39.316  11.065
88050W        W54459  27.887  26.257  11.053
88051W        W54460  17.467  32.563   1.135
88052W        W54461  25.507  19.694   4.602
88053W        W54462  27.521  40.317  12.157
88054W        W54463  21.118  43.572  12.400
88055W        W54464  26.553  42.836   3.614
88056W        W54465  18.521  16.346   2.002
88057W        W54466   4.833   5.216  11.926
88058W        W54467  21.751  38.363   0.928
88059W        W54468  14.055  42.246  14.041
88060W        W54469  24.541   1.718   4.589
88061W        W54470  38.753   6.872  14.854
88062W        W54471  18.643  27.073   3.234
88063W        W54472   5.292  22.723  12.765
88064W        W54473  14.181   3.349  11.200
88065W        W54474  41.561   9.665   1.009
88066W        W54475  37.292  10.393  10.970
88067W        W54476  20.771  26.188  11.120
88068W        W54477  11.548  16.479   1.347
88069W        W54478  35.129  27.481  12.469
88070W        W54479   0.857   7.907  10.655
88071W        W54480  36.362  27.571  11.994
88072W        W54481   9.264  34.445  10.163
88073W        W54482  15.873  27.253  13.662
88074W        W54483  24.099  38.902   5.046
88075W        W54484  22.242  10.912  13.838
88076W        W54485  36.098  19.194  13.747
88077W        W54486  22.696  14.452   2.219
88078W        W54487   1.837  20.573   2.154
88079W        W54488   5.197  13.146   4.311
88080W        W54489  44.748  26.166  10.934
88081W        W54490  39.740  22.929  11.603
88082W        W54491  44.943  22.468  14.068
88083W        W54492  16.355  15.792  14.965
88084W        W54493   7.813  16.837   0.893
88085W        W54494   2.858  36.542  10.614
88086W        W54495  40.941  27.949  11.191
88087W        W54496  21.067  14.433   4.154
88088W        W54497   8.201   3.909  12.852
88089W        W54498   5.007  16.323   2.430
88090W        W54499  15.135  31.174   0.050
88091W        W54500  23.431  20.247  10.810
88092W        W54501  10.441  15.601   2.940
88093W        W54502  27.889  18.096  11.939
88094W        W54503  42.893  12.689  11.505
88095W        W54504  30.478   8.085   2.744
88096W        W54505  40.819  33.620  13.507
88097W        W54506   6.327  20.693  14.502
88098W        W54507  32.445  27.197  13.003
88099W        W54508  39.899  26.651   4.037
88100W        W54509   5.378  23.043   4.979
88101W        W54510  17.377  19.357   0.309
88102W        W54511  32.874  30.023   4.594
88103W        W54512   3.704  39.084  13.587
88104W        W54513  34.604  41.946  12.112
88105W        W54514  17.225  24.715   4.814
88106W        W54515  14.965  16.109  12.331
88107W        W54516   4.166  31.130   4.571
88108W        W54517  41.694  25.777   0.280
88109W        W54518  38.929  11.263   5.187
88110W        W54519  13.790  41.959   3.700
88111W        W54520  33.854  11.286  11.598
88112W        W54521  38.564  33.872   1.909
88113W        W54522   7.928  30.128  13.896
88114W        W54523  42.871  20.984   4.609
88115W        W54524  10.269  25.189  12.961
88116W        W54525  13.854   1.362  12.431
88117W        W54526  12.800  11.061   3.776
88118W        W54527  16.834  43.383  12.386
88119W        W54528  14.236  17.061   2.179
88120W        W54529   0.900  40.227  12.025
88121W        W54530  10.538  22.184   2.194
88122W        W54531  27.989  17.276  13.007
88123W        W54532   7.625  26.579   2.377
88124W        W54533   0.438  44.237  14.944
88125W        W54534  32.526   8.014  12.179
88126W        W54535  14.606  11.881   2.638
88127W        W54536  15.857  10.667  11.964
88128W        W54537   9.335  28.447  13.770
88129W        W54538  44.361  21.410  10.306
88130W        W54539   4.218  27.936   3.518
88131W        W54540  21.766  34.529  11.526
88132W        W54541   6.249   8.222  13.236
88133W        W54542  41.354  17.019  11.915
88134W        W54543  23.745   0.440   4.470
88135W        W54544  16.648  38.363   0.407
88136W        W54545  25.574  15.568   4.579
88137W        W54546  38.351  21.081  13.292
88138W        W54547  30.169  44.703  13.476
88139W        W54548  25.114  18.786   3.114
88140W        W54549  30.424   8.321  10.943
88141W        W54550  44.452  38.291   1.893
88142W        W54551  15.137  27.485   4.590
88143W        W54552   3.708  26.703   0.379
88144W        W54553  30.045  28.818   3.917
88145W        W54554  18.209   7.809  14.093
88146W        W54555  38.598  43.886   2.825
88147W        W54556  10.470   1.329  13.083
88148W        W54557  39.463  13.637  11.803
88149W        W54558  12.671  31.389  14.298
88150W        W54559  18.793  15.624   4.566
88151W        W54560  26.672  15.303   4.347
88152W        W54561  10.854  23.676   4.253
88153W        W54562   2.339   7.279  12.469
88154W        W54563  21.708  21.834  13.815
88155W        W54564  33.406  15.229   3.499
88156W        W54565  23.388  39.883   4.416
88157W        W54566  41.349  26.704   4.022
88158W        W54567  17.209   0.716   4.865
88159W        W54568  43.024  15.293   1.342
88160W        W54569  16.398  40.137   0.808
88161W        W54570  14.135  16.848   2.645
88162W        W54571  24.510  14.106   1.763
88163W        W54572  40.450  35.362   4.282
88164W        W54573   7.106  16.379  14.292
88165W        W54574   0.537  18.002   2.366
88166W        W54575  43.962  43.836  14.350
88167W        W54576  10.480  29.100   4.269
88168W        W54577  26.689  20.126   4.511
88169W        W54578  26.461  19.761   0.421
88170W        W54579   7.144  20.481   1.402
88171W        W54580  23.217  37.971   0.897
88172W        W54581  19.050  27.952  14.814
88173W        W54582  21.777  22.599  14.536
88174W        W54583  15.746  14.092   3.538
88175W        W54584  39.056  28.598  14.795
88176W        W54585  24.286  22.718   3.260
88177W        W54586  33.872  24.601   0.788
88178W        W54587  33.144  16.010   3.008
88179W        W54588  37.907  30.092   4.668
88180W        W54589  14.211  20.417   9.881
88181W        W54590   5.270  41.033  14.018
88182W        W54591  32.133  19.947  14.758
88183W        W54592  32.002  34.571  11.608
88184W        W54593  18.637  16.538   4.356
88185W        W54594   7.609  20.719  12.886
88186W        W54595  10.560  15.765  11.514
88187W        W54596  35.382  19.348  11.053
88188W        W54597  19.725  12.278  12.872
88189W        W54598  10.925  25.557   4.637
88190W        W54599  44.053   1.758  12.516
88191W        W54600  21.975  19.035   0.464
88192W        W54601   9.748  12.997  11.927
88193W        W54602   6.357  16.899  12.524
88194W        W54603  18.347  35.096   3.237
88195W        W54604   0.335  26.195  12.849
88196W        W54605  11.296  31.744  11.321
88197W        W54606  28.186   7.374   1.438
88198W        W54607   0.864   8.323  14.790
88199W        W54608  14.428  26.579   3.299
88200W        W54609  18.065   3.512   1.143
88201W        W54610  12.210  10.173  13.031
88202W        W54611  25.533  40.315   3.400
88203W        W54612  41.781  24.509  13.978
88204W        W54613   7.362  41.208  14.427
88205W        W54614  38.208  27.122  14.416
88206W        W54615  21.996   5.910   1.263
88207W        W54616  44.492  22.857   0.752
88208W        W54617  38.499  36.297   4.174
88209W        W54618  29.839  20.680  13.177
88210W        W54619  16.727   4.336  14.243
88211W        W54620  17.771  11.129  14.287
88212W        W54621  22.310  15.839   1.222
88213W        W54622  17.183  44.737   2.214
88214W        W54623  14.176   6.994  10.258
88215W        W54624  41.046  30.599   4.511
88216W        W54625   3.821  25.420  11.909
88217W        W54626  28.495  35.882   1.811
88218W        W54627   7.198  23.187   4.539
88219W        W54628  18.264  19.427   1.735
88220W        W54629  15.527  35.437   0.501
88221W        W54630  30.635  18.072   4.760
88222W        W54631  23.571  15.752   2.841
88223W        W54632  23.428   0.898   4.916
88224W        W54633  25.119   1.870   1.393
88225W        W54634  20.814  15.863   2.670
88226W        W54635  39.045  36.572  14.429
88227W        W54636  24.721   8.478  13.590
88228W        W54637  12.609  12.799   1.763
88229W        W54638   1.713   3.935  12.401
88230W        W54639  38.910   0.031  10.693
88231W        W54640  17.661  41.864   0.754
88232W        W54641  16.010   0.516   1.946
88233W        W54642  30.149  44.486  13.975
88234W        W54643  35.537   2.821   3.368
88235W        W54644  42.289  37.834  11.942
88236W        W54645  12.953  26.565   4.517
88237W        W54646  42.753   2.260  12.920
88238W        W54647  10.758  41.895   1.893
88239W        W54648  14.611  25.260   5.125
88240W        W54649   1.509  18.141   4.133
88241W        W54650  44.294  33.067   0.909
88242W        W54651   9.115  33.615  12.386
88243W        W54652  14.270  40.833   2.319
88244W        W54653   0.813  13.337   3.122
88245W        W54654  43.114  12.905   4.909
88246W        W54655  44.784  26.048   2.252
88247W        W54656   3.331  29.338  13.159
88248W        W54657  21.552  22.217  12.879
88249W        W54658  44.250  36.841  11.156
88250W        W54659   3.489  17.328  14.708
88251W        W54660  33.581   0.453  14.435
88252W        W54661  22.230  36.275  14.260
88253W        W54662  34.655   0.435  13.947
88254W        W54663  16.557  27.829   0.277
88255W        W54664  19.212   0.090   4.542
88256W        W54665  13.481  25.458   3.760
88257W        W54666  37.090  35.439  13.511
88258W        W54667  22.567   8.830  13.876
88259W        W54668  38.465  18.502  12.021
88260W        W54669  38.819   6.110  10.228
88261W        W54670  12.245  37.508  14.769
88262W        W54671  25.211  28.518   1.780
88263W        W54672  31.578   7.852   3.644
88264W        W54673  10.415  18.765  11.449
88265W        W54674  21.125  25.440   0.843
88266W        W54675  18.873   6.648   0.791
88267W        W54676  18.315  42.344  11.157
88268W        W54677  20.058  32.721  10.822
88269W        W54678   8.916  38.698  11.970
88270W        W54679   2.842  41.389  13.902
88271W        W54680  23.986  26.283   2.320
88272W        W54681  25.723   3.971  14.361
88273W        W54682  44.489  37.882  13.363
88274W        W54683  34.247   6.982  11.795
88275W        W54684  44.473  42.260   0.421
88276W        W54685  44.408  25.279  10.042
88277W        W54686   3.405  40.057   1.660
88278W        W54687  44.694  31.114  10.766
88279W        W54688  32.063  40.552  11.204
88280W        W54689  29.444  15.186  12.402
88281W        W54690  41.458  21.498   1.253
88282W        W54691   5.207   9.755  10.781
88283W        W54692  36.912  34.935  11.330
88284W        W54693  27.388  32.463  13.888
88285W        W54694  14.074   8.733   2.134
88286W        W54695  35.604  18.618   1.716
88287W        W54696  26.009  35.284  14.026
88288W        W54697  41.347  28.450  10.522
88289W        W54698   1.554  43.457  14.020
88290W        W54699  14.250  44.908  14.751
88291W        W54700   6.755  43.816   2.355
88292W        W54701   9.616   3.919   0.234
88293W        W54702  12.332   1.244   3.569
88294W        W54703  22.769  32.416  13.066
88295W        W54704   8.355  37.602  14.380
88296W        W54705  31.185  30.925  14.954
88297W        W54706  28.698   0.771  14.799
88298W        W54707  27.241  43.139  11.120
88299W        W54708  23.150   2.706  10.835
88300W        W54709  19.807  27.614  11.269
88301W        W54710   1.641  22.733  12.353
88302W        W54711  33.410  38.979  12.401
88303W        W54712   7.235  33.958  10.310
88304W        W54713  20.167  14.743   4.719
88305W        W54714  28.929  12.912   4.667
88306W        W54715   7.750   0.868   5.123
88307W        W54716  23.227  33.137   2.766
88308W        W54717  37.327  38.961  14.776
88309W        W54718  20.505  16.538   1.603
88310W        W54719  30.535   7.798  10.880
88311W        W54720   4.725   2.265   4.606
88312W        W54721  23.168  21.072  13.818
88313W        W54722  12.253  35.526   2.772
88314W        W54723   6.782  18.303   1.264
88315W        W54724  27.199   0.807  14.895
88316W        W54725  33.569  12.621   0.594
88317W        W54726  42.921  20.966   2.364
88318W        W54727   7.095  43.604   4.471
88319W        W54728  28.930  14.688   5.036
88320W        W54729  25.204  33.063  12.084
88321W        W54730  27.566  35.827   1.671
88322W        W54731   1.243  33.877   3.918
88323W        W54732  40.420  40.450   0.756
88324W        W54733  35.500   1.455   2.070
88325W        W54734  18.847  34.677  10.990
88326W        W54735  19.772  11.829   0.781
88327W        W54736  11.021  29.644  11.641
88328W        W54737  24.556   7.844   3.524
88329W        W54738  42.982  27.684   2.233
88330W        W54739  39.972  32.116   1.225
88331W        W54740  29.619  29.941  10.965
88332W        W54741   7.465  20.194  14.010
88333W        W54742  32.079   0.190   5.193
88334W        W54743   9.708   3.328  11.612
88335W        W54744  32.975   1.720  10.486
88336W        W54745  23.626  14.270  12.707
88337W        W54746   7.846  16.965   1.471
88338W        W54747  18.048   3.927   4.016
88339W        W54748   9.701   3.721   2.397
88340W        W54749  28.381  26.165  11.118
88341W        W54750   4.242  12.372  10.543
88342W        W54751  36.421  11.798   4.925
88343W        W54752  27.918   8.207  14.600
88344W        W54753  44.477  16.547  10.601
88345W        W54754  24.183  10.644  14.234
88346W        W54755  12.199  21.575   4.266
88347W        W54756  14.282  10.305  11.507
88348W        W54757  17.704  10.913   2.628
88349W        W54758  35.095  39.038  11.599
88350W        W54759  38.550  36.478   2.379
88351W        W54760  24.230  18.853  12.009
88352W        W54761  10.246  10.906  14.014
88353W        W54762  28.499  40.393  14.529
88354W        W54763  41.574  31.301   2.801
88355W        W54764  14.301  34.951  12.104
88356W        W54765   6.590  26.133  10.265
88357W        W54766  44.562  28.115   4.617
88358W        W54767  22.655  13.022   0.040
88359W        W54768   8.865   0.443  10.210
88360W        W54769  20.279  30.994  11.556
88361W        W54770  42.261  12.857   0.504
88362W        W54771   0.808  21.143   0.413
88363W        W54772   1.721  36.800  12.744
88364W        W54773  23.916  16.369  12.028
88365W        W54774  34.915  42.820   3.158
88366W        W54775  13.515  13.280   4.567
88367W        W54776  15.610  22.106   4.372
88368W        W54777  36.754   1.851   1.443
88369W        W54778  32.208  11.255  13.363
88370W        W54779  19.587  27.070   4.924
88371W        W54780  32.158  14.734  14.298
88372W        W54781  28.292  30.284   4.270
88373W        W54782  41.676   8.706  10.304
88374W        W54783  30.931  34.258   3.732
88375W        W54784   2.071  12.885  13.406
88376W        W54785  43.365  43.680  13.551
88377W        W54786   0.483  30.953   2.768
88378W        W54787  11.620  40.396   1.366
88379W        W54788  37.203   7.721  14.808
88380W        W54789  38.814  24.479   1.398
88381W        W54790  29.930  14.969  10.706
88382W        W54791  25.186  13.803  12.439
88383W        W54792  29.485   7.167  14.751
88384W        W54793  27.382   1.447   0.214
88385W        W54794   9.567   9.838   1.594
88386W        W54795   0.007  16.529   2.954
88387W        W54796  24.692   6.877  13.929
88388W        W54797   5.396  38.958  13.055
88389W        W54798  22.651  35.308   0.546
88390W        W54799  17.199  44.208  14.420
88391W        W54800  28.970  28.070   3.834
88392W        W54801  35.905   0.646   1.739
88393W        W54802  35.058   8.287  13.239
88394W        W54803  23.045  25.801   2.436
88395W        W54804  13.635  32.672   2.766
88396W        W54805   6.181  29.735  14.027
88397W        W54806  26.197  28.090   2.468
88398W        W54807   8.149   2.604   4.598
88399W        W54808  38.831  23.069   0.391
88400W        W54809  12.023   2.604   2.685
88401W        W54810  32.041  23.158   1.811
88402W        W54811  43.239  11.918   0.274
88403W        W54812   0.449  20.477  13.774
88404W        W54813  13.713  38.344  11.151
88405W        W54814  34.593  41.431   0.915
88406W        W54815  38.320  43.337  13.431
88407W        W54816  28.684  19.941   4.942
88408W        W54817   8.621  13.223   3.704
88409W        W54818  21.887  25.041   0.580
88410W        W54819  23.227  21.655  13.796
88411W        W54820  19.817  43.771  12.668
88412W        W54821  32.052  14.588   4.234
88413W        W54822  13.791   7.978   0.470
88414W        W54823  16.023  44.780  12.411
88415W        W54824  18.808  31.353  11.549
88416W        W54825  30.982   4.609  11.384
88417W        W54826  41.426  28.273  11.905
88418W        W54827  23.699   9.873   3.205
88419W        W54828  22.183  16.123   0.334
88420W        W54829  38.778  13.576   1.919
88421W        W54830   9.633   2.365  13.419
88422W        W54831   9.784  42.387  11.429
88423W        W54832  38.986  38.893   1.267
88424W        W54833  11.774  19.712   4.326
88425W        W54834  44.560  10.322  11.511
88426W        W54835  39.383   8.395  10.667
88427W        W54836  22.034  27.218   4.446
88428W        W54837  41.304  13.858  13.337
88429W        W54838   9.736   7.087   1.675
88430W        W54839  13.560  13.703   3.152
88431W        W54840  10.680  17.818   0.073
88432W        W54841  44.291  33.497  13.530
88433W        W54842  30.390  18.076   1.352
88434W        W54843  29.814  19.879   1.532
88435W        W54844  36.367  22.008   0.253
88436W        W54845  18.071   2.722   1.769
88437W        W54846   8.616  17.066   3.615
88438W        W54847   4.691  13.418  12.514
88439W        W54848  25.642  42.820   1.810
88440W        W54849  18.127  34.366  13.433
88441W        W54850   4.308   2.538   1.776
88442W        W54851   4.024   3.863   3.679
88443W        W54852  16.226  32.716  14.438
88444W        W54853  35.354  29.062  13.378
88445W        W54854  12.875  22.619   1.822
88446W        W54855  36.616  16.010   0.763
88447W        W54856  22.538  21.568  12.507
88448W        W54857  21.742  37.878   2.828
88449W        W54858   1.230   0.833  13.755
88450W        W54859   1.656  14.624   2.268
88451W        W54860  27.083  22.924  14.304
88452W        W54861  18.671   9.889   0.345
88453W        W54862  18.301  19.269   0.382
88454W        W54863  28.709   6.740  11.736
88455W        W54864  31.032  27.412  12.640
88456W        W54865  30.748  43.837  13.407
88457W        W54866  22.283  34.880   0.484
88458W        W54867  44.433  14.648  12.392
88459W        W54868  17.256  38.495  10.225
88460W        W54869  18.758  34.454  12.382
88461W        W54870  13.890  23.525  13.877
88462W        W54871   1.296   6.692   4.046
88463W        W54872  25.312  11.382  11.488
88464W        W54873   1.979  21.992   3.900
88465W        W54874  18.642  36.261  12.854
88466W        W54875  17.704  24.703  14.075
88467W        W54876   5.661  37.367   2.125
88468W        W54877  29.060  12.828  11.890
88469W        W54878  21.943  26.051   3.670
88470W        W54879   6.456  12.479   3.231
88471W        W54880   3.558  17.321   0.937
88472W        W54881   7.737  32.193   3.237
88473W        W54882   5.346  13.677  13.610
88474W        W54883  28.944  44.399  11.672
88475W        W54884  24.515  31.907   0.637
88476W        W54885   9.092  15.625  11.531
88477W        W54886  38.773  37.492   4.052
88478W        W54887   3.511  16.913  13.364
88479W        W54888  11.891  21.660   2.386
88480W        W54889  12.415  19.108   3.941
88481W        W54890  24.576  38.541   0.811
88482W        W54891  30.133  12.866  11.712
88483W        W54892   4.464   4.045  11.668
88484W        W54893  25.040  16.807   4.663
88485W        W54894  31.604  17.072  10.487
88486W        W54895  12.492  25.200   3.614
88487W        W54896   1.275  15.601   3.713
88488W        W54897   2.167  22.239   2.845
88489W        W54898  30.064  20.238   0.923
88490W        W54899  35.705  32.019   4.388
88491W        W54900  10.385  23.611  10.229
88492W        W54901  14.139  31.522   4.051
88493W        W54902   9.390   2.996  12.453
88494W        W54903   2.762  24.401   0.540
88495W        W54904  16.247   9.447   2.228
88496W        W54905  10.545  14.348   1.658
88497W        W54906   6.879  33.979  13.221
88498W        W54907  29.528  20.074   3.605
88499W        W54908   0.241  31.650   3.346
88500W        W54909  20.496  35.523   2.474
88501W        W54910   5.692  28.736  13.472
88502W        W54911  19.755  12.191  11.181
88503W        W54912  28.008  31.364  10.931
88504W        W54913  16.855  26.362   0.883
88505W        W54914  12.236  43.793   0.425
88506W        W54915   6.600  14.927   2.212
88507W        W54916   4.170  23.484  14.308
88508W        W54917  12.328  22.193  10.806
88509W        W54918  21.373  16.575  14.913
88510W        W54919  22.384  30.447   4.066
88511W        W54920  44.003  19.046  14.667
88512W        W54921  23.178  44.964  11.064
88513W        W54922  22.394   9.974   0.123
88514W        W54923  29.053  38.591   0.894
88515W        W54924  32.424  40.033  10.610
88516W        W54925  42.790  13.144  14.395
88517W        W54926  12.813  33.238   2.736
88518W        W54927  15.640  32.362  12.881
88519W        W54928  38.330  19.805  10.636
88520W        W54929  28.285  26.405   1.309
88521W        W54930  13.612  29.586  10.512
88522W        W54931  38.476  32.789  12.908
88523W        W54932  32.572  17.104   4.485
88524W        W54933   3.806  40.425   4.791
88525W        W54934  13.386  33.405   1.947
88526W        W54935  18.330   9.883   4.776
88527W        W54936  10.446  28.918  11.897
88528W        W54937  32.460  10.733   4.184
88529W        W54938   0.857  36.373   4.225
88530W        W54939  18.646   3.901  12.122
88531W        W54940   9.699  44.980   2.841
88532W        W54941   2.385   3.878  14.033
88533W        W54942  13.587   9.360   4.218
88534W        W54943   3.861  41.145   0.704
88535W        W54944  23.973   8.462   0.746
88536W        W54945  25.123  31.529   1.387
88537W        W54946  36.523  13.288  11.987
88538W        W54947  26.840  43.016   1.340
88539W        W54948   4.724  16.974  11.035
88540W        W54949  17.114   2.033   0.681
88541W        W54950   8.616  17.063  12.834
88542W        W54951   6.865  28.173  10.531
88543W        W54952  23.766   0.079   3.109
88544W        W54953  38.206  36.578   0.721
88545W        W54954  10.352   6.002   0.690
88546W        W54955  27.736  27.278   0.798
88547W        W54956  36.552  14.679  14.506
88548W        W54957  34.012  23.658   0.747
88549W        W54958  10.599  41.358   4.173
88550W        W54959  18.256  40.093   2.649
88551W        W54960  39.981  35.051  14.900
88552W        W54961  32.117  25.516  13.425
88553W        W54962  12.090  31.430  14.351
88554W        W54963  37.282  32.226   3.832
88555W        W54964  36.017  18.658   1.406
88556W        W54965  37.355  37.401  12.163
88557W        W54966   1.760   2.348   2.123
88558W        W54967  33.682  37.866   2.680
88559W        W54968  13.109  33.178   3.291
88560W        W54969  36.078  38.610  12.961
88561W        W54970  10.082  34.751   5.079
88562W        W54971  42.688  27.695  12.315
88563W        W54972  15.865  23.014   3.387
88564W        W54973   4.822   6.210   4.596
88565W        W54974  42.335  19.595   1.323
88566W        W54975  24.564  42.846   0.543
88567W        W54976  16.615  24.971   2.866
88568W        W54977  33.468  41.297   3.366
88569W        W54978   0.223  15.167  14.806
88570W        W54979   1.739  21.764   0.746
88571W        W54980  10.249   8.959   4.480
88572W        W54981  38.351   4.434   2.416
88573W        W54982  23.426   3.603   0.944
88574W        W54983  39.615  29.742  12.559
88575W        W54984  24.538   1.409   0.646
88576W        W54985   0.420  28.079  10.641
88577W        W54986  27.960   2.015   4.454
88578W        W54987  19.019   8.278  11.877
88579W        W54988  20.330  43.007  12.928
88580W        W54989  14.750   4.929   4.264
88581W        W54990   6.384  31.400  10.796
88582W        W54991  31.724  12.133   0.930
88583W        W54992  16.375  40.276   4.028
88584W        W54993  24.437  10.880  10.813
88585W        W54994   0.019  32.473  12.143
88586W        W54995   1.715  28.567   0.436
88587W        W54996  35.771   2.714   0.906
88588W        W54997  13.643   1.791   0.993
88589W        W54998  12.782   1.771   1.263
88590W        W54999  39.272  16.865   0.018
88591W        W55000   0.806  29.953   2.724
88592W        W55001  19.598  17.642   4.756
88593W        W55002   4.646  38.813   0.984
88594W        W55003  38.701  11.812   2.738
88595W        W55004   6.866  39.758  12.950
88596W        W55005  30.305  39.810   3.587
88597W        W55006  40.875  31.866   0.694
88598W        W55007  45.000  40.109   3.724
88599W        W55008  43.174   6.762  14.920
88600W        W55009  26.439   1.012  14.370
88601W        W55010  41.289  38.531   0.779
88602W        W55011   2.813  36.442  12.496
88603W        W55012  38.413  27.475   0.223
88604W        W55013  11.899  19.942  10.934
88605W        W55014   2.167  26.108   0.147
88606W        W55015  32.542   3.731  13.843
88607W        W55016   0.830  44.766   4.771
88608W        W55017   8.320  18.052   0.331
88609W        W55018  26.128   3.745   1.668
88610W        W55019  28.873  23.586  14.797
88611W        W55020  24.494  44.991  10.763
88612W        W55021  40.122  24.869  14.674
88613W        W55022  32.940  11.872   2.346
88614W        W55023  20.648  42.870   0.047
88615W        W55024  44.061  32.732   1.218
88616W        W55025   8.666  32.974   0.922
88617W        W55026  25.067  12.753  14.416
88618W        W55027   7.799  18.701   1.295
88619W        W55028  21.720  17.238  11.436
88620W        W55029  44.171  12.203   0.352
88621W        W55030  20.017  33.082   1.298
88622W        W55031  21.705  31.716   2.284
88623W        W55032   3.276  38.953   4.893
88624W        W55033  25.040   9.834   2.257
88625W        W55034  14.211  25.788  14.804
88626W        W55035  18.796  41.538  11.205
88627W        W55036  25.221  33.476   0.037
88628W        W55037   6.938  11.128  11.443
88629W        W55038  40.054   0.354   4.688
88630W        W55039  29.048  17.141   4.650
88631W        W55040  15.302  12.470   1.752
88632W        W55041  18.646  41.197  14.953
88633W        W55042  13.783  24.353  14.742
88634W        W55043  12.414   3.956   1.743
88635W        W55044   1.077  13.476   1.966
88636W        W55045   7.303  24.783   0.831
88637W        W55046   7.691   1.987   4.181
88638W        W55047  42.345  34.002   1.490
88639W        W55048  42.133  32.482  12.284
88640W        W55049  12.295   6.909  11.063
88641W        W55050  16.627   8.431   3.210
88642W        W55051   6.137  15.156   2.384
88643W        W55052  32.031  28.452   3.607
88644W        W55053  28.438  39.329   1.745
88645W        W55054  17.351  16.067   4.552
88646W        W55055  17.738  19.618   2.394
88647W        W55056   5.017  44.259  10.266
88648W        W55057  14.915  19.481   1.378
88649W        W55058   7.286  23.426  11.554
88650W        W55059  29.970  15.257   0.358
88651W        W55060  41.078  39.607   1.484
88652W        W55061   6.174  35.731  11.090
88653W        W55062  16.052  33.559  12.032
88654W        W55063   1.371  39.969   2.241
88655W        W55064  27.599  18.318  14.323
88656W        W55065  10.835  33.823  13.321
88657W        W55066  35.106   0.864   0.377
88658W        W55067  15.706  16.588   2.835
88659W        W55068  40.739  44.383   3.286
88660W        W55069  22.031  14.124  11.951
88661W        W55070  40.500  21.805  12.317
88662W        W55071  38.523   3.255  14.354
88663W        W55072  20.033  38.562   4.190
88664W        W55073  20.519  26.694  13.915
88665W        W55074  42.008  44.418   0.322
88666W        W55075  33.600  18.177   5.114
88667W        W55076  37.874  11.761   2.383
88668W        W55077  28.740   6.998  12.857
88669W        W55078  34.000  12.227   1.384
88670W        W55079  23.701  26.210  11.090
88671W        W55080  14.649  16.798  14.528
88672W        W55081  26.837   4.790  12.684
88673W        W55082  13.317   1.467   2.789
88674W        W55083  40.791  26.885  11.925
88675W        W55084  25.631  27.539  13.628
88676W        W55085  13.756  25.200   0.415
88677W        W55086  21.660  11.786   2.318
88678W        W55087  29.561  29.098   4.103
88679W        W55088  31.003  12.270   4.499
88680W        W55089  39.332  36.354  10.762
88681W        W55090  25.902   0.919   0.784
88682W        W55091  24.485  41.997   1.631
88683W        W55092  11.696  26.553   3.210
88684W        W55093  38.755   0.512  14.252
88685W        W55094  14.234  42.986   3.035
88686W        W55095  44.302  15.411  14.391
88687W        W55096  41.244  11.587  11.556
88688W        W55097  25.510   9.641   2.272
88689W        W55098   6.201  13.781   1.452
88690W        W55099  17.122  10.197  10.556
88691W        W55100  10.239   1.764   2.783
88692W        W55101  30.658  22.290  13.524
88693W        W55102  28.280   4.812  14.815
88694W        W55103  15.847  13.194   3.699
88695W        W55104  13.577   1.727  14.404
88696W        W55105   2.048   4.229   2.048
88697W        W55106   7.003  23.001  11.675
88698W        W55107  34.980  16.228   3.103
88699W        W55108  36.622  13.576  12.762
88700W        W55109  10.741  31.164  14.025
88701W        W55110   1.373   2.941  11.578
88702W        W55111   0.906  35.568  13.863
88703W        W55112  23.687  17.926   3.108
88704W        W55113  30.004   4.555   0.272
88705W        W55114  15.794  25.982  11.656
88706W        W55115  25.603   8.128   2.695
88707W        W55116  33.229  37.713   2.870
88708W        W55117  40.274  27.405   0.797
88709W        W55118  12.701   2.487   2.800
88710W        W55119  35.340  26.116   4.531
88711W        W55120  42.340   9.423   1.651
88712W        W55121  25.162  15.755   1.757
88713W        W55122  25.501  15.182  11.653
88714W        W55123   8.856   8.131  12.103
88715W        W55124  28.655  10.941  11.527
88716W        W55125   0.745   7.925   3.107
88717W        W55126  34.489  37.659  13.093
88718W        W55127  19.685   8.115  11.558
88719W        W55128  43.316  19.593   4.048
88720W        W55129  36.661  43.238   3.640
88721W        W55130  18.495  28.416  10.973
88722W        W55131  42.901  29.549  10.788
88723W        W55132  29.722  14.025   4.979
88724W        W55133  29.419   0.772  12.850
88725W        W55134  31.461   3.341   1.876
88726W        W55135   5.884   2.626  11.855
88727W        W55136   4.780  18.186  13.102
88728W        W55137  18.992  38.807  11.478
88729W        W55138  20.213  42.867   2.160
88730W        W55139  42.895  37.489   3.958
88731W        W55140  25.511   4.599  14.927
88732W        W55141   9.845   9.744  11.427
88733W        W55142   7.160  23.066  13.831
88734W        W55143  22.638  28.601  10.777
88735W        W55144  31.605  29.708   0.514
88736W        W55145  25.978  21.185  14.779
88737W        W55146  30.644  29.400  12.027
88738W        W55147  44.896  42.560   1.187
88739W        W55148  42.019  38.819  14.097
88740W        W55149   6.325   8.711   1.841
88741W        W55150  41.404  14.331   4.134
88742W        W55151  12.323   3.301   0.536
88743W        W55152  19.288  12.362   1.413
88744W        W55153   0.691  35.592   2.189
88745W        W55154  42.446  30.957  13.994
88746W        W55155  23.641  16.796  12.095
88747W        W55156  37.238  38.606   4.684
88748W        W55157  43.408  16.061   3.599
88749W        W55158  22.544   4.701   5.148
88750W        W55159   8.246  17.317  13.848
88751W        W55160   5.689  36.868  13.534
88752W        W55161  18.595  28.993   1.530
88753W        W55162  16.322   6.380   0.363
88754W        W55163  24.077  31.098  14.016
88755W        W55164  11.123   8.711  12.083
88756W        W55165   4.520   4.771  13.715
88757W        W55166  33.602   7.707  14.401
88758W        W55167  23.728  13.857  14.918
88759W        W55168  21.975  43.800  14.352
88760W        W55169  39.012  38.337   4.617
88761W        W55170  28.473  26.101  14.463
88762W        W55171  13.782  26.483  13.581
88763W        W55172  37.510   5.148  14.297
88764W        W55173   9.417  30.427   5.015
88765W        W55174  43.383  43.516   4.764
88766W        W55175  16.234  36.872   2.251
88767W        W55176  34.135  29.302   1.379
88768W        W55177  35.497   3.941  11.160
88769W        W55178  18.200  17.159  11.728
88770W        W55179   3.634  44.966  12.927
88771W        W55180  17.320  43.351   1.380
88772W        W55181  33.444  23.352   1.895
88773W        W55182   2.291  32.749   1.159
88774W        W55183  20.762  34.947  11.552
88775W        W55184  39.340  40.780  11.097
88776W        W55185  13.744  25.759   0.463
88777W        W55186  36.117  22.953  10.564
88778W        W55187   3.015   6.312  14.930
88779W        W55188   5.171  20.990  14.870
88780W        W55189  30.332  14.903   0.539
88781W        W55190  10.842  43.473   0.825
88782W        W55191  37.038  24.556   3.121
88783W        W55192  10.757   2.019  13.425
88784W        W55193   7.083  23.916  12.373
88785W        W55194  42.433  30.139  14.761
88786W        W55195  17.398  39.609  11.520
88787W        W55196   5.504   4.227  14.720
88788W        W55197  40.262  42.693   0.959
88789W        W55198   4.860   5.683  11.712
88790W        W55199  20.814   5.759  10.481
88791W        W55200  41.262  20.639   1.215
88792W        W55201   0.345   2.605   4.192
88793W        W55202  28.522   1.164   2.809
88794W        W55203  23.447  44.376   2.417
88795W        W55204  23.800  43.764   3.205
88796W        W55205  20.632  13.342   3.561
88797W        W55206  35.069  29.318   2.357
88798W        W55207  37.867  42.480   2.491
88799W        W55208   4.810  24.524   3.884
88800W        W55209   1.269  18.088   4.608
88801W        W55210  24.635  15.545  12.638
88802W        W55211  20.532  28.462   1.163
88803W        W55212  16.404  29.633  13.687
88804W        W55213  12.296  31.436  13.862
88805W        W55214  26.014  18.742   2.596
88806W        W55215  34.536  17.204   3.082
88807W        W55216  21.952  20.426  12.898
88808W        W55217  40.274  19.802   4.357
88809W        W55218  43.721  38.776   0.399
88810W        W55219  40.438  36.964  10.621
88811W        W55220  40.404  18.776  11.676
88812W        W55221  38.986  14.001   1.212
88813W        W55222  23.657  44.716   2.771
88814W        W55223  23.562  29.826   2.687
88815W        W55224   4.542  15.221  12.354
88816W        W55225  14.534  10.565  14.794
88817W        W55226  24.988  43.428  14.980
88818W        W55227  38.418   6.308  14.754
88819W        W55228  26.943  38.560   2.270
88820W        W55229  42.895  24.689   4.278
88821W        W55230  36.426  34.023  13.243
88822W        W55231  19.617  29.282   4.865
88823W        W55232  25.999  20.091   4.778
88824W        W55233  32.594  18.067  14.620
88825W        W55234  29.958  21.202  14.440
88826W        W55235  17.750  23.938   0.550
88827W        W55236  30.629  26.200   4.584
88828W        W55237   7.424  10.209   0.943
88829W        W55238  40.690  10.476   4.217
88830W        W55239   6.700  15.380   1.963
88831W        W55240  15.845  11.145   1.182
88832W        W55241  22.196  39.353  14.977
88833W        W55242  24.099   8.589   9.870
88834W        W55243  41.807   8.332   0.924
88835W        W55244   8.640  28.119   3.193
88836W        W55245   6.279   4.897   1.542
88837W        W55246  27.521  12.914  11.130
88838W        W55247  40.617  18.957   1.263
88839W        W55248   0.989  43.571  12.099
88840W        W55249   7.466  26.719   3.675
88841W        W55250  30.918   5.990   3.235
88842W        W55251  14.674  38.555   0.343
88843W        W55252  26.599  16.014  12.999
88844W        W55253  40.451  43.900  11.572
88845W        W55254   2.681  39.151  13.229
88846W        W55255   5.256  30.552   0.419
88847W        W55256  36.956   8.291  13.976
88848W        W55257  27.673  34.778   4.654
88849W        W55258  27.457   0.394   4.126
88850W        W55259  35.830  44.406  13.567
88851W        W55260   8.177  15.049  12.530
88852W        W55261  31.670  39.309  11.920
88853W        W55262  42.432  37.395   9.900
88854W        W55263  32.427  43.080   4.527
88855W        W55264  42.182  21.354  10.743
88856W        W55265   7.640  22.516  12.920
88857W        W55266   0.806  25.564   1.739
88858W        W55267  35.941  25.474  14.445
88859W        W55268  28.469   4.349   1.746
88860W        W55269  15.871   8.274   2.934
88861W        W55270  42.774   5.261  13.629
88862W        W55271   2.611  38.329   0.460
88863W        W55272  17.301  26.448  12.659
88864W        W55273  35.509  18.144   2.558
88865W        W55274  35.393   8.577  11.078
88866W        W55275  32.049   8.828   3.284
88867W        W55276  10.181  17.999  14.924
88868W        W55277  26.365  20.631  14.023
88869W        W55278   8.694  17.195   1.663
88870W        W55279  33.850  16.185   2.167
88871W        W55280  11.932  35.845   1.289
88872W        W55281   3.696  27.811   3.243
88873W        W55282  21.669   2.240   5.016
88874W        W55283  21.541  35.573   4.743
88875W        W55284  34.653  31.157  13.386
88876W        W55285  36.830  18.727   2.789
88877W        W55286  30.865  38.620  14.869
88878W        W55287   0.667  44.850  11.092
88879W        W55288  30.528  28.802  14.355
88880W        W55289  20.697  12.343  14.014
88881W        W55290   6.349  15.063  12.079
88882W        W55291  31.025  19.151  11.315
88883W        W55292   8.865  43.205  14.897
88884W        W55293  22.249   2.228  10.679
88885W        W55294  42.730  38.950   2.538
88886W        W55295  37.355  42.441   3.274
88887W        W55296  38.927  17.539  14.794
88888W        W55297  30.421  17.437  14.759
88889W        W55298  38.119   0.392   4.072
88890W        W55299  17.556  16.241  11.578
88891W        W55300  30.126  13.184   0.055
88892W        W55301  28.451  18.888  12.363
88893W        W55302  37.468  11.078   4.123
88894W        W55303  19.796  20.621   4.866
88895W        W55304  32.061   3.962   2.698
88896W        W55305  26.706  21.172  11.247
88897W        W55306  32.697   2.276   0.435
88898W        W55307   0.296  20.684   1.846
88899W        W55308  18.254  16.750   1.780
88900W        W55309  37.919  42.562  10.741
88901W        W55310   5.715  18.946  14.325
88902W        W55311  40.398  16.234   4.014
88903W        W55312   2.042  42.296  12.389
88904W        W55313  29.965   8.952  11.702
88905W        W55314  19.705  18.390   1.781
88906W        W55315   7.475  36.461   0.787
88907W        W55316   6.824  39.745   1.701
88908W        W55317   4.782  14.788  13.960
88909W        W55318   3.863  23.004  13.419
88910W        W55319   3.800   2.787   4.520
88911W        W55320  44.497   2.707  12.348
88912W        W55321  24.655   9.888  13.640
88913W        W55322  25.607   2.033   2.317
88914W        W55323  20.216  13.158  11.955
88915W        W55324  31.624   7.366   1.384
88916W        W55325  30.006   3.062   3.645
88917W        W55326  44.338  35.742  14.452
88918W        W55327  37.290  38.052  14.022
88919W        W55328  43.170   2.880   3.845
88920W        W55329  12.902   5.245   2.968
88921W        W55330  25.971  31.143  11.179
88922W        W55331  29.966   2.512  11.521
88923W        W55332   9.781  41.324  12.834
88924W        W55333   1.999  31.803  10.445
88925W        W55334  40.010  24.965   1.681
88926W        W55335  10.903  33.452  11.729
88927W        W55336  41.878   1.958   3.312
88928W        W55337   8.225  32.179   2.405
88929W        W55338  20.578  23.219  14.372
88930W        W55339  38.928  32.018  11.645
88931W        W55340   3.779  43.289   1.490
88932W        W55341  44.004  12.404   5.071
88933W        W55342  43.825  25.250  11.519
88934W        W55343  32.641  20.435   4.087
88935W        W55344   7.627   9.278   3.260
88936W        W55345   8.165   8.661   2.369
88937W        W55346   5.471  22.739  11.914
88938W        W55347  30.757   8.244   4.682
88939W        W55348  40.136  22.153  11.250
88940W        W55349  16.062  21.594  13.508
88941W        W55350  24.021  34.088  14.414
88942W        W55351  31.413  14.363   0.863
88943W        W55352  26.030  28.912   1.394
88944W        W55353  42.899  28.530   1.537
88945W        W55354  15.714  34.873  11.561
88946W        W55355  16.368  44.501   1.033
88947W        W55356  39.823  34.625   1.227
88948W        W55357  28.875  26.760  10.440
88949W        W55358  14.352  30.893   4.126
88950W        W55359  13.847   5.138   2.729
88951W        W55360  43.370   1.201   0.902
88952W        W55361  26.356   5.429  11.973
88953W        W55362   1.300  32.175  13.475
88954W        W55363  20.672  42.692   4.717
88955W        W55364   9.813  10.385  12.008
88956W        W55365  10.618  20.362  12.022
88957W        W55366   2.198  44.333  10.399
88958W        W55367  36.983   6.436   1.206
88959W        W55368  19.689  37.663   2.870
88960W        W55369  40.258  44.504  13.592
88961W        W55370  43.364   5.920  11.541
88962W        W55371  21.455  33.222  10.191
88963W        W55372   7.260  38.454  13.400
88964W        W55373  28.190  34.520  14.665
88965W        W55374  10.813  17.356  13.861
88966W        W55375  29.494  38.964  13.009
88967W        W55376   4.412   2.445  13.311
88968W        W55377  18.153  41.394   1.971
88969W        W55378  43.591  20.021   4.220
88970W        W55379  19.057   9.161  13.372
88971W        W55380   5.233   0.866   3.108
88972W        W55381  39.048  43.205   4.163
88973W        W55382   0.253  18.762  10.785
88974W        W55383  36.406  15.909  13.158
88975W        W55384  22.103  29.305  10.547
88976W        W55385   8.811  23.705  12.449
88977W        W55386  42.281  35.349   1.669
88978W        W55387  28.266  25.088   0.383
88979W        W55388  36.607  12.656   4.574
88980W        W55389  17.693   2.191   3.887
88981W        W55390  36.988  27.685  12.997
88982W        W55391  43.660  11.374  10.192
88983W        W55392  26.491  42.449   3.227
88984W        W55393   2.460  23.270   2.750
88985W        W55394  35.384  17.061   1.872
88986W        W55395  39.801  36.348  12.450
88987W        W55396  42.668  16.838   4.517
88988W        W55397   5.721   7.446  11.170
88989W        W55398  25.069   2.830   1.656
88990W        W55399  27.092  32.724  11.045
88991W        W55400  11.994  42.542  13.344
88992W        W55401  31.376  36.923  14.462
88993W        W55402  35.197  26.604  14.509
88994W        W55403  33.885  43.721   3.687
88995W        W55404  36.758   6.095   3.190
88996W        W55405  36.589  34.791   3.999
88997W        W55406  27.048  34.112   1.226
88998W        W55407  33.471  35.301  11.263
88999W        W55408  31.884  37.150   3.737
89000W        W55409  32.436  16.332  12.470
89001W        W55410   0.354   7.128  14.099
89002W        W55411   6.813  11.640   3.641
89003W        W55412  40.605   8.328   0.370
89004W        W55413  13.646  36.187  11.950
89005W        W55414  19.642  25.670   2.311
89006W        W55415  30.747   4.845   0.034
89007W        W55416   2.437   6.366  13.397
89008W        W55417  44.554  38.564   2.786
89009W        W55418  12.273  36.839  14.194
89010W        W55419  18.215  24.839  12.920
89011W        W55420  22.629  40.850   1.962
89012W        W55421  29.838   7.508  14.985
89013W        W55422  20.352  37.378  12.094
89014W        W55423  33.985  11.275  14.977
89015W        W55424  26.214  35.819   3.380
89016W        W55425  36.881  37.889   4.180
89017W        W55426  29.934  27.222  14.510
89018W        W55427   8.713  20.048  11.112
89019W        W55428  10.917  22.655  12.732
89020W        W55429   4.886  13.230   0.387
89021W        W55430  13.949  12.157  11.454
89022W        W55431  36.504  39.125  14.852
89023W        W55432  21.174  14.167   2.079
89024W        W55433   6.272   7.867   4.762
89025W        W55434   4.832   1.764   2.599
89026W        W55435  44.032  40.073  13.470
89027W        W55436  34.327  21.788  14.969
89028W        W55437   7.279   8.707   4.733
89029W        W55438   8.089  16.836  13.026
89030W        W55439  40.468  35.909   0.078
89031W        W55440  36.883  11.802   0.447
89032W        W55441   6.444  33.293   3.152
89033W        W55442   1.555   9.158   0.395
89034W        W55443  25.856  13.939  14.410
89035W        W55444  34.203  34.177  13.700
89036W        W55445   1.814   9.734   1.945
89037W        W55446  28.313  34.013  13.600
89038W        W55447  25.735  23.882   4.852
89039W        W55448  16.115  33.939  14.850
89040W        W55449  30.461  26.442  13.393
89041W        W55450   8.730  43.878  14.122
89042W        W55451  11.847   3.299   3.821
89043W        W55452  29.623  40.398  12.496
89044W        W55453  30.739  12.967  13.450
89045W        W55454   3.427  28.826  10.741
89046W        W55455   2.445  18.341   1.744
89047W        W55456  27.188  25.416   1.335
89048W        W55457  25.605  13.415  11.662
89049W        W55458   5.222  13.959  14.975
89050W        W55459  20.856  10.924   2.932
89051W        W55460   2.986  29.345  12.203
89052W        W55461  19.994  30.194   4.352
89053W        W55462  38.601  38.342   3.190
89054W        W55463  17.640   9.311   4.867
89055W        W55464  35.561   7.115  13.761
89056W        W55465  36.863  44.234   4.475
89057W        W55466  37.711  27.227  14.451
89058W        W55467  25.218  32.943  13.116
89059W        W55468  26.551  13.403  14.030
89060W        W55469  39.589  26.481  14.376
89061W        W55470  41.602  10.918  13.359
89062W        W55471  34.938  21.079   2.488
89063W        W55472  14.718  24.630  14.329
89064W        W55473  28.219  24.397   1.379
89065W        W55474  11.223  13.721   2.264
89066W        W55475  21.151  39.135  10.076
89067W        W55476   2.517  14.232   4.449
89068W        W55477  43.853  29.103   0.452
89069W        W55478   6.927  37.505   0.101
89070W        W55479  27.127  18.604  14.924
89071W        W55480  10.760  34.956   5.339
89072W        W55481  37.814  27.695   2.024
89073W        W55482  27.573  15.239   4.322
89074W        W55483  29.115  41.068  14.052
89075W        W55484  26.966  36.697   4.789
89076W        W55485  16.703   6.690  11.088
89077W        W55486   3.390  28.727   2.333
89078W        W55487  28.117  18.056  12.515
89079W        W55488   9.867  32.100   4.120
89080W        W55489  20.019  29.033  11.656
89081W        W55490  40.447  42.855  11.622
89082W        W55491  36.645  41.313   3.081
89083W        W55492   6.109   1.337  10.800
89084W        W55493   7.911   6.087   4.557
89085W        W55494   0.927  22.220   0.648
89086W        W55495  23.854   6.384  13.741
89087W        W55496  17.125  23.220  14.685
89088W        W55497  16.711  12.890   3.586
89089W        W55498   9.028  23.917   0.997
89090W        W55499  36.464  34.543   4.834
89091W        W55500   4.684  27.743  10.763
89092W        W55501  35.023   5.227   4.486
89093W        W55502  44.286  36.266   2.928
89094W        W55503  23.831  29.390   1.410
89095W        W55504  15.227  39.947  11.586
89096W        W55505  22.173  31.505  14.316
89097W        W55506  34.287  43.348  14.382
89098W        W55507  43.369  38.797   1.243
89099W        W55508  29.650  32.470   0.627
89100W        W55509  42.997  43.703  11.138
89101W        W55510  33.153  12.329   0.660
89102W        W55511  25.196  36.575   1.442
89103W        W55512  44.871  41.966   1.895
89104W        W55513   5.779  44.071   3.627
89105W        W55514  12.051  41.566   0.913
89106W        W55515  16.896  37.301   0.372
89107W        W55516  21.062   3.420   3.183
89108W        W55517  10.234  24.075  14.302
89109W        W55518   7.317  13.138  14.023
89110W        W55519   1.773   1.332  13.433
89111W        W55520   4.405  35.749  13.351
89112W        W55521  11.018  31.770   3.281
89113W        W55522  27.000  37.031   2.445
89114W        W55523  40.596  18.406   5.585
89115W        W55524  29.166  23.505   1.107
89116W        W55525  15.477  21.304   4.369
89117W        W55526  22.501  26.700   0.435
89118W        W55527  33.644  36.299   1.299
89119W        W55528  44.341  21.279   1.231
89120W        W55529  34.320  38.586  13.325
89121W        W55530  14.339  21.214  12.522
89122W        W55531  13.607  10.886   2.624
89123W        W55532  14.731  41.027   3.188
89124W        W55533  22.002   3.436  13.906
89125W        W55534  28.990  15.051   2.934
89126W        W55535  39.092  20.074   2.822
89127W        W55536  35.147   4.636   1.660
89128W        W55537  16.744   4.186   3.675
89129W        W55538   5.363  32.077  14.238
89130W        W55539  41.015  44.447  10.315
89131W        W55540  32.301  40.014   4.385
89132W        W55541  26.248  27.611  11.499
89133W        W55542  40.446  31.572  10.772
89134W        W55543  14.120  38.293  13.377
89135W        W55544  27.529  26.107   1.306
89136W        W55545  14.035  37.479  13.475
89137W        W55546  40.910   2.811  13.201
89138W        W55547  10.641  17.979   0.756
89139W        W55548  22.814  37.097  13.043
89140W        W55549  35.569  12.746   4.672
89141W        W55550  30.797   0.118  13.923
89142W        W55551  11.919   2.517  13.083
89143W        W55552  12.239  40.116  11.057
89144W        W55553  24.639  40.408  11.495
89145W        W55554  27.651   9.641  14.062
89146W        W55555  25.025  32.932  10.701
89147W        W55556  34.020  43.318  12.613
89148W        W55557  22.494  16.266   3.076
89149W        W55558  10.391  28.034  14.064
89150W        W55559   8.823   8.004  14.595
89151W        W55560  37.489  30.798   3.604
89152W        W55561  34.961  13.277  13.213
89153W        W55562  11.106   8.172  12.925
89154W        W55563  20.783   8.040  14.974
89155W        W55564  39.982  25.606  11.566
89156W        W55565  21.380  24.170  12.532
89157W        W55566  26.914   2.759  12.059
89158W        W55567  27.681   0.311  14.455
89159W        W55568  32.814  19.666  14.757
89160W        W55569  15.302   4.896   2.779
89161W        W55570  17.472  11.397   2.456
89162W        W55571  28.734  27.244   3.583
89163W        W55572  11.142  22.086  13.446
89164W        W55573  14.528  39.970  10.745
89165W        W55574  17.184   0.100  10.548
89166W        W55575   0.244  16.376   3.685
89167W        W55576  25.620  39.019   1.198
89168W        W55577  30.934  42.755   0.791
89169W        W55578  12.771   9.051  12.504
89170W        W55579  33.182  42.435   2.385
89171W        W55580  15.604  31.808  14.786
89172W        W55581  11.660  23.436   2.716
89173W        W55582  10.645   0.878  12.912
89174W        W55583  41.349  30.131  11.690
89175W        W55584  38.568  35.080  11.530
89176W        W55585  16.829  35.013  10.267
89177W        W55586  26.716  17.812   2.406
89178W        W55587  18.252  34.284  11.475
89179W        W55588  30.567  23.239   1.007
89180W        W55589  32.627   3.731   0.048
89181W        W55590  36.030  44.460  13.111
89182W        W55591  21.126  14.408   2.566
89183W        W55592  32.233  14.087   4.308
89184W        W55593  26.932   4.520  13.922
89185W        W55594  31.379  15.250  13.191
89186W        W55595  29.908  40.583   2.346
89187W        W55596  22.516  13.208  12.704
89188W        W55597  17.355   0.590  10.471
89189W        W55598  44.346  16.096   3.541
89190W        W55599  44.562  38.302  12.057
89191W        W55600  20.015  28.634  11.952
89192W        W55601   9.440  14.862   1.604
89193W        W55602  38.550  11.186   2.788
89194W        W55603  17.242  21.931   4.276
89195W        W55604  35.970  32.537   1.210
89196W        W55605   0.026  40.182  11.500
89197W        W55606  24.450  10.402  10.644
89198W        W55607   0.503   9.458   5.321
89199W        W55608  35.578  35.768   1.843
89200W        W55609  43.279  14.123   1.431
89201W        W55610   2.201  13.287   3.682
89202W        W55611  28.818  33.949  10.530
89203W        W55612   5.205  40.286   1.214
89204W        W55613  31.364  34.572  14.419
89205W        W55614  44.164  22.212  14.484
89206W        W55615  31.893  11.255   2.432
89207W        W55616  21.774  19.621  13.417
89208W        W55617   1.792  34.710   1.334
89209W        W55618  39.846  37.389   0.939
89210W        W55619  26.663   2.081  10.202
89211W        W55620   5.826   7.310   0.456
89212W        W55621  16.771   2.286  13.368
89213W        W55622  10.171  38.830   3.170
89214W        W55623  38.906  29.173   1.005
89215W        W55624  32.711  31.881   1.474
89216W        W55625  42.378   1.773   3.283
89217W        W55626  35.184  38.239   1.436
89218W        W55627  30.001  28.111   2.425
89219W        W55628  11.473   1.898  11.628
89220W        W55629   8.713   9.668  11.933
89221W        W55630   2.597  39.274   4.284
89222W        W55631  25.512  15.051   3.175
89223W        W55632  15.177  22.588   3.690
89224W        W55633   6.401   5.881   3.729
89225W        W55634  12.313   1.915   1.498
89226W        W55635  32.574  36.383   3.730
89227W        W55636  10.549   5.427  12.045
89228W        W55637  16.187  23.652   0.234
89229W        W55638   2.653   5.367  14.809
89230W        W55639  15.248  13.070  12.375
89231W        W55640  26.065   5.068   3.878
89232W        W55641   6.752   7.264   2.698
89233W        W55642  11.189  14.756  14.893
89234W        W55643  33.079  36.559  13.934
89235W        W55644   2.408  41.977  14.515
89236W        W55645  12.351  17.293   3.716
89237W        W55646  29.991   3.877   1.702
89238W        W55647  35.024  10.171   0.199
89239W        W55648  18.534  38.608  13.044
89240W        W55649   2.684  15.004   0.695
89241W        W55650  29.808   2.515   3.061
89242W        W55651  43.767  11.453  13.329
89243W        W55652   3.724  22.586  12.336
89244W        W55653  34.594  20.609   3.295
89245W        W55654   7.933  18.651  11.722
89246W        W55655  10.598  29.135   0.895
89247W        W55656  36.174  24.677  14.214
89248W        W55657  17.853  28.872  12.922
89249W        W55658   7.955  43.953  12.213
89250W        W55659  21.692  22.194   0.487
89251W        W55660  27.835  36.091  13.680
89252W        W55661  12.165  44.717  14.941
89253W        W55662  23.478   6.645  14.386
89254W        W55663  11.433  42.860   4.576
89255W        W55664  31.847  40.915   3.324
89256W        W55665  19.153   0.634  13.325
89257W        W55666  14.289  16.237  10.526
89258W        W55667  18.652  30.614  13.430
89259W        W55668  16.464  15.107   4.138
89260W        W55669  23.534  17.074  13.191
89261W        W55670  13.158   7.277   1.461
89262W        W55671  43.209   0.002   2.260
89263W        W55672   0.843  26.826  10.668
89264W        W55673  33.387  24.559   3.794
89265W        W55674  42.308   0.347   1.224
89266W        W55675  39.212  42.416   3.317
89267W        W55676  44.932  42.581  12.854
89268W        W55677  16.822  10.854  11.150
89269W        W55678  35.986  44.942   4.590
89270W        W55679   2.877  21.379  14.282
89271W        W55680  32.843  24.142  11.679
89272W        W55681  17.779  18.261   0.876
89273W        W55682  35.994  44.722   3.537
89274W        W55683  42.396   8.892   2.354
89275W        W55684  19.196   8.589   1.296
89276W        W55685   5.844  20.637   4.853
89277W        W55686  42.913  40.749   0.865
89278W        W55687  30.574  39.738   2.893
89279W        W55688  32.990   2.524  11.442
89280W        W55689   9.713  11.227   3.819
89281W        W55690  43.263  12.800  11.843
89282W        W55691  41.667  30.939  14.146
89283W        W55692  34.946  17.342  13.332
89284W        W55693  43.700   1.021  14.825
89285W        W55694  44.372  37.598  11.515
89286W        W55695  14.093  10.705   2.714
89287W        W55696  36.274  16.767  12.023
89288W        W55697  22.793  20.853  13.091
89289W        W55698   2.315   3.943  14.993
89290W        W55699  42.316   9.898   0.289
89291W        W55700   2.880  15.544  13.990
89292W        W55701  16.293   3.337  10.616
89293W        W55702  18.209  35.612  11.968
89294W        W55703  17.154  11.261   1.293
89295W        W55704  34.661  27.388   4.058
89296W        W55705  31.114   0.452   1.738
89297W        W55706  32.903   0.145   4.221
89298W        W55707  12.172  22.292   4.862
89299W        W55708   6.841  35.164   1.300
89300W        W55709  33.608   8.673  14.429
89301W        W55710   7.482   7.753  12.156
89302W        W55711  11.228  14.298  14.030
89303W        W55712  40.993  21.240   2.683
89304W        W55713  26.572  34.357  10.417
89305W        W55714  23.425  31.610  13.059
89306W        W55715  28.484  27.117   4.570
89307W        W55716   5.527  36.395   4.243
89308W        W55717  30.215  44.856   0.546
89309W        W55718  22.688  23.193  11.482
89310W        W55719  33.081  28.083   2.329
89311W        W55720  21.592  10.738   0.686
89312W        W55721  11.276  12.142  11.156
89313W        W55722  41.478   5.699  14.859
89314W        W55723  23.811  41.386   0.198
89315W        W55724  29.198  25.958  13.891
89316W        W55725  38.438   2.772  14.625
89317W        W55726  31.306  32.908   0.930
89318W        W55727  14.153  38.311   2.215
89319W        W55728  20.368   6.712  14.714
89320W        W55729  16.635  31.556   1.665
89321W        W55730  40.942  31.405  11.206
89322W        W55731  10.527  24.436  13.116
89323W        W55732   5.876  41.943   2.553
89324W        W55733   3.188  11.282   3.329
89325W        W55734  26.693  17.109  11.382
89326W        W55735  16.889  42.398  13.554
89327W        W55736   1.191  40.945   0.582
89328W        W55737  36.038  10.802   4.097
89329W        W55738  28.576  18.322  10.772
89330W        W55739  15.318  32.095   2.780
89331W        W55740  25.327  19.171  13.070
89332W        W55741  32.118   5.267   5.038
89333W        W55742  17.991  10.510   1.465
89334W        W55743  30.577   7.117   1.831
89335W        W55744  15.729  17.127  14.862
89336W        W55745   6.443  43.039  11.063
89337W        W55746  37.306  28.025   3.975
89338W        W55747  29.336  22.182  14.850
89339W        W55748  31.885  30.464  12.607
89340W        W55749  44.714  14.197  14.945
89341W        W55750   6.974  22.645  12.272
89342W        W55751  27.912  30.997  13.570
89343W        W55752   6.844  41.673   1.839
89344W        W55753   9.225  28.753  11.312
89345W        W55754  17.135   0.678   0.668
89346W        W55755  35.621  12.821  14.012
89347W        W55756  10.199  11.358   3.613
89348W        W55757   4.888   5.875  13.555
89349W        W55758  25.753  44.764  13.338
89350W        W55759  26.748  11.938   4.485
89351W        W55760   1.909   3.347  14.947
89352W        W55761   7.370   4.005   4.680
89353W        W55762  30.141  25.703   0.435
89354W        W55763  16.318  39.068  12.986
89355W        W55764   5.924  44.234   0.356
89356W        W55765  10.449  33.697  12.054
89357W        W55766  43.268  38.922  10.500
89358W        W55767  23.438  38.331   4.118
89359W        W55768  33.688  12.441  10.755
89360W        W55769  31.158  33.449   2.609
89361W        W55770  16.313  40.851   5.104
89362W        W55771  26.717  10.414   4.172
89363W        W55772  13.838  15.077  14.756
89364W        W55773  18.156  26.050  11.250
89365W        W55774   5.210   8.864   1.874
89366W        W55775  20.077  33.920  12.132
89367W        W55776   0.319  20.145   1.023
89368W        W55777  44.551   9.899  11.183
89369W        W55778  41.244   2.735  11.198
89370W        W55779  39.513  29.511  11.511
89371W        W55780  18.620  44.985  11.568
89372W        W55781  27.039  22.995   2.722
89373W        W55782  21.136  35.150  12.570
89374W        W55783  17.434  27.894   4.094
89375W        W55784  38.724  33.366   0.865
89376W        W55785  35.515   0.956   3.346
89377W        W55786  38.849  44.910  12.512
89378W        W55787  15.104  12.864   3.648
89379W        W55788   1.801  40.260  13.542
89380W        W55789  31.410  24.208   4.597
89381W        W55790   1.223  15.420   3.245
89382W        W55791   5.903  32.983  14.761
89383W        W55792  41.059  31.982  13.447
89384W        W55793  24.398  24.748  13.436
89385W        W55794   8.735  17.096  13.826
89386W        W55795  35.058  33.901  12.163
89387W        W55796   9.277  42.210  11.649
89388W        W55797  23.246  28.538   1.264
89389W        W55798   9.713  22.544   2.476
89390W        W55799  24.626  12.540   1.796
89391W        W55800  21.750  10.713   2.347
89392W        W55801  24.318  33.082   0.828
89393W        W55802  17.264  13.678  10.434
89394W        W55803  20.453   6.386   4.204
89395W        W55804  20.148   2.008   1.892
89396W        W55805  10.839  13.416   3.514
89397W        W55806  30.147  16.118  14.750
89398W        W55807  18.829  27.560   2.340
89399W        W55808  34.607   5.813   3.075
89400W        W55809  18.256  34.051   0.062
89401W        W55810   9.431  21.808  11.323
89402W        W55811   7.275  12.377   3.578
89403W        W55812  25.214  17.653   1.651
89404W        W55813  29.409  29.597   0.344
89405W        W55814  37.410  27.362  13.007
89406W        W55815  27.637  32.537   0.732
89407W        W55816   9.911  24.886  11.985
89408W        W55817  15.106  19.994  14.069
89409W        W55818  31.353   4.070   3.219
89410W        W55819  19.898  18.183   3.778
89411W        W55820  10.547  35.450   1.199
89412W        W55821  28.260   5.980   3.078
89413W        W55822  31.576  30.931  12.350
89414W        W55823  25.614  36.961  12.035
89415W        W55824  23.329   5.652  11.980
89416W        W55825  31.766  26.308   1.868
89417W        W55826  11.405  34.063   2.447
89418W        W55827  32.386  44.559   1.280
89419W        W55828  30.015  24.995   1.336
89420W        W55829  41.445   5.875  10.893
89421W        W55830   1.936  17.701  11.657
89422W        W55831   1.289  10.048   1.456
89423W        W55832   0.939   4.770  12.861
89424W        W55833  10.850   6.662   1.437
89425W        W55834  21.027  43.201   2.302
89426W        W55835   7.129  18.663  13.389
89427W        W55836  14.316   2.249  12.361
89428W        W55837  39.214  40.980  14.200
89429W        W55838  35.994  22.062  11.122
89430W        W55839  20.797   3.285  14.534
89431W        W55840  31.989  33.665   3.682
89432W        W55841  10.668  40.955  11.194
89433W        W55842  36.080  14.362   2.785
89434W        W55843  26.136  43.228   1.296
89435W        W55844  44.433  16.848   0.788
89436W        W55845  26.904   6.312   3.187
89437W        W55846  13.773  28.450   1.609
89438W        W55847   7.310   8.582   0.055
89439W        W55848   6.900  42.789  10.993
89440W        W55849  41.934   2.803   1.765
89441W        W55850  38.731  33.066  10.693
89442W        W55851  33.586  10.944  10.174
89443W        W55852   4.144  16.120   2.762
89444W        W55853  29.791   0.068  10.382
89445W        W55854  32.945   4.096   4.949
89446W        W55855   6.885  30.678   0.704
89447W        W55856  41.990  37.063   1.510
89448W        W55857  17.564  14.503   1.876
89449W        W55858  19.748  10.020  10.277
89450W        W55859  16.862  39.530  14.508
89451W        W55860   6.676  16.185   1.037
89452W        W55861  33.554  41.317  12.091
89453W        W55862  29.330  33.973  10.489
89454W        W55863   1.668  32.079   2.726
89455W        W55864   0.780  20.796  12.487
89456W        W55865  16.806  10.604  10.713
89457W        W55866  18.087  27.511  11.620
89458W        W55867  24.743  31.835   2.415
89459W        W55868  25.159  40.809  12.018
89460W        W55869   8.718  30.304   0.945
89461W        W55870   7.669   3.928  12.107
89462W        W55871  19.936  34.967  13.969
89463W        W55872   1.480  42.309   1.159
89464W        W55873  15.013  22.099  12.436
89465W        W55874  28.626  16.152   3.845
89466W        W55875  24.444  32.642  12.032
89467W        W55876  26.633  11.287  14.436
89468W        W55877  13.587  14.258   2.745
89469W        W55878   4.198  30.051  10.734
89470W        W55879  10.279  37.353   2.567
89471W        W55880   3.795  26.069   0.028
89472W        W55881  26.112  22.634   2.204
89473W        W55882  14.839   6.348   1.278
89474W        W55883  30.512   8.623   3.776
89475W        W55884  24.551  15.768  11.647
89476W        W55885  14.959  25.602   0.495
89477W        W55886  40.332   3.734  14.392
89478W        W55887   8.701   1.918  11.045
89479W        W55888  21.612   3.854  10.826
89480W        W55889   0.503   4.125   1.302
89481W        W55890   3.374  27.992   1.830
89482W        W55891   7.221   0.368   4.272
89483W        W55892  32.593  28.036   2.117
89484W        W55893  20.158   3.764   2.212
89485W        W55894   4.488  23.457   1.346
89486W        W55895   6.962  39.044   1.049
89487W        W55896  42.361   2.529   2.839
89488W        W55897  29.659  28.075  11.181
89489W        W55898  40.172   9.434  10.808
89490W        W55899  14.203  12.253   4.360
89491W        W55900  14.319  17.053  13.229
89492W        W55901  13.266   5.156  11.583
89493W        W55902  36.642   6.308   2.714
89494W        W55903   2.868  22.770   2.155
89495W        W55904  11.764  18.192   4.568
89496W        W55905   9.183  16.779  13.867
89497W        W55906   3.312   3.494  11.399
89498W        W55907  28.039  31.140  12.678
89499W        W55908   0.940   3.366  14.859
89500W        W55909  28.977  40.338  10.687
89501W        W55910  43.393   0.651  12.105
89502W        W55911  14.511  28.870   3.261
89503W        W55912   5.851   8.464   4.071
89504W        W55913  30.188  13.163  12.673
89505W        W55914   4.422   0.978   3.616
89506W        W55915  27.091  29.427   3.671
89507W        W55916   9.151  20.367   4.629
89508W        W55917   6.133  10.771  13.583
89509W        W55918   7.359  36.584  11.958
89510W        W55919  18.660   4.766   1.333
89511W        W55920  25.760  36.608   1.762
89512W        W55921  27.661  22.024   3.261
89513W        W55922  44.823  43.676   2.166
89514W        W55923   3.258   9.130   1.772
89515W        W55924  21.299  25.562  12.489
89516W        W55925  21.872  15.737   3.760
89517W        W55926   9.453  21.738   2.322
89518W        W55927  44.387  39.270   4.447
89519W        W55928  11.143   4.155   3.738
89520W        W55929  20.973  21.583  14.359
89521W        W55930   1.349  39.456   4.446
89522W        W55931  17.302  31.925  14.951
89523W        W55932   1.842   3.545  12.060
89524W        W55933  25.899   0.297  12.495
89525W        W55934  37.953  31.664  14.912
89526W        W55935  14.599  43.116  14.954
89527W        W55936  26.233  29.909  13.976
89528W        W55937   5.647  11.625  13.602
89529W        W55938  29.003  24.610   3.298
89530W        W55939   4.461  11.865  10.481
89531W        W55940  24.459  23.316   2.873
89532W        W55941  36.901  44.846   0.861
89533W        W55942  21.015  22.671   3.164
89534W        W55943  33.371  19.668  13.357
89535W        W55944  31.132   1.445  12.790
89536W        W55945  12.568  37.867  12.300
89537W        W55946  20.340  21.512  10.690
89538W        W55947  29.019  37.425  12.399
89539W        W55948   4.954  42.888   0.154
89540W        W55949  34.573  31.378   3.751
89541W        W55950  15.551  40.563   2.853
89542W        W55951  43.367  28.522  10.751
89543W        W55952  13.808  32.124   3.622
89544W        W55953  12.611  37.848  10.358
89545W        W55954  31.635   8.305  11.138
89546W        W55955  20.262   3.477  12.993
89547W        W55956  39.569  12.846   3.266
89548W        W55957  20.664   0.064  12.915
89549W        W55958  34.520  16.318   0.208
89550W        W55959  16.333  27.029   4.196
89551W        W55960  23.258  41.852  13.459
89552W        W55961  21.191  18.413   3.245
89553W        W55962  30.999  40.349   4.783
89554W        W55963   2.240  29.541  13.886
89555W        W55964  25.637  41.928  11.140
89556W        W55965  34.669  41.025   1.948
89557W        W55966  32.310   1.473  14.407
89558W        W55967  19.633  21.550   3.805
89559W        W55968  14.707   6.220  12.148
89560W        W55969  33.138  36.919   3.305
89561W        W55970  36.267  37.575   3.580
89562W        W55971  25.540   2.266  11.393
89563W        W55972   3.817  37.249  13.905
89564W        W55973  20.872   5.717   2.660
89565W        W55974   9.427  30.104  12.990
89566W        W55975  14.615   2.009   3.267
89567W        W55976  10.056   0.709   2.727
89568W        W55977  11.641  34.021  14.354
89569W        W55978  27.189  26.645   0.379
89570W        W55979  42.840  23.528   2.266
89571W        W55980  30.035  29.479   4.546
89572W        W55981  12.150  22.423  11.737
89573W        W55982   6.066  15.592   0.018
89574W        W55983  23.607  44.510  12.806
89575W        W55984  10.599  18.052  13.432
89576W        W55985  11.364   6.297   2.194
89577W        W55986  11.788  21.334   1.112
89578W        W55987  32.419  41.752   3.244
89579W        W55988  38.919  22.245   4.694
89580W        W55989  32.919   9.731  12.464
89581W        W55990  43.778  37.556   4.360
89582W        W55991   3.870  39.961  12.448
89583W        W55992   3.524  44.311  11.995
89584W        W55993  17.466  10.164   4.659
89585W        W55994  32.026   4.350  13.505
89586W        W55995   9.685  26.930   4.192
89587W        W55996   3.926  29.583   9.935
89588W        W55997  26.229  26.625   3.232
89589W        W55998  38.390  23.606  12.489
89590W        W55999  12.213  44.207   3.306
89591W        W56000   5.487  28.428  11.599
89592W        W56001  35.383   7.844  13.447
89593W        W56002  33.748   2.752   3.250
89594W        W56003  10.132  31.985  12.284
89595W        W56004  43.373  20.162   4.680
89596W        W56005  22.164  38.009  11.225
89597W        W56006  26.720   2.185  12.966
89598W        W56007   4.447   3.239  13.814
89599W        W56008   3.755  10.474  10.738
89600W        W56009  23.919  20.161  10.899
89601W        W56010  16.700  33.338   4.024
89602W        W56011  15.763  38.426  14.134
89603W        W56012  11.609  38.326   3.167
89604W        W56013   8.637  29.904  11.693
89605W        W56014  29.482  21.633  12.249
89606W        W56015   8.735  22.794   4.567
89607W        W56016  43.219  13.231   1.225
89608W        W56017  25.494  15.745  13.793
89609W        W56018  33.615  37.465   1.895
89610W        W56019  11.720  29.491  12.212
89611W        W56020  31.641  15.266   1.806
89612W        W56021  22.979  28.536  13.958
89613W        W56022  11.284   9.255  14.854
89614W        W56023  16.716  10.162  13.370
89615W        W56024  43.996  29.778   1.234
89616W        W56025  32.560  30.627  14.917
89617W        W56026  44.289  31.192  11.691
89618W        W56027  18.210  15.743  11.389
89619W        W56028  41.425  43.044   2.431
89620W        W56029   8.165  44.705   3.816
89621W        W56030  34.977  41.969  13.960
89622W        W56031  42.816  16.599  13.450
89623W        W56032  16.388   0.951  14.734
89624W        W56033   5.444  21.135  13.940
89625W        W56034  19.754  26.198  13.952
89626W        W56035   1.791  18.977  13.126
89627W        W56036  28.220  11.839   1.980
89628W        W56037  37.600  23.587   4.509
89629W        W56038   6.827   3.911   1.251
89630W        W56039  23.718  19.255  12.852
89631W        W56040   3.004   0.031  13.811
89632W        W56041  30.507   2.161  11.157
89633W        W56042  17.197  32.836   0.356
89634W        W56043  44.214  32.607   4.132
89635W        W56044  13.760  25.621  10.955
89636W        W56045  31.637  41.542  10.745
89637W        W56046  33.578  23.115  10.461
89638W        W56047  41.014  19.335   1.326
89639W        W56048  39.446  36.525   4.724
89640W        W56049  30.495  36.082   3.550
89641W        W56050  28.199  38.774  10.767
89642W        W56051  31.446   9.309   2.719
89643W        W56052  20.127  14.620  13.539
89644W        W56053  20.626  17.568   3.279
89645W        W56054  18.303  24.514   1.741
89646W        W56055  18.887   9.811  11.250
89647W        W56056  43.001  10.759  13.247
89648W        W56057  14.520   3.729  11.108
89649W        W56058  15.831  36.283   1.683
89650W        W56059   3.362  26.743  12.056
89651W        W56060   1.073  21.109  14.103
89652W        W56061  36.442  33.928   3.574
89653W        W56062  21.737  12.074   2.783
89654W        W56063  12.921   9.778  10.815
89655W        W56064  23.223  28.185   3.540
89656W        W56065   3.937  44.979   0.046
89657W        W56066  34.840  10.238  10.701
89658W        W56067  43.504  11.235  11.501
89659W        W56068   2.977  34.301   1.256
89660W        W56069  22.806  39.925  11.151
89661W        W56070  23.288  31.278   2.877
89662W        W56071   1.490  10.944   3.732
89663W        W56072   2.375   0.497   4.500
89664W        W56073  25.192  38.403  12.528
89665W        W56074  38.972  12.524  12.473
89666W        W56075  22.767   9.326  11.066
89667W        W56076  11.819  14.652   4.377
89668W        W56077  28.186   4.612  13.944
89669W        W56078  15.555   4.822   1.048
89670W        W56079  12.365  21.594   0.532
89671W        W56080  37.984   7.210  13.818
89672W        W56081  33.982  27.072   2.445
89673W        W56082  43.423  32.047   2.102
89674W        W56083  22.567  20.225   3.149
89675W        W56084  12.309  15.283   1.479
89676W        W56085  31.877  18.624  10.542
89677W        W56086  39.608  38.997  13.433
89678W        W56087  43.686  39.687  11.932
89679W        W56088  34.533  19.975  12.524
89680W        W56089  21.316  41.375   2.468
89681W        W56090   6.487  23.536   2.315
89682W        W56091  36.208   0.745  11.998
89683W        W56092  35.609  19.482   1.969
89684W        W56093  43.320  38.171  13.890
89685W        W56094  15.474  21.723   0.859
89686W        W56095  11.290  10.154   1.288
89687W        W56096  14.397   6.018   1.283
89688W        W56097  16.072  24.438   4.064
89689W        W56098   5.492  39.551  11.722
89690W        W56099   6.164  21.725  12.774
89691W        W56100   4.319  40.250   1.440
89692W        W56101  17.319  12.275  10.750
89693W        W56102   2.558   8.214   2.808
89694W        W56103  31.143  23.003  12.980
89695W        W56104  24.269  15.027   3.393
89696W        W56105   9.981   8.258  14.113
89697W        W56106   8.754  37.322   0.281
89698W        W56107  37.139  41.412   3.179
89699W        W56108  35.228   1.521  10.682
89700W        W56109   9.672  29.924  12.589
89701W        W56110  12.796  23.904  12.742
89702W        W56111  20.742  19.925  12.041
89703W        W56112  20.468   1.472   4.086
89704W        W56113  41.918  33.074   1.914
89705W        W56114  21.175  26.559   4.121
89706W        W56115  12.369  23.723   2.325
89707W        W56116  15.878  42.421   3.641
89708W        W56117  38.354  36.792   4.212
89709W        W56118  14.318  31.552  11.627
89710W        W56119   4.105  10.958   2.685
89711W        W56120  29.155   4.080  12.225
89712W        W56121  20.953  14.086   0.607
89713W        W56122  31.952  33.539  10.694
89714W        W56123  42.418  39.871  14.711
89715W        W56124  15.203  23.459   3.488
89716W        W56125  34.637   5.908   2.145
89717W        W56126   5.584  27.930   2.175
89718W        W56127   4.728  25.464  11.001
89719W        W56128  24.597  35.858   2.522
89720W        W56129  21.973  23.797  11.211
89721W        W56130  32.100   7.614   3.644
89722W        W56131   3.749  17.818   3.613
89723W        W56132  40.435  26.776  14.763
89724W        W56133   8.711  36.803   0.308
89725W        W56134  28.099  44.091  10.023
89726W        W56135  18.801  44.072  14.848
89727W        W56136  27.243  22.291   3.465
89728W        W56137  18.698   9.976  11.674
89729W        W56138  14.429  14.685  11.596
89730W        W56139  16.559  34.389  11.519
89731W        W56140  29.502   2.997   2.427
89732W        W56141   6.249  40.829   4.361
89733W        W56142  17.247  13.245  10.762
89734W        W56143  25.517  34.611  10.699
89735W        W56144  19.013  13.103  12.591
89736W        W56145   8.318  20.688   2.434
89737W        W56146   3.824  32.346   3.861
89738W        W56147  11.697  15.665   1.006
89739W        W56148  29.390   5.291  12.703
89740W        W56149  14.301  16.901   0.779
89741W        W56150   2.947  37.410  10.869
89742W        W56151  42.736  42.335  13.906
89743W        W56152  26.009   3.371   1.198
89744W        W56153  29.435  43.753   1.710
89745W        W56154  31.229  37.462  12.848
89746W        W56155  40.936  21.197   3.234
89747W        W56156  39.461  15.116  12.322
89748W        W56157  44.650  16.102   2.297
89749W        W56158  41.907  44.946  12.433
89750W        W56159   2.321  26.373   1.844
89751W        W56160   8.354  23.742   3.373
89752W        W56161  10.079   8.876  13.136
89753W        W56162  32.214  12.080   0.756
89754W        W56163  25.105   8.148  11.518
89755W        W56164   4.712   4.447  11.934
89756W        W56165  41.583  26.107   3.394
89757W        W56166  33.325   1.395  12.069
89758W        W56167  13.793   4.943  11.097
89759W        W56168   9.660  32.101  12.132
89760W        W56169  24.042  26.043   2.828
89761W        W56170   4.812  14.611   1.560
89762W        W56171  43.502   2.117  14.875
89763W        W56172  24.565  20.242   1.733
89764W        W56173  27.697  31.899  12.482
89765W        W56174  22.246  23.499   0.017
89766W        W56175  42.049  43.840   1.629
89767W        W56176  19.242  17.777  11.187
89768W        W56177  43.569   8.760   0.957
89769W        W56178  33.538   1.232   4.592
89770W        W56179   0.785   0.179  13.810
89771W        W56180  17.643   1.741  13.007
89772W        W56181  10.790  10.153  14.977
89773W        W56182  25.726  40.851   1.259
89774W        W56183  11.541  20.570   1.911
89775W        W56184  31.891  10.700  10.679
89776W        W56185  41.409   2.206   0.713
89777W        W56186  28.479  39.916  14.348
89778W        W56187  16.412   0.717   0.220
89779W        W56188  43.389   3.501   2.655
89780W        W56189  16.901   9.924  12.904
89781W        W56190  43.375  30.439  12.578
89782W        W56191   0.264  17.961  14.905
89783W        W56192  35.272   8.645   2.408
89784W        W56193  21.299  11.637   1.676
89785W        W56194   0.718   5.727  11.159
89786W        W56195  18.612  30.011   2.649
89787W        W56196   2.375  34.863   3.533
89788W        W56197   5.398  16.555  14.857
89789W        W56198  40.587  39.293  12.032
89790W        W56199  26.194  39.822   0.789
89791W        W56200   1.796  23.460   3.632
89792W        W56201  28.731   7.550   4.814
89793W        W56202  30.810  36.347   3.006
89794W        W56203  17.318  34.927  11.492
89795W        W56204  18.750  35.492   4.349
89796W        W56205   6.925  14.794  14.474
89797W        W56206  29.603  11.340  13.558
89798W        W56207   0.957  38.803  14.563
89799W        W56208  11.940  14.731  10.558
89800W        W56209  25.666  20.482  11.566
89801W        W56210  16.237  13.883  10.503
89802W        W56211  30.064  17.650   2.870
89803W        W56212   4.400  37.654   3.539
89804W        W56213  42.272  28.084  11.445
89805W        W56214  16.933   5.697  13.486
89806W        W56215   7.305  25.256  13.950
89807W        W56216   7.353  10.881  13.022
89808W        W56217  14.616  42.130   4.146
89809W        W56218   3.878  36.896  11.432
89810W        W56219  17.122   5.373   1.434
89811W        W56220  43.828   4.084   4.281
89812W        W56221  39.388   1.785   1.233
89813W        W56222   1.088  42.938   0.477
89814W        W56223   2.200  13.206   3.185
89815W        W56224   1.720   9.825  13.015
89816W        W56225  37.423  19.107   0.306
89817W        W56226   0.127   6.824   0.660
89818W        W56227  39.052  31.664  10.141
89819W        W56228   7.908  29.428  14.460
89820W        W56229   1.996  41.424   0.418
89821W        W56230  11.855   3.037  13.301
89822W        W56231   7.442  11.315   1.287
89823W        W56232  11.895  17.235  11.912
89824W        W56233   0.436  29.708  13.359
89825W        W56234  11.744  16.754   4.068
89826W        W56235   9.643  22.703   4.672
89827W        W56236  15.075  12.560  12.491
89828W        W56237  34.516  40.877  11.654
89829W        W56238  28.280  36.192   3.634
89830W        W56239  40.347  36.118  14.539
89831W        W56240  36.800  23.602  11.384
89832W        W56241  31.944   4.242   0.030
89833W        W56242  30.548  20.018   3.238
89834W        W56243  11.646  36.108   5.000
89835W        W56244  14.073  36.063   4.318
89836W        W56245   5.653  31.573  14.220
89837W        W56246  34.082  27.949   3.727
89838W        W56247   4.532   9.244  14.971
89839W        W56248  23.578   4.904   2.360
89840W        W56249  31.179   8.262   1.948
89841W        W56250  36.283  34.780  13.904
89842W        W56251   3.380  21.435   0.946
89843W        W56252  17.562   1.587   3.098
89844W        W56253  28.783   3.885  12.603
89845W        W56254  18.235  30.173  12.458
89846W        W56255  44.020  27.382  13.771
89847W        W56256   9.539  32.081   4.761
89848W        W56257  23.034  26.558  10.689
89849W        W56258  15.625  41.788   1.821
89850W        W56259  38.446   7.132   1.932
89851W        W56260  28.941  19.550  13.997
89852W        W56261  23.027  35.068   3.150
89853W        W56262   7.847   3.464  13.370
89854W        W56263  16.530  16.639  12.927
89855W        W56264  13.255  21.030   1.314
89856W        W56265  13.642  41.474   0.016
89857W        W56266  36.960  41.357  11.979
89858W        W56267  13.786  17.325   2.170
89859W        W56268   1.310  30.873   0.678
89860W        W56269  10.475  16.179   0.251
89861W        W56270  19.003  14.246  10.681
89862W        W56271  29.990  39.392   2.695
89863W        W56272  39.204  28.221   4.970
89864W        W56273  28.594  25.254   1.272
89865W        W56274  20.081  33.128   2.294
89866W        W56275  26.867   9.136  10.814
89867W        W56276  11.430  42.445  10.449
89868W        W56277  22.988  26.358   1.252
89869W        W56278  38.097   0.832  10.791
89870W        W56279  44.060  33.475   3.317
89871W        W56280  14.715  43.885   0.452
89872W        W56281  34.115  12.873  12.110
89873W        W56282  28.426  27.707   1.303
89874W        W56283  21.572  19.820   3.716
89875W        W56284  22.710  39.459   3.171
89876W        W56285  22.301  34.240   4.139
89877W        W56286  11.300  31.280   3.606
89878W        W56287  11.163  10.849   4.651
89879W        W56288  25.528   0.213  14.743
89880W        W56289  29.701   7.869   2.247
89881W        W56290  36.393  32.500   2.822
89882W        W56291  37.903  13.198  10.762
89883W        W56292  43.960  42.948   1.950
89884W        W56293  16.706  42.968   0.720
89885W        W56294  20.182  20.383   4.089
89886W        W56295  31.060  18.081   3.069
89887W        W56296   1.898  35.388  14.471
89888W        W56297  30.284   8.208   2.224
89889W        W56298  27.140  39.133   3.454
89890W        W56299  31.433  40.567  14.339
89891W        W56300   7.320  13.158   1.448
89892W        W56301  19.743  23.096   1.501
89893W        W56302   2.647   5.238  12.125
89894W        W56303  10.710  19.876   0.825
89895W        W56304  23.273  29.833  13.510
89896W        W56305  18.183   0.019  11.884
89897W        W56306  13.799  10.888   4.042
89898W        W56307   3.951  35.506  13.381
89899W        W56308  36.437  17.196   3.443
89900W        W56309  29.361  11.220  11.039
89901W        W56310  38.591  29.508   5.017
89902W        W56311   9.457   2.323   3.653
89903W        W56312  29.216  30.625   2.356
89904W        W56313  43.309  42.312  12.241
89905W        W56314  10.546  12.835   4.860
89906W        W56315   9.751  42.867   4.559
89907W        W56316   1.938  21.193   4.497
89908W        W56317  44.311   9.465   1.855
89909W        W56318  26.173  14.740   1.997
89910W        W56319  15.508  42.995   1.365
89911W        W56320  25.394  39.281  12.804
89912W        W56321  28.693  12.006   2.172
89913W        W56322  42.460   6.838   4.017
89914W        W56323  18.164  17.099   0.421
89915W        W56324  29.522  20.756   2.655
89916W        W56325  41.832  40.411   4.864
89917W        W56326  10.622  31.826  12.374
89918W        W56327  34.560  10.696  14.656
89919W        W56328  40.838  26.155  11.445
89920W        W56329  33.365  18.511   0.886
89921W        W56330  26.605  14.683   1.666
89922W        W56331   4.963  11.108  13.582
89923W        W56332  10.196  24.204  14.783
89924W        W56333  10.641  35.366  13.243
89925W        W56334  35.131  26.035   2.619
89926W        W56335  15.689   8.719   1.741
89927W        W56336   6.896  42.766  13.953
89928W        W56337  25.067   6.350  14.491
89929W        W56338  31.048  11.335   3.446
89930W        W56339  16.548  42.151  12.142
89931W        W56340  19.619  24.260  10.763
89932W        W56341  21.576  20.747   4.169
89933W        W56342  21.784  13.565  13.678
89934W        W56343  22.562  29.899  11.012
89935W        W56344  12.453  20.353   9.824
89936W        W56345   8.631  22.940  11.125
89937W        W56346  20.022  42.047   2.717
89938W        W56347   3.096  34.376   3.256
89939W        W56348  32.573  36.345   4.743
89940W        W56349  30.563  32.750   4.608
89941W        W56350  40.425  43.401   2.221
89942W        W56351   6.750   6.336   0.804
89943W        W56352   1.535  21.896  12.009
89944W        W56353  18.779  20.674  11.627
89945W        W56354   3.587  40.510   3.190
89946W        W56355  41.059  23.053  11.190
89947W        W56356   5.306  34.644   4.503
89948W        W56357   7.336  10.185   5.113
89949W        W56358  20.346   7.982   5.089
89950W        W56359   9.687  31.376   5.477
89951W        W56360  31.894  11.683  11.492
89952W        W56361   3.339  31.602   3.335
89953W        W56362   2.838  41.628  11.221
89954W        W56363  13.776  11.615  14.746
89955W        W56364   5.276   6.359   2.938
89956W        W56365  12.586  24.922   4.347
89957W        W56366  15.590  14.190   1.214
89958W        W56367  37.252  13.634  14.507
89959W        W56368  19.053  19.705  14.995
89960W        W56369  26.930  23.132  10.751
89961W        W56370  19.535  19.830   1.677
89962W        W56371  15.313  39.064   4.577
89963W        W56372   8.735   1.418   0.692
89964W        W56373  15.503  10.323   1.431
89965W        W56374  42.049   8.677   0.557
89966W        W56375   3.368   0.224  10.454
89967W        W56376  36.968  22.103   4.339
89968W        W56377   9.716  26.197   3.569
89969W        W56378  14.822   9.916  14.327
89970W        W56379  41.721   7.991  14.656
89971W        W56380  25.004  23.313  13.991
89972W        W56381  10.619  39.076  14.480
89973W        W56382  38.521  17.050  14.288
89974W        W56383  22.225   5.955   0.770
89975W        W56384  20.032  14.418  14.986
89976W        W56385  21.598  17.029  12.283
89977W        W56386   5.152  43.341  12.489
89978W        W56387  15.249  32.143  10.364
89979W        W56388  28.205  42.454   0.964
89980W        W56389  11.254   9.886  11.190
89981W        W56390  44.661  11.232  12.368
89982W        W56391  24.671  11.800  10.976
89983W        W56392  36.766  26.553  13.527
89984W        W56393  32.941  14.875  11.307
89985W        W56394  29.539  34.910   1.871
89986W        W56395  22.015  34.556   2.723
89987W        W56396  16.710  13.551  13.953
89988W        W56397   8.699  44.814  13.957
89989W        W56398  33.751  35.042   2.279
89990W        W56399  10.697  31.400  12.665
89991W        W56400  29.740  24.572  11.883
89992W        W56401  26.668  40.399   4.645
89993W        W56402   0.155   8.811   1.294
89994W        W56403  41.399  33.872   3.612
89995W        W56404  30.892  14.805   3.364
89996W        W56405  27.109  42.912  12.697
89997W        W56406  18.135  40.248  13.425
89998W        W56407  40.373  16.584  12.021
89999W        W56408  13.060  35.952   2.766
90000W        W56409  34.160  26.940  11.522
90001W        W56410  21.247  11.664   4.625
90002W        W56411  42.481   2.256  13.358
90003W        W56412   2.724  32.616   4.656
90004W        W56413  19.854  15.360   0.297
90005W        W56414  30.726  39.519  12.092
90006W        W56415  16.545  43.553   0.482
90007W        W56416  22.097  11.507  11.194
90008W        W56417  19.755  26.948   3.748
90009W        W56418   9.358  42.957   4.883
90010W        W56419   9.676  19.033   4.256
90011W        W56420  27.315   2.362  11.072
90012W        W56421  25.998  13.314   1.273
90013W        W56422  30.066  32.115   0.854
90014W        W56423  32.229  23.692  12.519
90015W        W56424  21.094  30.997   3.398
90016W        W56425  27.166  29.190  14.071
90017W        W56426  37.518   4.805  13.295
90018W        W56427  11.242  44.874  12.541
90019W        W56428  37.413  33.351  11.983
90020W        W56429   3.546  14.293  14.016
90021W        W56430  24.805  37.315   4.526
90022W        W56431  22.625  22.153  13.465
90023W        W56432  43.306  10.307  11.959
90024W        W56433   0.971  10.070   0.481
90025W        W56434   3.972   8.348   2.511
90026W        W56435  10.676  21.439   0.807
90027W        W56436  15.001  14.562  12.256
90028W        W56437  12.315  12.704  11.994
90029W        W56438  19.320  12.871  11.256
90030W        W56439  23.661  40.491   3.106
90031W        W56440  38.304  20.552   1.156
90032W        W56441  31.625   8.315  14.253
90033W        W56442   4.925  32.356   1.659
90034W        W56443  44.273   7.226   1.896
90035W        W56444  21.100  24.344  12.085
90036W        W56445  27.596  15.202   2.842
90037W        W56446  28.482  40.736  12.015
90038W        W56447  16.095  14.764  10.341
90039W        W56448  33.428  37.134   3.729
90040W        W56449  10.879  44.582  10.208
90041W        W56450  19.101   1.230   1.797
90042W        W56451   0.319  10.456  13.338
90043W        W56452  19.743   0.430   3.737
90044W        W56453   9.723  20.803  12.187
90045W        W56454  18.128   0.545  14.001
90046W        W56455   2.488  19.812  10.290
90047W        W56456  36.506  16.302  11.924
90048W        W56457  11.344  15.621  11.257
90049W        W56458  23.694   9.309  13.028
90050W        W56459  26.310  30.574   0.755
90051W        W56460  15.606  15.745  12.100
90052W        W56461   8.351  34.822   2.909
90053W        W56462  25.112  26.103   4.579
90054W        W56463  26.768  21.049   2.727
90055W        W56464  20.557  10.903  10.629
90056W        W56465  11.740  25.964   1.731
90057W        W56466   5.364  43.722   3.182
90058W        W56467  19.698  38.583  14.458
90059W        W56468  19.060  21.901  14.334
90060W        W56469  24.307  37.224   4.510
90061W        W56470  15.447  23.696   4.934
90062W        W56471  21.001  34.352   2.787
90063W        W56472  31.604  32.084   5.035
90064W        W56473   3.842   0.784   2.256
90065W        W56474  34.436  30.938   0.188
90066W        W56475  10.347  35.881  11.469
90067W        W56476  19.104   3.401  13.908
90068W        W56477   2.019  34.352   1.685
90069W        W56478  34.063  31.640   2.761
90070W        W56479  38.580   8.370  10.531
90071W        W56480   4.277  44.000   3.653
90072W        W56481  44.570  21.197  13.000
90073W        W56482  23.143   4.900   3.153
90074W        W56483   5.848   2.402   0.227
90075W        W56484  16.265  44.330   2.485
90076W        W56485  10.885  32.704  14.959
90077W        W56486  34.462  26.892   2.347
90078W        W56487   8.680  10.304   1.188
90079W        W56488   1.020  25.898   3.165
90080W        W56489   3.417  27.462   3.500
90081W        W56490  19.159  20.090   0.997
90082W        W56491  11.420  43.714   4.522
90083W        W56492  36.865  29.156   0.363
90084W        W56493  29.615   2.800   3.435
90085W        W56494  12.341  10.622  10.758
90086W        W56495  15.314   8.650   3.577
90087W        W56496  38.079  19.419   1.484
90088W        W56497  28.419  37.819   2.250
90089W        W56498  39.283  26.990  10.636
90090W        W56499  29.757  25.422  10.813
90091W        W56500   7.677  11.823  13.971
90092W        W56501  30.413  41.974  10.782
90093W        W56502  11.935   3.403   1.301
90094W        W56503  44.916  39.891  12.477
90095W        W56504   1.699  23.538  12.046
90096W        W56505  30.325  23.513   1.381
90097W        W56506  21.581  42.048  14.043
90098W        W56507   5.006  33.583  10.506
90099W        W56508  35.260  36.922   0.952
90100W        W56509   6.218  16.893   2.569
90101W        W56510  19.048   3.889   0.970
90102W        W56511  28.936  13.706   4.096
90103W        W56512  32.713   0.895   4.087
90104W        W56513  34.552   0.263   2.200
90105W        W56514  27.448  38.471   4.133
90106W        W56515  29.925  13.514  14.725
90107W        W56516  19.294  24.627   2.843
90108W        W56517   5.573  24.808   2.702
90109W        W56518  44.448  20.473  14.903
90110W        W56519  44.692  34.296  13.350
90111W        W56520  16.922  32.601  14.017
90112W        W56521  25.955   9.685  14.779
90113W        W56522  33.224   5.410  11.178
90114W        W56523  25.237  44.862  14.473
90115W        W56524  19.103  32.199   3.914
90116W        W56525  29.056  31.837  13.092
90117W        W56526  27.467  21.795   1.715
90118W        W56527  40.321  27.249  11.963
90119W        W56528  13.336  10.290   1.458
90120W        W56529  42.451  38.869   2.121
90121W        W56530  30.158  33.995   5.006
90122W        W56531  36.586   1.894  10.763
90123W        W56532   3.941   8.752   2.179
90124W        W56533  18.349   1.400  10.694
90125W        W56534   2.314  44.150  13.912
90126W        W56535   9.971  27.165   3.861
90127W        W56536  32.403  10.922   2.739
90128W        W56537   4.896  42.351  14.959
90129W        W56538  23.915  17.720   4.407
90130W        W56539   6.324  16.912   3.845
90131W        W56540  27.484  17.294  13.682
90132W        W56541  15.734  23.656  14.058
90133W        W56542  27.865   6.437  11.916
90134W        W56543  42.011  35.622  12.429
90135W        W56544  43.752   8.442   1.786
90136W        W56545  44.688  12.696  14.953
90137W        W56546  37.569  16.617  14.874
90138W        W56547  39.355  39.299  13.835
90139W        W56548   3.338   7.167  13.877
90140W        W56549   9.755  12.304   3.612
90141W        W56550  42.743   2.210  10.798
90142W        W56551   1.748  28.224   1.267
90143W        W56552  28.022   4.442  10.773
90144W        W56553  27.605   4.771   3.923
90145W        W56554  32.784  22.743  11.521
90146W        W56555  43.292  11.756   2.991
90147W        W56556  36.337  32.191   1.688
90148W        W56557  38.445  10.384   0.891
90149W        W56558  11.666  25.143   3.113
90150W        W56559  41.868   1.482   4.087
90151W        W56560  31.232   4.710  14.790
90152W        W56561  15.229  37.587   3.475
90153W        W56562  44.487  10.840  12.901
90154W        W56563  21.400  20.989  11.162
90155W        W56564  15.399  23.217  14.889
90156W        W56565  30.536   3.068  12.949
90157W        W56566  19.889  42.787   0.766
90158W        W56567  25.227   3.737  12.679
90159W        W56568  12.760  43.247   5.014
90160W        W56569   3.810  14.293  13.547
90161W        W56570   0.225  36.535   2.348
90162W        W56571   9.262  27.280  11.541
90163W        W56572   0.325  21.224   4.225
90164W        W56573  25.887  17.772  14.050
90165W        W56574  27.141  43.941  12.442
90166W        W56575  10.385  11.740   2.204
90167W        W56576  36.634   4.128  12.122
90168W        W56577  30.025  29.547   1.648
90169W        W56578  34.374  16.847  13.039
90170W        W56579  15.986  41.428  10.207
90171W        W56580  41.461  13.845  14.249
90172W        W56581  31.565  11.570   4.564
90173W        W56582  43.133  34.788  10.272
90174W        W56583  30.554  29.061   1.624
90175W        W56584  25.884  18.622  12.986
90176W        W56585  32.664  36.727   4.125
90177W        W56586  35.682  40.342   2.818
90178W        W56587  42.532   6.340   4.164
90179W        W56588  26.532  19.353  14.475
90180W        W56589  16.169  15.274  13.806
90181W        W56590  14.108  11.567   1.496
90182W        W56591  26.658   7.779  13.922
90183W        W56592   4.956  33.976   2.314
90184W        W56593  40.901  12.179  11.298
90185W        W56594  26.707  36.965   0.889
90186W        W56595  41.028   2.311  13.439
90187W        W56596   9.789   2.050   2.820
90188W        W56597  32.443   7.084   1.893
90189W        W56598  25.329  17.882  11.963
90190W        W56599  44.016  41.597  10.651
90191W        W56600  31.628  22.273  11.259
90192W        W56601  38.453  40.932  14.579
90193W        W56602  33.917  30.042  12.537
90194W        W56603  37.594   2.941   0.236
90195W        W56604  26.356  30.536   1.657
90196W        W56605  20.178  27.135  13.917
90197W        W56606   1.954  27.455   1.771
90198W        W56607  21.267  43.246   3.629
90199W        W56608   6.607  34.344   3.135
90200W        W56609  13.851  40.157   1.192
90201W        W56610  15.893  26.516  10.005
90202W        W56611  40.264   9.743   0.523
90203W        W56612  10.131  32.896  13.295
90204W        W56613  35.576   3.692  12.546
90205W        W56614  18.007   7.728   4.144
90206W        W56615  34.849   6.686  13.777
90207W        W56616   1.984  38.175  12.564
90208W        W56617  44.990  37.515  14.903
90209W        W56618  36.185  36.849   3.253
90210W        W56619  30.669  34.994   1.330
90211W        W56620   3.283   4.736   2.471
90212W        W56621  40.137  39.543  12.114
90213W        W56622  20.725  16.086   0.349
90214W        W56623  23.750  33.347  14.323
90215W        W56624  22.968  36.007   5.029
90216W        W56625  10.754   1.300   2.209
90217W        W56626  15.075  34.475   1.804
90218W        W56627  37.387  39.504   4.552
90219W        W56628  28.082   6.039   4.908
90220W        W56629  35.364  38.417  12.514
90221W        W56630   5.342  18.628   3.642
90222W        W56631  20.304  14.637  11.481
90223W        W56632  31.403  34.068   1.208
90224W        W56633  40.809   7.672  14.241
90225W        W56634  13.765  18.779  11.990
90226W        W56635  24.843  19.016  13.144
90227W        W56636  18.663  36.160  13.381
90228W        W56637   9.886  26.622  13.330
90229W        W56638  25.597  17.547  11.024
90230W        W56639  29.563  21.224  13.851
90231W        W56640  26.570  31.961  12.910
90232W        W56641  24.489  36.763  12.397
90233W        W56642   7.711  11.820   4.555
90234W        W56643   7.157  10.277   0.516
90235W        W56644  33.156   4.430   5.415
90236W        W56645   8.828  34.817  12.992
90237W        W56646  32.039  39.429   0.288
90238W        W56647  35.773  26.404   2.852
90239W        W56648  41.729  35.276   3.729
90240W        W56649  32.146  35.092  10.734
90241W        W56650  36.876  21.105   0.509
90242W        W56651   1.316   4.487  13.101
90243W        W56652  18.327  12.393  11.406
90244W        W56653  34.579  12.503  14.970
90245W        W56654  31.529   0.067   1.044
90246W        W56655  35.922  24.485   4.101
90247W        W56656  41.744  30.846   2.256
90248W        W56657  19.646  27.736   3.184
90249W        W56658  20.279  15.906   3.630
90250W        W56659  22.174  36.379  12.899
90251W        W56660   4.016   7.359   1.835
90252W        W56661   6.234  22.702   4.167
90253W        W56662  18.307   5.990  14.385
90254W        W56663  16.699   5.792   2.703
90255W        W56664  16.807  14.659   4.194
90256W        W56665  43.061   2.260   3.843
90257W        W56666  30.814   4.856   4.567
90258W        W56667  12.756  41.487  11.949
90259W        W56668  34.605  31.796   0.653
90260W        W56669  32.063  29.178   0.516
90261W        W56670   5.939  12.832  14.871
90262W        W56671  11.613  43.332  11.059
90263W        W56672  37.439  16.713   0.922
90264W        W56673  12.222  29.572   4.274
90265W        W56674  13.113  33.525   3.684
90266W        W56675  24.953   9.113  13.306
90267W        W56676  28.541  27.710  10.669
90268W        W56677  35.482  22.027   4.660
90269W        W56678  15.147  26.951  12.313
90270W        W56679  17.622  42.043  11.057
90271W        W56680  39.550  24.319   0.993
90272W        W56681  13.826  34.617   2.810
90273W        W56682  39.854   9.087  12.803
90274W        W56683  36.585  21.245  13.954
90275W        W56684  11.806  10.951   2.382
90276W        W56685  14.011   5.675   1.246
90277W        W56686  39.604  22.707  13.434
90278W        W56687   7.472   5.490  12.595
90279W        W56688  42.180  20.265  13.050
90280W        W56689  22.415  42.662  14.958
90281W        W56690  11.632  14.351  14.547
90282W        W56691  33.222   0.705   4.912
90283W        W56692  12.462  11.142  10.760
90284W        W56693  27.765  21.292  12.071
90285W        W56694  13.271  26.182  14.831
90286W        W56695  24.932  10.196  11.590
90287W        W56696  20.033  29.431   0.767
90288W        W56697   3.801  13.539   1.147
90289W        W56698  30.494  34.643  10.737
90290W        W56699  44.053   1.243  14.512
90291W        W56700  21.791  25.790   2.720
90292W        W56701  26.477  27.545  12.879
90293W        W56702  38.584  29.385  13.045
90294W        W56703  31.948  21.513  11.722
90295W        W56704  21.814  31.159   1.411
90296W        W56705  27.155  28.643   1.294
90297W        W56706  11.889  22.906   1.283
90298W        W56707  35.627  23.726   1.403
90299W        W56708  34.657  41.279   3.956
90300W        W56709   9.259  15.661  12.459
90301W        W56710   1.510  24.046  14.722
90302W        W56711  22.579  13.856  13.467
90303W        W56712   5.692  11.184  14.982
90304W        W56713   9.884   2.183  13.866
90305W        W56714  32.927  13.405  11.215
90306W        W56715  12.146   8.692  12.193
90307W        W56716  20.094   4.451   2.777
90308W        W56717  44.966  11.804   0.356
90309W        W56718   6.420  29.383   0.310
90310W        W56719  24.711   6.146  11.683
90311W        W56720  23.815  29.539   2.181
90312W        W56721  43.786  40.379  12.514
90313W        W56722  36.418  33.055   0.681
90314W        W56723  33.153  16.207  11.514
90315W        W56724  11.768  35.740  12.816
90316W        W56725  36.591  39.896  12.897
90317W        W56726  12.872  30.897  14.333
90318W        W56727  29.687  14.697  13.532
90319W        W56728  21.512  36.263   0.811
90320W        W56729  39.395  24.177  14.415
90321W        W56730  13.435  42.501   1.432
90322W        W56731  27.208   0.013  14.564
90323W        W56732  29.081  33.892   0.336
90324W        W56733  28.720  16.245   4.898
90325W        W56734  15.398   6.896   3.089
90326W        W56735  41.259  44.896  11.663
90327W        W56736   7.920   1.793  14.487
90328W        W56737   1.519  11.064   1.364
90329W        W56738   5.670  14.627   0.895
90330W        W56739   6.300  39.921  13.608
90331W        W56740  32.237  10.616  14.814
90332W        W56741  39.043   7.480   3.295
90333W        W56742  20.595  36.528  11.182
90334W        W56743  25.456   8.185   3.182
90335W        W56744   1.305  24.294   1.109
90336W        W56745  18.490  18.085   4.220
90337W        W56746  12.862  37.975  11.860
90338W        W56747  34.616   0.216  14.563
90339W        W56748  28.638   0.769   0.689
90340W        W56749  40.848   1.249  10.414
90341W        W56750   6.721  15.244   0.437
90342W        W56751   7.900  18.236  13.570
90343W        W56752   7.581   1.426  10.559
90344W        W56753  38.722  15.565  13.282
90345W        W56754  10.447  22.292  11.605
90346W        W56755  34.614  15.162  13.974
90347W        W56756  41.110  29.184   0.507
90348W        W56757  43.791  29.730   2.197
90349W        W56758  10.203  29.975  13.476
90350W        W56759  34.361  15.504  13.256
90351W        W56760   2.045  12.296  10.890
90352W        W56761  31.452  15.022  13.668
90353W        W56762  40.815  24.573  12.675
90354W        W56763  13.676  42.505   2.389
90355W        W56764  18.623  22.974   4.740
90356W        W56765  20.570  32.950   2.333
90357W        W56766  32.074  10.094   1.833
90358W        W56767  42.756  42.406  11.065
90359W        W56768  30.715   1.976  13.955
90360W        W56769  24.059   9.624  10.566
90361W        W56770  13.174   1.952   0.902
90362W        W56771  31.409  37.927  10.784
90363W        W56772  10.392  24.264  11.905
90364W        W56773   3.158  43.591   2.791
90365W        W56774  33.925  33.113  10.740
90366W        W56775  12.120  10.178  10.945
90367W        W56776  19.286   2.755   2.390
90368W        W56777  34.653  16.178   1.658
90369W        W56778  13.173   7.460  11.085
90370W        W56779  43.820  38.030   0.925
90371W        W56780   7.590  36.317  14.864
90372W        W56781   1.036  32.452   2.333
90373W        W56782   3.826  19.532  13.943
90374W        W56783  22.156  28.741  13.971
90375W        W56784  13.709   5.656   0.803
90376W        W56785  38.878  30.602  11.584
90377W        W56786  16.436  21.722  12.172
90378W        W56787  26.720   6.849  13.094
90379W        W56788  34.482  20.703  11.295
90380W        W56789  20.140  34.390  10.911
90381W        W56790  19.826  20.628   3.080
90382W        W56791   3.273   4.926   4.172
90383W        W56792  34.068  19.205  14.992
90384W        W56793  33.052   7.008  10.132
90385W        W56794  28.462   3.786  10.785
90386W        W56795  43.027  18.608   4.478
90387W        W56796  23.844  42.927  14.950
90388W        W56797  21.234  41.904  10.805
90389W        W56798   7.138  35.921   2.739
90390W        W56799  18.525  14.021  12.478
90391W        W56800  20.967   4.349   0.199
90392W        W56801  42.517  15.483   4.886
90393W        W56802  23.031  20.010  10.975
90394W        W56803   6.470   9.133   4.286
90395W        W56804  17.225  26.084  10.865
90396W        W56805  44.080   1.880  10.654
90397W        W56806   0.952  11.422  13.654
90398W        W56807   9.687  20.561   4.194
90399W        W56808  13.398  24.653  12.355
90400W        W56809  12.019  24.632  12.902
90401W        W56810  40.921  33.853  11.319
90402W        W56811  27.921  40.276   1.773
90403W        W56812  26.032  38.350   0.069
90404W        W56813  39.578  29.107  10.951
90405W        W56814  20.566  25.791  11.953
90406W        W56815  27.963   4.525   9.743
90407W        W56816  14.855   6.170   4.958
90408W        W56817  16.826  15.662  14.418
90409W        W56818   3.695   6.297   4.570
90410W        W56819   0.451  24.405  10.710
90411W        W56820   0.338  41.632   4.039
90412W        W56821  38.402  25.192  12.895
90413W        W56822  13.137  44.468   3.706
90414W        W56823  21.687  33.232  14.274
90415W        W56824  37.871  26.616  10.098
90416W        W56825  33.487  13.129   2.216
90417W        W56826  30.048  43.733   4.351
90418W        W56827  12.316  44.849  13.600
90419W        W56828  19.208  29.031  11.890
90420W        W56829   9.671   7.131   4.630
90421W        W56830   7.796   8.508   4.679
90422W        W56831  21.061  36.483   0.694
90423W        W56832  35.452   8.131  12.946
90424W        W56833   0.475  27.498   4.593
90425W        W56834  30.828  14.595  14.146
90426W        W56835  34.550  23.719  12.120
90427W        W56836   0.240  19.736  13.310
90428W        W56837  22.755   1.814   0.995
90429W        W56838   7.782  35.848  14.765
90430W        W56839  29.156  10.010   4.480
90431W        W56840  29.483   9.416   1.443
90432W        W56841   4.749   0.771  14.460
90433W        W56842   9.523  17.352  11.563
90434W        W56843   4.772  31.223   2.784
90435W        W56844  35.222  30.788   2.168
90436W        W56845  11.243   2.100   2.404
90437W        W56846  15.882  15.324   2.428
90438W        W56847   8.452   7.235   2.789
90439W        W56848  14.138  11.088   0.397
90440W        W56849  14.078  15.780  10.299
90441W        W56850   1.272  11.551  13.267
90442W        W56851  32.507  28.775   2.808
90443W        W56852  28.084  14.621  14.450
90444W        W56853   1.478  32.072   4.292
90445W        W56854  10.792  27.187  14.338
90446W        W56855  29.475  15.756   2.791
90447W        W56856  29.139  32.549  14.980
90448W        W56857  11.747  24.229  14.988
90449W        W56858  36.999  25.500  11.672
90450W        W56859   0.599  10.855   1.420
90451W        W56860   4.396   6.435   3.065
90452W        W56861   7.852   3.797   1.535
90453W        W56862  21.105  39.070   1.826
90454W        W56863  31.148  33.910   2.936
90455W        W56864  31.561  11.320   4.121
90456W        W56865   3.555  19.615   3.623
90457W        W56866  29.174  17.809   0.335
90458W        W56867  22.568  23.600  12.617
90459W        W56868  20.546  44.567   1.941
90460W        W56869  40.806   1.871  12.961
90461W        W56870  39.066  11.760   4.998
90462W        W56871  29.630  19.305   0.984
90463W        W56872  38.499  29.315  11.602
90464W        W56873  29.946  12.129  14.440
90465W        W56874  42.734   9.900  12.551
90466W        W56875  20.719   9.257   1.921
90467W        W56876  35.979  41.524  11.292
90468W        W56877  24.026  40.871   4.261
90469W        W56878  42.451   9.822  14.377
90470W        W56879  11.771  22.544  14.402
90471W        W56880  39.570   8.862   0.764
90472W        W56881  44.493  44.282  14.960
90473W        W56882  27.244  35.099  12.629
90474W        W56883  10.813  35.549   2.204
90475W        W56884  43.383  18.869   0.870
90476W        W56885  17.001  11.205   2.381
90477W        W56886  28.958   5.192  13.533
90478W        W56887  29.753   0.268   1.648
90479W        W56888  19.721   9.666  12.956
90480W        W56889   4.228  18.860  10.871
90481W        W56890   4.969   1.396  13.631
90482W        W56891  30.793  23.540   0.004
90483W        W56892  16.726   1.780  14.791
90484W        W56893  25.266  34.383   2.767
90485W        W56894  34.935  30.944   1.762
90486W        W56895   4.976  12.644   2.159
90487W        W56896  39.789   6.897  10.975
90488W        W56897  30.432  27.083   1.422
90489W        W56898  32.928  36.383  14.523
90490W        W56899  44.044  17.679  11.047
90491W        W56900  13.448  17.694  11.610
90492W        W56901  11.625  11.294   4.237
90493W        W56902  42.883   4.912  11.023
90494W        W56903  31.997  14.847   2.696
90495W        W56904  19.248  13.098   4.197
90496W        W56905  38.267  11.190   3.227
90497W        W56906  44.927   1.532  11.694
90498W        W56907  16.399  33.466  13.882
90499W        W56908  29.550   1.729  10.178
90500W        W56909  17.855  10.638   2.219
90501W        W56910  24.578   6.656  12.023
90502W        W56911   3.271  17.827  13.833
90503W        W56912  25.921   8.152  14.855
90504W        W56913  41.381  15.221   3.330
90505W        W56914  11.881  34.772  11.950
90506W        W56915  37.140  23.768   0.269
90507W        W56916  29.058  35.507   0.074
90508W        W56917  44.163  28.177   3.000
90509W        W56918  43.740  25.014  13.110
90510W        W56919  18.080  38.669   4.153
90511W        W56920  42.695  12.255  11.197
90512W        W56921  12.084  40.512   3.762
90513W        W56922   9.565  12.627   5.031
90514W        W56923  39.236  14.026  11.544
90515W        W56924  13.465  33.833  11.117
90516W        W56925  42.467  34.897   0.305
90517W        W56926   5.304  28.429  13.990
90518W        W56927  39.127  18.326  12.457
90519W        W56928  25.123   2.411  12.196
90520W        W56929  42.553  16.012  14.424
90521W        W56930  39.537   9.951  12.787
90522W        W56931   2.797  39.788   2.315
90523W        W56932   8.901   5.416   3.644
90524W        W56933  20.986   7.777  12.932
90525W        W56934  23.567  29.943  11.938
90526W        W56935  23.917  11.770   1.718
90527W        W56936  41.942  23.898   0.904
90528W        W56937  26.648  40.432  13.585
90529W        W56938  14.223  32.924  13.772
90530W        W56939  27.923  30.622   4.120
90531W        W56940   9.348  12.070  11.156
90532W        W56941  10.177  26.828   3.242
90533W        W56942  14.960  39.522  13.759
90534W        W56943  37.472  18.163   0.351
90535W        W56944  10.706  32.069   2.705
90536W        W56945  32.392   9.191   1.676
90537W        W56946  11.163  34.002   3.330
90538W        W56947  35.225  40.269  14.019
90539W        W56948  10.857  14.801   3.607
90540W        W56949  28.325  25.629  12.826
90541W        W56950  14.205  23.511   1.524
90542W        W56951  14.762  30.361  12.954
90543W        W56952  24.775  42.456   2.848
90544W        W56953  26.742  39.646  10.467
90545W        W56954  17.784  17.017  12.026
90546W        W56955   3.203  21.443   0.461
90547W        W56956  14.134  30.121   4.823
90548W        W56957   6.012  42.349  10.797
90549W        W56958  40.758  19.701   4.229
90550W        W56959  35.068   9.728  11.606
90551W        W56960   1.680  28.403  13.315
90552W        W56961   7.705   1.003   2.837
90553W        W56962  32.888  35.350  12.017
90554W        W56963  15.179  15.976   1.248
90555W        W56964  10.267  38.418   4.398
90556W        W56965  15.616  39.545  10.327
90557W        W56966  34.946  35.409   3.472
90558W        W56967  43.789  19.723  10.443
90559W        W56968   8.875  34.320   4.422
90560W        W56969   7.615  28.089   2.260
90561W        W56970  41.059  37.651  10.638
90562W        W56971  41.134  38.393   1.600
90563W        W56972  32.859  12.793  14.860
90564W        W56973  35.293  38.265  13.419
90565W        W56974  17.557  30.070  14.218
90566W        W56975  23.477  35.033   2.927
90567W        W56976   8.725   9.525   4.059
90568W        W56977  40.540  37.299   3.047
90569W        W56978  44.071  25.146  13.959
90570W        W56979   4.721  33.717  12.945
90571W        W56980   3.337  20.250  12.204
90572W        W56981   3.639  22.445  10.598
90573W        W56982  10.432  43.458   2.219
90574W        W56983  18.131  19.034  11.172
90575W        W56984   4.882  28.997   1.264
90576W        W56985   7.548  41.724   2.332
90577W        W56986   5.673  40.379   0.931
90578W        W56987  40.088  24.016  10.902
90579W        W56988  43.351  30.372   0.331
90580W        W56989  20.295  11.224  12.536
90581W        W56990  44.050  39.826   1.708
90582W        W56991  27.900  28.556  13.447
90583W        W56992  30.185  28.885   0.312
90584W        W56993  41.771   5.628  11.172
90585W        W56994  27.158  36.634   2.137
90586W        W56995  32.649   5.278  14.820
90587W        W56996  24.243  27.223   2.922
90588W        W56997  40.997  38.428  13.880
90589W        W56998  42.493  37.066   0.772
90590W        W56999   3.758  12.653  13.033
90591W        W57000  30.131  42.048  12.884
90592W        W57001  28.911  20.575   1.262
90593W        W57002  19.126  20.883  11.208
90594W        W57003  26.421   4.372   4.637
90595W        W57004   0.915  22.663  11.906
90596W        W57005   2.602  27.179   2.058
90597W        W57006  31.019  33.937   2.440
90598W        W57007  19.529  30.569   0.070
90599W        W57008  13.078  14.152   1.858
90600W        W57009  26.534  10.784  14.636
90601W        W57010   7.673  23.675  10.880
90602W        W57011  27.413  14.313   2.136
90603W        W57012  14.819  18.241   4.517
90604W        W57013  39.618  32.816   4.856
90605W        W57014  30.234  41.711  11.586
90606W        W57015  23.564  37.758  12.908
90607W        W57016  21.153  13.908  14.597
90608W        W57017  44.433  15.902  12.194
90609W        W57018   1.898   4.767   1.300
90610W        W57019  43.313   8.198   3.201
90611W        W57020   2.844  34.631   3.630
90612W        W57021  12.481  29.533  14.640
90613W        W57022  30.050  24.702   1.964
90614W        W57023   3.865  19.079   3.127
90615W        W57024  18.603  18.751   4.660
90616W        W57025  32.619  23.512  15.000
90617W        W57026  27.166  19.114  12.894
90618W        W57027  33.879  44.196   2.407
90619W        W57028  38.291   8.832  11.598
90620W        W57029  24.265  37.913   4.089
90621W        W57030  13.035  38.960   4.624
90622W        W57031  16.159  41.145  11.061
90623W        W57032  20.065  32.332  12.139
90624W        W57033  29.198   7.640  11.569
90625W        W57034  16.623   8.952   3.267
90626W        W57035  21.706   1.851   0.206
90627W        W57036  34.799   0.473   4.199
90628W        W57037   3.239  42.840  11.170
90629W        W57038  28.082  33.864  14.502
90630W        W57039   7.091  27.677  10.983
90631W        W57040  43.389  23.196  12.897
90632W        W57041   3.498   2.449   0.426
90633W        W57042   0.466  40.354   1.965
90634W        W57043  40.963  43.495   0.849
90635W        W57044  19.393  26.711  11.118
90636W        W57045  33.472   6.271  14.091
90637W        W57046  20.785  43.515   4.176
90638W        W57047   9.119  12.143   1.862
90639W        W57048  30.625  21.104  12.877
90640W        W57049   8.477   5.036  13.360
90641W        W57050   8.930   8.935   3.495
90642W        W57051  36.063   0.501   4.112
90643W        W57052  34.479   1.468  12.961
90644W        W57053  26.148  13.312  11.519
90645W        W57054  40.215  40.502  12.844
90646W        W57055  16.036   8.788   4.968
90647W        W57056  35.442   8.622  13.962
90648W        W57057  27.634  11.324   4.618
90649W        W57058  42.660  43.019   0.046
90650W        W57059  27.804  22.783  12.916
90651W        W57060  38.558  16.406  12.819
90652W        W57061   8.193  40.261  13.139
90653W        W57062  20.103  11.283   3.304
90654W        W57063  11.347   9.103   1.275
90655W        W57064  34.248  43.243   1.054
90656W        W57065  41.009   4.185  12.915
90657W        W57066  38.621  12.269   1.867
90658W        W57067  20.997  11.578   3.327
90659W        W57068  44.892   4.820   4.879
90660W        W57069   7.938  26.101   2.178
90661W        W57070  14.806  25.225   4.185
90662W        W57071   6.382   6.272  12.095
90663W        W57072  31.635  37.568  13.185
90664W        W57073  30.894   8.791  10.050
90665W        W57074  37.949  40.890  14.938
90666W        W57075   6.429  30.150   1.905
90667W        W57076  10.854  17.107  13.382
90668W        W57077  15.433  12.726   0.305
90669W        W57078  41.441  18.160  14.265
90670W        W57079   6.862  22.059   1.798
90671W        W57080   4.858  28.695  10.658
90672W        W57081  20.562  26.129  12.632
90673W        W57082  14.582  23.143  14.376
90674W        W57083   5.686   6.977   1.378
90675W        W57084  15.408  21.029  10.111
90676W        W57085  10.560  44.807   3.002
90677W        W57086  10.382  25.411  13.492
90678W        W57087  21.208  16.125   3.610
90679W        W57088  41.972  20.109  11.103
90680W        W57089  39.433  38.491  10.408
90681W        W57090  41.479   7.696  13.902
90682W        W57091  20.392  24.546   2.780
90683W        W57092  39.525  37.764  14.991
90684W        W57093  16.246  33.987  12.481
90685W        W57094  23.830  41.864  11.232
90686W        W57095  32.730  42.466   0.263
90687W        W57096  27.778   1.814  13.486
90688W        W57097  18.229  38.896  10.942
90689W        W57098  39.238  31.951  11.220
90690W        W57099  16.688   6.797  10.584
90691W        W57100  27.137  20.175  12.065
90692W        W57101  20.126   2.490   1.343
90693W        W57102  19.047  15.383   2.572
90694W        W57103   0.917  39.608   3.709
90695W        W57104  25.892  25.384  13.022
90696W        W57105   6.169  27.714   0.429
90697W        W57106  27.579  29.003  14.896
90698W        W57107  19.452  39.728  12.828
90699W        W57108  24.509   7.487  13.315
90700W        W57109   5.716  10.447  13.484
90701W        W57110  10.850  24.725   0.381
90702W        W57111  41.350  28.705  14.735
90703W        W57112  27.611  24.019   3.456
90704W        W57113   9.916  11.116  13.361
90705W        W57114  27.405  12.209  14.905
90706W        W57115   0.333  22.034   0.998
90707W        W57116  16.539  19.459  14.232
90708W        W57117  28.904   8.705  13.970
90709W        W57118  24.985  42.820   1.743
90710W        W57119  14.238  13.556  13.938
90711W        W57120   6.416   1.076   5.027
90712W        W57121   9.395  35.051  14.379
90713W        W57122  11.663  14.742  11.365
90714W        W57123  23.572  25.389  11.957
90715W        W57124  17.776   4.421   2.459
90716W        W57125   9.762   0.763  11.584
90717W        W57126  15.438  30.969   0.415
90718W        W57127   8.810   7.136   1.810
90719W        W57128   5.630  20.058  10.701
90720W        W57129   5.355  26.254   3.711
90721W        W57130  12.195   4.322   3.570
90722W        W57131  13.123  16.520   2.129
90723W        W57132  44.864  31.605  10.771
90724W        W57133   3.236  28.487  12.607
90725W        W57134  42.085  25.999   4.147
90726W        W57135  34.077  38.448   4.423
90727W        W57136  34.396  10.293  13.959
90728W        W57137  31.153   8.886  11.944
90729W        W57138  33.937  19.149  12.054
90730W        W57139   9.117  17.670   1.398
90731W        W57140  26.444   8.244  14.817
90732W        W57141  27.956  43.501   3.098
90733W        W57142  13.114  15.759   0.690
90734W        W57143   0.285  26.158   2.143
90735W        W57144  22.935  30.563  12.100
90736W        W57145  42.730  31.372  13.075
90737W        W57146  24.011  24.351   0.924
90738W        W57147  35.887  11.703   2.258
90739W        W57148  10.285  14.742   4.270
90740W        W57149  39.867   2.469   3.242
90741W        W57150  40.672  11.224  12.854
90742W        W57151  35.598  22.304   1.395
90743W        W57152   6.299  30.569   4.030
90744W        W57153  20.127  32.842  14.898
90745W        W57154  18.095  14.212   3.073
90746W        W57155   7.649  21.280   2.243
90747W        W57156   5.860  20.175  12.018
90748W        W57157  34.422  29.856   0.030
90749W        W57158  11.549  18.907   0.957
90750W        W57159   3.832  23.109  14.872
90751W        W57160  21.400  26.174  11.975
90752W        W57161  17.613   3.041   4.249
90753W        W57162  36.499   3.839   3.082
90754W        W57163  16.664  27.838   1.216
90755W        W57164   4.454  31.555   0.729
90756W        W57165  40.989   2.002   1.899
90757W        W57166  18.254   4.419   3.792
90758W        W57167   8.220  35.768   2.211
90759W        W57168   4.131  12.763   0.468
90760W        W57169  32.926  18.806   0.844
90761W        W57170  42.816   7.035   2.762
90762W        W57171  11.400  22.905   1.484
90763W        W57172   8.692  20.848  14.275
90764W        W57173  21.076  22.521   1.540
90765W        W57174  34.065  28.575   4.834
90766W        W57175   5.132  36.980   3.742
90767W        W57176   6.940   4.350  13.371
90768W        W57177  31.016  42.067   3.968
90769W        W57178  20.168  16.400   3.695
90770W        W57179  41.389  43.358   4.841
90771W        W57180   5.417  19.591  13.931
90772W        W57181  15.077   3.266   3.383
90773W        W57182  35.953   4.794   2.594
90774W        W57183  19.997  27.655  14.730
90775W        W57184   0.728  34.374   1.322
90776W        W57185  11.676   8.712  14.772
90777W        W57186  36.922   3.606   2.633
90778W        W57187  22.223   3.910  13.015
90779W        W57188  41.809  27.910   4.530
90780W        W57189  26.623  34.003   4.117
90781W        W57190   7.827  30.610  10.337
90782W        W57191  31.545  14.704   0.467
90783W        W57192  36.353   8.060  13.352
90784W        W57193  35.368  36.915   2.387
90785W        W57194  25.349  12.051   5.000
90786W        W57195  17.298  26.554   3.312
90787W        W57196  38.169  24.062  13.383
90788W        W57197  42.936  21.277   2.789
90789W        W57198  36.994  40.909   2.968
90790W        W57199  14.623  28.476  10.774
90791W        W57200  17.240  34.060   2.914
90792W        W57201  24.784  41.560  11.191
90793W        W57202  16.613  24.976  10.652
90794W        W57203  22.154  21.464  13.859
90795W        W57204  31.605  31.599  13.993
90796W        W57205  35.576  29.488  11.611
90797W        W57206  28.423  20.713   3.249
90798W        W57207  17.123  17.097   2.953
90799W        W57208   5.774   6.612   1.714
90800W        W57209  37.086  38.787  13.547
90801W        W57210  19.846  36.768   1.159
90802W        W57211  28.122  37.564  13.979
90803W        W57212  17.735   8.443  14.315
90804W        W57213  36.787  12.326   0.490
90805W        W57214  19.047   2.773  11.558
90806W        W57215   7.393   1.386  12.963
90807W        W57216  21.926  17.652   4.220
90808W        W57217  17.767  38.923   1.712
90809W        W57218  33.969  13.615   4.762
90810W        W57219  33.436  39.523  11.474
90811W        W57220   8.723  27.041   0.552
90812W        W57221   1.970  32.297  10.574
90813W        W57222  20.136  19.717  13.956
90814W        W57223  10.870   8.712   3.665
90815W        W57224  44.166  34.943   4.104
90816W        W57225  38.919  20.374  10.741
90817W        W57226  13.233  10.697   2.223
90818W        W57227  28.573  43.483  12.807
90819W        W57228  24.501   7.374   4.863
90820W        W57229  28.040  34.140   1.596
90821W        W57230   9.759  15.783   3.684
90822W        W57231   7.738  11.911   0.337
90823W        W57232  25.978  33.895  14.845
90824W        W57233   5.242   9.709  14.718
90825W        W57234  38.569  37.103  10.715
90826W        W57235  33.935  32.213  10.646
90827W        W57236  41.290  33.889  13.567
90828W        W57237   6.936  22.317   2.749
90829W        W57238  12.607   9.061  13.452
90830W        W57239  21.532  32.458   0.796
90831W        W57240  22.241  26.319  13.599
90832W        W57241  17.763  11.256   0.976
90833W        W57242  27.119   3.948   0.892
90834W        W57243  12.606  12.312  13.580
90835W        W57244  36.009  42.727   0.932
90836W        W57245  27.732  11.658   3.795
90837W        W57246  15.072   4.637  11.979
90838W        W57247  39.091  22.041  10.446
90839W        W57248  40.029  26.989   4.717
90840W        W57249   5.829  36.807   4.215
90841W        W57250  14.522  27.431  10.300
90842W        W57251  28.531  22.976  13.966
90843W        W57252  29.462  18.775   4.562
90844W        W57253  21.062  37.312   0.973
90845W        W57254  35.640  15.114  13.055
90846W        W57255  22.027  35.649   1.837
90847W        W57256  13.622   2.683   1.083
90848W        W57257  11.990  20.121  12.395
90849W        W57258  22.594  26.505  13.970
90850W        W57259  21.768   1.769  10.882
90851W        W57260  40.553  36.006   4.233
90852W        W57261  30.602  10.087  11.618
90853W        W57262  43.000  39.344  14.882
90854W        W57263  16.836  26.001   1.318
90855W        W57264  19.704  14.796   4.984
90856W        W57265  33.421  26.347   0.943
90857W        W57266  13.951  17.995   4.707
90858W        W57267  20.179  16.090  12.207
90859W        W57268  10.992  22.775   4.578
90860W        W57269  13.578  35.466   4.690
90861W        W57270  34.484   4.389  11.628
90862W        W57271  16.849  12.135  12.357
90863W        W57272  31.379  37.487  11.550
90864W        W57273   1.343   9.188   2.725
90865W        W57274  28.046  24.570   0.918
90866W        W57275   5.674  17.281  11.208
90867W        W57276   1.647   1.721   3.204
90868W        W57277  21.203  29.154   0.016
90869W        W57278  10.364   1.929  13.769
90870W        W57279  30.363  13.295  13.631
90871W        W57280  33.017  36.348  12.950
90872W        W57281  30.695  19.087   3.131
90873W        W57282  26.435  25.207   4.206
90874W        W57283  24.616  36.714   1.424
90875W        W57284   7.485  43.032   2.148
90876W        W57285  36.898  16.588   2.404
90877W        W57286  29.855  44.730   0.912
90878W        W57287  40.894   9.207   0.649
90879W        W57288  27.780  23.095   3.238
90880W        W57289  37.829   0.788   4.875
90881W        W57290  40.796  27.364  14.109
90882W        W57291  38.140  23.593   0.239
90883W        W57292  44.175  35.379   2.133
90884W        W57293  18.354  37.404   2.803
90885W        W57294   1.717  41.172  10.760
90886W        W57295  39.396  29.347  14.566
90887W        W57296  16.995  36.177  10.275
90888W        W57297  33.548  22.266  14.601
90889W        W57298  17.100  35.421  11.530
90890W        W57299  22.774  25.577   5.008
90891W        W57300  38.833   6.892   3.805
90892W        W57301  20.443  12.273   0.206
90893W        W57302  43.739  13.216  13.884
90894W        W57303  42.851  43.186   0.980
90895W        W57304  42.754  21.898   4.629
90896W        W57305   8.412   0.732   4.138
90897W        W57306  10.607  31.161  14.791
90898W        W57307   0.879  42.929  11.553
90899W        W57308  14.642  22.694   1.876
90900W        W57309  26.450   6.018  14.484
90901W        W57310  18.126  31.459   3.410
90902W        W57311  25.124  16.326   4.849
90903W        W57312  22.258  14.758  11.724
90904W        W57313  25.035   9.616  13.372
90905W        W57314   5.753   8.211  10.611
90906W        W57315   8.222  13.892  13.013
90907W        W57316  31.133  39.776   1.291
90908W        W57317  16.332   9.179   4.281
90909W        W57318  30.488  20.746  12.518
90910W        W57319   9.430  25.488   2.388
90911W        W57320  15.617  38.939  11.848
90912W        W57321  42.110  43.837   0.737
90913W        W57322  38.277  31.167   4.006
90914W        W57323  35.751  34.688   0.237
90915W        W57324  14.814  24.980  10.958
90916W        W57325   7.250  34.083   2.472
90917W        W57326  44.960  27.571  11.124
90918W        W57327  42.897  13.354   4.993
90919W        W57328  39.991  21.605  13.314
90920W        W57329  18.294  38.439   3.750
90921W        W57330   7.625  28.131  12.144
90922W        W57331   6.212  27.425   2.790
90923W        W57332   4.996  31.014   0.364
90924W        W57333  31.410  23.547  10.903
90925W        W57334  23.861  22.502   3.025
90926W        W57335  19.248   3.217  14.427
90927W        W57336  11.139  36.535   1.981
90928W        W57337  34.459  30.442   2.578
90929W        W57338  12.170  44.050  10.244
90930W        W57339   1.442  40.849  12.568
90931W        W57340   7.911   8.068  11.135
90932W        W57341  31.068  25.457  13.908
90933W        W57342  31.482  27.188  12.638
90934W        W57343  44.446  43.234   1.717
90935W        W57344  38.382  35.333  14.010
90936W        W57345  42.738  37.672  10.714
90937W        W57346  17.344   2.982  12.819
90938W        W57347  10.241  23.069   2.540
90939W        W57348  40.892  27.516   2.319
90940W        W57349  40.904  43.313   4.595
90941W        W57350  40.477  30.920   3.151
90942W        W57351   5.926  15.039   3.660
90943W        W57352   6.490  38.009  11.473
90944W        W57353  23.255  36.016   0.354
90945W        W57354  22.374  32.909   4.256
90946W        W57355  24.589   8.463   1.400
90947W        W57356  25.666   6.422   0.873
90948W        W57357  17.782  40.851  13.171
90949W        W57358  33.037  18.149  12.445
90950W        W57359  26.530  16.590  12.203
90951W        W57360  38.952  31.361  11.987
90952W        W57361   7.149  20.243   0.930
90953W        W57362  42.769  29.706   0.719
90954W        W57363   0.282  44.828   2.625
90955W        W57364  15.604  26.568   0.349
90956W        W57365  14.388  15.638  14.079
90957W        W57366  33.387  36.400  10.430
90958W        W57367   9.968   3.266   2.324
90959W        W57368  16.363  33.846  13.514
90960W        W57369  42.043  33.253   1.369
90961W        W57370  20.791  11.710   1.758
90962W        W57371  40.627  37.235  13.448
90963W        W57372  35.087  10.450   3.714
90964W        W57373  12.007  14.726  14.404
90965W        W57374  25.064   8.665   2.147
90966W        W57375   6.923   3.983  14.840
90967W        W57376  19.762   4.341   4.150
90968W        W57377  18.162  41.295  11.997
90969W        W57378  31.587  22.779   3.607
90970W        W57379  44.787  20.975  13.974
90971W        W57380  27.787  17.783  13.705
90972W        W57381  41.360  15.198   3.870
90973W        W57382   0.485  31.085   1.666
90974W        W57383  29.640  32.719  12.206
90975W        W57384  40.807  15.170  11.538
90976W        W57385  30.588  41.034  13.512
90977W        W57386  41.707  30.547   0.924
90978W        W57387  31.293  15.680  14.454
90979W        W57388  26.231  44.750   1.217
90980W        W57389  15.552  39.130   0.303
90981W        W57390  21.127  39.554   2.898
90982W        W57391   0.879  36.217   3.323
90983W        W57392   4.635   6.762   1.245
90984W        W57393  19.667  28.481   3.825
90985W        W57394  17.301  35.607  11.980
90986W        W57395  28.615  38.228   3.225
90987W        W57396  37.003   2.919  12.553
90988W        W57397  37.861  18.796   0.318
90989W        W57398  24.059  32.627  13.026
90990W        W57399   2.577  12.914  13.319
90991W        W57400  23.150  32.448   0.775
90992W        W57401  22.036  21.983  14.214
90993W        W57402  10.865  10.980  12.695
90994W        W57403  40.803  26.936   3.317
90995W        W57404  44.872  24.542  14.141
90996W        W57405  37.008   9.886   4.664
90997W        W57406  13.277  18.201  12.419
90998W        W57407  31.127   6.648  11.262
90999W        W57408  30.591  24.463  11.178
91000W        W57409  19.555  10.717  12.922
91001W        W57410  18.661   4.539   4.591
91002W        W57411  10.877  41.618   0.152
91003W        W57412  30.122  11.426  10.673
91004W        W57413  17.683   4.415  11.910
91005W        W57414  36.531  42.097   2.712
91006W        W57415  21.685  14.633   0.075
91007W        W57416  10.104   6.235   2.553
91008W        W57417  21.666  24.163   0.897
91009W        W57418  19.623  16.816  12.028
91010W        W57419  40.245  26.644  10.275
91011W        W57420  11.625  34.515  11.098
91012W        W57421  21.533   7.469   2.716
91013W        W57422  35.877   0.584   2.279
91014W        W57423   7.237  31.271  11.171
91015W        W57424  36.455  25.494  12.415
91016W        W57425  16.448   7.439  14.870
91017W        W57426  39.213   1.751  14.017
91018W        W57427  44.760  31.896   0.291
91019W        W57428  27.149  28.707  13.904
91020W        W57429  24.398  21.668   0.361
91021W        W57430  38.588  44.710  14.954
91022W        W57431  27.008  22.083   2.156
91023W        W57432  20.283   2.871   3.183
91024W        W57433  34.470   0.331  13.269
91025W        W57434  12.139  29.415   0.154
91026W        W57435  21.188  43.578  11.421
91027W        W57436  34.489   6.133  11.049
91028W        W57437  40.252  27.271  14.712
91029W        W57438   5.909   1.610  10.417
91030W        W57439  22.219  20.445   0.575
91031W        W57440  16.190   2.904   1.737
91032W        W57441  13.222  29.005  11.505
91033W        W57442  14.912  39.020  10.631
91034W        W57443  43.332  41.246   4.667
91035W        W57444  22.911  16.656  13.791
91036W        W57445  21.665   7.673  11.279
91037W        W57446  24.942   1.535  14.062
91038W        W57447  17.964  38.541  12.091
91039W        W57448  32.048   9.178   2.771
91040W        W57449  44.793   7.922   2.643
91041W        W57450  31.007  41.273  12.478
91042W        W57451  44.980  32.157   2.301
91043W        W57452  34.534  43.970  11.127
91044W        W57453  26.293   5.264  14.823
91045W        W57454  24.563   2.639   4.554
91046W        W57455  32.740  23.427  10.673
91047W        W57456  18.809  14.409  11.247
91048W        W57457  20.425  13.204   0.343
91049W        W57458  20.043  11.586  13.797
91050W        W57459  35.483  33.606  13.972
91051W        W57460  30.933  34.369  10.620
91052W        W57461  40.075  26.625  13.018
91053W        W57462  30.720  34.881  13.457
91054W        W57463  18.571   9.193  14.096
91055W        W57464  10.878  20.782   2.391
91056W        W57465  44.064  15.649   0.437
91057W        W57466  36.835  24.264  12.132
91058W        W57467  22.119  29.624   1.763
91059W        W57468   3.283  22.486  11.556
91060W        W57469  40.943  29.941   3.890
91061W        W57470  18.910   5.546   4.577
91062W        W57471   9.432  22.783  12.161
91063W        W57472  34.726   2.882   0.752
91064W        W57473  19.591  27.437   2.727
91065W        W57474  37.178  15.728  13.847
91066W        W57475  37.358  34.654  12.105
91067W        W57476  10.253  22.631   0.396
91068W        W57477  16.397  28.988  11.692
91069W        W57478   8.622  17.454  12.492
91070W        W57479  43.901  10.094  11.241
91071W        W57480  17.632  34.288   1.859
91072W        W57481  10.923  40.048   2.208
91073W        W57482   6.961   2.122   2.620
91074W        W57483  36.110   3.949   4.347
91075W        W57484  41.832  40.842  14.297
91076W        W57485  25.892  37.082  14.279
91077W        W57486   7.813  10.679  13.034
91078W        W57487  41.869   8.582   3.185
91079W        W57488   9.206   2.979   1.448
91080W        W57489  19.534  29.155   1.615
91081W        W57490  14.157  30.492  11.259
91082W        W57491  27.926  27.461  11.572
91083W        W57492  38.373  30.388   2.826
91084W        W57493  27.704   0.762   3.832
91085W        W57494  24.182   4.443   3.652
91086W        W57495  39.002  20.986  11.473
91087W        W57496   6.271   7.187   3.544
91088W        W57497  37.489  19.552   0.020
91089W        W57498  14.257   0.014  14.245
91090W        W57499  19.240  10.775  14.560
91091W        W57500  30.691  44.871  11.953
91092W        W57501   8.775  31.059  13.045
91093W        W57502  19.145  21.459  10.536
91094W        W57503  41.769   6.741   3.521
91095W        W57504   7.631  42.621  12.369
91096W        W57505   0.476  41.375  12.826
91097W        W57506   8.138  25.232  13.331
91098W        W57507   2.016  34.139   1.173
91099W        W57508  10.386  34.183   5.464
91100W        W57509   0.319  37.743  12.564
91101W        W57510  21.266  19.755   5.191
91102W        W57511  42.607  20.034   2.191
91103W        W57512  30.459  37.969   4.170
91104W        W57513  23.208  31.646  11.663
91105W        W57514  42.435  43.022   0.524
91106W        W57515   1.231  30.540  11.103
91107W        W57516   1.927  18.706   3.167
91108W        W57517  29.338  34.458   2.698
91109W        W57518  18.720   1.376   1.113
91110W        W57519   7.995  30.442   5.067
91111W        W57520  44.362  41.233   4.382
91112W        W57521  35.497  27.365  12.964
91113W        W57522   2.506  15.136   3.370
91114W        W57523  26.486  35.129  13.032
91115W        W57524   9.144  22.630  14.665
91116W        W57525  20.182  27.293   4.302
91117W        W57526   7.947   6.428   1.381
91118W        W57527  39.503  44.015   3.768
91119W        W57528  34.238  17.718  14.334
91120W        W57529  44.767  26.648   3.908
91121W        W57530  21.992  39.368  13.397
91122W        W57531  35.998  25.876   0.453
91123W        W57532  22.660  31.438  12.582
91124W        W57533  31.558   7.825   4.607
91125W        W57534  10.205  28.125   4.000
91126W        W57535  33.694   2.904   1.011
91127W        W57536  31.859  17.804   2.499
91128W        W57537   7.854  27.470   4.154
91129W        W57538   7.814   8.333   2.698
91130W        W57539  43.670  22.433   0.409
91131W        W57540  18.214  44.311   0.464
91132W        W57541  38.802   8.086   0.399
91133W        W57542  32.997  20.622  12.206
91134W        W57543  12.643  23.554  14.400
91135W        W57544  33.545  19.189  11.074
91136W        W57545  35.120   0.668  13.079
91137W        W57546  37.280  10.084  12.207
91138W        W57547  16.524  33.291  11.341
91139W        W57548  18.578  16.359  13.866
91140W        W57549   5.359  11.311   2.608
91141W        W57550  15.971  15.645   2.829
91142W        W57551  10.486  40.389   9.998
91143W        W57552  40.499  31.128   3.642
91144W        W57553  41.933  30.120   1.135
91145W        W57554   6.005  13.391   1.175
91146W        W57555  16.812  41.951   1.117
91147W        W57556  11.269   7.947  11.021
91148W        W57557  20.093  18.153  11.598
91149W        W57558  10.296  22.962   3.074
91150W        W57559  15.445  42.962  14.710
91151W        W57560  42.957  16.161  11.351
91152W        W57561  20.647  25.318  11.022
91153W        W57562   8.720  13.077  10.574
91154W        W57563  10.249  10.983   0.954
91155W        W57564  29.666  25.119   0.415
91156W        W57565   5.966  10.124   1.853
91157W        W57566   6.900   1.223   0.696
91158W        W57567  42.022  25.193  11.022
91159W        W57568  16.361  21.719   2.137
91160W        W57569  14.139  37.266   1.261
91161W        W57570  41.997   4.921   0.263
91162W        W57571  11.349  13.772  10.441
91163W        W57572  19.239  10.128   1.335
91164W        W57573  38.940   5.281   4.141
91165W        W57574  41.866  25.194   1.102
91166W        W57575  14.915  31.937  13.479
91167W        W57576  29.128   4.023   3.940
91168W        W57577  27.669  38.890  13.155
91169W        W57578  31.032  19.354   2.791
91170W        W57579   9.504  26.799  12.404
91171W        W57580  17.270  42.677   2.174
91172W        W57581  17.689  23.114  11.594
91173W        W57582  17.101  37.804   2.314
91174W        W57583  26.049  43.107   2.006
91175W        W57584  19.954  33.253  11.750
91176W        W57585  23.308   9.859  11.542
91177W        W57586  38.048   0.487   5.218
91178W        W57587  36.595  23.149   0.784
91179W        W57588   2.481  34.859   2.211
91180W        W57589  28.021   8.276  13.619
91181W        W57590  34.451   1.503  11.533
91182W        W57591  28.175  38.826  14.290
91183W        W57592  17.295  15.234  12.075
91184W        W57593  27.682  42.845  11.185
91185W        W57594  27.382  30.535  12.380
91186W        W57595  44.216  25.458   3.747
91187W        W57596  14.698  26.185   4.897
91188W        W57597   2.222  36.912  13.843
91189W        W57598  41.146  18.466   0.577
91190W        W57599  29.000  12.611  14.320
91191W        W57600   0.510  12.206  11.133
91192W        W57601  25.788  40.504  11.053
91193W        W57602   6.515   1.657  12.898
91194W        W57603  27.129  23.893  14.250
91195W        W57604  23.128  27.446   1.023
91196W        W57605  39.648  38.009  10.525
91197W        W57606  15.922  39.447  14.002
91198W        W57607  36.019  15.130  10.937
91199W        W57608  38.008  35.402   0.350
91200W        W57609  12.155   8.110  14.608
91201W        W57610  21.572   2.878   4.135
91202W        W57611  37.570  40.000   2.337
91203W        W57612  44.269  17.757   1.984
91204W        W57613  24.976  29.663  13.800
91205W        W57614  17.057  13.864  14.815
91206W        W57615  15.217  14.223  10.323
91207W        W57616   5.866  33.907  10.778
91208W        W57617   3.261   2.644  13.961
91209W        W57618   5.280   3.377  13.747
91210W        W57619   9.684  28.382  14.564
91211W        W57620  42.425  44.885  14.602
91212W        W57621  21.718  29.125  14.792
91213W        W57622   9.506  29.580  11.434
91214W        W57623  26.426  37.334   1.392
91215W        W57624  38.740  14.078   2.206
91216W        W57625   5.360   2.486   1.809
91217W        W57626  36.579  35.296   2.245
91218W        W57627  26.372  21.212   0.092
91219W        W57628   8.650  43.784   3.696
91220W        W57629   2.913  22.252   0.452
91221W        W57630  37.298  26.221  13.857
91222W        W57631   1.733  37.551  14.337
91223W        W57632  44.301   9.444   2.358
91224W        W57633  19.523  15.720  10.108
91225W        W57634  16.123  26.237  14.020
91226W        W57635  23.943  30.375  12.074
91227W        W57636  25.244  15.970   4.487
91228W        W57637  22.185  33.217   3.784
91229W        W57638  10.667  41.100   3.621
91230W        W57639  41.552  14.576   1.353
91231W        W57640  37.106  36.358  13.364
91232W        W57641  44.474   9.751   0.824
91233W        W57642   4.956  30.562  10.635
91234W        W57643  28.661  27.131   2.591
91235W        W57644  14.111  16.259   4.376
91236W        W57645  10.764  36.303  12.955
91237W        W57646  20.993  44.547  12.092
91238W        W57647  16.833  36.995  10.134
91239W        W57648  13.164  22.955  11.229
91240W        W57649  14.341  38.419  13.845
91241W        W57650   9.773  41.496  13.334
91242W        W57651  33.420   0.202   4.784
91243W        W57652   1.321  26.195   2.098
91244W        W57653  35.570  25.764   0.057
91245W        W57654  10.295  44.770   4.533
91246W        W57655   3.152  41.363   2.987
91247W        W57656  44.401  15.755  11.692
91248W        W57657  13.536   6.972   3.147
91249W        W57658  20.751   1.957  14.905
91250W        W57659   5.768  23.865   1.647
91251W        W57660  22.540  38.993   2.407
91252W        W57661  33.262  21.530   2.546
91253W        W57662   2.360  18.343  11.170
91254W        W57663  25.025  37.470  12.655
91255W        W57664   3.890  19.241  10.678
91256W        W57665  33.961   8.081  14.893
91257W        W57666  13.664  30.444  11.985
91258W        W57667  41.130  25.593  14.370
91259W        W57668  19.187  33.255  10.603
91260W        W57669  36.987  41.338   0.800
91261W        W57670  37.529   4.673   0.252
91262W        W57671  33.402  27.656  10.858
91263W        W57672  35.535   7.904  12.440
91264W        W57673   4.535  34.851   1.341
91265W        W57674  22.986  34.828   3.927
91266W        W57675   1.982  12.293   0.799
91267W        W57676  39.837  41.420  11.963
91268W        W57677  12.333  17.281   0.605
91269W        W57678  25.649  16.080   2.719
91270W        W57679  40.005  33.174   1.665
91271W        W57680  38.873  38.101  11.579
91272W        W57681  24.237  32.350  11.162
91273W        W57682  42.384  10.320   1.176
91274W        W57683  11.966  13.536   1.075
91275W        W57684  28.989   1.404  13.923
91276W        W57685  11.247  34.648   4.025
91277W        W57686   2.651  20.446   4.195
91278W        W57687  36.869  41.426  11.493
91279W        W57688  21.679  16.699   1.345
91280W        W57689  40.039   7.126   3.212
91281W        W57690  36.088  41.807  14.072
91282W        W57691  28.171  10.791  13.901
91283W        W57692  41.571  31.376   4.580
91284W        W57693  23.867  35.420   4.078
91285W        W57694  42.532  38.459  10.754
91286W        W57695  21.135   9.110  10.550
91287W        W57696   7.186  39.993   0.800
91288W        W57697  29.425  14.056   0.804
91289W        W57698  43.161   2.887  13.424
91290W        W57699  13.164   0.792   4.001
91291W        W57700   7.721  15.634   4.510
91292W        W57701  28.982   4.492   1.628
91293W        W57702  17.469  39.103  11.446
91294W        W57703   2.271  39.422   3.425
91295W        W57704  20.125  41.967  11.533
91296W        W57705  13.237   0.134  12.493
91297W        W57706  21.970   5.369   1.201
91298W        W57707   4.866  37.611  12.039
91299W        W57708  13.894  29.559  10.932
91300W        W57709  41.311  39.276   3.367
91301W        W57710  24.835   9.621   0.491
91302W        W57711  18.236  37.099   0.717
91303W        W57712   5.792  36.007   4.463
91304W        W57713  22.935  18.428   3.541
91305W        W57714  19.227  41.725  11.989
91306W        W57715   3.900   2.827  10.889
91307W        W57716  19.136  29.486  13.195
91308W        W57717   0.317  24.812  13.329
91309W        W57718  37.396   6.160   4.964
91310W        W57719  18.276   0.902   3.125
91311W        W57720  43.486  40.069   4.111
91312W        W57721  30.178   3.360  12.004
91313W        W57722   9.813  39.594  12.955
91314W        W57723  36.013  37.344   0.699
91315W        W57724  23.257   8.782   2.277
91316W        W57725  26.030  44.467   4.866
91317W        W57726  29.138  44.534   4.499
91318W        W57727  25.836  18.024   3.835
91319W        W57728  32.327  25.838  14.343
91320W        W57729  32.420  22.500   1.742
91321W        W57730   0.852  26.702  11.166
91322W        W57731   9.888  39.571  14.338
91323W        W57732  11.747   7.748   1.964
91324W        W57733  20.669  37.082   1.466
91325W        W57734  11.322  18.888  13.980
91326W        W57735   6.048  40.952  13.455
91327W        W57736   0.991  33.366   1.382
91328W        W57737  17.505  41.803  13.996
91329W        W57738   2.810  43.052   1.393
91330W        W57739  25.864  40.259   1.657
91331W        W57740  20.225   7.105   0.938
91332W        W57741   1.466  13.171  14.606
91333W        W57742  20.610  16.398  14.749
91334W        W57743  32.489  33.737  11.416
91335W        W57744  25.175  34.463  14.977
91336W        W57745   4.204  12.800  12.191
91337W        W57746   5.317  27.155   0.270
91338W        W57747  39.429  27.212   2.051
91339W        W57748  29.350  29.135   1.606
91340W        W57749  14.864   1.365   1.814
91341W        W57750  32.315  41.371  14.343
91342W        W57751  24.144  43.248  11.020
91343W        W57752  26.927  11.667  12.899
91344W        W57753  41.483  41.018   4.600
91345W        W57754  23.238  15.599   0.807
91346W        W57755  30.827   1.840   1.723
91347W        W57756  32.645  10.159  12.286
91348W        W57757  22.960   8.115   2.772
91349W        W57758   2.449  32.937   2.196
91350W        W57759  39.388  33.870   2.905
91351W        W57760  40.804  11.270  10.714
91352W        W57761  31.788   2.022   3.323
91353W        W57762  16.005   5.404  13.185
91354W        W57763  26.258  25.955   3.557
91355W        W57764  37.582  28.950  14.390
91356W        W57765  12.393   6.674   4.541
91357W        W57766  19.742  29.441  14.014
91358W        W57767   6.643   4.729  12.756
91359W        W57768  39.185  13.042   9.906
91360W        W57769  32.464  23.995  14.982
91361W        W57770  35.081  43.577  14.000
91362W        W57771  35.852   4.361  11.114
91363W        W57772  43.424  36.434   4.628
91364W        W57773  35.113   0.357  14.374
91365W        W57774  40.014   8.590   2.861
91366W        W57775   0.781   4.878  11.072
91367W        W57776  14.329   1.726   1.481
91368W        W57777  10.230   2.223   4.935
91369W        W57778  10.386  33.888   0.971
91370W        W57779  31.333   3.609   0.457
91371W        W57780  39.322   1.444   0.804
91372W        W57781  28.759  41.262   2.711
91373W        W57782  11.071  39.560   2.374
91374W        W57783   6.878   3.285  11.125
91375W        W57784   2.936  27.086   4.576
91376W        W57785  12.222  19.868  10.076
91377W        W57786  16.925  38.857  10.047
91378W        W57787   3.401   7.338   3.231
91379W        W57788  10.124  44.681  13.286
91380W        W57789   8.263  19.225  13.353
91381W        W57790  35.026   7.574  11.174
91382W        W57791  30.765  26.203   4.065
91383W        W57792  39.355  22.852  10.662
91384W        W57793  26.097  29.707  11.045
91385W        W57794  44.437   2.411   4.110
91386W        W57795   5.363   0.196   1.269
91387W        W57796  17.052   4.959   2.277
91388W        W57797   0.956  12.698   3.733
91389W        W57798  41.995  36.501  12.697
91390W        W57799  29.830  35.247  11.706
91391W        W57800   8.594  40.485   3.674
91392W        W57801   9.302   5.200  14.016
91393W        W57802  24.067  13.100  11.267
91394W        W57803  18.975  40.876  10.810
91395W        W57804  43.857  37.999  14.811
91396W        W57805   0.926  24.752   2.172
91397W        W57806   7.863  18.017  14.916
91398W        W57807   7.356  34.452  14.009
91399W        W57808  37.640   4.826   3.142
91400W        W57809  34.457  21.873  13.965
91401W        W57810  36.182  21.106  14.851
91402W        W57811  37.527  32.398  11.765
91403W        W57812  35.566  10.629   3.899
91404W        W57813  38.960  34.944   2.760
91405W        W57814   4.197  37.447   1.804
91406W        W57815  34.100  39.818   2.269
91407W        W57816  43.710   0.067   2.547
91408W        W57817  11.706  36.105   3.146
91409W        W57818  24.056  32.964   0.330
91410W        W57819  15.836   3.236   0.911
91411W        W57820  12.514  21.121  13.125
91412W        W57821  24.517   1.091   2.369
91413W        W57822  26.030   2.363  11.930
91414W        W57823  14.072  19.286  11.576
91415W        W57824  40.742   1.293   3.209
91416W        W57825  19.186  40.051   4.419
91417W        W57826  26.386  33.739   2.246
91418W        W57827  35.568   8.857   3.635
91419W        W57828  20.738  36.947  10.931
91420W        W57829  11.879  41.290   4.171
91421W        W57830  10.332   6.093   2.108
91422W        W57831  44.223  29.146   3.643
91423W        W57832  37.923   7.534   4.079
91424W        W57833  17.340   5.932  11.431
91425W        W57834  28.745  37.786  11.964
91426W        W57835   0.948  27.473  11.469
91427W        W57836  27.596  42.018  10.640
91428W        W57837  23.266  27.202   2.032
91429W        W57838  20.521  14.324  13.013
91430W        W57839  37.225  26.724   1.807
91431W        W57840   8.789   9.625   4.592
91432W        W57841   7.871  13.368   1.903
91433W        W57842   0.679  40.097   2.709
91434W        W57843  17.399  23.057   0.760
91435W        W57844  37.639  34.482  12.528
91436W        W57845  37.585  28.475  12.130
91437W        W57846  12.628  25.710   2.316
91438W        W57847  15.793  27.909  10.647
91439W        W57848  13.641  34.508  11.084
91440W        W57849  12.195   8.154  14.086
91441W        W57850  36.800  35.409  11.128
91442W        W57851  26.063  38.901   1.684
91443W        W57852  21.436  38.479  11.011
91444W        W57853  18.950  22.272   0.560
91445W        W57854  36.551  15.103   3.719
91446W        W57855   5.830   2.179   1.913
91447W        W57856  12.793  38.542  12.440
91448W        W57857  17.767   5.354   0.131
91449W        W57858  36.983  41.828   2.107
91450W        W57859  40.264   3.713   4.128
91451W        W57860   6.929  37.743  11.475
91452W        W57861  16.573  30.094   0.960
91453W        W57862   1.231  23.209  14.999
91454W        W57863   9.752   1.290   4.120
91455W        W57864  44.418  16.938   4.574
91456W        W57865  35.301  28.288   3.313
91457W        W57866  40.679  35.509  12.142
91458W        W57867   0.433  33.527   2.921
91459W        W57868  33.912  26.436   3.655
91460W        W57869  17.294  43.418  12.680
91461W        W57870  31.014   1.440  11.509
91462W        W57871  28.924  21.159  10.461
91463W        W57872  24.132   1.979   0.509
91464W        W57873  32.473  44.247  11.442
91465W        W57874  19.311   0.899   4.051
91466W        W57875  36.554   7.234   4.203
91467W        W57876  36.069  25.227  11.434
91468W        W57877  18.577  15.683   0.606
91469W        W57878  14.593  38.042   2.159
91470W        W57879   9.612  10.400  11.148
91471W        W57880  22.429  41.092   3.742
91472W        W57881  42.037   1.073   3.801
91473W        W57882  44.933  11.007   4.693
91474W        W57883  36.302  40.967   4.303
91475W        W57884  30.575   7.309   1.345
91476W        W57885  25.796  29.669   2.269
91477W        W57886  29.618  17.977  12.314
91478W        W57887   5.879  41.934   0.764
91479W        W57888  33.861   9.656  14.154
91480W        W57889  43.803  31.560   0.353
91481W        W57890  27.045  24.043  14.739
91482W        W57891   5.663  36.412   1.174
91483W        W57892  22.413  39.391  10.429
91484W        W57893  26.540  21.299   3.686
91485W        W57894  34.448  19.246   1.388
91486W        W57895   8.596  22.278  13.781
91487W        W57896  28.713   4.007  14.945
91488W        W57897  44.765   2.217  13.166
91489W        W57898  27.692  26.546  12.905
91490W        W57899   6.320  10.860  13.086
91491W        W57900  33.678  24.100  14.687
91492W        W57901   2.165  39.591  11.649
91493W        W57902  16.249  25.195   2.049
91494W        W57903  43.316  11.700   0.747
91495W        W57904  31.986  12.695  10.683
91496W        W57905   2.574  15.455  12.623
91497W        W57906  24.918  23.264   2.598
91498W        W57907  37.553  23.509  10.760
91499W        W57908  42.107  22.355  10.111
91500W        W57909   9.780  18.795   2.389
91501W        W57910  27.463   6.493  12.981
91502W        W57911  28.519  31.897  10.735
91503W        W57912  15.637  16.329  11.998
91504W        W57913   7.133  37.045  10.692
91505W        W57914  20.362  35.749   0.353
91506W        W57915  19.301  36.003   2.432
91507W        W57916  13.189  21.024  14.252
91508W        W57917  37.390  19.146  11.037
91509W        W57918   4.475   4.262  13.865
91510W        W57919  40.479  17.873   0.217
91511W        W57920  30.312  13.849  12.950
91512W        W57921  31.287  31.718   0.385
91513W        W57922  13.846   2.129  10.674
91514W        W57923  11.183  13.086  14.543
91515W        W57924  13.113   3.991   1.041
91516W        W57925  32.465  33.532  11.875
91517W        W57926  18.680  30.227  13.773
91518W        W57927  42.023   6.259   4.217
91519W        W57928  16.876  34.180   2.011
91520W        W57929  37.234  43.998   0.356
91521W        W57930  44.812  28.384   1.941
91522W        W57931   2.716  43.562   3.113
91523W        W57932  10.257   9.634   0.831
91524W        W57933  24.325  40.831   4.664
91525W        W57934  13.417   1.887   0.428
91526W        W57935  29.242  33.666   0.860
91527W        W57936   5.792  35.064  11.663
91528W        W57937  24.202  40.353   2.586
91529W        W57938  36.846   0.445   2.718
91530W        W57939  42.307  32.925   0.391
91531W        W57940  19.798  37.516   0.329
91532W        W57941  42.708  20.493   2.409
91533W        W57942  26.936   1.177  12.981
91534W        W57943  38.318  13.413   1.156
91535W        W57944  16.346  21.623  13.043
91536W        W57945  24.078  10.363  13.814
91537W        W57946  30.473  29.116   2.683
91538W        W57947  36.679  21.357  13.066
91539W        W57948  29.170  42.093   2.251
91540W        W57949  10.366   8.296  11.024
91541W        W57950  19.010  38.430  12.022
91542W        W57951  37.804  12.256  12.547
91543W        W57952  10.971   2.402  12.057
91544W        W57953  44.328  37.551   9.980
91545W        W57954  43.221   7.680  14.397
91546W        W57955  30.664  19.217   4.058
91547W        W57956   8.204   0.854   2.828
91548W        W57957  38.889  24.236   2.736
91549W        W57958  33.189  29.179   4.333
91550W        W57959  29.970  43.249  14.953
91551W        W57960  26.841  20.761  10.942
91552W        W57961  40.690  34.961  14.301
91553W        W57962  32.893  33.872   4.880
91554W        W57963  21.585  44.874  12.639
91555W        W57964  44.931   5.994   1.612
91556W        W57965  19.283  30.909  11.880
91557W        W57966  25.376  13.598  13.506
91558W        W57967  43.221  24.405  14.812
91559W        W57968  21.426   7.572   0.898
91560W        W57969   7.201   0.240  13.504
91561W        W57970  43.766  32.014  12.111
91562W        W57971  37.447  39.520  14.969
91563W        W57972  41.278  22.581   2.338
91564W        W57973  29.702  10.734  12.831
91565W        W57974  15.045  32.967  14.513
91566W        W57975   7.224  15.729   2.843
91567W        W57976  25.159  34.566   1.409
91568W        W57977   3.894  44.485   0.973
91569W        W57978  27.605   5.515   2.261
91570W        W57979   1.589  30.150   4.224
91571W        W57980  15.511  13.685  12.028
91572W        W57981  40.558  10.503   1.294
91573W        W57982   8.680  13.835  14.396
91574W        W57983  35.128  15.260  14.483
91575W        W57984   1.746   3.765   4.912
91576W        W57985  33.138   1.681   1.876
91577W        W57986   1.385   6.127   0.418
91578W        W57987  14.585  14.349  13.025
91579W        W57988  43.988  37.502   0.508
91580W        W57989  31.068  14.705  10.538
91581W        W57990  20.827   2.940   3.266
91582W        W57991  39.356  15.702  11.040
91583W        W57992  35.477  33.577  12.088
91584W        W57993   9.370  39.113   1.806
91585W        W57994  26.749  37.390   2.726
91586W        W57995  44.160  43.541  13.114
91587W        W57996  25.120  19.966  14.281
91588W        W57997   5.395  26.638  11.013
91589W        W57998  35.633  27.964  14.043
91590W        W57999  40.905  25.189   4.691
91591W        W58000  30.294  14.790  11.048
91592W        W58001  32.847  30.459  14.367
91593W        W58002   9.826  37.278  14.946
91594W        W58003  29.087  28.075   1.022
91595W        W58004  26.582  20.205  11.849
91596W        W58005  10.634  41.319   2.733
91597W        W58006  11.103  43.197  11.165
91598W        W58007  34.605   9.237  13.823
91599W        W58008  36.022  30.407   1.641
91600W        W58009  22.071  39.904  13.617
91601W        W58010  11.098  44.839   2.949
91602W        W58011  36.124  37.783  12.211
91603W        W58012  21.664  42.275  13.587
91604W        W58013  15.684  37.834  10.766
91605W        W58014   1.174  33.840   0.577
91606W        W58015   5.885  18.224   4.091
91607W        W58016  42.645  21.018  11.614
91608W        W58017  30.907  33.895   3.371
91609W        W58018   1.029  44.851   0.808
91610W        W58019  33.536  35.929   4.140
91611W        W58020  30.979   0.938   4.589
91612W        W58021  41.164  25.680  13.507
91613W        W58022  26.537  33.223  12.328
91614W        W58023  38.798   8.605   2.621
91615W        W58024  44.247  35.750   2.929
91616W        W58025   2.433   4.855  14.984
91617W        W58026   6.327  17.113   3.362
91618W        W58027  33.036  13.174  12.518
91619W        W58028   1.921  34.870   4.454
91620W        W58029   7.431  21.502   1.347
91621W        W58030  40.148  26.196   4.760
91622W        W58031  29.852  28.980  11.082
91623W        W58032  20.067  22.306   1.384
91624W        W58033  19.546   2.460   0.817
91625W        W58034  44.797   0.504  13.551
91626W        W58035  43.858  10.827   1.840
91627W        W58036  25.137   7.654  14.927
91628W        W58037  22.541  38.985   2.919
91629W        W58038  23.093  27.568  14.018
91630W        W58039  30.862  23.426  12.907
91631W        W58040   1.133  20.186   1.408
91632W        W58041  44.693  20.943   2.700
91633W        W58042  26.698  41.239  13.986
91634W        W58043  31.360  17.332   4.747
91635W        W58044  39.309  11.561  10.649
91636W        W58045  40.075  43.568  13.830
91637W        W58046   9.675  15.670  13.284
91638W        W58047  25.869  33.813   1.299
91639W        W58048  30.296  10.403   1.296
91640W        W58049   4.306  23.549   0.841
91641W        W58050  10.738   7.919   2.978
91642W        W58051  42.046  18.193  10.697
91643W        W58052  37.061  13.938   2.966
91644W        W58053  44.273  44.002   3.078
91645W        W58054   6.283  42.132  14.014
91646W        W58055  41.305  25.041  11.594
91647W        W58056  26.043  27.049   1.504
91648W        W58057  31.364  27.367  10.988
91649W        W58058   6.682   4.424  10.755
91650W        W58059  23.989  13.675   0.979
91651W        W58060  30.474  37.216  13.447
91652W        W58061  21.433   4.346  10.049
91653W        W58062  11.425  13.439   1.763
91654W        W58063  24.086  28.594   2.604
91655W        W58064  25.916  42.059   0.608
91656W        W58065  30.185  43.723  12.774
91657W        W58066  38.502  31.869   0.512
91658W        W58067   5.281  10.741   1.303
91659W        W58068  10.482  26.102  13.994
91660W        W58069  42.319  34.134   2.368
91661W        W58070  33.939  32.473   0.307
91662W        W58071  42.404   6.932   0.703
91663W        W58072  29.951  38.505   0.674
91664W        W58073  24.715  34.551   1.785
91665W        W58074  36.181  39.824   1.855
91666W        W58075  36.618  16.718   1.723
91667W        W58076  32.957   0.019  10.635
91668W        W58077  41.935   4.409   0.221
91669W        W58078   9.761  20.015  14.724
91670W        W58079  25.971  20.196  11.102
91671W        W58080  21.857   1.561   3.154
91672W        W58081  39.083  19.135  11.956
91673W        W58082  20.022  44.230   1.365
91674W        W58083  19.511  25.166   0.836
91675W        W58084  35.930  35.343  11.201
91676W        W58085  28.623  37.679  13.877
91677W        W58086   4.841  25.602  14.086
91678W        W58087  12.238   9.205   1.064
91679W        W58088  30.520   8.712  12.993
91680W        W58089  36.460  42.927  14.149
91681W        W58090   9.623  19.751   0.173
91682W        W58091  25.112  22.568   4.574
91683W        W58092  30.696  44.848   2.250
91684W        W58093  10.634  23.107  13.616
91685W        W58094  14.499  18.290   4.130
91686W        W58095  27.213  10.666   4.085
91687W        W58096  41.206  16.659  11.595
91688W        W58097  18.513   5.212  11.622
91689W        W58098  28.565  22.298   1.729
91690W        W58099   3.449   8.349   4.159
91691W        W58100  24.183   4.689   0.401
91692W        W58101  37.301   9.158   4.590
91693W        W58102  32.739  32.297  10.208
91694W        W58103  25.637  29.893  14.937
91695W        W58104  16.730   4.436   2.390
91696W        W58105  42.986   0.062  11.921
91697W        W58106  44.704  29.988  13.469
91698W        W58107  43.205  23.763   3.890
91699W        W58108  16.524  37.010   3.761
91700W        W58109  36.791  17.206  10.296
91701W        W58110  23.004  43.319   4.315
91702W        W58111  24.754  16.015   2.595
91703W        W58112  11.636  35.302  13.077
91704W        W58113  15.162  36.076   2.699
91705W        W58114  28.511   9.243  12.038
91706W        W58115  37.844  26.712  11.263
91707W        W58116  42.827  22.040  11.168
91708W        W58117  15.265  13.681  13.853
91709W        W58118  11.639  26.910   4.501
91710W        W58119  31.402   6.452  12.968
91711W        W58120   1.315   0.304   0.855
91712W        W58121   1.351  10.623  14.810
91713W        W58122  29.126   4.208   1.222
91714W        W58123  37.358   0.811   3.057
91715W        W58124  21.903  35.553  11.671
91716W        W58125   0.325  25.583   1.987
91717W        W58126   9.225  16.009   9.986
91718W        W58127  44.226  30.088   0.317
91719W        W58128  14.694  24.947   0.860
91720W        W58129  35.481   3.378   4.531
91721W        W58130  37.489  26.270   3.188
91722W        W58131  26.059  25.399  14.580
91723W        W58132  27.954   7.885   3.942
91724W        W58133   1.006  35.533  11.982
91725W        W58134  14.576  21.683   2.760
91726W        W58135   1.237  28.006  11.564
91727W        W58136  43.434  40.414  10.666
91728W        W58137  33.885  28.012   2.569
91729W        W58138   8.773  25.503   1.720
91730W        W58139   0.240  36.016   1.802
91731W        W58140  13.831  20.723   2.148
91732W        W58141  10.096  35.213  12.030
91733W        W58142  14.094  15.229   0.179
91734W        W58143   2.929  38.523  13.853
91735W        W58144  29.430   8.426  11.024
91736W        W58145  38.752  23.027  12.496
91737W        W58146  41.235  30.336   3.656
91738W        W58147  40.477  12.426  14.968
91739W        W58148  37.404  32.570   4.787
91740W        W58149  11.203  33.401  13.452
91741W        W58150  21.923  16.312   0.765
91742W        W58151  30.486  10.590  13.906
91743W        W58152  42.601   1.356  12.183
91744W        W58153  36.634  33.563  11.425
91745W        W58154  23.654   8.840  13.293
91746W        W58155   6.372  15.312  12.527
91747W        W58156  42.035  11.190  13.160
91748W        W58157  32.732   9.265   3.357
91749W        W58158  37.569   7.718   3.755
91750W        W58159   0.221  30.129  14.476
91751W        W58160   5.372   4.007  13.028
91752W        W58161  36.633  26.083   1.237
91753W        W58162  14.398  37.315   3.692
91754W        W58163  33.876  22.206  10.630
91755W        W58164   3.738  10.906   1.787
91756W        W58165   2.852  34.567  12.187
91757W        W58166  14.430  31.632   1.394
91758W        W58167   0.802  11.845  10.850
91759W        W58168  18.947   3.689  13.070
91760W        W58169  25.515  38.561  14.272
91761W        W58170   8.688  38.488  13.130
91762W        W58171  43.508  16.849  12.131
91763W        W58172  13.265   8.728   4.117
91764W        W58173  28.005  17.419   4.542
91765W        W58174   0.452  22.086   1.490
91766W        W58175   4.516  23.113  14.470
91767W        W58176  31.583   1.236   3.117
91768W        W58177   8.324   8.444  12.707
91769W        W58178  22.489  14.292  11.584
91770W        W58179  38.286  32.089   1.836
91771W        W58180  44.476  11.260   4.809
91772W        W58181  41.065  18.282  13.351
91773W        W58182  41.997  23.197  13.465
91774W        W58183   8.803  38.551   1.005
91775W        W58184  17.842  20.733  10.738
91776W        W58185  17.141  23.285   2.608
91777W        W58186  19.870  14.323   5.148
91778W        W58187  23.991  10.837  14.985
91779W        W58188  23.459  30.962   3.281
91780W        W58189  27.127  22.286  14.057
91781W        W58190   7.657  19.726   2.587
91782W        W58191  19.240  41.572   0.450
91783W        W58192  25.253  42.574   3.694
91784W        W58193  29.159  12.124  14.816
91785W        W58194   7.441  29.851   3.859
91786W        W58195  18.918  28.446  14.905
91787W        W58196  27.174  13.852   2.150
91788W        W58197  25.579  30.674  10.762
91789W        W58198  39.613   4.299   0.793
91790W        W58199  26.196  20.610  11.709
91791W        W58200  36.794  19.649  12.938
91792W        W58201   4.334  10.649   3.876
91793W        W58202  23.495  41.375  14.778
91794W        W58203  20.155  43.372   3.795
91795W        W58204   7.194  24.525   0.208
91796W        W58205  25.546  28.037  13.788
91797W        W58206  35.487  13.104   4.260
91798W        W58207   6.298   3.966   2.550
91799W        W58208   1.539  44.818  11.995
91800W        W58209  41.339  25.714  11.233
91801W        W58210  40.968  43.270  11.858
91802W        W58211  21.612  16.283  10.619
91803W        W58212  12.164  32.343   5.638
91804W        W58213  30.165  27.401   2.793
91805W        W58214  21.539  26.715  12.948
91806W        W58215  19.700   0.232  14.952
91807W        W58216   4.700  19.092  10.901
91808W        W58217  28.818   5.901  13.884
91809W        W58218  27.538  27.797  11.447
91810W        W58219  44.739  26.221  14.272
91811W        W58220  21.007   5.211   3.714
91812W        W58221   8.848  25.674   0.166
91813W        W58222  36.538  24.571  13.410
91814W        W58223  38.323  11.778  12.463
91815W        W58224   9.419  10.564   3.278
91816W        W58225  40.967   1.484   4.042
91817W        W58226  38.281  18.420   1.792
91818W        W58227  43.399  27.531  12.997
91819W        W58228  26.111  12.357   3.208
91820W        W58229   1.840  42.581   1.451
91821W        W58230   5.631  30.152  13.453
91822W        W58231  15.644  36.248  12.631
91823W        W58232   8.957  16.557   2.238
91824W        W58233   8.160  39.326  13.436
91825W        W58234   3.922   1.745   1.502
91826W        W58235  38.864   9.229   1.743
91827W        W58236   9.467  30.163  11.327
91828W        W58237   5.309  30.438   2.733
91829W        W58238  38.522  38.271  12.985
91830W        W58239  36.144  30.415  10.676
91831W        W58240  19.563  10.097   0.328
91832W        W58241   4.335  27.888  12.007
91833W        W58242  28.668  13.138  11.636
91834W        W58243  36.322  16.253  11.455
91835W        W58244   8.159  36.403  13.399
91836W        W58245  42.248   4.337  12.400
91837W        W58246  26.496  26.142  12.953
91838W        W58247  18.820   1.548  13.349
91839W        W58248  28.371   7.615   0.400
91840W        W58249  44.472  31.306   3.800
91841W        W58250  12.573  34.862  11.472
91842W        W58251  15.216  29.689  10.769
91843W        W58252  19.422  29.378  11.120
91844W        W58253  40.799  37.059  12.991
91845W        W58254  36.898  12.556  14.025
91846W        W58255  44.371  44.640   0.323
91847W        W58256  18.725  17.094  11.843
91848W        W58257  15.850  35.431   2.691
91849W        W58258  15.433  38.131   4.129
91850W        W58259  31.132  44.767  10.594
91851W        W58260  28.379  10.644  14.452
91852W        W58261  12.953  12.251   2.478
91853W        W58262  19.213  34.054   2.221
91854W        W58263  16.615  32.368   3.181
91855W        W58264  38.654   8.866  11.179
91856W        W58265  36.099  17.854  14.356
91857W        W58266   5.284  19.771   2.194
91858W        W58267  20.174  29.110  10.689
91859W        W58268  10.217  16.639   0.678
91860W        W58269  10.891  25.183  11.688
91861W        W58270  26.694  24.716  14.304
91862W        W58271   6.003  34.154  11.772
91863W        W58272  25.732  30.962  14.496
91864W        W58273  42.574   2.426  11.670
91865W        W58274  31.914  12.716   2.969
91866W        W58275   1.884   3.333  10.743
91867W        W58276  44.252  24.836   0.982
91868W        W58277  20.523   9.610  14.950
91869W        W58278  10.767   9.682  14.775
91870W        W58279  12.998  28.077  14.272
91871W        W58280  20.633   6.809   0.786
91872W        W58281   1.385  30.626  13.559
91873W        W58282  27.420  18.727   4.136
91874W        W58283  28.084  18.229   0.031
91875W        W58284   5.079  35.268  11.948
91876W        W58285  29.885  13.316  13.437
91877W        W58286  42.304  24.674   3.971
91878W        W58287   7.253  23.256   0.823
91879W        W58288  32.162  40.621   2.783
91880W        W58289  28.531   9.105  12.556
91881W        W58290  43.124  29.360  10.342
91882W        W58291   2.960   3.421   2.062
91883W        W58292  19.332  18.644  14.381
91884W        W58293  32.020   1.810  10.552
91885W        W58294  10.016  13.835   2.056
91886W        W58295  28.050  19.931  13.904
91887W        W58296  21.663  20.816   3.679
91888W        W58297  34.489  10.424   4.958
91889W        W58298   2.401  41.909  12.631
91890W        W58299  18.311  42.932  14.889
91891W        W58300  17.219   3.912  13.769
91892W        W58301  33.521  33.991   0.361
91893W        W58302   2.008   9.980   1.095
91894W        W58303  26.954   5.670   0.949
91895W        W58304  17.649  41.040  11.204
91896W        W58305  39.738  16.739   3.179
91897W        W58306  33.093  23.932   0.814
91898W        W58307  24.015  18.726  13.316
91899W        W58308  12.197  17.028  14.615
91900W        W58309   9.318  26.160   0.844
91901W        W58310   6.903   4.779  13.895
91902W        W58311  14.352   6.178   0.398
91903W        W58312  33.966  13.256  10.552
91904W        W58313  12.114  20.477  12.020
91905W        W58314  19.860  41.453   0.771
91906W        W58315  14.210  11.833  10.952
91907W        W58316   3.090   1.993   2.358
91908W        W58317  37.964  24.011   4.494
91909W        W58318  37.538  10.678  10.626
91910W        W58319  30.595  41.377  11.636
91911W        W58320   6.309  11.075   4.457
91912W        W58321  39.460  18.242   3.577
91913W        W58322  37.307  29.147   3.377
91914W        W58323  12.173  32.135  14.777
91915W        W58324  13.830  32.255  11.030
91916W        W58325  17.244  19.045   4.124
91917W        W58326  26.004  16.330   3.418
91918W        W58327  41.725  13.698  11.933
91919W        W58328  10.656   8.759   0.367
91920W        W58329  10.184  28.011   2.691
91921W        W58330  15.117  40.506   4.586
91922W        W58331  25.808   8.646  12.665
91923W        W58332  41.285  36.911  12.047
91924W        W58333  16.398  23.050  14.039
91925W        W58334  34.321  43.965   4.588
91926W        W58335  15.052  42.517  14.218
91927W        W58336  24.257  12.152   1.821
91928W        W58337  33.327  24.371   1.738
91929W        W58338  26.909  31.455   2.658
91930W        W58339  39.217  12.303  12.051
91931W        W58340  25.499  42.383   4.487
91932W        W58341  35.115   3.844  10.395
91933W        W58342  43.304  24.563  13.331
91934W        W58343  11.422  27.362   4.371
91935W        W58344  35.814   7.838  10.703
91936W        W58345   0.885  20.577   1.719
91937W        W58346  30.914   0.079  12.985
91938W        W58347  24.159  15.679  12.557
91939W        W58348  14.026  18.142   4.212
91940W        W58349  25.131  22.159   0.290
91941W        W58350  21.495  14.445  11.624
91942W        W58351  18.209  15.595  10.897
91943W        W58352  20.777   5.257   2.384
91944W        W58353  10.806   3.936  11.167
91945W        W58354  37.650  23.089   1.848
91946W        W58355  18.552  31.246   0.973
91947W        W58356   2.278  44.456  13.479
91948W        W58357  19.110  12.596   4.121
91949W        W58358  37.626  27.679   4.181
91950W        W58359  14.118  32.055   3.195
91951W        W58360  41.521  36.075  12.074
91952W        W58361  14.037  34.066  12.118
91953W        W58362  23.988  26.726   2.568
91954W        W58363  44.039  21.004   2.296
91955W        W58364   5.832  33.321  12.384
91956W        W58365  27.213  24.217  11.161
91957W        W58366   9.253  37.973  14.843
91958W        W58367  24.242   7.235  11.225
91959W        W58368  23.583  23.920   3.208
91960W        W58369  10.074   8.039  11.562
91961W        W58370  38.764  11.564  12.608
91962W        W58371   8.616  37.548   0.738
91963W        W58372  31.835  21.636   5.178
91964W        W58373  19.039   2.845  10.707
91965W        W58374  12.198  33.420   3.547
91966W        W58375  11.441  36.439   3.838
91967W        W58376  18.209  40.588   1.790
91968W        W58377  42.595  30.549  11.272
91969W        W58378  29.859  30.890   2.095
91970W        W58379  41.239  23.628   3.525
91971W        W58380  14.526  36.432  11.534
91972W        W58381   1.657  37.354  11.586
91973W        W58382  36.011  39.913   4.473
91974W        W58383   8.123  21.518   2.785
91975W        W58384  35.054  13.354  11.299
91976W        W58385   9.344  37.768   0.936
91977W        W58386  21.017  23.741   4.083
91978W        W58387  27.682  28.609  14.569
91979W        W58388  39.834  26.024  14.430
91980W        W58389  27.986  39.481  13.747
91981W        W58390   3.967   6.825   2.359
91982W        W58391  13.714  38.401   0.034
91983W        W58392   5.195   4.836  11.216
91984W        W58393  19.562   2.698  11.576
91985W        W58394  39.258  35.015  14.021
91986W        W58395  15.178  43.453   4.143
91987W        W58396  33.527  14.512  11.597
91988W        W58397  38.406  21.300   4.591
91989W        W58398  34.851  29.971  11.103
91990W        W58399  25.986   2.492  11.409
91991W        W58400  21.689  37.514  11.543
91992W        W58401  28.120  17.130   1.910
91993W        W58402  13.738  20.297   3.728
91994W        W58403   8.883  28.424   1.089
91995W        W58404  29.634  25.918  13.454
91996W        W58405  18.448  29.763  11.133
91997W        W58406   4.575  24.592   2.312
91998W        W58407  34.945  40.590   1.817
91999W        W58408   4.782  44.169   0.796
92000W        W58409  26.008  13.054   4.069
92001W        W58410  16.399   7.273  12.958
92002W        W58411  38.049  14.291   2.047
92003W        W58412   3.257  24.233  13.149
92004W        W58413  31.115  26.709  11.525
92005W        W58414   8.726   0.187   2.888
92006W        W58415  34.096   3.409  13.302
92007W        W58416  32.996  15.329   1.632
92008W        W58417  30.135   7.068   1.243
92009W        W58418   2.809  21.454   4.087
92010W        W58419  15.004  22.394  12.847
92011W        W58420  36.295  30.436  14.870
92012W        W58421  14.766  37.601   1.530
92013W        W58422   7.893  23.767   9.974
92014W        W58423  21.092  25.463   4.327
92015W        W58424  34.682  23.312   2.873
92016W        W58425  30.363  44.846   1.764
92017W        W58426  32.333  10.086   9.806
92018W        W58427   4.641  19.613  13.497
92019W        W58428  24.367   1.181   3.675
92020W        W58429  12.078   5.823  12.031
92021W        W58430  39.029  32.946   0.998
92022W        W58431  38.425  16.050   2.338
92023W        W58432  32.165  43.620  10.608
92024W        W58433  44.423  41.749   1.640
92025W        W58434  23.519  20.799   0.889
92026W        W58435   7.498  21.984   2.207
92027W        W58436  44.035  20.477   2.303
92028W        W58437  18.628  30.556   0.041
92029W        W58438  32.021  10.007  14.354
92030W        W58439  38.490  35.186   2.708
92031W        W58440  38.594   1.867   1.825
92032W        W58441   9.653  39.541   3.643
92033W        W58442  37.110  43.075  14.457
92034W        W58443  14.253  27.793  13.038
92035W        W58444  36.213  15.851  12.004
92036W        W58445   5.256  30.207  13.029
92037W        W58446   3.939  25.360  14.275
92038W        W58447  13.761   4.841  13.903
92039W        W58448   4.920  40.255  14.174
92040W        W58449  44.678  10.689   2.232
92041W        W58450  23.636   4.377  14.927
92042W        W58451  19.861  42.940  11.662
92043W        W58452  25.861  27.039  12.455
92044W        W58453  11.616  39.480   2.343
92045W        W58454   3.205  19.877  12.514
92046W        W58455   1.324  28.029  14.834
92047W        W58456  10.811  30.445  14.964
92048W        W58457  14.320  36.255   5.529
92049W        W58458  28.103  15.312  13.254
92050W        W58459   4.894  40.537  12.711
92051W        W58460  13.639   7.859  14.409
92052W        W58461  21.253  16.377   1.496
92053W        W58462   3.282  12.933  14.351
92054W        W58463  33.780  25.096   0.841
92055W        W58464  17.599  16.716  13.742
92056W        W58465  10.787  13.889   3.779
92057W        W58466  16.297  25.911   1.307
92058W        W58467  44.046  39.089  12.105
92059W        W58468   3.701   9.762  10.874
92060W        W58469  43.913  12.827  12.977
92061W        W58470  37.439   2.455  12.064
92062W        W58471   2.875  23.084  14.456
92063W        W58472  16.207  13.614  14.329
92064W        W58473  35.019  43.052   3.993
92065W        W58474  38.081  20.774  12.497
92066W        W58475   0.833   4.693  11.980
92067W        W58476  41.332   9.595  13.018
92068W        W58477   3.783  23.847   4.523
92069W        W58478  19.533  28.943  14.893
92070W        W58479  18.758  40.489   4.209
92071W        W58480  27.450   5.078  11.408
92072W        W58481  32.462   0.394   4.930
92073W        W58482  26.144  24.583   1.754
92074W        W58483   8.981  37.380  13.898
92075W        W58484   3.099  18.473   4.079
92076W        W58485  15.200  30.294  13.862
92077W        W58486  10.146   5.729   0.266
92078W        W58487  42.899   8.334   2.352
92079W        W58488  40.449   4.678   1.399
92080W        W58489  43.715  25.497   1.184
92081W        W58490  44.058  28.641  12.525
92082W        W58491   6.227  10.377   0.238
92083W        W58492  33.974  36.431  14.043
92084W        W58493   2.819  31.183   1.647
92085W        W58494  28.075   9.893   1.741
92086W        W58495  43.760   1.859   3.768
92087W        W58496  15.068  20.760  14.794
92088W        W58497  19.266  20.172  12.020
92089W        W58498  21.173  41.481   3.743
92090W        W58499  17.021  42.568  10.619
92091W        W58500   8.214   8.227  14.920
92092W        W58501  41.479  20.151  14.174
92093W        W58502  37.871  42.903  13.794
92094W        W58503  41.169  33.414  12.561
92095W        W58504  30.720  31.697  10.689
92096W        W58505  40.966  28.482  13.456
92097W        W58506  26.435  14.616  12.663
92098W        W58507   8.077  11.690   2.736
92099W        W58508  42.469   4.676   2.865
92100W        W58509   0.879  16.110   2.800
92101W        W58510  36.390   4.090   3.940
92102W        W58511  18.142  20.091   1.267
92103W        W58512  25.081  11.745  10.661
92104W        W58513   4.030  24.584   0.326
92105W        W58514  20.368   2.939  12.975
92106W        W58515  11.134   3.415  12.870
92107W        W58516   7.670  30.132   3.321
92108W        W58517  17.734   6.425  12.689
92109W        W58518   6.091  21.869   5.483
92110W        W58519   5.872  20.359   2.748
92111W        W58520  25.261  37.422  14.898
92112W        W58521  18.604  34.049   3.313
92113W        W58522  30.508  10.386   5.178
92114W        W58523   2.260  40.992   0.527
92115W        W58524  22.714  23.740   4.595
92116W        W58525   6.808  15.601  12.424
92117W        W58526  39.887  40.775  11.174
92118W        W58527  20.803  15.575   0.306
92119W        W58528  15.803  40.060  10.200
92120W        W58529  18.657  28.049   3.172
92121W        W58530  30.547  20.645   3.571
92122W        W58531  19.162  13.108   4.721
92123W        W58532  44.207  24.277   2.223
92124W        W58533   2.697  20.334  14.845
92125W        W58534  36.387  40.413  13.096
92126W        W58535  44.791  17.393   3.223
92127W        W58536  38.501  42.259  13.855
92128W        W58537  27.117   8.410   1.782
92129W        W58538  12.842  28.668  13.375
92130W        W58539   7.748  18.179   3.704
92131W        W58540  21.652  17.248   4.024
92132W        W58541  16.286  44.933   4.072
92133W        W58542  27.695  17.657   1.094
92134W        W58543   1.360  27.362   1.440
92135W        W58544  12.578  40.550   2.774
92136W        W58545  21.731  43.944   2.336
92137W        W58546  32.138  32.434   1.406
92138W        W58547   4.308  14.717  14.243
92139W        W58548  28.411  24.494  10.752
92140W        W58549  12.441  43.183   4.145
92141W        W58550  42.042   5.193  14.254
92142W        W58551  30.054  19.100  12.068
92143W        W58552   9.134   3.751  14.339
92144W        W58553  25.655   1.008  12.600
92145W        W58554   5.228  12.822  13.004
92146W        W58555   2.345   8.143  13.143
92147W        W58556  30.480   7.953   4.151
92148W        W58557   0.792  18.845   1.477
92149W        W58558  28.411  11.346   1.885
92150W        W58559  28.474  16.673   4.609
92151W        W58560  31.190  13.810  11.989
92152W        W58561  21.717   7.228   5.022
92153W        W58562   8.777  21.043   2.946
92154W        W58563  38.874   1.981   3.781
92155W        W58564   0.020   7.808  14.886
92156W        W58565  30.169   6.520  14.114
92157W        W58566  35.583  21.285  11.269
92158W        W58567  22.615  10.679   1.994
92159W        W58568  37.900  16.060   1.566
92160W        W58569  30.291  36.890   4.635
92161W        W58570  12.315   8.396  11.808
92162W        W58571  14.185  15.856   2.515
92163W        W58572  42.333  19.574   2.831
92164W        W58573  34.214   1.933   4.773
92165W        W58574   8.399  26.945   1.340
92166W        W58575  37.328  38.522  12.442
92167W        W58576  21.016   3.818   1.725
92168W        W58577  27.081  36.723   1.619
92169W        W58578  33.135  27.434  14.379
92170W        W58579  23.495  35.948  14.870
92171W        W58580  19.760  25.055  11.324
92172W        W58581  16.565  39.282   1.182
92173W        W58582  16.555  11.331   3.281
92174W        W58583  15.555  37.881   1.690
92175W        W58584  43.060  22.082  13.515
92176W        W58585  20.120  17.097   0.639
92177W        W58586  32.852  17.725  14.302
92178W        W58587  28.167  26.720  12.802
92179W        W58588   7.146  22.638  12.838
92180W        W58589  34.887  14.453   4.826
92181W        W58590  17.661  32.709  14.452
92182W        W58591  13.839  30.108   1.295
92183W        W58592  33.458  13.057  13.028
92184W        W58593  22.908  12.146  12.894
92185W        W58594  36.837  20.044  11.209
92186W        W58595  37.947  43.369  12.106
92187W        W58596   9.828  21.384  12.220
92188W        W58597  15.110   9.326  13.159
92189W        W58598  42.122  22.116   0.389
92190W        W58599  10.299  36.117  13.140
92191W        W58600  18.536  41.019   3.598
92192W        W58601   8.383   8.210  12.256
92193W        W58602  31.014  22.493  13.870
92194W        W58603  33.468  24.386  10.838
92195W        W58604  42.678  30.098   0.384
92196W        W58605  18.289  29.046   0.379
92197W        W58606  35.369  12.018   0.425
92198W        W58607  27.671   2.062   3.208
92199W        W58608  16.313  24.298  11.125
92200W        W58609  20.902  25.229   2.368
92201W        W58610  43.035  20.542  14.100
92202W        W58611   5.345  11.343  13.269
92203W        W58612   3.871  22.525  14.371
92204W        W58613  25.107  20.566  10.910
92205W        W58614  24.520  37.550   1.913
92206W        W58615   1.946   7.839  12.481
92207W        W58616  39.256  25.117  11.659
92208W        W58617  36.155  22.644  11.718
92209W        W58618  38.166   1.860  12.215
92210W        W58619  40.034  20.719  10.151
92211W        W58620  24.212  31.008   2.367
92212W        W58621  15.055  15.353   0.473
92213W        W58622   5.879  26.175  13.312
92214W        W58623  36.381  41.467  14.689
92215W        W58624  23.045  20.547  10.940
92216W        W58625  18.218  39.006  12.924
92217W        W58626   1.758  29.846  13.339
92218W        W58627   0.339  28.735   3.259
92219W        W58628  27.465  19.156  13.744
92220W        W58629  20.158   9.297  11.873
92221W        W58630  11.796  19.894  13.156
92222W        W58631   8.102  18.827   2.233
92223W        W58632   5.400  19.887   5.131
92224W        W58633  27.214  30.139  12.087
92225W        W58634  31.921  43.659  14.386
92226W        W58635  38.537  34.338  14.106
92227W        W58636   8.767  21.992   3.737
92228W        W58637  24.714  34.097   4.111
92229W        W58638  10.139  30.031   0.293
92230W        W58639  43.990   7.353  12.408
92231W        W58640   7.268  38.726  14.309
92232W        W58641  19.094  16.654  12.907
92233W        W58642  21.622  28.751   2.695
92234W        W58643  36.860  23.538  14.894
92235W        W58644  27.171  17.298   0.359
92236W        W58645  11.989  41.330  10.911
92237W        W58646  22.740  41.811  13.462
92238W        W58647   6.229  28.663  12.114
92239W        W58648  23.995  29.885   0.676
92240W        W58649  26.600  10.898  12.010
92241W        W58650  43.893  11.835   2.373
92242W        W58651  12.237   5.050   3.486
92243W        W58652  11.660   2.896   2.152
92244W        W58653  18.607  11.403  13.002
92245W        W58654  42.390   4.531  14.478
92246W        W58655  12.597  10.353   4.148
92247W        W58656  35.412  41.386  11.596
92248W        W58657  37.324   8.124   0.211
92249W        W58658  18.520  26.712  10.343
92250W        W58659  20.046  23.009  11.638
92251W        W58660  26.194  17.560  12.281
92252W        W58661   4.876  24.728   9.900
92253W        W58662   1.681  21.343  14.823
92254W        W58663  17.089  43.265   3.254
92255W        W58664  14.755  40.874  10.714
92256W        W58665  28.508  17.504  13.057
92257W        W58666  22.675  10.403  12.503
92258W        W58667  23.575  44.679  12.208
92259W        W58668  25.093  32.385   1.827
92260W        W58669  38.388  27.093  13.936
92261W        W58670  31.001  17.838  11.610
92262W        W58671  15.287  29.860   1.340
92263W        W58672  23.370  28.043  13.926
92264W        W58673  21.667  35.214  12.042
92265W        W58674  13.601  41.460   4.863
92266W        W58675  32.719  12.755  13.389
92267W        W58676  18.729  44.348  12.341
92268W        W58677  35.928  34.062  11.446
92269W        W58678  11.260  41.009   2.786
92270W        W58679  30.962  33.648   4.533
92271W        W58680  42.863  20.130  14.931
92272W        W58681  28.249   6.686   0.783
92273W        W58682   7.747  40.258   5.081
92274W        W58683   5.342  22.263  12.482
92275W        W58684   7.700   0.210   0.453
92276W        W58685  20.618   0.984   3.332
92277W        W58686  30.387  43.507  13.621
92278W        W58687  26.458  31.226   4.593
92279W        W58688   4.832  40.877   1.747
92280W        W58689  35.062   1.945  10.934
92281W        W58690   4.697  40.279  14.989
92282W        W58691   6.171  29.097   0.662
92283W        W58692  44.125  10.436   0.557
92284W        W58693  30.428  37.823   5.032
92285W        W58694  24.155  18.082   3.215
92286W        W58695   7.933   1.508  10.913
92287W        W58696  25.743  40.320  11.976
92288W        W58697   9.878  30.931  12.965
92289W        W58698  28.372   9.568  12.403
92290W        W58699  32.866  35.969   3.872
92291W        W58700  20.456  38.024  12.647
92292W        W58701  20.162  40.279   0.807
92293W        W58702  23.664  27.515   2.152
92294W        W58703  27.634  30.924   2.971
92295W        W58704  16.628   0.356   3.914
92296W        W58705  36.738  15.543   2.412
92297W        W58706  18.615  34.201  11.101
92298W        W58707   7.024   4.589  12.434
92299W        W58708  19.183  24.074  12.829
92300W        W58709   5.480  29.149  11.099
92301W        W58710   2.345   2.559   3.835
92302W        W58711  19.221  26.205   3.991
92303W        W58712  26.947   1.720  12.059
92304W        W58713  37.885  11.033   4.661
92305W        W58714  43.988  22.960  13.561
92306W        W58715  26.472  33.027   3.632
92307W        W58716  39.370   2.960   4.549
92308W        W58717  31.864  26.161  11.377
92309W        W58718   2.642   7.014   0.272
92310W        W58719  21.315   3.431   5.083
92311W        W58720   6.216   1.936  13.874
92312W        W58721  23.295   0.158   0.426
92313W        W58722  25.550  32.108  12.912
92314W        W58723  39.919  27.372   1.946
92315W        W58724  41.965  28.681   4.587
92316W        W58725  34.949  40.389  11.240
92317W        W58726  21.054  34.779  14.937
92318W        W58727  41.442  12.057  11.589
92319W        W58728  30.101   0.894  11.522
92320W        W58729  33.156  31.125   1.392
92321W        W58730  23.575  36.060   3.630
92322W        W58731  10.729  26.949  11.700
92323W        W58732  22.611   0.339  13.558
92324W        W58733  40.763  17.907   3.104
92325W        W58734  32.475   2.249   1.448
92326W        W58735  38.978  42.459  12.690
92327W        W58736  37.146  44.271   4.052
92328W        W58737   4.393   3.744  13.849
92329W        W58738  11.670  30.622  12.814
92330W        W58739   7.463  12.713  14.962
92331W        W58740  12.328  34.488  14.060
92332W        W58741  33.716   7.733  12.143
92333W        W58742  14.103  30.909  12.530
92334W        W58743   6.956  17.816   1.266
92335W        W58744  35.410   6.846   4.113
92336W        W58745  34.680  24.295   3.360
92337W        W58746   6.741  21.964  13.003
92338W        W58747  37.838  23.408   3.103
92339W        W58748  38.843  30.487  12.089
92340W        W58749   6.952  43.795  13.379
92341W        W58750   8.833  31.190  14.343
92342W        W58751  41.573  11.227   4.565
92343W        W58752  37.406  11.594  12.995
92344W        W58753  40.176   0.853   0.877
92345W        W58754   8.428  33.989  13.408
92346W        W58755  38.112   2.208   4.634
92347W        W58756   4.356  17.843   3.208
92348W        W58757  37.491  22.739  13.524
92349W        W58758  20.257  29.060   1.848
92350W        W58759  13.973   8.929  14.445
92351W        W58760  42.559  17.766  12.844
92352W        W58761  11.944  41.971   4.714
92353W        W58762  40.311   3.672   2.893
92354W        W58763  32.466  31.591  12.981
92355W        W58764  18.215  19.976   1.804
92356W        W58765  44.366  25.941   1.995
92357W        W58766  33.052   9.402   0.585
92358W        W58767  43.609  19.563  13.914
92359W        W58768  38.393  30.697   4.788
92360W        W58769  43.862  31.156  12.049
92361W        W58770  37.496  37.557   3.137
92362W        W58771  39.250  30.264   4.916
92363W        W58772  34.992  24.421   4.266
92364W        W58773  23.428   4.372  11.218
92365W        W58774   0.936   2.854   2.948
92366W        W58775  18.375  24.236   4.613
92367W        W58776  38.496  42.763   1.380
92368W        W58777  22.458  13.199  14.589
92369W        W58778  37.991  39.064  13.435
92370W        W58779  20.673  31.307  14.296
92371W        W58780  28.231  13.996  14.529
92372W        W58781  12.488  14.662   3.860
92373W        W58782  32.282  34.404   3.297
92374W        W58783   8.658   2.738   4.600
92375W        W58784  41.832  11.452  13.574
92376W        W58785  36.086   8.916  10.812
92377W        W58786  13.210  13.735  10.457
92378W        W58787  38.450  32.375  14.847
92379W        W58788  16.203  38.359  10.173
92380W        W58789  10.918  27.405  10.921
92381W        W58790  25.090  16.784   2.215
92382W        W58791  25.983   6.603  11.468
92383W        W58792   4.827  42.382   1.861
92384W        W58793   6.049  30.897   1.510
92385W        W58794  23.850  34.431   2.331
92386W        W58795  29.938  39.066  11.994
92387W        W58796  23.137  11.141  13.528
92388W        W58797  26.612  40.279  11.695
92389W        W58798  17.599   5.093   4.029
92390W        W58799   7.821  35.144   1.266
92391W        W58800  44.659  33.175  10.705
92392W        W58801   4.755   3.410   1.540
92393W        W58802  38.294  43.710   1.284
92394W        W58803  14.153  32.130  14.774
92395W        W58804  20.501   4.183   4.597
92396W        W58805  17.063  38.384   3.332
92397W        W58806   5.860  12.418   4.566
92398W        W58807  22.175   2.925  12.876
92399W        W58808  17.372  35.079  14.727
92400W        W58809  32.682   6.897   9.747
92401W        W58810  43.306  21.321  11.096
92402W        W58811  19.653  38.154   3.638
92403W        W58812  41.001  43.064   1.292
92404W        W58813  30.984  31.331   4.128
92405W        W58814  43.846  42.216  11.689
92406W        W58815  30.964  42.157  11.444
92407W        W58816  15.098  26.616   2.349
92408W        W58817  11.992   5.664  13.554
92409W        W58818   7.774   7.026  13.521
92410W        W58819  17.955  41.136  14.405
92411W        W58820  33.179  17.778   3.084
92412W        W58821  26.892  38.936  11.527
92413W        W58822  21.988  25.334   4.022
92414W        W58823  25.557  26.622  11.730
92415W        W58824   6.033   8.290  14.085
92416W        W58825  43.881  36.564   0.723
92417W        W58826  23.228  12.253   0.756
92418W        W58827  31.245  30.950   0.814
92419W        W58828  43.932  15.185   3.864
92420W        W58829  31.370  16.551  14.457
92421W        W58830   2.375  44.927  11.366
92422W        W58831  28.357   4.797  10.516
92423W        W58832   4.782  42.365  12.892
92424W        W58833  17.987  19.793   0.846
92425W        W58834  44.577  30.419   0.582
92426W        W58835  37.383   6.970  13.065
92427W        W58836  35.337  32.845  14.572
92428W        W58837   7.458  25.061  12.514
92429W        W58838  25.689  34.969  12.523
92430W        W58839  13.702   7.045   2.670
92431W        W58840  26.882   3.835   0.069
92432W        W58841  17.718  11.222   4.821
92433W        W58842   3.173   8.181   4.631
92434W        W58843  14.968  36.590  10.276
92435W        W58844  23.550   2.322  13.959
92436W        W58845  29.393  15.202   2.160
92437W        W58846  37.802  32.013   4.095
92438W        W58847  23.752   3.702  11.991
92439W        W58848   9.723   5.937  13.977
92440W        W58849  15.133  25.280   4.994
92441W        W58850  19.285  15.281  11.637
92442W        W58851  39.839  26.162  12.558
92443W        W58852   6.867   8.560   2.662
92444W        W58853  25.029   8.349  14.583
92445W        W58854   9.979  23.940  11.835
92446W        W58855  37.722   7.768   3.268
92447W        W58856   2.299  19.041  13.232
92448W        W58857  16.585  29.803   1.593
92449W        W58858  30.857  30.215  10.432
92450W        W58859  18.173  21.248  12.547
92451W        W58860   4.890  28.032   1.378
92452W        W58861  43.727  28.241   4.025
92453W        W58862  23.664  24.344  11.502
92454W        W58863  39.866  31.464   4.595
92455W        W58864   7.274  10.422   3.822
92456W        W58865  10.102  30.985   1.401
92457W        W58866  32.558   3.843   2.709
92458W        W58867   7.801  19.222   1.389
92459W        W58868  13.200  37.930   0.585
92460W        W58869  44.013   4.026  14.975
92461W        W58870   5.354  10.683  10.550
92462W        W58871   2.893  18.075   3.819
92463W        W58872  22.698  12.697  12.888
92464W        W58873  13.166  16.708   2.623
92465W        W58874  38.862   1.782   4.552
92466W        W58875  37.194   0.301   1.741
92467W        W58876  35.297  41.506   4.859
92468W        W58877  11.368  39.418   2.792
92469W        W58878  28.957  35.115  14.508
92470W        W58879  13.094   7.923   4.502
92471W        W58880   9.766  40.706   4.374
92472W        W58881  42.742  12.679   0.335
92473W        W58882  11.261  33.074  11.637
92474W        W58883  35.368  33.096   3.653
92475W        W58884   2.826  12.512   3.647
92476W        W58885  36.359  30.929  14.963
92477W        W58886   9.589   4.761   1.177
92478W        W58887  25.731  44.985   3.656
92479W        W58888  19.266  37.259   1.630
92480W        W58889  14.838   3.709  13.363
92481W        W58890  36.428  31.436  14.823
92482W        W58891  16.419  10.065  12.496
92483W        W58892   4.864  18.075  12.414
92484W        W58893  16.025  38.484  12.390
92485W        W58894   3.300  15.574   0.289
92486W        W58895  14.693  20.017  14.370
92487W        W58896  30.118  19.104   2.278
92488W        W58897   4.704  38.424  14.795
92489W        W58898   1.945  23.658  14.539
92490W        W58899  35.564  39.922  12.963
92491W        W58900   0.670  32.041  13.433
92492W        W58901  17.077   3.320   1.349
92493W        W58902  41.819   0.326   0.008
92494W        W58903  43.918   8.660   1.342
92495W        W58904   9.170  20.512  11.570
92496W        W58905  26.472  12.204   2.874
92497W        W58906   5.757  17.420   4.756
92498W        W58907  41.767  26.152   4.601
92499W        W58908  11.676   0.100  13.856
92500W        W58909   5.048  39.966  10.630
92501W        W58910  28.698  18.371   0.894
92502W        W58911  31.885  43.723   4.674
92503W        W58912  18.078   8.804   2.495
92504W        W58913  29.003  10.252  14.875
92505W        W58914  18.197  27.658  10.596
92506W        W58915  12.704  42.197  10.312
92507W        W58916  17.348  43.993   4.551
92508W        W58917   1.212  27.855   1.549
92509W        W58918   6.916  25.391   4.945
92510W        W58919  18.198  32.033   3.271
92511W        W58920  19.275   5.772   1.716
92512W        W58921   1.981  21.775   3.031
92513W        W58922  15.295  20.986   0.195
92514W        W58923   7.991  16.391  11.400
92515W        W58924   1.335  37.481  11.077
92516W        W58925  13.733  22.361  10.805
92517W        W58926  42.052   2.314   4.597
92518W        W58927  31.622   7.790  12.005
92519W        W58928  17.977  32.448  13.194
92520W        W58929   2.076  23.882   3.744
92521W        W58930  11.052  39.593   0.459
92522W        W58931  31.357  26.580  13.868
92523W        W58932  36.218  30.221   2.683
92524W        W58933  33.650  41.446   3.816
92525W        W58934  31.174   7.940  14.968
92526W        W58935  11.236   2.967   2.472
92527W        W58936  35.878  31.679   4.039
92528W        W58937  35.522   2.681   0.312
92529W        W58938  13.611  39.810   3.095
92530W        W58939  34.337  36.081   3.873
92531W        W58940  31.562  40.064   1.347
92532W        W58941  37.206  37.140   3.338
92533W        W58942  10.152  35.630  13.922
92534W        W58943  27.661  18.585   0.883
92535W        W58944   7.431   0.078  10.374
92536W        W58945  37.451  36.005   1.583
92537W        W58946  35.352   1.681  11.950
92538W        W58947   8.626  32.097   0.437
92539W        W58948  27.032  13.695   0.820
92540W        W58949  25.324  36.881   0.888
92541W        W58950  20.443  32.597  11.137
92542W        W58951  39.467  36.985   3.830
92543W        W58952   5.448  37.868   2.825
92544W        W58953   0.417  35.835  11.238
92545W        W58954   3.509  19.539   0.381
92546W        W58955   6.681  17.753  11.993
92547W        W58956   5.345  20.743   4.736
92548W        W58957  33.453  41.387   1.458
92549W        W58958  31.567   6.777   4.324
92550W        W58959  40.286  10.870  12.990
92551W        W58960   5.267  18.480  11.057
92552W        W58961  36.858  34.043  14.373
92553W        W58962  41.138  10.728  14.886
92554W        W58963   6.214  14.100  11.140
92555W        W58964   9.225  39.646   2.853
92556W        W58965  15.644  11.563  14.830
92557W        W58966  22.064  24.137  13.596
92558W        W58967   1.472   0.455  13.130
92559W        W58968  17.729  42.690  12.058
92560W        W58969  44.259  27.668   4.608
92561W        W58970   3.854  25.692  11.461
92562W        W58971  26.509  24.661   0.586
92563W        W58972  37.079  11.104  13.870
92564W        W58973  44.246  40.603   2.791
92565W        W58974  35.647   3.759   4.103
92566W        W58975   4.634  31.806  11.074
92567W        W58976  39.913  21.726  11.050
92568W        W58977  39.872  30.607  11.258
92569W        W58978  43.935  41.638   1.813
92570W        W58979  27.057  12.669   2.385
92571W        W58980  12.181  28.116  13.571
92572W        W58981  20.468  38.026  14.862
92573W        W58982   4.401  19.645   1.288
92574W        W58983   3.013  10.189  14.796
92575W        W58984  39.947  17.851   1.426
92576W        W58985   0.944  36.853   1.747
92577W        W58986  19.428  37.193   2.866
92578W        W58987  18.627  19.636  10.743
92579W        W58988  17.228  40.164  13.169
92580W        W58989   4.936  39.486   3.073
92581W        W58990  18.700  11.039  13.787
92582W        W58991   2.311  39.550  14.676
92583W        W58992  41.061  26.355  12.796
92584W        W58993  26.707  17.578   0.993
92585W        W58994  40.213  30.690   3.576
92586W        W58995  13.682  34.611   4.179
92587W        W58996  28.754  36.421  12.518
92588W        W58997   7.626   1.914  14.946
92589W        W58998   3.972  41.273  14.748
92590W        W58999  40.369  20.625  11.653
92591W        W59000  41.900  17.223   0.807
92592W        W59001  16.655  31.193   2.513
92593W        W59002  12.207   2.104  12.530
92594W        W59003  28.749  13.122  14.393
92595W        W59004  18.132  34.890  13.360
92596W        W59005  19.233  30.433  12.097
92597W        W59006  35.085  13.333  14.593
92598W        W59007  28.544  10.904   1.625
92599W        W59008  16.231  22.909  14.926
92600W        W59009  32.828  40.979   2.383
92601W        W59010  14.551  30.978   1.799
92602W        W59011  16.491  30.922  14.393
92603W        W59012  41.773  36.530  14.296
92604W        W59013  17.147  27.958  12.535
92605W        W59014  27.590  36.416  11.585
92606W        W59015  15.221  36.290  13.958
92607W        W59016  21.648  13.697   1.136
92608W        W59017   0.497  22.748  12.183
92609W        W59018  12.850   4.688  13.048
92610W        W59019   2.191  20.553  10.781
92611W        W59020  41.511  19.752   0.690
92612W        W59021  42.397  28.251  13.356
92613W        W59022  29.472  35.178   0.215
92614W        W59023  34.522   5.313   0.504
92615W        W59024  17.085  22.366  10.375
92616W        W59025  34.844  33.481  12.393
92617W        W59026   2.383  31.585  13.324
92618W        W59027  40.304  10.774  14.409
92619W        W59028  33.979  14.259   4.353
92620W        W59029   9.380  44.043   2.769
92621W        W59030  10.300   1.167  12.633
92622W        W59031  24.709  16.229   1.105
92623W        W59032  27.177   4.800   1.300
92624W        W59033  26.658  16.148   1.470
92625W        W59034   0.172  42.246  11.559
92626W        W59035  19.025  41.406  11.653
92627W        W59036  14.774  22.158   2.714
92628W        W59037  36.113   2.252  13.974
92629W        W59038  13.544  32.709   5.533
92630W        W59039   1.349  41.468   4.887
92631W        W59040  19.311  36.371   0.471
92632W        W59041  10.594  39.924   1.801
92633W        W59042   1.414   6.928  14.951
92634W        W59043  33.054  28.619  14.685
92635W        W59044   2.725  12.721   0.962
92636W        W59045  41.275  41.776  12.687
92637W        W59046   1.658  17.641  11.245
92638W        W59047  16.041  18.896   2.672
92639W        W59048  25.229  28.946  14.892
92640W        W59049  22.278  38.832   4.345
92641W        W59050  32.749  35.357   2.282
92642W        W59051  26.205  40.896   0.902
92643W        W59052  20.252  33.029  14.416
92644W        W59053  17.472  37.079  13.290
92645W        W59054  34.385   1.868   3.112
92646W        W59055  18.098  14.043  14.544
92647W        W59056  17.165  15.965   2.225
92648W        W59057  24.238  43.908  14.928
92649W        W59058   0.536  40.345   1.447
92650W        W59059   2.534  38.897   9.715
92651W        W59060   0.748  33.573   1.845
92652W        W59061  29.285  19.581   3.173
92653W        W59062  21.071  32.120  10.270
92654W        W59063  42.200  33.404  10.541
92655W        W59064  19.181  26.969  13.907
92656W        W59065  41.839  42.827   2.734
92657W        W59066  37.180  40.977   3.925
92658W        W59067  35.966  22.571   2.169
92659W        W59068   2.971   5.885  10.679
92660W        W59069  24.035  30.376   3.278
92661W        W59070  26.662   5.294  12.868
92662W        W59071   2.218  32.920   2.961
92663W        W59072  12.364  41.881   1.833
92664W        W59073  27.509  16.010   1.335
92665W        W59074  31.447  35.033   0.852
92666W        W59075   9.489  12.289  11.986
92667W        W59076  27.727  19.291   1.391
92668W        W59077  43.849  27.906   3.305
92669W        W59078  34.598  20.676   0.997
92670W        W59079  31.579  21.983  12.115
92671W        W59080  19.098  17.387   4.061
92672W        W59081   8.355  44.860  11.298
92673W        W59082  21.589  15.305   1.731
92674W        W59083  31.555  31.600   4.886
92675W        W59084  38.340  19.000  14.990
92676W        W59085  35.911   3.570  10.080
92677W        W59086  42.517  10.879  13.419
92678W        W59087  42.929   6.042  14.222
92679W        W59088  41.053  38.898  12.793
92680W        W59089  21.901   0.818  13.849
92681W        W59090  23.245  18.534   2.212
92682W        W59091  16.273  35.532  10.747
92683W        W59092  33.404   5.409   2.899
92684W        W59093  29.176  34.672  13.270
92685W        W59094   7.548   8.226  14.410
92686W        W59095  41.770  29.171  12.114
92687W        W59096   7.976  23.976   3.982
92688W        W59097  11.321  10.255   3.476
92689W        W59098  16.235  37.521   3.679
92690W        W59099  29.005  24.079   4.064
92691W        W59100   4.142  29.451   4.576
92692W        W59101  10.900  25.511   0.796
92693W        W59102  38.078  17.325  14.366
92694W        W59103  39.460  22.125   3.445
92695W        W59104  11.335   0.598  13.412
92696W        W59105  15.792  14.662  14.080
92697W        W59106  44.378  13.894   4.189
92698W        W59107   7.937  10.722  12.541
92699W        W59108   1.596   5.386  13.893
92700W        W59109  36.848   8.887   4.599
92701W        W59110   2.761  35.952  13.582
92702W        W59111  15.183  23.251   2.194
92703W        W59112  20.982  32.372   2.669
92704W        W59113  21.892   4.263   4.990
92705W        W59114  23.316  44.361   4.651
92706W        W59115  16.249   2.857   4.571
92707W        W59116  15.530  38.231  10.446
92708W        W59117  20.614  26.588   2.406
92709W        W59118   7.825  43.972  14.480
92710W        W59119  40.735  24.552   4.134
92711W        W59120  23.950   6.879  10.438
92712W        W59121  36.796  38.419  13.345
92713W        W59122  34.845  41.266   3.166
92714W        W59123   5.165  10.555   3.774
92715W        W59124  23.527   4.390   0.470
92716W        W59125  33.220  34.985   1.044
92717W        W59126  36.855  33.574   1.780
92718W        W59127  24.728   7.992   4.391
92719W        W59128  28.188  10.622   2.411
92720W        W59129   7.661  38.850  13.986
92721W        W59130  27.879   6.556  12.422
92722W        W59131  18.092  26.043  12.230
92723W        W59132  44.778  43.683  11.088
92724W        W59133   6.458  11.202  13.450
92725W        W59134  14.635  32.412   3.847
92726W        W59135  37.464  44.464   1.325
92727W        W59136   9.601  41.817  12.904
92728W        W59137  26.815  11.799  14.341
92729W        W59138  20.541  12.498  13.555
92730W        W59139  15.361  21.083   1.566
92731W        W59140  34.851  11.187  13.788
92732W        W59141  37.394  14.746   0.533
92733W        W59142  17.498  40.248  13.902
92734W        W59143  12.197  13.687   3.573
92735W        W59144  28.471  17.514   1.871
92736W        W59145  33.633  19.054   4.028
92737W        W59146  37.553  18.105   0.855
92738W        W59147  44.982  10.191  11.158
92739W        W59148  12.624  22.486  13.877
92740W        W59149  27.120  17.803  10.680
92741W        W59150  32.035  19.087  14.972
92742W        W59151  42.353  21.972  12.602
92743W        W59152  15.013   1.652   2.242
92744W        W59153   1.348  31.422  10.858
92745W        W59154   3.719   8.512  13.927
92746W        W59155  11.062  19.989  12.398
92747W        W59156  42.329  24.957   1.941
92748W        W59157  37.820   1.847   3.302
92749W        W59158  19.677  13.270   4.656
92750W        W59159   7.130   0.980  12.291
92751W        W59160  21.242  40.843   3.341
92752W        W59161   8.396  37.113  13.073
92753W        W59162  24.504  39.057   0.772
92754W        W59163   5.896   5.647   4.954
92755W        W59164  29.727  27.361  14.976
92756W        W59165  33.757  41.896   2.194
92757W        W59166  22.147   4.288  10.469
92758W        W59167  31.128  25.391  11.844
92759W        W59168  31.948   5.536  14.822
92760W        W59169   3.351   5.917  14.201
92761W        W59170  13.171   0.809  14.950
92762W        W59171  36.851  23.148  11.605
92763W        W59172   3.887   5.964   0.608
92764W        W59173   4.299  41.807  11.954
92765W        W59174   7.933   5.915  11.528
92766W        W59175  27.026  42.293   1.869
92767W        W59176  19.572   8.788   3.697
92768W        W59177  38.828  44.080   4.611
92769W        W59178  29.997  14.207  12.630
92770W        W59179  44.831  38.975  10.472
92771W        W59180  44.894  29.604   1.419
92772W        W59181  42.297  30.228  12.526
92773W        W59182   0.453  31.127  12.547
92774W        W59183  32.464  39.401   2.767
92775W        W59184  28.744  19.897  14.951
92776W        W59185  31.106   9.794   2.757
92777W        W59186  43.727   4.903  11.394
92778W        W59187   1.724  40.467  10.749
92779W        W59188   1.225  33.441  14.865
92780W        W59189  30.744  15.250   4.067
92781W        W59190  14.709  17.784  14.397
92782W        W59191  41.791  28.468  10.797
92783W        W59192  25.105  44.327   3.877
92784W        W59193   7.148  16.194   4.113
92785W        W59194  18.560   0.664   4.696
92786W        W59195   9.184  13.093   1.752
92787W        W59196  34.008  29.150  12.424
92788W        W59197  38.998  14.370   2.819
92789W        W59198  35.472  29.835  12.929
92790W        W59199  30.509   9.585   1.013
92791W        W59200  29.246  33.465  14.926
92792W        W59201  14.157  26.027   4.155
92793W        W59202  25.030  31.943   4.638
92794W        W59203  14.820   8.934   2.452
92795W        W59204   7.628   9.620  14.957
92796W        W59205  29.767  31.849   1.248
92797W        W59206  31.814  29.581  14.751
92798W        W59207   1.199   4.202  14.399
92799W        W59208  11.768  41.535  13.188
92800W        W59209   6.953  30.214   0.474
92801W        W59210  10.370  36.555   4.634
92802W        W59211  25.174  35.093   1.364
92803W        W59212  25.199  20.096  11.583
92804W        W59213   1.552  34.564  12.940
92805W        W59214  12.283   4.191  14.267
92806W        W59215  36.635  24.302   3.347
92807W        W59216  43.487   7.623   2.220
92808W        W59217  19.767  20.560   1.224
92809W        W59218   8.351  28.559  12.193
92810W        W59219  10.323  13.297   3.145
92811W        W59220  32.496  19.183   2.730
92812W        W59221  10.823  33.600   0.858
92813W        W59222   5.630  18.321  14.077
92814W        W59223  28.568  21.854  12.668
92815W        W59224  11.926  33.541   2.437
92816W        W59225   6.003  20.802  13.825
92817W        W59226  25.344  24.791  11.074
92818W        W59227  39.509  33.548   2.406
92819W        W59228  22.211  18.049   2.409
92820W        W59229  28.188   6.303   3.793
92821W        W59230  24.771  26.782   5.049
92822W        W59231   6.030  25.128   0.262
92823W        W59232  33.162  28.010  14.010
92824W        W59233  35.395  21.172   4.447
92825W        W59234  14.653  26.550   1.036
92826W        W59235   1.475  10.254   0.535
92827W        W59236  44.578   6.382   0.847
92828W        W59237  30.946   8.269   0.508
92829W        W59238   4.855  29.506  11.452
92830W        W59239  36.248  29.466  10.657
92831W        W59240  24.172  37.060   2.271
92832W        W59241   0.034  34.743   1.770
92833W        W59242  44.000  42.967  13.805
92834W        W59243  14.610   8.411  11.633
92835W        W59244  23.212  10.926  13.998
92836W        W59245  33.081  29.390   3.477
92837W        W59246  32.459  36.023  13.296
92838W        W59247  40.546   1.437  12.903
92839W        W59248  28.115  20.113  13.077
92840W        W59249   9.709  29.722   1.635
92841W        W59250  41.262  24.674  12.172
92842W        W59251   1.202   3.753  11.159
92843W        W59252  14.270  33.922  12.597
92844W        W59253  41.074  14.879  13.561
92845W        W59254  24.636  22.072   3.164
92846W        W59255  20.638  23.724  13.391
92847W        W59256  23.922  23.110   1.675
92848W        W59257  25.274  20.631   4.662
92849W        W59258   3.359   2.706   1.745
92850W        W59259  10.202   4.766   0.076
92851W        W59260  37.511  26.697  14.744
92852W        W59261   3.144  26.182   4.685
92853W        W59262  16.114  28.445  13.918
92854W        W59263  20.124  37.201  13.428
92855W        W59264  42.113  17.139  13.426
92856W        W59265  10.891  13.455   1.930
92857W        W59266  31.037  19.551  12.383
92858W        W59267   0.378  35.071   1.547
92859W        W59268  11.265  21.616  13.252
92860W        W59269   9.564  23.393  12.025
92861W        W59270  26.087  21.633   0.849
92862W        W59271  33.899  22.634   0.785
92863W        W59272  13.276  28.615   1.563
92864W        W59273   2.904   3.802   1.645
92865W        W59274  12.202  28.546   2.444
92866W        W59275  31.974  37.341   5.089
92867W        W59276  10.230  29.504   4.522
92868W        W59277  12.068  25.937  14.876
92869W        W59278  21.802  42.048   1.374
92870W        W59279  42.075  43.538   2.841
92871W        W59280  23.250   1.009  12.663
92872W        W59281  26.468  36.164  10.236
92873W        W59282  22.646   3.531  12.963
92874W        W59283   3.280  18.093  12.516
92875W        W59284  11.248  23.944   3.310
92876W        W59285  11.271  36.555  11.857
92877W        W59286  32.999  23.201  12.708
92878W        W59287   3.704  33.025   3.165
92879W        W59288   5.243  15.439  11.559
92880W        W59289  31.043   8.321  10.498
92881W        W59290  41.492  34.478   1.874
92882W        W59291   7.882  40.021  13.511
92883W        W59292  35.826  44.815  11.502
92884W        W59293  29.852  17.712   4.816
92885W        W59294  32.625  32.529  14.843
92886W        W59295  21.834  23.972   4.366
92887W        W59296  10.753   5.062   3.615
92888W        W59297   4.101   1.434  10.982
92889W        W59298   6.069  18.557   0.249
92890W        W59299  38.603  44.439  13.978
92891W        W59300  44.982  11.353  14.814
92892W        W59301  41.509  24.188   2.207
92893W        W59302  20.032  42.083  13.837
92894W        W59303   6.484  33.128  11.640
92895W        W59304   9.156   8.477  11.848
92896W        W59305  43.067  24.250   4.057
92897W        W59306  10.304   3.014  12.394
92898W        W59307  31.459   3.531   3.158
92899W        W59308  23.611  34.889  12.454
92900W        W59309  27.839   3.891  14.753
92901W        W59310  36.954  21.206   1.868
92902W        W59311  29.664  33.018   1.556
92903W        W59312  35.945  13.263   1.965
92904W        W59313  19.013  31.171   0.751
92905W        W59314  11.644  38.854   3.202
92906W        W59315  19.959  38.008  14.856
92907W        W59316  43.509   0.923   1.334
92908W        W59317  10.292  24.841   3.198
92909W        W59318  16.337  22.355   3.184
92910W        W59319  26.522  24.406  10.666
92911W        W59320  17.783  21.084   3.322
92912W        W59321   6.477  16.663  13.552
92913W        W59322  31.892  11.295   4.996
92914W        W59323  29.792   3.284   1.700
92915W        W59324   6.675  23.121   4.525
92916W        W59325  30.547  27.030   0.903
92917W        W59326  11.633  43.106  11.626
92918W        W59327  44.578  44.550  14.036
92919W        W59328  44.100  18.121   1.621
92920W        W59329   6.430  22.166  11.693
92921W        W59330  12.532   5.027   4.369
92922W        W59331   6.653  22.632  12.662
92923W        W59332  13.389  35.482  11.531
92924W        W59333  39.782  36.338  13.770
92925W        W59334  17.291   0.988  12.420
92926W        W59335  28.128  32.622   4.164
92927W        W59336  13.568  39.493  11.995
92928W        W59337  37.422  29.435   4.253
92929W        W59338   3.546  33.629  11.664
92930W        W59339  43.500  22.792   2.482
92931W        W59340   2.252   0.314  13.524
92932W        W59341   2.469  30.393   5.011
92933W        W59342  39.108  39.119   4.981
92934W        W59343  18.043  38.523  13.005
92935W        W59344  43.676   6.174  10.974
92936W        W59345  14.566  37.598  12.514
92937W        W59346   4.009  23.154  10.287
92938W        W59347   7.915   5.574   4.494
92939W        W59348  17.861  19.732   3.372
92940W        W59349  30.767  26.259   2.759
92941W        W59350  29.785  36.071   3.207
92942W        W59351   1.947  25.459  13.524
92943W        W59352  15.617  44.405   1.688
92944W        W59353   1.992   0.822  12.000
92945W        W59354  33.337  24.097   3.594
92946W        W59355  36.850  42.580   3.312
92947W        W59356  11.200   7.687  13.941
92948W        W59357  12.433  15.117  11.850
92949W        W59358   8.646   0.978   3.746
92950W        W59359  39.951   5.768  12.932
92951W        W59360  14.582  13.861  14.219
92952W        W59361   3.359  17.162   0.450
92953W        W59362   7.655  21.618   4.655
92954W        W59363  42.020  12.099  14.441
92955W        W59364  38.757  10.881  11.015
92956W        W59365  21.890  21.424   9.907
92957W        W59366  37.288  30.979   2.329
92958W        W59367  29.662  32.144  13.882
92959W        W59368  31.864  24.428  12.862
92960W        W59369  16.545  41.736   3.667
92961W        W59370  35.801  33.997  10.969
92962W        W59371  32.544  21.459   4.172
92963W        W59372   3.612   8.299  12.563
92964W        W59373  44.060  13.517   2.192
92965W        W59374  43.259  38.211  12.145
92966W        W59375  36.583  42.801   1.273
92967W        W59376  22.176  14.220  12.950
92968W        W59377  43.515  42.801  13.627
92969W        W59378   8.808   2.127  12.004
92970W        W59379  38.784  34.841  12.834
92971W        W59380  12.592   8.830   1.041
92972W        W59381  23.915   9.869   1.376
92973W        W59382  43.972   0.947   4.185
92974W        W59383  34.382  30.532  13.417
92975W        W59384  25.692  18.169  11.677
92976W        W59385  31.207  26.891  11.053
92977W        W59386  37.930  18.748  14.795
92978W        W59387   8.172  24.217   1.061
92979W        W59388  14.471  32.646  12.858
92980W        W59389  13.768  38.313   1.765
92981W        W59390  29.997  10.414  10.600
92982W        W59391   5.811  28.654  10.723
92983W        W59392  25.375   3.483  13.616
92984W        W59393  22.487  35.931  12.909
92985W        W59394   2.531  39.414  11.178
92986W        W59395  36.588  10.335   2.100
92987W        W59396  36.318  13.752   3.156
92988W        W59397  33.949   2.752   2.772
92989W        W59398  14.257   2.010  11.009
92990W        W59399  10.795  39.884   3.602
92991W        W59400  44.233  24.931  11.501
92992W        W59401  35.239  38.968  11.104
92993W        W59402  12.439  26.567   4.580
92994W        W59403  20.151   0.577  14.315
92995W        W59404   6.595  26.539   2.399
92996W        W59405  34.502   8.179  14.002
92997W        W59406  22.072  30.030  14.527
92998W        W59407  22.091  23.760   5.443
92999W        W59408  20.484   1.619  11.886
93000W        W59409  10.153  11.421  13.765
93001W        W59410   6.528  37.587   1.059
93002W        W59411  11.876   4.715   3.659
93003W        W59412  13.140  16.940   5.364
93004W        W59413  44.662  30.835   3.773
93005W        W59414  20.093  24.107   3.884
93006W        W59415   0.575  29.719  14.399
93007W        W59416  36.710   7.481   2.448
93008W        W59417  25.691   6.420  13.871
93009W        W59418  39.862   3.447   2.802
93010W        W59419  37.356  21.208  13.544
93011W        W59420  43.004  20.839   1.441
93012W        W59421  12.623   5.653  11.345
93013W        W59422  42.416   4.430  11.000
93014W        W59423  17.822   6.851   4.631
93015W        W59424  24.908  10.204  10.795
93016W        W59425   3.469  30.586  14.537
93017W        W59426  15.213  22.768   0.061
93018W        W59427  15.687   5.434   2.294
93019W        W59428  15.227   6.860   2.613
93020W        W59429  35.933   6.118  14.775
93021W        W59430  32.605  39.278  14.533
93022W        W59431  36.486  42.142  12.011
93023W        W59432  40.829   3.425  11.210
93024W        W59433  15.662  20.565   1.778
93025W        W59434   3.340  34.090  11.626
93026W        W59435  43.456  27.673   0.031
93027W        W59436  27.537  25.701   2.313
93028W        W59437   0.273  11.837  12.539
93029W        W59438  10.344  20.982   3.268
93030W        W59439  13.507  34.563   3.231
93031W        W59440  13.424  17.500   3.166
93032W        W59441   0.020  10.839  10.303
93033W        W59442   5.418  41.147  12.097
93034W        W59443   7.663  27.921  13.132
93035W        W59444  10.070  21.099   0.204
93036W        W59445  23.585  32.020  13.376
93037W        W59446  36.842  29.405  12.228
93038W        W59447  18.270   9.652  11.778
93039W        W59448  10.032  33.370   3.978
93040W        W59449  15.639  39.796  12.441
93041W        W59450  38.567  44.051   0.901
93042W        W59451  29.229  22.121  11.970
93043W        W59452  22.085  35.883  11.306
93044W        W59453  22.786  17.574  13.043
93045W        W59454  18.539  24.430  12.329
93046W        W59455   2.968  20.629  12.204
93047W        W59456   5.966  43.830  12.407
93048W        W59457   8.751   0.585   2.200
93049W        W59458   0.016  20.559   0.964
93050W        W59459  17.588  26.644   4.599
93051W        W59460  32.178  33.798  12.228
93052W        W59461  36.666   7.307   1.902
93053W        W59462  40.776  44.574   1.712
93054W        W59463  41.027  33.903  12.595
93055W        W59464  17.429  24.124   4.153
93056W        W59465  15.701  28.085   0.146
93057W        W59466  39.103   5.779  14.967
93058W        W59467  32.880  26.016  12.126
93059W        W59468  14.563  34.461   3.675
93060W        W59469  40.513  35.557  11.532
93061W        W59470  11.830  20.538  11.566
93062W        W59471  35.572   6.054   2.400
93063W        W59472  39.251  44.500  13.425
93064W        W59473  14.778  18.348  12.507
93065W        W59474  24.321   9.347  14.789
93066W        W59475  18.575  34.662  14.441
93067W        W59476  39.418   0.381  12.947
93068W        W59477  23.283  44.388   1.238
93069W        W59478  19.078  17.065   3.213
93070W        W59479  44.923  31.631   0.726
93071W        W59480   1.680   6.587   4.984
93072W        W59481  37.102  41.972   3.974
93073W        W59482  35.914   4.700   5.036
93074W        W59483  21.486  23.759   1.188
93075W        W59484  42.928  13.627  12.681
93076W        W59485  27.503  34.983   3.378
93077W        W59486  31.663  43.662  11.479
93078W        W59487  36.600  33.839   2.328
93079W        W59488  42.994   7.445  12.634
93080W        W59489  11.772  16.693  14.521
93081W        W59490  13.359  19.768   2.218
93082W        W59491   4.905   0.691  11.159
93083W        W59492  16.361  17.360   0.840
93084W        W59493   2.978  29.493  14.448
93085W        W59494   0.944  25.193   4.652
93086W        W59495  31.565  18.509  10.951
93087W        W59496  35.338  28.510   1.572
93088W        W59497  43.860  14.602  11.091
93089W        W59498  15.116  36.898   1.641
93090W        W59499  34.043  31.409  12.157
93091W        W59500  29.269  15.129  11.912
93092W        W59501   0.275  13.696  11.559
93093W        W59502  20.503  23.956   1.462
93094W        W59503  21.063  18.101  13.609
93095W        W59504  41.319  21.039  13.852
93096W        W59505  44.516  35.528   3.318
93097W        W59506  20.486   9.213   1.450
93098W        W59507  43.050  22.059  12.114
93099W        W59508   4.128  24.175   9.849
93100W        W59509  19.508   3.767  13.101
93101W        W59510  27.511  26.318  13.555
93102W        W59511  30.402   3.739   1.398
93103W        W59512  12.109  15.888   4.110
93104W        W59513   3.782  33.576   0.142
93105W        W59514  10.616  16.808  13.008
93106W        W59515   4.985   7.246  12.388
93107W        W59516  15.278   1.776  13.628
93108W        W59517  44.575   8.288   4.561
93109W        W59518  39.405  12.754   2.773
93110W        W59519  41.397   7.421   3.767
93111W        W59520  11.203  35.598   0.306
93112W        W59521   0.958  18.352   1.368
93113W        W59522  10.541  44.184  12.538
93114W        W59523  34.679  24.631   2.946
93115W        W59524   1.312  37.948   3.510
93116W        W59525  12.734  12.140  14.468
93117W        W59526  20.673  40.742  11.486
93118W        W59527  15.016  13.914  11.154
93119W        W59528  35.094  39.553  13.403
93120W        W59529  27.779  21.560  11.617
93121W        W59530  18.131  29.348  12.971
93122W        W59531  40.480  35.587  14.506
93123W        W59532  26.625  18.441  14.136
93124W        W59533  10.871  16.555  14.386
93125W        W59534  23.791  34.959   0.122
93126W        W59535  13.179  36.323   2.193
93127W        W59536  32.453  18.029  14.100
93128W        W59537  20.216  40.040  14.315
93129W        W59538  22.700  13.763   1.345
93130W        W59539  25.195   4.814   4.107
93131W        W59540  30.578  28.894  11.967
93132W        W59541  10.343  20.530   0.948
93133W        W59542  24.743  32.269  13.472
93134W        W59543  11.902   1.688   0.783
93135W        W59544  31.845  14.285   0.557
93136W        W59545  18.648  33.552   4.245
93137W        W59546  21.766  37.044  13.481
93138W        W59547   1.181  34.046  13.471
93139W        W59548  23.688  21.333   0.881
93140W        W59549   4.104  31.315  11.171
93141W        W59550  26.082  17.891   4.626
93142W        W59551  26.462  41.295   4.645
93143W        W59552   5.813  33.365  14.404
93144W        W59553  24.984   9.122   9.791
93145W        W59554  24.424  31.849  13.463
93146W        W59555  38.389  17.211  12.559
93147W        W59556  33.740  12.696   1.442
93148W        W59557  37.196  40.188   3.600
93149W        W59558  41.486  15.157  10.755
93150W        W59559  10.085  37.442   3.043
93151W        W59560  30.812  25.044   2.241
93152W        W59561  17.422  21.274   2.569
93153W        W59562  24.087  26.509  11.873
93154W        W59563  43.771  31.416  13.070
93155W        W59564  14.184  42.742   1.211
93156W        W59565  22.109   6.926  14.140
93157W        W59566  13.823  33.575   1.703
93158W        W59567   4.165  27.659  10.785
93159W        W59568   2.897  17.326   2.749
93160W        W59569  12.250   2.987   4.077
93161W        W59570   3.346  19.686   2.698
93162W        W59571   3.776  19.341   4.183
93163W        W59572  35.185  26.946  13.039
93164W        W59573  29.240  28.670  11.630
93165W        W59574  37.492  18.228   1.368
93166W        W59575  19.100  43.470  13.216
93167W        W59576  17.585  23.587   4.199
93168W        W59577  32.838  39.290   4.572
93169W        W59578  24.322   3.027   4.254
93170W        W59579  11.657  26.324   5.006
93171W        W59580  12.074  38.582   0.702
93172W        W59581   1.412  16.192  14.364
93173W        W59582   5.279  11.141   2.118
93174W        W59583  24.868   4.254   1.448
93175W        W59584  40.356   3.394   2.468
93176W        W59585  23.759  35.285   3.308
93177W        W59586  44.583  27.577   3.854
93178W        W59587  20.301  36.810   2.286
93179W        W59588   7.895   1.526  13.061
93180W        W59589   6.131   2.986   2.263
93181W        W59590  28.438  27.952  12.798
93182W        W59591  15.598  36.483  13.651
93183W        W59592  13.828  11.719   3.311
93184W        W59593  27.690  43.735  13.017
93185W        W59594   0.020  40.781  12.603
93186W        W59595  11.752  29.893   0.198
93187W        W59596   2.165  15.733   1.540
93188W        W59597  38.887  15.532  11.150
93189W        W59598  20.026  41.862  10.969
93190W        W59599   2.021  18.633   1.669
93191W        W59600   6.512  30.071  11.168
93192W        W59601  14.023  30.769  10.851
93193W        W59602   9.844  18.120  13.228
93194W        W59603  38.809  36.323  14.053
93195W        W59604   8.668  18.710  13.505
93196W        W59605  16.132  25.607  13.415
93197W        W59606  43.416  29.410  10.785
93198W        W59607  19.655  26.006  12.566
93199W        W59608  30.096  18.394  14.059
93200W        W59609  19.551  23.057   4.714
93201W        W59610   0.190  35.177   2.036
93202W        W59611   8.335  21.136  13.805
93203W        W59612   5.432  12.613  12.573
93204W        W59613  35.466  33.051  11.178
93205W        W59614  32.155   1.111   1.157
93206W        W59615  42.080  23.531  10.671
93207W        W59616  26.168  20.106  11.573
93208W        W59617   8.286  30.359  13.246
93209W        W59618   2.149  39.804   1.651
93210W        W59619  41.760   4.454  11.598
93211W        W59620   1.482  12.813   3.740
93212W        W59621  11.888  31.872   1.595
93213W        W59622  14.865  44.270  11.142
93214W        W59623   9.090  12.330  13.877
93215W        W59624  34.258  40.596   1.172
93216W        W59625  23.879  11.122  11.996
93217W        W59626   0.858  34.475  11.073
93218W        W59627  18.964  29.725  11.082
93219W        W59628   4.757  33.033  11.049
93220W        W59629  16.087  13.877   0.412
93221W        W59630  16.436   5.678  13.825
93222W        W59631   2.492  26.700  13.412
93223W        W59632  28.952  15.264   4.863
93224W        W59633  25.226   7.089  11.635
93225W        W59634  43.980  29.868  13.036
93226W        W59635  12.215  26.919  13.323
93227W        W59636   1.621  44.505   2.710
93228W        W59637  17.761   5.286  13.449
93229W        W59638   7.876  37.606  12.352
93230W        W59639  34.029  21.135   4.274
93231W        W59640  44.790  32.106   2.789
93232W        W59641  16.478  12.898  11.747
93233W        W59642  42.661  36.574  11.897
93234W        W59643  18.249  32.940   4.620
93235W        W59644  40.011  20.974  11.636
93236W        W59645  25.660  21.945   0.764
93237W        W59646   6.759  14.803  10.946
93238W        W59647  16.173  26.171  14.939
93239W        W59648  28.065  19.126   2.403
93240W        W59649  13.987  16.662  11.689
93241W        W59650  32.372  13.135  13.167
93242W        W59651  30.248  25.185   4.319
93243W        W59652  19.987   8.331   2.306
93244W        W59653   2.715  36.905   0.242
93245W        W59654  33.362  25.329   4.995
93246W        W59655   9.223  39.617   1.838
93247W        W59656   7.687   4.748   3.177
93248W        W59657  21.637   4.894  10.868
93249W        W59658  39.320   3.377  13.900
93250W        W59659  43.064  26.763  10.349
93251W        W59660  39.991   6.488  11.228
93252W        W59661  30.377  42.496  10.742
93253W        W59662  38.895  35.532   0.393
93254W        W59663   8.955  23.056   2.895
93255W        W59664  31.459   4.239  14.849
93256W        W59665  23.000   5.220   4.541
93257W        W59666  38.219  41.755   3.098
93258W        W59667   8.237   3.916   2.663
93259W        W59668   6.250  17.868  11.734
93260W        W59669   3.637  12.809   0.588
93261W        W59670  18.371  34.606   4.778
93262W        W59671  33.179  12.380  14.764
93263W        W59672  34.094  16.590  10.717
93264W        W59673  10.357   5.870   3.794
93265W        W59674  25.520  31.148  10.935
93266W        W59675  39.062   4.257   0.743
93267W        W59676   8.873   0.710   3.347
93268W        W59677  38.348  27.144  11.598
93269W        W59678  28.196  27.993  11.111
93270W        W59679  16.093   6.439   2.527
93271W        W59680  17.777  13.072  13.185
93272W        W59681  34.506  35.850  13.549
93273W        W59682  31.347  35.153  12.463
93274W        W59683  23.984   1.769  10.255
93275W        W59684  40.647  13.365   4.506
93276W        W59685  13.124  28.091   4.650
93277W        W59686   1.633  38.388   1.572
93278W        W59687   4.027  19.069  14.790
93279W        W59688  25.621  10.309  14.848
93280W        W59689  44.465  42.773   1.970
93281W        W59690  25.893  30.610  11.172
93282W        W59691  23.119  27.061   3.067
93283W        W59692  13.942  23.577   3.121
93284W        W59693  43.335  41.066  12.443
93285W        W59694  39.287  43.912   0.548
93286W        W59695  27.072  39.363  11.340
93287W        W59696   1.700  22.514   0.322
93288W        W59697  40.638  15.173  11.055
93289W        W59698  30.614  25.177  13.869
93290W        W59699  22.760   6.747   4.911
93291W        W59700  31.561  26.661  10.226
93292W        W59701  27.101  40.685  13.354
93293W        W59702  32.559   8.191   1.851
93294W        W59703  36.518  32.597  12.352
93295W        W59704  21.333  13.832   0.206
93296W        W59705  38.068  20.568  13.461
93297W        W59706  34.088   9.099   4.532
93298W        W59707   8.432  35.968   2.873
93299W        W59708   3.827  19.381   4.722
93300W        W59709  28.990  20.031   1.811
93301W        W59710  25.383  22.313  10.357
93302W        W59711  32.452  27.653   4.070
93303W        W59712  22.660   3.920   0.393
93304W        W59713  34.790  38.922  14.898
93305W        W59714  41.887   7.245   3.668
93306W        W59715   5.757   6.215   0.854
93307W        W59716  14.189  34.103   3.663
93308W        W59717   9.491  13.666   4.517
93309W        W59718  11.677  11.861  13.643
93310W        W59719  24.183  43.957  12.541
93311W        W59720  19.336  32.976   1.868
93312W        W59721  37.974  33.327   4.128
93313W        W59722  23.108  30.074  12.127
93314W        W59723  12.603  26.896  11.082
93315W        W59724   2.415  10.158  13.472
93316W        W59725  30.151  40.807  11.547
93317W        W59726  26.699  13.387   3.907
93318W        W59727  31.576   2.311  13.411
93319W        W59728  25.384   0.907   5.055
93320W        W59729   3.361  40.345   2.507
93321W        W59730   5.473  37.497   4.443
93322W        W59731  11.638  32.001   0.644
93323W        W59732   3.518  21.498   1.819
93324W        W59733  37.929  13.291   4.108
93325W        W59734  28.336  42.532  13.771
93326W        W59735  32.610  40.001  13.956
93327W        W59736   8.888   1.309  13.823
93328W        W59737  13.229  14.100   3.997
93329W        W59738   9.668   7.651  13.273
93330W        W59739  38.328   9.036   3.493
93331W        W59740  42.386   7.718  10.319
93332W        W59741  12.388   3.418   1.054
93333W        W59742  25.695  34.079   1.753
93334W        W59743  11.671  28.682  14.277
93335W        W59744  23.566  11.370  13.333
93336W        W59745  20.891  30.376   4.555
93337W        W59746  40.645  36.293  12.041
93338W        W59747  40.498  35.885  13.383
93339W        W59748  11.250  25.421   3.174
93340W        W59749  29.018  26.783  12.181
93341W        W59750  38.099  15.729  11.683
93342W        W59751  26.483  19.294  12.456
93343W        W59752  40.132   8.727   1.970
93344W        W59753  13.581   1.151   2.228
93345W        W59754  22.495   6.288   4.955
93346W        W59755  41.486   3.185  14.788
93347W        W59756   4.681  43.867  11.873
93348W        W59757  12.809  40.083  10.636
93349W        W59758  19.616  24.309  13.011
93350W        W59759  27.835  32.463  11.427
93351W        W59760  20.162  44.972  14.934
93352W        W59761  27.443  30.409   2.983
93353W        W59762  22.620  30.004   4.130
93354W        W59763  40.937  29.533  14.476
93355W        W59764   5.570  40.326   0.323
93356W        W59765  16.822  37.318  12.226
93357W        W59766  44.009   7.972  12.153
93358W        W59767  11.595  12.012  10.768
93359W        W59768  29.563  40.840   1.274
93360W        W59769  27.384  21.488   4.652
93361W        W59770  21.204  19.680  11.173
93362W        W59771  28.145  19.565  14.782
93363W        W59772  41.492  15.328   1.789
93364W        W59773  37.817  19.789  10.680
93365W        W59774   9.634  43.026  13.350
93366W        W59775  41.326   7.716  14.409
93367W        W59776  32.188  36.487   4.087
93368W        W59777  21.721  14.466  14.053
93369W        W59778  34.160   4.804   1.801
93370W        W59779  42.366  22.233  11.585
93371W        W59780  17.881  28.103   4.294
93372W        W59781  26.312   4.349   3.318
93373W        W59782  35.438  30.457   2.920
93374W        W59783  14.691  26.616   1.572
93375W        W59784  21.449   3.620   2.821
93376W        W59785   6.278   1.727  13.381
93377W        W59786  12.561  11.650  13.873
93378W        W59787  21.487  39.886   1.847
93379W        W59788  16.731  11.150   1.933
93380W        W59789  42.518  44.352   0.250
93381W        W59790  44.996  24.108   3.733
93382W        W59791  44.467  23.572  12.601
93383W        W59792  40.111  39.360  14.293
93384W        W59793  39.898  39.050  13.844
93385W        W59794  30.541  35.306   0.665
93386W        W59795  20.524  42.653  11.987
93387W        W59796  40.290  29.174   3.552
93388W        W59797  35.398   8.158   2.281
93389W        W59798  14.255  22.031   1.717
93390W        W59799  44.350  23.351   2.215
93391W        W59800   3.327   6.372   3.252
93392W        W59801   9.260  16.393   0.970
93393W        W59802  27.122   4.702   0.300
93394W        W59803   0.795  31.352   4.411
93395W        W59804  29.757  26.153   4.154
93396W        W59805  42.845  21.537  11.106
93397W        W59806  25.090  12.753   1.982
93398W        W59807  24.462   3.565  10.691
93399W        W59808  19.154   3.470   0.538
93400W        W59809   0.997  26.593  14.306
93401W        W59810  17.267  26.532   4.205
93402W        W59811  41.101   6.358   2.747
93403W        W59812  40.869  20.137  14.444
93404W        W59813  34.129  24.613  13.592
93405W        W59814  27.565   8.324  11.532
93406W        W59815  23.128  36.169  10.777
93407W        W59816  30.923   6.356   2.302
93408W        W59817  39.288  18.851   4.938
93409W        W59818  35.649  33.432  10.411
93410W        W59819  25.782  12.930  11.619
93411W        W59820  38.125  38.383  13.897
93412W        W59821   8.477  31.257  13.432
93413W        W59822  21.526  32.056   0.463
93414W        W59823  31.159  38.575  11.660
93415W        W59824   0.947  24.128  11.070
93416W        W59825  39.472  29.293   4.521
93417W        W59826   8.628   6.758  11.971
93418W        W59827  36.013  41.411  12.944
93419W        W59828  23.073  41.782  10.778
93420W        W59829  29.217  20.751  10.683
93421W        W59830  27.619  16.945   1.934
93422W        W59831  34.907  26.527  12.903
93423W        W59832   8.631  27.017  10.596
93424W        W59833  44.085   2.712   1.392
93425W        W59834   9.863  34.661   4.610
93426W        W59835  44.537  28.713  11.513
93427W        W59836  42.904  12.906  14.908
93428W        W59837  20.245   5.749   3.682
93429W        W59838   4.267  23.749  10.750
93430W        W59839  13.777   7.937   1.766
93431W        W59840  33.227  14.577  12.639
93432W        W59841  38.520  16.440   3.324
93433W        W59842  25.731   7.233   1.313
93434W        W59843  17.225  24.718  13.838
93435W        W59844  18.345  39.823  14.773
93436W        W59845   8.938  43.769   1.442
93437W        W59846  29.985   0.358   2.893
93438W        W59847  43.447  38.260  11.030
93439W        W59848  23.488  15.213  13.581
93440W        W59849  34.827  25.006   5.042
93441W        W59850  36.569  28.175   0.396
93442W        W59851  44.235   4.966  11.523
93443W        W59852   7.906  15.051  13.401
93444W        W59853  18.714  31.137   1.462
93445W        W59854   5.258  14.938   0.968
93446W        W59855  21.750  22.905  11.618
93447W        W59856  12.530  44.939   1.826
93448W        W59857  14.925  19.167   2.868
93449W        W59858  38.909   2.469   2.868
93450W        W59859  41.392  13.465  11.569
93451W        W59860  41.347   1.814  14.439
93452W        W59861  40.113  27.430   0.302
93453W        W59862  34.890  15.718   1.765
93454W        W59863  40.846  42.509  12.410
93455W        W59864  15.762  35.954  11.720
93456W        W59865  26.200   0.491   0.770
93457W        W59866  32.366   7.218  10.017
93458W        W59867  33.904  23.671   0.215
93459W        W59868   5.745   6.016  11.839
93460W        W59869  32.895  16.283   3.382
93461W        W59870  26.047  29.208   1.872
93462W        W59871  43.077  27.400   0.217
93463W        W59872  24.664  29.596   4.665
93464W        W59873  43.771  33.063   3.127
93465W        W59874  43.476  43.038   4.032
93466W        W59875  31.952  42.290   0.896
93467W        W59876  41.854   1.935  14.294
93468W        W59877  36.014  33.678  14.627
93469W        W59878  16.252   2.282   4.225
93470W        W59879  32.285  44.305  14.911
93471W        W59880  44.826  38.506   2.339
93472W        W59881  28.448   7.164  11.523
93473W        W59882  22.227  28.304  13.317
93474W        W59883  14.628   8.275   3.785
93475W        W59884  44.806   5.385   2.762
93476W        W59885   9.749  28.365  12.874
93477W        W59886  31.233   0.724   2.215
93478W        W59887   5.217  37.101   2.194
93479W        W59888  11.550  11.314  11.640
93480W        W59889  27.577  23.134  14.259
93481W        W59890  44.121  30.678  11.118
93482W        W59891  30.892  21.690   1.153
93483W        W59892  24.516  10.219  14.037
93484W        W59893  28.702  18.116   3.137
93485W        W59894  30.900   2.675   0.936
93486W        W59895  25.936  41.054  11.669
93487W        W59896   4.878   3.489   5.056
93488W        W59897  16.628  42.203  14.030
93489W        W59898  11.638  11.169   1.844
93490W        W59899  32.402   4.426   5.039
93491W        W59900  41.364  22.978   1.696
93492W        W59901  32.417  30.165  12.531
93493W        W59902  25.182  19.641  12.847
93494W        W59903  31.305  26.544  10.695
93495W        W59904   7.266  28.272  12.985
93496W        W59905  29.376  24.628   4.973
93497W        W59906   3.989  20.580  14.776
93498W        W59907   0.224  38.424  12.402
93499W        W59908  36.384   1.061  11.592
93500W        W59909  20.801   3.769   4.426
93501W        W59910  10.102  21.770  13.993
93502W        W59911  25.498   1.738  11.505
93503W        W59912  42.451  27.950  14.221
93504W        W59913  24.907  38.031   4.925
93505W        W59914  24.476   7.761  10.165
93506W        W59915  17.573   9.826   3.399
93507W        W59916  43.609  39.948  10.461
93508W        W59917   4.140  35.569   2.431
93509W        W59918  37.497  24.936  10.556
93510W        W59919  10.794  19.299  14.028
93511W        W59920   8.225  36.043  14.420
93512W        W59921  27.046   0.745  13.249
93513W        W59922  13.853  12.166  13.051
93514W        W59923  21.066  14.239  11.784
93515W        W59924  21.708  10.796   3.898
93516W        W59925  44.862  30.410   2.887
93517W        W59926  43.858  44.855   3.384
93518W        W59927  26.268  22.975  12.116
93519W        W59928  10.959  37.326   1.451
93520W        W59929  12.561  38.978   4.466
93521W        W59930  26.588  26.148   2.231
93522W        W59931   3.516  16.802   1.740
93523W        W59932  16.299  34.434   4.583
93524W        W59933  30.764  24.526   2.345
93525W        W59934   0.863  27.656   2.796
93526W        W59935  32.414   1.076   4.473
93527W        W59936  27.371  43.279   0.986
93528W        W59937   2.430  23.531   0.828
93529W        W59938  25.774   0.481   3.345
93530W        W59939  34.823  14.754  13.418
93531W        W59940  34.276   5.222   2.476
93532W        W59941  30.728  30.997   5.042
93533W        W59942  36.654  15.848  11.723
93534W        W59943   1.214  30.073  10.668
93535W        W59944  18.230  16.362  14.275
93536W        W59945  26.017   2.823   2.017
93537W        W59946  23.560  30.117  12.424
93538W        W59947  17.807  17.525  12.083
93539W        W59948  27.494   1.174  13.867
93540W        W59949  39.323   1.209  14.946
93541W        W59950   8.545  25.069   1.511
93542W        W59951   2.254  36.135  14.334
93543W        W59952  38.800  32.605   2.563
93544W        W59953   7.141  26.730  12.929
93545W        W59954  28.558   9.397  13.981
93546W        W59955   8.742  31.967   2.384
93547W        W59956  44.970  39.082   3.745
93548W        W59957   0.004  30.161   3.318
93549W        W59958  35.153  43.868  13.519
93550W        W59959  40.876  26.999  14.491
93551W        W59960  19.706  20.591   4.094
93552W        W59961  12.402  42.675  11.191
93553W        W59962  43.181  19.286  11.505
93554W        W59963  35.414  23.996   3.818
93555W        W59964   8.708  37.798  14.036
93556W        W59965  42.014  42.439   4.595
93557W        W59966   8.259   2.740  13.125
93558W        W59967  25.274  11.032   1.900
93559W        W59968  32.224   5.224  13.990
93560W        W59969  36.079  41.934   2.915
93561W        W59970  37.897  29.684   4.376
93562W        W59971   3.971  42.258   1.693
93563W        W59972   1.042   3.947   1.732
93564W        W59973   5.181   8.729  10.980
93565W        W59974  28.510  39.538  13.701
93566W        W59975  40.904  10.273   5.110
93567W        W59976  23.682   6.996  12.220
93568W        W59977   9.905  40.310   4.030
93569W        W59978  29.620  40.364  13.012
93570W        W59979  16.856   3.154  13.777
93571W        W59980  22.721  30.410  11.657
93572W        W59981   7.462  26.609   0.452
93573W        W59982   3.081  36.488  12.946
93574W        W59983   7.243  12.767   4.505
93575W        W59984  34.815  23.614   0.619
93576W        W59985  18.000  38.354  10.682
93577W        W59986  10.367  10.158  10.920
93578W        W59987  14.834  11.079  13.871
93579W        W59988  26.982   6.713  14.113
93580W        W59989  26.973  17.710   0.044
93581W        W59990  39.464   2.809  12.102
93582W        W59991  26.974  27.080   3.130
93583W        W59992  25.148   7.303   1.736
93584W        W59993   9.900  40.579   4.954
93585W        W59994  34.797  37.558   0.102
93586W        W59995  28.312   3.750  12.393
93587W        W59996   4.289  20.751  12.987
93588W        W59997  15.097   8.070   1.199
93589W        W59998  39.384   1.739   2.230
93590W        W59999   3.182  28.490  11.644
93591W        W60000   4.448  11.148   0.793
93592W        W60001   4.749  23.877   4.545
93593W        W60002  27.769  18.259  12.836
93594W        W60003  14.815   2.323  14.030
93595W        W60004  42.445  30.650  14.837
93596W        W60005  33.663  18.710  12.106
93597W        W60006  15.697  27.981   1.139
93598W        W60007   4.731  12.377   4.399
93599W        W60008  18.140  18.095  10.681
93600W        W60009   5.719   3.038  10.410
93601W        W60010   0.982   9.930   3.204
93602W        W60011  14.086  21.581   1.918
93603W        W60012  11.584  23.735  14.954
93604W        W60013  38.772  31.001   1.661
93605W        W60014  31.931   7.860   3.229
93606W        W60015  17.585  18.174  13.583
93607W        W60016   0.710  42.337  13.505
93608W        W60017   2.006  12.574   0.291
93609W        W60018   4.497  39.417  11.077
93610W        W60019  39.066  31.121   1.251
93611W        W60020  26.384  35.515  10.908
93612W        W60021  29.609   7.927  12.449
93613W        W60022  21.803  39.983   3.289
93614W        W60023  23.273  10.770  14.488
93615W        W60024  16.489   7.270   4.133
93616W        W60025  31.977  27.900   4.185
93617W        W60026  36.060  35.464   0.924
93618W        W60027   1.402  33.083   4.258
93619W        W60028   3.610  13.867  13.331
93620W        W60029  44.310  13.984  11.607
93621W        W60030  39.608   2.782   2.447
93622W        W60031  28.533  40.950  12.500
93623W        W60032  13.238   1.546  12.059
93624W        W60033   4.388  40.575   1.900
93625W        W60034   9.105  24.558   0.811
93626W        W60035  19.294  35.903   1.909
93627W        W60036  14.285  20.142   2.072
93628W        W60037  23.179  29.018  14.922
93629W        W60038  27.264   2.656   0.737
93630W        W60039   3.250  29.912  10.423
93631W        W60040   8.672  23.470  11.146
93632W        W60041  44.157  17.311  10.271
93633W        W60042  22.286  30.132   1.857
93634W        W60043  15.521  23.049   0.383
93635W        W60044  39.241  21.117   0.991
93636W        W60045  10.656  34.845  10.712
93637W        W60046  28.723   2.434  11.048
93638W        W60047  12.655  32.273  11.368
93639W        W60048  31.575  12.316   1.821
93640W        W60049  39.043  32.491   4.360
93641W        W60050  19.988  13.903   2.441
93642W        W60051  29.004  37.546   0.954
93643W        W60052  22.719  38.546   3.643
93644W        W60053  32.340  40.014   1.620
93645W        W60054   0.685  19.708  10.778
93646W        W60055  36.123   9.687   1.347
93647W        W60056  38.495  16.876   2.880
93648W        W60057  11.217  28.467  14.432
93649W        W60058  20.706   2.332   0.256
93650W        W60059  25.388   7.627   1.398
93651W        W60060  44.538  26.150  12.053
93652W        W60061  17.808  11.387   2.849
93653W        W60062  21.278  18.585   3.739
93654W        W60063   9.390  27.071  13.787
93655W        W60064  13.074  40.631   4.962
93656W        W60065  28.744  18.420   5.084
93657W        W60066  11.026  40.113   0.386
93658W        W60067  34.962  32.579   0.420
93659W        W60068   8.721  17.188   2.656
93660W        W60069  40.287   3.431   3.376
93661W        W60070  35.756  29.109  12.107
93662W        W60071  36.483  10.251   2.606
93663W        W60072  36.636  44.768  11.104
93664W        W60073  29.143  13.193   4.099
93665W        W60074  40.740  40.314   0.353
93666W        W60075   3.306  43.231   1.230
93667W        W60076   6.756   6.513   4.169
93668W        W60077   4.614  32.404  11.162
93669W        W60078  43.329  38.070   0.753
93670W        W60079   8.782  30.403  11.901
93671W        W60080  25.084   8.668  11.513
93672W        W60081  44.376  37.402   1.346
93673W        W60082   1.571  37.281  13.038
93674W        W60083  22.299  16.117  14.488
93675W        W60084  13.025  26.119   1.332
93676W        W60085  35.468   3.671   9.808
93677W        W60086   5.211   5.437   1.746
93678W        W60087  39.087  18.591   1.837
93679W        W60088   8.156  38.017  10.690
93680W        W60089   6.285  23.928  12.874
93681W        W60090   8.324  22.980   1.282
93682W        W60091  41.912   8.174  14.157
93683W        W60092  20.809  44.338   0.353
93684W        W60093  31.149  11.243   4.441
93685W        W60094  12.584   6.171  11.271
93686W        W60095  19.993  14.359   4.137
93687W        W60096  33.243  17.779  12.952
93688W        W60097  16.115  12.248   3.170
93689W        W60098  36.621   6.767   1.409
93690W        W60099   7.437  31.620   3.998
93691W        W60100  44.471  21.501   3.924
93692W        W60101  34.910   0.002  10.989
93693W        W60102  23.904  25.303  12.952
93694W        W60103   3.026  11.892   2.260
93695W        W60104  31.093   5.756  13.364
93696W        W60105  35.538  13.551   3.532
93697W        W60106  39.997   0.639   2.195
93698W        W60107  38.942  13.318  14.313
93699W        W60108   7.742   1.535   2.874
93700W        W60109  36.610  27.980  12.232
93701W        W60110  32.986  39.597  14.404
93702W        W60111  13.102  40.794   4.013
93703W        W60112   7.692  36.068  14.310
93704W        W60113  34.123   1.502   2.353
93705W        W60114  10.865  22.759   4.065
93706W        W60115   6.161  29.150   2.123
93707W        W60116  19.274  21.005   0.439
93708W        W60117  32.850   8.164   3.095
93709W        W60118   7.238  29.436  12.381
93710W        W60119  16.804  17.589  14.430
93711W        W60120  13.182  31.348   3.874
93712W        W60121  20.622  31.944   0.845
93713W        W60122  23.746  41.440  12.141
93714W        W60123  31.468  19.363  14.405
93715W        W60124  36.477  41.157  12.911
93716W        W60125  39.518  12.917   0.929
93717W        W60126   7.846  41.489   3.897
93718W        W60127  28.113  15.110  10.610
93719W        W60128   0.472  37.628   3.181
93720W        W60129  19.249  24.163   2.618
93721W        W60130  25.706   9.789   1.836
93722W        W60131  35.945   0.777  11.557
93723W        W60132  31.335  38.938   0.724
93724W        W60133   6.715  28.578   2.444
93725W        W60134  25.007  41.412  13.473
93726W        W60135  18.548  18.644  12.035
93727W        W60136  42.724  24.222  12.432
93728W        W60137  41.373  40.352   3.224
93729W        W60138  41.151  17.388   4.816
93730W        W60139  31.636   7.738  13.054
93731W        W60140  40.916  41.360   1.040
93732W        W60141  29.661  12.163  14.866
93733W        W60142  38.564  27.255   2.619
93734W        W60143  20.765  10.569  13.310
93735W        W60144  20.129   9.141  10.859
93736W        W60145  32.123   8.349  11.298
93737W        W60146  42.819   4.318  13.752
93738W        W60147  31.084  41.186   4.543
93739W        W60148   6.882   2.751   1.757
93740W        W60149  36.441  14.824   1.455
93741W        W60150   6.296  40.942   2.824
93742W        W60151  28.196  14.813  13.412
93743W        W60152  18.102   3.950   2.104
93744W        W60153  19.059  13.682   0.002
93745W        W60154  25.188  44.531  14.901
93746W        W60155  27.806  39.840   0.401
93747W        W60156  14.165  33.054  12.833
93748W        W60157  15.651  40.773  14.097
93749W        W60158  33.624  43.411   0.432
93750W        W60159   6.513  40.681   1.274
93751W        W60160  38.513  33.339  13.830
93752W        W60161   2.293   3.029  10.611
93753W        W60162  27.456   6.920   4.857
93754W        W60163  25.632  36.099   1.808
93755W        W60164   1.762  22.789   0.785
93756W        W60165  44.008  17.114  11.629
93757W        W60166  14.162  13.214  11.158
93758W        W60167  36.813   5.186   4.258
93759W        W60168   8.802   2.260  10.677
93760W        W60169  16.887  27.289  12.845
93761W        W60170   1.196  40.409  11.627
93762W        W60171  28.738  32.959  11.302
93763W        W60172  40.094  37.480   4.822
93764W        W60173  23.091  20.525   2.378
93765W        W60174  23.758  44.303  13.793
93766W        W60175  29.114   2.468  10.736
93767W        W60176  25.162  34.979  11.450
93768W        W60177  27.765  37.837  11.610
93769W        W60178   0.518  10.855   0.384
93770W        W60179  20.566   4.570   1.390
93771W        W60180  33.595  31.010   3.919
93772W        W60181   5.579   6.407  12.126
93773W        W60182   0.079  44.765   4.326
93774W        W60183  26.511  43.808  10.941
93775W        W60184  34.901   7.916   3.816
93776W        W60185  42.372   1.819  12.063
93777W        W60186   2.490  14.015  12.678
93778W        W60187  38.442   7.618   2.124
93779W        W60188  25.965   4.795  14.820
93780W        W60189  20.641  38.483  11.524
93781W        W60190  30.686   8.868   2.936
93782W        W60191  38.468  44.004  14.422
93783W        W60192  41.040   0.984   0.478
93784W        W60193  11.100  11.073   3.708
93785W        W60194  39.652   6.382   2.213
93786W        W60195  17.806   1.344   1.917
93787W        W60196  21.479  14.816   1.478
93788W        W60197   4.733   6.835  14.207
93789W        W60198   3.239  36.109  13.469
93790W        W60199  43.358   8.433   0.147
93791W        W60200   1.325  36.486  12.587
93792W        W60201  35.810  23.314  11.472
93793W        W60202  37.407  27.033  11.287
93794W        W60203  44.469  36.462   1.916
93795W        W60204  26.414  27.807   5.037
93796W        W60205  26.244  37.345   2.778
93797W        W60206  38.174  12.113  12.862
93798W        W60207  17.814  43.750  14.909
93799W        W60208  14.424  21.486   2.320
93800W        W60209  37.154  44.858   3.263
93801W        W60210  35.597  23.108   0.961
93802W        W60211  29.176   1.411   1.883
93803W        W60212  37.675  40.257   3.812
93804W        W60213  11.241  42.781  14.836
93805W        W60214  40.331  38.063   0.436
93806W        W60215   2.647  13.360   3.938
93807W        W60216  29.208  10.742  10.713
93808W        W60217   8.369  31.867   3.995
93809W        W60218   1.345  14.632  11.061
93810W        W60219  29.691   1.949  14.556
93811W        W60220  23.984  43.591  11.380
93812W        W60221   4.409  24.943   3.262
93813W        W60222  36.426  42.958   3.269
93814W        W60223   7.099  20.182  12.710
93815W        W60224   8.201  37.809   4.178
93816W        W60225  33.164  12.407  12.069
93817W        W60226  35.885   8.517  11.976
93818W        W60227  14.584   7.108   3.211
93819W        W60228  36.483   3.048  12.527
93820W        W60229  13.202  18.194  14.818
93821W        W60230   5.313  32.462  12.444
93822W        W60231  26.922  25.508   3.183
93823W        W60232  40.797   5.925  13.113
93824W        W60233  27.632   8.831  12.119
93825W        W60234   0.215  39.856   0.239
93826W        W60235  12.799  39.836   0.279
93827W        W60236  42.323  42.262   2.270
93828W        W60237  27.502  11.687  14.874
93829W        W60238  40.631  13.175  14.288
93830W        W60239  27.958   7.635   4.948
93831W        W60240  33.112  31.994  11.548
93832W        W60241  17.850  42.733  14.832
93833W        W60242  17.077  14.073   1.156
93834W        W60243  16.626  11.510  14.077
93835W        W60244  38.474  40.112  12.903
93836W        W60245  12.050   6.270   2.766
93837W        W60246   5.769  24.501   3.060
93838W        W60247  42.056  37.983   1.747
93839W        W60248  25.340  31.627   0.429
93840W        W60249  21.676  44.416   4.289
93841W        W60250   7.900  24.134  11.428
93842W        W60251  33.116  21.507   0.702
93843W        W60252  33.497  22.590  10.263
93844W        W60253   8.072  27.726  10.062
93845W        W60254  42.027  34.976   3.417
93846W        W60255  34.611  34.440  11.514
93847W        W60256  34.254  17.726   2.258
93848W        W60257  32.584  42.473   0.752
93849W        W60258  18.591  12.174   0.884
93850W        W60259  41.038   6.325   4.208
93851W        W60260   2.685   9.676  11.039
93852W        W60261  34.809   9.874   4.507
93853W        W60262  27.610  31.318   3.952
93854W        W60263  20.573  33.601  11.156
93855W        W60264  24.262  14.276   2.203
93856W        W60265  12.178  38.127   4.807
93857W        W60266   5.636   0.394  12.289
93858W        W60267  29.565  26.484   0.444
93859W        W60268   5.444  41.523  12.985
93860W        W60269   8.666  10.868   1.850
93861W        W60270  40.603   1.596  14.267
93862W        W60271  11.275  14.257   2.689
93863W        W60272  26.092  13.137  13.871
93864W        W60273   5.927   5.801   1.156
93865W        W60274  12.139  43.053   4.558
93866W        W60275  24.439  11.830   2.276
93867W        W60276  42.032   4.493  13.782
93868W        W60277  40.001  24.189   3.239
93869W        W60278  12.100   9.950   3.309
93870W        W60279   9.169  42.252  13.409
93871W        W60280  32.322  25.196   2.456
93872W        W60281   7.143   4.034   2.175
93873W        W60282  10.204  28.725  14.774
93874W        W60283  44.866  25.103   2.496
93875W        W60284  22.499  13.133   4.074
93876W        W60285  33.196  41.131  14.268
93877W        W60286   5.746   6.132   1.826
93878W        W60287  10.208  16.682   0.162
93879W        W60288  16.365  29.402  11.342
93880W        W60289  27.307  37.522  11.602
93881W        W60290  42.382   3.941   1.657
93882W        W60291  26.443   2.333  11.550
93883W        W60292  14.745   1.804   0.339
93884W        W60293  39.553  38.072  13.367
93885W        W60294  10.245  10.045   4.893
93886W        W60295  23.430  15.513  12.780
93887W        W60296  14.888  14.583  11.766
93888W        W60297  22.172  39.475   0.924
93889W        W60298  28.016  20.323  13.524
93890W        W60299  24.314  40.725   1.783
93891W        W60300   2.725   2.179  11.270
93892W        W60301  15.499  32.088   2.309
93893W        W60302   6.116  22.917   0.918
93894W        W60303   8.756  33.842  12.031
93895W        W60304  37.981  13.049   2.866
93896W        W60305  26.450  10.209   4.581
93897W        W60306   0.431   3.433   3.158
93898W        W60307  38.836  26.570   1.844
93899W        W60308  13.622  10.592  14.787
93900W        W60309  30.180  10.722  12.973
93901W        W60310  26.655  17.362  13.020
93902W        W60311   0.087  21.287  13.086
93903W        W60312  41.240  38.488  13.029
93904W        W60313   2.306   5.285   0.238
93905W        W60314  42.386  23.237   2.124
93906W        W60315  30.096   5.353  10.352
93907W        W60316  30.952   9.866   1.194
93908W        W60317  41.575  39.984  10.606
93909W        W60318  42.986  34.313  13.080
93910W        W60319  44.412  12.908  11.345
93911W        W60320  44.352   6.231   3.331
93912W        W60321  42.818  32.143  14.422
93913W        W60322  40.306  31.991  12.478
93914W        W60323  44.786  23.673   1.300
93915W        W60324   9.658  44.985  12.190
93916W        W60325  34.820  14.782   3.936
93917W        W60326  24.282  22.291  13.023
93918W        W60327  11.780  19.632   1.393
93919W        W60328  21.580   5.825   4.134
93920W        W60329   9.258  28.505   2.628
93921W        W60330  33.663  12.346  13.395
93922W        W60331  20.612  36.687  14.822
93923W        W60332  35.624   5.898   1.506
93924W        W60333   8.061  15.149   1.873
93925W        W60334  14.719  17.440  14.019
93926W        W60335   8.903  41.913   3.348
93927W        W60336   6.904  17.581  12.416
93928W        W60337   6.799   9.588   1.895
93929W        W60338   9.437   8.768  14.234
93930W        W60339  13.626  23.242  13.513
93931W        W60340  34.873   2.302  10.623
93932W        W60341  32.106  38.746  11.487
93933W        W60342  10.807  38.104   1.000
93934W        W60343  25.259   4.451  12.154
93935W        W60344  30.042  20.507  12.691
93936W        W60345  39.404  30.139   1.937
93937W        W60346   7.649  41.229   2.423
93938W        W60347  21.459  32.958  12.994
93939W        W60348   9.116  10.225  11.500
93940W        W60349   2.488  34.441   1.895
93941W        W60350  17.466   9.459  14.162
93942W        W60351  39.648  34.610   3.250
93943W        W60352  29.942   2.738   2.274
93944W        W60353  30.585  27.202   2.323
93945W        W60354  37.566   0.493   2.200
93946W        W60355  24.372  14.885  12.951
93947W        W60356  19.180  13.654  13.780
93948W        W60357   2.287  38.876   0.738
93949W        W60358  18.612  30.506  12.533
93950W        W60359   1.077   8.002   1.373
93951W        W60360  27.173  42.588  13.091
93952W        W60361   6.982  43.133   4.946
93953W        W60362  36.933   5.709  14.001
93954W        W60363   3.241  21.688  14.530
93955W        W60364   3.899  28.670  14.853
93956W        W60365  33.662  36.981   3.270
93957W        W60366  17.288  32.735   4.200
93958W        W60367  15.625  44.796  13.915
93959W        W60368  19.826   1.381  14.293
93960W        W60369  32.962  11.908  14.739
93961W        W60370   9.655  20.995   2.692
93962W        W60371  42.516   5.888   1.390
93963W        W60372  23.739   6.884  13.057
93964W        W60373  31.893  17.549  11.058
93965W        W60374  12.696  33.194   3.594
93966W        W60375   1.727  42.072  13.500
93967W        W60376  24.026   9.937  14.964
93968W        W60377   0.007  36.364   3.251
93969W        W60378  19.592   4.123   4.590
93970W        W60379  43.919  43.227   4.365
93971W        W60380  18.261  33.808  12.526
93972W        W60381  27.287  40.381  12.976
93973W        W60382   9.889   6.774   1.185
93974W        W60383  26.396  41.472   4.163
93975W        W60384  29.572  18.021   0.619
93976W        W60385  20.703  23.774  14.391
93977W        W60386  14.884  18.451  13.795
93978W        W60387  12.401  39.571  12.531
93979W        W60388  37.800  22.720   0.752
93980W        W60389   9.599  42.568  11.878
93981W        W60390  33.904  26.433  14.931
93982W        W60391  15.768  32.318   4.615
93983W        W60392   0.688  12.175  12.934
93984W        W60393   1.609  24.917  11.159
93985W        W60394  19.430  25.515   1.264
93986W        W60395  25.649  37.416   0.258
93987W        W60396  33.587  21.777  12.129
93988W        W60397  24.466  27.410  14.452
93989W        W60398   5.302  21.864  12.140
93990W        W60399  28.532  24.664   2.473
93991W        W60400  22.083  29.924  12.097
93992W        W60401  31.663  32.605   2.094
93993W        W60402  41.991  41.718  11.118
93994W        W60403  20.073  20.596  11.088
93995W        W60404  41.774  22.191  14.029
93996W        W60405   7.892  28.698   4.593
93997W        W60406  22.149  35.389  12.103
93998W        W60407   2.994  24.559   3.306
93999W        W60408  35.116  39.120   4.548
94000W        W60409  25.533  19.090  14.078
94001W        W60410  33.401  27.555  13.956
94002W        W60411  26.638  44.989  12.255
94003W        W60412  34.459  31.366  12.950
94004W        W60413  30.239   7.158   4.419
94005W        W60414  15.622  38.437  12.720
94006W        W60415  39.641  39.387  12.060
94007W        W60416   7.693   4.793   0.710
94008W        W60417  39.840  11.326   0.495
94009W        W60418  11.398  10.843   4.179
94010W        W60419  43.363  20.513  10.952
94011W        W60420  24.621   2.851   3.209
94012W        W60421  28.901  40.266   0.296
94013W        W60422  22.183  10.648  14.273
94014W        W60423   4.853   6.845   1.826
94015W        W60424  35.961  43.305   1.440
94016W        W60425   6.309  28.581  14.035
94017W        W60426  12.689  30.420  14.413
94018W        W60427  19.790  13.875   3.878
94019W        W60428  38.053  22.214  12.876
94020W        W60429  26.752  41.917  14.472
94021W        W60430   0.353  41.761   1.830
94022W        W60431   1.668  12.027  10.628
94023W        W60432  42.181  27.838   0.237
94024W        W60433   2.346  44.903  13.186
94025W        W60434  41.908  24.575   1.759
94026W        W60435   6.345  25.271  14.350
94027W        W60436   4.907  17.708  10.555
94028W        W60437  34.650  32.880   2.749
94029W        W60438  43.869  24.415   4.151
94030W        W60439  10.790  14.669  11.629
94031W        W60440  10.787   3.428  12.369
94032W        W60441  44.727  44.450   1.019
94033W        W60442  43.840  40.710  11.651
94034W        W60443   4.388  20.958  12.485
94035W        W60444  40.890  41.034   4.171
94036W        W60445   9.467  18.323   1.510
94037W        W60446  33.594  34.220  12.156
94038W        W60447  29.266  31.080   3.128
94039W        W60448  30.948  20.626   0.306
94040W        W60449   3.933   0.975   2.729
94041W        W60450  35.640  34.993   4.628
94042W        W60451  17.202  23.490  10.897
94043W        W60452  32.964   6.354  14.900
94044W        W60453  33.985  43.786  14.331
94045W        W60454  21.212  23.548   4.522
94046W        W60455  42.879  17.965  14.369
94047W        W60456   9.078   2.863   1.933
94048W        W60457  34.759  25.208  13.308
94049W        W60458  42.250  28.037   4.291
94050W        W60459  31.893  24.572  11.587
94051W        W60460   7.637   1.268   2.371
94052W        W60461  33.927  10.408  11.591
94053W        W60462  24.026  12.572  11.244
94054W        W60463  30.278  26.811  13.703
94055W        W60464  10.182  38.825  14.414
94056W        W60465  40.288  21.355  14.309
94057W        W60466  20.530  19.483   2.321
94058W        W60467  39.002   2.463   3.793
94059W        W60468  15.753  29.917   3.240
94060W        W60469  15.919  24.918   2.370
94061W        W60470  33.695   9.769   2.572
94062W        W60471   7.015  44.924  14.775
94063W        W60472  12.257   3.746  13.364
94064W        W60473  18.686  36.984   0.963
94065W        W60474  20.775  17.130   5.151
94066W        W60475  33.520  13.392   4.677
94067W        W60476  39.433   3.168  12.891
94068W        W60477  30.024   7.851  14.636
94069W        W60478  37.845  27.549  12.123
94070W        W60479   1.481  37.460   3.609
94071W        W60480  40.021  31.364   3.781
94072W        W60481  28.506  28.959  11.164
94073W        W60482  43.391  44.028  13.082
94074W        W60483  34.388   2.465  10.664
94075W        W60484  40.412  37.042  11.600
94076W        W60485  28.104   8.884   0.650
94077W        W60486  27.448   7.493  14.966
94078W        W60487  31.775  17.602   3.692
94079W        W60488  27.297   2.690   1.380
94080W        W60489  36.318  27.401   2.839
94081W        W60490  31.955  14.121  10.848
94082W        W60491  20.060  20.038  12.376
94083W        W60492  18.796  41.434  14.513
94084W        W60493  31.896  35.614   0.055
94085W        W60494   2.174  13.569   1.212
94086W        W60495  11.764   9.419  10.745
94087W        W60496  42.923  21.484   3.670
94088W        W60497  23.333  37.968  14.121
94089W        W60498  22.970  13.644   4.561
94090W        W60499  30.492  37.085   4.196
94091W        W60500   2.429  42.972  14.640
94092W        W60501  14.145  42.711   2.596
94093W        W60502  33.946  33.619  10.542
94094W        W60503  44.204  38.371  14.384
94095W        W60504   8.293   6.921   4.608
94096W        W60505   5.395  20.302  14.230
94097W        W60506  18.016  38.837   2.498
94098W        W60507  26.205   9.556   1.843
94099W        W60508   6.780   0.474  14.563
94100W        W60509  10.307  42.357  11.489
94101W        W60510  44.068  19.305  13.053
94102W        W60511  35.926  18.121  12.211
94103W        W60512  15.107  35.264   2.087
94104W        W60513   6.886   3.824   0.718
94105W        W60514  27.272  36.392   4.511
94106W        W60515   1.268   9.619  13.080
94107W        W60516  19.211  13.090   1.683
94108W        W60517  14.763  25.609  12.046
94109W        W60518  34.052   5.092  14.730
94110W        W60519  34.787  10.472   2.460
94111W        W60520  23.516  35.048   4.034
94112W        W60521   5.006  20.543  14.565
94113W        W60522  13.676  35.093  10.280
94114W        W60523   0.165  31.354   2.915
94115W        W60524  17.761  18.258  14.068
94116W        W60525   3.395  41.755  11.534
94117W        W60526  21.532  22.322   1.365
94118W        W60527  38.526  12.467  12.766
94119W        W60528  18.074  16.614   4.481
94120W        W60529  11.936  15.734  11.411
94121W        W60530   0.532  32.092  11.067
94122W        W60531  30.363  40.984   4.405
94123W        W60532  10.147   0.908  13.067
94124W        W60533   6.143  13.559  12.955
94125W        W60534  44.744  25.546  13.772
94126W        W60535   5.771  39.280  10.366
94127W        W60536  35.463  16.083  11.353
94128W        W60537   0.990  35.670   0.909
94129W        W60538  27.959  20.820   3.607
94130W        W60539   2.459  11.595   0.466
94131W        W60540  37.675  38.972   3.897
94132W        W60541  34.994  42.309   3.226
94133W        W60542   2.705  36.797  14.034
94134W        W60543   2.307  36.153  13.444
94135W        W60544  43.595  33.927   1.679
94136W        W60545   0.184   4.418   4.680
94137W        W60546  13.215  14.713   4.255
94138W        W60547  33.921  42.318  12.427
94139W        W60548  10.278  36.001   0.432
94140W        W60549  41.282  37.437  12.651
94141W        W60550   2.445  24.821   0.981
94142W        W60551  26.449  14.807  14.416
94143W        W60552  43.755   3.344   0.703
94144W        W60553  32.879  25.820   4.166
94145W        W60554  33.587  30.614  12.153
94146W        W60555  39.064   1.257  13.898
94147W        W60556  42.754  31.655   3.284
94148W        W60557  29.874  13.274   4.552
94149W        W60558  26.036  12.285  12.613
94150W        W60559  30.168  17.105  14.003
94151W        W60560  37.043  26.703   4.392
94152W        W60561  34.013  29.768   4.146
94153W        W60562  37.755  35.721   3.245
94154W        W60563  37.445  28.016  11.218
94155W        W60564  23.606  20.755  12.085
94156W        W60565  35.034  12.413  14.753
94157W        W60566  33.007   8.250  10.869
94158W        W60567   7.414  42.886   2.816
94159W        W60568  33.254   7.700  12.916
94160W        W60569  15.184  22.285  10.912
94161W        W60570   5.215  39.015  14.890
94162W        W60571  33.772  13.245  11.368
94163W        W60572  12.778  18.030   2.754
94164W        W60573  37.414  43.822  10.682
94165W        W60574  33.580  16.555  10.781
94166W        W60575  43.687  34.798   5.232
94167W        W60576  18.026  27.727   0.468
94168W        W60577   4.373  32.597   3.536
94169W        W60578  29.699  44.006   2.132
94170W        W60579   0.472  36.056   2.282
94171W        W60580  29.553   2.246   0.960
94172W        W60581  29.098  21.290  14.797
94173W        W60582  30.422  34.510   1.259
94174W        W60583  41.940   0.854   2.813
94175W        W60584   3.937  27.525  14.914
94176W        W60585   4.872   9.463  11.023
94177W        W60586  20.944  36.940   3.429
94178W        W60587  40.226   2.919  13.793
94179W        W60588   7.738  26.958   0.224
94180W        W60589  20.281  17.151  11.639
94181W        W60590  11.615  41.656  10.771
94182W        W60591  37.159  29.418   5.137
94183W        W60592  18.485  24.994  14.856
94184W        W60593  14.223  30.168  13.003
94185W        W60594   7.426   4.370  12.166
94186W        W60595  11.637  25.137   0.406
94187W        W60596  41.445   8.298   4.244
94188W        W60597  34.443   8.731   3.720
94189W        W60598   6.810   4.899  12.046
94190W        W60599  35.115   3.361  12.950
94191W        W60600  37.872  28.224   2.044
94192W        W60601  30.415  28.583   1.415
94193W        W60602   5.832   3.838  14.832
94194W        W60603  25.109  44.573  13.538
94195W        W60604  43.020   0.850   3.621
94196W        W60605  37.040  10.634   4.888
94197W        W60606  16.269  41.327  11.915
94198W        W60607  33.675  23.293   0.520
94199W        W60608  40.302  11.883   2.361
94200W        W60609   3.631  16.155  11.636
94201W        W60610  12.618  42.062  12.549
94202W        W60611   7.740  14.261   1.489
94203W        W60612  29.491  21.128   0.903
94204W        W60613  30.065   6.983   1.728
94205W        W60614  26.574  13.974  13.064
94206W        W60615  17.162  24.159   1.657
94207W        W60616  32.376   1.899  12.626
94208W        W60617  30.615  26.590   1.501
94209W        W60618  44.431   6.236   3.854
94210W        W60619  12.474  13.691  12.427
94211W        W60620   3.820  32.467   1.261
94212W        W60621  15.657  14.536   0.823
94213W        W60622   9.407  25.192  14.397
94214W        W60623  43.223  24.892   0.954
94215W        W60624  13.737  44.594  13.587
94216W        W60625  39.415  30.535  13.196
94217W        W60626  19.136  25.725  10.996
94218W        W60627  13.585  19.218   1.374
94219W        W60628  16.427  28.048  14.434
94220W        W60629  23.732  13.790  12.480
94221W        W60630   2.848  10.840   1.163
94222W        W60631  32.287  17.513   1.158
94223W        W60632   2.020  27.973   1.802
94224W        W60633   0.295  14.013   0.771
94225W        W60634  31.091  12.146  12.463
94226W        W60635   2.836  14.889  14.345
94227W        W60636  12.217   0.267  11.064
94228W        W60637  14.647   3.448  10.681
94229W        W60638  30.479  15.869   2.859
94230W        W60639   3.413   9.331   3.496
94231W        W60640  10.329  20.655  13.424
94232W        W60641  11.229  42.966   1.216
94233W        W60642  29.997  19.065  13.020
94234W        W60643   4.451  43.378   4.492
94235W        W60644  37.702  41.745  10.999
94236W        W60645   2.930   2.819   4.826
94237W        W60646   0.799  37.095  13.225
94238W        W60647  43.894   0.779  14.365
94239W        W60648  24.576  19.540   2.343
94240W        W60649  22.631  30.850   0.909
94241W        W60650  22.332   8.138  10.865
94242W        W60651   6.923   5.765  14.982
94243W        W60652   7.159  28.230  12.436
94244W        W60653  43.945  18.614  13.913
94245W        W60654  22.676  10.043  13.763
94246W        W60655  32.620  22.543  11.974
94247W        W60656  38.952  28.119  10.054
94248W        W60657  31.246   5.319  10.660
94249W        W60658  17.601  38.651  10.578
94250W        W60659  33.959  28.905  13.423
94251W        W60660  18.102  12.354   0.970
94252W        W60661   2.404  42.719   0.100
94253W        W60662  12.328  37.402   3.367
94254W        W60663  41.435  34.712   3.323
94255W        W60664  22.429  30.435   2.370
94256W        W60665  32.065  29.135   2.732
94257W        W60666  38.283  31.039   2.126
94258W        W60667   2.378  28.000  11.248
94259W        W60668  40.928  29.913  13.497
94260W        W60669  41.800  24.384  11.113
94261W        W60670  26.117   0.274   3.004
94262W        W60671  41.698  23.561  11.016
94263W        W60672  10.619  37.855   4.316
94264W        W60673  16.111  33.776   3.601
94265W        W60674  39.052   7.438  14.255
94266W        W60675  29.904  10.160  12.207
94267W        W60676  40.534  25.881  13.050
94268W        W60677  11.074   8.341   1.903
94269W        W60678  19.943  15.847  14.867
94270W        W60679  44.820  21.250   0.367
94271W        W60680  10.118   2.976   1.823
94272W        W60681  24.210   5.319  13.344
94273W        W60682  35.277  26.471  13.980
94274W        W60683  36.503   6.788  14.164
94275W        W60684  41.402   2.710   1.769
94276W        W60685   6.822  35.030   2.717
94277W        W60686  12.187  10.111   2.190
94278W        W60687  14.389  40.887   3.778
94279W        W60688  33.734  16.801   0.578
94280W        W60689  38.429  35.883  13.442
94281W        W60690  34.345   8.271  14.544
94282W        W60691   7.136   3.354   0.814
94283W        W60692  12.633  18.130  12.363
94284W        W60693  39.920  30.539   1.273
94285W        W60694   4.245   1.815   0.753
94286W        W60695   3.015  33.204  13.470
94287W        W60696  29.025   9.594  14.110
94288W        W60697  32.482  24.750   2.249
94289W        W60698  40.538  32.775   2.770
94290W        W60699  35.922  34.385   2.245
94291W        W60700  18.528  31.344   0.394
94292W        W60701  38.862  17.266   2.800
94293W        W60702   0.915  20.599  13.994
94294W        W60703  22.674  22.003  11.524
94295W        W60704   1.318  26.826  12.864
94296W        W60705  36.625  41.088  11.201
94297W        W60706  19.388  36.951   2.366
94298W        W60707   6.271  35.342   3.357
94299W        W60708  24.489  10.678  14.863
94300W        W60709   2.301  12.455   4.836
94301W        W60710  43.419  23.047   2.041
94302W        W60711   0.236  41.230  11.461
94303W        W60712   6.246  40.852   2.297
94304W        W60713  10.766  23.976   2.233
94305W        W60714  17.235  12.440  12.512
94306W        W60715  41.468  28.358   1.605
94307W        W60716  22.276  32.582   1.770
94308W        W60717   2.258  36.807  14.904
94309W        W60718  19.752   3.186  14.204
94310W        W60719   3.376  18.182   4.475
94311W        W60720  41.864  26.495  10.327
94312W        W60721   6.720  15.852   4.142
94313W        W60722  17.659  13.484  13.518
94314W        W60723   3.305   6.023   2.621
94315W        W60724  38.316  35.509   4.488
94316W        W60725  32.126   2.858   1.207
94317W        W60726   6.939  32.647   2.698
94318W        W60727   1.390   7.260  12.059
94319W        W60728   9.914  27.383   2.335
94320W        W60729   7.691   4.256   4.365
94321W        W60730  39.877  43.408   2.331
94322W        W60731   8.177  35.384  11.072
94323W        W60732   5.453   6.052  14.908
94324W        W60733  14.551  40.840   0.960
94325W        W60734   5.685  17.857   0.783
94326W        W60735  23.529  37.036   0.405
94327W        W60736  26.994  29.994   2.449
94328W        W60737  18.605  19.040   2.315
94329W        W60738  43.343  44.714  13.545
94330W        W60739  23.722  39.962   2.313
94331W        W60740  25.603   8.194  12.938
94332W        W60741  25.507  29.652   4.833
94333W        W60742  32.528  44.854   0.872
94334W        W60743  40.550   4.959  12.600
94335W        W60744  30.964  27.486  12.123
94336W        W60745  27.446  34.130   0.872
94337W        W60746  12.296   3.240  13.484
94338W        W60747   0.899  39.084   3.750
94339W        W60748   2.943  12.865   2.678
94340W        W60749  43.007  34.790  11.015
94341W        W60750  25.264  15.641   9.919
94342W        W60751   5.421  44.293   0.439
94343W        W60752  44.245  24.481   3.698
94344W        W60753  11.825   8.864  13.950
94345W        W60754   5.908   4.440   4.608
94346W        W60755   8.508   7.212  13.027
94347W        W60756  37.403  26.019   0.740
94348W        W60757   6.921  37.974   0.311
94349W        W60758   1.939  19.986  12.846
94350W        W60759  43.777   2.505  14.077
94351W        W60760  41.430  11.360   3.563
94352W        W60761  25.841  23.898  11.133
94353W        W60762  36.617  10.124  11.626
94354W        W60763  44.899  36.332  14.218
94355W        W60764   0.489   0.997   0.309
94356W        W60765  10.593  19.651   5.178
94357W        W60766  15.617  35.042   1.264
94358W        W60767   0.418  36.090   0.483
94359W        W60768  17.348  10.798  14.141
94360W        W60769  33.950   4.515  12.947
94361W        W60770  33.842   7.824  10.834
94362W        W60771  32.109  32.618  14.442
94363W        W60772  27.109   8.230  13.555
94364W        W60773  41.001  36.061   4.518
94365W        W60774  25.972  41.779  14.028
94366W        W60775  24.907   4.356   4.254
94367W        W60776   8.291  34.180  12.509
94368W        W60777   6.640   0.758   0.800
94369W        W60778  34.522   6.347   4.917
94370W        W60779  14.187  19.070   2.367
94371W        W60780  23.594  14.350  14.792
94372W        W60781  24.576   5.250  12.498
94373W        W60782  26.587  31.512   3.308
94374W        W60783  38.466  38.529  11.425
94375W        W60784  34.366  11.220   3.625
94376W        W60785  28.629  13.777   4.525
94377W        W60786  26.492  44.902   0.224
94378W        W60787  32.534  34.880   3.246
94379W        W60788  40.370  20.511  13.503
94380W        W60789  12.622  20.579  11.982
94381W        W60790  10.831  28.692   1.800
94382W        W60791  27.695  24.728  12.079
94383W        W60792  32.633  39.612  11.531
94384W        W60793  38.573  28.480  11.697
94385W        W60794  35.089  10.669  14.476
94386W        W60795  12.949  12.435   1.579
94387W        W60796  36.555  43.497   4.073
94388W        W60797  17.267  34.979   2.488
94389W        W60798  32.445  43.373   0.076
94390W        W60799  42.079  31.612   1.599
94391W        W60800   3.185  44.205   2.289
94392W        W60801  35.194   2.297   4.551
94393W        W60802  29.669  23.062   3.241
94394W        W60803   2.312  24.234  11.948
94395W        W60804  14.784  42.277   3.688
94396W        W60805  24.579  44.798  14.763
94397W        W60806  27.027  25.486  12.618
94398W        W60807   9.926  30.355  12.932
94399W        W60808  21.961  15.801   0.825
94400W        W60809  18.007  43.808  13.927
94401W        W60810  23.617  33.775   0.949
94402W        W60811  28.233  30.551  13.502
94403W        W60812  10.845   4.579   3.744
94404W        W60813  20.474  15.765  12.518
94405W        W60814  43.444   2.944   0.466
94406W        W60815   6.982  11.425  12.400
94407W        W60816  34.047  31.195  10.886
94408W        W60817  20.024  27.786   4.238
94409W        W60818  29.582  37.955  11.479
94410W        W60819  15.702   5.643  14.209
94411W        W60820   9.378   2.729   4.024
94412W        W60821  31.869  16.667  10.676
94413W        W60822  11.095  11.584  14.383
94414W        W60823  44.496   3.255  12.004
94415W        W60824   7.006  19.597   4.703
94416W        W60825   9.142   9.385  10.599
94417W        W60826   3.761   0.730   4.579
94418W        W60827  22.152  29.164   1.489
94419W        W60828  36.395  44.875   1.724
94420W        W60829  31.975  22.724   3.112
94421W        W60830  35.578  32.024   2.388
94422W        W60831  21.629  42.054  11.145
94423W        W60832  43.971  39.235   0.292
94424W        W60833  24.594  19.409   5.188
94425W        W60834  28.680  43.417  13.304
94426W        W60835  12.288  40.025   0.286
94427W        W60836   8.816   8.665   4.984
94428W        W60837  15.676  25.500   4.915
94429W        W60838  39.764  26.687  12.571
94430W        W60839  20.514  39.636   3.582
94431W        W60840   9.289  35.542  13.101
94432W        W60841  28.521  44.814   4.478
94433W        W60842   7.247  27.442   1.951
94434W        W60843   6.745  25.196  10.406
94435W        W60844  13.819   1.585   1.434
94436W        W60845  31.470   5.413  11.109
94437W        W60846  23.206  39.441   0.786
94438W        W60847   6.132  29.961   1.510
94439W        W60848  21.724  11.830  12.587
94440W        W60849  42.579  39.480   2.876
94441W        W60850  16.264  39.757   0.234
94442W        W60851  21.741  14.582  14.560
94443W        W60852  30.104   8.293  13.803
94444W        W60853  33.655  27.332   0.819
94445W        W60854   4.904  20.499   0.600
94446W        W60855  21.992  18.131  14.993
94447W        W60856  33.445   8.744   2.919
94448W        W60857   1.078  18.598  13.600
94449W        W60858  26.928   2.148  10.658
94450W        W60859  22.313  39.806  11.050
94451W        W60860  25.002  42.281  10.739
94452W        W60861  43.888  20.167   4.618
94453W        W60862  32.016  25.260  11.839
94454W        W60863   5.604  12.676  12.081
94455W        W60864  19.448  32.764   0.464
94456W        W60865   9.715  31.794  12.568
94457W        W60866  24.665  10.813  14.398
94458W        W60867  32.630  41.569   3.687
94459W        W60868  28.332  11.371  14.800
94460W        W60869  13.055  25.981  12.098
94461W        W60870  33.100  26.839   2.147
94462W        W60871  42.860  36.597  10.744
94463W        W60872   8.248  43.092  14.516
94464W        W60873  12.833  28.957   3.696
94465W        W60874  27.936   4.390  12.462
94466W        W60875  32.990  35.521  13.896
94467W        W60876   8.179  31.035  12.031
94468W        W60877  18.746  28.542   2.484
94469W        W60878  14.719  40.230   1.607
94470W        W60879  38.943  15.506   3.436
94471W        W60880  26.729  14.225  13.515
94472W        W60881   5.963  30.353   1.812
94473W        W60882  17.222  15.655   0.756
94474W        W60883  26.603  15.898  11.727
94475W        W60884  41.574   1.702   0.735
94476W        W60885  29.674  41.791   1.470
94477W        W60886  14.696   9.091  12.922
94478W        W60887   5.961  42.824   3.266
94479W        W60888   4.876  23.590   2.960
94480W        W60889  29.050   2.813   2.206
94481W        W60890   5.620   6.739   3.034
94482W        W60891  33.467   7.954   3.614
94483W        W60892  35.528  39.935  11.522
94484W        W60893  20.458  21.767  11.946
94485W        W60894  25.686  41.828   0.200
94486W        W60895  10.589   8.142  12.933
94487W        W60896  11.175   6.919  14.864
94488W        W60897   8.142  32.400  11.105
94489W        W60898  43.691  31.878  11.103
94490W        W60899  40.469  30.161  13.571
94491W        W60900  38.101  36.482   2.651
94492W        W60901   7.819  28.768   3.214
94493W        W60902  34.379   8.104  11.108
94494W        W60903   5.910  10.422  11.945
94495W        W60904  33.187  35.026  12.945
94496W        W60905  22.110   4.292  11.930
94497W        W60906  16.316   1.852   1.604
94498W        W60907  12.514  16.259  10.737
94499W        W60908   9.894  37.887  12.620
94500W        W60909   9.616  23.540  14.768
94501W        W60910  12.981  17.795  12.540
94502W        W60911   1.264  29.848   2.520
94503W        W60912  30.638   0.276  11.187
94504W        W60913  29.883  24.841  11.461
94505W        W60914  15.818  15.247  12.893
94506W        W60915  11.170  13.842   0.007
94507W        W60916  12.182   3.135   2.775
94508W        W60917  14.834  34.544   1.350
94509W        W60918  21.152  42.971   4.888
94510W        W60919  36.499  25.548   4.871
94511W        W60920  20.814  15.347   2.533
94512W        W60921   0.872  37.495  13.558
94513W        W60922  27.661  44.060   4.504
94514W        W60923  38.745  22.900  14.883
94515W        W60924  36.852  18.666  13.258
94516W        W60925  34.658  15.234   4.173
94517W        W60926  37.483  32.922  13.479
94518W        W60927   5.297  25.738   3.732
94519W        W60928  18.808  11.786   4.139
94520W        W60929   1.346  12.240  14.103
94521W        W60930   9.147  26.572  12.095
94522W        W60931  44.532  13.255   0.811
94523W        W60932   1.946   3.389   4.170
94524W        W60933   0.366  32.661  12.469
94525W        W60934  41.970  12.829  13.980
94526W        W60935  40.613   1.515   1.107
94527W        W60936  24.198  33.655   2.628
94528W        W60937  40.152   4.806  10.534
94529W        W60938  26.528  24.491   3.690
94530W        W60939  10.934   8.289   0.732
94531W        W60940  30.526   5.757  12.565
94532W        W60941  11.200  38.635   3.273
94533W        W60942   0.854  27.028   3.284
94534W        W60943  23.720   4.809   4.566
94535W        W60944  22.929  19.348  14.575
94536W        W60945  33.942  20.114  14.993
94537W        W60946   4.389  21.277  10.669
94538W        W60947  28.615  34.861   1.752
94539W        W60948  44.408  35.451  14.876
94540W        W60949  24.332   8.667   5.560
94541W        W60950  22.598  10.309   1.607
94542W        W60951  13.662  32.985   4.092
94543W        W60952   2.038  26.773   3.426
94544W        W60953  29.058  31.553  14.892
94545W        W60954  11.596  16.844   0.419
94546W        W60955  33.067   8.248   4.081
94547W        W60956   0.194  13.592  10.722
94548W        W60957  36.971   5.441  13.128
94549W        W60958  20.658  11.359   0.643
94550W        W60959  29.447  13.017   3.284
94551W        W60960   3.726  24.889  14.420
94552W        W60961   5.369  21.690   1.575
94553W        W60962  16.577  26.685  11.153
94554W        W60963  26.325  40.409  14.003
94555W        W60964  24.524  25.928   1.937
94556W        W60965  12.386  26.382  10.635
94557W        W60966   3.672  31.964   4.965
94558W        W60967  29.786  27.653   2.336
94559W        W60968   9.976   7.252  14.884
94560W        W60969  30.120  21.579  14.752
94561W        W60970  32.166  18.708  12.451
94562W        W60971  25.011  14.825   0.183
94563W        W60972  19.556  33.548   3.884
94564W        W60973  33.008  30.471  13.858
94565W        W60974  37.424  20.689   1.211
94566W        W60975  44.968  33.859   3.125
94567W        W60976  42.545  43.885   0.475
94568W        W60977  26.703  44.851  11.455
94569W        W60978  28.548  17.888   1.002
94570W        W60979  42.410  13.663  12.128
94571W        W60980  16.754  15.303   4.496
94572W        W60981  31.511  42.866   1.954
94573W        W60982  21.797   3.420  10.585
94574W        W60983   3.317  12.161   1.330
94575W        W60984  36.570  22.561  13.548
94576W        W60985   3.860  15.063  11.012
94577W        W60986   2.141  20.759  12.476
94578W        W60987   1.899   2.720  14.238
94579W        W60988   3.557   3.332   0.857
94580W        W60989  26.973   5.107  13.494
94581W        W60990   9.247   1.845   3.750
94582W        W60991  29.706  17.329   1.901
94583W        W60992   9.409   9.591   2.190
94584W        W60993  25.683  42.534  13.913
94585W        W60994  31.044  16.181   3.866
94586W        W60995  17.683  33.030   4.062
94587W        W60996  38.512  14.332   3.704
94588W        W60997  42.517   2.021   2.811
94589W        W60998  23.798  44.029   2.148
94590W        W60999  17.064   8.341   3.910
94591W        W61000  26.420  10.118   9.857
94592W        W61001  18.787  28.051   0.261
94593W        W61002  38.970  36.690   2.580
94594W        W61003  11.215  17.329   1.994
94595W        W61004  40.807   8.954  12.985
94596W        W61005   0.780   0.314   0.923
94597W        W61006  37.049  27.694  12.424
94598W        W61007  34.087  28.453   2.789
94599W        W61008  36.136   5.747  11.025
94600W        W61009  42.407  20.183   1.368
94601W        W61010  12.108  34.691   4.029
94602W        W61011   9.625  41.411  14.344
94603W        W61012   9.416  12.572   1.192
94604W        W61013  24.283   2.803  11.439
94605W        W61014  30.425  42.307  11.230
94606W        W61015  39.372   4.497   4.092
94607W        W61016  27.653  44.336  10.920
94608W        W61017  32.852  30.112  11.187
94609W        W61018  35.420  35.953   2.324
94610W        W61019   4.879  34.900   4.606
94611W        W61020  42.246   5.772  11.167
94612W        W61021  21.773  38.909  11.211
94613W        W61022  20.798  27.916   0.217
94614W        W61023  43.760  13.776   0.943
94615W        W61024  33.911  36.363  10.499
94616W        W61025   9.389  32.515   1.984
94617W        W61026  23.462  10.815  14.985
94618W        W61027  24.432  34.879   3.723
94619W        W61028   2.611  20.597  12.588
94620W        W61029   2.467  32.277  10.422
94621W        W61030  41.051  16.132   4.224
94622W        W61031  21.910  32.660  11.713
94623W        W61032  34.537  25.962   1.356
94624W        W61033  14.789  12.740  10.753
94625W        W61034  42.782  18.322   0.423
94626W        W61035  27.542  39.208   0.953
94627W        W61036  16.039   6.586   1.676
94628W        W61037  17.420  38.010   0.963
94629W        W61038   0.360  25.264  12.794
94630W        W61039  35.404  27.193  14.427
94631W        W61040  40.064  14.829  10.497
94632W        W61041  18.774  37.772  12.632
94633W        W61042  33.459  20.792  11.086
94634W        W61043  44.300  20.025  10.548
94635W        W61044  16.856  38.082  12.517
94636W        W61045  29.950  36.766  10.745
94637W        W61046  25.555  29.412   0.778
94638W        W61047   3.378  12.499  12.103
94639W        W61048  29.429  11.174   1.787
94640W        W61049  40.936  38.194   4.107
94641W        W61050   3.527  37.075   0.452
94642W        W61051  27.213  43.474  13.582
94643W        W61052  32.320  19.690   4.644
94644W        W61053  23.918  36.392  13.526
94645W        W61054   1.966  24.607  12.976
94646W        W61055  36.424   5.454  11.397
94647W        W61056  20.286   6.080   1.025
94648W        W61057  28.775  29.971  14.276
94649W        W61058  13.273  43.121   2.685
94650W        W61059  31.358   8.632   5.443
94651W        W61060   9.465  20.627   3.285
94652W        W61061  37.381  40.065  14.916
94653W        W61062   4.340  39.894  11.191
94654W        W61063  23.536  16.857   0.439
94655W        W61064  27.273  16.567  13.159
94656W        W61065  41.402   7.694   4.882
94657W        W61066  15.263  19.053  14.960
94658W        W61067  36.096  11.963  14.846
94659W        W61068   5.083  28.074   2.306
94660W        W61069  23.192  10.067  13.709
94661W        W61070  33.223   4.325   2.225
94662W        W61071  24.637  16.770   0.980
94663W        W61072  37.539  40.370   0.296
94664W        W61073  41.702  42.291  14.025
94665W        W61074   4.889  18.255   4.316
94666W        W61075  27.571   8.872   3.141
94667W        W61076  26.388  37.936   1.865
94668W        W61077  31.110   1.757  14.268
94669W        W61078   3.791  25.668   4.550
94670W        W61079   8.914  30.868   3.185
94671W        W61080  16.754   5.145  13.540
94672W        W61081  23.032  26.979   4.263
94673W        W61082  40.001  43.787  10.747
94674W        W61083  26.437  11.668  14.715
94675W        W61084  18.282  16.185  11.152
94676W        W61085   1.750  36.440  11.667
94677W        W61086  27.880  42.886  11.654
94678W        W61087  16.831  25.993  10.512
94679W        W61088  34.116   9.088  14.792
94680W        W61089   4.263  31.535   1.218
94681W        W61090  40.218  14.399   5.040
94682W        W61091  31.453  34.945   2.266
94683W        W61092  18.061  28.961  14.860
94684W        W61093   8.625  17.174  10.752
94685W        W61094   4.711  20.651  12.151
94686W        W61095  23.720  43.542   4.196
94687W        W61096  28.370  11.207   5.308
94688W        W61097  21.685  26.707   4.045
94689W        W61098  38.492  16.525   5.085
94690W        W61099   3.341  38.442  13.241
94691W        W61100  18.771  24.068   4.318
94692W        W61101  34.515  44.955   2.900
94693W        W61102  38.018  13.724   0.805
94694W        W61103   5.800   9.903   2.273
94695W        W61104  36.976  34.277   0.693
94696W        W61105   8.022  35.855  10.891
94697W        W61106  12.159  39.332   1.938
94698W        W61107   9.717  43.540  11.090
94699W        W61108   6.116  14.553   4.158
94700W        W61109  18.512  17.796  11.633
94701W        W61110  40.878  21.111   4.187
94702W        W61111  17.675  42.481   1.651
94703W        W61112  15.906  23.625  11.652
94704W        W61113  35.714  42.912   3.601
94705W        W61114  42.760  22.124  13.929
94706W        W61115   0.145  13.462  13.985
94707W        W61116  41.685  15.298  14.482
94708W        W61117   7.721  32.232   2.214
94709W        W61118   4.178  39.785  12.966
94710W        W61119  33.966  28.014   3.139
94711W        W61120  44.543   3.808   1.395
94712W        W61121   9.179  37.016   0.284
94713W        W61122   7.828  13.000   3.252
94714W        W61123   1.253  21.174  13.115
94715W        W61124  43.408  36.361   4.123
94716W        W61125  29.681   8.886   2.761
94717W        W61126  41.009  19.635  14.323
94718W        W61127  15.027  27.387   3.484
94719W        W61128   6.676  26.566   4.556
94720W        W61129  43.926  12.707  11.288
94721W        W61130   4.726  43.732   3.699
94722W        W61131  31.924  34.582   0.928
94723W        W61132  41.296  15.340  13.432
94724W        W61133   3.295  37.640  14.057
94725W        W61134  31.666  24.538   1.252
94726W        W61135  41.551  30.764   3.644
94727W        W61136  22.419  17.123   3.619
94728W        W61137  25.536  21.345  13.432
94729W        W61138  16.743  35.635   4.105
94730W        W61139  33.108  15.640  12.317
94731W        W61140  38.805  12.633   4.347
94732W        W61141  24.513  27.465   0.885
94733W        W61142  15.539  35.117   2.388
94734W        W61143  32.812  36.878   2.877
94735W        W61144  35.008   6.820   0.316
94736W        W61145   9.081  33.057   2.110
94737W        W61146  44.749   4.430   0.381
94738W        W61147  23.262  10.757   3.165
94739W        W61148  31.974  37.920  14.414
94740W        W61149  34.070  42.152   4.180
94741W        W61150  16.595   0.303   2.824
94742W        W61151   4.259  38.455  11.693
94743W        W61152  34.087  42.859  14.431
94744W        W61153  38.397   1.448   4.068
94745W        W61154  36.099   4.952   3.683
94746W        W61155  42.348  20.092  14.875
94747W        W61156  38.602   0.893  13.727
94748W        W61157  38.018  30.705  11.567
94749W        W61158  16.770   0.112   1.487
94750W        W61159  26.553   0.550   2.888
94751W        W61160   1.507  18.996   0.722
94752W        W61161  33.061  10.557   1.019
94753W        W61162  11.196  31.574  10.853
94754W        W61163  38.780  42.782  11.548
94755W        W61164   6.918  37.426   2.792
94756W        W61165  36.952  34.306   2.220
94757W        W61166  13.688  31.225   3.796
94758W        W61167  37.468   7.691   4.276
94759W        W61168  30.968  34.142   0.965
94760W        W61169  33.872  15.768   1.860
94761W        W61170  32.468   2.945   3.527
94762W        W61171  40.568   9.671  12.578
94763W        W61172  44.630  21.664   4.958
94764W        W61173  41.415  14.255  12.967
94765W        W61174  14.444  18.772  13.813
94766W        W61175  28.486  31.360  12.618
94767W        W61176  30.922  39.114  10.855
94768W        W61177  39.306   4.735   2.749
94769W        W61178  15.080   0.049  11.778
94770W        W61179  41.890  26.469  12.977
94771W        W61180  39.070  23.936  12.447
94772W        W61181  39.660  25.491   0.434
94773W        W61182  32.534  19.734   5.118
94774W        W61183  10.556  27.623  13.592
94775W        W61184  10.620  30.926  13.567
94776W        W61185  22.714  39.272  11.420
94777W        W61186  15.204  29.378   2.828
94778W        W61187  25.021  23.225  11.487
94779W        W61188  31.496  29.365  13.816
94780W        W61189  22.213  35.201   0.053
94781W        W61190  23.204   8.874   3.193
94782W        W61191  35.091   8.780   1.946
94783W        W61192   6.360  26.731  14.379
94784W        W61193   8.396   6.888  11.528
94785W        W61194   0.951   9.893  14.025
94786W        W61195  18.665  33.671  11.122
94787W        W61196  15.925  36.381   0.945
94788W        W61197  21.791  41.390  14.374
94789W        W61198  37.827  14.769   3.609
94790W        W61199  39.811  19.155  12.403
94791W        W61200   3.227   0.202  10.951
94792W        W61201  28.107  11.129  11.487
94793W        W61202   4.284  26.125   0.208
94794W        W61203  34.562  18.747  10.677
94795W        W61204   2.245   9.467  12.549
94796W        W61205  24.747  35.903  12.833
94797W        W61206  22.372   4.427   1.184
94798W        W61207  10.896  18.277  12.987
94799W        W61208  43.936   2.803   0.488
94800W        W61209  15.555  25.678  11.153
94801W        W61210  31.437  36.657   0.881
94802W        W61211   6.741  43.084  11.474
94803W        W61212  40.945   0.001   2.791
94804W        W61213  31.715  12.790   3.548
94805W        W61214   4.353  29.891  13.543
94806W        W61215  11.600  12.183  11.555
94807W        W61216  33.566  33.444   2.694
94808W        W61217  33.481  44.497  12.860
94809W        W61218   1.182   8.651  14.176
94810W        W61219  42.050  35.033  13.396
94811W        W61220  28.408   2.814  13.846
94812W        W61221  21.782  35.158  13.381
94813W        W61222  31.542  12.126   2.398
94814W        W61223  30.657  16.638  12.312
94815W        W61224  29.916  29.113   4.915
94816W        W61225  38.097  33.822   2.133
94817W        W61226  12.785  19.064  10.290
94818W        W61227   8.298   8.102  14.119
94819W        W61228   8.535  13.979  10.760
94820W        W61229  18.546  23.903   3.342
94821W        W61230  29.533  24.912  14.407
94822W        W61231  21.446  11.791   3.172
94823W        W61232  32.125  43.809  13.645
94824W        W61233  44.438  24.835  14.179
94825W        W61234  22.660   7.607   1.957
94826W        W61235  14.800  10.307  11.484
94827W        W61236  13.390  40.693  10.360
94828W        W61237  43.221  35.840   1.447
94829W        W61238  17.706  33.571  13.361
94830W        W61239  31.063  10.300  11.590
94831W        W61240  36.927  41.473  10.999
94832W        W61241  19.814   5.587   4.547
94833W        W61242  21.322  41.679   1.523
94834W        W61243  21.572  31.982  14.860
94835W        W61244   3.520   9.787   1.310
94836W        W61245  44.658  23.252   3.412
94837W        W61246  16.729  16.899  14.819
94838W        W61247  33.479  40.808  10.820
94839W        W61248  40.427  37.939   1.861
94840W        W61249  10.823  13.428  12.834
94841W        W61250  32.940  20.797  11.221
94842W        W61251  41.429   6.364  11.045
94843W        W61252   0.471  14.398   2.156
94844W        W61253  17.727  44.035   0.335
94845W        W61254  21.927  11.265   2.250
94846W        W61255  31.640  27.511   1.486
94847W        W61256  35.112  38.812   2.323
94848W        W61257  43.297  40.046  11.866
94849W        W61258  15.220  12.173   2.183
94850W        W61259  39.114  35.894  13.973
94851W        W61260  40.912  28.748  12.530
94852W        W61261  23.353   5.478  13.871
94853W        W61262  11.961  27.949  13.107
94854W        W61263   0.980  22.762  14.854
94855W        W61264  42.897  21.016  11.175
94856W        W61265  22.521  17.310  10.744
94857W        W61266  34.980  11.599  11.595
94858W        W61267  22.138  13.079  10.886
94859W        W61268  27.541  12.360   0.807
94860W        W61269   6.994  21.520   4.104
94861W        W61270  22.759   7.281  10.354
94862W        W61271  35.113  23.704  13.407
94863W        W61272  25.924  42.518   4.794
94864W        W61273  26.494  28.251  11.646
94865W        W61274  19.734  42.393  12.381
94866W        W61275   7.184  29.605   2.191
94867W        W61276   5.327   3.156  10.722
94868W        W61277  32.034  42.323  12.303
94869W        W61278  17.553  32.500  10.493
94870W        W61279  17.255  40.512   3.516
94871W        W61280  17.099  36.396  12.828
94872W        W61281   5.313  22.240  12.985
94873W        W61282  34.062  22.655   2.804
94874W        W61283  44.498  16.399   3.140
94875W        W61284  17.338   0.190  13.684
94876W        W61285  11.277  19.875   2.123
94877W        W61286  38.380  29.892  11.273
94878W        W61287  21.743  15.167   1.213
94879W        W61288  28.054  21.581   0.764
94880W        W61289  30.110  36.433   4.262
94881W        W61290  39.924  13.677  11.181
94882W        W61291  35.216  20.295   2.123
94883W        W61292  42.758  29.276  14.733
94884W        W61293  44.595  36.947   1.721
94885W        W61294  17.144   7.141   4.944
94886W        W61295  43.829  44.246   4.834
94887W        W61296   5.916   2.925   0.310
94888W        W61297   6.944   1.752   1.661
94889W        W61298  42.959  26.580  13.969
94890W        W61299  41.734   4.531   3.149
94891W        W61300   6.684  28.747  11.841
94892W        W61301  23.239  16.329  14.067
94893W        W61302  34.640  44.318  11.504
94894W        W61303   1.343  19.994   3.673
94895W        W61304  38.869   5.429  13.427
94896W        W61305  17.145  40.339  11.890
94897W        W61306  33.121   5.215   3.488
94898W        W61307  19.634  25.101   2.957
94899W        W61308  40.885  40.817   0.193
94900W        W61309  10.178   8.294   0.943
94901W        W61310  18.910  24.012   3.003
94902W        W61311  19.652  26.562   5.083
94903W        W61312   2.425  23.533   2.282
94904W        W61313  41.166  39.555   2.913
94905W        W61314   8.181  12.304   3.936
94906W        W61315  18.321  36.893   4.398
94907W        W61316  38.952  23.068   1.921
94908W        W61317  15.913  43.740  12.088
94909W        W61318  31.007  32.245  11.286
94910W        W61319  16.019  33.435  13.506
94911W        W61320  33.055  44.492  12.545
94912W        W61321   1.830  16.999   3.612
94913W        W61322  34.132   2.387   3.181
94914W        W61323   8.502  35.044  10.808
94915W        W61324  13.872  22.060  14.856
94916W        W61325   7.536   6.647   1.957
94917W        W61326  27.040  20.945  14.589
94918W        W61327  36.847  12.112  12.437
94919W        W61328   2.706   2.447   2.139
94920W        W61329   3.400  24.282  13.646
94921W        W61330  15.081  19.513   2.207
94922W        W61331  23.436  20.034   0.418
94923W        W61332  20.801  36.870  13.891
94924W        W61333  28.163  44.370   2.606
94925W        W61334  32.435  27.094   1.843
94926W        W61335   5.033  41.524   0.440
94927W        W61336  42.081  32.399  12.786
94928W        W61337  36.713  17.726   2.732
94929W        W61338  42.912  26.617  14.500
94930W        W61339  14.316  22.669  12.536
94931W        W61340  20.545  40.836   0.365
94932W        W61341   1.524  12.819   4.649
94933W        W61342  10.928  15.512   2.712
94934W        W61343  29.251  20.357  13.570
94935W        W61344  39.531   7.239  13.486
94936W        W61345   6.571  25.432  14.773
94937W        W61346  44.075  10.759   1.363
94938W        W61347  40.432  43.887   0.076
94939W        W61348  41.884  42.266  11.119
94940W        W61349  10.799  41.885  12.552
94941W        W61350  16.328   6.820  12.396
94942W        W61351   9.804  26.322   4.453
94943W        W61352  40.522  22.132   4.169
94944W        W61353   5.319   6.768  10.661
94945W        W61354  42.380   2.686  11.254
94946W        W61355  37.962  21.053  12.075
94947W        W61356   9.427   5.195   4.111
94948W        W61357  44.026  37.265  12.504
94949W        W61358  27.673  35.643  13.456
94950W        W61359  38.353  11.736  11.425
94951W        W61360  12.253  34.734  12.700
94952W        W61361  11.470  37.050  14.460
94953W        W61362  13.733  33.003  12.559
94954W        W61363  18.201  34.609  11.884
94955W        W61364  25.109  23.096  13.535
94956W        W61365  24.219   5.389   0.903
94957W        W61366  15.862  17.480   3.326
94958W        W61367   0.811  31.608   1.066
94959W        W61368  23.292  14.756  11.624
94960W        W61369  13.187  32.365   2.834
94961W        W61370  18.134  40.767   0.342
94962W        W61371   4.613   1.415   1.430
94963W        W61372  43.056  17.662  12.954
94964W        W61373  39.553  29.551   0.340
94965W        W61374  17.161  27.697   1.295
94966W        W61375  10.883  36.576  11.505
94967W        W61376  40.919   1.316   0.081
94968W        W61377  10.635  11.919   1.175
94969W        W61378  13.082  21.080  14.760
94970W        W61379   3.707  38.271  13.875
94971W        W61380   2.220  15.188   0.782
94972W        W61381  40.672   9.386  11.565
94973W        W61382  43.516  11.321   3.145
94974W        W61383  40.646   2.747   0.202
94975W        W61384  16.807  10.378   3.892
94976W        W61385  41.683  17.269   2.679
94977W        W61386  36.993  19.081   1.413
94978W        W61387  22.348  38.247   3.444
94979W        W61388   6.130  22.007  11.305
94980W        W61389  25.543  41.807  12.186
94981W        W61390  16.836  12.112   4.747
94982W        W61391  39.782   2.018   2.499
94983W        W61392  16.643  24.771  12.057
94984W        W61393  19.791   7.450   2.223
94985W        W61394  39.069  35.090   1.261
94986W        W61395   9.032  11.791   0.547
94987W        W61396  15.935  21.290  13.102
94988W        W61397  24.641  17.095  11.978
94989W        W61398  26.504  24.803  12.460
94990W        W61399  13.764  44.252  14.515
94991W        W61400   5.013  40.229   5.106
94992W        W61401  27.365  31.103   3.382
94993W        W61402  25.534   7.692  10.664
94994W        W61403  35.037   0.493   2.190
94995W        W61404  14.621  22.583   3.631
94996W        W61405  43.469  24.922   3.239
94997W        W61406   0.213   8.604  10.199
94998W        W61407  36.055   5.750  12.015
94999W        W61408   3.739  44.449   2.723
95000W        W61409  43.374   9.859   0.321
95001W        W61410  33.519  18.000  13.412
95002W        W61411  22.891  17.569   2.265
95003W        W61412   6.946  27.471  13.117
95004W        W61413  41.024  25.474   0.784
95005W        W61414   6.889   1.438  14.662
95006W        W61415  14.001  12.024   2.389
95007W        W61416  17.849  35.151  12.588
95008W        W61417   8.659  24.953   3.660
95009W        W61418  23.758  38.098  12.590
95010W        W61419   8.830  38.834   4.921
95011W        W61420  14.324   1.433   2.729
95012W        W61421  40.373  37.774  12.049
95013W        W61422  12.721  34.377  11.514
95014W        W61423  17.587  32.058   2.334
95015W        W61424  17.343  36.115   4.129
95016W        W61425  27.341  19.722   4.107
95017W        W61426  15.609  34.617   0.917
95018W        W61427  35.314  35.293   1.783
95019W        W61428  18.589  17.065  14.526
95020W        W61429   4.362  23.682   1.806
95021W        W61430   5.360  18.401  10.549
95022W        W61431  32.413  26.948  12.523
95023W        W61432   1.486  18.888  10.808
95024W        W61433  17.555  31.136  12.072
95025W        W61434   4.233  35.262   4.124
95026W        W61435  32.126  43.773   4.209
95027W        W61436  22.368  26.421   0.879
95028W        W61437  42.384  30.323   1.778
95029W        W61438  39.573  10.076  10.674
95030W        W61439  38.345  16.194   1.304
95031W        W61440  24.895  25.026   3.089
95032W        W61441  11.706  28.310  10.748
95033W        W61442   2.872  26.658   4.911
95034W        W61443   3.994  28.500  11.286
95035W        W61444  11.507  20.277  12.398
95036W        W61445   6.765  23.113   5.451
95037W        W61446  13.116  13.547   2.386
95038W        W61447  32.340  10.876  11.024
95039W        W61448  26.071  17.975  13.576
95040W        W61449   4.838  42.975   0.657
95041W        W61450  39.778  22.653   2.251
95042W        W61451  28.114  37.244  13.566
95043W        W61452   7.219  31.004   0.935
95044W        W61453   8.407   0.921  14.435
95045W        W61454  23.894   7.350  13.982
95046W        W61455  16.857  43.192   2.764
95047W        W61456  34.577   3.860   1.622
95048W        W61457  15.298   3.241  14.814
95049W        W61458  20.986   9.502  12.431
95050W        W61459   6.143   2.731   4.645
95051W        W61460  28.209  42.898   2.466
95052W        W61461  37.937  24.516   3.172
95053W        W61462  42.703  33.821  13.356
95054W        W61463   8.404  17.800  13.908
95055W        W61464  19.323  31.035   3.172
95056W        W61465  32.592   8.710   2.260
95057W        W61466  37.869   5.253  13.877
95058W        W61467  29.745  22.263   0.184
95059W        W61468  22.014  41.421  14.870
95060W        W61469  43.547  12.793  14.163
95061W        W61470  11.896   2.436  14.512
95062W        W61471  18.553  23.756   1.684
95063W        W61472  43.251   9.530   1.197
95064W        W61473   2.279  40.821  13.560
95065W        W61474   8.955  30.721   4.204
95066W        W61475  22.035  22.444  11.497
95067W        W61476  24.752   5.640   1.453
95068W        W61477  24.021  15.887   0.408
95069W        W61478  19.262  21.025   2.013
95070W        W61479  13.714  40.097   4.027
95071W        W61480  36.541  27.585   4.184
95072W        W61481  44.980  19.026  14.716
95073W        W61482   8.658  19.841   0.464
95074W        W61483  38.944  13.131  14.796
95075W        W61484  23.968  29.434   3.175
95076W        W61485  31.397  10.510  10.544
95077W        W61486  18.276  41.428  13.803
95078W        W61487  12.849  22.741   3.129
95079W        W61488  32.332   5.461  14.456
95080W        W61489  11.010  31.858  13.431
95081W        W61490  14.686   4.444  13.930
95082W        W61491  35.833  12.526   1.099
95083W        W61492   2.744  30.168  13.364
95084W        W61493  27.516  17.469  11.519
95085W        W61494  11.635   3.856   1.370
95086W        W61495   8.931  26.166  14.907
95087W        W61496  34.828  32.061   4.166
95088W        W61497  12.033  35.991   2.733
95089W        W61498   6.624  22.999  10.382
95090W        W61499   8.459  22.935   4.122
95091W        W61500  20.338  35.353  13.997
95092W        W61501  41.967  41.935   2.127
95093W        W61502  26.688  32.427  11.958
95094W        W61503  12.802  41.223   2.215
95095W        W61504  17.308  11.778  14.602
95096W        W61505  38.843   2.187   3.307
95097W        W61506   3.564   0.304   0.394
95098W        W61507  38.615  44.959   3.251
95099W        W61508   5.314  12.201   0.900
95100W        W61509  28.426  25.559  13.921
95101W        W61510  29.438  44.490  14.839
95102W        W61511  34.382   4.423  13.833
95103W        W61512   4.456  38.933  10.876
95104W        W61513  15.352   8.245   1.636
95105W        W61514  19.733  22.236  12.076
95106W        W61515   2.418  44.671  14.156
95107W        W61516  13.603  18.584   0.720
95108W        W61517  26.607  13.840  14.922
95109W        W61518  11.665  23.952  12.471
95110W        W61519   8.481  36.863  14.839
95111W        W61520  17.986  17.754   4.869
95112W        W61521  10.369  40.851   3.248
95113W        W61522   5.737  15.516   1.476
95114W        W61523  36.640   2.400   2.182
95115W        W61524  10.821  18.452   0.898
95116W        W61525  14.810  39.065  13.876
95117W        W61526   8.871  18.558  13.022
95118W        W61527  13.821   6.841   2.197
95119W        W61528   4.678   3.015   2.361
95120W        W61529  15.272  42.439   3.711
95121W        W61530  42.190  19.166   0.424
95122W        W61531  39.814  16.801  12.724
95123W        W61532  13.683  41.031  10.602
95124W        W61533   3.285  43.236  14.858
95125W        W61534  42.277  30.389   0.236
95126W        W61535  37.994  15.206  12.550
95127W        W61536  28.116   0.753  12.445
95128W        W61537  41.512  25.236  11.170
95129W        W61538   4.020  17.067   0.887
95130W        W61539  25.530  11.986   9.926
95131W        W61540   9.253  29.516  11.891
95132W        W61541  14.332  23.327  10.750
95133W        W61542  42.908  14.256   4.984
95134W        W61543  38.798  27.125  11.331
95135W        W61544  30.379  43.571  11.369
95136W        W61545  11.801  28.565  12.051
95137W        W61546  30.339  22.168   2.663
95138W        W61547  24.502  15.301   1.200
95139W        W61548  20.590  43.879  13.510
95140W        W61549  29.459  37.058  11.997
95141W        W61550   4.541  42.837   4.137
95142W        W61551  10.402  36.961   2.239
95143W        W61552  31.579  28.687   2.870
95144W        W61553  21.039  10.671  10.614
95145W        W61554  31.868  27.011   4.285
95146W        W61555  20.531   3.950  10.705
95147W        W61556  23.972   4.403  12.591
95148W        W61557  19.992  33.130  13.492
95149W        W61558  34.343  30.222  11.765
95150W        W61559  16.583   1.310   3.006
95151W        W61560   3.688  13.019  13.529
95152W        W61561  16.669  18.280  13.325
95153W        W61562   2.468  17.128  11.200
95154W        W61563  26.157  39.549   1.253
95155W        W61564  26.207   3.280   2.185
95156W        W61565  38.560  13.542  12.043
95157W        W61566  18.796  34.936  13.038
95158W        W61567  26.235  40.486  14.493
95159W        W61568  12.047  18.068  11.613
95160W        W61569   6.785   6.176  10.650
95161W        W61570   2.565  16.362   0.780
95162W        W61571   7.350   3.708  13.387
95163W        W61572  11.083   4.918   3.262
95164W        W61573  42.461  10.934  11.107
95165W        W61574  31.302  23.336  12.113
95166W        W61575  21.658  28.731  10.455
95167W        W61576  35.906  21.935   3.601
95168W        W61577  14.173  35.313   0.060
95169W        W61578  43.051  24.196  12.825
95170W        W61579  27.161   7.332   4.928
95171W        W61580  14.557  31.536   4.673
95172W        W61581  43.916  22.993  11.197
95173W        W61582  19.003  13.586   4.904
95174W        W61583   5.274  28.575   2.250
95175W        W61584  14.095  27.374  13.363
95176W        W61585   1.968  20.677   3.714
95177W        W61586  16.077  17.196   1.254
95178W        W61587  27.337  41.373   2.741
95179W        W61588  21.285  43.799  10.924
95180W        W61589  19.083   1.014  12.090
95181W        W61590   6.252   1.274   3.777
95182W        W61591  27.637   3.435  14.263
95183W        W61592  24.012   6.682  11.310
95184W        W61593  11.331  22.655  14.995
95185W        W61594  20.347  44.990  11.543
95186W        W61595  15.782   8.639  10.418
95187W        W61596   0.267  23.101   4.123
95188W        W61597  15.802  41.059   2.929
95189W        W61598  33.566  36.243  10.874
95190W        W61599  22.738  44.303   2.743
95191W        W61600  38.307  10.176  12.760
95192W        W61601   8.472  44.568  14.420
95193W        W61602  13.600  40.440   2.878
95194W        W61603  34.992  15.778   4.094
95195W        W61604  30.554   2.997  12.085
95196W        W61605  39.441  19.507   3.520
95197W        W61606  41.293   0.448  13.099
95198W        W61607  34.621  44.250  14.557
95199W        W61608  43.511   5.186  11.032
95200W        W61609  17.153  26.228   4.613
95201W        W61610  38.390   1.503   2.201
95202W        W61611  29.358  35.513   4.425
95203W        W61612  20.969  14.269  14.929
95204W        W61613   2.820   3.573  12.983
95205W        W61614  39.391  40.526   1.959
95206W        W61615  34.333  32.398   4.896
95207W        W61616  23.491  32.677   4.264
95208W        W61617  33.433   7.998   1.957
95209W        W61618  40.149  23.142  13.871
95210W        W61619   2.012  40.588   1.431
95211W        W61620  42.702  29.925   3.496
95212W        W61621  28.319  15.341  14.087
95213W        W61622  29.048  33.707   3.098
95214W        W61623   3.597   8.854   4.168
95215W        W61624  42.768   1.013   3.184
95216W        W61625  35.671   2.398  14.893
95217W        W61626  14.794   5.418   0.323
95218W        W61627   0.456  30.918  14.907
95219W        W61628  10.531  25.560   4.282
95220W        W61629  23.692  31.429  14.086
95221W        W61630   1.735  26.535  13.003
95222W        W61631  10.571  29.628   1.877
95223W        W61632  29.068  43.777   1.238
95224W        W61633  38.143  23.173   1.873
95225W        W61634   2.000  16.654   1.376
95226W        W61635  43.030  29.516  14.355
95227W        W61636   1.269  38.967   2.142
95228W        W61637  30.874  21.643   0.235
95229W        W61638  38.919  25.191   1.627
95230W        W61639  31.807  35.160   2.826
95231W        W61640  21.115  30.991  12.050
95232W        W61641  30.036  16.268  13.338
95233W        W61642  15.760   3.830  14.119
95234W        W61643   4.972  18.621   2.936
95235W        W61644  44.369  12.617   1.990
95236W        W61645  33.706   0.065  14.741
95237W        W61646  24.132  21.199  10.202
95238W        W61647   5.914   6.243   3.616
95239W        W61648  42.381  21.148  10.322
95240W        W61649  27.179   7.780  12.786
95241W        W61650   9.404  23.841   2.840
95242W        W61651  43.487  20.088  11.218
95243W        W61652  43.036  15.981   3.265
95244W        W61653  19.032  12.095  12.357
95245W        W61654  34.195  38.235  14.866
95246W        W61655   7.279  35.315  11.406
95247W        W61656  35.362  20.114   0.262
95248W        W61657  13.415  20.684  14.554
95249W        W61658  40.351   2.640  11.254
95250W        W61659  37.009  42.516  11.322
95251W        W61660  11.391  25.967   4.093
95252W        W61661  29.510  32.114   2.173
95253W        W61662  33.516  21.547   1.483
95254W        W61663  37.983  43.404   2.399
95255W        W61664  16.202  24.565  12.941
95256W        W61665  20.967  18.157  10.549
95257W        W61666  16.869  25.167  11.109
95258W        W61667  26.870   7.170  10.708
95259W        W61668  20.636   7.564   2.629
95260W        W61669  44.121  35.029   0.372
95261W        W61670  39.511  13.949   4.737
95262W        W61671   1.684  21.342  11.084
95263W        W61672  38.427  23.721  13.765
95264W        W61673   2.915   8.939  12.912
95265W        W61674  27.604  32.937  13.870
95266W        W61675  25.273  33.934   0.323
95267W        W61676  20.203  23.920  13.539
95268W        W61677   5.445  15.697   0.425
95269W        W61678  13.751   7.630  13.950
95270W        W61679  21.672  15.243  10.685
95271W        W61680  38.185  12.455   1.633
95272W        W61681  38.630  14.195  11.101
95273W        W61682  37.874  34.729   2.463
95274W        W61683  33.668  41.991  14.885
95275W        W61684   7.452  36.815  14.802
95276W        W61685  34.385  26.612  12.885
95277W        W61686  41.302  32.157  10.766
95278W        W61687  29.335  25.756  12.993
95279W        W61688  36.009  36.611   4.780
95280W        W61689  11.920  31.833  10.730
95281W        W61690  34.392  16.790  11.691
95282W        W61691  31.300  22.601   1.038
95283W        W61692  40.917  20.772   2.900
95284W        W61693  42.088  11.136   2.287
95285W        W61694  30.813  43.489  11.620
95286W        W61695  31.917   0.281   4.169
95287W        W61696  25.143   3.294   1.936
95288W        W61697  30.503   6.767   3.657
95289W        W61698  22.145  44.363   0.899
95290W        W61699  44.793   8.411  12.090
95291W        W61700  43.959  31.155   3.189
95292W        W61701  17.126  28.015  13.468
95293W        W61702  22.988   5.477   3.742
95294W        W61703   8.170   9.815  14.026
95295W        W61704  41.987   5.851  14.832
95296W        W61705  17.853   1.839   4.745
95297W        W61706  27.370  30.224  13.223
95298W        W61707  18.188  24.163   3.610
95299W        W61708  17.523  33.485   3.882
95300W        W61709  34.471  19.574   4.182
95301W        W61710  30.277  15.748   0.975
95302W        W61711  11.645  21.010   0.269
95303W        W61712  22.473  16.295  11.942
95304W        W61713  37.332  30.271  13.620
95305W        W61714   8.755  16.717   0.317
95306W        W61715  40.234  20.440   0.306
95307W        W61716  16.327  43.882  11.450
95308W        W61717  11.151  15.434  10.799
95309W        W61718  10.666  10.615   4.606
95310W        W61719  16.242  25.253  11.501
95311W        W61720   4.845  36.891   0.863
95312W        W61721   5.856   5.359   4.511
95313W        W61722  36.524  28.428  11.943
95314W        W61723  35.499   3.792   2.205
95315W        W61724   2.444  36.056  11.900
95316W        W61725  13.669  31.818   3.205
95317W        W61726  28.048  41.045  13.882
95318W        W61727  36.443   8.727   1.986
95319W        W61728  40.999   9.756  14.924
95320W        W61729   1.246  11.869  14.782
95321W        W61730   1.996  23.106   2.701
95322W        W61731  32.518  21.598   1.847
95323W        W61732   5.209  39.435   4.934
95324W        W61733  29.517  26.048   1.249
95325W        W61734   1.077   9.263   0.244
95326W        W61735  19.758   0.680   3.283
95327W        W61736  31.042   9.327  13.452
95328W        W61737  13.731  20.433   2.643
95329W        W61738   4.530   3.812   3.836
95330W        W61739  28.479  30.172  10.790
95331W        W61740  36.154  40.262  12.111
95332W        W61741   1.621  40.557   4.703
95333W        W61742   3.944  22.714  11.446
95334W        W61743  28.192  37.362   1.295
95335W        W61744  27.210  11.825   1.231
95336W        W61745  42.561  18.296   2.626
95337W        W61746  34.445   3.848   3.119
95338W        W61747  25.468  38.348  12.971
95339W        W61748   5.977  22.155  13.583
95340W        W61749  11.814  26.401  14.812
95341W        W61750  43.979   3.731  12.711
95342W        W61751  43.742  30.649  12.033
95343W        W61752  28.165  43.241  11.882
95344W        W61753  14.751  35.490   2.417
95345W        W61754   8.562  19.451  10.295
95346W        W61755  44.717  24.812  11.296
95347W        W61756  19.852  31.347  14.383
95348W        W61757  15.841  18.006  10.167
95349W        W61758  16.800  31.883  14.415
95350W        W61759  24.016   1.348  12.736
95351W        W61760  35.832  38.570  14.231
95352W        W61761   0.030  29.191   3.241
95353W        W61762  23.596   4.621   1.002
95354W        W61763   3.221  33.408   3.673
95355W        W61764   6.686  19.826  14.264
95356W        W61765   3.203  15.242   0.705
95357W        W61766  44.289   6.284  13.777
95358W        W61767  18.863  20.643  10.705
95359W        W61768   3.760  30.501   4.040
95360W        W61769  28.161  26.558  13.291
95361W        W61770  40.213  35.501   1.571
95362W        W61771   5.957  16.094  10.700
95363W        W61772  31.563  33.419   4.601
95364W        W61773   0.296  23.424   0.834
95365W        W61774  40.336  11.681   2.840
95366W        W61775  29.204  19.788   4.727
95367W        W61776  42.000  31.253  13.859
95368W        W61777  18.766  25.709  10.620
95369W        W61778  42.491   5.799  10.710
95370W        W61779  10.072  28.025   3.492
95371W        W61780  30.880  26.918   4.155
95372W        W61781  39.554  30.922   1.266
95373W        W61782   1.747  11.134   4.153
95374W        W61783   6.443  10.774   4.877
95375W        W61784  29.382   1.048   9.700
95376W        W61785  42.825   2.972  12.484
95377W        W61786  22.108  19.998   3.561
95378W        W61787   9.911  14.036  10.749
95379W        W61788   3.311   7.650  14.937
95380W        W61789  12.102   4.714   2.274
95381W        W61790  12.473  24.493  13.853
95382W        W61791  14.705   9.712   4.887
95383W        W61792   9.666  18.285  10.947
95384W        W61793  30.934  15.317  12.576
95385W        W61794  23.224   6.871   4.062
95386W        W61795  28.649  37.570   1.326
95387W        W61796  13.838  24.182  11.068
95388W        W61797  22.086  40.041   1.894
95389W        W61798  12.666  35.609  14.234
95390W        W61799   4.263  17.686   3.718
95391W        W61800  23.646  23.109   3.572
95392W        W61801  34.942  38.039   0.292
95393W        W61802   6.393  27.102   4.557
95394W        W61803  35.413  17.690   0.728
95395W        W61804  32.842  24.035   3.606
95396W        W61805  25.166  16.729   1.704
95397W        W61806  11.276  11.257   2.212
95398W        W61807  34.860  22.241  12.378
95399W        W61808  17.278  22.283   5.098
95400W        W61809   1.351  36.987  10.936
95401W        W61810   3.901  29.187  14.944
95402W        W61811  35.653  30.481  14.331
95403W        W61812  16.750  43.904   1.786
95404W        W61813  16.648  23.493  13.913
95405W        W61814   3.248  19.318   3.909
95406W        W61815  16.832  29.238   2.871
95407W        W61816  12.054  32.645   1.328
95408W        W61817  39.247  36.006   3.364
95409W        W61818  44.759  34.500   2.118
95410W        W61819  13.984  30.362   3.502
95411W        W61820  29.691   8.663  10.503
95412W        W61821  27.815  26.267   2.654
95413W        W61822   7.453  29.042   2.968
95414W        W61823  17.180  10.139  11.846
95415W        W61824  37.598   8.771   3.729
95416W        W61825  14.203  20.036  14.225
95417W        W61826  19.110  15.605   0.743
95418W        W61827  28.382  29.748   3.082
95419W        W61828   8.763  17.927  11.218
95420W        W61829  34.708  37.902   0.778
95421W        W61830  35.675  19.190  11.476
95422W        W61831  17.373  14.684  13.339
95423W        W61832  41.849  42.349   2.488
95424W        W61833  39.765  10.862  14.181
95425W        W61834   1.507  24.598  11.567
95426W        W61835  43.926  25.799  11.582
95427W        W61836  10.782  36.125  11.230
95428W        W61837   9.260   2.524   1.116
95429W        W61838   6.860   3.688  12.616
95430W        W61839  19.224  43.324  11.336
95431W        W61840  43.814  33.372  12.605
95432W        W61841  19.997  21.748   4.583
95433W        W61842   4.988   5.224  10.878
95434W        W61843  35.090  21.166   1.978
95435W        W61844  42.688  22.888   2.345
95436W        W61845  25.426  28.615   4.836
95437W        W61846  25.302  30.847   0.831
95438W        W61847  33.123  39.917  11.619
95439W        W61848   6.794  25.163  13.036
95440W        W61849  10.750   3.341   3.293
95441W        W61850   3.294  27.019   4.215
95442W        W61851  42.984   0.857   2.693
95443W        W61852  10.305  13.877  14.011
95444W        W61853  12.532   8.162  14.935
95445W        W61854  35.860  19.621  11.107
95446W        W61855   0.757   3.541   5.012
95447W        W61856  36.802  43.552  13.113
95448W        W61857  20.169  12.855  14.017
95449W        W61858  31.671  22.506  12.154
95450W        W61859  39.755  25.128  11.598
95451W        W61860  34.498   2.780  13.453
95452W        W61861   8.407  42.792   3.674
95453W        W61862  10.929  36.651   2.988
95454W        W61863  37.195  21.334  14.770
95455W        W61864   1.187   8.826  13.069
95456W        W61865  12.677  16.228   3.240
95457W        W61866  14.350   8.194  12.027
95458W        W61867   5.208  32.200   4.138
95459W        W61868  10.242  15.815   2.449
95460W        W61869   6.007  15.546   3.671
95461W        W61870  31.346  31.511  14.460
95462W        W61871  29.134  14.688   2.570
95463W        W61872  43.786  19.163   3.729
95464W        W61873   4.487  35.797   4.093
95465W        W61874  14.712  44.330  10.657
95466W        W61875  38.529  38.781   0.406
95467W        W61876  40.974  27.565   4.117
95468W        W61877  14.217  33.928  10.121
95469W        W61878  15.056  32.191  14.023
95470W        W61879  38.540  33.330  12.898
95471W        W61880  23.617  11.200  13.841
95472W        W61881  23.595  20.147   3.830
95473W        W61882  23.636  14.012  11.127
95474W        W61883  22.005  28.432   3.608
95475W        W61884  30.559  32.663  12.109
95476W        W61885  16.081  14.771   1.845
95477W        W61886  19.455  10.876  13.697
95478W        W61887   5.702  40.985  12.490
95479W        W61888  28.910  26.449  13.892
95480W        W61889   7.126  40.662  14.584
95481W        W61890  17.047  41.970  13.837
95482W        W61891  39.851  12.948   2.566
95483W        W61892  31.136  41.434  10.766
95484W        W61893   2.648  12.141  12.066
95485W        W61894  30.137  10.821   0.805
95486W        W61895  43.467  23.035  11.950
95487W        W61896  42.576  44.342  12.424
95488W        W61897  11.166  16.275  11.161
95489W        W61898  30.261   0.531  14.466
95490W        W61899  40.355   6.162  12.972
95491W        W61900  32.423   1.414   1.459
95492W        W61901   7.834  36.442   3.469
95493W        W61902  43.025  34.283  10.131
95494W        W61903  29.654   2.442  11.936
95495W        W61904  15.368   5.864  14.753
95496W        W61905  14.426   3.987   4.103
95497W        W61906  44.363  37.680   2.191
95498W        W61907  21.721  15.486  14.298
95499W        W61908  16.826  28.897  10.508
95500W        W61909   0.766  19.753   1.547
95501W        W61910  32.846  31.381   2.330
95502W        W61911  22.252  19.046   4.567
95503W        W61912  33.212   9.824  12.885
95504W        W61913  11.444  34.007  11.819
95505W        W61914   5.366  26.979  12.004
95506W        W61915  37.065  44.709   3.762
95507W        W61916  11.115  12.100   3.028
95508W        W61917  27.147   4.190   0.391
95509W        W61918  42.754  23.461   0.389
95510W        W61919   3.221   2.173   3.749
95511W        W61920  27.899  13.708   3.170
95512W        W61921  36.029  16.644  12.461
95513W        W61922  29.144   2.248   1.271
95514W        W61923   4.030  18.543  14.921
95515W        W61924  40.376  38.861   3.864
95516W        W61925   2.449  17.640   2.757
95517W        W61926   1.708   6.207   1.298
95518W        W61927   9.285   5.519  11.604
95519W        W61928  12.585  40.014  11.566
95520W        W61929  18.077  44.724   1.839
95521W        W61930  34.851  16.256  14.376
95522W        W61931   0.451  10.391  14.501
95523W        W61932   0.779   9.342  13.785
95524W        W61933  23.553  38.765  13.027
95525W        W61934  13.334  11.510   0.877
95526W        W61935  25.253  28.399  12.067
95527W        W61936  43.371  43.751   3.694
95528W        W61937  16.082   0.328   0.237
95529W        W61938  13.943   0.458  12.352
95530W        W61939  15.642  26.737   3.641
95531W        W61940  10.339  12.341  10.742
95532W        W61941  43.512  29.545  12.705
95533W        W61942   3.860   3.448  12.065
95534W        W61943  37.801   1.000  13.235
95535W        W61944  18.217  43.447   0.046
95536W        W61945  44.245   6.628   4.617
95537W        W61946  31.437  11.474   0.470
95538W        W61947  25.835  39.359  13.048
95539W        W61948  28.705  37.517   3.607
95540W        W61949  43.234  40.468   1.739
95541W        W61950  16.660  35.159   1.231
95542W        W61951  42.052  39.798   3.081
95543W        W61952  36.357   5.923  12.649
95544W        W61953  18.760  17.264  14.040
95545W        W61954   3.735  19.042   1.168
95546W        W61955  23.448  25.128  11.058
95547W        W61956  16.107   7.331   4.488
95548W        W61957  16.869  32.981  12.499
95549W        W61958  23.106  27.529   2.854
95550W        W61959  26.376  42.877  14.407
95551W        W61960  38.930  35.799  14.920
95552W        W61961  28.044  13.366   4.080
95553W        W61962  10.237  20.629   0.342
95554W        W61963  22.394   8.313   2.333
95555W        W61964   0.738   1.628   0.851
95556W        W61965  33.566  22.503   4.300
95557W        W61966  29.502  23.251   4.552
95558W        W61967   0.501   4.285  14.956
95559W        W61968  25.941   5.233  11.682
95560W        W61969  22.629   9.824   1.811
95561W        W61970  40.819   3.451   3.372
95562W        W61971  43.438  29.862   4.239
95563W        W61972  37.390   3.812  14.756
95564W        W61973  28.494   1.910   1.497
95565W        W61974  38.908   0.537  10.728
95566W        W61975  11.188  38.723  12.075
95567W        W61976  10.787  35.603  12.727
95568W        W61977  24.021  14.136  13.204
95569W        W61978  19.789  44.966   2.643
95570W        W61979  44.701  14.775  13.698
95571W        W61980  31.079   2.950  14.964
95572W        W61981  44.026  41.914  14.023
95573W        W61982  14.246  33.154  13.319
95574W        W61983   7.224  10.876  14.927
95575W        W61984  27.123  36.582   2.655
95576W        W61985   1.904  31.705  13.081
95577W        W61986  42.429  16.090  11.463
95578W        W61987  34.136  30.364   2.197
95579W        W61988  25.667  22.546   3.513
95580W        W61989  43.794  37.502   0.983
95581W        W61990  34.387  11.791   3.200
95582W        W61991  12.499  38.794   4.006
95583W        W61992  29.013  15.019   0.835
95584W        W61993  26.090  37.011  12.931
95585W        W61994   9.099  35.984  13.333
95586W        W61995  28.899  38.891   1.336
95587W        W61996  28.048  26.407  12.405
95588W        W61997  32.458   1.493   0.447
95589W        W61998   5.336  36.435   3.275
95590W        W61999   5.647   6.057  13.140
95591W        W62000  43.371  22.037   2.725
95592W        W62001   3.369   3.033  13.634
95593W        W62002  31.613  43.003   2.434
95594W        W62003   9.028  38.637  11.470
95595W        W62004  38.349  28.627   1.368
95596W        W62005   0.945  34.909   0.413
95597W        W62006  41.867  12.250  11.346
95598W        W62007   0.890  39.899   4.585
95599W        W62008  10.136   7.754   1.049
95600W        W62009  36.108  32.986  13.001
95601W        W62010  26.027  12.318  14.410
95602W        W62011  36.334  16.303   3.406
95603W        W62012  12.698  33.881   1.290
95604W        W62013   6.709   7.916  11.528
95605W        W62014  12.620  40.709   2.262
95606W        W62015  13.237  39.575   0.344
95607W        W62016  39.445  43.354   2.928
95608W        W62017   1.050   3.081   2.021
95609W        W62018  16.225  14.284   1.313
95610W        W62019  10.334   0.516   2.249
95611W        W62020  19.614  43.294  10.537
95612W        W62021   2.477   3.355   1.892
95613W        W62022  34.873   0.212  10.527
95614W        W62023  36.143  20.817   4.253
95615W        W62024  30.158   7.733  11.653
95616W        W62025  41.414  35.809  12.504
95617W        W62026   1.191   2.412  13.130
95618W        W62027  42.415   9.870  12.137
95619W        W62028  17.097  14.677   3.733
95620W        W62029  25.153  32.511   0.192
95621W        W62030  40.248  10.312   4.797
95622W        W62031   3.079  24.272  10.170
95623W        W62032  34.139   8.611   4.683
95624W        W62033  37.310  33.060  14.352
95625W        W62034  38.269  14.915  12.852
95626W        W62035   3.902  26.601  13.424
95627W        W62036  30.590   2.543  12.930
95628W        W62037  35.641   0.332  14.813
95629W        W62038  10.621  33.925  12.488
95630W        W62039  39.050  10.152  14.324
95631W        W62040  11.568  14.619  10.890
95632W        W62041  37.959   0.374   3.517
95633W        W62042  26.581  25.132   5.071
95634W        W62043   4.847  29.913  12.952
95635W        W62044   5.339  10.376   0.518
95636W        W62045  12.273   1.963  13.937
95637W        W62046   6.149   3.018  11.606
95638W        W62047  20.646  42.954   3.107
95639W        W62048  17.442  26.375   5.020
95640W        W62049  42.387   5.249  13.230
95641W        W62050  18.744  39.358   1.483
95642W        W62051  20.713  18.823  13.985
95643W        W62052  17.484  10.085  11.205
95644W        W62053   5.131  32.406  11.084
95645W        W62054  17.153  25.196   0.128
95646W        W62055   6.217  25.006  14.786
95647W        W62056   9.053  15.351  12.091
95648W        W62057   2.246  15.282   1.328
95649W        W62058   1.997   0.727  13.343
95650W        W62059  19.321  38.421   0.317
95651W        W62060  34.479  31.967   4.614
95652W        W62061   6.503   7.692  11.951
95653W        W62062   7.300   8.225  13.411
95654W        W62063  40.307  32.080  14.454
95655W        W62064  32.230  32.852   4.832
95656W        W62065  29.293  10.185  11.604
95657W        W62066  27.752  16.803  12.213
95658W        W62067  40.791  11.945   0.830
95659W        W62068  40.918  26.853  12.798
95660W        W62069  20.319  15.205   1.800
95661W        W62070  28.031  35.077   4.987
95662W        W62071  41.134  31.136   1.423
95663W        W62072   9.701   6.179  12.619
95664W        W62073   1.248  32.747  11.474
95665W        W62074  10.834   6.869  11.281
95666W        W62075  40.801  36.982   3.854
95667W        W62076  19.332   7.135  14.502
95668W        W62077  36.973   9.657   1.841
95669W        W62078   4.900  14.187  13.844
95670W        W62079  27.232   7.302   2.233
95671W        W62080   0.074  20.140  13.629
95672W        W62081   8.134   1.343   3.137
95673W        W62082  44.915  18.808   3.708
95674W        W62083   9.092  37.287   0.976
95675W        W62084  43.911  40.086  12.131
95676W        W62085   6.758  35.603  14.932
95677W        W62086   1.292  17.699   3.371
95678W        W62087   2.220  35.871  14.847
95679W        W62088  11.709  34.805   0.467
95680W        W62089   7.539  29.164  11.470
95681W        W62090  31.418  20.040   4.700
95682W        W62091  32.180  23.126  13.108
95683W        W62092   3.454  14.288   4.940
95684W        W62093  34.925   1.556  11.714
95685W        W62094  34.974  33.930   0.310
95686W        W62095  35.994   2.631  11.896
95687W        W62096   9.736   3.535   1.919
95688W        W62097  24.760  24.938  12.103
95689W        W62098   6.750  28.582  12.321
95690W        W62099  25.124  19.785   0.011
95691W        W62100  44.019  27.065  10.878
95692W        W62101   8.851  25.543   0.680
95693W        W62102  29.431  10.528  14.813
95694W        W62103  34.446  42.027   4.503
95695W        W62104   8.770  25.968  11.080
95696W        W62105  14.126  18.124  14.420
95697W        W62106   7.106   7.767  13.631
95698W        W62107  13.035   4.121   4.122
95699W        W62108   1.808  27.926   0.810
95700W        W62109  26.109   3.911   2.808
95701W        W62110  23.031  34.915  14.799
95702W        W62111   9.641  30.846   4.741
95703W        W62112  10.911  33.484  14.115
95704W        W62113  13.703  19.736  13.106
95705W        W62114   1.311  12.319   3.745
95706W        W62115  33.690  25.614  14.335
95707W        W62116  34.104  14.032   1.474
95708W        W62117  26.706  23.072  10.282
95709W        W62118  27.262  38.604  10.234
95710W        W62119  25.521  32.067   3.529
95711W        W62120  37.597  20.685   3.155
95712W        W62121  43.965  16.191   1.659
95713W        W62122  12.334  13.866  11.494
95714W        W62123  13.003  43.300  13.274
95715W        W62124  39.530  25.178   3.218
95716W        W62125  28.448  23.137   1.482
95717W        W62126  30.718  29.921  12.065
95718W        W62127  23.467  24.734  13.511
95719W        W62128  11.611  33.285   1.685
95720W        W62129  13.918  38.167  12.044
95721W        W62130  35.561  43.966  11.195
95722W        W62131   1.391  15.395   1.231
95723W        W62132  32.521   7.035  11.184
95724W        W62133  40.775  16.981  14.446
95725W        W62134  28.915  21.057   2.036
95726W        W62135  14.637  16.962   4.209
95727W        W62136  32.309  10.811  14.336
95728W        W62137  26.135  27.716   0.913
95729W        W62138  16.745  28.621  10.970
95730W        W62139   7.455  27.208  12.373
95731W        W62140   0.929  26.558   1.896
95732W        W62141  22.946  13.140   2.269
95733W        W62142  37.118  29.374  10.473
95734W        W62143  27.102  12.100   0.767
95735W        W62144   1.941  28.927  12.468
95736W        W62145   7.719  16.247  13.839
95737W        W62146  29.517  11.158  12.584
95738W        W62147  36.880  36.012   2.704
95739W        W62148   7.906  40.540  13.532
95740W        W62149   5.946  31.157  13.438
95741W        W62150   3.032  28.878  11.973
95742W        W62151  16.425  39.482  14.783
95743W        W62152  37.939  13.062  14.244
95744W        W62153   1.021  39.868   0.793
95745W        W62154  18.782  17.899   0.505
95746W        W62155  23.494   1.443  12.480
95747W        W62156  31.421  12.686  14.790
95748W        W62157   7.944  18.540  12.952
95749W        W62158  37.456  27.053  13.428
95750W        W62159  22.636   7.386  12.142
95751W        W62160  21.268  14.846   0.333
95752W        W62161  13.130  31.488  14.544
95753W        W62162  22.033  15.864  14.921
95754W        W62163   7.920  21.182   1.357
95755W        W62164  20.359  19.287   2.787
95756W        W62165  36.251  15.124  11.449
95757W        W62166  23.052  14.901  13.850
95758W        W62167  42.908  12.070  13.623
95759W        W62168  13.380  33.531  10.286
95760W        W62169  10.642  44.884  14.004
95761W        W62170  30.377  37.510   0.812
95762W        W62171   7.747   8.190   4.283
95763W        W62172  38.970  42.015   4.772
95764W        W62173  38.035  32.949   2.213
95765W        W62174  44.052   7.920  13.716
95766W        W62175  38.784  32.605   1.376
95767W        W62176  26.646  38.290   0.345
95768W        W62177  16.376  23.310  13.396
95769W        W62178  27.956  44.457  14.877
95770W        W62179  19.718  37.744   3.963
95771W        W62180  37.940  32.402   1.544
95772W        W62181   9.096  29.220  10.663
95773W        W62182   4.400  23.458   3.127
95774W        W62183  29.959   4.801   4.823
95775W        W62184   5.701  22.663   4.129
95776W        W62185  44.836  23.087   3.870
95777W        W62186  27.665   5.341  14.280
95778W        W62187   4.486  36.522   2.822
95779W        W62188  41.718  21.524   4.315
95780W        W62189  42.380  37.400  10.457
95781W        W62190  21.956  34.585   4.547
95782W        W62191  17.619  14.493   3.863
95783W        W62192  33.435  16.700  13.121
95784W        W62193  31.365  11.427   1.712
95785W        W62194  38.627  37.116   2.750
95786W        W62195  21.679   3.103  12.971
95787W        W62196   5.450   0.852  14.825
95788W        W62197  30.044   5.589  12.549
95789W        W62198   8.713  15.194  14.596
95790W        W62199  41.321  30.137   1.606
95791W        W62200  28.736   7.933  14.942
95792W        W62201  25.593  18.067   4.306
95793W        W62202   4.127  41.948   0.938
95794W        W62203  37.777   2.402   4.985
95795W        W62204  38.345   5.358   1.059
95796W        W62205  29.456  25.974  14.338
95797W        W62206  19.258  24.699  14.469
95798W        W62207  24.086  12.291   3.340
95799W        W62208  24.058  31.293  12.055
95800W        W62209   1.988  36.343  14.982
95801W        W62210  36.524  32.542  11.845
95802W        W62211  10.313  17.777  13.056
95803W        W62212   6.844  12.738  12.199
95804W        W62213  21.971  16.177  12.037
95805W        W62214  29.633  26.462  14.324
95806W        W62215  13.372  23.748  13.964
95807W        W62216  27.197  18.784  12.464
95808W        W62217  44.119  27.419   4.137
95809W        W62218  21.732  20.728  10.521
95810W        W62219  36.285   6.775   4.906
95811W        W62220  41.994   4.147  11.107
95812W        W62221   1.437  37.105   3.176
95813W        W62222  43.024  43.619   2.618
95814W        W62223   5.657  37.766  12.973
95815W        W62224  41.820   3.236   2.482
95816W        W62225  26.266  25.077   1.870
95817W        W62226  11.456  23.166   0.077
95818W        W62227  34.598   4.812   4.530
95819W        W62228  22.027  32.546  13.445
95820W        W62229  39.074  15.823  12.045
95821W        W62230  31.674   0.687   3.363
95822W        W62231  44.851  20.989   4.080
95823W        W62232  27.408  33.164   3.729
95824W        W62233  11.527  39.679  13.825
95825W        W62234   1.033  12.859  13.394
95826W        W62235  37.151   2.663  13.467
95827W        W62236  10.680  43.332   0.357
95828W        W62237  23.259  44.464  13.799
95829W        W62238   3.864  44.525   1.874
95830W        W62239  14.584  11.317   3.291
95831W        W62240  14.962  29.723   4.787
95832W        W62241  27.615  44.126   3.667
95833W        W62242  14.507  34.124  13.847
95834W        W62243  12.898  36.136  14.079
95835W        W62244  34.857   0.872  13.522
95836W        W62245  33.107  15.460   2.233
95837W        W62246  29.188   6.951  12.266
95838W        W62247  14.379  35.923  14.297
95839W        W62248  27.735   0.757  14.768
95840W        W62249   3.440  43.752   2.378
95841W        W62250  14.881  35.482  11.650
95842W        W62251  26.860  19.125   1.644
95843W        W62252  27.119  21.740   5.027
95844W        W62253   1.418  43.751   0.337
95845W        W62254  16.284  24.401  11.973
95846W        W62255  22.560  16.774   1.859
95847W        W62256  17.265  24.196  13.790
95848W        W62257  39.443  18.118   2.148
95849W        W62258  10.402  41.457   0.425
95850W        W62259  36.272  31.066  14.476
95851W        W62260  27.623  39.744   3.137
95852W        W62261  24.172  15.359   1.647
95853W        W62262  16.712   7.144  12.559
95854W        W62263  25.059  39.754  10.992
95855W        W62264  19.956  34.211  11.705
95856W        W62265  29.218   6.645  10.829
95857W        W62266  43.457   6.250   2.298
95858W        W62267  16.614  33.812  11.536
95859W        W62268   5.836  31.445   1.235
95860W        W62269  35.934   6.247  13.361
95861W        W62270  43.227  20.088   1.066
95862W        W62271  42.349   4.772  12.999
95863W        W62272  12.702  37.962  11.359
95864W        W62273  34.423  23.730   2.700
95865W        W62274  24.957  21.040  11.316
95866W        W62275  21.625  18.588   4.300
95867W        W62276   4.231  18.638  11.913
95868W        W62277   4.939   0.651   0.376
95869W        W62278  22.171  41.566   2.938
95870W        W62279  40.533  44.517   4.798
95871W        W62280  38.444  15.132  14.279
95872W        W62281  44.698  44.518  14.561
95873W        W62282  26.641   7.279  11.153
95874W        W62283  32.215  16.579   1.237
95875W        W62284  12.432  19.064   4.975
95876W        W62285   8.100  30.901  13.405
95877W        W62286  10.472  31.833   9.801
95878W        W62287  23.550  27.347   3.037
95879W        W62288  19.152   6.863  12.445
95880W        W62289  43.570  15.342   2.534
95881W        W62290  28.074  44.720   1.378
95882W        W62291  43.150   9.518   2.750
95883W        W62292  37.093  38.316  14.805
95884W        W62293  42.467  24.472  10.703
95885W        W62294  27.158   9.923   0.428
95886W        W62295  34.702  40.758  12.117
95887W        W62296   9.852   0.278   1.480
95888W        W62297  37.582  15.170  12.028
95889W        W62298  10.870  35.581   0.765
95890W        W62299  41.073  13.168   2.778
95891W        W62300  17.552  40.231  12.691
95892W        W62301   8.356  15.824   0.607
95893W        W62302  12.193  16.573   1.854
95894W        W62303  10.672  30.841  11.169
95895W        W62304   4.402   5.363   2.492
95896W        W62305   9.614  28.154  10.511
95897W        W62306  29.590   1.130   1.808
95898W        W62307  29.629  29.455  11.070
95899W        W62308  14.475  20.277  11.541
95900W        W62309  12.321  12.616   0.798
95901W        W62310  41.038   9.824  13.529
95902W        W62311  19.100  27.106   0.507
95903W        W62312  44.829   1.089   4.238
95904W        W62313  41.784  32.345   1.261
95905W        W62314  24.907  29.670   4.206
95906W        W62315  44.500   4.209  12.009
95907W        W62316  40.319  19.249   0.939
95908W        W62317  34.191  32.593   3.701
95909W        W62318  17.131  18.407  13.499
95910W        W62319   7.087   3.774  11.125
95911W        W62320  15.222  11.686   2.341
95912W        W62321  18.234   1.597  14.006
95913W        W62322  10.714  25.157   2.210
95914W        W62323  42.722   7.668  13.567
95915W        W62324  25.605  38.476   4.420
95916W        W62325  26.251  31.527  13.012
95917W        W62326  18.557  40.527   2.225
95918W        W62327  34.877   4.454  13.988
95919W        W62328   4.726  36.375   4.844
95920W        W62329  39.373  11.120   2.157
95921W        W62330   6.238  34.393   1.276
95922W        W62331  18.638   1.507   3.443
95923W        W62332  34.829  20.719   4.300
95924W        W62333  30.501  43.933   4.143
95925W        W62334  15.232  41.315   2.936
95926W        W62335  13.610  11.072  12.435
95927W        W62336  33.705   8.890  10.691
95928W        W62337  32.657   7.191   2.364
95929W        W62338  17.473  34.995   4.168
95930W        W62339  30.368  31.566  13.636
95931W        W62340   9.038  33.058   1.264
95932W        W62341   7.447  38.100   2.406
95933W        W62342  33.398   1.730   1.223
95934W        W62343   3.677   4.745   3.206
95935W        W62344  30.369  17.677   2.358
95936W        W62345  42.857   6.896  13.175
95937W        W62346  29.064  43.576   4.827
95938W        W62347  22.926  21.305   3.662
95939W        W62348  38.785  30.116  11.506
95940W        W62349  21.674   2.848  13.543
95941W        W62350  43.951   1.437   4.018
95942W        W62351  37.486   9.752   1.342
95943W        W62352   2.227  41.451   4.515
95944W        W62353  38.319   6.136  12.479
95945W        W62354  43.573   5.470   3.239
95946W        W62355  42.985   9.156   3.614
95947W        W62356   4.119   7.642   0.388
95948W        W62357  40.917  38.935  11.847
95949W        W62358   4.809   3.493  13.547
95950W        W62359  36.779  14.067  12.904
95951W        W62360  19.396  37.020   1.179
95952W        W62361  26.181  31.285  12.535
95953W        W62362  20.724   5.707  11.886
95954W        W62363   0.395   9.103  14.083
95955W        W62364  42.775   5.886   4.095
95956W        W62365  34.418  37.994   4.782
95957W        W62366  44.296  20.795  11.881
95958W        W62367  34.178  23.763   4.661
95959W        W62368  15.104  18.748  13.408
95960W        W62369  41.871   0.464  14.349
95961W        W62370   2.382  43.983   0.682
95962W        W62371  24.381  11.413   3.580
95963W        W62372  37.626   2.423  13.498
95964W        W62373  28.124   7.168  14.488
95965W        W62374  17.235  35.603  11.078
95966W        W62375  32.123  24.446  14.382
95967W        W62376  10.831  42.935   0.733
95968W        W62377  20.765  38.423   0.660
95969W        W62378  39.285  36.729  11.117
95970W        W62379  26.691  25.793   2.615
95971W        W62380   1.153  34.113   1.466
95972W        W62381  29.120   5.319  11.468
95973W        W62382  40.042  23.647   0.941
95974W        W62383   6.130  35.935   3.672
95975W        W62384  11.821  40.873  12.624
95976W        W62385   1.681  35.050  13.074
95977W        W62386  24.949  39.454   3.865
95978W        W62387  38.485  30.350  10.391
95979W        W62388  42.608  38.460   2.403
95980W        W62389  21.983  38.507   1.902
95981W        W62390  20.224  33.377  13.893
95982W        W62391  11.599   0.398   0.203
95983W        W62392  13.263  26.714   5.071
95984W        W62393  13.563  27.500   1.750
95985W        W62394  13.845  23.381   4.563
95986W        W62395  15.957  19.560  12.637
95987W        W62396  32.390  15.678  14.666
95988W        W62397  35.550  24.610   0.323
95989W        W62398  44.490  29.038   2.199
95990W        W62399   5.730  16.189  13.717
95991W        W62400  21.456  21.549  13.465
95992W        W62401  33.542  31.721  11.477
95993W        W62402  29.578  29.593  12.109
95994W        W62403  17.233  33.948   1.701
95995W        W62404  36.315  12.363  10.745
95996W        W62405  42.171  21.646   2.410
95997W        W62406  17.648  44.240  12.124
95998W        W62407  17.554  31.635   0.436
95999W        W62408  35.530  25.135  14.421
96000W        W62409   0.370  15.414   1.879
96001W        W62410  27.791  11.774  13.926
96002W        W62411  29.432   3.747  13.315
96003W        W62412  44.739  30.465   0.063
96004W        W62413  37.538  28.669  11.651
96005W        W62414  11.220   3.543   1.715
96006W        W62415  19.698  34.558  10.735
96007W        W62416   7.223   0.700  14.390
96008W        W62417  30.942  30.022  13.424
96009W        W62418  44.834  11.516   4.559
96010W        W62419  38.343  29.439   4.245
96011W        W62420   2.175  17.629  10.559
96012W        W62421   8.322   8.387  13.579
96013W        W62422  25.325   9.879  11.578
96014W        W62423   3.600  21.306  14.886
96015W        W62424  36.762  40.353   2.244
96016W        W62425   5.622  44.883  14.472
96017W        W62426  29.960  12.111   1.833
96018W        W62427  42.954  41.464  13.966
96019W        W62428  22.060  42.423   4.528
96020W        W62429  30.663   5.754   0.107
96021W        W62430  27.476  28.901   4.989
96022W        W62431  41.265  13.058   0.475
96023W        W62432   0.494  43.431   4.511
96024W        W62433  15.430  27.064   0.326
96025W        W62434   1.109  39.514  11.564
96026W        W62435  24.634  41.721  13.030
96027W        W62436  28.482  10.756   4.558
96028W        W62437   1.238   2.776   4.395
96029W        W62438  31.515  43.798   1.846
96030W        W62439   5.744  41.073  12.997
96031W        W62440   7.719   4.487   1.922
96032W        W62441  28.897  24.439   0.478
96033W        W62442   0.228  33.564  12.460
96034W        W62443  34.188   8.650  11.719
96035W        W62444  30.551   8.385   3.182
96036W        W62445  34.391  14.016   4.151
96037W        W62446  41.555   2.542  11.583
96038W        W62447  38.527  14.566  11.924
96039W        W62448  10.321  39.590  11.510
96040W        W62449  41.699   6.350   1.755
96041W        W62450  20.778   3.697  12.745
96042W        W62451  11.619   3.013  10.601
96043W        W62452  25.241  21.776  11.233
96044W        W62453  13.760  20.164  12.806
96045W        W62454  44.046   8.263   4.658
96046W        W62455  21.632  36.562  13.584
96047W        W62456  21.268  16.343   4.106
96048W        W62457  30.912   7.835  14.515
96049W        W62458  21.486  15.887   4.057
96050W        W62459  39.878  24.099  12.922
96051W        W62460  33.889  40.617  14.790
96052W        W62461  43.757  30.942   0.287
96053W        W62462  12.287   0.485   0.738
96054W        W62463  41.966  23.053   4.311
96055W        W62464  39.830  24.034   0.678
96056W        W62465  10.157  14.388   4.642
96057W        W62466  40.970   0.760   2.292
96058W        W62467   9.283  29.506   4.578
96059W        W62468  30.876  43.035  10.622
96060W        W62469  42.490   5.197   3.767
96061W        W62470  10.611  11.291  14.007
96062W        W62471   4.431  14.733  12.445
96063W        W62472  24.786  15.188  12.969
96064W        W62473  23.756  15.245  10.641
96065W        W62474   6.253  26.662   0.266
96066W        W62475  36.992  10.828  11.784
96067W        W62476  21.445  25.970   2.369
96068W        W62477  13.028   4.796  10.646
96069W        W62478  10.464  33.699  12.955
96070W        W62479  44.676  28.877   2.678
96071W        W62480  27.144   6.235  14.207
96072W        W62481  14.237  25.274  14.804
96073W        W62482   3.640  30.676   0.529
96074W        W62483  25.457  21.071  13.876
96075W        W62484  10.238  27.375  13.933
96076W        W62485  21.466  25.897   3.618
96077W        W62486  23.691  31.954  13.920
96078W        W62487  19.967  21.572  13.375
96079W        W62488  27.990  31.349  11.944
96080W        W62489  13.269   9.738  13.381
96081W        W62490   2.147  13.690  12.480
96082W        W62491   5.689  11.367  10.744
96083W        W62492  36.891  37.090  11.216
96084W        W62493   8.792  38.688  12.463
96085W        W62494  16.777   1.840  12.648
96086W        W62495  12.653  37.975  12.801
96087W        W62496  22.036  36.566   2.581
96088W        W62497  35.676  42.779   1.329
96089W        W62498  16.187   6.362  14.424
96090W        W62499  26.785   8.568   4.500
96091W        W62500   8.422  27.610  11.038
96092W        W62501  38.077   0.695  11.298
96093W        W62502  17.223  10.342  12.806
96094W        W62503  30.079   9.743   3.156
96095W        W62504  37.158  23.972   0.752
96096W        W62505  33.853  22.595   2.254
96097W        W62506   0.223  37.104  11.479
96098W        W62507  22.777  13.088   4.513
96099W        W62508   2.188  23.463  13.077
96100W        W62509  28.527  20.075  14.020
96101W        W62510  26.895  25.767  12.207
96102W        W62511  21.753  19.073   2.286
96103W        W62512  15.302  20.037   5.398
96104W        W62513  37.748  19.525  12.008
96105W        W62514  43.473  30.085  13.893
96106W        W62515  14.099  27.486   1.775
96107W        W62516  18.260  38.856  14.921
96108W        W62517  44.989  18.106  13.921
96109W        W62518  22.799  17.717  13.935
96110W        W62519  25.118  29.192  14.006
96111W        W62520  23.706  26.066   0.782
96112W        W62521  40.382  34.983  12.257
96113W        W62522  30.131  42.050  13.834
96114W        W62523  26.161   1.931  14.736
96115W        W62524  22.519  18.748  12.728
96116W        W62525  27.436   7.789   4.957
96117W        W62526  10.818   3.514   0.554
96118W        W62527  31.814  35.470  10.719
96119W        W62528  13.628  36.448   3.226
96120W        W62529  15.128   9.778   4.588
96121W        W62530  12.914  39.783   2.328
96122W        W62531  22.783  10.207   2.127
96123W        W62532  25.665  44.855   2.217
96124W        W62533  31.449  29.417   2.361
96125W        W62534  15.555  14.426  14.466
96126W        W62535  30.422  36.610  14.276
96127W        W62536  34.371  22.235   0.221
96128W        W62537  10.157  36.637  10.978
96129W        W62538  21.570  23.976   3.751
96130W        W62539  36.802  15.258  12.587
96131W        W62540  27.779  15.221   3.318
96132W        W62541  22.485   5.851  11.504
96133W        W62542   8.928  42.847  11.216
96134W        W62543   2.188  16.066  13.935
96135W        W62544  18.338  13.817   0.409
96136W        W62545  38.083  22.649   1.167
96137W        W62546  12.048  12.125  12.768
96138W        W62547  40.447   4.240   3.717
96139W        W62548  17.553  36.598   4.257
96140W        W62549  27.548  22.032  11.717
96141W        W62550  40.077  19.044  11.961
96142W        W62551  44.315  13.783  14.194
96143W        W62552   7.448  43.516  12.827
96144W        W62553  33.327  25.859   0.768
96145W        W62554  32.364  42.791  10.733
96146W        W62555  28.052  25.615   1.865
96147W        W62556   7.502  22.835   1.765
96148W        W62557  17.650  18.620  14.896
96149W        W62558  19.780  40.013   3.100
96150W        W62559  34.890  32.123  10.563
96151W        W62560  14.684   9.633   4.308
96152W        W62561  37.406  31.809  13.083
96153W        W62562  38.277  29.130   2.912
96154W        W62563  24.706   8.921  10.632
96155W        W62564  10.322  26.964  14.279
96156W        W62565   7.704  23.787   3.013
96157W        W62566   6.214  33.451   3.606
96158W        W62567   7.446  35.025  12.920
96159W        W62568  31.024  33.097   4.617
96160W        W62569  23.422  39.569  13.413
96161W        W62570  44.626  10.401   0.629
96162W        W62571  40.298  15.631   4.593
96163W        W62572   0.443   1.468  12.605
96164W        W62573  18.931  37.244  12.560
96165W        W62574  34.306  20.190   3.692
96166W        W62575  31.535  40.067  14.310
96167W        W62576  43.606  12.450   1.763
96168W        W62577  43.474  27.970   1.939
96169W        W62578  32.434  32.234   0.239
96170W        W62579  40.368  21.482   0.403
96171W        W62580   4.219  42.723   3.143
96172W        W62581  14.061  15.638  14.535
96173W        W62582  24.766  12.061   1.929
96174W        W62583  37.274  39.987  13.400
96175W        W62584  23.711  18.338   2.319
96176W        W62585  38.210  16.102   4.953
96177W        W62586  33.067  38.571  10.954
96178W        W62587  24.282  27.043   4.643
96179W        W62588  23.812  37.908  13.966
96180W        W62589  40.594  18.260   2.718
96181W        W62590  42.173  39.909   2.204
96182W        W62591  37.011  39.767   0.159
96183W        W62592  33.289   8.856  14.043
96184W        W62593   2.175  31.877  14.468
96185W        W62594  21.566  39.367  11.032
96186W        W62595  20.375  16.635   0.729
96187W        W62596  23.925  20.802   4.884
96188W        W62597  28.883  44.582   0.565
96189W        W62598  42.816  19.317  13.775
96190W        W62599  38.399  34.487   1.347
96191W        W62600  38.967  40.137  13.657
96192W        W62601  25.466  16.710  11.475
96193W        W62602  37.114   0.742   0.040
96194W        W62603  37.696  21.670   1.791
96195W        W62604   8.629  27.254   2.746
96196W        W62605   6.188  31.148   2.814
96197W        W62606  15.769   9.173  10.460
96198W        W62607  14.724  16.037   0.079
96199W        W62608  18.558  14.398   2.818
96200W        W62609  20.418   3.387   4.005
96201W        W62610   7.398  25.612  11.744
96202W        W62611  22.442  26.153   3.688
96203W        W62612   9.775   8.783  11.596
96204W        W62613  14.580  10.128  12.932
96205W        W62614  43.714  19.682  10.954
96206W        W62615  38.911  33.989   4.641
96207W        W62616  28.474  18.797   3.377
96208W        W62617   0.976  19.194  13.303
96209W        W62618  11.689  28.844   9.858
96210W        W62619  15.628   7.427   0.137
96211W        W62620   7.201  19.791   2.914
96212W        W62621  35.383  21.288   2.367
96213W        W62622  38.029  28.232  14.216
96214W        W62623  16.590  23.498  12.188
96215W        W62624  23.265  20.760   2.845
96216W        W62625   2.753  18.961   2.984
96217W        W62626  27.423  26.889  14.874
96218W        W62627  33.149  19.324   3.234
96219W        W62628  29.478  40.581   3.552
96220W        W62629   8.958  10.462  11.993
96221W        W62630  37.396  42.402   4.252
96222W        W62631  30.605  21.822   2.118
96223W        W62632  14.301  40.351  12.125
96224W        W62633  28.430   5.184  12.529
96225W        W62634  21.753   7.328  14.425
96226W        W62635  16.622  13.776  13.506
96227W        W62636   2.937  19.110  11.565
96228W        W62637  18.630  33.943  11.558
96229W        W62638  11.617  21.719   3.935
96230W        W62639  27.171  16.300   2.328
96231W        W62640  19.384  32.592  14.542
96232W        W62641   0.347  37.791   4.689
96233W        W62642   5.559  38.754  12.213
96234W        W62643  20.789  15.473  12.200
96235W        W62644   2.586  43.407  10.842
96236W        W62645   4.881   8.996  14.143
96237W        W62646   6.212  35.159   2.863
96238W        W62647  36.482  34.583  14.970
96239W        W62648  32.315  14.066  12.618
96240W        W62649   0.144  28.942   0.819
96241W        W62650   6.143  28.093   3.207
96242W        W62651   4.472  13.583   1.721
96243W        W62652  27.039  21.668  11.016
96244W        W62653  10.366  28.524   2.812
96245W        W62654   3.787  37.828   1.250
96246W        W62655  28.611   2.740  10.616
96247W        W62656  10.294   4.805   3.642
96248W        W62657  44.434  31.140  14.867
96249W        W62658  19.115   3.189   3.900
96250W        W62659  25.455  32.611  12.807
96251W        W62660  20.084  28.570   3.498
96252W        W62661   3.371  34.504   0.932
96253W        W62662  21.050   8.004  14.542
96254W        W62663   3.631   4.279   3.438
96255W        W62664  32.917  18.690   2.010
96256W        W62665  19.209  24.183   1.083
96257W        W62666  44.671   0.887   2.980
96258W        W62667  10.885  27.721  12.388
96259W        W62668  18.736   3.276   3.143
96260W        W62669  10.181  32.077   3.690
96261W        W62670  26.947  33.453  12.544
96262W        W62671  25.278  43.830   4.278
96263W        W62672  35.204  31.995  12.041
96264W        W62673  11.618  44.803   1.923
96265W        W62674  25.852   2.480  13.008
96266W        W62675  39.523  28.738  12.587
96267W        W62676  37.459  27.907   0.658
96268W        W62677  44.263  18.638  14.369
96269W        W62678  12.853  19.768   3.641
96270W        W62679  30.529  38.627  14.442
96271W        W62680  41.997  21.171  13.437
96272W        W62681  43.733   4.268  13.532
96273W        W62682  19.963   1.670  10.312
96274W        W62683  28.350  25.123   9.629
96275W        W62684   5.213  39.169  14.399
96276W        W62685  13.084   3.473  12.471
96277W        W62686  21.461   2.379  13.577
96278W        W62687   8.762  44.001  13.101
96279W        W62688  30.541  42.044  12.532
96280W        W62689  11.267   0.202   2.632
96281W        W62690  14.924  34.207  14.980
96282W        W62691  38.511  42.341  12.936
96283W        W62692   2.637  17.699   3.572
96284W        W62693   2.298  36.670  14.372
96285W        W62694  18.113   5.902  10.411
96286W        W62695  44.858  33.103   0.927
96287W        W62696  39.029  44.823   5.170
96288W        W62697  17.108   3.786  12.416
96289W        W62698  28.460   8.053   3.922
96290W        W62699  18.070  34.363   1.412
96291W        W62700  29.986  23.413   4.384
96292W        W62701  44.024  33.404  13.078
96293W        W62702  42.755  38.979  10.598
96294W        W62703  26.211  35.551  11.378
96295W        W62704  17.329   1.085  11.788
96296W        W62705  18.604   2.918   1.659
96297W        W62706   7.343  34.545   2.260
96298W        W62707   3.286  16.086   0.379
96299W        W62708  35.488  41.446  12.117
96300W        W62709  20.564  41.217   2.998
96301W        W62710  14.546  10.763  11.561
96302W        W62711  36.865  20.041  12.129
96303W        W62712  15.348  20.953  11.565
96304W        W62713  38.727  19.634   1.723
96305W        W62714  16.672  33.707   1.343
96306W        W62715   4.574  25.040  10.703
96307W        W62716  13.205  18.042  11.913
96308W        W62717  16.911  23.092  14.192
96309W        W62718  39.376   6.090   1.759
96310W        W62719  10.184  28.999  10.888
96311W        W62720  34.307  26.920  10.926
96312W        W62721  38.831  28.916  11.966
96313W        W62722  16.134  11.214  11.993
96314W        W62723  29.043  42.346   1.813
96315W        W62724  41.513  16.311  11.431
96316W        W62725  26.052  19.310  14.221
96317W        W62726   3.936  22.946   0.729
96318W        W62727  16.746  27.719   3.736
96319W        W62728  20.963  22.248  13.476
96320W        W62729  24.506   2.209  12.875
96321W        W62730  15.126  12.330   1.290
96322W        W62731  20.944  33.432  11.508
96323W        W62732  43.531  15.557   4.432
96324W        W62733  25.531  26.289  10.110
96325W        W62734  17.311  35.293   1.638
96326W        W62735   8.609   1.629   3.115
96327W        W62736  27.653   7.392   1.392
96328W        W62737  39.726  28.822  13.056
96329W        W62738  26.538   9.161  12.786
96330W        W62739  39.835  32.416  13.465
96331W        W62740  17.718  33.894  10.838
96332W        W62741  36.697  33.466   3.669
96333W        W62742  31.598  42.076  14.920
96334W        W62743  17.439  19.231  14.427
96335W        W62744  20.870   1.881  12.137
96336W        W62745  30.900  29.365  13.518
96337W        W62746  43.225  35.106   3.773
96338W        W62747  21.660  34.324  14.767
96339W        W62748   8.325  37.561   2.879
96340W        W62749  14.903  43.309  11.521
96341W        W62750  29.571  44.223   3.734
96342W        W62751  38.597   1.323   1.304
96343W        W62752   8.438   0.279  13.810
96344W        W62753  13.219  39.260  14.931
96345W        W62754  13.664  22.205   2.260
96346W        W62755  32.050  32.255   3.384
96347W        W62756  16.152  11.313  10.899
96348W        W62757  36.512   4.627   3.869
96349W        W62758  14.843  18.558   4.897
96350W        W62759  20.569  14.242  10.686
96351W        W62760  17.762  34.346   3.621
96352W        W62761  20.394  29.504  12.921
96353W        W62762  36.001  30.703  13.940
96354W        W62763  26.686   4.282  13.510
96355W        W62764  23.323   9.040   4.098
96356W        W62765  14.811   0.070   1.431
96357W        W62766  42.510  33.017  13.451
96358W        W62767  35.602   4.198   9.792
96359W        W62768   7.909  20.732   0.961
96360W        W62769  19.302  24.995  13.476
96361W        W62770  37.135  30.651  11.584
96362W        W62771   5.688  36.383  13.280
96363W        W62772  21.554  40.870  12.364
96364W        W62773  37.788  32.850   4.116
96365W        W62774  33.871  34.531   1.972
96366W        W62775  15.917  10.645   1.378
96367W        W62776   1.159   8.972  13.779
96368W        W62777  35.517   8.313  10.649
96369W        W62778  40.910  15.111   0.531
96370W        W62779  13.057  31.140  11.005
96371W        W62780  31.116  15.439   9.893
96372W        W62781   1.164  42.883  11.119
96373W        W62782  41.852   9.758  14.089
96374W        W62783  22.062  23.696  10.730
96375W        W62784   6.107  10.838  14.240
96376W        W62785   2.486  19.816  13.964
96377W        W62786  29.429  31.337   2.694
96378W        W62787  34.536  32.887   4.658
96379W        W62788  19.086   4.382  14.161
96380W        W62789  12.085  35.202   3.952
96381W        W62790  20.497  34.605   3.558
96382W        W62791   6.358  43.974   0.078
96383W        W62792  29.524  23.047  12.066
96384W        W62793   7.162  21.831  10.084
96385W        W62794  27.706   5.942   3.123
96386W        W62795   1.763  12.404   3.503
96387W        W62796  41.996  33.194  14.438
96388W        W62797   7.728  15.778   4.019
96389W        W62798  39.343  26.059  10.739
96390W        W62799  10.667   4.456   1.858
96391W        W62800   7.652  19.081   4.224
96392W        W62801   9.280  30.082   5.408
96393W        W62802  35.150  41.049   1.688
96394W        W62803  32.115   9.434   4.773
96395W        W62804  28.456  38.326  10.790
96396W        W62805  34.491  23.747   1.395
96397W        W62806  14.080  13.417  11.909
96398W        W62807  21.204  38.195  10.617
96399W        W62808   3.247  42.028   3.754
96400W        W62809  11.943   0.069   1.572
96401W        W62810  28.493  24.109   4.085
96402W        W62811  10.126  26.319   3.875
96403W        W62812  44.429  19.795  11.121
96404W        W62813   6.071  26.613   2.390
96405W        W62814   9.216   5.709   2.368
96406W        W62815  43.399  34.869  11.677
96407W        W62816  12.356  13.614  11.933
96408W        W62817  32.105  21.160   4.267
96409W        W62818  11.782  38.050   2.743
96410W        W62819  10.093  14.162  12.647
96411W        W62820  22.990  25.689  10.672
96412W        W62821  21.470  21.548   5.359
96413W        W62822   0.580   9.181   0.107
96414W        W62823  39.800  12.791  12.588
96415W        W62824  10.918  24.435   0.825
96416W        W62825   1.461  25.160  13.463
96417W        W62826  35.051   1.912  12.629
96418W        W62827  41.241   8.201  14.600
96419W        W62828   0.066   1.930   4.774
96420W        W62829  24.530  30.999   4.970
96421W        W62830   1.190  19.671   4.115
96422W        W62831  18.308   3.649   3.131
96423W        W62832  29.669  13.776  13.522
96424W        W62833  40.411  32.346  12.837
96425W        W62834  12.874   2.802  10.923
96426W        W62835  44.775  23.142  13.134
96427W        W62836   0.751  13.945  13.414
96428W        W62837   0.976  42.288   0.372
96429W        W62838   6.292   6.837  11.561
96430W        W62839   8.387  29.637   1.667
96431W        W62840  32.779  19.019  13.637
96432W        W62841  12.681  27.127   2.348
96433W        W62842  15.955  38.826   1.408
96434W        W62843  42.543  14.382  11.634
96435W        W62844   2.054  25.204  11.193
96436W        W62845  34.487  35.443  12.145
96437W        W62846  29.547  28.472   3.319
96438W        W62847  10.724  12.230  12.537
96439W        W62848  13.231  11.637   0.391
96440W        W62849   2.595  16.554   3.378
96441W        W62850  42.987  21.751   0.239
96442W        W62851  40.004  28.432   1.688
96443W        W62852  29.095   6.758   0.528
96444W        W62853  17.445  35.844   4.900
96445W        W62854  13.374   6.855   1.248
96446W        W62855  40.082  20.228  14.047
96447W        W62856  33.087  37.590  13.943
96448W        W62857  40.826  10.263  14.969
96449W        W62858  29.950  29.518  14.880
96450W        W62859  40.432  13.159  12.551
96451W        W62860  39.482  18.584   3.167
96452W        W62861  31.312  36.485   2.867
96453W        W62862   4.716  35.148  14.987
96454W        W62863   8.700   3.890  13.038
96455W        W62864  15.251  35.531   0.044
96456W        W62865  37.849  23.694   3.533
96457W        W62866   1.689   9.761   4.139
96458W        W62867  29.581   6.643  12.085
96459W        W62868  43.400  14.127   5.046
96460W        W62869  18.537  14.284   4.065
96461W        W62870  20.114  32.389  13.019
96462W        W62871  15.707   2.427   3.397
96463W        W62872  25.275   7.086   3.273
96464W        W62873  23.206  24.940  14.798
96465W        W62874  37.981  18.354  14.471
96466W        W62875  28.029  33.037  14.526
96467W        W62876  17.346  18.718  10.957
96468W        W62877  43.897  29.280   1.272
96469W        W62878   4.479  18.815  14.874
96470W        W62879  41.446  12.665   1.290
96471W        W62880  28.523   7.696   3.229
96472W        W62881  26.400  34.660   0.852
96473W        W62882  17.695  17.600   2.626
96474W        W62883  31.661  43.888  14.806
96475W        W62884  11.969  18.781  14.017
96476W        W62885   8.884  11.068  14.302
96477W        W62886  22.648  22.063  10.540
96478W        W62887  24.693  13.109  13.355
96479W        W62888  28.904   7.129  14.765
96480W        W62889  12.480   2.378  12.198
96481W        W62890   8.110  42.478  12.489
96482W        W62891   5.154  44.791   4.512
96483W        W62892  34.411  20.491  13.857
96484W        W62893  30.372   6.192  10.940
96485W        W62894  22.342  35.538  13.777
96486W        W62895  38.122  36.204  14.443
96487W        W62896  21.020  35.415  13.440
96488W        W62897  15.145  39.025  12.648
96489W        W62898  13.565  36.937  12.879
96490W        W62899  38.634  31.993  14.036
96491W        W62900  28.933  21.104   4.897
96492W        W62901   3.843  41.259  13.802
96493W        W62902   3.414  24.453   0.908
96494W        W62903  13.248  13.069   4.166
96495W        W62904  18.802  22.410  13.816
96496W        W62905  31.439  12.635   2.235
96497W        W62906  36.025  33.573   4.147
96498W        W62907   4.933  38.281   1.662
96499W        W62908  10.111  11.141   0.482
96500W        W62909  39.514  10.341   2.678
96501W        W62910   8.263  32.863  14.755
96502W        W62911  31.583  30.427  12.176
96503W        W62912  43.312  17.049   2.307
96504W        W62913  37.822  31.023  13.441
96505W        W62914  39.507  13.516  10.792
96506W        W62915  36.667  42.758   0.113
96507W        W62916  38.313   9.216  14.871
96508W        W62917  39.166   4.218  11.095
96509W        W62918   1.686  29.949   1.644
96510W        W62919  11.598   9.938   3.181
96511W        W62920  34.953  32.143  13.803
96512W        W62921  27.766  25.346  13.421
96513W        W62922  38.990   3.462   2.709
96514W        W62923  37.058  27.021   2.633
96515W        W62924  44.208   5.694   0.146
96516W        W62925  18.762  41.292  12.067
96517W        W62926   6.911  20.081  11.303
96518W        W62927  29.150  26.717   0.684
96519W        W62928   1.852  21.100   2.203
96520W        W62929  25.989   3.729   2.316
96521W        W62930  28.259  23.969   4.524
96522W        W62931  22.204   0.185  14.930
96523W        W62932  12.689   6.269   4.731
96524W        W62933  25.119  23.537   1.261
96525W        W62934  33.406  41.568  12.530
96526W        W62935  13.137   2.864  12.494
96527W        W62936   7.762  39.432  10.474
96528W        W62937  38.489   2.745   4.633
96529W        W62938  14.048  25.440  14.046
96530W        W62939  13.769  34.474  13.842
96531W        W62940  35.280   8.397  12.328
96532W        W62941  19.108  42.031   0.655
96533W        W62942   5.650  13.227  14.680
96534W        W62943  31.586  41.920   3.660
96535W        W62944   0.009  34.772  14.219
96536W        W62945  23.256   3.245   2.226
96537W        W62946  12.775   9.226   3.076
96538W        W62947  16.152   7.839  11.508
96539W        W62948  40.653   8.634  12.626
96540W        W62949   7.294  20.057   0.457
96541W        W62950  29.924  18.730  11.680
96542W        W62951  28.743  40.930   0.832
96543W        W62952  19.518   4.775   4.196
96544W        W62953  11.148  35.620  10.793
96545W        W62954  14.800  20.265  11.034
96546W        W62955  40.735   7.945  11.668
96547W        W62956  42.898  25.142  14.847
96548W        W62957  13.651  44.403   3.602
96549W        W62958   0.047  22.687  12.434
96550W        W62959  38.548  33.818   3.111
96551W        W62960   8.057  39.715   0.436
96552W        W62961   8.096  31.985   1.362
96553W        W62962   1.697   9.740   0.126
96554W        W62963   9.767   8.348   3.236
96555W        W62964  30.937  42.207   1.503
96556W        W62965  17.591  32.535  12.409
96557W        W62966   8.598  32.142   3.616
96558W        W62967  27.585   7.811  14.582
96559W        W62968   2.323  36.415   4.552
96560W        W62969  22.480   3.456   2.942
96561W        W62970  34.457  26.752   2.867
96562W        W62971  24.621  15.024   1.624
96563W        W62972  17.700  39.864   0.444
96564W        W62973  12.524  34.810   1.473
96565W        W62974  34.657  31.370  13.868
96566W        W62975  36.618  33.929  10.584
96567W        W62976  29.017  11.893   1.330
96568W        W62977  34.659  38.537   4.352
96569W        W62978  26.143  28.959   3.336
96570W        W62979  33.615  34.299   2.407
96571W        W62980  31.485  38.087  14.490
96572W        W62981   3.652  17.583   2.261
96573W        W62982  12.012  26.282   1.432
96574W        W62983  18.593  41.969  11.433
96575W        W62984  27.184   7.104   4.446
96576W        W62985  12.849  20.454   0.988
96577W        W62986  24.438  34.064   4.553
96578W        W62987  41.045  24.589  14.567
96579W        W62988   0.721  39.013   4.442
96580W        W62989   4.451  44.856  14.060
96581W        W62990   0.524  34.602   1.773
96582W        W62991  31.035  27.119   3.695
96583W        W62992  28.875   4.558  11.787
96584W        W62993  41.064  14.850   3.566
96585W        W62994  24.723  43.083  11.105
96586W        W62995  29.968  24.920  10.907
96587W        W62996  26.877  40.515   3.277
96588W        W62997  23.037  33.471  12.511
96589W        W62998  22.597  14.086   0.786
96590W        W62999   4.293  32.423   0.315
96591W        W63000  29.477  30.579   1.917
96592W        W63001   3.962  29.566  13.450
96593W        W63002   2.809  43.273   3.601
96594W        W63003  25.104   0.512  14.656
96595W        W63004  26.597  10.757   0.643
96596W        W63005  32.926  28.914   1.773
96597W        W63006  35.816  34.853  11.088
96598W        W63007  43.297  21.871   3.678
96599W        W63008  41.033  18.540  11.129
96600W        W63009   1.246  27.851  12.593
96601W        W63010  28.173  16.868  13.919
96602W        W63011  22.569   1.562   5.031
96603W        W63012  15.586  33.176  11.000
96604W        W63013  25.963  28.620  13.869
96605W        W63014  22.946   4.196   4.733
96606W        W63015  12.848  16.995   4.349
96607W        W63016  40.035  12.574   1.758
96608W        W63017  18.537  20.059  14.386
96609W        W63018  18.604  42.440  10.743
96610W        W63019  14.486  31.650  11.143
96611W        W63020  31.457   4.371  14.343
96612W        W63021  41.604  10.645  14.729
96613W        W63022  39.964   0.854   4.571
96614W        W63023   7.243  32.838  14.010
96615W        W63024   0.345  11.574  10.755
96616W        W63025  21.262  22.918  10.439
96617W        W63026  40.433  32.924  12.037
96618W        W63027  36.932  43.024  12.954
96619W        W63028  12.240  33.817  12.018
96620W        W63029  27.173  15.332   0.240
96621W        W63030  15.885  27.523   9.906
96622W        W63031  25.124  44.862   0.393
96623W        W63032   3.762  24.913  12.006
96624W        W63033  36.522  37.552  11.963
96625W        W63034  26.577  22.687   2.844
96626W        W63035  22.705   1.455  10.428
96627W        W63036  40.291  32.102  13.464
96628W        W63037  26.991  24.239   0.206
96629W        W63038   0.738  35.372  11.560
96630W        W63039  30.032   9.977   1.417
96631W        W63040  12.721  22.240   2.745
96632W        W63041   0.576   0.681  12.959
96633W        W63042  29.860  15.465  10.763
96634W        W63043   4.111  10.290  14.519
96635W        W63044  28.752  35.692   2.259
96636W        W63045   8.812  10.151  10.197
96637W        W63046  25.469   8.683  13.061
96638W        W63047   4.147  32.474   2.665
96639W        W63048  28.228   6.670  10.660
96640W        W63049  32.986  11.260   1.486
96641W        W63050   2.270  25.445   3.828
96642W        W63051   1.294   1.357  12.767
96643W        W63052  26.189  42.757  14.965
96644W        W63053  14.328  11.331  13.453
96645W        W63054  24.724  28.884   3.437
96646W        W63055  30.449  27.625  13.918
96647W        W63056  21.794   6.067   1.779
96648W        W63057   4.890  28.121  11.139
96649W        W63058   4.951  15.163   1.853
96650W        W63059  24.016  25.480   4.128
96651W        W63060  38.330  33.676  11.991
96652W        W63061  44.682  40.452  12.325
96653W        W63062   9.836  12.318  13.482
96654W        W63063   9.146  29.553   3.614
96655W        W63064  11.715  10.924   2.897
96656W        W63065  41.573  24.055   3.919
96657W        W63066  30.320  34.558  11.212
96658W        W63067  32.626  19.250   0.823
96659W        W63068  41.098   3.481  10.761
96660W        W63069  21.562  43.807   0.309
96661W        W63070  35.080  15.043  10.558
96662W        W63071  11.272  41.253  11.813
96663W        W63072  34.138  17.687  12.049
96664W        W63073  20.765  22.742  14.532
96665W        W63074  27.498  25.981  11.205
96666W        W63075  14.577   7.595  14.471
96667W        W63076  33.609   2.784  12.601
96668W        W63077   7.422  37.465  10.616
96669W        W63078  26.482  25.819   3.107
96670W        W63079   9.866  44.715   0.026
96671W        W63080  28.168  21.621  14.845
96672W        W63081   3.471  23.455   3.014
96673W        W63082  28.168  27.095  13.186
96674W        W63083  10.578  41.388   1.879
96675W        W63084  25.228  24.588  14.044
96676W        W63085  27.157  23.336  10.291
96677W        W63086  31.590  18.343   4.811
96678W        W63087  31.084  40.355   1.155
96679W        W63088   2.942   9.155   3.342
96680W        W63089  11.827  21.921   1.200
96681W        W63090  37.445  12.114  12.878
96682W        W63091  16.220  21.231   2.592
96683W        W63092  16.785  23.534  11.230
96684W        W63093  41.868  32.646   0.462
96685W        W63094  43.016  12.171   2.871
96686W        W63095  23.495  41.316  13.428
96687W        W63096  25.311  18.855  10.136
96688W        W63097  32.420  22.913  13.515
96689W        W63098  30.507  35.018  11.732
96690W        W63099   6.683   0.012   2.388
96691W        W63100   3.780  44.321   4.904
96692W        W63101   6.582  38.802   3.630
96693W        W63102  43.563   2.880  13.772
96694W        W63103   0.355  15.344   4.456
96695W        W63104   3.375   1.213  12.131
96696W        W63105  41.445  34.183  14.827
96697W        W63106   4.477  37.961   5.071
96698W        W63107  28.017  18.729   1.644
96699W        W63108   4.687  20.551   1.995
96700W        W63109  41.355   1.749  11.164
96701W        W63110   6.919  13.537  12.549
96702W        W63111  28.237  40.511   2.350
96703W        W63112  22.279   8.306  13.168
96704W        W63113  26.127  23.307   2.387
96705W        W63114  43.068  12.459   3.842
96706W        W63115  34.660  43.975  13.344
96707W        W63116   6.968  39.321  11.121
96708W        W63117   9.697  19.825  12.450
96709W        W63118  20.807  10.938   5.017
96710W        W63119  21.501   6.331   4.306
96711W        W63120   1.426  37.072   4.130
96712W        W63121  30.167   4.926  13.016
96713W        W63122  30.665   8.168   0.975
96714W        W63123  42.315  24.700   0.968
96715W        W63124  11.818  41.371   2.256
96716W        W63125  20.215  35.377   1.793
96717W        W63126   5.492   1.311   3.163
96718W        W63127   8.641  30.573  12.934
96719W        W63128  40.264  18.047   3.141
96720W        W63129   3.902  29.202  12.504
96721W        W63130  16.566  13.767   2.221
96722W        W63131  24.573  13.244  14.846
96723W        W63132  22.320  27.942  14.215
96724W        W63133  30.227  19.619   3.286
96725W        W63134  31.616  16.281  10.945
96726W        W63135   7.192   6.770  14.052
96727W        W63136  21.239  10.321  11.517
96728W        W63137  20.572  32.116  12.032
96729W        W63138  37.154  32.020   0.686
96730W        W63139  14.077   5.915  14.528
96731W        W63140  20.295  36.437   3.631
96732W        W63141   4.761  40.275   1.747
96733W        W63142  25.127  23.720  10.491
96734W        W63143  16.026  30.499  13.855
96735W        W63144  37.492  24.576   3.902
96736W        W63145  19.171  43.025   4.962
96737W        W63146  10.020  33.812   2.771
96738W        W63147  35.316   6.949   1.881
96739W        W63148   1.746  26.441   0.174
96740W        W63149  29.518  14.312   3.681
96741W        W63150  27.474  37.109   0.332
96742W        W63151  21.068  11.839   5.132
96743W        W63152  35.637  18.531  12.044
96744W        W63153  19.576  16.272   1.272
96745W        W63154  29.803  34.870   4.691
96746W        W63155  14.623  33.671   2.815
96747W        W63156  35.915  17.681   0.897
96748W        W63157  24.419  12.669   3.201
96749W        W63158  17.265  16.442  14.045
96750W        W63159  13.137  20.722  12.041
96751W        W63160   2.772  18.677   0.404
96752W        W63161  12.351  18.976   1.509
96753W        W63162  11.274  16.034  12.518
96754W        W63163  22.111  13.676   1.975
96755W        W63164  24.679   7.319  10.399
96756W        W63165  44.590  41.019  11.165
96757W        W63166  26.100  19.732   2.959
96758W        W63167  28.152  36.839   1.308
96759W        W63168  22.935  44.888  13.708
96760W        W63169  20.538  42.302   2.309
96761W        W63170  10.920   8.250  11.939
96762W        W63171  28.680   1.284   3.299
96763W        W63172  31.815  18.219   1.720
96764W        W63173  38.292  19.184   1.039
96765W        W63174   9.201  43.773  13.288
96766W        W63175  29.162  19.107   3.319
96767W        W63176   1.443  25.101   3.333
96768W        W63177  25.750  27.904  11.926
96769W        W63178  19.465  33.226  14.184
96770W        W63179  34.121  37.460   4.673
96771W        W63180  27.353  28.534   3.291
96772W        W63181   1.395  27.671  10.744
96773W        W63182  34.364  33.365   1.945
96774W        W63183  32.055  23.226   4.318
96775W        W63184  25.942  19.177   0.247
96776W        W63185   7.316  22.754   3.818
96777W        W63186   8.028  16.125   3.117
96778W        W63187  16.833  32.968   1.823
96779W        W63188   4.448  10.810   4.354
96780W        W63189  38.086  34.542  13.265
96781W        W63190  35.464  13.604  14.369
96782W        W63191  21.109   3.966   2.573
96783W        W63192  40.377   6.744   3.712
96784W        W63193  31.630  30.706  11.756
96785W        W63194  12.800  12.401   0.687
96786W        W63195  11.865   2.650  14.986
96787W        W63196  19.803   3.848  12.650
96788W        W63197  40.518  43.886  13.200
96789W        W63198   9.688  10.134  14.482
96790W        W63199  40.948  26.669   4.744
96791W        W63200  40.461  17.598  14.765
96792W        W63201  34.291   1.286   0.233
96793W        W63202  30.258  44.225   0.075
96794W        W63203  22.502  15.310  12.387
96795W        W63204   9.250  30.008  14.420
96796W        W63205  17.208  33.973  12.613
96797W        W63206  38.558  20.545  14.793
96798W        W63207  43.846  18.139   4.702
96799W        W63208  27.905  36.365   0.552
96800W        W63209  41.697  15.530  11.301
96801W        W63210   1.293  25.684   0.413
96802W        W63211  44.211   0.232  13.456
96803W        W63212   8.559  35.460   4.134
96804W        W63213  25.834  39.927   3.189
96805W        W63214   7.038   1.820  10.746
96806W        W63215  21.568  12.315  14.051
96807W        W63216  28.468  33.055  14.231
96808W        W63217  39.475  19.917   3.862
96809W        W63218  34.277  28.326  12.595
96810W        W63219  11.927  38.101   0.889
96811W        W63220  27.364  41.876  11.061
96812W        W63221  37.342   8.330  14.292
96813W        W63222  16.535   7.738  13.084
96814W        W63223  27.236  44.382   4.190
96815W        W63224  29.773  40.505  11.124
96816W        W63225   6.176  29.095   3.122
96817W        W63226  21.029  12.391  13.281
96818W        W63227  18.660  42.133  12.939
96819W        W63228  15.225  37.741   1.293
96820W        W63229  17.756  41.394  10.866
96821W        W63230  20.616  22.249  14.538
96822W        W63231  37.404  12.267  10.598
96823W        W63232  23.781  23.944   3.681
96824W        W63233   2.506  38.848  13.926
96825W        W63234  11.524  35.301  13.596
96826W        W63235  42.827  44.277   4.607
96827W        W63236   4.433  38.875   4.207
96828W        W63237  28.204  26.168  12.893
96829W        W63238  39.391  32.791  11.923
96830W        W63239  42.984  40.705   2.723
96831W        W63240  26.715  16.660   1.329
96832W        W63241  41.333  20.692   0.335
96833W        W63242  22.573  38.066  13.132
96834W        W63243  11.780  15.635  14.999
96835W        W63244  18.996  15.849  13.455
96836W        W63245   5.856  39.950   2.261
96837W        W63246  37.772  11.235   2.323
96838W        W63247  13.649  12.625  12.318
96839W        W63248  11.881   7.340   0.837
96840W        W63249  36.472  25.540  14.570
96841W        W63250  27.461  35.388  13.052
96842W        W63251  31.636   7.419   3.181
96843W        W63252   3.527   2.858  13.149
96844W        W63253  19.719  38.543  11.770
96845W        W63254  23.177  12.722   4.417
96846W        W63255   1.403  16.167   1.964
96847W        W63256  43.359  40.904  14.433
96848W        W63257  33.060   9.191  11.637
96849W        W63258  36.002  37.886   1.905
96850W        W63259  42.556  27.171  13.452
96851W        W63260  36.965  30.442   1.134
96852W        W63261  44.717   6.572   3.430
96853W        W63262   5.738  30.477  11.129
96854W        W63263  10.723  21.363  13.453
96855W        W63264  21.553  22.378  14.994
96856W        W63265  23.553  21.080  11.479
96857W        W63266   2.864  26.554  11.234
96858W        W63267  44.765  33.953   1.377
96859W        W63268   9.289  37.901   1.444
96860W        W63269  16.559  30.383   4.403
96861W        W63270  43.047  17.800  11.195
96862W        W63271  44.723  21.093  13.479
96863W        W63272  17.707  32.703   0.301
96864W        W63273  31.001  24.491   1.858
96865W        W63274  30.495  31.262   4.683
96866W        W63275  39.640   4.094  13.572
96867W        W63276   0.669   8.595   3.177
96868W        W63277   7.784  18.791   4.667
96869W        W63278  24.620  19.586  12.984
96870W        W63279  24.774  42.078  11.182
96871W        W63280  33.952  33.198  14.034
96872W        W63281  18.481  39.415  14.474
96873W        W63282   3.870  38.563  13.491
96874W        W63283  23.068   5.973   0.691
96875W        W63284   8.836  42.293   2.387
96876W        W63285  21.013  28.695  13.207
96877W        W63286   3.154  27.135  13.581
96878W        W63287  34.146  39.428  11.955
96879W        W63288  19.852   2.702   3.680
96880W        W63289  22.213  13.156   0.909
96881W        W63290  24.037  13.632  12.862
96882W        W63291  39.073  42.241   2.832
96883W        W63292  26.773   0.058   1.490
96884W        W63293  35.909  22.837   2.597
96885W        W63294  44.042  40.668   0.439
96886W        W63295  32.626  39.157   1.788
96887W        W63296  14.439  26.904  10.206
96888W        W63297  42.844  12.124   1.922
96889W        W63298   4.304  25.649  12.175
96890W        W63299  21.461  28.678  11.878
96891W        W63300  24.205  35.000   2.381
96892W        W63301  10.912  27.946   3.295
96893W        W63302   7.189   9.369  10.625
96894W        W63303  33.804   8.844   0.757
96895W        W63304  41.131  41.012  10.497
96896W        W63305   8.689  24.589   2.733
96897W        W63306  25.515  31.650  13.734
96898W        W63307   7.799   7.008   3.279
96899W        W63308  40.359  14.616   0.720
96900W        W63309   5.782   2.486  14.260
96901W        W63310  35.329  38.157  11.747
96902W        W63311  13.248   1.239   3.640
96903W        W63312   9.591  34.603   3.374
96904W        W63313  24.670  32.905   2.882
96905W        W63314  12.619  30.054  14.034
96906W        W63315  18.169   7.870   2.627
96907W        W63316   6.060   4.436   1.382
96908W        W63317   3.012  42.076  14.944
96909W        W63318   5.720  24.631   0.926
96910W        W63319   6.483   3.494   1.996
96911W        W63320  11.560  13.176  12.220
96912W        W63321  10.796  41.458  12.839
96913W        W63322  12.169  21.058   1.318
96914W        W63323  13.836  30.549   0.674
96915W        W63324  30.623  14.639   2.338
96916W        W63325  44.292  15.214  10.677
96917W        W63326   6.896   5.233   3.093
96918W        W63327  41.993  26.147  13.958
96919W        W63328   1.956   2.862  14.734
96920W        W63329  18.225  23.654   3.666
96921W        W63330   0.777  43.014  14.981
96922W        W63331  26.280  26.160   4.021
96923W        W63332  33.368  41.991  13.523
96924W        W63333   5.428   9.866   1.162
96925W        W63334  31.659  31.883   1.378
96926W        W63335  13.194   9.021   0.504
96927W        W63336  28.715  29.624   2.706
96928W        W63337  30.620  36.599   4.373
96929W        W63338  29.988  39.206  14.786
96930W        W63339   0.678  41.797   2.394
96931W        W63340  13.209  20.287   4.797
96932W        W63341  17.287  24.136   3.670
96933W        W63342  40.602  41.479  13.454
96934W        W63343  32.443   1.292   1.951
96935W        W63344  30.432  12.834  13.863
96936W        W63345   9.954   3.939  14.809
96937W        W63346  33.033   2.964  11.765
96938W        W63347  32.647   9.826   0.570
96939W        W63348  12.961  25.656   1.890
96940W        W63349  25.422  43.333  13.595
96941W        W63350  32.413  44.535  11.025
96942W        W63351  35.408  33.960   3.694
96943W        W63352  44.920  11.382   3.547
96944W        W63353  18.775  12.250   1.367
96945W        W63354  26.899  26.729   3.494
96946W        W63355  19.124   9.227  12.343
96947W        W63356  41.973  30.686  12.939
96948W        W63357  20.603   7.964  12.521
96949W        W63358  39.059  33.133   1.505
96950W        W63359   7.836  22.809   1.326
96951W        W63360  19.248  17.705   3.661
96952W        W63361  16.423  34.883  11.537
96953W        W63362  19.218  35.354  14.822
96954W        W63363  21.029  40.885  14.261
96955W        W63364  42.870  13.660   2.448
96956W        W63365  25.657  22.266  14.443
96957W        W63366  35.819  14.808  11.295
96958W        W63367  33.893  43.031   3.239
96959W        W63368   7.191  20.969  11.989
96960W        W63369  40.528  19.966  14.082
96961W        W63370  10.113   5.433   3.269
96962W        W63371  11.220  29.405  12.090
96963W        W63372  41.484   3.530  14.351
96964W        W63373  25.744  28.303   2.325
96965W        W63374  17.223  42.465  13.958
96966W        W63375  15.555  39.832   1.729
96967W        W63376  30.616  18.398   3.766
96968W        W63377  31.104  20.625  14.800
96969W        W63378  44.724  28.063   3.753
96970W        W63379   9.454  15.038  12.000
96971W        W63380  31.802  43.478  13.437
96972W        W63381  40.922   4.909   4.534
96973W        W63382  23.081  30.919   4.796
96974W        W63383   7.419  10.618   4.811
96975W        W63384  36.489  36.581   3.548
96976W        W63385  14.813   0.237   3.665
96977W        W63386   8.755   5.390  12.795
96978W        W63387  10.805  20.266  13.421
96979W        W63388  31.923  19.783  13.278
96980W        W63389  30.437  34.498   2.700
96981W        W63390   8.715  16.538  12.358
96982W        W63391  11.264  16.489  12.232
96983W        W63392  29.144  27.243   2.764
96984W        W63393  37.531  26.750   2.354
96985W        W63394  32.062  31.946  10.721
96986W        W63395  38.813  14.718   5.144
96987W        W63396   6.081  18.550  14.320
96988W        W63397   0.014  28.592  14.530
96989W        W63398  19.211  41.091   1.665
96990W        W63399  26.544  33.616   0.657
96991W        W63400  15.159  17.239  11.828
96992W        W63401  22.974   8.115  11.185
96993W        W63402  24.086  44.766  10.495
96994W        W63403  43.189   3.417  12.423
96995W        W63404  15.035  43.988   4.142
96996W        W63405   2.828  11.655   1.220
96997W        W63406  19.243   8.885  11.561
96998W        W63407   9.400  41.304  14.855
96999W        W63408  22.901  31.559  13.017
97000W        W63409  12.307   2.405  14.859
97001W        W63410  36.118  29.149  11.303
97002W        W63411  21.560  35.844  14.893
97003W        W63412  22.722  17.214   4.012
97004W        W63413  37.995   0.729   0.495
97005W        W63414  25.668   2.133   1.251
97006W        W63415  15.818  29.670   3.705
97007W        W63416  16.403  17.610   3.234
97008W        W63417  30.137   4.128  14.031
97009W        W63418  15.657   1.822   0.555
97010W        W63419  12.732  27.025   3.844
97011W        W63420  10.379  32.437   1.030
97012W        W63421  20.241   3.064   3.654
97013W        W63422  32.982  25.844   2.366
97014W        W63423  29.260  37.093  14.928
97015W        W63424  13.461   4.602  10.865
97016W        W63425  20.652  29.872   0.374
97017W        W63426  36.628  37.854  12.435
97018W        W63427  39.584  26.766  13.057
97019W        W63428   4.807  25.800   3.187
97020W        W63429  37.754  25.230  11.149
97021W        W63430  43.113  16.293   2.086
97022W        W63431  44.797  41.745  12.535
97023W        W63432   7.876  28.916  12.907
97024W        W63433  29.020  29.538   1.400
97025W        W63434  10.828   0.285  12.262
97026W        W63435  40.061  30.476   1.757
97027W        W63436  34.506  19.474  11.162
97028W        W63437  10.709  33.766   3.170
97029W        W63438  42.495  29.146   4.117
97030W        W63439   2.837  15.826   0.389
97031W        W63440  30.114  17.134   2.912
97032W        W63441  36.802  33.025  14.350
97033W        W63442  33.414  11.340  14.268
97034W        W63443  16.753  21.618   3.048
97035W        W63444  23.409  43.416  12.154
97036W        W63445  30.629  43.028   3.281
97037W        W63446   2.183  31.980   2.712
97038W        W63447  34.309  22.242  14.700
97039W        W63448  12.315  32.112  10.560
97040W        W63449  38.921   4.778  10.030
97041W        W63450  38.252  24.747   0.729
97042W        W63451  10.237  37.506   0.223
97043W        W63452  19.029   2.974  13.557
97044W        W63453  39.063  16.627   1.295
97045W        W63454  27.657   3.703  12.880
97046W        W63455  17.522  25.143  13.800
97047W        W63456  19.793  39.410  13.043
97048W        W63457  38.541  23.731  10.691
97049W        W63458  30.311   1.178   1.280
97050W        W63459  28.752  13.632   2.869
97051W        W63460  12.631  14.451   3.144
97052W        W63461  40.895  30.892  13.807
97053W        W63462  40.439  28.628  11.295
97054W        W63463   2.973   5.339   3.070
97055W        W63464  35.411  16.520   4.590
97056W        W63465  29.674  19.730  12.429
97057W        W63466  12.854  29.863  14.471
97058W        W63467  26.462  38.397  14.506
97059W        W63468   1.171  39.852   4.134
97060W        W63469  26.804   9.498   2.687
97061W        W63470   1.790  33.557   3.143
97062W        W63471  18.728  33.495   0.879
97063W        W63472  11.079   6.458   2.607
97064W        W63473   1.339  25.543   1.848
97065W        W63474  23.742  17.825  10.341
97066W        W63475  24.745   4.188  11.471
97067W        W63476  16.039  14.337  11.643
97068W        W63477  16.561   0.902  11.963
97069W        W63478   9.125  30.543  12.738
97070W        W63479   9.195  26.190  13.488
97071W        W63480  38.582  11.976   0.807
97072W        W63481   8.467  28.198   1.753
97073W        W63482   7.199  19.458   1.369
97074W        W63483  16.223  25.635  14.878
97075W        W63484   4.992   9.798   1.483
97076W        W63485  26.266  43.493  12.167
97077W        W63486  33.055  38.078  10.835
97078W        W63487  43.817   9.328   2.235
97079W        W63488  11.276  42.410   4.397
97080W        W63489  39.170  25.177  13.435
97081W        W63490  20.246  44.554   9.894
97082W        W63491   0.830   9.167   2.791
97083W        W63492  32.538   4.944  14.408
97084W        W63493  22.935  23.012   4.985
97085W        W63494   6.194  11.559   3.840
97086W        W63495  26.529  34.504   2.772
97087W        W63496  34.288  28.969   2.290
97088W        W63497  13.150  26.068   2.744
97089W        W63498  19.625  10.084  11.580
97090W        W63499  41.514  28.188  13.851
97091W        W63500  19.021  14.392   3.364
97092W        W63501   2.645  31.190  14.084
97093W        W63502  20.077   9.861  14.223
97094W        W63503   2.854  18.152   0.394
97095W        W63504  39.355  17.197   2.594
97096W        W63505   3.815  12.395  13.918
97097W        W63506  41.292   6.824  11.215
97098W        W63507  25.105   4.192   1.963
97099W        W63508  30.563  31.909   0.823
97100W        W63509  40.923  29.680   2.929
97101W        W63510  21.511  14.194  14.854
97102W        W63511  39.704  41.545  11.497
97103W        W63512  15.037   0.992  11.708
97104W        W63513  22.775  12.217   4.507
97105W        W63514   2.007  14.087   3.380
97106W        W63515  13.294  33.985  12.792
97107W        W63516  43.087   2.701  13.929
97108W        W63517  39.512  15.505   5.112
97109W        W63518  10.563  23.185   1.221
97110W        W63519  31.758  25.514   4.939
97111W        W63520   7.777  31.373  13.315
97112W        W63521  41.629  29.172  10.998
97113W        W63522   0.428  42.938   3.829
97114W        W63523  14.295  43.011   2.151
97115W        W63524  29.033   3.434  14.062
97116W        W63525  22.241  13.414  14.100
97117W        W63526  15.780  36.985   2.458
97118W        W63527  26.607  13.043   2.572
97119W        W63528  25.243   9.628  14.565
97120W        W63529  30.688  40.139   1.957
97121W        W63530  22.029  10.826   1.444
97122W        W63531  44.102  30.014   1.767
97123W        W63532  21.976  31.123  13.895
97124W        W63533  22.559  24.002   2.184
97125W        W63534  39.521  40.668  13.935
97126W        W63535  22.686  33.117   3.887
97127W        W63536  43.392  12.954   2.772
97128W        W63537  29.408  28.123   4.092
97129W        W63538  34.169   4.000  10.701
97130W        W63539  14.185  41.290  13.770
97131W        W63540  27.791  29.748  14.502
97132W        W63541  10.215  15.118  14.896
97133W        W63542  38.336  22.681   4.871
97134W        W63543  41.825  39.797  13.309
97135W        W63544  11.115  28.399   0.605
97136W        W63545  24.748  31.039   2.305
97137W        W63546   1.539  12.773   2.708
97138W        W63547  12.411  24.733  11.399
97139W        W63548  20.631   1.906   0.915
97140W        W63549  20.298  31.587  14.513
97141W        W63550   2.958  27.037   0.659
97142W        W63551   5.251  32.038   3.287
97143W        W63552  27.796  24.276   1.821
97144W        W63553  35.911  37.720  12.688
97145W        W63554  29.629   8.363   3.234
97146W        W63555  38.798  17.519  13.426
97147W        W63556  41.903   7.153   0.015
97148W        W63557  41.247  34.840   3.945
97149W        W63558  31.001  20.037  12.509
97150W        W63559   2.826  34.527  14.175
97151W        W63560  36.081  35.292  14.522
97152W        W63561  17.288  31.941   3.815
97153W        W63562  42.176  41.628   3.168
97154W        W63563  38.021  18.749  12.093
97155W        W63564  26.873  13.903  14.466
97156W        W63565  31.877  10.494  14.459
97157W        W63566   7.450   7.391   0.256
97158W        W63567   3.417  44.824  14.164
97159W        W63568  20.012  27.134   1.800
97160W        W63569  17.547  17.344   2.200
97161W        W63570   0.799  41.818  13.534
97162W        W63571  36.020  38.391  11.204
97163W        W63572  21.723  14.650   1.074
97164W        W63573  44.790  35.240  11.678
97165W        W63574  13.914  33.353   3.338
97166W        W63575  44.848   7.182  13.205
97167W        W63576  25.444  23.720  14.472
97168W        W63577   8.364  41.174  11.204
97169W        W63578  18.282  32.982  11.511
97170W        W63579  11.853   2.257  11.644
97171W        W63580  14.835   1.517   5.830
97172W        W63581  35.556  36.777   1.354
97173W        W63582   2.438  30.070   2.368
97174W        W63583  30.799  19.860  11.534
97175W        W63584   7.252  34.049  12.855
97176W        W63585  12.088  41.451   2.686
97177W        W63586  19.803  20.624  10.626
97178W        W63587  37.728  29.533   3.492
97179W        W63588  40.445  41.715  12.466
97180W        W63589   4.321  43.836  13.118
97181W        W63590  38.433  16.584   2.456
97182W        W63591  14.659  16.826   1.434
97183W        W63592  17.601  28.739   0.013
97184W        W63593  17.537  33.832   0.884
97185W        W63594  29.655  36.620   4.001
97186W        W63595  17.731  32.091  10.766
97187W        W63596  37.734  41.314   1.284
97188W        W63597  41.867  29.682   0.494
97189W        W63598  40.014  36.478   0.249
97190W        W63599  12.071  12.807   1.789
97191W        W63600  27.944  30.874  10.691
97192W        W63601   6.388  14.717   0.423
97193W        W63602  24.118  43.310  11.880
97194W        W63603  21.690  44.694   2.744
97195W        W63604  37.082  40.320   1.818
97196W        W63605  25.166  16.747  13.796
97197W        W63606  44.083  14.307   1.781
97198W        W63607  17.978  13.049  11.128
97199W        W63608  18.576  30.586  10.311
97200W        W63609   4.285  11.400   0.350
97201W        W63610  44.275  24.247  12.477
97202W        W63611   9.942  30.747   3.855
97203W        W63612  30.083  19.272  13.526
97204W        W63613  22.148  12.421  11.570
97205W        W63614   7.202  21.103  14.922
97206W        W63615  34.109  33.344   0.303
97207W        W63616   5.537  27.619   0.900
97208W        W63617  35.061  36.381   3.200
97209W        W63618  10.846  17.096  14.293
97210W        W63619  33.638  39.817  14.913
97211W        W63620   1.617   1.950   0.447
97212W        W63621  22.468  40.118  13.282
97213W        W63622  42.340  29.591   3.351
97214W        W63623  30.897  41.278   3.708
97215W        W63624  42.512   2.718   0.333
97216W        W63625  39.530  22.537   4.811
97217W        W63626  31.012  21.846   3.622
97218W        W63627  34.618   7.974   2.074
97219W        W63628   8.454  38.058   4.563
97220W        W63629  42.377  29.628  14.748
97221W        W63630  30.461  20.093   1.808
97222W        W63631   1.879  16.719   4.519
97223W        W63632  20.333  17.544  11.983
97224W        W63633  18.535  22.067  14.638
97225W        W63634  21.663  43.415  14.110
97226W        W63635  19.652   0.874   0.906
97227W        W63636  27.641   6.348  10.095
97228W        W63637  17.562   2.861  12.377
97229W        W63638  30.096   6.162   0.792
97230W        W63639  41.076   7.922   1.775
97231W        W63640  36.880  36.607   4.724
97232W        W63641   0.482  37.381   0.039
97233W        W63642   8.264  43.004  13.432
97234W        W63643  11.864   4.265   2.252
97235W        W63644  23.734  41.439  13.895
97236W        W63645   8.767   4.552  12.357
97237W        W63646  37.888  19.531   1.975
97238W        W63647  23.550  11.221   4.624
97239W        W63648  17.623  23.756   1.891
97240W        W63649  44.795  23.136   2.403
97241W        W63650   0.009  34.393   3.092
97242W        W63651   3.928  25.138   3.232
97243W        W63652  36.054  20.611  12.244
97244W        W63653  11.857   3.490  13.575
97245W        W63654   1.238  16.660   1.835
97246W        W63655  42.279   1.994   4.200
97247W        W63656  15.874  27.491  10.966
97248W        W63657  18.710  13.212  12.133
97249W        W63658   1.811  33.757  13.190
97250W        W63659  28.941  39.474   2.792
97251W        W63660  40.525  23.624   0.086
97252W        W63661  19.724   3.301   1.798
97253W        W63662  43.699  26.939  11.987
97254W        W63663  30.570   3.177   1.441
97255W        W63664  21.003  43.509  12.907
97256W        W63665  20.195   6.874  10.475
97257W        W63666   0.073  12.478   4.686
97258W        W63667  10.746   2.853   1.421
97259W        W63668   9.127  11.288  13.812
97260W        W63669  31.371   7.946   0.431
97261W        W63670  12.558   1.328   2.234
97262W        W63671  26.405  38.217   1.404
97263W        W63672  37.183   5.764  13.516
97264W        W63673  40.072   5.555   1.231
97265W        W63674   7.217   7.596   1.606
97266W        W63675  19.647  32.809   2.290
97267W        W63676  38.297   1.813   1.404
97268W        W63677  15.162  42.104  11.568
97269W        W63678  22.638  16.372  10.680
97270W        W63679   9.406  26.016   2.697
97271W        W63680  35.921  26.414  12.897
97272W        W63681  13.770  36.909   0.285
97273W        W63682  14.616   6.662   2.578
97274W        W63683   6.782  28.618  14.374
97275W        W63684  35.961  44.103   0.352
97276W        W63685  12.707   8.268   3.822
97277W        W63686  31.106  44.098   1.983
97278W        W63687  28.058  24.059   2.345
97279W        W63688  37.371   8.766   0.047
97280W        W63689  23.272   2.496   2.631
97281W        W63690  31.350  26.061  11.172
97282W        W63691   1.962  37.835   2.819
97283W        W63692  32.655  41.862  11.077
97284W        W63693  31.054  11.940  12.009
97285W        W63694   6.776  15.235  11.841
97286W        W63695  23.773  17.587  13.079
97287W        W63696  33.351  33.951   3.861
97288W        W63697   0.208  15.002   4.093
97289W        W63698  24.393  32.079   1.472
97290W        W63699  43.209  15.233  13.509
97291W        W63700  19.585  27.176  11.133
97292W        W63701  34.871  26.101  13.222
97293W        W63702   8.009  23.512  13.762
97294W        W63703  20.177  36.127   4.678
97295W        W63704  17.476   4.577  14.981
97296W        W63705  30.588  43.895  14.745
97297W        W63706   4.923   0.385   1.491
97298W        W63707  15.575   5.768  12.032
97299W        W63708  24.546  22.552  13.924
97300W        W63709   8.012  30.179  11.113
97301W        W63710  40.314  26.119   0.521
97302W        W63711  14.208  18.572   2.498
97303W        W63712  17.303  32.884   2.728
97304W        W63713  24.410  35.407   1.634
97305W        W63714   7.979  33.171   0.089
97306W        W63715  27.614  15.786   3.641
97307W        W63716  12.660  36.507  11.904
97308W        W63717  30.944   6.164  14.356
97309W        W63718   0.845  18.559   4.076
97310W        W63719  11.136   9.544  11.852
97311W        W63720  37.039  10.289   0.873
97312W        W63721  13.780   2.420   3.979
97313W        W63722  30.208   0.973  13.843
97314W        W63723  13.373  19.780  14.484
97315W        W63724  10.858  40.073  12.995
97316W        W63725  17.970  13.226  12.676
97317W        W63726  34.343  39.343   2.367
97318W        W63727  37.154  16.725   1.812
97319W        W63728   6.445   3.946  12.856
97320W        W63729  29.899  22.503   0.885
97321W        W63730  24.236  28.773  11.644
97322W        W63731  26.015  40.291  14.913
97323W        W63732  41.139   0.243  12.439
97324W        W63733  16.034   0.393  10.675
97325W        W63734   7.486  40.785  13.335
97326W        W63735  21.968  17.639   1.828
97327W        W63736  32.898  41.839   4.550
97328W        W63737  18.365  14.824  13.383
97329W        W63738  40.634  38.996  10.734
97330W        W63739  43.429  31.414   4.285
97331W        W63740  19.612  29.847   4.290
97332W        W63741  31.129  11.772   4.365
97333W        W63742  42.987   4.978   3.685
97334W        W63743  35.962  15.890  11.560
97335W        W63744  31.358  21.810   1.721
97336W        W63745  23.668  29.121  12.448
97337W        W63746   9.751  39.745  11.380
97338W        W63747  12.543  29.038  14.777
97339W        W63748   0.404  32.479  14.362
97340W        W63749  22.189  24.222  11.976
97341W        W63750  44.730  20.455  10.634
97342W        W63751  24.111  22.955   3.741
97343W        W63752  27.790  31.057   0.198
97344W        W63753  43.353  28.147  14.792
97345W        W63754  37.856  11.475   3.708
97346W        W63755   6.803  30.462   1.676
97347W        W63756  36.063  33.045   0.266
97348W        W63757   7.446   1.559   4.369
97349W        W63758   8.453  19.092   1.960
97350W        W63759  30.168  16.133   0.244
97351W        W63760  11.427  36.697  11.399
97352W        W63761  27.206  19.217   1.273
97353W        W63762  22.563  44.463  10.740
97354W        W63763  21.987  34.928   1.415
97355W        W63764   9.667  20.504   2.840
97356W        W63765  22.711  11.945  13.618
97357W        W63766  21.689   1.338  13.918
97358W        W63767  16.969  24.616   1.431
97359W        W63768   7.691  23.603   0.394
97360W        W63769   5.222  27.257   3.764
97361W        W63770  14.126   0.325   1.403
97362W        W63771  38.471  18.001  11.863
97363W        W63772   5.063  21.167   4.677
97364W        W63773  23.784  22.143   1.225
97365W        W63774  26.300  18.253   3.782
97366W        W63775  35.942  43.006   0.489
97367W        W63776  33.066  10.989   3.273
97368W        W63777  35.029   4.464   3.675
97369W        W63778  29.961   6.941  13.543
97370W        W63779  38.068   5.010  14.758
97371W        W63780  18.846  14.141  12.089
97372W        W63781   1.579   0.427   2.808
97373W        W63782  32.658  37.306  14.090
97374W        W63783  29.501  41.988   3.212
97375W        W63784   1.407  31.659  13.444
97376W        W63785  11.412  36.483   2.888
97377W        W63786  10.577  26.778  13.452
97378W        W63787  20.815  22.133   1.793
97379W        W63788   2.016  24.883   1.804
97380W        W63789  42.385  34.046   4.744
97381W        W63790  41.550  31.429   0.729
97382W        W63791  32.309   2.003   1.932
97383W        W63792   3.940   5.958   2.390
97384W        W63793  25.068  39.372  10.646
97385W        W63794   2.294  16.909  11.653
97386W        W63795  24.463   4.214   0.229
97387W        W63796  42.080  21.746   2.931
97388W        W63797  21.086  25.668   2.154
97389W        W63798  44.631  18.086  10.751
97390W        W63799   8.377  42.488  10.690
97391W        W63800  43.562  40.481  12.060
97392W        W63801   4.934  23.060  12.568
97393W        W63802  29.477  40.448  13.523
97394W        W63803  37.830  36.138  11.810
97395W        W63804   7.602  30.500  11.167
97396W        W63805   6.018  18.407   3.559
97397W        W63806  27.922  41.903  11.846
97398W        W63807  13.362  13.745   3.649
97399W        W63808  25.628  42.249   3.611
97400W        W63809  20.003   8.778   2.041
97401W        W63810  27.111  39.470   4.428
97402W        W63811  20.048   3.424   4.878
97403W        W63812  42.278   6.906  12.514
97404W        W63813   4.365   2.824  11.130
97405W        W63814  42.483  27.595   2.037
97406W        W63815  21.802   5.900  11.961
97407W        W63816  20.932  35.747   3.241
97408W        W63817  26.783  36.373  14.942
97409W        W63818   9.179  16.217   1.885
97410W        W63819   3.165  15.205  13.387
97411W        W63820  14.425  43.001  10.963
97412W        W63821  33.658  17.693  12.207
97413W        W63822  15.410  25.706   2.318
97414W        W63823  37.469   9.826  10.127
97415W        W63824  43.693  34.816  12.382
97416W        W63825  32.564  26.681  14.696
97417W        W63826  30.468   5.853   0.953
97418W        W63827  29.966   7.272   4.853
97419W        W63828   2.408  33.648  13.453
97420W        W63829  10.166  41.620   2.798
97421W        W63830   9.393  31.884   0.088
97422W        W63831  30.317  27.267  13.334
97423W        W63832  35.488  33.748  12.565
97424W        W63833   7.823  37.191  13.288
97425W        W63834   7.781  44.242   0.184
97426W        W63835  34.396   0.021  10.339
97427W        W63836  12.676  42.972   4.587
97428W        W63837  12.836   0.364   3.746
97429W        W63838  12.265   0.429   1.772
97430W        W63839  26.891  11.083  13.812
97431W        W63840  35.239   2.783   4.289
97432W        W63841   8.930  31.002  12.558
97433W        W63842   0.812  22.729   0.877
97434W        W63843   0.271  35.537  14.233
97435W        W63844  17.288  38.369   2.824
97436W        W63845  39.458  33.316   4.770
97437W        W63846   2.368   5.431   1.742
97438W        W63847   5.885  39.552  14.972
97439W        W63848  34.624  28.581   2.224
97440W        W63849  32.428  11.673  12.959
97441W        W63850   0.490  27.573   1.989
97442W        W63851  29.818   1.784  12.788
97443W        W63852  37.338  12.173   4.097
97444W        W63853   1.213  23.426  14.016
97445W        W63854  12.067  16.727  11.203
97446W        W63855  20.594  32.136   2.947
97447W        W63856  35.874  14.603  10.825
97448W        W63857  28.200   9.746  14.781
97449W        W63858  16.618  18.078  14.297
97450W        W63859  15.083  40.489   0.517
97451W        W63860   1.794  39.485  14.664
97452W        W63861  10.266   0.545  14.871
97453W        W63862  28.091  23.274  10.225
97454W        W63863   5.393   5.445  10.646
97455W        W63864  38.370  27.458  12.029
97456W        W63865  38.366  28.641  14.096
97457W        W63866  33.373  34.579  13.094
97458W        W63867  35.915  26.045  11.689
97459W        W63868  40.614  24.250  11.708
97460W        W63869  43.549  44.847  11.127
97461W        W63870  36.815  13.339   2.378
97462W        W63871  24.556  26.586  13.875
97463W        W63872  29.894  19.179  14.459
97464W        W63873  10.660   6.195   4.857
97465W        W63874  36.022  33.373  12.659
97466W        W63875  43.900  31.418   2.754
97467W        W63876  19.243  29.922  11.466
97468W        W63877   1.374  19.000  11.521
97469W        W63878  22.875  16.570  11.694
97470W        W63879  25.271  37.080   5.009
97471W        W63880  20.022  38.355  11.370
97472W        W63881  26.104  36.397   3.441
97473W        W63882  19.534  22.528   2.888
97474W        W63883  38.694  29.123   4.033
97475W        W63884  13.890  13.055  12.508
97476W        W63885  12.423  22.653   4.555
97477W        W63886  28.430  34.049   3.253
97478W        W63887  19.750  20.330  12.892
97479W        W63888   0.774  32.397   0.505
97480W        W63889   4.379  29.735  14.193
97481W        W63890  17.187  32.375  13.604
97482W        W63891  43.740   7.650  13.394
97483W        W63892   3.280  36.630  11.560
97484W        W63893   9.660  13.521   0.717
97485W        W63894  24.381   4.763  11.760
97486W        W63895  27.663  27.931   4.649
97487W        W63896   5.162  17.180  11.216
97488W        W63897  21.782  43.841  11.923
97489W        W63898  32.087  23.530  14.323
97490W        W63899  42.260  12.813   3.246
97491W        W63900  34.106  23.779  12.367
97492W        W63901  28.467  42.289   4.889
97493W        W63902  14.080   1.181  11.623
97494W        W63903  32.901  22.610  13.964
97495W        W63904  30.633  39.768  13.823
97496W        W63905  40.335   2.453  13.946
97497W        W63906   4.674   6.413  14.484
97498W        W63907   2.935  24.237  11.486
97499W        W63908  27.368  15.626  10.531
97500W        W63909  23.020  38.339  13.309
97501W        W63910  41.324  17.980   0.484
97502W        W63911  41.047  15.554   4.913
97503W        W63912  29.010  22.471  12.637
97504W        W63913  39.329  29.031  14.995
97505W        W63914   6.363   0.561   0.393
97506W        W63915   8.717  28.381   4.590
97507W        W63916  17.831   0.428  12.583
97508W        W63917  40.240  32.990   2.367
97509W        W63918  38.460  38.922  13.618
97510W        W63919  43.449   6.399   4.960
97511W        W63920  39.976  29.815   3.603
97512W        W63921  35.057  39.382   0.782
97513W        W63922  16.613  44.487   0.054
97514W        W63923  27.305  27.991   1.188
97515W        W63924  15.377  28.080  11.538
97516W        W63925  16.684  40.634  10.384
97517W        W63926  43.274  11.374  10.525
97518W        W63927  14.362  28.014  11.696
97519W        W63928  24.798  30.061  13.533
97520W        W63929  30.272   3.512   2.607
97521W        W63930  18.289  38.587  12.528
97522W        W63931  16.813  27.208  14.720
97523W        W63932  40.021  13.141   0.779
97524W        W63933  28.659  42.027   2.352
97525W        W63934  31.880   4.612  12.464
97526W        W63935  43.814   7.625   0.465
97527W        W63936  10.207  32.472  12.467
97528W        W63937  28.764  36.410   4.329
97529W        W63938  41.399   0.740  13.539
97530W        W63939  23.195  37.428   3.670
97531W        W63940  34.659  33.074   2.256
97532W        W63941  17.321  30.214   3.100
97533W        W63942  22.678  38.696   0.241
97534W        W63943  26.255  25.533   2.740
97535W        W63944   8.922  16.617  11.523
97536W        W63945  32.632  40.934   1.901
97537W        W63946  35.636  42.860   0.064
97538W        W63947  11.396  26.725   2.814
97539W        W63948  32.521  38.884   0.329
97540W        W63949  39.802  34.896  12.138
97541W        W63950  13.662  31.658  13.942
97542W        W63951   1.992  22.223  13.860
97543W        W63952  42.374   1.275   3.442
97544W        W63953  12.380  38.781  14.588
97545W        W63954  37.557  24.540   1.316
97546W        W63955  28.283  43.068   2.947
97547W        W63956   6.549  27.269   5.019
97548W        W63957  12.372  29.579   3.312
97549W        W63958  19.723   9.032  11.743
97550W        W63959  27.372  28.620   4.223
97551W        W63960  18.160  35.932  14.265
97552W        W63961  35.147  15.124   4.279
97553W        W63962  31.264   1.766   0.360
97554W        W63963  28.916  18.555   4.629
97555W        W63964  17.246   4.249   3.746
97556W        W63965  32.715  25.472   2.629
97557W        W63966  30.593  16.360  14.956
97558W        W63967  42.844  43.481   3.377
97559W        W63968  21.287  11.359   4.198
97560W        W63969  26.432  29.599  12.149
97561W        W63970   6.217  11.685  14.329
97562W        W63971   5.688  40.230  12.093
97563W        W63972  39.164   5.291   3.660
97564W        W63973  19.059  34.624   3.659
97565W        W63974  34.502  35.578  12.628
97566W        W63975   7.133  38.375   1.522
97567W        W63976  13.306  30.986   1.276
97568W        W63977  39.580  42.157  14.023
97569W        W63978  28.960   8.645   0.820
97570W        W63979  30.139  36.783   2.533
97571W        W63980  26.731  16.834  11.814
97572W        W63981  27.651  22.738   1.475
97573W        W63982  25.232  19.623   3.253
97574W        W63983  39.312  24.168   4.141
97575W        W63984  16.666  21.128   2.364
97576W        W63985   1.438  44.235   0.545
97577W        W63986  19.809  25.972   3.375
97578W        W63987  38.011  21.354   1.536
97579W        W63988  39.377  20.336   0.821
97580W        W63989  31.624  38.028  11.743
97581W        W63990  25.390  15.640   2.711
97582W        W63991  21.934  38.879   0.743
97583W        W63992   0.448   2.714  11.400
97584W        W63993   9.536  44.501  12.391
97585W        W63994   8.112  29.596  13.971
97586W        W63995   6.349  16.525   0.727
97587W        W63996  17.288  13.171   2.272
97588W        W63997  17.215  29.572   0.005
97589W        W63998  20.150  43.720   1.379
97590W        W63999  29.542   9.339   2.529
97591W        W64000  10.812   5.258  14.527
97592W        W64001  35.158   0.185  14.908
97593W        W64002  38.817   4.844   4.389
97594W        W64003   4.737  28.517   1.380
97595W        W64004   8.808  12.095  12.461
97596W        W64005  13.696  26.562  10.732
97597W        W64006  20.309  17.385  12.524
97598W        W64007  28.392  19.675  14.326
97599W        W64008  25.760  39.433   4.328
97600W        W64009   4.451   9.388   3.264
97601W        W64010  20.533  33.898   4.278
97602W        W64011  16.647   7.059   3.622
97603W        W64012  41.002   4.019   0.452
97604W        W64013  27.165  40.477  13.817
97605W        W64014  26.492  29.555   4.470
97606W        W64015   6.197  21.154   2.239
97607W        W64016  27.336   8.222   3.124
97608W        W64017  44.362  14.412  11.931
97609W        W64018  26.580   3.892   0.948
97610W        W64019  14.301  44.528   3.589
97611W        W64020  17.570  11.417   4.360
97612W        W64021  31.418  11.163   4.879
97613W        W64022  24.725  19.076  11.719
97614W        W64023  35.837  18.226   4.396
97615W        W64024  20.422  24.923  12.069
97616W        W64025  12.613  37.557   0.366
97617W        W64026  24.539   9.184   3.085
97618W        W64027  28.355   1.933   3.633
97619W        W64028  37.104  13.901   4.195
97620W        W64029  41.880  12.705   4.303
97621W        W64030  16.185   0.096  12.776
97622W        W64031   0.834  20.818  14.451
97623W        W64032  34.176  27.622   2.746
97624W        W64033  21.016  21.793  11.146
97625W        W64034  14.645  20.026   3.263
97626W        W64035  14.047  35.833  10.813
97627W        W64036  30.451   6.204  11.458
97628W        W64037  24.548   6.862   3.384
97629W        W64038   3.786  21.288  13.515
97630W        W64039  24.086  34.703  12.408
97631W        W64040  38.942   8.723  10.667
97632W        W64041  23.250  39.036  11.173
97633W        W64042  35.154  30.834   3.202
97634W        W64043   5.959   4.352  11.192
97635W        W64044  10.877   0.321  12.788
97636W        W64045  30.065  12.550  14.118
97637W        W64046  19.761  13.774   2.929
97638W        W64047  27.896  21.547   5.528
97639W        W64048  18.588  38.047   0.263
97640W        W64049  26.269  24.978   2.788
97641W        W64050   3.325  36.456   0.726
97642W        W64051  40.956   6.752  11.642
97643W        W64052   7.538  28.438   0.758
97644W        W64053  25.423  22.094   3.620
97645W        W64054  16.562  39.321   3.195
97646W        W64055   9.261  38.369  14.425
97647W        W64056  30.863   5.100  11.426
97648W        W64057   4.408  38.833  12.409
97649W        W64058  41.392  37.436   3.845
97650W        W64059  31.959   9.116   3.741
97651W        W64060   3.530  38.494   2.895
97652W        W64061  18.994  15.855   0.317
97653W        W64062  23.496  16.601  10.934
97654W        W64063  36.156  29.730   2.595
97655W        W64064  19.216  32.680  11.777
97656W        W64065  10.894  23.795  13.962
97657W        W64066  43.927  16.731  10.662
97658W        W64067   1.836  28.067  14.937
97659W        W64068  23.584  24.704   4.072
97660W        W64069  15.878  29.635  13.637
97661W        W64070  17.036  32.492  10.507
97662W        W64071  40.863  10.895  11.054
97663W        W64072   8.780  24.305  11.458
97664W        W64073  39.360  41.045   4.639
97665W        W64074  13.468  15.770  10.548
97666W        W64075  43.051  33.762  10.068
97667W        W64076  18.647  29.440  10.771
97668W        W64077  18.200  39.340  10.612
97669W        W64078  32.451   9.762   0.096
97670W        W64079  36.479   6.768   3.956
97671W        W64080   3.195  25.676  10.647
97672W        W64081   8.413   7.734   2.226
97673W        W64082  24.502  32.884  11.516
97674W        W64083  40.065  40.777   3.568
97675W        W64084   3.326  33.451   1.053
97676W        W64085  34.265  34.953   4.576
97677W        W64086   7.391   1.260   0.930
97678W        W64087  42.320  24.947   0.523
97679W        W64088  30.803  21.830  10.229
97680W        W64089  32.975  38.392   2.429
97681W        W64090  23.709   8.610  12.442
97682W        W64091   3.257  42.719  14.839
97683W        W64092  35.706  13.884   4.385
97684W        W64093  26.102  36.464  13.023
97685W        W64094  27.599  17.068  12.664
97686W        W64095  33.534  19.826  14.820
97687W        W64096  16.971  21.570  12.223
97688W        W64097  28.028  42.329   1.461
97689W        W64098  32.438  26.444   3.646
97690W        W64099  31.961  34.101  14.344
97691W        W64100  17.545   1.017   2.259
97692W        W64101  10.090  19.299  13.609
97693W        W64102  10.252  38.472  13.348
97694W        W64103  42.863  37.875   3.582
97695W        W64104  11.388  25.914  14.045
97696W        W64105  19.040  14.206   4.156
97697W        W64106  25.485  41.799   1.863
97698W        W64107   2.108  37.637  10.857
97699W        W64108  30.010  14.035  13.911
97700W        W64109   9.343  40.881   3.579
97701W        W64110  12.576  42.438   0.227
97702W        W64111  34.649  27.735   2.535
97703W        W64112  43.339  24.483   2.369
97704W        W64113   5.779  32.640  13.388
97705W        W64114  30.035  22.628  14.275
97706W        W64115  14.440  34.741  12.555
97707W        W64116  12.308  39.495   0.377
97708W        W64117   2.960  35.465  12.364
97709W        W64118  31.596  41.810  12.030
97710W        W64119  38.441   7.899  11.814
97711W        W64120   4.394  27.214   1.245
97712W        W64121  43.249   5.652  12.918
97713W        W64122  29.082  43.080   0.127
97714W        W64123   2.407   0.870   1.704
97715W        W64124  29.084  15.163  10.867
97716W        W64125  23.969  34.123   2.769
97717W        W64126  17.774  38.648   5.487
97718W        W64127  13.025  20.291   3.264
97719W        W64128  18.000  30.188   2.964
97720W        W64129  16.979  38.275  13.969
97721W        W64130  25.332  11.700  11.092
97722W        W64131   4.431  16.303  11.285
97723W        W64132  19.814  43.807  12.154
97724W        W64133  20.157   6.702  13.820
97725W        W64134  24.666  16.646  11.207
97726W        W64135   2.722  38.265  10.745
97727W        W64136  25.243  18.866  11.039
97728W        W64137  22.684  18.087   3.850
97729W        W64138   7.372  42.991  14.570
97730W        W64139   1.463  10.928   0.804
97731W        W64140  33.848  17.781  14.644
97732W        W64141  24.568  30.831   0.365
97733W        W64142  44.321  25.473   1.770
97734W        W64143  43.209  13.379   0.280
97735W        W64144   5.436  27.619  11.372
97736W        W64145  12.621  36.043  11.104
97737W        W64146  41.079  31.548   4.574
97738W        W64147  16.706  23.124   1.169
97739W        W64148  28.763   2.368   3.226
97740W        W64149  32.613  21.187   4.600
97741W        W64150   3.439  25.256  14.126
97742W        W64151  12.949  36.356  11.439
97743W        W64152  34.162  20.057  14.016
97744W        W64153  18.509  13.726  12.018
97745W        W64154  25.968  12.790   1.736
97746W        W64155  38.856  12.382   4.802
97747W        W64156  39.355  32.476   0.642
97748W        W64157  33.788  25.369  14.785
97749W        W64158  35.053  33.494   1.291
97750W        W64159  35.968  31.029  13.099
97751W        W64160   5.865  28.477  11.213
97752W        W64161  20.815  19.037  11.964
97753W        W64162  23.662   4.090   0.898
97754W        W64163  18.187  33.859  11.119
97755W        W64164  15.913   0.797   3.111
97756W        W64165  31.637  38.512  13.719
97757W        W64166  23.660   0.350   4.969
97758W        W64167  19.698   8.785  13.341
97759W        W64168  43.393  29.324   4.205
97760W        W64169   1.440   6.402   1.757
97761W        W64170  37.018  37.644   4.636
97762W        W64171  25.614   0.722  14.596
97763W        W64172  10.624  25.670   2.841
97764W        W64173  14.848  36.072  14.435
97765W        W64174  31.743   0.848   1.290
97766W        W64175  39.590  36.382  14.936
97767W        W64176   2.885  10.728   4.067
97768W        W64177  11.659   7.198   0.377
97769W        W64178  28.334  30.048  13.404
97770W        W64179  29.207  29.097   2.270
97771W        W64180  32.842  28.977  11.653
97772W        W64181  44.269  39.192   1.254
97773W        W64182  33.832  11.826  14.848
97774W        W64183  30.530  10.657  11.538
97775W        W64184   3.550  37.287   3.673
97776W        W64185  23.673  44.462  14.764
97777W        W64186  22.419   9.169   4.026
97778W        W64187   2.217  15.743   4.583
97779W        W64188  26.338  37.659  12.338
97780W        W64189  21.702  38.276   4.115
97781W        W64190  27.553   5.133   1.212
97782W        W64191   6.383   3.395  11.009
97783W        W64192  42.796  25.987   1.158
97784W        W64193  44.654  36.424  12.017
97785W        W64194   7.456  42.111   3.648
97786W        W64195  31.005   2.359  13.147
97787W        W64196  31.542  44.202   3.504
97788W        W64197   6.463  19.583   0.432
97789W        W64198   2.243  36.044  12.456
97790W        W64199   3.243  41.920   0.710
97791W        W64200  41.254  31.487   0.288
97792W        W64201   1.421   1.348  13.796
97793W        W64202   9.412   9.677   3.002
97794W        W64203  16.953  40.068   1.746
97795W        W64204  15.100  38.311  14.909
97796W        W64205   6.819  31.141  11.915
97797W        W64206  36.502  20.093  10.316
97798W        W64207   8.945  28.581   4.156
97799W        W64208  26.110  35.944  12.945
97800W        W64209  14.210  24.518   0.047
97801W        W64210   6.835  30.390   1.141
97802W        W64211  21.555  42.113   2.273
97803W        W64212   5.349  19.065   1.659
97804W        W64213  39.185  34.420  14.940
97805W        W64214  10.428  16.669  12.547
97806W        W64215  36.157  37.009   1.934
97807W        W64216   7.011  21.224  10.684
97808W        W64217  20.026   6.168  13.433
97809W        W64218  13.492  44.548   4.075
97810W        W64219  11.405  11.342  13.660
97811W        W64220   6.857  26.074   2.310
97812W        W64221  30.612  31.153   3.818
97813W        W64222  14.694   4.098   4.804
97814W        W64223  29.486  30.645   0.287
97815W        W64224   0.898  25.353  10.780
97816W        W64225  34.666  20.217   1.249
97817W        W64226  11.920   9.528  11.618
97818W        W64227  20.610   9.460  14.375
97819W        W64228  15.656  20.265   2.606
97820W        W64229  41.047   0.606   3.632
97821W        W64230  35.479  16.036  13.320
97822W        W64231  10.665  17.796   2.282
97823W        W64232  33.486  32.936  12.483
97824W        W64233   3.437  30.095   4.131
97825W        W64234  43.730  19.468  12.719
97826W        W64235  14.213  21.681  14.930
97827W        W64236   1.870  32.589  13.993
97828W        W64237   5.431  23.551   2.258
97829W        W64238  17.309   8.903  10.640
97830W        W64239  33.440   6.200   2.429
97831W        W64240   0.737  32.928   1.270
97832W        W64241  37.856  42.552  13.002
97833W        W64242   4.239  30.869   0.046
97834W        W64243   8.629  22.738   3.679
97835W        W64244  26.575  22.461   2.398
97836W        W64245  34.208  31.887  12.074
97837W        W64246  21.342  44.501   1.633
97838W        W64247  41.989  11.248   2.785
97839W        W64248  18.508  40.510   1.365
97840W        W64249  29.857   6.318   0.248
97841W        W64250  44.778  13.126   1.264
97842W        W64251   4.809  32.931  11.934
97843W        W64252   7.117  15.610  11.989
97844W        W64253  26.038   0.932   1.734
97845W        W64254  29.211  27.912  10.286
97846W        W64255  12.617   9.718   3.647
97847W        W64256   7.241  35.387   2.930
97848W        W64257  12.326   9.321   2.810
97849W        W64258   0.114  21.256  14.504
97850W        W64259   7.043  28.487  14.847
97851W        W64260   2.827   5.186  12.977
97852W        W64261  26.527  26.657  13.665
97853W        W64262   2.281  39.861  11.220
97854W        W64263   3.632   8.562   3.733
97855W        W64264  38.938  17.290  12.498
97856W        W64265  39.916  26.645   3.525
97857W        W64266  10.339   8.707   3.643
97858W        W64267  27.531  27.982   1.634
97859W        W64268  12.694  44.913   0.012
97860W        W64269  24.184  39.200  10.163
97861W        W64270  44.885   3.887   0.460
97862W        W64271  41.468  35.291   0.820
97863W        W64272  42.584  38.403   0.089
97864W        W64273  24.822  19.214   4.203
97865W        W64274  26.440  28.073  10.713
97866W        W64275  21.437  26.633  14.802
97867W        W64276  38.101   4.752   3.400
97868W        W64277  35.375  19.611  10.597
97869W        W64278   8.400  26.205  14.950
97870W        W64279  28.259  34.168  10.427
97871W        W64280  15.072  20.624   9.874
97872W        W64281   0.765  11.975  12.470
97873W        W64282  13.362  16.350  10.744
97874W        W64283   3.819  24.774   5.066
97875W        W64284  32.290  18.049  13.078
97876W        W64285   3.047  33.786   1.332
97877W        W64286  14.077  14.204   5.081
97878W        W64287  33.030   6.134  12.993
97879W        W64288   9.419  44.409  13.772
97880W        W64289  41.990  14.412   1.641
97881W        W64290  28.952  39.292  10.688
97882W        W64291  20.133  30.002  11.509
97883W        W64292  38.409  10.566  14.417
97884W        W64293  26.931  11.531  10.120
97885W        W64294  15.715  17.472   3.884
97886W        W64295  13.232  18.631  10.594
97887W        W64296  43.524  24.118  13.005
97888W        W64297  11.583  11.788   0.851
97889W        W64298   9.101  33.484   3.064
97890W        W64299  27.209  12.663  12.935
97891W        W64300   5.624  38.888  14.221
97892W        W64301   3.274  13.856  10.543
97893W        W64302  35.024  16.537   2.483
97894W        W64303   7.882  21.250  10.291
97895W        W64304  23.218   7.998   2.104
97896W        W64305   0.830  17.121  10.997
97897W        W64306  27.863  41.337   3.707
97898W        W64307  29.984  21.171   1.025
97899W        W64308  14.859  22.187  14.231
97900W        W64309   2.839   4.935   0.813
97901W        W64310  33.568  11.182   2.344
97902W        W64311  43.388  26.676  14.700
97903W        W64312  21.799   3.923  10.339
97904W        W64313  16.226  41.908  14.772
97905W        W64314   9.348  38.990   5.201
97906W        W64315  25.427   8.367   4.140
97907W        W64316  43.420  25.480   2.255
97908W        W64317  27.128  43.994   4.542
97909W        W64318   7.300  41.923  10.661
97910W        W64319  12.654  16.009   0.878
97911W        W64320  33.545  14.367  14.596
97912W        W64321  26.648  11.680   0.175
97913W        W64322  40.994   6.621   3.199
97914W        W64323   4.276  19.820  11.215
97915W        W64324  34.584  21.017   2.128
97916W        W64325  19.214  29.039  12.407
97917W        W64326  21.173   9.447  14.419
97918W        W64327  37.047  34.974   2.869
97919W        W64328  10.815  25.118   1.368
97920W        W64329   8.809   6.139   4.620
97921W        W64330   6.875  43.424   0.892
97922W        W64331  19.989   5.538  10.646
97923W        W64332  44.199  18.244   0.694
97924W        W64333  42.097  23.055  12.061
97925W        W64334   3.832   9.339   4.263
97926W        W64335  15.738  30.090  12.460
97927W        W64336  20.742  16.685   2.391
97928W        W64337  40.332  21.970   0.765
97929W        W64338  40.529  11.669   4.591
97930W        W64339   2.406  17.993  12.904
97931W        W64340  36.003  15.919   4.152
97932W        W64341   1.783  40.764  13.421
97933W        W64342   0.189   4.475  10.757
97934W        W64343  10.094  20.097  12.689
97935W        W64344  14.077  39.912   4.351
97936W        W64345  34.577  13.688   2.792
97937W        W64346  13.389  10.055   2.855
97938W        W64347  23.756  29.887  12.908
97939W        W64348  28.739   0.374  14.467
97940W        W64349  35.989  12.336   4.054
97941W        W64350  43.632   3.990  14.002
97942W        W64351  20.105  12.111   3.305
97943W        W64352   9.375  24.956  12.573
97944W        W64353  17.866   7.966   0.381
97945W        W64354  30.029   6.268   4.846
97946W        W64355  20.781  44.631   3.642
97947W        W64356  28.670  26.608  14.329
97948W        W64357  13.236  30.036   3.554
97949W        W64358  12.273  35.063   1.880
97950W        W64359  25.939  41.128   4.001
97951W        W64360  37.113  34.508  13.394
97952W        W64361  44.809   1.796  12.870
97953W        W64362  20.667  39.376   1.789
97954W        W64363   7.074  24.597   3.140
97955W        W64364  12.257  32.281   5.104
97956W        W64365  33.452   4.782   3.625
97957W        W64366  38.683  28.591   3.205
97958W        W64367  32.414   7.677  10.345
97959W        W64368   1.537  39.635   0.304
97960W        W64369   4.296   9.916   3.255
97961W        W64370  17.190  32.079   4.799
97962W        W64371  20.254  19.066   1.103
97963W        W64372  26.289  29.618   1.208
97964W        W64373  36.590  30.588   5.130
97965W        W64374  37.957  23.181   1.381
97966W        W64375   8.330  30.220   2.748
97967W        W64376  10.764  12.683  10.674
97968W        W64377  41.021  34.854  11.063
97969W        W64378  27.916  26.614  14.739
97970W        W64379  14.189   2.848  14.676
97971W        W64380   5.675  13.702  14.916
97972W        W64381  31.574  28.008  13.763
97973W        W64382  40.549  28.155   4.654
97974W        W64383  23.084  40.811   0.158
97975W        W64384   6.682   8.963   2.117
97976W        W64385  31.299  23.209  11.573
97977W        W64386  30.456   6.620   1.754
97978W        W64387  10.062  42.437   3.170
97979W        W64388   7.349   8.664  12.675
97980W        W64389   8.832  19.218  14.741
97981W        W64390  27.077   7.435   0.827
97982W        W64391  10.447  28.951   0.440
97983W        W64392  10.644  31.584  10.661
97984W        W64393   9.683  10.905  11.167
97985W        W64394  35.838   0.221  11.162
97986W        W64395  21.776  41.724   1.777
97987W        W64396  23.784  26.777  14.547
97988W        W64397  40.594  19.851  12.723
97989W        W64398  41.557  19.934  12.456
97990W        W64399   0.803  41.888   3.088
97991W        W64400   2.071   4.503  12.034
97992W        W64401  28.150  35.064  10.995
97993W        W64402   4.711   5.457   4.199
97994W        W64403  44.859  30.567   2.003
97995W        W64404  42.382  22.009  14.948
97996W        W64405  20.722  23.039  13.866
97997W        W64406  31.200  20.878  13.413
97998W        W64407   6.092  39.600  10.126
97999W        W64408   2.479  37.662   3.690
98000W        W64409  28.044  12.276  14.013
98001W        W64410  15.724  36.710  12.408
98002W        W64411  30.149  11.304   0.985
98003W        W64412  27.517  37.284   3.108
98004W        W64413  36.056  42.132  14.462
98005W        W64414  38.573  15.301   2.780
98006W        W64415  20.160  29.707   2.692
98007W        W64416  21.006  21.117   1.095
98008W        W64417  37.032  33.258  13.926
98009W        W64418  18.983  32.330   5.026
98010W        W64419   4.484  31.979  12.519
98011W        W64420  25.575  44.033   4.664
98012W        W64421   8.436  43.579  10.977
98013W        W64422  39.936   2.686  11.984
98014W        W64423   9.187  22.071  11.669
98015W        W64424  13.223   8.748  13.962
98016W        W64425  36.569   0.626  13.818
98017W        W64426  10.188  19.927   4.192
98018W        W64427   4.927   0.032  12.791
98019W        W64428  14.638  22.477  11.266
98020W        W64429  16.595   5.483   0.726
98021W        W64430   4.191  38.441  13.894
98022W        W64431  37.961   3.266  14.131
98023W        W64432  25.186  41.992   4.600
98024W        W64433  37.853  19.211   3.547
98025W        W64434  42.708   0.095   2.359
98026W        W64435  42.341  37.679   1.395
98027W        W64436  19.089   8.330   4.594
98028W        W64437   3.165   4.782   5.059
98029W        W64438  30.256  44.733  11.690
98030W        W64439  13.028  13.237  10.508
98031W        W64440  33.382  11.165  12.358
98032W        W64441  25.258  35.056   3.995
98033W        W64442  15.744  38.780   4.685
98034W        W64443  20.608   4.328  11.937
98035W        W64444  25.590  35.515   0.735
98036W        W64445  13.382   7.503   3.638
98037W        W64446  39.851  17.795   2.293
98038W        W64447  13.456  20.240   4.278
98039W        W64448  40.008  42.422  10.729
98040W        W64449  31.809  28.452  13.917
98041W        W64450   4.888  14.087  11.417
98042W        W64451  14.182  34.716   4.347
98043W        W64452  24.919  14.210   4.130
98044W        W64453  38.230  11.209  10.643
98045W        W64454  15.746  31.420   3.208
98046W        W64455  15.003  39.308   2.416
98047W        W64456  16.525  44.859  13.829
98048W        W64457  11.603   3.934  11.477
98049W        W64458   1.772  31.465   1.712
98050W        W64459  12.739   7.756  12.957
98051W        W64460  43.841  27.846   2.768
98052W        W64461  42.755  24.649  14.079
98053W        W64462   7.393   5.167   1.453
98054W        W64463   9.657  21.810   3.664
98055W        W64464  29.311  44.856  13.881
98056W        W64465  36.454  31.155  12.980
98057W        W64466  44.721  26.921  11.930
98058W        W64467  16.440   4.610   1.716
98059W        W64468  39.401  28.862  14.350
98060W        W64469  40.880  20.709   4.524
98061W        W64470  30.860  24.382  10.747
98062W        W64471   2.024  14.132   3.925
98063W        W64472   8.923  23.901   3.088
98064W        W64473  39.923  42.111   4.089
98065W        W64474  23.144   2.814  13.396
98066W        W64475  25.982  38.293   3.098
98067W        W64476  23.497  15.045   3.583
98068W        W64477  13.635  43.660   4.404
98069W        W64478  25.133  40.042  12.466
98070W        W64479  43.956   5.257   0.356
98071W        W64480  21.073  33.987  13.495
98072W        W64481   1.592  14.762  14.021
98073W        W64482   4.645  17.036  14.495
98074W        W64483  37.126   7.180   1.664
98075W        W64484  17.174   7.343   2.694
98076W        W64485   6.514  42.230   4.654
98077W        W64486   4.460   8.683  12.600
98078W        W64487  41.297   5.419  11.222
98079W        W64488  19.396   1.751   3.440
98080W        W64489  39.550  42.193  10.792
98081W        W64490  37.189  39.673   5.007
98082W        W64491   8.269  14.624   3.680
98083W        W64492  34.165  18.709  14.268
98084W        W64493  29.677  11.293   1.309
98085W        W64494  21.801   5.692   3.684
98086W        W64495  41.020  37.019   1.378
98087W        W64496  37.228  10.329   0.289
98088W        W64497  39.449  20.079   4.744
98089W        W64498  36.346   8.323   0.942
98090W        W64499  33.423  44.441   0.315
98091W        W64500  23.518   5.459  14.874
98092W        W64501  31.340  10.543  13.369
98093W        W64502  19.946  16.187   4.918
98094W        W64503  13.775  20.532   4.940
98095W        W64504  43.503   7.491  10.727
98096W        W64505  16.407  23.506   5.095
98097W        W64506  16.814  13.404  14.902
98098W        W64507  24.593  33.915  11.435
98099W        W64508  22.988  21.766   0.305
98100W        W64509   8.194  27.093   4.378
98101W        W64510  15.855  34.544   1.399
98102W        W64511  41.573   8.804  12.115
98103W        W64512  21.004   1.085  14.930
98104W        W64513   2.784  20.942   4.160
98105W        W64514   6.438  17.238  14.310
98106W        W64515   7.443  38.574  10.965
98107W        W64516  15.887  13.317  13.442
98108W        W64517  13.112  28.215   3.150
98109W        W64518   9.827   8.396  13.642
98110W        W64519  37.450  14.206  13.413
98111W        W64520  25.691  24.710   9.803
98112W        W64521  21.157   8.606  10.649
98113W        W64522  42.991  20.676  13.119
98114W        W64523  43.036  15.208   3.781
98115W        W64524  12.866  19.645  14.390
98116W        W64525  19.712  31.926   4.646
98117W        W64526  23.109  16.080   0.333
98118W        W64527  25.243  31.572  10.561
98119W        W64528  10.508  22.963   1.684
98120W        W64529  27.152  18.312  10.688
98121W        W64530  16.168   2.365   1.707
98122W        W64531  42.423  22.788   4.549
98123W        W64532  18.261  41.410  11.093
98124W        W64533  31.654  13.194  13.495
98125W        W64534  23.163  43.013   5.029
98126W        W64535  20.891   0.945  13.916
98127W        W64536   2.390   5.446  12.524
98128W        W64537  30.126  25.391  12.135
98129W        W64538  40.886  34.473  14.413
98130W        W64539  12.677  16.834  13.105
98131W        W64540  23.169  34.344  11.108
98132W        W64541  43.254  17.315  12.146
98133W        W64542   9.234  10.407   4.817
98134W        W64543   4.276  44.611   2.850
98135W        W64544  26.285  23.910  14.505
98136W        W64545   9.616  37.127   4.458
98137W        W64546  25.412  22.679  12.189
98138W        W64547  21.759   1.745   1.255
98139W        W64548  29.580   2.759   1.013
98140W        W64549  33.686  23.140   3.045
98141W        W64550   4.848  22.971  13.338
98142W        W64551  42.103  12.275   4.084
98143W        W64552  39.676   0.714  11.316
98144W        W64553  27.536  12.958   3.394
98145W        W64554  24.164   9.401   1.263
98146W        W64555  22.219  40.094   3.609
98147W        W64556  15.241  42.595   4.635
98148W        W64557  29.110  26.638   1.747
98149W        W64558  31.587   8.782   1.476
98150W        W64559  18.569  18.660  13.950
98151W        W64560   5.859  40.163   2.724
98152W        W64561  33.278  23.790   2.295
98153W        W64562  16.605  28.987   2.270
98154W        W64563  27.249  12.407   3.975
98155W        W64564  35.166   5.892   1.247
98156W        W64565   6.867  10.936   2.258
98157W        W64566  33.100  19.723   5.113
98158W        W64567  12.865  36.142   3.671
98159W        W64568  18.069   1.075  13.966
98160W        W64569   5.834  38.846  11.184
98161W        W64570   8.865  39.384  14.090
98162W        W64571  34.645  29.063   2.685
98163W        W64572  38.041  15.508   4.271
98164W        W64573  34.389  28.648   3.199
98165W        W64574  42.978  22.655  10.539
98166W        W64575  26.169  26.083  13.769
98167W        W64576  39.993  23.609   4.408
98168W        W64577  21.950   8.178   4.202
98169W        W64578  33.434   4.135  14.449
98170W        W64579  29.803  36.374  14.031
98171W        W64580  26.361   1.415  12.088
98172W        W64581   1.318  14.411   1.711
98173W        W64582  18.580  18.797   0.977
98174W        W64583  35.511  15.249  13.554
98175W        W64584  35.400  28.244  13.380
98176W        W64585  15.266  12.089   2.718
98177W        W64586   2.238  34.015  14.979
98178W        W64587  40.864  25.463  13.005
98179W        W64588  11.090  15.249   4.768
98180W        W64589   4.476   9.593   2.415
98181W        W64590  36.422  36.306   4.998
98182W        W64591  36.505  15.411  13.374
98183W        W64592   3.207   8.685  13.985
98184W        W64593  40.811  23.033   0.917
98185W        W64594  41.901  17.413   3.721
98186W        W64595   5.042  21.918   4.048
98187W        W64596  27.435  14.648   4.418
98188W        W64597  12.097   9.137   2.333
98189W        W64598  13.634   4.055   1.095
98190W        W64599  32.691   1.813   1.636
98191W        W64600  31.094  35.927   3.952
98192W        W64601   4.525  36.669  14.291
98193W        W64602  36.367  27.715   1.323
98194W        W64603  11.353  27.178   3.632
98195W        W64604  13.983   1.934  14.133
98196W        W64605  40.981  36.195   4.011
98197W        W64606   3.277  22.953   4.715
98198W        W64607   2.947  22.425  11.984
98199W        W64608  30.180   6.349   3.586
98200W        W64609  33.894   6.324   0.329
98201W        W64610  17.352  24.254  12.020
98202W        W64611   1.064  23.800  14.457
98203W        W64612  13.622  32.137  14.750
98204W        W64613  38.512  29.150   4.640
98205W        W64614  23.693  31.677   4.090
98206W        W64615  19.777   6.865   1.090
98207W        W64616  21.162  34.634  12.566
98208W        W64617  21.356   0.699   0.334
98209W        W64618   0.733  18.182  14.846
98210W        W64619  15.835  44.553  14.350
98211W        W64620  24.508  29.922  11.000
98212W        W64621  26.088  14.126  12.901
98213W        W64622  29.937  20.485   0.492
98214W        W64623  33.840  28.524  14.090
98215W        W64624  38.841  17.066   4.166
98216W        W64625  20.191  44.509  12.423
98217W        W64626  34.399  42.943  14.047
98218W        W64627  20.060  37.882   4.742
98219W        W64628   1.291   1.492   1.390
98220W        W64629  12.598  10.029  13.862
98221W        W64630  31.555  35.485  14.210
98222W        W64631  42.670  42.949   1.889
98223W        W64632   8.226  32.450  12.088
98224W        W64633  29.456  13.655   4.111
98225W        W64634  21.742  36.735   3.810
98226W        W64635  16.340  35.316   2.517
98227W        W64636   4.833  24.629  13.090
98228W        W64637   7.809  34.470  10.642
98229W        W64638  35.883   5.983   3.741
98230W        W64639  43.507   0.095   0.030
98231W        W64640  29.041  44.807  10.747
98232W        W64641   4.936   9.855   2.473
98233W        W64642  38.318  42.997   1.876
98234W        W64643  20.660  13.712  11.377
98235W        W64644  12.803  15.322  14.829
98236W        W64645  17.881   3.124  14.779
98237W        W64646  20.485  12.565   4.088
98238W        W64647  27.874  10.185   1.317
98239W        W64648   8.483  20.689  11.098
98240W        W64649  29.058  39.638  12.441
98241W        W64650  34.565  12.286   1.067
98242W        W64651  19.801  35.931  14.160
98243W        W64652  38.312  27.528   1.187
98244W        W64653  39.991  39.245   0.982
98245W        W64654  11.718  26.148  13.248
98246W        W64655   3.276  25.496   0.821
98247W        W64656  43.472  22.670  10.739
98248W        W64657  33.419  10.214  11.282
98249W        W64658  44.559   0.991   2.123
98250W        W64659  31.000   9.418   2.395
98251W        W64660  44.900  22.543  11.931
98252W        W64661  25.305   6.830   4.908
98253W        W64662  17.513  10.397   2.773
98254W        W64663  16.830  36.478  14.708
98255W        W64664  19.004  34.334  11.449
98256W        W64665  18.489   2.262  12.040
98257W        W64666  44.500  25.346  14.188
98258W        W64667  39.491  18.094  11.912
98259W        W64668  33.102  17.619  11.542
98260W        W64669  21.682  24.470  13.410
98261W        W64670   4.861  11.363   3.801
98262W        W64671  29.124  16.071  14.824
98263W        W64672  15.239   2.851   1.699
98264W        W64673  35.810  44.403  11.091
98265W        W64674  12.407   4.475  12.911
98266W        W64675  28.629  36.477  14.500
98267W        W64676  36.007  29.160   1.338
98268W        W64677  42.078  34.914   1.444
98269W        W64678  18.869   4.686  14.753
98270W        W64679   5.394  26.764   3.771
98271W        W64680  23.057  14.986   0.255
98272W        W64681  34.149  42.538  11.209
98273W        W64682   2.511  34.904   1.207
98274W        W64683  44.764  27.430  12.658
98275W        W64684  42.374  30.536   4.251
98276W        W64685   9.698  42.439  12.373
98277W        W64686  41.767  43.862  14.748
98278W        W64687  17.789  26.461   1.394
98279W        W64688  20.926  44.412   2.282
98280W        W64689  40.263   6.205   1.985
98281W        W64690  42.633  26.552  10.870
98282W        W64691   8.198  43.513   2.864
98283W        W64692  34.557  15.144  10.752
98284W        W64693  37.419  33.074  11.070
98285W        W64694  40.028  31.504   1.889
98286W        W64695  14.685   8.786  10.497
98287W        W64696  30.295  25.498  10.804
98288W        W64697  43.023  16.766   0.314
98289W        W64698  44.299  12.544  11.741
98290W        W64699   4.858  15.036   0.349
98291W        W64700  36.067  25.745  11.293
98292W        W64701  34.576  10.871   4.674
98293W        W64702  17.166  15.693   3.489
98294W        W64703  24.434  30.036  14.359
98295W        W64704  31.644  18.679   3.989
98296W        W64705   7.420  43.898   0.393
98297W        W64706   9.854  22.912   2.840
98298W        W64707   9.198  24.330  10.189
98299W        W64708  11.404   2.143  11.172
98300W        W64709  35.812  17.759   2.390
98301W        W64710   4.845  15.064  11.607
98302W        W64711   8.157  32.430  14.467
98303W        W64712   8.978  21.981  12.513
98304W        W64713  20.538  20.061  10.720
98305W        W64714  19.241  20.567   1.236
98306W        W64715  39.047  39.998   2.323
98307W        W64716  25.699  19.404   1.221
98308W        W64717   6.998  31.186   1.397
98309W        W64718   2.796   2.053  10.401
98310W        W64719   1.753  14.561   3.058
98311W        W64720  34.511  31.221  11.130
98312W        W64721  18.492  35.355   0.359
98313W        W64722  22.018  14.224   3.650
98314W        W64723  15.419   0.468  12.444
98315W        W64724   1.328  33.152   1.754
98316W        W64725  14.571  27.377  12.948
98317W        W64726  33.397  13.631   2.199
98318W        W64727  40.175  14.202  12.538
98319W        W64728  40.276  23.048  11.605
98320W        W64729   1.857   7.076  10.799
98321W        W64730  19.973  23.717   3.569
98322W        W64731  35.061   1.952   0.797
98323W        W64732  20.716   2.762   0.570
98324W        W64733  38.608  22.189  14.349
98325W        W64734  33.676  19.038   1.733
98326W        W64735  36.006  30.036  11.818
98327W        W64736  25.791  37.284  13.637
98328W        W64737  12.728   9.614   2.627
98329W        W64738  16.703  14.618   0.136
98330W        W64739   5.382   8.798  12.899
98331W        W64740  44.395  13.158   3.699
98332W        W64741   9.280   5.246  11.164
98333W        W64742  12.709  18.618   1.028
98334W        W64743  31.162  34.364  13.994
98335W        W64744  11.798  11.571   4.632
98336W        W64745   5.673  34.577   0.466
98337W        W64746  40.063  43.307  13.381
98338W        W64747  17.052  44.245  13.429
98339W        W64748   3.676  17.610  11.693
98340W        W64749  26.191  36.153   2.995
98341W        W64750  14.692  30.545  11.247
98342W        W64751  24.706  18.532   3.652
98343W        W64752  11.565  17.730  12.583
98344W        W64753  36.668  33.922   3.115
98345W        W64754   7.389  31.000   3.201
98346W        W64755  20.134  17.908   5.284
98347W        W64756  23.551  12.578   4.073
98348W        W64757   6.133  39.491  14.534
98349W        W64758  29.576  25.134  11.202
98350W        W64759  31.295  13.746   4.063
98351W        W64760  32.253   3.958   0.338
98352W        W64761  32.567   9.388  13.778
98353W        W64762  41.495  42.357   0.744
98354W        W64763  14.462   6.041  12.851
98355W        W64764  34.589   2.297   2.245
98356W        W64765  34.405  43.257  14.865
98357W        W64766  13.136  11.378  12.642
98358W        W64767  19.004   1.777  14.384
98359W        W64768   6.014  26.132   2.537
98360W        W64769  15.148  38.525  12.502
98361W        W64770  43.315  41.247  12.934
98362W        W64771  27.937  16.766   0.363
98363W        W64772  22.720  42.915  10.510
98364W        W64773  37.002  17.975   3.235
98365W        W64774  16.778  23.543  14.414
98366W        W64775  34.175   1.453   3.359
98367W        W64776  39.122   7.823  14.579
98368W        W64777  36.339  34.008  12.258
98369W        W64778  44.546  27.437  12.043
98370W        W64779   1.414   0.067  14.410
98371W        W64780  19.253  28.771   2.910
98372W        W64781  30.961  36.211  14.473
98373W        W64782  11.302  24.442  11.949
98374W        W64783  12.210  29.547  12.018
98375W        W64784  42.722   3.842   1.254
98376W        W64785  36.102  44.799  11.941
98377W        W64786  32.400   9.353  14.765
98378W        W64787   7.735  26.461   0.874
98379W        W64788  20.996   3.439   2.646
98380W        W64789   0.261   4.238   0.420
98381W        W64790  25.268  40.714   4.577
98382W        W64791  12.190  20.492   1.302
98383W        W64792  38.587  22.055  10.591
98384W        W64793   1.582  36.255  12.111
98385W        W64794  11.651  18.419  11.592
98386W        W64795  17.307  41.323   2.238
98387W        W64796  20.529  21.976   1.372
98388W        W64797  38.955  41.046  13.223
98389W        W64798  35.173  19.089  11.484
98390W        W64799  22.702  36.629   3.848
98391W        W64800  25.623  13.019   0.330
98392W        W64801  43.048  11.285   2.249
98393W        W64802  10.491  15.261   1.657
98394W        W64803  26.550  27.405  14.778
98395W        W64804  12.739  18.221  14.182
98396W        W64805  14.653  24.450   3.707
98397W        W64806  12.853  27.862   0.343
98398W        W64807   4.394   1.494   3.540
98399W        W64808  39.303  33.393  10.654
98400W        W64809  32.513  20.238   0.534
98401W        W64810  36.566  36.041  13.661
98402W        W64811   1.569   4.894  10.640
98403W        W64812  18.094  20.675   0.646
98404W        W64813  44.160   9.119   1.416
98405W        W64814  41.580  31.946  13.397
98406W        W64815  30.667  29.078   0.348
98407W        W64816  29.993   4.077   1.171
98408W        W64817   7.471  29.938  13.996
98409W        W64818  17.195  34.123   2.413
98410W        W64819  21.595  35.927   2.614
98411W        W64820   6.131  32.670  11.137
98412W        W64821  38.492   6.810   2.862
98413W        W64822  31.641  13.109  12.560
98414W        W64823  22.027  21.713  11.181
98415W        W64824  44.782   7.334  11.160
98416W        W64825  26.525  14.557   4.991
98417W        W64826   9.112   4.966   1.201
98418W        W64827   0.036  13.127   0.754
98419W        W64828  31.940  29.779   1.332
98420W        W64829  10.263  15.802  14.468
98421W        W64830  17.578   4.786  13.515
98422W        W64831  25.975  24.136  13.045
98423W        W64832  11.042  23.926   3.831
98424W        W64833  36.003   2.920   3.633
98425W        W64834  19.053  16.305   2.617
98426W        W64835  22.522  10.868   3.343
98427W        W64836   8.994  42.377  14.528
98428W        W64837  34.312  39.038  12.547
98429W        W64838  24.005  20.959  11.265
98430W        W64839  34.439  36.633  14.816
98431W        W64840  23.585  13.643   2.838
98432W        W64841  37.756  39.840  13.449
98433W        W64842   7.307   9.944  11.444
98434W        W64843  40.356  26.072  12.588
98435W        W64844  37.116  43.906  12.084
98436W        W64845  32.717  11.120  14.242
98437W        W64846  13.057  11.821  13.855
98438W        W64847  37.856   1.827  13.868
98439W        W64848  43.383  20.897   4.004
98440W        W64849  30.202  11.575  11.964
98441W        W64850   6.821  38.704  11.650
98442W        W64851  42.809  28.590  12.133
98443W        W64852  37.878   9.163   3.053
98444W        W64853  30.047  25.522  13.510
98445W        W64854  30.134  31.418  10.695
98446W        W64855  34.607  15.839   3.095
98447W        W64856   2.362  42.243  11.347
98448W        W64857  35.612   7.128  12.879
98449W        W64858  34.116  33.473   3.844
98450W        W64859  13.598  12.102  13.489
98451W        W64860  14.198  24.376   2.443
98452W        W64861  10.154  27.641   3.828
98453W        W64862   5.876  44.367   1.399
98454W        W64863   8.815  28.952  12.939
98455W        W64864  28.888  20.946  12.529
98456W        W64865  21.956  18.605  13.365
98457W        W64866  31.525  36.411  10.609
98458W        W64867  34.015  44.871  12.477
98459W        W64868  30.100  42.473  14.420
98460W        W64869  32.987  14.653   1.822
98461W        W64870  21.586  41.249   1.377
98462W        W64871  37.809  18.078  12.581
98463W        W64872  39.531  33.001   0.840
98464W        W64873  28.187  35.134   1.628
98465W        W64874   9.871   0.112  14.089
98466W        W64875  24.146  21.443  14.936
98467W        W64876  44.450  36.022  10.777
98468W        W64877  38.321  19.385   4.063
98469W        W64878  35.383  32.625   0.812
98470W        W64879  12.127  43.210   1.233
98471W        W64880  12.226  16.072   1.948
98472W        W64881  13.037   6.195   3.271
98473W        W64882  13.897  29.084  14.235
98474W        W64883  34.368  39.435  14.167
98475W        W64884  27.016   3.989  14.602
98476W        W64885  23.767  10.295   2.339
98477W        W64886   0.163   5.234   4.559
98478W        W64887  42.702   1.000  13.063
98479W        W64888  41.891  20.303   2.720
98480W        W64889  38.785  39.578  12.058
98481W        W64890  36.973  23.778  12.575
98482W        W64891   9.394  35.477   3.767
98483W        W64892  17.366  34.970  12.384
98484W        W64893  36.346  17.172  13.993
98485W        W64894   1.301  12.078  13.257
98486W        W64895  24.601  15.129   2.598
98487W        W64896  34.166  34.076  14.199
98488W        W64897   1.293  41.126  12.167
98489W        W64898  30.644  44.539   0.922
98490W        W64899  20.597  41.390  13.850
98491W        W64900  36.238  23.023  11.374
98492W        W64901  33.614   4.764  13.291
98493W        W64902  22.730  42.406   2.561
98494W        W64903  29.114  11.361   4.091
98495W        W64904  17.218  41.234   0.346
98496W        W64905  15.834  31.469  12.604
98497W        W64906  23.378  28.742   1.901
98498W        W64907   7.364  33.514  10.541
98499W        W64908  27.573  32.946  14.791
98500W        W64909  26.093  25.234   3.706
98501W        W64910  26.263   6.874  12.814
98502W        W64911   8.006   6.730  14.814
98503W        W64912  14.280  12.915   3.209
98504W        W64913  24.766  12.874  12.618
98505W        W64914  43.940  28.745  12.049
98506W        W64915   8.718  31.159   2.825
98507W        W64916   7.618  16.626  12.985
98508W        W64917  19.704  41.459  10.875
98509W        W64918  44.213  38.007   0.550
98510W        W64919  32.446  17.034  11.986
98511W        W64920  35.993  17.328  13.379
98512W        W64921  34.206  21.856   2.778
98513W        W64922  26.022  34.099   2.176
98514W        W64923  41.394  11.223  12.107
98515W        W64924  15.015  24.578   3.018
98516W        W64925   9.976  27.684  11.217
98517W        W64926  14.652  40.269   2.843
98518W        W64927  22.769  27.045   4.817
98519W        W64928  36.556  12.246   2.672
98520W        W64929  31.080  30.619   4.906
98521W        W64930  17.019   9.695   3.535
98522W        W64931   3.369  12.850   3.305
98523W        W64932  26.850  18.023   4.083
98524W        W64933   6.401  44.032  12.577
98525W        W64934  31.163  15.866   2.224
98526W        W64935  23.305  25.116   1.889
98527W        W64936  12.450  37.938  14.969
98528W        W64937   3.818  36.449   0.955
98529W        W64938  34.167   5.908  14.090
98530W        W64939  31.947  11.777  10.986
98531W        W64940  20.719  43.235  14.189
98532W        W64941  27.481  33.519   1.117
98533W        W64942   1.925  34.189  12.958
98534W        W64943  29.229  24.425   2.198
98535W        W64944  24.540   3.435   1.098
98536W        W64945  19.169   3.613  12.137
98537W        W64946  19.265  12.083   4.868
98538W        W64947  10.998   4.143   4.545
98539W        W64948  31.578  32.173  10.676
98540W        W64949  14.179  38.094   3.596
98541W        W64950   2.391  11.124   2.338
98542W        W64951   8.709   1.547  11.374
98543W        W64952  25.285  26.165  12.600
98544W        W64953  33.953  16.336  12.566
98545W        W64954  19.454  17.593  12.924
98546W        W64955  36.316  43.577  14.806
98547W        W64956  12.317   5.840  13.940
98548W        W64957  41.001  11.237  12.462
98549W        W64958  36.670  28.103  14.031
98550W        W64959  10.328   6.502   5.110
98551W        W64960  35.867  20.639   2.425
98552W        W64961   0.257   4.423  11.589
98553W        W64962  12.029  22.962   1.827
98554W        W64963  44.211  30.242  10.789
98555W        W64964  13.198  11.940   2.831
98556W        W64965  12.363  31.892   1.778
98557W        W64966  13.779  24.651   1.334
98558W        W64967   9.873  23.534  10.259
98559W        W64968  41.254  32.036  12.512
98560W        W64969  43.974   7.167   3.791
98561W        W64970   6.244  12.185   1.946
98562W        W64971   3.066  24.163  14.770
98563W        W64972   5.695  40.404  11.609
98564W        W64973  27.155  20.309  12.598
98565W        W64974   3.939  44.798  13.973
98566W        W64975  41.842  24.707   1.247
98567W        W64976  34.623  27.446  11.592
98568W        W64977   4.986  10.443  12.952
98569W        W64978  43.767  16.636  12.527
98570W        W64979  24.651   0.288  14.527
98571W        W64980   4.794  17.051   1.363
98572W        W64981  30.425  42.593   2.250
98573W        W64982  11.876   5.344   4.289
98574W        W64983   7.758  16.821   2.902
98575W        W64984  27.529  11.133  10.631
98576W        W64985  36.505  10.653   5.266
98577W        W64986  43.332  42.684   0.380
98578W        W64987  29.124  11.168  13.445
98579W        W64988  28.029  41.385   2.349
98580W        W64989  15.895  30.711   0.656
98581W        W64990  19.994   9.126   3.650
98582W        W64991  17.795  23.567  14.587
98583W        W64992  32.110  26.522  12.456
98584W        W64993  34.413  38.548   4.793
98585W        W64994  36.760  34.573   2.684
98586W        W64995   7.144  16.131   0.808
98587W        W64996  20.019  14.864   1.529
98588W        W64997  33.656  38.809   3.321
98589W        W64998   2.794   0.366  14.811
98590W        W64999   8.046  36.020   1.241
98591W        W65000  15.921   5.556  13.707
98592W        W65001  21.701   8.271  11.492
98593W        W65002  34.319  10.186  10.669
98594W        W65003  15.518  17.789   3.083
98595W        W65004  12.528  29.565   1.493
98596W        W65005  43.177  16.879   4.553
98597W        W65006  32.647  28.655   0.027
98598W        W65007  43.382  27.070   4.624
98599W        W65008  25.666  19.481   3.000
98600W        W65009  21.518  43.389  12.678
98601W        W65010  22.292  11.387  13.022
98602W        W65011   4.710   2.059  11.169
98603W        W65012  12.763  30.188  14.873
98604W        W65013  34.844  13.024   2.009
98605W        W65014  16.716  19.154  13.826
98606W        W65015  24.374  29.013   3.816
98607W        W65016  36.823   6.303   0.276
98608W        W65017  39.583   0.777  10.602
98609W        W65018   9.801  40.844   2.857
98610W        W65019   7.066   2.974   3.717
98611W        W65020  25.458  23.479  12.422
98612W        W65021   9.009   5.308   1.790
98613W        W65022   7.132  15.184   1.707
98614W        W65023  44.843  44.012   1.765
98615W        W65024  19.702  33.802   2.408
98616W        W65025  19.567   4.758  12.527
98617W        W65026  33.031  28.499   3.642
98618W        W65027  17.666  26.883  12.856
98619W        W65028  12.659  27.673   0.786
98620W        W65029  13.217  35.900   3.976
98621W        W65030  41.094  22.547  14.852
98622W        W65031   9.853  33.717   2.089
98623W        W65032   3.997  22.111   9.642
98624W        W65033  33.418  25.087   0.458
98625W        W65034  29.116  27.156   0.972
98626W        W65035  10.675   7.202   3.099
98627W        W65036   1.949   0.278  14.463
98628W        W65037  42.900  35.422   4.219
98629W        W65038  35.686   8.713   2.695
98630W        W65039  26.624  34.795  11.657
98631W        W65040  21.321  42.505  14.388
98632W        W65041   2.208  14.037   1.886
98633W        W65042  11.767  29.878  12.595
98634W        W65043  23.466  43.738  11.454
98635W        W65044  31.126   3.173  12.098
98636W        W65045  17.597  15.111  13.512
98637W        W65046  17.657  27.142  12.393
98638W        W65047  42.859  19.791  12.761
98639W        W65048   5.898  19.762  14.791
98640W        W65049   3.248  21.044   3.327
98641W        W65050  12.148  22.007   0.276
98642W        W65051  27.420   4.403   4.600
98643W        W65052  28.042  27.141   4.307
98644W        W65053  18.491   0.126   3.430
98645W        W65054  26.306   6.122  12.410
98646W        W65055   8.900  14.166  14.761
98647W        W65056   8.973   5.892  12.821
98648W        W65057  15.135  25.825   2.747
98649W        W65058  14.919  20.132   0.861
98650W        W65059  15.611  28.201   4.165
98651W        W65060  39.944   6.928   0.481
98652W        W65061  40.277  25.565   2.250
98653W        W65062   1.003   6.619  14.078
98654W        W65063  31.993  12.779  14.025
98655W        W65064   7.716  44.285   3.269
98656W        W65065  32.973  33.356   0.727
98657W        W65066  36.907   3.468   4.320
98658W        W65067   5.347  15.024  11.810
98659W        W65068  42.487   4.291  11.954
98660W        W65069   8.810  25.663  10.241
98661W        W65070  31.324   7.814   1.755
98662W        W65071   9.854  35.046  13.516
98663W        W65072   9.626  27.287   0.510
98664W        W65073  12.101  25.138  11.136
98665W        W65074  15.254  27.216  14.857
98666W        W65075  29.027  36.792   1.447
98667W        W65076  27.211   9.770   4.506
98668W        W65077  38.805   2.893  13.421
98669W        W65078  27.606  35.355   2.557
98670W        W65079  31.176  16.786  10.320
98671W        W65080  37.571  40.424   1.832
98672W        W65081  32.068  44.979  13.543
98673W        W65082  29.045  27.366  13.703
98674W        W65083  36.504  19.855  11.556
98675W        W65084  29.179  16.434  13.582
98676W        W65085  43.888  14.232  13.293
98677W        W65086  16.711  17.566  12.848
98678W        W65087  22.125  25.786  13.553
98679W        W65088  20.974   1.287   1.198
98680W        W65089  35.062  30.611   3.777
98681W        W65090  28.758  26.248  14.865
98682W        W65091  39.429  39.264  12.549
98683W        W65092  44.457  19.943  15.000
98684W        W65093  37.578  39.822  12.351
98685W        W65094   8.385  16.157   4.683
98686W        W65095  33.373  39.606   2.661
98687W        W65096   0.035  32.025  14.865
98688W        W65097  34.416  10.347  11.882
98689W        W65098  26.241  22.127  13.560
98690W        W65099  14.008   7.711  11.227
98691W        W65100  25.769  35.696  11.640
98692W        W65101   4.935  19.726  11.676
98693W        W65102  26.082  41.468   3.612
98694W        W65103   9.770  16.540  11.948
98695W        W65104  42.725  17.476  11.995
98696W        W65105  18.885  41.708   2.397
98697W        W65106   8.549   5.083   1.897
98698W        W65107  39.131   3.734   4.696
98699W        W65108  33.625   1.414  14.023
98700W        W65109   1.704  33.021  13.800
98701W        W65110  35.933  24.920   0.110
98702W        W65111  33.116   1.998   0.303
98703W        W65112  28.748  37.800  11.459
98704W        W65113  41.495   3.876   0.344
98705W        W65114  43.898  12.360  10.252
98706W        W65115  22.664  41.438   2.785
98707W        W65116  19.655  34.300   2.327
98708W        W65117   4.958  25.515  11.506
98709W        W65118   1.913  39.544   2.043
98710W        W65119  18.509  31.932   1.811
98711W        W65120  36.879  17.468   5.079
98712W        W65121  35.663   6.451   4.863
98713W        W65122  21.067   6.884   1.381
98714W        W65123  12.314  25.295   1.418
98715W        W65124  17.632  25.544   2.268
98716W        W65125  17.254  40.818   1.295
98717W        W65126  30.355  39.272   3.605
98718W        W65127  20.236  25.678  13.794
98719W        W65128  38.851  42.049  10.214
98720W        W65129   0.479   7.483   4.294
98721W        W65130  35.171   3.855  12.807
98722W        W65131  24.896  13.676   1.929
98723W        W65132  44.894   6.292  10.521
98724W        W65133  32.199  26.510  11.563
98725W        W65134  22.647  14.629   1.461
98726W        W65135  32.068  26.558  14.571
98727W        W65136  22.943  27.453  11.975
98728W        W65137   6.854  26.269  13.828
98729W        W65138  17.592  41.810  10.595
98730W        W65139  20.600  17.780  10.540
98731W        W65140  20.621  29.424  13.788
98732W        W65141   6.892  24.525   3.657
98733W        W65142  10.721  28.166  14.477
98734W        W65143  20.046  34.923  14.998
98735W        W65144  15.308  33.381  12.280
98736W        W65145   0.022  34.397   2.559
98737W        W65146  14.282  13.797  10.520
98738W        W65147  39.326  14.754   2.697
98739W        W65148   6.901  36.616  14.532
98740W        W65149  29.432  22.126  10.961
98741W        W65150   8.485  42.442  14.723
98742W        W65151  13.931  20.928  13.855
98743W        W65152   0.376  34.349   4.588
98744W        W65153   8.000  15.565  13.362
98745W        W65154   8.763  30.406  10.557
98746W        W65155   4.736  15.600  14.971
98747W        W65156  36.536  11.233  13.901
98748W        W65157  16.919  34.888   0.834
98749W        W65158  31.395   3.433  13.878
98750W        W65159  44.332   9.426   0.450
98751W        W65160   1.222  12.779   0.909
98752W        W65161  24.701  33.118  14.044
98753W        W65162  16.878  19.205   3.692
98754W        W65163  42.566  20.534   0.050
98755W        W65164   8.790   9.131   3.044
98756W        W65165  39.317  10.399  14.949
98757W        W65166  23.996  10.651  10.638
98758W        W65167  29.554   1.640   5.028
98759W        W65168   8.537   9.399   2.134
98760W        W65169   5.746  38.934   2.351
98761W        W65170  20.529  33.074  12.894
98762W        W65171  14.480   5.883   4.689
98763W        W65172  36.357   9.868  12.023
98764W        W65173   5.339  27.805   1.327
98765W        W65174  41.391   7.925   3.900
98766W        W65175  28.501  27.502  11.125
98767W        W65176  23.115  22.262   2.718
98768W        W65177  20.857  25.833   3.021
98769W        W65178  31.482   6.729   0.815
98770W        W65179  27.957   1.385   2.275
98771W        W65180  20.608  44.475   1.422
98772W        W65181  32.115  30.264   1.277
98773W        W65182   3.071   8.696   4.227
98774W        W65183  25.206   5.802   0.412
98775W        W65184   5.895  34.999   4.059
98776W        W65185  40.323   1.217   2.868
98777W        W65186   7.477  10.537   2.550
98778W        W65187  36.045   7.666  11.169
98779W        W65188  25.887  20.994   0.972
98780W        W65189  43.466   0.983   3.419
98781W        W65190  36.362  18.601  14.522
98782W        W65191  31.073  20.863   2.735
98783W        W65192  39.398  13.253  12.515
98784W        W65193  20.257  25.968   1.761
98785W        W65194  22.711  17.734  11.288
98786W        W65195  41.515  12.291   3.148
98787W        W65196  22.767   0.045  14.189
98788W        W65197   7.785  20.992   1.834
98789W        W65198   8.641   4.023   3.796
98790W        W65199   5.873  18.168   1.233
98791W        W65200  10.877  12.045  14.275
98792W        W65201  21.551  20.484   2.354
98793W        W65202  40.268  33.871   0.491
98794W        W65203  30.060  13.411  11.831
98795W        W65204  39.515  30.912  10.626
98796W        W65205  39.044  10.765  10.480
98797W        W65206  38.243   8.931   0.443
98798W        W65207  12.634  23.043   4.866
98799W        W65208  12.828  23.759  14.847
98800W        W65209  37.818  12.119  14.533
98801W        W65210  24.109  18.197  13.377
98802W        W65211  11.511  42.170  11.944
98803W        W65212  37.593  12.704  12.405
98804W        W65213  16.126  33.345   2.155
98805W        W65214  16.569  15.473   0.804
98806W        W65215  13.167  30.454  10.764
98807W        W65216  18.347   8.092   0.507
98808W        W65217  18.337   8.264  12.396
98809W        W65218   6.726  23.184   1.312
98810W        W65219  36.377  39.486   2.867
98811W        W65220  38.786  15.671   4.602
98812W        W65221  40.559  42.860  10.106
98813W        W65222  20.819   6.933   4.134
98814W        W65223  44.105  12.319   1.668
98815W        W65224  34.152  13.263  14.323
98816W        W65225  33.378  29.027  14.396
98817W        W65226  32.507  44.656  13.193
98818W        W65227   8.972  42.994  14.017
98819W        W65228  13.622  25.163   1.414
98820W        W65229  21.151  20.732   3.766
98821W        W65230   1.884   3.400   1.331
98822W        W65231  17.222   2.282   4.645
98823W        W65232  22.741  40.777   3.995
98824W        W65233  36.098  24.771  12.410
98825W        W65234   3.981  31.052   0.464
98826W        W65235  20.111  36.611  11.420
98827W        W65236  39.696  31.124  12.658
98828W        W65237   8.591  40.002   0.358
98829W        W65238   4.657  18.537  13.501
98830W        W65239  41.330  10.188  14.830
98831W        W65240  13.677  22.791  12.879
98832W        W65241  26.380   2.315  14.394
98833W        W65242  38.913  33.996  12.368
98834W        W65243   5.655  22.302  12.083
98835W        W65244  21.893  22.716   1.295
98836W        W65245  18.092   9.109  13.913
98837W        W65246  32.584  33.911  13.047
98838W        W65247  31.015   3.383  11.628
98839W        W65248  13.587  23.241  12.614
98840W        W65249  38.930   5.776   2.926
98841W        W65250  44.912  37.362   1.389
98842W        W65251  28.357   3.371  11.086
98843W        W65252  26.724  42.920   2.569
98844W        W65253  32.811  32.899  11.171
98845W        W65254  37.977  29.132  11.562
98846W        W65255   0.275  27.125  12.800
98847W        W65256   5.299  44.513  11.514
98848W        W65257  19.010   3.948   3.749
98849W        W65258  14.227  10.576   0.809
98850W        W65259  20.998   7.594  12.447
98851W        W65260  41.544  25.455   2.744
98852W        W65261  16.796  38.071  14.880
98853W        W65262   0.082  19.272  13.099
98854W        W65263  37.883  34.445   3.601
98855W        W65264  21.144  42.454  10.703
98856W        W65265   0.894  42.422  11.684
98857W        W65266   8.169  10.161  12.383
98858W        W65267   8.332   8.316   2.852
98859W        W65268   6.316  23.985   3.310
98860W        W65269  38.856  22.179   1.258
98861W        W65270  43.044  16.748   4.057
98862W        W65271   8.747  20.792  11.534
98863W        W65272  21.781  16.681   3.333
98864W        W65273   0.936   2.195   3.590
98865W        W65274   5.029  22.620  11.039
98866W        W65275   0.945   4.786   4.484
98867W        W65276  28.892  29.298  11.041
98868W        W65277  43.716  41.291   3.204
98869W        W65278  24.184  16.833  11.203
98870W        W65279  12.485  24.028  11.568
98871W        W65280  11.052  18.974   1.173
98872W        W65281  40.508  13.614   0.265
98873W        W65282  12.448  12.363  14.904
98874W        W65283  21.096  36.509  14.719
98875W        W65284   9.601   4.527   1.872
98876W        W65285  28.654   1.703  13.320
98877W        W65286  25.650  20.277  13.389
98878W        W65287  44.454  12.623   3.749
98879W        W65288   4.389   2.390  11.403
98880W        W65289  38.587  38.067  13.546
98881W        W65290  34.255   6.103  14.569
98882W        W65291  16.629   2.259   2.342
98883W        W65292  37.031  21.350  10.207
98884W        W65293   3.858  14.541  10.274
98885W        W65294   5.317  24.272   1.760
98886W        W65295  17.077  25.973   3.787
98887W        W65296  20.017   4.191  11.596
98888W        W65297  10.203  34.757  10.474
98889W        W65298  16.113  24.422   2.416
98890W        W65299  34.337   8.411   3.290
98891W        W65300   8.669  37.334  12.085
98892W        W65301  42.951  18.303   3.412
98893W        W65302   0.278  20.863  11.080
98894W        W65303  37.532   0.494  14.872
98895W        W65304   4.908  27.187   3.298
98896W        W65305  13.279  22.614   2.182
98897W        W65306  39.028  23.526  13.254
98898W        W65307  39.950  31.364   0.302
98899W        W65308  15.277  38.322  13.975
98900W        W65309  36.117   1.495   2.920
98901W        W65310   7.565  33.602   1.798
98902W        W65311  15.151  44.487   0.676
98903W        W65312  20.131  44.703   4.740
98904W        W65313  33.448  41.009   4.578
98905W        W65314  33.256  14.884   4.308
98906W        W65315   1.385   1.465  10.691
98907W        W65316  37.009  32.671  13.503
98908W        W65317  26.829  34.605   2.353
98909W        W65318  40.794  11.107   1.580
98910W        W65319  17.850  29.976   4.862
98911W        W65320  26.428  16.562   4.520
98912W        W65321  28.739  41.430  14.958
98913W        W65322  21.704  19.632  14.388
98914W        W65323   1.174  29.400  12.952
98915W        W65324  22.963  29.949  14.528
98916W        W65325  33.895  43.499  13.472
98917W        W65326  19.387  35.824  11.593
98918W        W65327  36.331  17.974   2.975
98919W        W65328  22.512   9.402   2.101
98920W        W65329  29.060  38.283   0.447
98921W        W65330  44.713   4.736   2.128
98922W        W65331  20.461  32.710  13.313
98923W        W65332  41.010  13.404  13.443
98924W        W65333  28.859   8.313  11.141
98925W        W65334   9.431  29.124   3.628
98926W        W65335   6.354  34.998  12.740
98927W        W65336  35.590   4.583   0.883
98928W        W65337   9.143  41.545  14.453
98929W        W65338  21.218  28.166   1.206
98930W        W65339  30.999  13.382   3.826
98931W        W65340  39.139  12.237  12.879
98932W        W65341   7.313  42.209  14.084
98933W        W65342  40.334  23.119  12.470
98934W        W65343  15.148  23.217  10.258
98935W        W65344  18.988   2.734  14.403
98936W        W65345  20.097  42.358   2.043
98937W        W65346  23.685  13.828   3.298
98938W        W65347  43.724  25.592   3.614
98939W        W65348  19.708  42.384  14.775
98940W        W65349   4.690  35.501   1.205
98941W        W65350   2.277   5.393   1.249
98942W        W65351  29.434  39.263  14.043
98943W        W65352  39.753  24.738   3.882
98944W        W65353  18.103  24.062   1.892
98945W        W65354   6.967   4.749  11.070
98946W        W65355  29.448  36.051   1.761
98947W        W65356   5.901   4.923  13.962
98948W        W65357  23.743  20.146   4.330
98949W        W65358  13.966   5.362   2.254
98950W        W65359  24.428   1.243  11.953
98951W        W65360  13.888  35.343  11.637
98952W        W65361  43.373  36.052  13.465
98953W        W65362  30.090  34.255  11.558
98954W        W65363  22.684  14.082  11.164
98955W        W65364  11.019   9.568  12.346
98956W        W65365  13.953  34.923  12.529
98957W        W65366  26.772  17.957   0.638
98958W        W65367  10.818  26.480  14.861
98959W        W65368  26.908  40.932  14.748
98960W        W65369   9.929  31.975   0.022
98961W        W65370  22.070  44.303  10.790
98962W        W65371   4.094  44.166  11.220
98963W        W65372  30.376  10.156   3.176
98964W        W65373  28.994  23.771  13.499
98965W        W65374  22.723  34.867  11.601
98966W        W65375  27.329  12.888   4.810
98967W        W65376  27.679   2.921   1.711
98968W        W65377   1.974   8.843   0.299
98969W        W65378  13.795  33.995  11.677
98970W        W65379  43.042  32.014   1.248
98971W        W65380  43.907  23.163  14.582
98972W        W65381  14.924  23.642  10.807
98973W        W65382   8.262  10.267   2.122
98974W        W65383  31.609  37.474  11.083
98975W        W65384  20.534  34.121  11.134
98976W        W65385  22.472  25.665   0.378
98977W        W65386  24.521  11.188  10.304
98978W        W65387  37.198   9.721  13.390
98979W        W65388  24.124  10.125   4.552
98980W        W65389  35.627  14.605  13.014
98981W        W65390   9.389   4.934   4.810
98982W        W65391  26.733  23.998  13.567
98983W        W65392  38.265  10.036  11.919
98984W        W65393  35.681  41.064   1.708
98985W        W65394   7.222  43.345   4.051
98986W        W65395   5.823  28.432  13.856
98987W        W65396  36.231  36.577  12.086
98988W        W65397  38.240  44.803   2.311
98989W        W65398   0.926   8.704   0.588
98990W        W65399   3.370  41.299  11.763
98991W        W65400   7.951   2.307  12.437
98992W        W65401  32.467  17.575   0.649
98993W        W65402  22.237   6.768   4.770
98994W        W65403  17.554   4.847   2.237
98995W        W65404  12.600  21.706  11.521
98996W        W65405  34.323  37.126  13.014
98997W        W65406  13.576  34.166  10.717
98998W        W65407  26.104  43.389   0.770
98999W        W65408  20.600  24.389   2.339
99000W        W65409  23.919   0.657  11.079
99001W        W65410  12.133  43.649  13.062
99002W        W65411  34.078  15.821  12.517
99003W        W65412  18.524  19.787   1.453
99004W        W65413  43.647  22.553  12.437
99005W        W65414  17.298  36.685   0.954
99006W        W65415   4.983  29.465   0.071
99007W        W65416  20.176  44.950   1.918
99008W        W65417  19.766   1.724   0.031
99009W        W65418  42.062   8.114   2.278
99010W        W65419  41.523  42.524  11.410
99011W        W65420  15.704  25.996   3.478
99012W        W65421  29.433  32.812   3.237
99013W        W65422  22.377  37.895  14.880
99014W        W65423  14.030  26.112   1.415
99015W        W65424   7.606   7.115  11.174
99016W        W65425  26.569  18.992  14.839
99017W        W65426  28.073   0.244  12.992
99018W        W65427  20.319  28.133   4.626
99019W        W65428  20.307   9.373  13.878
99020W        W65429   8.137  43.742   2.396
99021W        W65430  17.220  19.880   3.726
99022W        W65431   1.622  35.125  11.434
99023W        W65432  13.736  42.561  11.279
99024W        W65433  38.399  30.446   3.879
99025W        W65434  34.279  14.624  10.498
99026W        W65435  35.341   7.394   0.756
99027W        W65436  39.294  23.118   1.015
99028W        W65437  41.250   5.786   1.668
99029W        W65438  38.067  24.517   1.197
99030W        W65439  21.522   0.379  12.502
99031W        W65440  30.580  40.289  13.887
99032W        W65441  39.594  23.743   1.932
99033W        W65442  16.626   9.865   3.142
99034W        W65443  16.774  31.088  11.544
99035W        W65444   2.724  27.202  14.303
99036W        W65445  12.073  25.057  12.359
99037W        W65446  31.949  15.095   1.364
99038W        W65447  21.235  25.216   1.369
99039W        W65448  38.347   0.942   4.169
99040W        W65449  25.699  30.641   4.669
99041W        W65450   0.192   9.397  12.602
99042W        W65451  31.017   8.803  13.304
99043W        W65452   9.847   5.197  13.317
99044W        W65453  26.260  43.971   3.371
99045W        W65454  11.302  30.923   1.954
99046W        W65455  12.639   0.154  11.362
99047W        W65456  13.889   7.435   1.845
99048W        W65457  43.765  28.261  11.949
99049W        W65458  20.116  26.044  14.422
99050W        W65459   9.228  26.929   1.906
99051W        W65460  12.604  38.025  10.849
99052W        W65461  11.652   2.936   0.362
99053W        W65462   5.765  16.053   1.377
99054W        W65463  32.909  14.209  10.781
99055W        W65464  24.397  38.461   2.444
99056W        W65465  14.767  12.348   2.390
99057W        W65466  37.837  20.719   0.273
99058W        W65467  34.841  11.851   4.687
99059W        W65468  15.211   7.133   0.226
99060W        W65469   9.030  26.477  13.063
99061W        W65470  40.539  23.673   1.733
99062W        W65471  12.629   1.292   1.080
99063W        W65472  44.742  14.797   4.122
99064W        W65473  42.976  43.693   0.723
99065W        W65474  38.872  20.092   1.885
99066W        W65475  10.266  17.962  11.257
99067W        W65476  11.760  42.473   3.762
99068W        W65477  10.176  11.182  12.924
99069W        W65478  29.081  41.270   0.358
99070W        W65479   7.895   7.372   3.650
99071W        W65480  22.552   7.645   1.461
99072W        W65481   1.512   6.464  11.007
99073W        W65482  26.692  41.068   0.734
99074W        W65483  44.815  33.587   1.725
99075W        W65484  15.417  40.067   4.673
99076W        W65485   0.794  30.209   1.291
99077W        W65486  14.317  43.882  13.579
99078W        W65487   6.812  12.168   3.473
99079W        W65488   8.340  43.982   3.268
99080W        W65489  35.952  35.877   3.532
99081W        W65490   3.472   4.874   0.731
99082W        W65491  19.201  15.350  14.440
99083W        W65492  40.881  36.465   1.681
99084W        W65493   6.410  39.884   1.400
99085W        W65494  27.574  26.394   4.463
99086W        W65495  15.194  24.947   3.982
99087W        W65496  13.283  29.548  14.539
99088W        W65497  23.264  42.655  14.525
99089W        W65498  24.272  40.298  13.943
99090W        W65499  36.970  22.733  10.740
99091W        W65500  25.173  20.501  13.369
99092W        W65501  37.490  28.537   4.729
99093W        W65502  12.760  13.484   0.690
99094W        W65503  16.769   3.314  13.288
99095W        W65504  34.120  12.911  11.593
99096W        W65505  13.228  20.175  12.838
99097W        W65506  36.173  42.964  13.343
99098W        W65507  41.084  31.082   4.336
99099W        W65508   5.433  12.473   1.803
99100W        W65509  26.989  12.054   1.646
99101W        W65510   7.656   1.235   3.327
99102W        W65511  29.517  38.912   5.218
99103W        W65512  34.144  11.187   1.422
99104W        W65513  33.789  23.629  14.171
99105W        W65514  43.929  35.488   3.244
99106W        W65515   3.984  37.393  11.572
99107W        W65516  24.662   1.227   4.525
99108W        W65517  11.190  13.827  12.107
99109W        W65518  21.122  16.244   0.982
99110W        W65519   6.378  39.437   3.639
99111W        W65520  43.860  18.766   4.103
99112W        W65521  41.607   9.399  14.363
99113W        W65522   3.671  37.062  11.868
99114W        W65523  30.639  24.465   1.455
99115W        W65524   0.122  44.495   3.006
99116W        W65525  18.697  27.170   4.239
99117W        W65526  17.051  26.941  10.637
99118W        W65527  37.126  16.972   0.248
99119W        W65528  15.208  26.636  10.705
99120W        W65529  22.805  14.949  12.616
99121W        W65530   3.000  11.431   2.871
99122W        W65531  31.191  34.800  13.706
99123W        W65532  12.181   1.699  13.508
99124W        W65533   5.612  35.991   1.472
99125W        W65534  23.661  44.899  14.500
99126W        W65535  25.653  37.648   0.720
99127W        W65536  36.437  42.381   2.046
99128W        W65537  32.460   0.309  11.565
99129W        W65538  33.732   0.450   1.533
99130W        W65539   4.271  24.531   5.052
99131W        W65540  19.513   8.537  11.887
99132W        W65541  10.630  16.181  11.233
99133W        W65542  29.826  35.748  12.981
99134W        W65543  12.587  41.319  13.030
99135W        W65544  14.502  22.154  12.441
99136W        W65545  38.882   8.689  11.588
99137W        W65546  42.824  36.392  11.447
99138W        W65547  24.929   0.279  10.680
99139W        W65548  30.494  29.548   1.428
99140W        W65549   4.895  11.894   3.658
99141W        W65550  38.867  30.814  11.097
99142W        W65551  28.301  15.333  14.974
99143W        W65552  31.644  34.979  10.706
99144W        W65553  25.103  16.962  12.161
99145W        W65554   3.713  10.033   2.671
99146W        W65555  21.697  21.342  14.068
99147W        W65556  15.248  25.126  12.479
99148W        W65557  27.180  23.539  12.082
99149W        W65558   2.575   4.979   1.942
99150W        W65559  17.660  24.009   2.884
99151W        W65560  16.281  44.958  14.517
99152W        W65561  23.145   5.288   2.802
99153W        W65562  16.326   7.779   4.381
99154W        W65563  16.953  28.395  11.847
99155W        W65564  35.717   3.007  12.101
99156W        W65565  28.274  29.888  14.360
99157W        W65566   4.286  18.522  11.417
99158W        W65567  22.456  42.501  11.851
99159W        W65568  41.886  21.599  13.201
99160W        W65569  20.320  44.294   0.485
99161W        W65570  38.943  19.096  14.108
99162W        W65571   5.760  18.585  10.922
99163W        W65572   1.510   0.703  11.956
99164W        W65573  44.564  44.266  10.423
99165W        W65574  44.911  28.395  12.995
99166W        W65575  11.036  33.071  12.096
99167W        W65576  32.635   3.521   1.787
99168W        W65577  34.336  19.546  12.316
99169W        W65578  25.063  16.332  14.319
99170W        W65579  23.205  22.108  14.947
99171W        W65580  27.966  35.568   4.402
99172W        W65581  40.298  37.876   4.179
99173W        W65582   4.796  34.947   3.237
99174W        W65583  22.288  28.959   0.947
99175W        W65584  13.618  11.175  11.040
99176W        W65585  41.700  32.540  11.985
99177W        W65586   3.660  30.402  11.057
99178W        W65587  17.630  22.532  14.423
99179W        W65588  37.513  30.051  12.095
99180W        W65589   6.331  12.761   9.806
99181W        W65590   2.380  28.945   2.359
99182W        W65591  26.165  25.012  12.074
99183W        W65592   2.616  29.150  11.782
99184W        W65593  23.999  42.420   3.373
99185W        W65594   2.204  10.006  13.024
99186W        W65595  25.101  29.417   5.101
99187W        W65596  43.392  21.062   4.490
99188W        W65597  24.823  24.023  11.954
99189W        W65598   8.319  11.385  12.062
99190W        W65599  34.839  41.197  12.457
99191W        W65600   4.875   3.990  12.118
99192W        W65601  41.563   7.887  12.020
99193W        W65602  14.687   3.837   5.653
99194W        W65603  38.117  20.517   1.650
99195W        W65604   3.893  15.274   0.451
99196W        W65605  44.005   1.484  13.841
99197W        W65606  38.323  34.924   2.270
99198W        W65607  31.194   6.504  10.678
99199W        W65608  33.459   2.731  14.289
99200W        W65609  21.776  18.959  11.120
99201W        W65610  27.137  17.934   2.891
99202W        W65611  38.909  15.251  14.091
99203W        W65612  33.101   1.687   3.750
99204W        W65613  43.711  20.254   1.030
99205W        W65614  37.517  25.577   3.950
99206W        W65615  25.005  40.745   3.274
99207W        W65616  36.671  38.261  13.835
99208W        W65617   9.696  33.826  14.003
99209W        W65618   8.301  16.561   3.182
99210W        W65619  36.880  13.009  14.332
99211W        W65620  44.241   1.015  13.880
99212W        W65621  33.149  32.520  12.480
99213W        W65622  43.301  13.789   1.856
99214W        W65623  11.697   6.835  11.419
99215W        W65624  39.984   0.496   4.145
99216W        W65625  23.008   4.276  10.922
99217W        W65626  38.506  32.252   3.244
99218W        W65627  20.147  13.316   0.992
99219W        W65628  44.036  26.530   3.218
99220W        W65629  28.445  15.311   2.274
99221W        W65630  24.193  34.257  11.237
99222W        W65631  38.864   5.946   0.395
99223W        W65632  41.324  10.602  12.994
99224W        W65633   3.326  10.802   1.406
99225W        W65634  15.673   5.424   3.280
99226W        W65635   2.231  17.329   3.672
99227W        W65636  33.628  38.923   4.598
99228W        W65637   2.106  31.633   0.375
99229W        W65638   4.199  23.045   1.554
99230W        W65639  15.170   7.835   4.611
99231W        W65640   6.159  38.596   2.383
99232W        W65641  34.974  16.567  10.604
99233W        W65642   7.133  30.842   3.623
99234W        W65643  43.523   1.478  11.431
99235W        W65644  25.569  44.236   1.642
99236W        W65645  33.438  30.428   1.239
99237W        W65646   9.221  14.785   4.779
99238W        W65647   4.765  15.444   2.785
99239W        W65648  26.263  35.532   1.656
99240W        W65649  43.515  32.946  13.527
99241W        W65650   2.295  30.579   1.647
99242W        W65651   4.676   3.780   4.585
99243W        W65652  34.873   6.926  14.754
99244W        W65653  39.424  30.421   4.027
99245W        W65654   5.670  44.617   2.814
99246W        W65655  22.045   9.159  10.679
99247W        W65656  34.439  15.280  12.219
99248W        W65657  24.994  19.307  14.165
99249W        W65658  39.605  25.974   1.372
99250W        W65659  38.310  25.297   3.366
99251W        W65660   5.337  25.494  13.830
99252W        W65661  33.970  41.475   3.404
99253W        W65662  13.271  24.761   3.303
99254W        W65663  43.572  24.280  14.435
99255W        W65664  27.098  14.157  13.140
99256W        W65665  34.932  34.096   1.273
99257W        W65666   4.382  29.379  14.856
99258W        W65667  41.188  14.217  12.493
99259W        W65668  14.058  15.264   2.832
99260W        W65669  37.649   0.843  10.517
99261W        W65670  16.303  32.615  12.204
99262W        W65671  37.120  39.022   3.377
99263W        W65672  26.095  30.710  13.546
99264W        W65673  19.627  18.762  10.440
99265W        W65674  27.473  39.268  11.039
99266W        W65675  44.014  43.682  11.367
99267W        W65676  27.688  22.686  10.522
99268W        W65677  30.546  12.344   1.408
99269W        W65678  22.292  12.084  11.940
99270W        W65679   1.028  38.526   1.323
99271W        W65680   8.661  35.637  14.340
99272W        W65681  10.613  20.188   1.232
99273W        W65682  44.325  14.124   1.254
99274W        W65683   8.785  38.168  14.966
99275W        W65684   3.440  28.176   0.472
99276W        W65685   2.303  28.411  10.577
99277W        W65686  42.897   1.145   4.891
99278W        W65687  21.401   1.672   4.374
99279W        W65688  38.058   2.364   4.138
99280W        W65689  34.603  35.632   3.889
99281W        W65690  38.427   2.810   1.769
99282W        W65691  19.276  17.267   4.541
99283W        W65692   6.376  31.139  13.131
99284W        W65693   2.970  20.980   2.752
99285W        W65694  28.889   3.017   4.050
99286W        W65695   5.753  40.202   4.786
99287W        W65696  23.248   8.110   3.697
99288W        W65697  10.974  29.064   4.069
99289W        W65698  22.553  18.633   4.536
99290W        W65699  32.828  12.355   3.773
99291W        W65700  32.099  38.824  14.513
99292W        W65701  42.507  19.295  11.991
99293W        W65702   7.797  30.684   0.422
99294W        W65703  25.751   1.262  11.593
99295W        W65704  14.302   7.213   1.391
99296W        W65705  42.979  27.091   1.900
99297W        W65706  19.105  18.083  11.595
99298W        W65707   8.680   7.829  11.545
99299W        W65708  39.017  15.319  12.106
99300W        W65709  12.867  29.159   0.856
99301W        W65710  18.605  43.150  11.976
99302W        W65711  32.515  42.480  12.403
99303W        W65712  15.694  12.854   4.381
99304W        W65713  27.933  20.926   2.217
99305W        W65714  27.986   7.895   2.690
99306W        W65715  25.245  20.896  12.177
99307W        W65716  17.288  15.526  14.225
99308W        W65717  40.833   8.182  13.103
99309W        W65718  36.296  37.316   0.254
99310W        W65719   4.774  22.505   2.748
99311W        W65720  31.195  19.795   3.589
99312W        W65721  20.905   9.708   4.696
99313W        W65722  41.733   7.844  12.554
99314W        W65723  27.250  17.421   2.803
99315W        W65724   3.877  28.157  14.765
99316W        W65725  10.153  41.154   3.631
99317W        W65726  26.278   1.080  10.919
99318W        W65727  31.528   6.639   1.982
99319W        W65728  16.334  30.456   2.184
99320W        W65729   6.684  23.945  14.789
99321W        W65730  13.340   7.925  12.846
99322W        W65731  43.186   1.910  14.023
99323W        W65732   3.905  36.263   4.560
99324W        W65733  21.114   1.776  11.678
99325W        W65734  23.664  31.168  12.365
99326W        W65735  39.157  18.858   0.958
99327W        W65736  28.460  16.705   0.422
99328W        W65737  23.931  25.783   2.387
99329W        W65738  22.155  23.461   2.857
99330W        W65739  15.146  18.009   2.284
99331W        W65740  38.027  10.045   1.863
99332W        W65741  40.418  29.639   1.770
99333W        W65742  40.815  30.177   2.831
99334W        W65743  38.363   6.614   1.851
99335W        W65744  22.398  23.416  13.104
99336W        W65745  32.986  16.907   4.188
99337W        W65746  18.211  37.064   3.601
99338W        W65747   6.893  40.302  14.880
99339W        W65748  31.591  31.372   1.404
99340W        W65749  10.623  16.873  13.806
99341W        W65750  44.772  37.995   2.287
99342W        W65751  32.474  39.204   2.285
99343W        W65752  27.155  18.335   4.359
99344W        W65753  38.961   1.308  11.210
99345W        W65754  20.563  27.156   4.640
99346W        W65755  21.001  41.030  10.530
99347W        W65756  28.669  32.695   4.620
99348W        W65757   7.753  20.641  14.295
99349W        W65758   5.932  11.879  13.944
99350W        W65759  36.522  23.666  10.562
99351W        W65760   5.467  42.499   4.623
99352W        W65761   1.629   1.193  12.062
99353W        W65762  35.424  21.789  11.090
99354W        W65763  44.333  15.273  12.998
99355W        W65764   8.200  36.765   3.298
99356W        W65765  34.423  33.877   1.924
99357W        W65766   4.457   3.032   1.760
99358W        W65767  11.752  15.545   2.388
99359W        W65768  11.447  17.656   2.799
99360W        W65769  35.190   3.009  12.089
99361W        W65770  21.284  40.786   1.826
99362W        W65771  15.781  33.795   0.242
99363W        W65772  25.457  18.692  13.302
99364W        W65773  26.466  14.231   2.586
99365W        W65774  15.993  41.284   2.472
99366W        W65775  26.896  33.371   3.687
99367W        W65776   0.175  11.343  13.136
99368W        W65777  29.946  12.844   1.929
99369W        W65778  44.950  28.158   1.427
99370W        W65779  29.652  12.826  14.282
99371W        W65780   4.235  20.768   1.818
99372W        W65781  27.531  12.629   2.066
99373W        W65782   7.649   0.978  13.224
99374W        W65783  24.965  18.349   1.044
99375W        W65784  11.042  28.345  11.569
99376W        W65785  25.019  13.861   5.041
99377W        W65786  20.006   5.831   4.135
99378W        W65787  35.336  16.229  10.872
99379W        W65788  34.585  33.446   4.622
99380W        W65789   6.928  20.089  12.230
99381W        W65790  27.436   4.335  12.442
99382W        W65791  19.003   8.982  14.920
99383W        W65792  28.339  33.497   4.561
99384W        W65793  24.215  16.847   2.126
99385W        W65794  37.050   7.839   5.040
99386W        W65795   7.824  11.217   0.948
99387W        W65796  24.946  35.645   2.208
99388W        W65797  18.232  43.233  11.140
99389W        W65798  40.885   2.750   2.328
99390W        W65799  17.048  29.615  12.152
99391W        W65800  10.156   9.348  11.519
99392W        W65801  42.503  29.550  14.254
99393W        W65802  27.095  30.962   2.954
99394W        W65803  42.972  10.828   3.613
99395W        W65804  42.927  25.689   0.746
99396W        W65805  39.862   6.445   1.663
99397W        W65806  14.216  36.267   2.237
99398W        W65807  40.638  22.265  14.296
99399W        W65808  40.314   8.427  10.710
99400W        W65809  10.347  24.910  13.397
99401W        W65810  34.931  22.582   0.863
99402W        W65811  13.763  22.527   1.319
99403W        W65812  33.483  44.854  10.380
99404W        W65813  19.741  19.381   1.723
99405W        W65814  21.640  32.851  11.047
99406W        W65815   2.341  26.390   1.309
99407W        W65816  33.842  38.156   1.267
99408W        W65817  22.619   8.655  11.554
99409W        W65818   1.778  19.577   3.205
99410W        W65819  16.128  36.797  14.952
99411W        W65820  18.072  14.514   4.672
99412W        W65821  19.530  39.656   4.324
99413W        W65822   4.283  16.782  11.269
99414W        W65823  43.007   2.626   0.280
99415W        W65824   4.281  19.174  11.914
99416W        W65825  36.946  14.882   0.272
99417W        W65826   2.044  14.490  14.089
99418W        W65827  10.272  29.484  10.980
99419W        W65828   7.240  37.634  11.069
99420W        W65829   7.487  28.587  12.628
99421W        W65830  39.308  21.506   1.367
99422W        W65831  37.102  35.893  11.689
99423W        W65832  12.538   8.632   2.321
99424W        W65833  32.519  36.557  13.103
99425W        W65834  20.618  14.713  14.348
99426W        W65835  31.078  15.282   3.525
99427W        W65836  27.469  42.774   2.477
99428W        W65837  10.077  35.960  14.951
99429W        W65838  16.801  12.689  14.335
99430W        W65839  31.598   9.772   4.656
99431W        W65840  22.554  24.593   1.780
99432W        W65841  14.128  33.768  13.799
99433W        W65842   8.782  27.767   3.831
99434W        W65843  22.558  33.425   2.138
99435W        W65844  42.554  44.067  13.612
99436W        W65845  14.196  42.457  13.149
99437W        W65846  34.663  27.436  13.358
99438W        W65847   6.216   3.287   0.783
99439W        W65848  41.837   3.773  12.920
99440W        W65849   7.870  33.557   2.211
99441W        W65850  14.037  14.162   4.585
99442W        W65851  28.943  44.207   3.208
99443W        W65852  13.805  24.635  13.260
99444W        W65853  29.091  18.675  12.053
99445W        W65854  39.291  30.921   4.010
99446W        W65855  38.654   5.399   3.700
99447W        W65856  27.451   7.945   2.675
99448W        W65857  23.466  10.216   1.422
99449W        W65858  32.190  37.352  11.914
99450W        W65859  20.086  19.004  12.954
99451W        W65860  26.060   0.361  12.984
99452W        W65861  18.825  32.911   3.526
99453W        W65862  23.196  15.763  11.747
99454W        W65863  13.698  39.781   0.832
99455W        W65864  42.312   0.906  13.991
99456W        W65865  18.301   7.289  14.295
99457W        W65866   9.893  14.752   2.633
99458W        W65867  12.807   1.402   2.727
99459W        W65868  22.214  20.154   4.046
99460W        W65869  20.128  43.236  10.689
99461W        W65870  43.814  16.274   0.653
99462W        W65871   8.857  18.866   2.148
99463W        W65872  13.615  15.752  11.660
99464W        W65873  42.748   8.389   4.959
99465W        W65874  22.608   8.280  11.932
99466W        W65875  41.015  24.154  12.897
99467W        W65876  42.809  32.168   0.315
99468W        W65877   1.212   5.729   4.830
99469W        W65878   4.409  27.156  12.776
99470W        W65879   1.273   9.475   4.083
99471W        W65880   2.700  13.209  13.734
99472W        W65881  17.664  34.639  13.414
99473W        W65882  22.999  30.308   1.105
99474W        W65883  14.932  43.124  13.656
99475W        W65884  27.538  14.693  11.123
99476W        W65885  33.528   3.062   2.669
99477W        W65886   5.155  18.736  11.627
99478W        W65887  36.904   4.816  13.781
99479W        W65888  24.282  35.645   4.943
99480W        W65889  39.908  40.549  14.266
99481W        W65890  15.035  16.139  11.453
99482W        W65891   5.248   5.518  12.029
99483W        W65892  34.779  32.392   4.636
99484W        W65893  19.777  27.491   4.581
99485W        W65894  28.665  23.336   1.934
99486W        W65895  32.032  24.493   4.068
99487W        W65896  13.075  24.015   4.644
99488W        W65897  24.800  27.937   4.644
99489W        W65898  28.239  10.495  12.329
99490W        W65899  20.774   6.110   2.970
99491W        W65900  39.706   9.721   2.608
99492W        W65901   6.172  40.808   3.318
99493W        W65902  33.369  22.563  11.245
99494W        W65903  17.772  24.730   3.544
99495W        W65904  29.145  16.175   3.652
99496W        W65905  41.367   0.997  13.091
99497W        W65906  27.423  20.814  10.960
99498W        W65907  40.095  31.075  13.392
99499W        W65908  32.055  19.781  11.026
99500W        W65909  24.170   8.565  11.193
99501W        W65910  21.117  22.897   1.888
99502W        W65911  41.380  14.295   0.938
99503W        W65912  24.475  11.842   3.860
99504W        W65913  17.645  13.965  13.286
99505W        W65914  42.575  38.716   1.637
99506W        W65915  27.986  12.316   2.772
99507W        W65916  42.321  11.065  14.805
99508W        W65917  39.994  11.568   4.558
99509W        W65918   8.254   4.000  11.362
99510W        W65919  25.631  17.061   3.466
99511W        W65920  31.101  12.205   3.276
99512W        W65921  40.789   4.863  13.837
99513W        W65922  31.153  21.035  11.614
99514W        W65923  33.786  41.108  14.972
99515W        W65924  12.662   9.921  12.959
99516W        W65925  37.039  16.340   0.630
99517W        W65926  19.526  41.867  14.474
99518W        W65927  39.459  30.087   0.252
99519W        W65928  31.247  14.673  11.043
99520W        W65929  20.781  32.044   2.293
99521W        W65930   8.279  16.214  13.072
99522W        W65931   1.766  17.059   1.850
99523W        W65932   4.596  16.529  14.533
99524W        W65933  21.160   3.182   1.104
99525W        W65934  34.116   1.067  11.969
99526W        W65935  40.443  24.758  10.559
99527W        W65936   7.374  40.460   0.660
99528W        W65937  32.866  29.455  12.343
99529W        W65938  14.406  19.567   1.277
99530W        W65939  26.181  29.050   2.841
99531W        W65940  27.346  14.181   1.270
99532W        W65941  27.589  14.171   3.010
99533W        W65942  39.185  36.804   0.855
99534W        W65943  28.613   7.106   4.322
99535W        W65944  36.356  20.074   3.968
99536W        W65945  33.655  12.585  12.071
99537W        W65946  19.840  24.544   4.185
99538W        W65947  14.630  33.930  12.997
99539W        W65948  12.398  15.068   2.798
99540W        W65949  38.695  26.947  14.401
99541W        W65950  44.946   2.990  10.732
99542W        W65951  31.857  35.873   0.935
99543W        W65952  44.571  36.612  11.471
99544W        W65953  21.771  44.429   0.051
99545W        W65954  29.196   5.811  14.890
99546W        W65955   9.915  32.985   3.302
99547W        W65956  27.558  25.463   0.785
99548W        W65957  14.547  21.034  13.441
99549W        W65958  29.934  21.567  11.973
99550W        W65959   1.723  37.962   3.812
99551W        W65960  19.625   2.631   1.321
99552W        W65961  42.573   4.737  12.520
99553W        W65962  31.626   1.549  10.820
99554W        W65963  15.571  44.947  12.614
99555W        W65964  12.789   7.565   1.883
99556W        W65965  43.781   1.713  11.053
99557W        W65966   2.667  13.474   3.441
99558W        W65967  43.263  36.372  11.708
99559W        W65968   2.772  42.514  14.796
99560W        W65969  44.071  24.201  13.768
99561W        W65970  36.488   8.713   0.484
99562W        W65971   8.825  18.857  11.811
99563W        W65972  31.512  34.564   4.475
99564W        W65973   3.752  32.939  12.083
99565W        W65974  25.122  13.771  13.998
99566W        W65975  43.847  37.486  11.222
99567W        W65976  31.693   5.787   3.208
99568W        W65977  14.865  37.179   4.394
99569W        W65978  35.444   4.424  13.120
99570W        W65979  14.045  10.456   3.292
99571W        W65980   9.041  36.831   3.613
99572W        W65981  35.783  24.743   2.132
99573W        W65982  10.097  11.503   2.560
99574W        W65983  33.355  11.451  11.530
99575W        W65984  17.574   9.523  14.909
99576W        W65985   4.925  15.822  13.559
99577W        W65986  29.588   8.775  14.609
99578W        W65987  15.855  35.059  11.111
99579W        W65988  23.676  29.961   1.251
99580W        W65989  12.194  31.657   2.296
99581W        W65990  22.659  39.462  11.887
99582W        W65991   9.996  39.593  13.821
99583W        W65992   9.662  10.975  12.051
99584W        W65993   7.828  24.212  11.940
99585W        W65994   8.794  22.046   2.764
99586W        W65995  30.593  19.720  12.587
99587W        W65996  30.594  16.147   1.973
99588W        W65997  15.225  15.782   3.121
99589W        W65998  18.559   4.508  14.350
99590W        W65999  14.929   0.088   2.316
99591W        W66000   1.875  43.478  14.974
99592W        W66001  43.262  32.469  13.498
99593W        W66002   6.562   7.038  11.183
99594W        W66003  20.542   3.882  13.165
99595W        W66004   3.645   0.407  13.341
99596W        W66005  15.051  11.688  11.107
99597W        W66006   0.922   2.666   0.628
99598W        W66007  21.256  44.004   2.095
99599W        W66008  39.849  26.121  10.776
99600W        W66009  24.629  23.843  10.678
99601W        W66010  38.481   7.276  13.476
99602W        W66011  23.201  38.398   1.891
99603W        W66012  17.700  43.990  11.618
99604W        W66013  32.321   3.296  12.506
99605W        W66014  26.219  13.524   4.168
99606W        W66015  31.407   2.766  12.510
99607W        W66016  42.381   4.276   2.337
99608W        W66017  26.196  19.227   4.315
99609W        W66018   7.013  22.649  11.309
99610W        W66019  11.835  15.833   0.500
99611W        W66020  39.918   0.909  12.456
99612W        W66021  33.457   7.320  11.970
99613W        W66022   3.125  31.450   1.993
99614W        W66023  24.413   1.930   2.706
99615W        W66024  40.952  43.389   4.064
99616W        W66025  37.464  31.402  11.134
99617W        W66026  11.322   8.539  11.101
99618W        W66027  20.557   8.567  13.287
99619W        W66028  21.630  21.361   4.888
99620W        W66029  31.261   5.739  11.856
99621W        W66030  36.444  19.973   0.988
99622W        W66031  44.218  24.686  14.957
99623W        W66032  12.977   0.461   2.920
99624W        W66033  16.274  44.512   1.992
99625W        W66034  26.075   4.324  11.585
99626W        W66035   0.713   6.956   0.488
99627W        W66036  38.214  15.036  10.683
99628W        W66037  37.329  36.444  13.916
99629W        W66038  21.191  21.061   3.124
99630W        W66039  22.115   2.253  11.166
99631W        W66040  43.335   2.860  12.504
99632W        W66041   4.992  22.913  11.671
99633W        W66042   2.553  42.239   0.191
99634W        W66043  36.954   2.049   0.512
99635W        W66044  28.292  37.273  11.511
99636W        W66045  22.928  15.532  12.563
99637W        W66046  22.664  40.952   2.975
99638W        W66047   7.611  14.231   2.003
99639W        W66048  27.135  16.784  14.956
99640W        W66049   4.445  30.405   1.015
99641W        W66050   2.802  28.185  11.459
99642W        W66051  21.442  24.006   4.689
99643W        W66052  18.657  12.301   4.151
99644W        W66053  38.666  17.276  12.973
99645W        W66054  26.034  22.597   1.680
99646W        W66055  20.897  43.302   1.491
99647W        W66056  17.555   7.194  10.635
99648W        W66057  34.997   3.286   0.967
99649W        W66058   7.817  15.340  13.831
99650W        W66059  14.360  37.555  14.869
99651W        W66060  18.105  15.687   0.322
99652W        W66061  44.978   2.934   2.637
99653W        W66062  37.822  21.952  11.518
99654W        W66063   3.445  43.748  13.488
99655W        W66064   7.929   0.824   2.388
99656W        W66065  36.426  37.665   1.658
99657W        W66066  16.546  39.083  14.404
99658W        W66067  35.054  10.471   2.897
99659W        W66068  39.722   6.235  12.991
99660W        W66069   4.844  20.075   0.246
99661W        W66070  27.589  31.844   4.169
99662W        W66071   4.239  11.848   1.303
99663W        W66072  22.182  12.225   1.849
99664W        W66073  42.753  40.483   3.913
99665W        W66074   5.685  37.052  11.226
99666W        W66075  10.856  28.703   2.796
99667W        W66076  20.588  12.702  10.828
99668W        W66077   3.210   9.669  11.054
99669W        W66078   7.578  41.778  11.586
99670W        W66079  10.886   9.343   3.351
99671W        W66080  44.848  44.462   2.012
99672W        W66081  24.672  17.180  10.969
99673W        W66082  23.555  23.198   2.656
99674W        W66083  18.640   3.015  12.548
99675W        W66084  14.361  34.498   2.795
99676W        W66085  15.337  15.837  12.561
99677W        W66086  29.511   8.729  11.564
99678W        W66087  25.534  26.654  14.559
99679W        W66088   4.393  20.011   2.452
99680W        W66089  19.635   2.237  10.671
99681W        W66090  41.475   0.929   4.565
99682W        W66091  25.996   7.314  10.659
99683W        W66092  32.777   8.342  12.471
99684W        W66093  37.051  20.603   3.199
99685W        W66094  36.780  16.301  12.722
99686W        W66095  44.889  16.491  14.896
99687W        W66096  36.994  39.577  13.858
99688W        W66097   9.413  13.871  13.881
99689W        W66098  28.416  38.711  12.124
99690W        W66099  38.380   1.873  11.243
99691W        W66100  29.361  43.051  13.298
99692W        W66101  21.627  11.452  13.917
99693W        W66102  15.745  12.646  13.091
99694W        W66103  34.385  37.623   3.934
99695W        W66104  29.927  20.123   3.901
99696W        W66105   4.393  18.456   0.787
99697W        W66106  28.890  38.873  11.997
99698W        W66107  23.158  33.117   3.671
99699W        W66108   0.958  14.250  14.411
99700W        W66109  33.120  19.602   3.680
99701W        W66110   3.368   5.136  12.683
99702W        W66111   6.636  17.340   4.181
99703W        W66112  22.396  43.455   0.517
99704W        W66113  38.341   1.961  13.949
99705W        W66114   2.744   2.786  13.043
99706W        W66115  25.679  17.336  12.836
99707W        W66116  44.030  43.291   2.668
99708W        W66117  11.257  37.439   2.447
99709W        W66118   7.947  28.787  11.484
99710W        W66119   1.090  31.991  10.327
99711W        W66120  41.356  33.138   4.548
99712W        W66121  32.836   8.713  11.590
99713W        W66122  25.800  24.367   3.759
99714W        W66123  10.573  18.641   0.476
99715W        W66124   1.337  38.810   1.641
99716W        W66125  35.485  22.234   3.261
99717W        W66126  15.990  41.902   4.960
99718W        W66127  44.079  41.407   0.346
99719W        W66128  37.327  41.538  14.840
99720W        W66129   3.223  32.480  14.827
99721W        W66130   2.987  40.376  12.129
99722W        W66131  33.631  31.446  13.918
99723W        W66132  35.019  14.551   1.287
99724W        W66133  36.189  17.697   3.638
99725W        W66134  11.276   9.951  10.669
99726W        W66135  31.923  24.140  14.810
99727W        W66136   6.683  11.805  12.186
99728W        W66137  27.927  16.694   0.883
99729W        W66138  25.012  19.455   1.903
99730W        W66139  20.774   7.294  12.923
99731W        W66140  17.625  13.071   3.641
99732W        W66141  40.535   9.455   2.763
99733W        W66142  13.874  15.054  12.843
99734W        W66143  14.819  27.740  12.525
99735W        W66144  38.851  28.144   0.004
99736W        W66145  16.125  25.395  11.967
99737W        W66146  10.811  36.466  12.027
99738W        W66147   8.632  14.751   4.133
99739W        W66148   5.748  28.222  12.460
99740W        W66149  36.201   3.186  12.081
99741W        W66150  37.019   2.231   4.634
99742W        W66151  23.102  17.315  14.889
99743W        W66152  22.255  29.260  13.876
99744W        W66153  22.884  42.597   0.198
99745W        W66154  13.824  39.915   0.315
99746W        W66155  17.747  17.765   3.991
99747W        W66156   4.539  18.288  14.919
99748W        W66157  28.396  19.080   1.981
99749W        W66158   8.702   0.713   2.852
99750W        W66159  43.720  22.577  14.524
99751W        W66160  28.695  38.960   4.263
99752W        W66161   6.829   6.764   2.263
99753W        W66162  19.839  22.534  13.329
99754W        W66163  41.521   0.973   0.772
99755W        W66164  26.903   3.488   0.976
99756W        W66165  24.434  14.682   3.754
99757W        W66166   3.527   6.801   4.543
99758W        W66167  20.559   0.292   2.692
99759W        W66168  41.543  43.778   1.720
99760W        W66169  26.042  24.998   1.412
99761W        W66170  10.188  17.787   3.198
99762W        W66171   9.530  19.155  11.592
99763W        W66172  25.082   7.852   3.358
99764W        W66173  11.709  37.660   0.747
99765W        W66174  35.446  38.610  11.487
99766W        W66175   1.266  19.741  11.672
99767W        W66176   6.671  30.721   0.221
99768W        W66177  32.044   1.908   3.765
99769W        W66178  26.614  26.299   3.229
99770W        W66179  39.871  24.304  14.240
99771W        W66180  28.242   7.414  11.927
99772W        W66181   1.171   4.855   3.246
99773W        W66182  16.342  37.503  13.061
99774W        W66183  24.006  41.599  14.774
99775W        W66184  11.762  16.693   3.095
99776W        W66185  34.451   9.477   4.616
99777W        W66186  14.241  39.520   4.076
99778W        W66187  35.980  37.980  13.565
99779W        W66188  28.885  25.507  12.952
99780W        W66189  19.789  26.772  11.457
99781W        W66190   1.846   8.301  12.737
99782W        W66191   0.960  26.783  14.785
99783W        W66192  13.563  20.094   3.239
99784W        W66193  13.204   0.444  12.043
99785W        W66194   2.916   9.829  13.014
99786W        W66195  44.736  10.000  14.417
99787W        W66196  44.191  34.407  14.799
99788W        W66197  31.380  35.569  10.972
99789W        W66198  36.637  18.037   4.986
99790W        W66199   7.429  44.141   1.830
99791W        W66200  17.720  12.825  12.420
99792W        W66201  28.239   4.614   5.130
99793W        W66202  16.093   0.035  11.941
99794W        W66203  32.410  17.170  13.044
99795W        W66204  12.179  37.633  10.573
99796W        W66205  13.188  16.289   4.871
99797W        W66206   6.716  35.624  12.466
99798W        W66207  30.865  27.218   1.693
99799W        W66208  14.613  38.791   3.071
99800W        W66209  13.308   3.186   3.113
99801W        W66210   1.634  26.117   4.527
99802W        W66211  31.125  10.956  13.137
99803W        W66212  28.172  11.652   1.499
99804W        W66213  34.675  44.708   4.798
99805W        W66214  38.132  15.665   3.722
99806W        W66215  33.076  21.476  10.614
99807W        W66216  12.874  13.632  13.322
99808W        W66217   9.620  30.939  10.311
99809W        W66218   6.933   0.388  10.874
99810W        W66219  12.259   5.192  12.176
99811W        W66220   7.808  14.189  13.409
99812W        W66221  28.473  12.706  14.414
99813W        W66222  35.574   5.191  14.927
99814W        W66223   5.481  16.807   0.780
99815W        W66224  16.760  10.418  11.981
99816W        W66225  11.453  35.532   3.885
99817W        W66226  35.041   6.583   0.833
99818W        W66227  11.131  26.425   4.120
99819W        W66228  37.955  22.457  11.615
99820W        W66229  40.130  32.000  13.959
99821W        W66230  15.308  18.107  14.903
99822W        W66231   2.603  24.009  13.880
99823W        W66232  29.454   8.661   1.749
99824W        W66233  24.485  33.020  10.709
99825W        W66234  31.084  22.649   2.939
99826W        W66235  10.418   5.889   2.874
99827W        W66236  11.210   5.161   0.293
99828W        W66237  20.098  18.747   1.989
99829W        W66238  18.054  16.598   1.314
99830W        W66239  15.552  42.590  14.383
99831W        W66240   9.775  10.278   2.569
99832W        W66241  16.082  30.956   4.079
99833W        W66242   2.239  38.938  12.959
99834W        W66243  42.908  40.779  13.506
99835W        W66244  18.335  10.289   3.102
99836W        W66245   4.302  27.371  11.968
99837W        W66246  37.110  23.141   0.849
99838W        W66247  31.210   5.712   4.147
99839W        W66248  39.891  11.341  12.413
99840W        W66249   3.440  44.754  13.347
99841W        W66250  17.185  17.083  14.573
99842W        W66251   1.791  37.049   3.606
99843W        W66252  31.480   8.288   3.400
99844W        W66253  35.276  18.971   2.823
99845W        W66254  12.638   6.121   1.416
99846W        W66255   0.905  23.979   1.319
99847W        W66256  33.316  35.870   1.450
99848W        W66257  25.047  23.981   4.140
99849W        W66258  24.422   1.466  14.002
99850W        W66259  19.297  25.918  14.028
99851W        W66260  36.739   6.770   4.521
99852W        W66261  25.516  41.074  14.280
99853W        W66262  38.899  39.962   0.938
99854W        W66263  44.523  21.302  10.798
99855W        W66264  44.971  28.565   2.404
99856W        W66265   7.645   8.792   1.397
99857W        W66266  44.998  15.567   4.060
99858W        W66267   9.839  35.483   0.612
99859W        W66268  36.869  31.876  12.391
99860W        W66269   7.938  30.678  10.826
99861W        W66270  44.572  11.677  12.585
99862W        W66271  21.690  15.120   0.273
99863W        W66272  30.023  32.632   0.941
99864W        W66273  26.272  43.762   0.414
99865W        W66274   1.995  24.283  11.535
99866W        W66275  21.502  13.322   0.375
99867W        W66276  34.089   6.337   3.293
99868W        W66277  43.925  40.313   2.508
99869W        W66278  13.079   7.153   4.939
99870W        W66279  31.092  40.534   2.015
99871W        W66280  19.716  11.015  14.537
99872W        W66281   4.871  18.095  13.639
99873W        W66282  29.932  42.333  11.509
99874W        W66283   1.810   3.778   3.414
99875W        W66284  35.882  15.623   1.942
99876W        W66285   6.948   4.394   2.620
99877W        W66286  41.346  29.560  13.341
99878W        W66287  36.399   8.179  12.858
99879W        W66288  42.027  26.327  13.445
99880W        W66289  28.554  14.334   3.226
99881W        W66290   6.543  17.851  12.713
99882W        W66291  34.051  35.249   1.087
99883W        W66292  41.376  32.030   1.991
99884W        W66293  15.822  11.814   3.206
99885W        W66294  30.430  41.295  13.950
99886W        W66295  44.498   8.168   1.177
99887W        W66296  37.952  20.508   2.150
99888W        W66297  25.277  30.074  13.782
99889W        W66298  22.410  17.112  11.205
99890W        W66299  25.006  32.590   1.285
99891W        W66300  14.378   8.226   4.304
99892W        W66301  18.990  13.271  11.184
99893W        W66302   8.385  18.188  12.116
99894W        W66303   9.047  12.598  11.288
99895W        W66304  23.669   7.317  10.599
99896W        W66305  10.244  23.073  12.250
99897W        W66306  28.201   1.466  11.644
99898W        W66307  32.488  18.512   4.650
99899W        W66308  19.115   7.340   0.637
99900W        W66309  42.282  14.355   4.544
99901W        W66310   8.349   0.776  13.015
99902W        W66311  33.840  15.519  14.812
99903W        W66312  12.901  23.519  13.957
99904W        W66313  13.575  12.235  11.800
99905W        W66314  39.518   0.901  14.208
99906W        W66315   2.023  32.364  12.204
99907W        W66316  16.809  20.024  14.118
99908W        W66317  18.708  11.262   3.701
99909W        W66318  24.983  37.468  13.953
99910W        W66319  41.086  39.602  13.293
99911W        W66320  35.083  15.021   0.356
99912W        W66321  24.429  43.768  11.590
99913W        W66322   1.094  21.812   4.545
99914W        W66323  36.611  28.462  14.951
99915W        W66324   3.403  18.226  11.016
99916W        W66325  35.573   7.615  13.880
99917W        W66326  11.655  25.934  10.631
99918W        W66327  22.144  22.915  13.786
99919W        W66328   2.426  10.492  12.015
99920W        W66329  39.366  24.593  13.362
99921W        W66330  42.672  13.597  13.136
99922W        W66331  41.567  11.008   0.204
99923W        W66332  17.823  43.536  14.377
99924W        W66333  28.136  39.104   0.896
99925W        W66334  12.708  13.635  13.815
99926W        W66335   3.024  22.595  11.121
99927W        W66336  38.031  39.742   2.344
99928W        W66337   0.660   1.422   3.682
99929W        W66338  31.639  34.911  13.470
99930W        W66339  34.838  16.966   2.723
99931W        W66340  27.609   3.430   0.337
99932W        W66341  21.288  20.687   2.798
99933W        W66342   9.660  42.889  11.476
99934W        W66343  41.017  15.206   1.949
99935W        W66344  43.701  19.789   2.663
99936W        W66345   9.651   3.750  13.412
99937W        W66346  38.054  32.676  14.683
99938W        W66347  32.800  19.718   0.698
99939W        W66348  19.252   6.288   0.878
99940W        W66349  41.486   5.986  11.403
99941W        W66350  33.486  13.693   3.281
99942W        W66351  10.209  37.435   9.862
99943W        W66352  16.242  11.789  11.091
99944W        W66353  32.130   5.851  13.907
99945W        W66354  26.059  39.243   3.785
99946W        W66355   3.604  43.681  14.844
99947W        W66356  20.097  43.840  14.302
99948W        W66357  41.814  26.938  10.667
99949W        W66358  17.176   3.075  12.077
99950W        W66359  18.731  20.779  10.074
99951W        W66360  16.638  19.296  14.720
99952W        W66361  37.419  22.509  10.952
99953W        W66362  32.737  38.216  14.775
99954W        W66363  27.499  34.689   0.147
99955W        W66364  13.754   3.655   2.810
99956W        W66365  44.392   4.000   3.104
99957W        W66366   1.544  12.886  13.492
99958W        W66367  23.655  10.680   0.438
99959W        W66368  18.205   6.648   1.847
99960W        W66369  25.484   1.964  13.335
99961W        W66370  32.666  33.480   2.376
99962W        W66371  14.094  12.817   2.741
99963W        W66372   9.202  16.725   3.263
99964W        W66373   2.953  33.629   1.914
99965W        W66374  38.128  19.425  10.914
99966W        W66375  18.615  12.745   2.133
99967W        W66376  31.011  38.829   1.349
99968W        W66377   2.853  42.022   4.078
99969W        W66378  18.726  19.903  11.162
99970W        W66379  14.334  12.971   1.892
99971W        W66380  10.157  42.340   1.409
99972W        W66381  12.915   8.702  12.902
99973W        W66382   9.334  24.490   3.534
99974W        W66383  22.086  12.422  13.972
99975W        W66384  35.350  21.916  13.517
99976W        W66385  20.004  19.583   5.062
99977W        W66386  23.539  39.601  12.558
99978W        W66387   1.343  14.096   1.296
99979W        W66388  10.772   2.053  12.487
99980W        W66389  15.512  12.211  14.446
99981W        W66390   7.552  17.266  11.692
99982W        W66391  15.584  34.348   3.233
99983W        W66392  39.576   8.243   1.389
99984W        W66393   5.039  16.697  13.549
99985W        W66394   3.002  20.221   2.095
99986W        W66395   5.344  13.252   4.813
99987W        W66396   0.603  19.589  13.939
99988W        W66397  42.344  18.680   1.327
99989W        W66398  43.214   4.669   2.210
99990W        W66399   0.897  13.381   4.567
99991W        W66400  32.325  36.011  12.487
99992W        W66401  24.221   0.364  10.302
99993W        W66402  27.944  27.978  13.085
99994W        W66403  32.431  25.340  11.529
99995W        W66404   9.773  24.180  12.569
99996W        W66405  30.114  35.904   4.285
99997W        W66406  19.648  30.585  10.331
99998W        W66407  36.078  39.548   4.105
99999W        W66408  33.115  27.227   2.506
    0W        W66409   8.839  29.532   2.202
    1W        W66410   5.886  13.629  11.924
    2W        W66411  13.843  34.299  10.249
    3W        W66412   4.213  22.743   0.242
    4W        W66413  30.905  12.443  13.407
    5W        W66414   7.853  35.494   1.681
    6W        W66415  19.017  35.553   2.411
    7W        W66416   1.163  44.528   3.590
    8W        W66417  40.745   6.295   4.633
    9W        W66418   9.799   9.806   3.347
   10W        W66419  20.341  27.933  13.511
   11W        W66420   8.343  41.704   1.820
   12W        W66421  41.272   0.997  14.868
   13W        W66422  30.942   4.449   3.687
   14W        W66423  39.005  18.123   2.432
   15W        W66424  39.349  17.628  14.291
   16W        W66425  39.469  37.413   4.126
   17W        W66426  18.590   8.301   4.717
   18W        W66427  13.139  20.178  10.622
   19W        W66428  37.406   9.763  14.903
   20W        W66429   9.285   5.971   1.327
   21W        W66430  33.353  29.992   2.271
   22W        W66431  25.561   0.031   3.157
   23W        W66432  31.136  13.348  13.438
   24W        W66433  17.230  20.518  11.146
   25W        W66434  13.092  27.545  14.345
   26W        W66435  31.001  29.405  12.598
   27W        W66436  41.110  26.541  10.567
   28W        W66437   4.097  26.649  11.932
   29W        W66438  29.481  26.137  11.114
   30W        W66439   6.695  27.612  14.464
   31W        W66440  16.354  14.023   1.771
   32W        W66441  15.086  22.055   0.735
   33W        W66442  22.584   7.763  11.147
   34W        W66443  12.765  22.564   3.630
   35W        W66444   3.879  25.230  12.406
   36W        W66445  40.285  30.143   1.370
   37W        W66446  36.583   5.242  14.813
   38W        W66447  27.457  10.809  13.392
   39W        W66448  28.599  38.858   4.771
   40W        W66449  38.796  42.360  11.239
   41W        W66450  36.518  33.430  12.906
   42W        W66451  32.775  23.709  13.927
   43W        W66452   3.321  12.994  13.117
   44W        W66453   3.294  19.806  13.004
   45W        W66454  14.189  21.767  13.912
   46W        W66455  13.812  43.791  10.740
   47W        W66456  44.903  24.694  13.636
   48W        W66457  10.815   1.860   2.152
   49W        W66458  36.024  39.446   0.701
   50W        W66459  13.597   7.842   4.630
   51W        W66460  30.895  18.649  12.930
   52W        W66461  11.345  38.625   0.230
   53W        W66462  16.778  30.655   3.641
   54W        W66463  19.200  28.019   3.138
   55W        W66464  25.231  34.476   4.609
   56W        W66465  33.021  39.050   9.873
   57W        W66466  33.516   8.396   3.880
   58W        W66467   6.247   8.772  13.946
   59W        W66468  32.971  22.965  14.592
   60W        W66469  37.482  24.252   3.268
   61W        W66470   7.054   8.026   1.965
   62W        W66471   7.334  34.941   2.673
   63W        W66472  17.489  28.990  13.885
   64W        W66473  11.985  32.675  14.496
   65W        W66474  42.911  13.837  10.852
   66W        W66475  37.904  40.740   2.928
   67W        W66476  25.189  35.872   0.750
   68W        W66477  26.805  36.367   1.867
   69W        W66478  23.832   7.816   4.576
   70W        W66479  10.778  42.589  13.880
   71W        W66480  33.848  27.059   1.422
   72W        W66481  17.122  22.276   2.242
   73W        W66482  41.046  18.615  12.484
   74W        W66483  25.834  26.246  11.529
   75W        W66484  28.281  27.333   3.355
   76W        W66485  22.187  13.144  10.357
   77W        W66486  20.512  24.657  14.671
   78W        W66487   2.387  24.723  13.284
   79W        W66488  36.056   2.432   4.417
   80W        W66489   4.797  25.112  14.413
   81W        W66490  10.651  37.586   5.058
   82W        W66491  33.082  12.146  14.298
   83W        W66492  29.153  33.989  13.802
   84W        W66493  37.204  44.566   2.137
   85W        W66494  34.431  39.307   1.460
   86W        W66495  41.517  10.126   0.748
   87W        W66496   8.956  23.637   4.023
   88W        W66497  17.136   2.741  11.170
   89W        W66498  16.851  24.012   3.450
   90W        W66499  14.608  33.865  14.760
   91W        W66500  32.653  35.554  10.638
   92W        W66501  23.773   0.004   2.319
   93W        W66502  44.698  35.453   1.281
   94W        W66503  20.798   5.359  11.231
   95W        W66504  13.286  21.672   2.347
   96W        W66505  21.040   2.772  11.609
   97W        W66506  33.690   6.585   1.274
   98W        W66507  38.780  17.899   0.825
   99W        W66508   1.684  34.198   2.171
  100W        W66509  39.006   6.636   1.474
  101W        W66510   6.004  27.595  14.932
  102W        W66511  16.241  42.954  13.888
  103W        W66512  34.656  24.949  14.888
  104W        W66513  14.022  38.332  12.863
  105W        W66514  11.941  21.272   4.634
  106W        W66515  34.831   6.648  10.232
  107W        W66516  29.780  24.265   1.906
  108W        W66517  38.382  24.905  11.575
  109W        W66518  37.194  25.186   1.974
  110W        W66519  12.661  15.861   1.763
  111W        W66520  42.239  34.205  14.537
  112W        W66521  13.616  43.495  14.020
  113W        W66522  43.812  35.838  13.308
  114W        W66523   9.857  43.906   3.699
  115W        W66524  15.602  36.776   0.846
  116W        W66525  19.065  34.575   2.268
  117W        W66526   8.473  24.173   3.048
  118W        W66527   9.093  35.506  13.577
  119W        W66528  23.638  28.650  13.373
  120W        W66529  13.864  40.513   2.436
  121W        W66530  16.667  30.222   3.922
  122W        W66531  29.776  15.468  14.375
  123W        W66532  14.122  37.919  13.818
  124W        W66533  29.107  36.868   2.306
  125W        W66534  29.127  42.532   2.776
  126W        W66535   6.777  33.673   1.262
  127W        W66536  18.131  35.136   3.717
  128W        W66537  35.600  21.686  10.552
  129W        W66538  15.544   4.655  10.818
  130W        W66539   7.431  18.200  12.136
  131W        W66540  17.446  11.917   1.949
  132W        W66541  26.083  37.839   3.367
  133W        W66542  30.152  37.630  13.340
  134W        W66543   8.293  17.285   4.603
  135W        W66544   2.040  36.043  11.487
  136W        W66545   5.005  33.805   5.075
  137W        W66546  33.068  43.510  11.565
  138W        W66547  37.815  18.762  11.637
  139W        W66548  36.441  44.159   2.370
  140W        W66549   2.265   0.805  11.165
  141W        W66550  15.101  30.037  13.349
  142W        W66551  44.443  18.293   3.319
  143W        W66552  25.685  24.749  11.992
  144W        W66553  25.723  41.419  10.929
  145W        W66554  10.176  22.896  14.946
  146W        W66555  20.726  27.526  12.176
  147W        W66556  24.229  28.600   2.121
  148W        W66557  43.357   0.789  14.471
  149W        W66558  14.368   9.824  13.424
  150W        W66559  18.629  36.068   9.960
  151W        W66560  26.703  29.619   0.281
  152W        W66561  17.796  12.324   2.813
  153W        W66562  38.760  39.785   0.475
  154W        W66563  26.003  41.197   3.175
  155W        W66564   4.972  38.082   2.885
  156W        W66565  30.111   7.916  12.608
  157W        W66566  16.794  28.185   3.444
  158W        W66567  17.277  12.244   3.798
  159W        W66568  27.025   0.250  13.389
  160W        W66569  14.643  13.017  11.154
  161W        W66570  35.166   4.481   0.290
  162W        W66571  43.601  21.967   0.194
  163W        W66572  37.317   0.709  12.375
  164W        W66573  25.363  11.576  12.368
  165W        W66574  32.375   2.252  13.035
  166W        W66575  33.364   8.172  14.427
  167W        W66576  24.529  43.854   4.640
  168W        W66577  16.693  42.987  12.087
  169W        W66578  34.598  42.548   4.493
  170W        W66579  25.021   8.145  10.150
  171W        W66580  10.612  18.815  14.996
  172W        W66581  40.134  19.478   3.244
  173W        W66582  44.921  19.066  13.819
  174W        W66583  37.854  36.849  13.475
  175W        W66584   5.921  35.014   0.164
  176W        W66585  17.628  19.129  14.917
  177W        W66586  44.418  33.963  14.504
  178W        W66587  42.953   2.684  10.796
  179W        W66588  29.903  35.828  12.057
  180W        W66589   8.317  18.599  10.701
  181W        W66590   7.668  16.813  10.609
  182W        W66591  25.139  17.416  11.191
  183W        W66592  23.417  44.221  12.422
  184W        W66593   9.779  27.122   3.338
  185W        W66594  19.786  36.503  12.253
  186W        W66595  14.739  14.075  14.921
  187W        W66596  28.566   8.009   1.764
  188W        W66597  12.829  30.886   2.408
  189W        W66598   5.489  39.924  10.897
  190W        W66599   6.528  22.237   5.002
  191W        W66600  31.867  17.375  11.954
  192W        W66601  18.250  20.826   4.045
  193W        W66602   0.905  27.570   2.285
  194W        W66603  20.803  22.482   3.620
  195W        W66604  24.978  12.374   2.319
  196W        W66605  42.318   2.042  14.548
  197W        W66606  25.437  36.861  13.506
  198W        W66607  35.565  15.246  10.636
  199W        W66608  20.349  30.974   4.133
  200W        W66609  25.598  36.189   4.645
  201W        W66610  21.057  43.804   1.476
  202W        W66611  10.342   8.663   1.340
  203W        W66612  12.731  33.228  14.038
  204W        W66613   7.835  14.270   2.963
  205W        W66614   2.682   4.211   0.294
  206W        W66615   5.965   7.772   0.269
  207W        W66616   9.333  19.727   3.236
  208W        W66617  29.392  26.695  10.578
  209W        W66618  19.031  16.136  13.909
  210W        W66619  22.180  26.255  14.604
  211W        W66620  35.323  39.445   4.873
  212W        W66621  40.195   4.440  10.927
  213W        W66622  30.862  34.009  14.608
  214W        W66623  16.308  25.853  12.102
  215W        W66624  26.243  28.937  14.801
  216W        W66625  38.189  36.962  13.867
  217W        W66626  30.727   4.261   4.836
  218W        W66627  42.830   7.452  14.051
  219W        W66628   0.900  44.066  14.628
  220W        W66629  29.905  39.455  13.950
  221W        W66630  44.914  18.334  13.015
  222W        W66631  15.810  27.439  10.452
  223W        W66632  21.417  32.072   3.992
  224W        W66633  13.436  43.846   3.159
  225W        W66634  30.828  25.510  13.019
  226W        W66635  16.628  36.537  10.298
  227W        W66636   6.882  42.005  13.459
  228W        W66637  40.828  33.340  14.939
  229W        W66638  12.613  39.785   3.199
  230W        W66639  15.831  43.791  11.561
  231W        W66640  23.157  28.637  10.728
  232W        W66641  22.560  22.517  11.409
  233W        W66642  24.248  34.298   0.444
  234W        W66643  26.484  15.119  12.478
  235W        W66644  44.017   1.539   2.934
  236W        W66645  32.618  17.986   2.430
  237W        W66646  41.779  16.696   0.826
  238W        W66647  14.993  15.582   2.650
  239W        W66648  33.464  28.736   1.883
  240W        W66649  12.386   5.410  14.780
  241W        W66650  19.896  25.026  10.841
  242W        W66651  27.113  28.633   4.681
  243W        W66652  37.007  35.330   1.942
  244W        W66653  33.578  34.028   3.391
  245W        W66654   3.793   9.107   2.539
  246W        W66655  42.369  17.779  10.618
  247W        W66656   4.679   5.967  12.599
  248W        W66657  28.103   0.592   0.802
  249W        W66658  39.149  37.208  10.728
  250W        W66659  29.096   8.393   3.067
  251W        W66660  20.115  42.320  11.135
  252W        W66661  12.741  38.366   2.340
  253W        W66662  30.144  22.048   0.480
  254W        W66663  44.424  12.671  14.016
  255W        W66664  26.993  10.340   3.737
  256W        W66665   1.334  27.170  13.695
  257W        W66666  25.145   9.594   3.689
  258W        W66667  29.864  21.979  12.573
  259W        W66668  16.347  41.400  10.571
  260W        W66669  29.214  19.701   4.211
  261W        W66670   9.831   4.145  14.334
  262W        W66671  21.492   6.087   2.411
  263W        W66672  34.468  27.959   3.389
  264W        W66673  15.515  13.187  11.264
  265W        W66674  39.121  39.490   2.876
  266W        W66675  41.396  37.833   2.434
  267W        W66676   9.032  15.804   4.145
  268W        W66677  32.593  40.437   4.511
  269W        W66678   7.551  33.911   4.470
  270W        W66679  30.336  20.776  11.457
  271W        W66680  23.648  37.091   3.636
  272W        W66681   2.864   3.664   4.233
  273W        W66682  25.799  34.583   2.213
  274W        W66683  19.140  11.175   4.630
  275W        W66684   1.719   6.213   2.642
  276W        W66685  23.674  18.854   2.267
  277W        W66686  25.241  20.829   1.612
  278W        W66687  29.807  11.738  10.312
  279W        W66688  32.442   6.848  10.730
  280W        W66689  32.533   0.893  14.772
  281W        W66690  22.116  30.238   4.925
  282W        W66691  24.746   3.835  12.453
  283W        W66692  13.105  11.051   2.586
  284W        W66693  18.191  38.091   1.735
  285W        W66694  31.614  11.300  10.514
  286W        W66695  21.464  11.674  14.825
  287W        W66696  24.160  12.589   1.482
  288W        W66697   6.140  27.655  11.300
  289W        W66698  25.479  24.504   0.949
  290W        W66699   8.167   9.428  13.665
  291W        W66700  32.959  10.762   0.566
  292W        W66701  15.135   1.825   1.780
  293W        W66702   1.963  32.859   5.164
  294W        W66703  21.103  21.959  12.957
  295W        W66704   0.950  40.475   1.791
  296W        W66705  25.517   3.880   2.162
  297W        W66706  16.142   5.993  12.053
  298W        W66707  16.182   2.812   2.860
  299W        W66708   5.267  18.229  11.498
  300W        W66709  19.869  43.908  11.646
  301W        W66710  43.219  10.018   2.664
  302W        W66711  30.628   8.116   9.671
  303W        W66712  27.164   6.136   0.292
  304W        W66713  43.473  42.029  11.393
  305W        W66714   5.387  16.071  13.014
  306W        W66715   3.485  18.871  10.745
  307W        W66716  29.557  23.100   2.388
  308W        W66717  40.349  22.373  13.073
  309W        W66718  24.209  17.591  10.308
  310W        W66719  43.324  27.510  11.552
  311W        W66720   5.999   1.241   4.235
  312W        W66721  17.779  24.489   0.537
  313W        W66722   5.934  33.654   2.346
  314W        W66723  41.707  39.759   0.346
  315W        W66724  15.810  11.149   9.933
  316W        W66725  13.871  27.050   1.637
  317W        W66726  42.902   9.292  12.724
  318W        W66727   7.420  39.823  10.726
  319W        W66728   3.373  12.529  12.701
  320W        W66729   5.003  33.064  10.596
  321W        W66730  25.466  28.413  11.067
  322W        W66731  11.772  32.986   3.576
  323W        W66732  13.867   5.854   3.940
  324W        W66733  17.583  38.340  10.998
  325W        W66734  17.665  19.461  12.433
  326W        W66735  38.895  35.884  10.963
  327W        W66736  37.556  26.613  10.526
  328W        W66737   5.367  27.071   1.791
  329W        W66738  31.394  15.987   3.530
  330W        W66739  36.515  17.039   0.910
  331W        W66740  15.525  18.785   2.286
  332W        W66741  27.964  37.333   4.146
  333W        W66742   6.019  35.902  11.964
  334W        W66743  17.725  20.937   2.835
  335W        W66744  23.868  31.371  12.864
  336W        W66745  24.737  39.309   3.405
  337W        W66746  23.993  34.429  14.028
  338W        W66747  41.299  30.377   2.769
  339W        W66748  42.151  44.208  13.897
  340W        W66749   4.780  32.514   4.181
  341W        W66750  35.433  32.217   3.293
  342W        W66751   1.817  42.966  13.412
  343W        W66752  29.979  41.267  11.663
  344W        W66753  18.407  17.816  14.480
  345W        W66754  31.453  14.169   1.395
  346W        W66755  14.484  19.028   0.512
  347W        W66756  25.115  22.718  11.348
  348W        W66757  42.965  35.958   3.124
  349W        W66758   1.644  39.489  11.630
  350W        W66759  32.944  29.040  12.642
  351W        W66760  33.115  17.012   0.288
  352W        W66761  24.017  12.107   1.323
  353W        W66762  29.601  42.532  12.369
  354W        W66763  11.117   6.749   4.422
  355W        W66764  22.154   0.766  14.300
  356W        W66765  29.509   7.676  13.363
  357W        W66766  41.762   4.786   1.087
  358W        W66767   5.913  33.173   0.666
  359W        W66768  38.220  37.139   3.069
  360W        W66769  31.790  33.063  12.794
  361W        W66770   4.868   3.379  10.633
  362W        W66771  37.395  18.739   5.082
  363W        W66772   1.672  39.785  13.721
  364W        W66773  32.988   8.812  12.500
  365W        W66774  20.747  35.423  14.411
  366W        W66775  22.442  25.408   1.922
  367W        W66776  19.194   1.281  10.659
  368W        W66777   2.869  22.686   0.752
  369W        W66778  36.789  20.840   3.681
  370W        W66779  30.934   8.157  12.645
  371W        W66780  27.328  34.124  11.552
  372W        W66781  26.945  37.464   4.292
  373W        W66782  28.927  29.506   0.508
  374W        W66783  36.403   0.965   2.914
  375W        W66784  13.775  16.191  10.473
  376W        W66785  26.760  30.741   3.776
  377W        W66786  22.703   5.898   3.583
  378W        W66787  26.290  22.853   0.245
  379W        W66788  39.438  39.097   2.802
  380W        W66789   0.763   3.667  13.387
  381W        W66790   0.142  41.368  12.401
  382W        W66791  12.730  44.035  14.498
  383W        W66792  15.271  25.711  11.572
  384W        W66793  33.087  13.309   4.944
  385W        W66794   0.565  35.961  10.312
  386W        W66795  22.207   7.317   4.021
  387W        W66796  42.739  12.114  12.228
  388W        W66797  32.037  11.817  11.980
  389W        W66798  19.036   4.435   3.986
  390W        W66799  23.908   0.514  11.624
  391W        W66800  29.407  37.514   5.185
  392W        W66801  41.110  30.800  14.735
  393W        W66802  14.075   9.303   0.420
  394W        W66803  38.914  15.621  13.751
  395W        W66804  42.766   4.294  12.391
  396W        W66805  39.136  33.935   0.345
  397W        W66806  28.901  33.328   1.430
  398W        W66807  17.136  12.816  10.146
  399W        W66808   9.922  30.234   3.676
  400W        W66809  16.135  34.040   4.245
  401W        W66810  27.210   4.133  13.586
  402W        W66811   5.790   7.894   4.527
  403W        W66812  28.537  43.863   2.133
  404W        W66813  16.091  39.720   0.733
  405W        W66814  22.449  14.761  13.028
  406W        W66815  30.037  26.947   4.523
  407W        W66816  13.326   8.425  12.662
  408W        W66817  29.402  34.310   0.389
  409W        W66818   4.178  21.629  13.521
  410W        W66819  26.106  41.622   4.873
  411W        W66820  40.334   3.019  14.833
  412W        W66821  35.511  25.244   4.239
  413W        W66822  15.643  43.925  13.047
  414W        W66823  18.316  41.927   4.198
  415W        W66824  32.395  44.070   3.597
  416W        W66825   4.165  43.560  14.031
  417W        W66826  40.414  13.320   3.169
  418W        W66827   6.383  11.840   3.429
  419W        W66828  44.228   0.299  14.845
  420W        W66829   6.956  35.081  13.128
  421W        W66830  22.134   0.617   2.773
  422W        W66831  18.791  19.205  13.803
  423W        W66832   1.809  27.178  13.867
  424W        W66833   2.323  10.560   0.342
  425W        W66834  13.162  28.228  13.243
  426W        W66835  12.655  22.023   0.571
  427W        W66836  14.704  28.126  12.173
  428W        W66837  39.500  32.870   0.316
  429W        W66838  33.469  20.552  13.430
  430W        W66839  34.247  18.362   3.613
  431W        W66840  26.452  28.595  10.752
  432W        W66841  14.102  37.775  11.704
  433W        W66842  35.359  19.607   4.187
  434W        W66843   3.783   6.167   2.829
  435W        W66844   8.340  36.936   4.288
  436W        W66845  43.017  12.532  12.180
  437W        W66846  12.370  43.310  11.328
  438W        W66847   9.905  25.861  14.844
  439W        W66848   4.611  25.951  14.384
  440W        W66849  21.233   2.835   0.725
  441W        W66850  15.040  24.187  11.546
  442W        W66851  10.925  37.180   3.134
  443W        W66852  44.366  18.176   2.342
  444W        W66853  41.104   0.000   0.061
  445W        W66854  30.457  12.877  13.013
  446W        W66855  26.132   8.891   3.123
  447W        W66856  37.025   7.481   1.132
  448W        W66857   8.622  28.035   2.207
  449W        W66858  43.078  14.746   0.269
  450W        W66859  16.287  15.168   2.718
  451W        W66860  11.014  23.215   0.367
  452W        W66861  26.564  18.415  11.072
  453W        W66862  32.878   1.873  12.686
  454W        W66863   0.663   1.371  11.205
  455W        W66864  25.823  43.842   4.238
  456W        W66865  10.275  35.185   5.343
  457W        W66866  44.028  35.930   3.989
  458W        W66867  14.533  42.433   0.272
  459W        W66868  28.747  37.440  10.028
  460W        W66869   9.650   1.411  14.335
  461W        W66870  24.031  12.557  12.103
  462W        W66871  11.221  17.816  12.182
  463W        W66872  37.424   6.428   3.675
  464W        W66873  34.911  15.250   0.827
  465W        W66874   0.547  11.609  11.220
  466W        W66875  16.603   6.941  14.813
  467W        W66876   4.780  25.103  10.243
  468W        W66877  43.906  21.250  14.784
  469W        W66878  24.672  38.995   1.241
  470W        W66879  18.233  39.113   4.682
  471W        W66880  11.892   9.816   4.221
  472W        W66881  35.928  16.278  13.488
  473W        W66882   0.422  30.473  10.803
  474W        W66883  27.014  28.596  10.749
  475W        W66884  17.821  13.356  14.855
  476W        W66885  10.843   9.186  14.561
  477W        W66886  25.078   5.146   4.485
  478W        W66887  15.679  17.933   3.557
  479W        W66888  20.635  14.635   0.844
  480W        W66889   3.899   6.725  10.502
  481W        W66890  18.555  42.471  11.599
  482W        W66891  12.704  15.897   9.775
  483W        W66892  10.922  28.498   4.792
  484W        W66893   8.879  43.842   0.049
  485W        W66894  41.104  34.327  13.947
  486W        W66895   8.389  26.502  10.800
  487W        W66896   4.377   8.102  14.485
  488W        W66897  40.527  42.873   1.397
  489W        W66898  26.859  20.636  10.127
  490W        W66899   6.180  14.045   4.165
  491W        W66900  12.211  18.197  13.326
  492W        W66901  29.134  30.613   4.536
  493W        W66902  43.264  11.685  13.397
  494W        W66903  36.276  40.307   2.036
  495W        W66904  18.011  25.397   1.501
  496W        W66905  31.115  27.547   1.348
  497W        W66906  38.468  24.646  12.046
  498W        W66907  21.448  33.674  13.317
  499W        W66908  27.643  32.027  13.969
  500W        W66909  29.892  36.044   0.321
  501W        W66910   2.446   5.625  11.845
  502W        W66911  20.633  35.612  11.239
  503W        W66912   4.718  39.214   1.679
  504W        W66913  12.918  41.493  10.422
  505W        W66914   4.205  17.470  11.704
  506W        W66915  13.902  16.203   1.262
  507W        W66916   7.438  42.872   4.958
  508W        W66917  29.632   6.873   1.280
  509W        W66918  26.088  28.650   1.827
  510W        W66919  20.503  31.611  12.039
  511W        W66920  34.869  33.544   3.236
  512W        W66921  33.416  40.247  13.275
  513W        W66922  20.782   9.186  14.777
  514W        W66923  43.838  24.919   4.402
  515W        W66924  28.701  43.387  11.946
  516W        W66925  39.947   3.366  14.599
  517W        W66926  10.239   4.319  13.363
  518W        W66927  44.520  21.590   4.431
  519W        W66928  18.118  35.344   1.247
  520W        W66929   1.402  21.446   0.951
  521W        W66930  28.104   4.720   2.393
  522W        W66931  21.549   9.367  10.791
  523W        W66932  19.775  17.157  11.636
  524W        W66933  15.925  31.848   0.189
  525W        W66934  10.694  31.421   4.726
  526W        W66935   9.609  21.193   4.501
  527W        W66936  20.994  23.454  14.101
  528W        W66937  25.583  25.238  14.741
  529W        W66938  40.251  38.524  12.465
  530W        W66939  25.179   4.668   2.192
  531W        W66940   5.388  25.029   1.085
  532W        W66941  19.908   8.069   0.818
  533W        W66942  32.497  16.858  13.781
  534W        W66943  38.767  14.074   3.199
  535W        W66944  44.714  35.320  13.465
  536W        W66945  40.811  18.409   1.416
  537W        W66946  25.147  33.141   4.123
  538W        W66947  42.920   8.426  14.289
  539W        W66948  29.686   6.047   5.194
  540W        W66949  10.654  22.771  10.489
  541W        W66950  20.125  37.349  10.729
  542W        W66951  43.002  17.665   2.101
  543W        W66952  17.304  14.326  14.843
  544W        W66953   0.506  33.669  10.847
  545W        W66954  10.448  29.427   3.364
  546W        W66955  30.017  31.415   4.536
  547W        W66956  27.737  16.447  13.934
  548W        W66957  27.215  10.168   3.297
  549W        W66958  19.101  17.659  13.312
  550W        W66959   7.270  17.964  11.515
  551W        W66960   1.490  38.375   1.087
  552W        W66961  26.341  25.650  13.108
  553W        W66962  41.307   2.718   0.807
  554W        W66963  18.361  43.805  12.513
  555W        W66964  14.125  31.595   0.434
  556W        W66965  24.728  38.638  11.735
  557W        W66966  33.464   3.925   4.158
  558W        W66967  42.401  15.667   2.419
  559W        W66968  40.624   1.968   0.864
  560W        W66969  22.696  36.679  11.222
  561W        W66970  11.893  31.183   3.291
  562W        W66971  14.343  29.847  10.748
  563W        W66972  17.733  11.633  14.351
  564W        W66973   1.009  25.772   2.178
  565W        W66974   4.867   2.549  12.950
  566W        W66975  29.495  44.141  10.343
  567W        W66976  22.743  20.131  13.952
  568W        W66977  29.233  25.332   0.198
  569W        W66978  24.314  16.062   2.293
  570W        W66979  43.951  19.064   4.560
  571W        W66980  39.561  42.816  12.053
  572W        W66981  24.138  29.374   0.781
  573W        W66982  21.984  10.408   3.255
  574W        W66983  44.157  42.320  11.236
  575W        W66984  40.977  30.418   1.884
  576W        W66985  26.828  13.858   1.761
  577W        W66986  25.874   1.413   4.993
  578W        W66987  39.390  13.819  13.455
  579W        W66988  42.379  10.396   0.203
  580W        W66989  12.204  36.914   0.763
  581W        W66990  23.304  36.473  11.740
  582W        W66991  38.069  17.855  14.306
  583W        W66992  42.346  44.384  11.969
  584W        W66993  19.338  34.620  11.144
  585W        W66994  30.572  40.289   4.499
  586W        W66995   5.766   3.900   3.302
  587W        W66996  43.797   0.370   0.777
  588W        W66997  17.755  38.371   1.191
  589W        W66998  15.569  10.314  12.602
  590W        W66999  17.290   3.353   3.181
  591W        W67000  17.328   3.549  11.935
  592W        W67001   3.886  19.024  14.048
  593W        W67002  21.714  16.266  12.495
  594W        W67003  29.032  44.333   1.037
  595W        W67004  14.684   5.579   2.928
  596W        W67005  16.670   7.176  11.436
  597W        W67006   9.770  23.777   0.856
  598W        W67007  18.457  19.102  14.202
  599W        W67008  10.127   4.416  12.031
  600W        W67009  17.551  42.746   4.123
  601W        W67010   7.866  12.078  13.255
  602W        W67011  28.630  18.332  13.410
  603W        W67012  11.234  18.018  14.483
  604W        W67013   0.908  23.468   0.330
  605W        W67014  24.756  37.469  13.459
  606W        W67015  25.133   6.482  11.135
  607W        W67016  18.484  17.716   2.347
  608W        W67017  21.606  36.397   2.845
  609W        W67018  41.258   6.953  14.968
  610W        W67019  43.202  24.736  13.813
  611W        W67020  27.971  30.062  11.660
  612W        W67021   3.115  10.832   3.083
  613W        W67022  10.092  11.931   0.856
  614W        W67023  14.700  40.492   0.176
  615W        W67024  19.501  17.619  11.609
  616W        W67025  23.416   6.707   2.294
  617W        W67026   1.561  41.800   1.232
  618W        W67027  26.722  34.542   3.766
  619W        W67028  39.720   9.342   5.185
  620W        W67029  17.106  28.710  12.750
  621W        W67030  11.928  34.146  10.336
  622W        W67031  40.007  16.179   2.743
  623W        W67032   7.392  31.466  14.352
  624W        W67033  19.773  15.232  14.383
  625W        W67034  41.552   2.810   3.086
  626W        W67035  15.261   1.390  11.956
  627W        W67036  43.060   4.301  12.893
  628W        W67037  20.243   2.768  12.045
  629W        W67038   6.465  22.247   4.102
  630W        W67039   5.180   4.946  14.432
  631W        W67040   0.480  21.596  12.889
  632W        W67041  22.110  32.844  11.254
  633W        W67042  22.298  35.194  11.651
  634W        W67043   9.657   4.381  14.884
  635W        W67044   0.490  43.766   2.606
  636W        W67045   3.253  39.001   0.496
  637W        W67046   1.291  18.312   2.693
  638W        W67047  36.662  27.387  13.600
  639W        W67048  15.535   5.461  13.377
  640W        W67049  24.256  43.853  13.042
  641W        W67050   7.403   1.407  12.013
  642W        W67051  35.523  32.217  11.652
  643W        W67052  19.821   0.792  13.959
  644W        W67053  15.773  34.073   3.882
  645W        W67054   9.649  43.427   2.769
  646W        W67055  21.888   8.764   1.236
  647W        W67056  31.040  43.784   4.118
  648W        W67057  35.037  32.805  13.053
  649W        W67058  32.498  20.213   2.760
  650W        W67059  35.364  31.116  10.762
  651W        W67060  33.963  36.604   0.545
  652W        W67061  28.984  15.335   0.278
  653W        W67062  37.957  20.278  12.527
  654W        W67063  28.948  18.180  12.656
  655W        W67064  13.248  43.477   0.961
  656W        W67065  38.692  36.832  13.771
  657W        W67066  37.776  14.881  14.297
  658W        W67067  22.042  20.332   1.108
  659W        W67068  24.036  13.113   0.093
  660W        W67069  27.538   5.418   3.171
  661W        W67070   9.841  11.172   2.852
  662W        W67071  41.889  27.015  14.686
  663W        W67072   0.090   0.227  12.083
  664W        W67073  17.555  24.961   0.408
  665W        W67074   6.262  40.466  13.288
  666W        W67075   2.350  20.602   3.387
  667W        W67076  36.328   7.385  12.398
  668W        W67077  41.384  14.082   4.637
  669W        W67078  28.897   5.286  10.998
  670W        W67079   5.255  20.458   3.600
  671W        W67080  39.827   3.920  11.461
  672W        W67081  10.684  22.731  11.811
  673W        W67082  35.346  25.581   0.483
  674W        W67083  17.303  16.796   1.988
  675W        W67084  22.963  39.738  11.583
  676W        W67085   2.826   8.652   3.310
  677W        W67086  19.525   6.625  14.456
  678W        W67087  39.335  41.366  12.103
  679W        W67088   7.697   8.279  14.899
  680W        W67089  42.741   1.704   4.589
  681W        W67090  41.522   8.397  13.272
  682W        W67091  40.365   9.802   1.805
  683W        W67092   3.233   0.378  11.857
  684W        W67093  19.992   2.975  11.634
  685W        W67094  10.101  17.468   4.063
  686W        W67095  27.982  32.406   0.309
  687W        W67096  37.875   5.632   3.620
  688W        W67097  20.955   7.816   0.894
  689W        W67098  16.050  19.962  11.471
  690W        W67099  26.813  44.063   4.120
  691W        W67100   4.407  27.981  14.478
  692W        W67101   7.140  13.752   4.356
  693W        W67102  33.178  25.566  14.323
  694W        W67103   9.343  35.962   3.108
  695W        W67104  38.903  23.934  13.754
  696W        W67105  18.618  24.884  12.592
  697W        W67106   3.816   7.960  11.124
  698W        W67107   3.346   8.812   3.337
  699W        W67108   6.288  35.240  10.960
  700W        W67109  40.842  18.808   0.264
  701W        W67110  14.993  13.290   2.745
  702W        W67111  11.634  26.189  11.965
  703W        W67112   2.327  34.703  12.036
  704W        W67113  23.370  16.026   1.562
  705W        W67114  21.809  14.171   1.284
  706W        W67115  36.110  16.603  11.148
  707W        W67116  39.240  14.115   2.415
  708W        W67117  16.525  23.625   1.988
  709W        W67118   4.852  11.101  14.492
  710W        W67119   6.404  31.088   4.139
  711W        W67120   0.842   2.458   2.617
  712W        W67121   3.445  16.578  12.403
  713W        W67122  20.916  44.228   1.745
  714W        W67123  34.030   0.997   2.293
  715W        W67124  42.553   4.813  10.643
  716W        W67125   1.081  39.849  10.673
  717W        W67126   8.589  11.834   0.262
  718W        W67127  21.362  41.832   0.004
  719W        W67128  38.367  25.962   0.466
  720W        W67129  24.975  29.411  14.906
  721W        W67130  32.819  12.606  14.339
  722W        W67131  24.813  31.054   0.755
  723W        W67132  20.045  44.988  13.627
  724W        W67133  16.037  35.325   1.428
  725W        W67134  25.539   7.645   4.587
  726W        W67135   9.433  28.297  10.985
  727W        W67136  10.991  29.949   4.217
  728W        W67137  32.551  16.334  10.950
  729W        W67138  32.396  29.649  12.500
  730W        W67139   5.373   9.845   4.611
  731W        W67140   5.753  34.909   2.864
  732W        W67141  44.219  28.646   2.766
  733W        W67142  28.952  26.216   3.304
  734W        W67143  28.751  42.351  14.687
  735W        W67144  43.565  10.573  12.635
  736W        W67145  42.054  43.951  13.452
  737W        W67146  26.941  34.116  11.206
  738W        W67147  12.968  11.235   1.085
  739W        W67148  38.393  19.107  13.359
  740W        W67149  13.277   5.305  13.643
  741W        W67150  29.718  33.355   4.573
  742W        W67151  40.503   6.892   3.234
  743W        W67152  31.807  20.577  12.853
  744W        W67153  27.637  35.435  10.479
  745W        W67154   6.445  15.303   3.751
  746W        W67155  15.264   4.289   1.435
  747W        W67156  11.096  30.263   3.634
  748W        W67157   5.797   5.593  11.565
  749W        W67158  43.341  25.391   0.824
  750W        W67159  13.805  44.817  14.486
  751W        W67160  21.986  24.483  14.852
  752W        W67161  14.762  13.657   1.652
  753W        W67162  24.642  39.985  13.697
  754W        W67163   5.998   1.511  12.987
  755W        W67164  37.341  30.378   3.303
  756W        W67165  10.292  25.202  14.869
  757W        W67166   7.852   8.909  11.950
  758W        W67167  26.301   3.100  12.794
  759W        W67168  39.789   8.719  13.945
  760W        W67169  15.383  10.004  14.862
  761W        W67170  29.420  40.343  14.030
  762W        W67171  19.362  34.293   0.538
  763W        W67172   0.453  19.285  11.594
  764W        W67173  12.771   3.371  11.730
  765W        W67174  33.559   8.908   2.444
  766W        W67175  36.353   4.859   2.884
  767W        W67176  44.104  20.575   3.693
  768W        W67177  37.929  28.684   3.596
  769W        W67178  13.068  21.145  13.013
  770W        W67179  37.201  15.142   5.425
  771W        W67180  44.071  43.470  13.971
  772W        W67181  11.617  37.331   0.363
  773W        W67182  34.999   6.755   2.308
  774W        W67183  11.133   0.218   1.776
  775W        W67184  17.276   1.474   1.854
  776W        W67185   9.580  13.023   0.930
  777W        W67186  18.632  18.665   2.706
  778W        W67187   1.072   0.524   2.818
  779W        W67188  22.992  14.208  10.431
  780W        W67189  15.085  19.246   5.072
  781W        W67190  26.433   7.281  13.092
  782W        W67191   1.101  14.088   2.675
  783W        W67192  40.961  17.019  13.962
  784W        W67193   7.135  40.523   4.589
  785W        W67194  31.786   0.965   0.752
  786W        W67195  25.132  13.221   0.204
  787W        W67196  16.504  18.697   1.948
  788W        W67197   8.541  32.234   4.465
  789W        W67198  17.228  35.149  13.277
  790W        W67199  30.524  33.521  12.976
  791W        W67200  29.659   7.532  12.871
  792W        W67201  22.626  32.364   0.861
  793W        W67202  41.323   5.367  10.718
  794W        W67203   5.377  36.167   4.753
  795W        W67204  11.122  41.945   2.713
  796W        W67205   1.472  11.320   2.722
  797W        W67206  14.001  35.568   4.415
  798W        W67207  32.730   3.900   4.397
  799W        W67208  31.663  17.352   2.311
  800W        W67209   2.027  25.933  13.348
  801W        W67210  29.202  32.482   2.413
  802W        W67211  33.553  20.616  11.551
  803W        W67212  15.795   6.886  13.502
  804W        W67213  39.006  26.885   4.582
  805W        W67214   3.798  41.464  13.046
  806W        W67215   7.848  22.062  13.050
  807W        W67216  21.044  18.120   3.673
  808W        W67217  33.347  39.974  10.392
  809W        W67218  40.554  10.191  12.456
  810W        W67219  27.899  26.902  14.081
  811W        W67220  34.884  15.574   2.720
  812W        W67221  20.357  20.043   3.716
  813W        W67222  27.086   2.745   0.247
  814W        W67223  23.151  36.402  11.248
  815W        W67224   6.008  30.040  11.166
  816W        W67225  23.231  43.547   1.722
  817W        W67226  14.341  42.083   1.976
  818W        W67227  37.085  32.577  14.395
  819W        W67228   2.513   9.940  13.919
  820W        W67229  21.028  36.603  11.485
  821W        W67230  16.326  15.622   4.656
  822W        W67231  25.588  16.838  13.396
  823W        W67232  44.446  29.497  11.865
  824W        W67233  43.003  15.670   0.026
  825W        W67234  38.294  32.919   4.183
  826W        W67235  28.674  37.880  10.952
  827W        W67236  30.944   1.462   3.642
  828W        W67237   9.668  42.446   2.816
  829W        W67238  18.300  43.940  14.863
  830W        W67239  16.007   1.410  10.662
  831W        W67240  27.077   1.756   4.277
  832W        W67241  25.310   8.901   0.930
  833W        W67242  15.733   7.614  11.737
  834W        W67243  38.539  13.361   3.718
  835W        W67244  21.305  37.078   2.815
  836W        W67245  30.781  17.141   3.101
  837W        W67246  24.203  10.060  10.319
  838W        W67247   7.431  24.541  14.748
  839W        W67248  19.313  27.938   4.568
  840W        W67249  21.067  36.004  14.881
  841W        W67250  19.469   5.809   2.379
  842W        W67251  20.596  37.139   1.991
  843W        W67252  44.901  17.814  14.340
  844W        W67253  20.045  21.035  11.429
  845W        W67254  11.317  36.988   1.652
  846W        W67255  30.823  17.026  11.955
  847W        W67256  44.703  36.153   4.567
  848W        W67257  34.127  28.005   0.703
  849W        W67258   5.159  35.442   2.099
  850W        W67259   8.739  12.248   4.672
  851W        W67260  21.718  36.044   4.591
  852W        W67261  23.534   8.790   3.701
  853W        W67262   3.943  27.250  12.596
  854W        W67263  26.042  14.846  12.401
  855W        W67264  43.857  15.306  11.814
  856W        W67265  32.094  27.169  13.992
  857W        W67266  33.069  17.252   4.573
  858W        W67267   2.945   8.157   3.157
  859W        W67268   3.177  37.828  10.669
  860W        W67269  11.913   3.909   2.615
  861W        W67270  30.040   5.283  13.526
  862W        W67271  30.958  23.907  13.813
  863W        W67272   2.942  27.616  13.412
  864W        W67273  30.516  44.263  14.268
  865W        W67274  26.711  14.770  13.480
  866W        W67275  13.670  31.615  12.176
  867W        W67276   8.787  34.167  11.639
  868W        W67277  41.348  27.717  10.962
  869W        W67278  24.658   9.684   3.116
  870W        W67279  30.650  25.459  11.231
  871W        W67280  21.784  15.828   3.267
  872W        W67281  13.220  23.676  10.976
  873W        W67282  31.727  31.026  12.826
  874W        W67283   3.829  17.382   0.511
  875W        W67284  17.542   4.064   4.130
  876W        W67285  32.354  28.336   1.276
  877W        W67286   7.593  10.127   0.276
  878W        W67287  24.591   3.518  14.145
  879W        W67288  39.359  18.604   1.404
  880W        W67289   9.970  42.594   1.832
  881W        W67290   5.213  42.308  12.601
  882W        W67291  11.862  40.755   5.317
  883W        W67292  25.079  25.221  11.190
  884W        W67293  29.731  21.100   5.003
  885W        W67294  32.872   9.673   2.309
  886W        W67295  37.456  14.169   1.361
  887W        W67296  12.233  21.577   1.039
  888W        W67297  38.062  38.844   3.583
  889W        W67298  11.935  42.741  12.126
  890W        W67299  42.780   0.657   4.982
  891W        W67300  40.899  31.468   3.590
  892W        W67301  17.668  24.048  12.537
  893W        W67302  29.224  38.670  13.346
  894W        W67303  40.945   5.445  14.306
  895W        W67304  14.923   6.692  13.487
  896W        W67305  37.874  41.180  10.890
  897W        W67306  13.220  28.567   2.503
  898W        W67307   3.775   1.829   1.023
  899W        W67308  10.192  20.674   1.934
  900W        W67309  35.434  11.299   2.542
  901W        W67310  31.394   2.945   3.550
  902W        W67311  40.497  20.690  14.924
  903W        W67312   5.424  38.507  11.072
  904W        W67313  28.154  37.347   3.587
  905W        W67314  26.727   9.287  13.723
  906W        W67315  33.132   0.366  10.275
  907W        W67316  16.421  31.110  13.853
  908W        W67317  25.981  32.865   3.296
  909W        W67318  17.656  11.236   3.338
  910W        W67319  27.113  36.541  13.626
  911W        W67320  39.942  19.302   1.286
  912W        W67321  25.067  29.580  10.725
  913W        W67322  26.391  34.098  12.083
  914W        W67323  43.147  19.623   3.148
  915W        W67324  14.229  28.546  14.295
  916W        W67325   8.261  15.708  11.893
  917W        W67326  24.057  22.840  13.869
  918W        W67327   7.880   0.410   4.878
  919W        W67328  18.019  10.504   2.730
  920W        W67329  13.731  13.764  10.670
  921W        W67330   1.548   4.197  13.472
  922W        W67331  40.507   3.680  13.383
  923W        W67332  42.435  17.233  13.822
  924W        W67333  28.543  21.948   4.750
  925W        W67334   6.460  32.391   5.299
  926W        W67335  31.841  34.389   2.371
  927W        W67336  11.145  37.734   5.053
  928W        W67337   3.878  17.971  13.003
  929W        W67338  32.998  19.538   0.243
  930W        W67339   3.787   3.386   3.766
  931W        W67340   6.671   2.361   2.954
  932W        W67341  17.623  17.999   1.332
  933W        W67342  42.938  32.925  13.951
  934W        W67343  12.576   6.684   3.271
  935W        W67344  42.897  11.104   0.463
  936W        W67345  39.103  27.271   3.742
  937W        W67346  23.175  24.003  13.059
  938W        W67347   6.721  30.437   4.271
  939W        W67348   4.243  32.160   3.290
  940W        W67349   2.984  23.123  13.946
  941W        W67350   9.472  14.590   2.904
  942W        W67351  14.822  17.909   0.242
  943W        W67352  22.689  21.024  14.764
  944W        W67353  24.614   0.527   4.096
  945W        W67354  16.462  11.990  13.380
  946W        W67355  24.095  41.566   1.007
  947W        W67356  10.766  44.666  12.582
  948W        W67357   5.428  36.491   2.637
  949W        W67358  23.246   2.451   4.042
  950W        W67359  11.880   5.335   2.659
  951W        W67360  20.554  13.156   2.773
  952W        W67361  29.651  11.879  13.499
  953W        W67362  17.990  10.267   4.641
  954W        W67363   0.228  22.505  10.570
  955W        W67364  30.754   1.621  10.659
  956W        W67365  36.773  28.241   3.622
  957W        W67366  39.524  20.953  11.544
  958W        W67367  28.528  37.841  14.825
  959W        W67368  19.153  35.932  13.435
  960W        W67369  16.983  28.457   0.803
  961W        W67370  26.202  34.942   0.469
  962W        W67371  38.217   6.111   1.833
  963W        W67372  36.261  37.942  11.754
  964W        W67373  38.918  40.300   4.183
  965W        W67374  23.517  40.924   1.415
  966W        W67375   0.249  22.918  11.789
  967W        W67376  34.821  24.998   0.755
  968W        W67377  24.782   2.761   0.302
  969W        W67378   0.357  14.225  13.593
  970W        W67379  39.094  26.579  12.975
  971W        W67380   9.766  29.330  14.200
  972W        W67381  20.520  37.206   2.517
  973W        W67382   5.643  34.530   2.059
  974W        W67383  28.595   5.724  12.475
  975W        W67384  35.983   7.617  14.467
  976W        W67385  22.442  11.137  14.310
  977W        W67386  14.783  36.017   2.322
  978W        W67387  37.102   2.204   2.888
  979W        W67388  15.433  29.599  11.214
  980W        W67389  44.264  18.565  14.981
  981W        W67390  25.987  40.612   4.066
  982W        W67391  34.556  36.433   3.345
  983W        W67392  34.569  28.999   1.434
  984W        W67393  34.767  39.375  13.844
  985W        W67394  12.745  36.051   3.191
  986W        W67395  44.344  15.006   0.348
  987W        W67396   1.036   3.146   0.394
  988W        W67397  41.276  27.462  11.377
  989W        W67398  38.305  42.260   1.319
  990W        W67399  31.140  21.654   3.154
  991W        W67400   7.621  42.514  14.406
  992W        W67401  44.132  35.317   2.643
  993W        W67402  36.580   2.997   0.553
  994W        W67403  14.606  17.449   4.344
  995W        W67404  42.492   4.762  14.968
  996W        W67405  31.934  17.005   1.344
  997W        W67406  18.812  31.992   1.385
  998W        W67407  17.663  16.983   1.272
  999W        W67408   1.539  24.188   0.234
 1000W        W67409  11.715   0.238   1.126
 1001W        W67410  30.738  20.714   0.811
 1002W        W67411   0.444   2.268  11.649
 1003W        W67412  28.725  43.075   3.227
 1004W        W67413  10.616   9.926   3.187
 1005W        W67414  43.914   2.782   3.656
 1006W        W67415   2.503  11.805   4.324
 1007W        W67416  12.435  31.741  13.452
 1008W        W67417  15.692   1.222   3.291
 1009W        W67418   2.749  33.374   1.350
 1010W        W67419  44.805  20.307   4.776
 1011W        W67420  27.634  38.872   2.720
 1012W        W67421  29.311  38.580  10.717
 1013W        W67422  33.040  43.537   3.164
 1014W        W67423   6.231   2.461   0.558
 1015W        W67424  14.020   1.192   3.093
 1016W        W67425  28.985   7.798  14.058
 1017W        W67426  21.208  10.054   0.936
 1018W        W67427  15.272  24.156   0.848
 1019W        W67428  41.522  25.568   0.981
 1020W        W67429  26.509   3.989  14.742
 1021W        W67430  28.101  18.774  10.589
 1022W        W67431  15.883  29.866  12.878
 1023W        W67432  31.167  44.349  12.523
 1024W        W67433  32.601  11.798  12.492
 1025W        W67434  41.858  25.692   3.139
 1026W        W67435  21.103  31.611   4.538
 1027W        W67436  44.792  34.297  14.281
 1028W        W67437   4.868  30.490  14.252
 1029W        W67438   0.855  34.917  10.802
 1030W        W67439   7.973  38.253   1.815
 1031W        W67440  37.514  12.019  11.389
 1032W        W67441   5.635   1.284   2.216
 1033W        W67442   0.782  38.015   4.571
 1034W        W67443  32.240  43.349   1.173
 1035W        W67444  35.653  41.818   5.076
 1036W        W67445  22.850  26.617   0.839
 1037W        W67446  41.323  28.729  10.968
 1038W        W67447  39.972   8.921  11.547
 1039W        W67448  14.657   8.595  12.127
 1040W        W67449   2.760  31.447  11.186
 1041W        W67450   9.601  15.126   2.895
 1042W        W67451  29.088  20.736  11.896
 1043W        W67452  34.869  19.249   0.423
 1044W        W67453  10.715  30.022  13.593
 1045W        W67454   7.101  29.936  12.350
 1046W        W67455   6.420  32.456  10.767
 1047W        W67456  21.771  40.507  14.253
 1048W        W67457  18.273  23.961  13.205
 1049W        W67458  31.325  29.072  13.404
 1050W        W67459  27.033  21.931  14.431
 1051W        W67460   0.908  26.484  13.320
 1052W        W67461  23.165   7.556  10.589
 1053W        W67462  37.206   7.763  13.349
 1054W        W67463  33.043  41.295  12.132
 1055W        W67464  29.086  25.422   2.380
 1056W        W67465  23.614  25.392  11.451
 1057W        W67466   0.430  26.730   3.246
 1058W        W67467  22.037  31.933   3.336
 1059W        W67468  14.464  29.939   3.175
 1060W        W67469   9.331  23.973   4.791
 1061W        W67470  11.834  36.482   4.693
 1062W        W67471   0.718  34.458  10.555
 1063W        W67472  27.126  41.025   1.361
 1064W        W67473  44.951  20.435  14.056
 1065W        W67474  38.017   7.215   1.329
 1066W        W67475  38.014  21.446  10.578
 1067W        W67476  35.470  12.076  14.487
 1068W        W67477  17.660  30.693   3.930
 1069W        W67478   7.254  44.945  12.070
 1070W        W67479  13.076   5.827  12.309
 1071W        W67480   5.151  37.367  13.834
 1072W        W67481  17.908  12.917   0.252
 1073W        W67482  19.164  39.008   3.702
 1074W        W67483   8.907  32.090   3.182
 1075W        W67484  43.425  37.967   2.869
 1076W        W67485   7.819  22.608  10.716
 1077W        W67486  23.274  44.253   0.709
 1078W        W67487  33.299  31.134  11.144
 1079W        W67488  19.114  10.710  11.914
 1080W        W67489  30.480  29.654   1.926
 1081W        W67490  32.128  28.454  13.482
 1082W        W67491   0.392  25.265   2.411
 1083W        W67492  25.091  42.526   0.579
 1084W        W67493  31.883  25.402  12.909
 1085W        W67494  28.176  15.114   1.867
 1086W        W67495  38.435  40.837   2.106
 1087W        W67496  28.365   0.225  11.570
 1088W        W67497  33.138  28.993   1.256
 1089W        W67498  17.113  33.897  14.841
 1090W        W67499  16.207   6.773   3.654
 1091W        W67500   3.802   2.720  13.561
 1092W        W67501  35.108  22.912   4.054
 1093W        W67502   5.206  10.945  14.889
 1094W        W67503  18.787  42.739   4.694
 1095W        W67504  40.098  42.579   1.461
 1096W        W67505   0.329  13.637  13.426
 1097W        W67506  20.185   8.280  11.523
 1098W        W67507  26.678  36.954   3.266
 1099W        W67508  30.290   4.960   3.763
 1100W        W67509  33.355  20.271   0.727
 1101W        W67510  34.505  42.434   3.141
 1102W        W67511  34.868   1.998  13.536
 1103W        W67512   1.441  14.838  14.899
 1104W        W67513  31.555  31.826  13.520
 1105W        W67514  13.842  12.801   1.687
 1106W        W67515  38.466  28.875   0.929
 1107W        W67516  28.847  41.567  12.036
 1108W        W67517  43.307  13.948  11.188
 1109W        W67518  24.085  23.130  14.304
 1110W        W67519   1.784  31.068   0.522
 1111W        W67520  19.832  29.969  14.351
 1112W        W67521  10.294   5.644  14.771
 1113W        W67522   7.869   5.651  14.291
 1114W        W67523  19.166  23.978   3.987
 1115W        W67524   9.096  12.674  13.460
 1116W        W67525  15.027  42.516   2.330
 1117W        W67526   4.872  22.148  10.896
 1118W        W67527   1.946  36.033   4.601
 1119W        W67528  21.699  36.388  13.092
 1120W        W67529  40.774  34.578  10.702
 1121W        W67530  37.502  21.413   4.612
 1122W        W67531   1.750   0.514  14.915
 1123W        W67532  13.590  40.598   1.136
 1124W        W67533   2.926  32.853   4.214
 1125W        W67534   3.263  20.338  13.115
 1126W        W67535  28.594  19.661   1.793
 1127W        W67536  16.359  42.452  13.608
 1128W        W67537  43.043  29.800  13.916
 1129W        W67538  30.525   4.367  14.338
 1130W        W67539   6.692   9.235   4.752
 1131W        W67540  14.540   1.422  13.264
 1132W        W67541   3.924  15.463  13.540
 1133W        W67542  15.662  33.153  14.429
 1134W        W67543  36.318  18.149   1.988
 1135W        W67544   6.403  34.948   2.402
 1136W        W67545  17.680   9.895   1.940
 1137W        W67546  31.750  39.315   0.732
 1138W        W67547  10.568  26.610   1.263
 1139W        W67548  43.392  29.043  14.556
 1140W        W67549  25.770  15.436  12.003
 1141W        W67550  31.904  42.871  14.032
 1142W        W67551  13.156   0.368  13.861
 1143W        W67552   5.468   4.304  13.850
 1144W        W67553  30.921  21.338   2.776
 1145W        W67554  29.329  34.027   4.429
 1146W        W67555   6.712  25.516   2.703
 1147W        W67556   2.454   9.117   2.173
 1148W        W67557   1.543  40.388   2.814
 1149W        W67558   5.473  38.866   0.392
 1150W        W67559  14.223  12.607   2.270
 1151W        W67560  24.317   4.370   2.367
 1152W        W67561   4.116   6.609   1.243
 1153W        W67562  18.295   1.962   1.298
 1154W        W67563  39.544  11.295  11.196
 1155W        W67564   9.349  23.207  10.669
 1156W        W67565  25.303  32.918  11.138
 1157W        W67566  16.606  13.900   3.330
 1158W        W67567  24.256  34.806   0.332
 1159W        W67568  27.188  23.998  13.325
 1160W        W67569  20.952  20.742  13.714
 1161W        W67570  34.829  10.244   4.134
 1162W        W67571  11.767  26.363   2.694
 1163W        W67572  19.164  42.092  13.788
 1164W        W67573  15.711  17.587  10.543
 1165W        W67574  21.541  26.185   4.046
 1166W        W67575  39.937   6.575  14.193
 1167W        W67576  15.350  25.193  11.576
 1168W        W67577  44.342  28.180  13.079
 1169W        W67578  12.434   3.262   3.186
 1170W        W67579  24.117  34.476   3.665
 1171W        W67580   8.213  23.932   1.520
 1172W        W67581   4.339  24.259  11.608
 1173W        W67582   1.314   5.368  12.592
 1174W        W67583  15.871   3.206   3.004
 1175W        W67584   1.242   8.119  11.941
 1176W        W67585  10.407  39.821  13.035
 1177W        W67586  24.384  11.387  10.829
 1178W        W67587   3.829  39.764  13.825
 1179W        W67588  28.094  22.286   2.312
 1180W        W67589  25.027  41.281   3.226
 1181W        W67590  38.364  44.637   3.577
 1182W        W67591  31.057  28.394  12.420
 1183W        W67592  43.828  36.283  12.512
 1184W        W67593  39.430   8.845  12.548
 1185W        W67594  38.767  34.608  10.445
 1186W        W67595  24.772  18.710  12.080
 1187W        W67596   3.290  31.381   4.803
 1188W        W67597  42.716   1.798   2.165
 1189W        W67598  40.575   7.744   1.773
 1190W        W67599   0.282  29.971  11.552
 1191W        W67600  18.584  25.354   4.385
 1192W        W67601  42.892  21.759   2.654
 1193W        W67602   8.377  40.285   1.689
 1194W        W67603   8.896  18.020  13.093
 1195W        W67604  15.752   7.147   4.796
 1196W        W67605  18.497  37.368  12.777
 1197W        W67606  19.777  14.269   2.143
 1198W        W67607  21.237  35.627   0.218
 1199W        W67608  13.718  29.116   0.274
 1200W        W67609  26.306  14.932   3.365
 1201W        W67610  41.601  18.298   2.524
 1202W        W67611  24.096   5.447   3.625
 1203W        W67612   8.330  43.166   1.008
 1204W        W67613  31.878  18.026   3.398
 1205W        W67614  21.186  29.414  11.458
 1206W        W67615   0.466  39.102  13.919
 1207W        W67616   1.823   4.429  10.707
 1208W        W67617   0.202  21.179   2.822
 1209W        W67618  40.650  24.925  14.568
 1210W        W67619  20.071  34.943  11.241
 1211W        W67620  40.879   7.850   3.715
 1212W        W67621  25.544  25.598  12.419
 1213W        W67622  14.053   1.715  14.626
 1214W        W67623   4.236  29.001   2.669
 1215W        W67624  27.260  16.272  11.483
 1216W        W67625  21.599  29.254  10.423
 1217W        W67626  23.945   3.153  11.244
 1218W        W67627  24.318  38.036  14.026
 1219W        W67628   0.776   3.527  14.367
 1220W        W67629  40.361   2.311  10.862
 1221W        W67630  12.156  25.947  10.501
 1222W        W67631  41.813   7.446  12.145
 1223W        W67632  39.419  39.864  11.437
 1224W        W67633  27.733  41.828   4.012
 1225W        W67634  24.757  31.516  10.694
 1226W        W67635  26.964   3.827   1.370
 1227W        W67636   4.675  10.470   4.968
 1228W        W67637  23.739  17.702   1.698
 1229W        W67638  44.715  30.167  14.375
 1230W        W67639  44.034   5.212  14.483
 1231W        W67640   2.413  32.873   0.667
 1232W        W67641  27.913  44.414   1.758
 1233W        W67642  23.236  20.629  10.469
 1234W        W67643  23.451  36.120  12.113
 1235W        W67644  29.942   1.367  14.041
 1236W        W67645   9.911  20.255  10.763
 1237W        W67646  12.275   4.000  14.754
 1238W        W67647  13.484   4.625   3.570
 1239W        W67648  24.988  18.686  13.513
 1240W        W67649  44.056  13.659   1.342
 1241W        W67650  42.590  31.581   4.657
 1242W        W67651  23.275   5.928  14.783
 1243W        W67652  15.139  36.931  11.577
 1244W        W67653  25.533  33.220   3.718
 1245W        W67654  44.686  31.914  14.368
 1246W        W67655   0.878  44.209  14.104
 1247W        W67656   5.143  35.674   2.555
 1248W        W67657  44.767  44.517  13.334
 1249W        W67658  13.358  38.951  12.972
 1250W        W67659  20.505  37.903  13.140
 1251W        W67660  40.351   7.374  11.771
 1252W        W67661  34.411   7.384   3.086
 1253W        W67662   0.919  26.093   3.711
 1254W        W67663  33.952  35.860   2.193
 1255W        W67664   2.034  20.267  11.504
 1256W        W67665  35.205  18.691  12.219
 1257W        W67666  38.594  19.965  12.566
 1258W        W67667   5.178  14.531   3.244
 1259W        W67668  21.434  25.479   1.801
 1260W        W67669  16.523   1.353   0.743
 1261W        W67670  12.311  41.049  12.495
 1262W        W67671  34.082  36.302   2.429
 1263W        W67672  31.046   4.526   3.184
 1264W        W67673   2.909  10.356  12.084
 1265W        W67674   2.815   3.720  11.179
 1266W        W67675  40.830  27.568   4.601
 1267W        W67676  14.096   0.984   2.621
 1268W        W67677   3.925  11.313   0.765
 1269W        W67678   9.260  33.541   1.250
 1270W        W67679  12.239  11.824   3.886
 1271W        W67680  30.690  40.953   1.636
 1272W        W67681   8.648   0.758  13.888
 1273W        W67682  41.568  23.642  14.923
 1274W        W67683  32.232   5.769  11.081
 1275W        W67684  37.765   6.804  10.810
 1276W        W67685  38.163  30.725   3.241
 1277W        W67686   4.289  22.257   0.422
 1278W        W67687   0.000  20.778   2.297
 1279W        W67688  35.382  17.679   2.757
 1280W        W67689  43.495  26.772   1.161
 1281W        W67690  38.432  44.752   1.305
 1282W        W67691   4.281  24.529  14.890
 1283W        W67692  38.634  38.504  14.998
 1284W        W67693   3.075  20.391  12.646
 1285W        W67694  22.637  41.527  13.039
 1286W        W67695  32.465  41.104  11.701
 1287W        W67696  25.256   0.533  11.007
 1288W        W67697   9.756  41.797  12.406
 1289W        W67698   9.426  28.148  12.390
 1290W        W67699  17.220   8.712   4.635
 1291W        W67700  26.456   3.638  11.370
 1292W        W67701  19.147  25.210   1.719
 1293W        W67702  19.241  16.544  12.414
 1294W        W67703   3.562  42.053  11.927
 1295W        W67704  41.243  30.666  11.684
 1296W        W67705   0.581  37.496  12.963
 1297W        W67706  41.667   5.401   4.829
 1298W        W67707  10.350  26.005   2.381
 1299W        W67708  39.387  19.994   3.321
 1300W        W67709   4.124  38.442   2.269
 1301W        W67710  37.289  20.029   2.818
 1302W        W67711  37.999  31.953  10.574
 1303W        W67712   1.398  27.213  13.199
 1304W        W67713  39.931  15.652   1.858
 1305W        W67714  12.492  44.633   4.949
 1306W        W67715  19.266  22.451   1.779
 1307W        W67716  18.895   1.095   4.745
 1308W        W67717  25.235  44.151  11.973
 1309W        W67718  14.410  19.741   5.332
 1310W        W67719   1.910  32.728   3.773
 1311W        W67720  38.570   5.895   1.492
 1312W        W67721  11.393  21.753   3.296
 1313W        W67722  36.453   4.037  12.602
 1314W        W67723  41.242  22.488  13.411
 1315W        W67724  30.156   4.366   4.153
 1316W        W67725  30.548  40.903   0.682
 1317W        W67726  11.376  19.686  10.424
 1318W        W67727  28.561  20.992   4.530
 1319W        W67728   6.662  20.505   3.789
 1320W        W67729  15.318   6.739   4.410
 1321W        W67730  25.090  41.419   0.683
 1322W        W67731  41.365  29.326  11.839
 1323W        W67732  18.059  20.939  12.959
 1324W        W67733  31.001  10.795  11.674
 1325W        W67734  43.343   9.068   3.990
 1326W        W67735  32.683  41.139   4.994
 1327W        W67736  21.560  34.158  14.303
 1328W        W67737  11.229  23.336  11.486
 1329W        W67738  30.515  29.151   3.197
 1330W        W67739  35.809  37.067  13.063
 1331W        W67740  12.668  22.618  14.899
 1332W        W67741  31.982  11.666  10.492
 1333W        W67742  23.319  30.597   4.409
 1334W        W67743  30.002  18.675  10.417
 1335W        W67744   8.089  28.057  11.896
 1336W        W67745   8.894   9.277  14.983
 1337W        W67746  17.501  21.991   0.281
 1338W        W67747   1.033  37.415   4.928
 1339W        W67748  17.906  12.243   4.646
 1340W        W67749  39.974  16.488  11.302
 1341W        W67750  30.081  17.680   0.725
 1342W        W67751  30.858  18.248  14.901
 1343W        W67752  24.699  39.238   2.042
 1344W        W67753  32.193  44.807  14.926
 1345W        W67754  20.322   7.628  13.929
 1346W        W67755  32.999  12.195   1.128
 1347W        W67756   8.176   5.279  11.165
 1348W        W67757   5.361  13.202   0.619
 1349W        W67758  16.221   7.884   1.518
 1350W        W67759   1.592  38.306   0.597
 1351W        W67760  25.005  11.841  12.685
 1352W        W67761  16.083  23.651  10.245
 1353W        W67762  10.604  41.443  10.956
 1354W        W67763  44.942  26.164   4.744
 1355W        W67764  31.995  11.773   2.282
 1356W        W67765  26.646  28.620   1.124
 1357W        W67766  14.826  42.069  14.337
 1358W        W67767  18.333  20.870   5.391
 1359W        W67768   4.285  30.606   3.183
 1360W        W67769  13.633  10.350  13.042
 1361W        W67770   7.044  12.637  13.220
 1362W        W67771  37.603  42.952  12.062
 1363W        W67772  42.922  23.086  13.542
 1364W        W67773  29.364  25.627  11.121
 1365W        W67774  18.562  28.105   1.702
 1366W        W67775   9.613  17.733   3.160
 1367W        W67776  37.320  10.544  12.980
 1368W        W67777  35.293  14.724  10.906
 1369W        W67778  26.568   4.818   0.994
 1370W        W67779  11.486   7.345  14.877
 1371W        W67780  28.481  31.660   0.450
 1372W        W67781  36.824  13.705  11.922
 1373W        W67782   4.593   1.436   3.066
 1374W        W67783  40.613  24.116  13.919
 1375W        W67784  34.620  43.101   3.621
 1376W        W67785  13.325  35.464  14.783
 1377W        W67786  19.247   7.652   3.142
 1378W        W67787  37.339  43.344   1.678
 1379W        W67788   7.355  32.618  11.637
 1380W        W67789  29.509  32.896  12.674
 1381W        W67790  36.665  42.031   1.736
 1382W        W67791  16.631  32.488   0.001
 1383W        W67792  34.939  23.703   3.714
 1384W        W67793   8.227   3.223   1.683
 1385W        W67794  32.006  19.623   0.216
 1386W        W67795  34.055  32.922   3.252
 1387W        W67796  26.400  44.803   1.742
 1388W        W67797  10.720  40.244   2.657
 1389W        W67798  26.172  13.274  13.354
 1390W        W67799  43.011  20.060  14.328
 1391W        W67800   9.109  40.094   0.305
 1392W        W67801  40.330  21.747   3.847
 1393W        W67802  42.216  17.585  13.195
 1394W        W67803  40.081   0.132   2.227
 1395W        W67804  42.984  13.197   4.022
 1396W        W67805   4.446  41.601   1.178
 1397W        W67806  20.758  20.992   5.143
 1398W        W67807  44.987  28.385  10.671
 1399W        W67808  44.519  14.972  11.951
 1400W        W67809  29.613   7.834   3.296
 1401W        W67810   5.965  43.275  11.188
 1402W        W67811  11.708   0.141  12.525
 1403W        W67812  43.833  35.571  14.391
 1404W        W67813  22.612  18.918  10.798
 1405W        W67814  28.053  31.056   3.902
 1406W        W67815  30.518  40.978  12.523
 1407W        W67816   1.837   3.851   4.406
 1408W        W67817  43.686   1.266   2.180
 1409W        W67818  43.752   5.413   2.731
 1410W        W67819  14.819   5.080   2.910
 1411W        W67820   6.050  28.667   1.798
 1412W        W67821  14.106   6.760  12.866
 1413W        W67822  42.927  43.781  13.812
 1414W        W67823  30.410  11.934   4.584
 1415W        W67824  13.421   3.549  12.013
 1416W        W67825  39.343  24.487  14.872
 1417W        W67826  37.381  26.598  11.555
 1418W        W67827   7.830   9.213  13.327
 1419W        W67828   1.706  19.876   4.187
 1420W        W67829  33.655  36.180   0.473
 1421W        W67830  42.278  27.279  13.035
 1422W        W67831  24.205  21.088   4.081
 1423W        W67832  28.827  12.219   9.665
 1424W        W67833  18.322   2.499   1.341
 1425W        W67834  42.444  35.796   1.890
 1426W        W67835  25.294  37.363   3.625
 1427W        W67836   0.251  12.714  14.057
 1428W        W67837  39.133   4.464  12.633
 1429W        W67838  13.046  15.609  12.910
 1430W        W67839  22.043   5.229  13.381
 1431W        W67840  26.090  26.954   0.431
 1432W        W67841  12.092  31.216   0.441
 1433W        W67842  37.799   8.037   4.103
 1434W        W67843  43.016  19.199  11.023
 1435W        W67844  29.314   1.918  12.564
 1436W        W67845  39.770  16.392  13.026
 1437W        W67846  18.647   8.207  10.696
 1438W        W67847   9.951  30.019  12.163
 1439W        W67848  15.769   3.421  10.565
 1440W        W67849  21.233  18.789   2.892
 1441W        W67850   8.900  19.535   3.729
 1442W        W67851  21.731  33.603   1.413
 1443W        W67852   0.482  19.509  12.881
 1444W        W67853  37.920  17.937   2.096
 1445W        W67854  41.753   0.762   4.128
 1446W        W67855  20.337   6.260   0.002
 1447W        W67856  13.079  24.103  14.229
 1448W        W67857  21.297  29.595   0.283
 1449W        W67858  40.396  25.748  14.817
 1450W        W67859   6.981  14.210   2.627
 1451W        W67860   7.111  12.035   2.589
 1452W        W67861  14.865  18.176  14.670
 1453W        W67862  34.765  32.007  14.255
 1454W        W67863  22.589  22.883  11.070
 1455W        W67864  30.706  25.074  11.852
 1456W        W67865   0.016  31.642  12.023
 1457W        W67866  14.100   1.948  12.965
 1458W        W67867   0.069  44.228  13.705
 1459W        W67868  39.457   5.005   3.157
 1460W        W67869  24.216   7.976  14.809
 1461W        W67870  44.855  18.518   4.122
 1462W        W67871  17.551   8.590  10.974
 1463W        W67872   7.180  11.506  11.148
 1464W        W67873  35.008   0.805   9.842
 1465W        W67874   4.899  16.551  11.303
 1466W        W67875  13.433   7.925   0.111
 1467W        W67876  36.653  28.403  13.576
 1468W        W67877   3.423  20.888  13.961
 1469W        W67878  37.296   5.906   2.235
 1470W        W67879  40.607  22.618  12.476
 1471W        W67880  21.959  13.533  10.712
 1472W        W67881  17.717   8.137  12.977
 1473W        W67882   6.265  10.227   0.757
 1474W        W67883  13.423  29.953  11.958
 1475W        W67884  19.041  21.305  11.516
 1476W        W67885  39.078  17.048  11.018
 1477W        W67886  34.383  27.032  14.464
 1478W        W67887   7.804   1.714   4.689
 1479W        W67888  27.304  37.277  12.389
 1480W        W67889  31.290   2.164   3.204
 1481W        W67890   4.863  21.525   0.439
 1482W        W67891  44.004  19.966   1.340
 1483W        W67892  36.664  40.906   4.702
 1484W        W67893  33.563   5.882   4.589
 1485W        W67894  14.741   9.590  11.034
 1486W        W67895  10.983   5.344   4.401
 1487W        W67896  39.360  21.247  10.113
 1488W        W67897  17.832  29.089  12.120
 1489W        W67898   3.650  12.567  14.389
 1490W        W67899   3.355  13.051   5.019
 1491W        W67900  15.821  26.047   2.466
 1492W        W67901  24.150   1.161  14.358
 1493W        W67902  20.050  30.625  13.811
 1494W        W67903  36.550  13.412  10.644
 1495W        W67904  37.385   9.491   3.474
 1496W        W67905  14.778  20.622   0.708
 1497W        W67906  11.653  35.896  10.748
 1498W        W67907   1.201  25.035  11.545
 1499W        W67908   0.991   0.200  11.268
 1500W        W67909  42.881  38.310   3.228
 1501W        W67910  27.450  28.806  12.753
 1502W        W67911  19.068   3.601   2.928
 1503W        W67912   7.053   0.939  11.756
 1504W        W67913   8.760  31.894  11.638
 1505W        W67914   1.261  41.709   2.273
 1506W        W67915  29.462   5.936   0.960
 1507W        W67916  24.905  44.837  12.305
 1508W        W67917  24.305  41.322  12.972
 1509W        W67918  23.758  14.164   2.191
 1510W        W67919  34.395  21.656  11.227
 1511W        W67920  37.506   1.664  10.715
 1512W        W67921  38.402  10.816  12.336
 1513W        W67922   7.282  16.170  11.148
 1514W        W67923  23.065  37.305   0.457
 1515W        W67924  14.385  10.245   3.616
 1516W        W67925  19.302  22.262   4.268
 1517W        W67926  33.961  23.576   3.212
 1518W        W67927   3.296  36.610  13.399
 1519W        W67928  16.014  18.645  10.320
 1520W        W67929  15.123  36.818  12.169
 1521W        W67930  37.789   5.916   2.382
 1522W        W67931  26.005  25.931   9.762
 1523W        W67932  12.096   8.699   4.458
 1524W        W67933  36.374  14.700  10.590
 1525W        W67934  12.851  42.872   4.095
 1526W        W67935  10.749  23.797   2.723
 1527W        W67936  44.376  14.987   3.605
 1528W        W67937  23.592  19.353   2.181
 1529W        W67938  26.604  39.875  13.288
 1530W        W67939   5.154  28.983  12.811
 1531W        W67940  19.569  18.321   0.903
 1532W        W67941  38.333   5.505   3.270
 1533W        W67942  38.514  20.936   9.702
 1534W        W67943  21.675  43.017   2.349
 1535W        W67944   7.933  42.106   2.302
 1536W        W67945  20.156  26.494  10.638
 1537W        W67946  27.950  42.328   1.968
 1538W        W67947  24.753  26.159   0.781
 1539W        W67948   1.928   0.218  13.131
 1540W        W67949  14.217  33.662  11.856
 1541W        W67950   8.548  25.582  12.552
 1542W        W67951   3.497  30.161   3.077
 1543W        W67952  35.345   2.371  10.474
 1544W        W67953  25.899  17.358   2.907
 1545W        W67954  27.540   2.827   4.064
 1546W        W67955  14.018  20.529   1.234
 1547W        W67956  10.679  18.039   3.257
 1548W        W67957  11.591  31.609   3.275
 1549W        W67958  44.929  30.627   0.938
 1550W        W67959  11.323  12.593   1.461
 1551W        W67960  25.547   6.352   4.143
 1552W        W67961  22.932  16.151   0.796
 1553W        W67962  32.449  20.652  11.050
 1554W        W67963   1.217  42.133  13.481
 1555W        W67964  25.088  40.477  13.363
 1556W        W67965  10.410  26.766   3.705
 1557W        W67966  28.608  39.210   0.530
 1558W        W67967  21.164  23.600  11.627
 1559W        W67968   7.309  31.279  12.088
 1560W        W67969  36.005  25.644   0.920
 1561W        W67970  16.084  20.005  10.729
 1562W        W67971  17.735  10.256  10.795
 1563W        W67972  42.663   3.954  11.179
 1564W        W67973  21.240  29.621  13.209
 1565W        W67974  35.693  16.823   2.757
 1566W        W67975   2.613  37.331  10.474
 1567W        W67976   2.488  22.203  12.131
 1568W        W67977   8.233  15.632   2.902
 1569W        W67978   4.585  40.273  10.970
 1570W        W67979  38.030  39.978   3.259
 1571W        W67980  27.605  40.611   1.514
 1572W        W67981   5.562  13.536   0.952
 1573W        W67982   5.759  44.479   0.801
 1574W        W67983   4.816  15.046  11.096
 1575W        W67984   9.677  21.192  11.431
 1576W        W67985  27.581  20.712   2.656
 1577W        W67986   4.560  20.488   2.675
 1578W        W67987   4.591  13.645   0.433
 1579W        W67988  14.861  19.128   1.893
 1580W        W67989  12.077  13.413  11.545
 1581W        W67990  28.593  37.428  14.316
 1582W        W67991  36.931   8.881  13.067
 1583W        W67992  22.156   8.013   3.295
 1584W        W67993  23.806  44.539   2.021
 1585W        W67994   5.396  16.537   4.032
 1586W        W67995  22.536   4.946  11.028
 1587W        W67996  42.456  40.240   0.096
 1588W        W67997  24.019  18.389  11.937
 1589W        W67998  26.635  19.067  12.961
 1590W        W67999  32.465   5.001  13.528
 1591W        W68000   4.162  39.347   0.432
 1592W        W68001  17.196   4.090   2.633
 1593W        W68002   0.505  29.157  12.587
 1594W        W68003  41.892   0.928  13.388
 1595W        W68004  33.810  40.378   0.250
 1596W        W68005  22.530  27.143  12.031
 1597W        W68006   5.915  23.125   4.052
 1598W        W68007  24.582   8.533   2.280
 1599W        W68008   0.366  29.902   1.156
 1600W        W68009  41.309   2.719   4.079
 1601W        W68010  17.866  21.263  14.799
 1602W        W68011  11.338   8.322  12.462
 1603W        W68012  37.364  28.657  13.803
 1604W        W68013  38.125  35.812   2.445
 1605W        W68014  23.306  16.834  14.935
 1606W        W68015   2.794  17.767   1.406
 1607W        W68016  26.912  38.869   1.431
 1608W        W68017  39.080  30.626   1.454
 1609W        W68018  37.000  11.340   1.376
 1610W        W68019  39.287  10.356  11.999
 1611W        W68020  11.531  40.158  11.623
 1612W        W68021  14.312  32.912   4.509
 1613W        W68022   1.694  31.634   4.579
 1614W        W68023  28.505  33.898  12.196
 1615W        W68024   8.407  11.310   2.657
 1616W        W68025  34.989  37.333   2.182
 1617W        W68026  37.446  10.616   2.489
 1618W        W68027   1.453  27.648  13.482
 1619W        W68028   0.804  26.418   4.126
 1620W        W68029  23.429  16.968  12.539
 1621W        W68030   7.732  31.182  11.793
 1622W        W68031  36.974  27.225   3.636
 1623W        W68032   6.733  23.713   9.911
 1624W        W68033  15.112  38.168  12.094
 1625W        W68034   0.240   5.352  10.770
 1626W        W68035  33.902  38.121   0.310
 1627W        W68036   6.673  19.165  11.536
 1628W        W68037  18.245  14.037   4.564
 1629W        W68038  41.926  25.086   1.622
 1630W        W68039   7.350  37.079  11.897
 1631W        W68040  24.165  19.644  13.223
 1632W        W68041  41.774  38.453  12.965
 1633W        W68042  40.596   1.500   4.857
 1634W        W68043  20.600  35.360   3.400
 1635W        W68044   4.053  13.214   2.692
 1636W        W68045  25.733  39.062   2.636
 1637W        W68046   9.858  28.881   4.920
 1638W        W68047  30.455  18.910   1.865
 1639W        W68048   9.221  27.462   2.723
 1640W        W68049  44.398  17.562  10.682
 1641W        W68050  24.646  24.319  10.474
 1642W        W68051  34.418  35.548   4.814
 1643W        W68052  34.956  39.529   2.742
 1644W        W68053   8.060   0.248  11.105
 1645W        W68054  28.940  34.906   3.614
 1646W        W68055  16.137  21.655   1.280
 1647W        W68056  17.094  36.835   2.352
 1648W        W68057  27.104  36.391  12.224
 1649W        W68058  25.060   6.957   2.799
 1650W        W68059  20.531  23.290   2.716
 1651W        W68060  39.816  10.666  13.726
 1652W        W68061  39.273  11.175  13.964
 1653W        W68062   4.864  32.465   3.298
 1654W        W68063  34.358  25.990  11.353
 1655W        W68064  20.895  14.293   4.632
 1656W        W68065  33.975  15.113   4.649
 1657W        W68066  35.461  16.782   2.301
 1658W        W68067  29.319  15.205  14.333
 1659W        W68068   0.350  36.628  11.634
 1660W        W68069  23.590  30.202   0.752
 1661W        W68070  25.730  11.981   3.104
 1662W        W68071  36.033  10.452  14.911
 1663W        W68072   9.854   1.322  12.866
 1664W        W68073  16.410   9.596   3.997
 1665W        W68074  23.880  14.262   1.206
 1666W        W68075   6.804  11.242   4.504
 1667W        W68076  20.823  15.514   3.031
 1668W        W68077  35.928  39.294  11.792
 1669W        W68078  20.387  28.615   4.424
 1670W        W68079  28.729  31.010  10.526
 1671W        W68080   3.185  36.657  14.264
 1672W        W68081  20.158  17.397   3.480
 1673W        W68082   0.912  39.401   4.189
 1674W        W68083  29.149  24.180  13.816
 1675W        W68084  43.465   6.765  14.474
 1676W        W68085  24.190  31.475   3.333
 1677W        W68086  14.666  30.989  14.297
 1678W        W68087  35.603  24.216  13.492
 1679W        W68088  12.300  31.056   4.537
 1680W        W68089  39.812  13.706   1.877
 1681W        W68090  32.094  15.646   2.196
 1682W        W68091   7.245  34.577   4.916
 1683W        W68092  10.678  30.441   3.199
 1684W        W68093   2.969  38.855  12.414
 1685W        W68094   9.218  32.826  13.147
 1686W        W68095   3.302  12.561   2.870
 1687W        W68096  34.161  24.743  12.461
 1688W        W68097  44.347  38.251  10.717
 1689W        W68098  28.125  25.494   3.724
 1690W        W68099  16.030  21.100  14.607
 1691W        W68100  17.186  15.949  13.917
 1692W        W68101  30.953  23.113   0.283
 1693W        W68102   7.301  30.121   0.972
 1694W        W68103  24.390  19.351  10.341
 1695W        W68104  29.990  21.572   0.681
 1696W        W68105  11.667   6.817  14.966
 1697W        W68106  40.946  15.268  12.036
 1698W        W68107  24.445  21.022  12.657
 1699W        W68108   4.178  32.354  13.863
 1700W        W68109   8.790  32.462  13.663
 1701W        W68110  10.575  16.508  14.842
 1702W        W68111  43.884  28.092  10.551
 1703W        W68112  15.333  21.703   2.275
 1704W        W68113  19.089   4.905   2.250
 1705W        W68114  19.654   9.842   4.651
 1706W        W68115  35.638  24.633  14.318
 1707W        W68116  36.050  41.823  14.876
 1708W        W68117  10.914  17.577   0.925
 1709W        W68118  35.905   4.871  14.165
 1710W        W68119   9.116   2.437   1.599
 1711W        W68120   5.697  22.733   0.262
 1712W        W68121  11.251  38.269   1.214
 1713W        W68122  37.304   4.461   1.362
 1714W        W68123   8.479  25.029  12.569
 1715W        W68124  35.361   6.033   4.746
 1716W        W68125  29.435  18.752   4.045
 1717W        W68126   9.315  34.838   0.886
 1718W        W68127   4.756  13.644  14.437
 1719W        W68128  31.322   0.560  11.703
 1720W        W68129   7.232  33.204   1.963
 1721W        W68130  12.097  12.878  11.554
 1722W        W68131  23.195  18.614   0.720
 1723W        W68132  29.111   9.799  13.114
 1724W        W68133  11.807  29.832   2.211
 1725W        W68134  31.529  19.567  12.163
 1726W        W68135  26.899   7.775   4.969
 1727W        W68136  19.013  33.621  11.502
 1728W        W68137  21.650  13.914   3.113
 1729W        W68138  13.729  40.121   3.520
 1730W        W68139   5.302   0.861   2.223
 1731W        W68140  36.567  31.344  13.457
 1732W        W68141  20.199  27.518   0.695
 1733W        W68142  35.466  34.062  11.714
 1734W        W68143  20.442  17.310  10.382
 1735W        W68144  44.238  22.944  14.915
 1736W        W68145  39.554  23.128   2.393
 1737W        W68146   1.930  14.814   4.556
 1738W        W68147   4.009  12.620  13.497
 1739W        W68148   3.014  40.429  11.175
 1740W        W68149  26.224  34.571  11.874
 1741W        W68150  34.361   2.225  14.367
 1742W        W68151   1.432  16.954   2.685
 1743W        W68152  36.112  40.442   2.549
 1744W        W68153  16.586  34.659  11.071
 1745W        W68154  35.108  36.030   1.887
 1746W        W68155  42.174  33.683  14.416
 1747W        W68156  32.585  33.819  12.530
 1748W        W68157  13.646  30.654  12.468
 1749W        W68158   4.014  12.229  11.537
 1750W        W68159  42.172   6.653  10.714
 1751W        W68160  35.194  41.956   1.745
 1752W        W68161  16.864  27.724  11.104
 1753W        W68162  12.277   2.215   2.868
 1754W        W68163  22.552  11.848  12.617
 1755W        W68164   9.698  36.253   2.620
 1756W        W68165   8.297   7.932   1.215
 1757W        W68166  20.843  24.973   0.453
 1758W        W68167  21.264   2.230  12.291
 1759W        W68168  12.927  42.537   1.406
 1760W        W68169   8.639  27.939  13.077
 1761W        W68170  44.294  27.999   1.060
 1762W        W68171  28.730  24.567  12.032
 1763W        W68172  38.258  31.767   3.234
 1764W        W68173   9.944   2.601   3.615
 1765W        W68174  21.623  31.637  13.250
 1766W        W68175  13.669  15.066   0.971
 1767W        W68176   0.978  31.168   2.752
 1768W        W68177  34.003  24.540   2.087
 1769W        W68178  23.924   8.890  10.261
 1770W        W68179   1.457   2.303   4.429
 1771W        W68180   9.311   3.531  12.491
 1772W        W68181  27.365   3.361   0.804
 1773W        W68182  21.995  23.638   1.011
 1774W        W68183  29.586  22.143   0.663
 1775W        W68184   9.755   1.053   1.859
 1776W        W68185  44.936  42.981   1.773
 1777W        W68186   1.086  42.014   1.413
 1778W        W68187  28.467  22.024   0.003
 1779W        W68188  21.480  13.374   2.365
 1780W        W68189  41.279  33.651   3.177
 1781W        W68190  16.531  26.552  14.088
 1782W        W68191   1.061  15.057  11.203
 1783W        W68192   7.902   4.806  12.669
 1784W        W68193  29.128  43.788  14.499
 1785W        W68194  33.042  37.865   3.325
 1786W        W68195  23.978  36.372   4.306
 1787W        W68196  28.063  19.096   4.427
 1788W        W68197   4.418  36.056   4.560
 1789W        W68198  42.691  32.009  10.972
 1790W        W68199  24.347   7.697   4.503
 1791W        W68200  38.377   9.873   0.697
 1792W        W68201   4.036  18.850  10.354
 1793W        W68202   8.851  34.146   0.571
 1794W        W68203  34.580  27.759   0.693
 1795W        W68204  43.338  43.338   0.897
 1796W        W68205  14.625   5.726   0.759
 1797W        W68206  34.966  20.372  14.808
 1798W        W68207  18.212   8.266  12.878
 1799W        W68208  20.019  16.510  14.486
 1800W        W68209  14.613  13.627  14.680
 1801W        W68210  18.203  38.566   1.470
 1802W        W68211   6.772  15.301   3.293
 1803W        W68212  16.825  36.816  12.890
 1804W        W68213  41.535  36.920  12.526
 1805W        W68214   8.842   3.495   3.736
 1806W        W68215  12.061  11.451   1.751
 1807W        W68216  17.096  44.678   0.745
 1808W        W68217  19.106   4.527  11.930
 1809W        W68218  14.457   6.429  14.064
 1810W        W68219  20.330  21.240  14.009
 1811W        W68220   5.788  15.873  12.056
 1812W        W68221  42.894  26.471  13.444
 1813W        W68222  29.983  35.483  13.936
 1814W        W68223  19.834  28.949   0.693
 1815W        W68224  33.576  31.816  12.917
 1816W        W68225   3.775   6.315  12.929
 1817W        W68226  39.368  41.284   4.151
 1818W        W68227  31.383   6.402  11.655
 1819W        W68228  22.510  37.503   1.488
 1820W        W68229  27.937  19.793   0.251
 1821W        W68230  28.556  36.562   1.457
 1822W        W68231  24.734  44.868  14.272
 1823W        W68232  20.760   5.658   3.723
 1824W        W68233  26.188   2.899   0.067
 1825W        W68234  34.339  40.814  14.941
 1826W        W68235  30.635  21.000  11.097
 1827W        W68236  34.966  39.686   4.598
 1828W        W68237  25.651  38.811  11.092
 1829W        W68238  23.256  17.061  11.683
 1830W        W68239   2.135  44.228   1.090
 1831W        W68240  18.686  10.914   4.573
 1832W        W68241  21.560  36.343  14.888
 1833W        W68242  13.034  25.237  14.708
 1834W        W68243  32.062   8.196   1.843
 1835W        W68244  34.217  13.214   1.384
 1836W        W68245  28.885  43.278   0.816
 1837W        W68246  24.956   5.553   0.059
 1838W        W68247  11.949  31.089   4.136
 1839W        W68248  33.933  24.024  12.938
 1840W        W68249   6.519  12.279  12.071
 1841W        W68250  44.246  40.180   4.984
 1842W        W68251  30.130   5.801  13.598
 1843W        W68252  29.556  42.930  10.334
 1844W        W68253   8.164   4.744  13.093
 1845W        W68254  40.964  38.726  12.324
 1846W        W68255  40.000   0.606  13.800
 1847W        W68256  10.330  24.249  10.980
 1848W        W68257  23.996  19.652  12.741
 1849W        W68258  44.058   8.923   0.921
 1850W        W68259  25.678  36.966   3.623
 1851W        W68260  14.953  20.753   2.596
 1852W        W68261   1.728  24.133   4.421
 1853W        W68262  11.450  44.958   1.456
 1854W        W68263  21.056  44.515   3.107
 1855W        W68264   5.447  15.757  13.518
 1856W        W68265  21.742  42.965  12.125
 1857W        W68266  11.178  30.892  11.134
 1858W        W68267  35.969   6.197  12.844
 1859W        W68268   5.276  25.547   3.226
 1860W        W68269  31.389  16.510   3.565
 1861W        W68270  44.338  33.338   4.553
 1862W        W68271  31.398  17.784   3.348
 1863W        W68272  16.075  17.040  13.635
 1864W        W68273  44.329  29.082  14.100
 1865W        W68274  39.624  27.996   3.325
 1866W        W68275  14.888  34.715  14.916
 1867W        W68276  39.818   0.258  11.093
 1868W        W68277  24.938  21.690   0.337
 1869W        W68278   5.321  19.306  12.107
 1870W        W68279  33.955  30.423   1.306
 1871W        W68280   8.868   7.722   1.034
 1872W        W68281  15.616  39.649  11.269
 1873W        W68282  18.946   4.271   3.118
 1874W        W68283  42.903  34.175   4.760
 1875W        W68284  40.119  10.370  11.692
 1876W        W68285  37.859   2.183   3.701
 1877W        W68286  20.776  43.103   1.027
 1878W        W68287  11.619  41.554  14.559
 1879W        W68288  22.895   7.534   2.757
 1880W        W68289  36.439  38.057  11.286
 1881W        W68290  40.901  16.172  10.327
 1882W        W68291  19.144  18.631   3.903
 1883W        W68292  24.613  15.176   3.758
 1884W        W68293  15.607  22.949  12.482
 1885W        W68294  30.510  20.162   2.730
 1886W        W68295  28.140   9.948  12.146
 1887W        W68296  34.838  35.104  11.974
 1888W        W68297  37.169  22.088   2.810
 1889W        W68298  21.575  21.196   1.552
 1890W        W68299  26.541  42.411  14.512
 1891W        W68300  17.307   2.304  13.429
 1892W        W68301  23.583  40.370   3.637
 1893W        W68302  25.434   7.790  11.983
 1894W        W68303  14.100  36.320  14.051
 1895W        W68304  12.695  21.048  14.424
 1896W        W68305  40.088   4.353  11.437
 1897W        W68306  40.979  13.645   1.415
 1898W        W68307   6.200  26.896   4.074
 1899W        W68308  13.325  36.456  10.476
 1900W        W68309  25.498  44.729   1.737
 1901W        W68310  34.809   1.421   4.138
 1902W        W68311  18.673  44.695   0.456
 1903W        W68312   0.125  22.062   4.086
 1904W        W68313  36.410  10.831  11.092
 1905W        W68314  40.974  25.965   1.784
 1906W        W68315  14.178  12.652  12.326
 1907W        W68316  20.514  25.144   1.967
 1908W        W68317  42.872  17.406   3.430
 1909W        W68318  37.512  13.791  11.557
 1910W        W68319   7.795  33.456   4.471
 1911W        W68320  32.528  33.132   4.115
 1912W        W68321   3.074  41.460   4.875
 1913W        W68322  12.113   6.838   4.138
 1914W        W68323  34.955  17.296   3.744
 1915W        W68324  41.279  44.137  10.683
 1916W        W68325   0.759  43.744  14.259
 1917W        W68326   9.077   5.828   1.814
 1918W        W68327  13.841  40.847  11.707
 1919W        W68328  21.152  34.838   2.895
 1920W        W68329  33.536   7.621   3.209
 1921W        W68330  13.586   8.315   4.398
 1922W        W68331  29.843  21.699  14.344
 1923W        W68332   1.782  43.813  14.347
 1924W        W68333  17.359  27.097  11.043
 1925W        W68334  39.118  43.975  14.996
 1926W        W68335  18.352  14.256  14.974
 1927W        W68336  43.412  18.508   2.698
 1928W        W68337  16.318  44.919   0.026
 1929W        W68338  42.786  28.516   1.035
 1930W        W68339   5.341   1.154  11.932
 1931W        W68340  33.468  40.979  13.079
 1932W        W68341  16.026  19.154   2.216
 1933W        W68342   1.685  26.462  12.503
 1934W        W68343  19.001  20.476   0.248
 1935W        W68344  23.092  23.266  13.922
 1936W        W68345  17.787  37.617   1.792
 1937W        W68346  39.685  22.204  14.444
 1938W        W68347   3.480   5.775   1.125
 1939W        W68348  42.545  39.046  11.448
 1940W        W68349  26.613   0.288   0.537
 1941W        W68350   7.291  33.881   0.436
 1942W        W68351   4.396   7.189  11.259
 1943W        W68352  41.398   5.193  14.950
 1944W        W68353   1.850  19.267  12.212
 1945W        W68354  20.258  26.630   2.872
 1946W        W68355   5.147  12.221   4.095
 1947W        W68356  10.550  33.417   3.982
 1948W        W68357  43.786  19.595   4.458
 1949W        W68358  13.151  10.371  12.568
 1950W        W68359  24.720  36.578  13.654
 1951W        W68360  29.612  29.360   2.462
 1952W        W68361  43.300  28.379  12.217
 1953W        W68362  39.406  13.515  14.359
 1954W        W68363  28.530  15.882  11.059
 1955W        W68364  18.589   2.751  12.974
 1956W        W68365  25.035  13.288  14.192
 1957W        W68366  21.318  28.219  11.092
 1958W        W68367  20.004  16.209  11.327
 1959W        W68368   3.743  21.675  11.454
 1960W        W68369  38.266  21.447   9.519
 1961W        W68370  27.424   4.246  14.847
 1962W        W68371  15.120   2.712  12.488
 1963W        W68372  22.499  44.907  12.377
 1964W        W68373   7.339  26.986  13.371
 1965W        W68374  25.452  37.356   1.117
 1966W        W68375  11.808  41.412  13.682
 1967W        W68376  44.469  22.678  13.995
 1968W        W68377  31.117  42.557   2.691
 1969W        W68378  12.124  36.812   3.088
 1970W        W68379  32.209   3.500  13.424
 1971W        W68380  34.388  17.205   2.594
 1972W        W68381  18.988  44.919   1.934
 1973W        W68382  32.734  31.697   3.574
 1974W        W68383  16.514  28.005   4.917
 1975W        W68384  43.592   0.854  12.593
 1976W        W68385  41.954  42.677   4.053
 1977W        W68386  32.683  14.737  13.014
 1978W        W68387  19.480  14.815  14.328
 1979W        W68388   5.351  40.509  14.889
 1980W        W68389  11.455  25.440  14.317
 1981W        W68390  10.336  42.813   0.979
 1982W        W68391  38.496  24.619  12.605
 1983W        W68392  11.646  17.000  11.015
 1984W        W68393  39.171  37.825   3.924
 1985W        W68394  36.286  35.129  13.385
 1986W        W68395  33.517  18.787   2.841
 1987W        W68396  12.163  35.916  13.060
 1988W        W68397  10.787  25.113  10.876
 1989W        W68398  35.015  25.054   1.327
 1990W        W68399  21.064  36.424   1.626
 1991W        W68400  11.632  27.665  13.394
 1992W        W68401  43.108  22.581   2.197
 1993W        W68402   9.625  42.001  13.383
 1994W        W68403  26.708  38.024  13.061
 1995W        W68404   7.328   6.183  10.650
 1996W        W68405  43.498  14.081  14.298
 1997W        W68406   8.804  39.944  14.888
 1998W        W68407  19.071  44.473  11.979
 1999W        W68408  31.928   9.632   3.692
 2000W        W68409   3.067  17.127   0.874
 2001W        W68410   8.196  16.784   3.664
 2002W        W68411   1.785  24.541   4.769
 2003W        W68412  27.406  17.284  14.346
 2004W        W68413   8.134  20.286  14.894
 2005W        W68414  28.377  36.875   1.839
 2006W        W68415  43.803   8.384   3.261
 2007W        W68416  40.280  17.633   1.087
 2008W        W68417  35.327  12.048  12.532
 2009W        W68418  40.856  10.334  13.355
 2010W        W68419   9.610  21.127  12.599
 2011W        W68420  18.336  23.137   1.003
 2012W        W68421  17.604  11.243  10.672
 2013W        W68422  19.769  38.341   4.602
 2014W        W68423  40.060  28.940   3.135
 2015W        W68424  26.633  29.817   2.887
 2016W        W68425  25.570  18.958  11.422
 2017W        W68426  27.894  42.435   2.489
 2018W        W68427   1.305  13.138   4.239
 2019W        W68428  14.295   6.413  12.435
 2020W        W68429  40.546  28.667  14.622
 2021W        W68430   8.905   7.937  13.870
 2022W        W68431  11.598  29.477   3.685
 2023W        W68432  16.052   4.592  14.892
 2024W        W68433  22.242  40.935  14.798
 2025W        W68434  10.272  39.381  12.799
 2026W        W68435   7.651  42.312  11.527
 2027W        W68436   7.412  40.336  12.440
 2028W        W68437  44.825  14.114  10.738
 2029W        W68438  23.451  22.559  14.897
 2030W        W68439  22.710  15.014   4.929
 2031W        W68440   1.994  13.741  11.997
 2032W        W68441   2.331  19.706   2.007
 2033W        W68442  20.950  33.970  12.057
 2034W        W68443  40.887  23.619   1.344
 2035W        W68444  22.918  37.905  11.608
 2036W        W68445   6.169  11.558   4.451
 2037W        W68446  16.467  42.031   0.738
 2038W        W68447  24.112  28.942  12.648
 2039W        W68448  40.503   1.775  12.509
 2040W        W68449   0.885  18.415   2.246
 2041W        W68450  37.824  27.217   4.065
 2042W        W68451  40.283   4.261  14.423
 2043W        W68452  42.554  15.024   1.406
 2044W        W68453  25.187   9.655   1.804
 2045W        W68454  38.639  20.177   3.756
 2046W        W68455  32.962  18.272   1.684
 2047W        W68456  38.445  13.198   2.649
 2048W        W68457  21.709  30.116   2.811
 2049W        W68458  36.393  23.389  11.002
 2050W        W68459  39.352  30.281  14.791
 2051W        W68460  35.453   0.782   1.960
 2052W        W68461  42.021  24.905  14.334
 2053W        W68462  33.526  26.054   2.312
 2054W        W68463   4.775  21.592  13.011
 2055W        W68464   3.904  18.801   2.601
 2056W        W68465   4.704  34.604  12.024
 2057W        W68466  11.430  40.741  14.392
 2058W        W68467  28.100   3.157  14.088
 2059W        W68468  21.281   7.808  12.059
 2060W        W68469  20.039  16.726   1.434
 2061W        W68470  37.280  14.178  12.912
 2062W        W68471   0.623  44.213   0.848
 2063W        W68472  22.525   4.953  10.504
 2064W        W68473  43.324  29.033  13.511
 2065W        W68474   8.131  31.615   0.778
 2066W        W68475  29.959  14.545  13.940
 2067W        W68476  16.358   0.341   2.307
 2068W        W68477  36.862  29.268  14.436
 2069W        W68478   7.662   8.618   2.285
 2070W        W68479  43.801  15.125  13.361
 2071W        W68480  21.160   1.436  14.581
 2072W        W68481   8.272  43.885  13.853
 2073W        W68482  30.561  44.539  12.915
 2074W        W68483  13.925  29.916  13.972
 2075W        W68484   8.375  41.137  13.018
 2076W        W68485  33.202   9.947   2.583
 2077W        W68486   1.818  44.968   2.792
 2078W        W68487   7.396  22.541   1.336
 2079W        W68488  24.188  44.732   4.048
 2080W        W68489   6.956   8.946  14.971
 2081W        W68490   9.220  10.696  11.301
 2082W        W68491  15.713   5.842   4.014
 2083W        W68492   7.686  43.815  10.719
 2084W        W68493   5.837  32.327  12.564
 2085W        W68494   0.256   7.843  11.348
 2086W        W68495  33.116   8.214  10.368
 2087W        W68496  22.684  31.441   2.389
 2088W        W68497  41.012  36.330  13.890
 2089W        W68498  12.573   2.056  11.515
 2090W        W68499  19.918  14.795  14.628
 2091W        W68500  44.197  44.510   4.485
 2092W        W68501  37.184  10.401   1.394
 2093W        W68502   9.306  22.351  11.243
 2094W        W68503  11.598   0.586   2.764
 2095W        W68504  28.148   4.483   1.312
 2096W        W68505   0.104  26.647   4.872
 2097W        W68506   1.328   6.322   3.223
 2098W        W68507  38.508  29.782  11.768
 2099W        W68508  27.545  35.916  13.025
 2100W        W68509  15.572  35.867  10.643
 2101W        W68510  31.406  13.358  12.078
 2102W        W68511  27.440  18.218   0.301
 2103W        W68512   0.342  44.377   4.060
 2104W        W68513   2.881   0.981   1.925
 2105W        W68514  11.389  43.805   2.080
 2106W        W68515  11.400  15.265   2.118
 2107W        W68516   0.946   6.885   4.435
 2108W        W68517  38.772  39.438   3.332
 2109W        W68518   0.453   8.295  12.874
 2110W        W68519  33.651   0.673   2.166
 2111W        W68520  30.445   8.194  12.902
 2112W        W68521  14.321  33.046  10.614
 2113W        W68522  12.575  28.965  10.811
 2114W        W68523  13.718  20.141  14.027
 2115W        W68524   1.408  10.721  14.248
 2116W        W68525  24.881   1.612   1.006
 2117W        W68526  17.084  39.532   0.959
 2118W        W68527  42.214  22.535  13.463
 2119W        W68528   5.775  11.653   4.119
 2120W        W68529  43.709  24.828  13.792
 2121W        W68530  13.313  20.620   5.187
 2122W        W68531  39.930  29.376   3.863
 2123W        W68532  44.590   2.941   0.231
 2124W        W68533  14.873  11.837  10.312
 2125W        W68534   4.834  32.632   1.225
 2126W        W68535  43.295   6.460  14.070
 2127W        W68536  38.531  41.988  14.408
 2128W        W68537  43.536  29.014   0.868
 2129W        W68538  20.788  10.293   0.667
 2130W        W68539  10.652   5.196   3.098
 2131W        W68540  14.297  33.794  11.373
 2132W        W68541  38.916  41.581   3.517
 2133W        W68542  11.076  37.052   4.413
 2134W        W68543  29.248  31.062  10.629
 2135W        W68544  33.155   4.182   4.484
 2136W        W68545  26.561  26.395  10.933
 2137W        W68546   1.906  31.522  14.760
 2138W        W68547   0.048  39.510   2.118
 2139W        W68548  21.775  11.443  12.973
 2140W        W68549  43.273  26.243  14.378
 2141W        W68550  31.160  44.884  12.582
 2142W        W68551  30.494  38.964   1.316
 2143W        W68552   4.774  13.152   1.279
 2144W        W68553  34.847  28.991  12.139
 2145W        W68554  22.504  19.308   2.762
 2146W        W68555  13.048   4.299  10.112
 2147W        W68556  22.001  42.425  11.029
 2148W        W68557   7.190  39.937  13.855
 2149W        W68558   7.838   4.397  11.862
 2150W        W68559  21.092   2.943   3.840
 2151W        W68560  16.232  22.680  12.616
 2152W        W68561  11.243  42.766   3.546
 2153W        W68562  40.252  30.050  10.648
 2154W        W68563   2.567  33.153  12.607
 2155W        W68564   1.811  21.509   1.262
 2156W        W68565  43.614   0.352  14.284
 2157W        W68566   0.159  35.084   3.784
 2158W        W68567  11.832  24.630   1.186
 2159W        W68568  18.149  44.222  11.621
 2160W        W68569  41.604  19.578   3.301
 2161W        W68570   3.653  15.754  14.523
 2162W        W68571  15.296  17.985   1.287
 2163W        W68572  38.422  20.767  12.104
 2164W        W68573  31.373  20.246   3.763
 2165W        W68574  25.179  22.054  14.342
 2166W        W68575  30.384  37.645  14.424
 2167W        W68576   2.907   1.265   4.714
 2168W        W68577  28.071  18.259  10.741
 2169W        W68578   7.659   4.385  10.732
 2170W        W68579  18.091  20.755   2.044
 2171W        W68580   8.153   4.101   3.616
 2172W        W68581  29.870   8.914   1.931
 2173W        W68582   8.759   6.273   4.131
 2174W        W68583  13.531   3.057  14.107
 2175W        W68584  11.699  33.584   1.199
 2176W        W68585  29.007  32.079   4.102
 2177W        W68586  22.452  44.439  12.106
 2178W        W68587  35.562  16.919   4.876
 2179W        W68588  26.623   3.033   4.358
 2180W        W68589   2.725   0.046   1.943
 2181W        W68590  16.700  30.451  12.564
 2182W        W68591  32.509  39.045   1.298
 2183W        W68592  24.619  20.515  14.005
 2184W        W68593  12.380  16.719  11.620
 2185W        W68594  19.337   8.896   0.837
 2186W        W68595  31.910  23.532  12.919
 2187W        W68596   0.245  14.488   3.922
 2188W        W68597  29.714   9.830  10.943
 2189W        W68598  28.525  33.080  14.735
 2190W        W68599  32.378  39.387   3.624
 2191W        W68600   4.266  22.284  14.904
 2192W        W68601  18.616  21.009  12.440
 2193W        W68602  30.649  26.008   0.856
 2194W        W68603  32.135  25.431  11.106
 2195W        W68604  26.563  22.654   3.350
 2196W        W68605   4.137  31.503  14.262
 2197W        W68606   0.245  38.815  11.628
 2198W        W68607   4.516  33.655  14.284
 2199W        W68608  43.321   1.401  10.720
 2200W        W68609  34.042   6.644   4.767
 2201W        W68610  44.404  11.574   3.711
 2202W        W68611  37.433   6.874   1.973
 2203W        W68612   7.269  19.260  12.850
 2204W        W68613  35.031  16.832  12.437
 2205W        W68614  43.481  21.268  14.457
 2206W        W68615  21.522  12.733  13.754
 2207W        W68616   2.901  31.567   0.820
 2208W        W68617  42.650  11.819  10.096
 2209W        W68618  19.564   4.717   0.131
 2210W        W68619  20.473  42.778  14.167
 2211W        W68620  30.422  24.239  13.422
 2212W        W68621  40.836  19.303  13.408
 2213W        W68622  20.803  16.185   2.279
 2214W        W68623  15.768   3.767  13.596
 2215W        W68624  34.336   1.529   1.205
 2216W        W68625  35.055  10.997  13.004
 2217W        W68626  25.053  17.313   2.966
 2218W        W68627   5.477   5.757   0.887
 2219W        W68628  40.475   0.164   2.907
 2220W        W68629  26.568  42.260  10.609
 2221W        W68630  21.588  35.336  14.832
 2222W        W68631   8.407  19.651  11.130
 2223W        W68632   8.417  34.426   2.293
 2224W        W68633  17.811  29.711   2.837
 2225W        W68634  40.041  36.523  14.196
 2226W        W68635  35.844  18.746  13.528
 2227W        W68636   2.557  41.009   0.943
 2228W        W68637  22.890  24.632  10.201
 2229W        W68638  40.826  30.110   3.423
 2230W        W68639  34.872   3.990  13.703
 2231W        W68640  28.673  26.630  13.430
 2232W        W68641  20.961  40.372   3.324
 2233W        W68642  15.502  22.009  12.314
 2234W        W68643  33.008  23.653   0.350
 2235W        W68644  31.767  30.067   0.940
 2236W        W68645  27.405   0.373  12.499
 2237W        W68646  36.813   8.649   4.148
 2238W        W68647  42.720   9.265   3.039
 2239W        W68648  40.084  38.357   4.767
 2240W        W68649  17.800  28.197   0.547
 2241W        W68650   9.878  42.830   0.234
 2242W        W68651  36.094  15.256   1.643
 2243W        W68652  16.701   7.215  10.924
 2244W        W68653   8.088   9.279   3.474
 2245W        W68654  42.045  17.239  11.563
 2246W        W68655  40.255  39.777  11.213
 2247W        W68656  18.165  42.263   3.820
 2248W        W68657  19.033  26.805  10.334
 2249W        W68658  14.184  12.775  13.252
 2250W        W68659  33.928   6.938  13.453
 2251W        W68660   5.327  35.001   3.138
 2252W        W68661  11.714   8.766   3.166
 2253W        W68662   6.959  20.533  11.063
 2254W        W68663  10.131  24.722  14.857
 2255W        W68664  17.359  14.769  11.102
 2256W        W68665  39.569  17.704   1.848
 2257W        W68666  42.999   6.936   4.061
 2258W        W68667   6.803  18.475   0.727
 2259W        W68668  27.653  17.545  13.275
 2260W        W68669   6.431  17.707  10.269
 2261W        W68670  41.763  27.895   1.755
 2262W        W68671  32.098  28.072   3.263
 2263W        W68672  13.942  30.204   4.013
 2264W        W68673  38.335  20.227  14.382
 2265W        W68674  36.991  39.336   2.734
 2266W        W68675   8.343  21.165  12.780
 2267W        W68676  17.968   6.384   0.857
 2268W        W68677  18.653  32.477   2.732
 2269W        W68678  37.443  37.670  11.653
 2270W        W68679   2.844  16.690   3.926
 2271W        W68680   9.386  18.630  10.691
 2272W        W68681  30.234  37.356   4.855
 2273W        W68682  25.619   3.686   1.330
 2274W        W68683  20.101  21.745   2.072
 2275W        W68684  15.691  26.960   0.765
 2276W        W68685  13.903  37.203  11.920
 2277W        W68686  24.745   7.725   2.525
 2278W        W68687  11.700  14.802  12.376
 2279W        W68688  21.474   1.294   2.941
 2280W        W68689  25.030  42.359   3.303
 2281W        W68690  40.229  34.866  11.794
 2282W        W68691  31.999  29.147   4.284
 2283W        W68692  26.277  11.431  10.781
 2284W        W68693  25.264  34.567  11.741
 2285W        W68694  13.225   9.264  14.048
 2286W        W68695   7.900  13.825   2.651
 2287W        W68696  38.553  39.886  13.407
 2288W        W68697  15.562   1.693   3.959
 2289W        W68698  43.885  30.871  13.928
 2290W        W68699  34.181  35.520  14.488
 2291W        W68700   5.288  10.487  13.796
 2292W        W68701  42.904  41.571  13.072
 2293W        W68702  22.702  26.302   2.826
 2294W        W68703  24.974  15.248   1.954
 2295W        W68704  28.485  28.977   2.674
 2296W        W68705   2.472  34.744  11.132
 2297W        W68706  25.329  25.556  13.852
 2298W        W68707   9.246  25.376   1.918
 2299W        W68708  28.746  34.502  13.032
 2300W        W68709  17.325  38.001  12.720
 2301W        W68710   0.843  25.745  12.138
 2302W        W68711  17.280  33.031  11.593
 2303W        W68712  20.896   4.734  12.065
 2304W        W68713  24.389  26.330   4.210
 2305W        W68714  24.709  20.965   2.682
 2306W        W68715  22.066   3.809  14.309
 2307W        W68716  38.019  21.701  14.325
 2308W        W68717  40.555   7.082   2.760
 2309W        W68718  35.225  22.444   0.460
 2310W        W68719  42.297  26.751  11.282
 2311W        W68720   5.437  40.230   2.112
 2312W        W68721  12.798   9.250   0.830
 2313W        W68722  43.717  40.605   1.701
 2314W        W68723  41.485  28.185   4.810
 2315W        W68724  35.630   9.671   1.210
 2316W        W68725  38.391   2.034   2.273
 2317W        W68726   1.691  42.103   4.449
 2318W        W68727  43.911  18.467   1.311
 2319W        W68728  32.590  23.252   2.165
 2320W        W68729   0.938  16.351  11.967
 2321W        W68730  40.873  13.812   3.605
 2322W        W68731  33.092  22.615   0.397
 2323W        W68732  25.664   3.794   0.834
 2324W        W68733  42.695  32.362   2.703
 2325W        W68734  20.633  17.511  14.247
 2326W        W68735  44.927   0.493   2.767
 2327W        W68736  15.159   4.344  11.556
 2328W        W68737  17.896  19.258   3.642
 2329W        W68738   0.321  20.025  14.072
 2330W        W68739  39.386  44.317   0.875
 2331W        W68740  13.136   5.711   2.239
 2332W        W68741   5.322  27.901  14.081
 2333W        W68742  41.487  30.606   1.403
 2334W        W68743  36.603   5.905  11.188
 2335W        W68744   7.150  18.130   0.921
 2336W        W68745   8.291   2.919  10.262
 2337W        W68746  19.104  29.025   4.142
 2338W        W68747  44.313  40.089  11.261
 2339W        W68748   6.949  19.474  12.482
 2340W        W68749   2.243  21.288  10.410
 2341W        W68750   8.799  22.022  13.393
 2342W        W68751  13.238  22.516   3.370
 2343W        W68752  15.605   2.349  14.759
 2344W        W68753  18.239  28.638   2.348
 2345W        W68754  29.788  26.918  14.043
 2346W        W68755  11.162  41.004   3.730
 2347W        W68756  34.502   6.949   2.249
 2348W        W68757  35.594  17.969  14.495
 2349W        W68758   1.932  15.329   0.211
 2350W        W68759  32.098  14.572  11.089
 2351W        W68760  42.244  38.195  12.839
 2352W        W68761  44.208  30.122  14.390
 2353W        W68762  36.652   3.175  13.001
 2354W        W68763   6.227  18.900   3.692
 2355W        W68764  17.845  15.066   0.332
 2356W        W68765  23.800  17.049  10.874
 2357W        W68766  32.679   9.243  12.450
 2358W        W68767  32.937  12.145   0.221
 2359W        W68768  36.645  15.127  13.789
 2360W        W68769  34.365  13.356   0.020
 2361W        W68770  24.176  15.294  13.902
 2362W        W68771  41.952  44.110  12.960
 2363W        W68772  25.958  25.648   3.149
 2364W        W68773  16.837  19.300   2.651
 2365W        W68774  40.988  13.278  11.846
 2366W        W68775  22.101   8.776   0.757
 2367W        W68776  29.492  17.722  11.188
 2368W        W68777  27.576  20.206  12.333
 2369W        W68778  39.365  38.953   1.674
 2370W        W68779   0.806   8.791  14.568
 2371W        W68780  19.564  27.764  11.684
 2372W        W68781  19.539  21.630  14.337
 2373W        W68782  22.541  14.134   1.721
 2374W        W68783  24.533  25.827   2.881
 2375W        W68784  17.710  20.022   0.279
 2376W        W68785  29.564   0.649  11.580
 2377W        W68786  18.131  18.805   0.206
 2378W        W68787  41.718  26.653   0.016
 2379W        W68788  11.828  11.764  11.704
 2380W        W68789  30.567  34.088   0.404
 2381W        W68790  40.380  12.032   0.486
 2382W        W68791  11.206  10.781  13.747
 2383W        W68792  28.342  25.463  12.126
 2384W        W68793  23.900  19.587  11.586
 2385W        W68794   9.141   2.985   0.931
 2386W        W68795  40.367  29.053  14.928
 2387W        W68796  30.998   8.040   4.269
 2388W        W68797  27.595   0.963   2.812
 2389W        W68798  25.630   0.337  13.342
 2390W        W68799   9.001  26.182   2.236
 2391W        W68800  13.319  23.549  11.907
 2392W        W68801  12.052   2.868  11.512
 2393W        W68802  27.520  21.197   2.330
 2394W        W68803  38.525   7.306   4.711
 2395W        W68804  29.962  25.879  12.074
 2396W        W68805  37.493   3.253   1.719
 2397W        W68806  33.941  32.075  13.802
 2398W        W68807  29.334  32.809   0.385
 2399W        W68808  40.015  41.922  14.753
 2400W        W68809  44.382  10.834   1.790
 2401W        W68810  24.073   1.177  10.904
 2402W        W68811   6.873   5.288  10.850
 2403W        W68812  13.363   1.301  14.073
 2404W        W68813  19.534   8.180  14.069
 2405W        W68814  23.406   0.797   4.254
 2406W        W68815  30.140   5.107  12.404
 2407W        W68816  24.599  18.220  12.817
 2408W        W68817   9.123  30.189   3.297
 2409W        W68818  35.427  19.724   2.382
 2410W        W68819  25.682  33.585   0.734
 2411W        W68820  13.124  28.604   4.469
 2412W        W68821  17.653   8.283  10.566
 2413W        W68822  39.402  27.726   2.854
 2414W        W68823  30.141  31.102  13.612
 2415W        W68824  27.042   3.319   1.450
 2416W        W68825  17.881  12.579  14.362
 2417W        W68826  32.791  12.783   4.571
 2418W        W68827  15.118  14.896   3.601
 2419W        W68828  23.938  42.679   3.834
 2420W        W68829  18.791  40.942  11.664
 2421W        W68830  33.537  25.781  11.879
 2422W        W68831  11.136  21.617   3.727
 2423W        W68832  16.535  40.441   2.276
 2424W        W68833  18.821   0.218   3.798
 2425W        W68834  44.289   1.183  12.116
 2426W        W68835  38.587  36.810   3.367
 2427W        W68836  11.233   4.195  11.171
 2428W        W68837  25.116  22.768  10.311
 2429W        W68838  13.339  30.042   4.082
 2430W        W68839  42.124  30.113   0.646
 2431W        W68840  11.238  30.437   3.178
 2432W        W68841  14.846  11.372  13.441
 2433W        W68842  24.197  34.098  13.081
 2434W        W68843  22.029   5.155  14.802
 2435W        W68844  19.265  17.845   2.785
 2436W        W68845   3.343   3.814  12.091
 2437W        W68846  27.121   6.677   3.612
 2438W        W68847  26.019  42.320   4.324
 2439W        W68848  36.394  27.010  14.788
 2440W        W68849  30.674   9.281   0.614
 2441W        W68850  41.792  41.023   2.617
 2442W        W68851  33.634   1.685   2.373
 2443W        W68852   8.115  22.119  13.837
 2444W        W68853  34.263   6.165   1.124
 2445W        W68854  32.020  23.616   0.389
 2446W        W68855  42.774  32.992   2.074
 2447W        W68856  40.415  28.159   2.827
 2448W        W68857  16.554  26.063  13.470
 2449W        W68858  18.915  14.637   0.001
 2450W        W68859  28.953  40.358  14.260
 2451W        W68860  14.785   1.010   5.673
 2452W        W68861   6.353  26.992   2.147
 2453W        W68862  23.033   2.242   0.801
 2454W        W68863  12.177  20.290   3.116
 2455W        W68864  25.445   7.208  14.949
 2456W        W68865  20.273  34.674  12.613
 2457W        W68866   4.323  14.411   4.054
 2458W        W68867  24.244  14.628   0.880
 2459W        W68868   2.556  14.143   3.396
 2460W        W68869  28.897  25.687   3.270
 2461W        W68870  34.653   5.605   2.575
 2462W        W68871  35.650  20.990   2.702
 2463W        W68872  12.233  34.581  11.185
 2464W        W68873  43.015  16.051  10.403
 2465W        W68874  31.225  23.092   1.363
 2466W        W68875  18.826  11.325   0.722
 2467W        W68876  37.519  34.550   3.961
 2468W        W68877  29.433  28.034   3.067
 2469W        W68878   5.895   9.896   4.465
 2470W        W68879  37.545  27.567  12.548
 2471W        W68880  38.398  23.965   0.556
 2472W        W68881  17.611  30.232  11.976
 2473W        W68882  17.823  36.706  14.480
 2474W        W68883  42.338  42.353   0.727
 2475W        W68884   2.870  14.911  11.129
 2476W        W68885  33.668  43.940   1.179
 2477W        W68886   5.407  40.659  12.780
 2478W        W68887  38.255  43.800   3.215
 2479W        W68888   7.651  23.093   2.225
 2480W        W68889  38.986  15.098  13.579
 2481W        W68890  14.017  22.470   0.146
 2482W        W68891  42.900  30.082  11.119
 2483W        W68892  15.328  40.289  12.922
 2484W        W68893  25.897  26.546  12.585
 2485W        W68894  28.816  11.574  12.149
 2486W        W68895  24.004  28.401  14.773
 2487W        W68896   6.129  22.434   2.201
 2488W        W68897   0.974  41.265  11.196
 2489W        W68898  16.019  43.749  13.905
 2490W        W68899   8.617   0.988  13.418
 2491W        W68900  38.500  19.999   0.407
 2492W        W68901  42.885  13.942  14.727
 2493W        W68902  34.542   5.301   1.018
 2494W        W68903  35.245  27.005  13.933
 2495W        W68904   0.925  37.885   3.158
 2496W        W68905   1.785  13.340  13.531
 2497W        W68906  13.598  40.314  13.350
 2498W        W68907   6.410  25.908   0.548
 2499W        W68908   3.476  15.807  11.980
 2500W        W68909  10.082  38.129   1.977
 2501W        W68910   7.185  27.959  11.942
 2502W        W68911  43.253  35.267   2.062
 2503W        W68912  40.923  15.896   3.530
 2504W        W68913   2.039  15.315  11.134
 2505W        W68914  17.106  15.007  11.643
 2506W        W68915  22.965  10.262   1.213
 2507W        W68916  32.312  11.579   4.857
 2508W        W68917  25.241   0.442   3.257
 2509W        W68918  20.751  29.127  13.037
 2510W        W68919  22.134  16.991  14.319
 2511W        W68920  31.674  15.530   1.365
 2512W        W68921  19.049  15.123   4.688
 2513W        W68922   5.397  32.544  14.474
 2514W        W68923  19.730  36.930  12.526
 2515W        W68924   6.829  34.304   5.079
 2516W        W68925   5.516  21.180   4.969
 2517W        W68926  20.222  30.326  11.124
 2518W        W68927   6.777  19.932   1.171
 2519W        W68928  38.905  43.508   2.412
 2520W        W68929  31.979  10.698   2.545
 2521W        W68930  41.792  37.575  11.886
 2522W        W68931  36.649  41.578   2.620
 2523W        W68932   1.055  27.933  11.083
 2524W        W68933  20.210  13.700  11.872
 2525W        W68934  16.734  42.132   4.269
 2526W        W68935  26.136   0.172  14.416
 2527W        W68936  31.399  30.313   0.049
 2528W        W68937  15.900  22.590   3.102
 2529W        W68938   7.457  34.455   0.845
 2530W        W68939  44.514   8.648   0.909
 2531W        W68940   8.915  10.108  13.981
 2532W        W68941  43.172   5.016   0.716
 2533W        W68942  43.294  43.007   5.006
 2534W        W68943   9.160   1.101   0.713
 2535W        W68944  18.533   8.085   3.704
 2536W        W68945  35.878  24.683  10.571
 2537W        W68946  38.626  39.332  13.362
 2538W        W68947  26.100  22.840   0.927
 2539W        W68948  21.709  33.421  11.959
 2540W        W68949  11.204  17.047   1.579
 2541W        W68950  20.697  26.980   1.218
 2542W        W68951  20.938  36.339   5.101
 2543W        W68952  33.115  16.695  14.412
 2544W        W68953  14.525  30.232   5.134
 2545W        W68954  44.236   9.637  13.364
 2546W        W68955  35.093  32.853   2.014
 2547W        W68956  41.134  39.965   2.289
 2548W        W68957  39.469  19.572  13.566
 2549W        W68958  20.684  15.041  11.286
 2550W        W68959  34.338   0.552  14.860
 2551W        W68960   1.707  27.151  11.983
 2552W        W68961  19.283   4.048   2.788
 2553W        W68962   3.007  43.305  11.155
 2554W        W68963   5.684  15.025   1.257
 2555W        W68964  29.969   9.456  11.725
 2556W        W68965  35.613  44.760  13.243
 2557W        W68966  43.817  15.276  14.297
 2558W        W68967   9.372  40.617   0.804
 2559W        W68968  28.198  19.225   3.359
 2560W        W68969  39.556  11.582  14.161
 2561W        W68970  25.407  28.896  11.165
 2562W        W68971  37.484   8.267   3.777
 2563W        W68972  11.616  43.782  14.290
 2564W        W68973  21.553  37.448   3.079
 2565W        W68974  26.038  39.815   4.557
 2566W        W68975  29.187  44.020   4.540
 2567W        W68976  39.028   6.605   4.357
 2568W        W68977  33.665  20.649   0.870
 2569W        W68978   6.017   1.264  13.528
 2570W        W68979   5.909  43.547   0.944
 2571W        W68980  31.921   7.856  11.105
 2572W        W68981  20.825   1.878   1.390
 2573W        W68982  18.333   8.778  10.790
 2574W        W68983  43.602  28.175   4.570
 2575W        W68984  24.081  11.581   5.034
 2576W        W68985  15.666  12.862  13.534
 2577W        W68986   5.637  21.279  11.079
 2578W        W68987   6.804  23.128  12.132
 2579W        W68988   8.399   8.297  10.805
 2580W        W68989  11.053   0.927  14.809
 2581W        W68990   7.447  12.198   2.219
 2582W        W68991  15.326  18.722  13.899
 2583W        W68992   9.324   6.246   0.304
 2584W        W68993  22.123  32.996   0.446
 2585W        W68994  19.433  38.144   0.826
 2586W        W68995  44.020  30.369  12.964
 2587W        W68996  44.359   4.447   2.839
 2588W        W68997  16.798  32.542   2.719
 2589W        W68998  39.394   0.817   1.329
 2590W        W68999  21.292   7.360  12.909
 2591W        W69000  26.532  42.761  10.746
 2592W        W69001  10.926  29.608   2.283
 2593W        W69002   9.033   6.866   2.209
 2594W        W69003  16.617   7.356   4.652
 2595W        W69004  21.893   7.210   1.854
 2596W        W69005  41.261  41.480   0.382
 2597W        W69006  35.559   8.365   3.762
 2598W        W69007  31.124  21.027   4.023
 2599W        W69008  33.488  35.421   4.873
 2600W        W69009  42.516   4.693   3.692
 2601W        W69010  18.547  40.849  12.177
 2602W        W69011   7.096  42.758  11.689
 2603W        W69012  26.151  20.093  13.456
 2604W        W69013  37.468  30.089  10.802
 2605W        W69014  12.361   9.883   2.877
 2606W        W69015  43.519  24.205   3.829
 2607W        W69016  38.004  36.433   4.110
 2608W        W69017  10.258  24.479  12.349
 2609W        W69018   2.792  42.945  10.394
 2610W        W69019  41.390  24.985   2.928
 2611W        W69020  25.138  15.198   2.865
 2612W        W69021   4.955  43.285   4.625
 2613W        W69022  37.329  16.772   4.625
 2614W        W69023  38.851  35.827   0.812
 2615W        W69024  15.804  14.838   2.274
 2616W        W69025  20.764  25.704  12.430
 2617W        W69026  24.527  43.504  14.757
 2618W        W69027  24.416  10.199  13.008
 2619W        W69028  29.331  35.881  12.911
 2620W        W69029  33.638  32.507  11.057
 2621W        W69030   4.018  12.301   2.198
 2622W        W69031  29.748  30.549  11.587
 2623W        W69032  13.302  19.676  12.788
 2624W        W69033  28.892  11.235  13.907
 2625W        W69034  19.580  19.678   2.185
 2626W        W69035  32.925  24.187   2.675
 2627W        W69036  41.913  10.662   3.135
 2628W        W69037  39.527  21.212   2.378
 2629W        W69038  33.260  25.948   1.868
 2630W        W69039   4.489  17.044   3.683
 2631W        W69040  43.995  30.203   2.247
 2632W        W69041   2.185   2.699  12.949
 2633W        W69042  15.797   1.429  11.976
 2634W        W69043   5.914  43.999  13.320
 2635W        W69044   8.621  11.817  11.391
 2636W        W69045  12.080  21.022   2.620
 2637W        W69046  43.168  24.007   2.302
 2638W        W69047  19.558  31.992  11.165
 2639W        W69048  16.727  33.082   1.333
 2640W        W69049  26.039  13.640   3.708
 2641W        W69050  27.569   1.485   0.778
 2642W        W69051   9.667  38.874   0.516
 2643W        W69052  32.416  26.938  13.467
 2644W        W69053   9.772  37.775   2.781
 2645W        W69054  14.942   7.180  12.849
 2646W        W69055  41.456  26.574  14.585
 2647W        W69056   1.230  43.289  11.434
 2648W        W69057  28.189  38.558  13.842
 2649W        W69058  11.434  30.606  10.735
 2650W        W69059  40.418  12.259   1.622
 2651W        W69060  29.861  35.517  10.442
 2652W        W69061  24.965   2.192   1.004
 2653W        W69062  37.908   1.641   3.777
 2654W        W69063  14.783  36.444   4.093
 2655W        W69064  38.528   1.724   2.656
 2656W        W69065  10.444   9.752  13.386
 2657W        W69066  36.021  25.556  13.940
 2658W        W69067  12.388   1.453  13.925
 2659W        W69068  42.409  20.958   2.550
 2660W        W69069  39.219  27.464  14.447
 2661W        W69070   6.138  36.050   2.768
 2662W        W69071  31.900  12.388   4.722
 2663W        W69072   3.512  37.849  14.825
 2664W        W69073   8.911  30.019   3.733
 2665W        W69074   7.632  21.255   0.928
 2666W        W69075  17.597  25.036   4.604
 2667W        W69076  41.916  31.016  13.375
 2668W        W69077  42.424  30.051  11.320
 2669W        W69078  31.495  12.999   3.144
 2670W        W69079   7.322   5.896  12.330
 2671W        W69080  20.246   8.762  11.178
 2672W        W69081  28.626   1.170  11.643
 2673W        W69082  44.870  11.476  11.007
 2674W        W69083  34.445  38.372   1.056
 2675W        W69084  27.961  41.335   1.844
 2676W        W69085  21.598  23.150   1.897
 2677W        W69086   3.281  12.256  10.776
 2678W        W69087  33.374  43.768   3.583
 2679W        W69088  25.765  21.262   3.167
 2680W        W69089  12.608  20.826   4.446
 2681W        W69090  43.238   7.040  12.841
 2682W        W69091  21.104  11.612   0.828
 2683W        W69092  23.202  42.412   3.870
 2684W        W69093  24.916  32.051   1.422
 2685W        W69094  12.724  32.178  13.880
 2686W        W69095  39.713  20.592   1.116
 2687W        W69096  30.139   5.838  11.244
 2688W        W69097  16.765  36.838  12.390
 2689W        W69098  10.327   1.767  13.280
 2690W        W69099  31.259  37.999   3.835
 2691W        W69100  29.666  11.728   3.474
 2692W        W69101  24.552  24.813  12.569
 2693W        W69102  25.156  13.602  11.958
 2694W        W69103  15.551  39.954  10.629
 2695W        W69104  43.474   0.137   3.150
 2696W        W69105   1.132  36.168  11.830
 2697W        W69106   1.042  11.501  11.183
 2698W        W69107  14.665  42.525   3.226
 2699W        W69108  25.144  18.060   0.080
 2700W        W69109  26.793  33.693   4.603
 2701W        W69110  41.631  41.887   2.558
 2702W        W69111  12.324   1.928   0.977
 2703W        W69112  16.000   9.108   1.915
 2704W        W69113  17.123  14.641  14.322
 2705W        W69114  11.689  10.887  13.587
 2706W        W69115  31.488   5.420   0.388
 2707W        W69116   7.578  28.616   3.695
 2708W        W69117  11.892  44.597   2.326
 2709W        W69118   9.056  16.333   4.193
 2710W        W69119  25.235   7.359   4.880
 2711W        W69120  29.158  38.001   3.564
 2712W        W69121  10.394  19.618   2.261
 2713W        W69122  20.047  14.230   0.464
 2714W        W69123  32.579  33.068   3.546
 2715W        W69124   5.301  14.718   2.761
 2716W        W69125   4.306  27.984   3.029
 2717W        W69126  30.096   9.649  11.252
 2718W        W69127  18.765   7.952   1.909
 2719W        W69128   2.359  10.648  10.674
 2720W        W69129  41.829   6.269  10.742
 2721W        W69130   7.865   0.858  12.345
 2722W        W69131  33.236  14.248   9.971
 2723W        W69132  34.687  25.005   4.489
 2724W        W69133   9.749  21.833   0.737
 2725W        W69134  24.271  15.384  12.989
 2726W        W69135  29.540  14.241  10.891
 2727W        W69136  16.800  16.003  11.177
 2728W        W69137  13.600  41.384   2.806
 2729W        W69138  35.794  22.680  10.915
 2730W        W69139  32.818  25.745  13.073
 2731W        W69140  34.023  39.040  13.404
 2732W        W69141   8.945  28.057   4.239
 2733W        W69142   1.006  37.300  12.194
 2734W        W69143  11.011  14.289  11.964
 2735W        W69144  25.932  44.211  14.473
 2736W        W69145  12.428  14.217   0.891
 2737W        W69146  23.406   0.868   1.702
 2738W        W69147  38.412  37.752  13.135
 2739W        W69148  17.698  30.100   2.158
 2740W        W69149  10.442   3.200   2.162
 2741W        W69150  23.995  10.616   3.631
 2742W        W69151  34.056  17.868  12.521
 2743W        W69152   3.292  18.883  12.849
 2744W        W69153   1.959  39.596  12.872
 2745W        W69154  42.872  11.567  14.541
 2746W        W69155  21.558  22.579  11.267
 2747W        W69156   9.440  30.913  12.486
 2748W        W69157  32.904  31.330   0.966
 2749W        W69158   7.355   9.408  14.514
 2750W        W69159  40.418  22.409  13.624
 2751W        W69160  10.862  32.286   3.216
 2752W        W69161   0.293  40.484  13.981
 2753W        W69162  32.966  40.893  10.725
 2754W        W69163  14.179  32.303  12.361
 2755W        W69164  11.113  43.990  14.952
 2756W        W69165  33.033  33.060   4.402
 2757W        W69166   0.020  12.369  13.393
 2758W        W69167  24.691  43.838   0.117
 2759W        W69168   6.487  30.356   0.723
 2760W        W69169  12.225   5.181   1.114
 2761W        W69170  36.146  45.000  14.278
 2762W        W69171  17.762  20.505   1.275
 2763W        W69172  10.833   2.771   0.893
 2764W        W69173  27.996  33.109  12.462
 2765W        W69174  22.478  36.673   0.233
 2766W        W69175  25.616  25.822  12.910
 2767W        W69176  24.968   9.315   2.592
 2768W        W69177  17.580  19.999  11.551
 2769W        W69178  21.386  22.818   1.233
 2770W        W69179  12.302  33.847   2.229
 2771W        W69180  21.483  15.339  12.588
 2772W        W69181   3.017  30.447  11.612
 2773W        W69182   6.816  22.527  11.771
 2774W        W69183  19.537  20.110  12.473
 2775W        W69184  16.442  38.673   4.019
 2776W        W69185  43.025   5.972   4.542
 2777W        W69186  16.248  35.744  11.749
 2778W        W69187  35.988  13.263  12.008
 2779W        W69188  10.463  29.912  11.151
 2780W        W69189  23.013  28.866  13.537
 2781W        W69190  22.622   4.104   3.292
 2782W        W69191  20.122  36.419  11.899
 2783W        W69192   3.927  28.580  14.315
 2784W        W69193  24.724  12.655   4.478
 2785W        W69194  25.298   3.952   4.101
 2786W        W69195  10.346   2.712   3.241
 2787W        W69196  40.017   6.941   1.493
 2788W        W69197  31.425  33.041  13.965
 2789W        W69198  42.417  10.816   1.166
 2790W        W69199  12.070  38.022   9.595
 2791W        W69200  35.587  14.178   0.020
 2792W        W69201  27.340  38.237  14.907
 2793W        W69202  38.794  18.168   0.381
 2794W        W69203   1.949  20.139  10.599
 2795W        W69204  42.973  38.963   2.027
 2796W        W69205  33.550  13.583  12.999
 2797W        W69206  32.698  16.683   1.150
 2798W        W69207  14.597  27.173   3.786
 2799W        W69208  34.617  30.569  12.071
 2800W        W69209   4.450  10.861   1.976
 2801W        W69210   1.390   8.635  10.717
 2802W        W69211   5.564  21.745  11.347
 2803W        W69212  39.411  22.632   3.548
 2804W        W69213   9.390   2.478  14.993
 2805W        W69214  21.274  12.814   3.802
 2806W        W69215  12.666  15.060   2.341
 2807W        W69216  37.845  20.754  11.027
 2808W        W69217  33.965   1.001   3.231
 2809W        W69218  21.167   8.068   4.672
 2810W        W69219   1.117  38.968  13.614
 2811W        W69220  31.394  29.910   2.433
 2812W        W69221  40.806  15.331  13.521
 2813W        W69222  19.556   7.239   3.131
 2814W        W69223  27.595  28.045   2.128
 2815W        W69224  27.016  43.902   2.312
 2816W        W69225  34.970  11.456  12.791
 2817W        W69226   7.119  36.174  10.806
 2818W        W69227  41.944  29.937  14.791
 2819W        W69228  39.194  21.095  13.737
 2820W        W69229  19.266  17.575   1.892
 2821W        W69230  12.214  20.201  11.567
 2822W        W69231  24.532  19.199  14.438
 2823W        W69232   9.263   0.750  14.426
 2824W        W69233  42.793  44.493  14.588
 2825W        W69234  11.954  27.520   4.344
 2826W        W69235  11.273  20.683   1.470
 2827W        W69236  13.979   4.691   3.771
 2828W        W69237  43.997  42.028   0.499
 2829W        W69238   6.316  29.151   1.641
 2830W        W69239  18.594   7.191   2.326
 2831W        W69240  12.968  28.509   1.974
 2832W        W69241  13.345  32.920  13.943
 2833W        W69242  18.657   0.455  13.130
 2834W        W69243  25.938   0.740   4.235
 2835W        W69244  43.357  37.088  14.777
 2836W        W69245  14.511  33.604  13.419
 2837W        W69246  23.049   8.923  11.553
 2838W        W69247  29.610  44.346  13.898
 2839W        W69248  39.016  26.429  14.960
 2840W        W69249  18.350  10.564   0.899
 2841W        W69250  11.658  17.980  11.277
 2842W        W69251  44.246  40.383  11.670
 2843W        W69252  25.256  26.236   0.690
 2844W        W69253   5.858  28.028   4.116
 2845W        W69254  18.784  39.040  12.822
 2846W        W69255  28.924   9.375  14.755
 2847W        W69256  43.958  24.572  14.206
 2848W        W69257  32.039   1.712  11.057
 2849W        W69258   8.766  31.807  10.700
 2850W        W69259   3.429  36.508   4.545
 2851W        W69260  20.968  18.324  12.186
 2852W        W69261  34.763  37.875  12.662
 2853W        W69262  43.844  22.998   0.506
 2854W        W69263  27.954  32.906  11.640
 2855W        W69264  29.289  21.219   2.392
 2856W        W69265  41.449   1.046   2.191
 2857W        W69266  17.575  37.283   4.655
 2858W        W69267  20.343  20.802   0.019
 2859W        W69268   0.410   7.469   0.018
 2860W        W69269   8.197  11.887  12.171
 2861W        W69270  23.764   0.489   3.973
 2862W        W69271  34.857  42.763  11.560
 2863W        W69272   5.853  14.330  13.846
 2864W        W69273  25.035  28.480  14.951
 2865W        W69274  17.839   1.443  13.382
 2866W        W69275   8.539  17.675  14.393
 2867W        W69276   3.294  37.583  13.093
 2868W        W69277  41.840  16.476   3.718
 2869W        W69278  43.268  19.166   3.798
 2870W        W69279  10.137  44.242  14.307
 2871W        W69280  24.167  20.959  14.428
 2872W        W69281  18.165  38.229   0.498
 2873W        W69282  33.175  14.892  13.047
 2874W        W69283  14.543   2.617   0.948
 2875W        W69284  30.096  33.018  13.657
 2876W        W69285  25.528  41.597  14.192
 2877W        W69286  15.187   2.019   0.445
 2878W        W69287  20.191  15.191  11.121
 2879W        W69288  27.341  40.909  12.928
 2880W        W69289  21.750  41.596   2.276
 2881W        W69290  20.035   5.032  10.756
 2882W        W69291  39.506  23.006   4.398
 2883W        W69292  16.557  33.229  10.854
 2884W        W69293  36.524  37.941  13.391
 2885W        W69294  26.025  41.753  11.482
 2886W        W69295  17.526  11.846   2.754
 2887W        W69296  42.338  43.917  12.658
 2888W        W69297  14.482  44.554   2.722
 2889W        W69298   1.003  11.756   0.300
 2890W        W69299  23.843   5.580  11.904
 2891W        W69300  27.389  13.816  14.456
 2892W        W69301   9.146  31.497  11.650
 2893W        W69302  22.540  24.963   1.351
 2894W        W69303  26.667   0.827  14.796
 2895W        W69304  30.662  30.646  10.720
 2896W        W69305   5.900  25.354  12.843
 2897W        W69306   6.074  38.111   2.282
 2898W        W69307  26.243   7.218   0.478
 2899W        W69308  32.014  11.933  14.318
 2900W        W69309  34.425  36.410  12.236
 2901W        W69310  35.745  32.547  13.921
 2902W        W69311  37.099  16.722  11.000
 2903W        W69312   8.988  13.576   3.563
 2904W        W69313  44.091   4.183  13.054
 2905W        W69314  16.349  21.518  13.941
 2906W        W69315  44.258   5.652  14.625
 2907W        W69316  38.365  44.813   4.601
 2908W        W69317  23.062  17.100   0.362
 2909W        W69318  42.238   0.806  12.984
 2910W        W69319  25.391  20.061   3.056
 2911W        W69320  28.850  41.849   1.910
 2912W        W69321  40.951  26.394  11.897
 2913W        W69322  30.985  25.010   1.746
 2914W        W69323  26.159  36.046  11.574
 2915W        W69324  17.286  13.612   1.869
 2916W        W69325  24.665   0.533   1.446
 2917W        W69326  28.815  15.662   4.092
 2918W        W69327   3.852  15.532  14.978
 2919W        W69328   0.708   6.467  12.650
 2920W        W69329   2.111   9.999   2.268
 2921W        W69330  42.768  44.926  10.758
 2922W        W69331  35.232  20.077  13.867
 2923W        W69332  19.600   3.425  11.846
 2924W        W69333  19.472  21.534  13.473
 2925W        W69334  31.123  14.373   1.838
 2926W        W69335   0.666  16.119   3.859
 2927W        W69336  25.078  25.186   1.764
 2928W        W69337   2.544  40.720  14.018
 2929W        W69338  38.198   9.701   4.425
 2930W        W69339  21.558  33.420   4.300
 2931W        W69340  14.586   8.782   2.012
 2932W        W69341  29.216  42.146  12.918
 2933W        W69342  42.604  29.168   5.017
 2934W        W69343  36.858  25.628   1.305
 2935W        W69344  19.596  15.188  13.888
 2936W        W69345  12.794   2.136  14.830
 2937W        W69346  28.572  33.430   4.105
 2938W        W69347   1.348  20.477   4.559
 2939W        W69348  43.987   5.801   4.906
 2940W        W69349   5.875   3.239   1.906
 2941W        W69350  22.133  12.107  12.446
 2942W        W69351   5.279  32.409   3.651
 2943W        W69352  30.412  26.494   1.032
 2944W        W69353  20.913   1.097   5.167
 2945W        W69354  36.857  43.470  12.057
 2946W        W69355  14.837  14.870  14.337
 2947W        W69356  28.687  26.862   0.898
 2948W        W69357   1.241  28.093  13.279
 2949W        W69358  16.936  24.237   2.522
 2950W        W69359  34.881  15.332  12.487
 2951W        W69360  14.266  44.606  10.733
 2952W        W69361  32.439  17.073   1.388
 2953W        W69362  35.586  10.732  14.841
 2954W        W69363  34.464   6.581  14.567
 2955W        W69364  19.084   3.274   1.529
 2956W        W69365   5.461  27.957  10.588
 2957W        W69366  20.934  32.528  11.964
 2958W        W69367   5.691  19.194   0.727
 2959W        W69368   5.671  17.140  13.816
 2960W        W69369  19.711  43.684   2.228
 2961W        W69370  33.544  37.231  12.950
 2962W        W69371   4.196  21.733   0.418
 2963W        W69372  40.613  11.650   3.278
 2964W        W69373   0.859   0.929   3.772
 2965W        W69374   4.048  30.688  12.453
 2966W        W69375   8.941  26.994   0.059
 2967W        W69376  10.545  11.669  14.412
 2968W        W69377  27.022  25.197  13.058
 2969W        W69378  11.862   6.038  12.662
 2970W        W69379  10.444   9.376   4.214
 2971W        W69380  39.702  23.763   3.396
 2972W        W69381  26.496   1.149   0.178
 2973W        W69382  15.390  12.400   3.648
 2974W        W69383  23.005   5.003   4.075
 2975W        W69384  37.431  41.731   3.597
 2976W        W69385   2.471   8.695   0.514
 2977W        W69386  44.201   0.089  12.511
 2978W        W69387  23.450  18.313  11.974
 2979W        W69388  16.085  23.612  12.147
 2980W        W69389  44.398  23.910  13.436
 2981W        W69390  31.423  41.936   3.172
 2982W        W69391  20.426  10.292  12.178
 2983W        W69392  20.996  15.303   0.858
 2984W        W69393  28.586  18.592  11.957
 2985W        W69394  18.694   9.544   0.849
 2986W        W69395  25.773  30.403   2.881
 2987W        W69396  19.235  32.350   0.042
 2988W        W69397  12.761  30.953  13.042
 2989W        W69398  38.040  36.424  10.910
 2990W        W69399   4.812  27.552   4.571
 2991W        W69400   5.287   9.382   1.319
 2992W        W69401  18.709  13.571  11.498
 2993W        W69402  39.145  21.295   3.656
 2994W        W69403  23.256   0.488   4.646
 2995W        W69404  16.797  19.792  13.268
 2996W        W69405  20.032  22.073  13.495
 2997W        W69406  24.765  20.582  14.964
 2998W        W69407  16.639  28.745   0.509
 2999W        W69408  35.827  14.749  14.846
 3000W        W69409   6.215  13.587   2.270
 3001W        W69410  35.623  27.591  12.500
 3002W        W69411  28.039  30.202   3.839
 3003W        W69412  23.151  14.226   3.733
 3004W        W69413  10.576  26.031  10.786
 3005W        W69414  12.806  18.562   3.443
 3006W        W69415  26.556  22.205   3.047
 3007W        W69416   6.284  18.584   2.392
 3008W        W69417  44.891   7.640   3.201
 3009W        W69418  27.137  34.360   0.402
 3010W        W69419  43.029  44.720  11.158
 3011W        W69420  16.712   0.597  11.161
 3012W        W69421   0.878  26.176   4.659
 3013W        W69422  39.600  28.634   2.708
 3014W        W69423  28.767  32.951  12.107
 3015W        W69424  32.077  29.733   4.594
 3016W        W69425  15.183  11.348  14.806
 3017W        W69426  11.260   9.476  10.884
 3018W        W69427  22.268  23.288  11.042
 3019W        W69428  39.416   7.259   3.689
 3020W        W69429   1.424   8.925  11.662
 3021W        W69430  33.786  29.512   0.621
 3022W        W69431  34.834  15.309  13.434
 3023W        W69432  28.587  25.097  14.046
 3024W        W69433  21.139  34.424  12.076
 3025W        W69434  39.240  29.506  11.091
 3026W        W69435  39.062   1.244   2.227
 3027W        W69436  42.979  15.968  13.733
 3028W        W69437  25.160  34.288   1.863
 3029W        W69438  12.243  24.211   3.674
 3030W        W69439  16.826  19.205  10.734
 3031W        W69440  27.282  21.644   2.242
 3032W        W69441  42.674  35.113   4.586
 3033W        W69442  44.412  32.308  10.911
 3034W        W69443   1.788   4.479  11.596
 3035W        W69444  16.940  26.283  13.046
 3036W        W69445  14.237  10.851  10.660
 3037W        W69446  43.137  21.332   1.398
 3038W        W69447  44.963  26.622  11.608
 3039W        W69448  31.277  28.414  13.948
 3040W        W69449  18.898  10.729  12.458
 3041W        W69450  36.414  42.188   3.236
 3042W        W69451  35.359  37.702  11.482
 3043W        W69452   2.828  12.929   1.668
 3044W        W69453   9.595  42.608   3.310
 3045W        W69454  34.671  18.094   1.001
 3046W        W69455  11.757  28.413  12.937
 3047W        W69456  43.427   5.419   0.448
 3048W        W69457  33.757  22.776   3.815
 3049W        W69458  18.770  17.810  14.994
 3050W        W69459  36.888  27.727   3.727
 3051W        W69460  38.542  42.555  12.449
 3052W        W69461   3.980  38.173   3.610
 3053W        W69462  37.323  36.522   0.441
 3054W        W69463  30.810  15.821   0.810
 3055W        W69464  10.607  27.705  10.619
 3056W        W69465  38.137  23.661   1.589
 3057W        W69466  40.311  37.326  10.955
 3058W        W69467  23.230  43.945  14.855
 3059W        W69468  25.793   8.576   3.372
 3060W        W69469  12.695  37.723   0.869
 3061W        W69470  33.834  25.631   3.447
 3062W        W69471   5.297  40.490   4.761
 3063W        W69472  23.171  29.209  12.587
 3064W        W69473  27.916  34.740   1.789
 3065W        W69474   7.247  17.052  11.343
 3066W        W69475  21.727   3.394   2.415
 3067W        W69476  34.473  28.374  12.088
 3068W        W69477  11.141  14.136  14.556
 3069W        W69478  43.977  26.915  14.867
 3070W        W69479  14.579   9.707  13.901
 3071W        W69480  40.633  42.474  12.878
 3072W        W69481  25.421   5.148   4.887
 3073W        W69482   5.787  35.870  13.391
 3074W        W69483   3.646  43.867   4.668
 3075W        W69484   6.136  20.567  12.911
 3076W        W69485  21.113  28.489  11.521
 3077W        W69486  17.066   7.429   0.819
 3078W        W69487   3.253  18.514  14.434
 3079W        W69488  12.055  33.012   1.708
 3080W        W69489  18.931  11.775  11.939
 3081W        W69490   9.144  37.491   1.924
 3082W        W69491  26.447  10.398  14.305
 3083W        W69492   3.517  25.459   4.155
 3084W        W69493  30.657  35.024   0.241
 3085W        W69494  23.830   6.266  14.234
 3086W        W69495  23.245  43.283   0.774
 3087W        W69496  20.489  26.969   4.068
 3088W        W69497  40.809  42.870   4.338
 3089W        W69498  28.159  12.656   4.610
 3090W        W69499  22.080   0.718   4.129
 3091W        W69500  40.742  10.754  14.073
 3092W        W69501  29.569   1.052   3.222
 3093W        W69502  28.379   3.403   2.194
 3094W        W69503  23.576  24.747  14.508
 3095W        W69504  21.994   9.249   2.937
 3096W        W69505  16.943  21.215   2.784
 3097W        W69506  21.681  38.439  11.482
 3098W        W69507  29.060   7.355  13.351
 3099W        W69508   9.434   5.706   0.894
 3100W        W69509  27.414  29.166   0.748
 3101W        W69510  18.137   4.485   2.835
 3102W        W69511  13.213   4.555   5.000
 3103W        W69512  27.833  29.440   2.350
 3104W        W69513  27.385  34.287  12.557
 3105W        W69514  42.904  20.053   3.346
 3106W        W69515  34.293   2.395   4.520
 3107W        W69516  13.732  38.051   2.240
 3108W        W69517  25.231  30.898  13.094
 3109W        W69518  44.298  42.923   1.046
 3110W        W69519  41.758  10.524  12.368
 3111W        W69520   4.308  27.728   4.494
 3112W        W69521  13.759  23.328  14.962
 3113W        W69522  32.616   8.193   2.366
 3114W        W69523   5.918  34.284  12.580
 3115W        W69524   6.262  28.447  12.587
 3116W        W69525   6.163  27.650  12.088
 3117W        W69526  10.790  24.590   3.933
 3118W        W69527   5.743  13.346   2.160
 3119W        W69528   4.847  10.105   0.648
 3120W        W69529  35.071  16.059  10.470
 3121W        W69530  26.106  27.494   1.774
 3122W        W69531  39.852  20.792  10.613
 3123W        W69532  35.509  29.364   3.669
 3124W        W69533   0.069   1.928   4.244
 3125W        W69534   9.571   8.718  14.775
 3126W        W69535  16.964  28.219  11.262
 3127W        W69536  27.947   6.372   3.348
 3128W        W69537  31.165  18.510   0.346
 3129W        W69538  23.334  35.427   1.413
 3130W        W69539   5.505  33.291  13.483
 3131W        W69540   2.936  38.810   1.771
 3132W        W69541   2.981  27.650  14.365
 3133W        W69542  32.206  37.257   4.616
 3134W        W69543  33.940  31.178   1.775
 3135W        W69544  31.846  27.387  12.966
 3136W        W69545  39.334  18.852  11.539
 3137W        W69546  31.897  37.233   0.287
 3138W        W69547  33.620  34.767  14.029
 3139W        W69548   0.843  12.759  11.913
 3140W        W69549  37.448   1.458   4.144
 3141W        W69550  42.920  29.540  12.566
 3142W        W69551   5.430  19.606  12.547
 3143W        W69552  40.442  39.459   0.940
 3144W        W69553  13.519   1.833  12.415
 3145W        W69554  23.742  20.960  13.120
 3146W        W69555   7.189   1.379   3.497
 3147W        W69556  26.773  29.375   4.064
 3148W        W69557  12.361  16.883   2.224
 3149W        W69558  12.148  33.049   3.203
 3150W        W69559  22.755  27.031  13.961
 3151W        W69560   6.173   9.604   3.512
 3152W        W69561  17.107  38.299   2.313
 3153W        W69562  29.502  30.825   2.726
 3154W        W69563   7.010  41.974   0.587
 3155W        W69564   6.690  25.131   2.373
 3156W        W69565   9.980  39.370  10.598
 3157W        W69566  14.552  40.401   3.777
 3158W        W69567   1.023  24.170  14.844
 3159W        W69568  25.151  18.798   3.642
 3160W        W69569   1.008  38.976   0.431
 3161W        W69570  16.470  14.074  14.377
 3162W        W69571   6.738  29.448  14.888
 3163W        W69572  33.493  30.514  10.660
 3164W        W69573  17.280  17.746  14.104
 3165W        W69574   2.341  41.735  11.217
 3166W        W69575  27.044  29.219   0.054
 3167W        W69576  30.650   8.807  14.823
 3168W        W69577  34.613  17.531  12.119
 3169W        W69578  15.730   8.598  11.430
 3170W        W69579  10.034  18.503  11.233
 3171W        W69580  23.077  20.244   3.744
 3172W        W69581  25.429  17.473   9.932
 3173W        W69582  25.685  10.700   4.098
 3174W        W69583  32.456  25.693   2.244
 3175W        W69584  28.106   2.963  11.371
 3176W        W69585  20.470  21.565  13.380
 3177W        W69586  25.983   0.007   0.803
 3178W        W69587   8.403   9.741   3.307
 3179W        W69588  12.151  30.913  13.810
 3180W        W69589  18.780  17.797  14.119
 3181W        W69590  31.252  22.400   4.368
 3182W        W69591  38.989   4.628   4.836
 3183W        W69592  10.790  38.585  14.493
 3184W        W69593   4.712  32.826  10.224
 3185W        W69594  24.873  30.396  11.210
 3186W        W69595  21.480  24.251   1.399
 3187W        W69596   5.071  21.251   3.238
 3188W        W69597  44.929  26.772  13.246
 3189W        W69598  24.059  28.473  12.902
 3190W        W69599  18.976  34.387  13.575
 3191W        W69600  21.494  20.396   4.552
 3192W        W69601  28.410  40.477  11.567
 3193W        W69602  27.734  10.640  12.445
 3194W        W69603   7.197  29.534   4.191
 3195W        W69604  34.469   4.338   0.776
 3196W        W69605   5.223  30.492  11.080
 3197W        W69606   5.168  25.630  13.355
 3198W        W69607  17.238  20.402   3.853
 3199W        W69608  22.109   8.610   4.968
 3200W        W69609   2.336   1.052  14.271
 3201W        W69610  20.378  34.527   4.937
 3202W        W69611  14.151  34.817  14.937
 3203W        W69612   4.232  15.575  12.571
 3204W        W69613  26.756  40.484  14.480
 3205W        W69614  26.679  12.394   0.975
 3206W        W69615   6.744  23.270  14.045
 3207W        W69616  25.759  39.468   3.431
 3208W        W69617  36.368  36.987  14.452
 3209W        W69618  38.410   3.257   4.483
 3210W        W69619  37.492  16.553  10.715
 3211W        W69620  29.191   6.539   3.102
 3212W        W69621  33.466  29.179   2.687
 3213W        W69622  17.694  41.179   1.367
 3214W        W69623  22.035  29.697   2.864
 3215W        W69624  42.970   5.411   3.412
 3216W        W69625  44.745  21.754   3.266
 3217W        W69626   8.466  16.819  14.830
 3218W        W69627  11.917  39.276   0.670
 3219W        W69628  36.130  19.053   1.697
 3220W        W69629  30.373  41.973   0.202
 3221W        W69630  20.922  43.975  10.077
 3222W        W69631  34.411  39.949   0.545
 3223W        W69632  18.622  31.587   3.294
 3224W        W69633  23.021  14.388   2.622
 3225W        W69634   1.010  22.315  13.349
 3226W        W69635   6.005  24.953   3.158
 3227W        W69636  14.249  34.244  11.652
 3228W        W69637   7.056   6.728   1.774
 3229W        W69638  24.890  23.492  11.953
 3230W        W69639   0.333  42.171   3.168
 3231W        W69640  19.268  35.975   1.382
 3232W        W69641  34.677  18.803  11.564
 3233W        W69642  33.041  10.893  13.846
 3234W        W69643   2.048  20.669   0.295
 3235W        W69644  29.051   0.997   3.084
 3236W        W69645  17.162  14.305   4.094
 3237W        W69646   0.202  14.353   2.875
 3238W        W69647   4.348   7.842   0.823
 3239W        W69648   7.768  20.067  11.156
 3240W        W69649  31.442  22.735  11.434
 3241W        W69650   4.631  32.684  14.011
 3242W        W69651  38.978  24.947   2.070
 3243W        W69652  41.357  12.867  11.629
 3244W        W69653  32.407  18.700  10.791
 3245W        W69654  12.265  17.277   0.055
 3246W        W69655  42.104   7.943  12.911
 3247W        W69656   6.585  32.401  14.918
 3248W        W69657   8.605  29.276  14.836
 3249W        W69658  37.913  18.347   0.581
 3250W        W69659  20.957  41.322   3.299
 3251W        W69660  33.015  20.548  14.545
 3252W        W69661  14.650   3.143   0.852
 3253W        W69662  15.281   9.708   0.262
 3254W        W69663   0.011  40.354   4.594
 3255W        W69664   7.825  21.427  11.330
 3256W        W69665  37.803   3.114   3.540
 3257W        W69666   6.189  38.953  11.555
 3258W        W69667  20.027   5.420   2.746
 3259W        W69668  33.636  23.696  13.660
 3260W        W69669  41.067  20.589  12.408
 3261W        W69670  17.720  12.083   0.272
 3262W        W69671  11.178   8.742   4.242
 3263W        W69672  44.528  26.941  13.578
 3264W        W69673   6.498  43.259  12.947
 3265W        W69674  10.358  29.721  14.946
 3266W        W69675   6.822   8.130   0.185
 3267W        W69676   6.645  10.386   3.190
 3268W        W69677  15.415  12.713  13.953
 3269W        W69678  22.036  12.143   2.339
 3270W        W69679  24.964  25.555  10.704
 3271W        W69680  31.637  19.776   1.432
 3272W        W69681   2.588  29.907   4.140
 3273W        W69682  36.869  30.414  11.937
 3274W        W69683   8.774  33.117  12.414
 3275W        W69684  39.844  40.061  14.058
 3276W        W69685   4.882  29.903   3.398
 3277W        W69686  15.828  14.971   3.403
 3278W        W69687   2.963  18.995  11.079
 3279W        W69688  12.278  44.427  13.319
 3280W        W69689  40.495   0.378   2.427
 3281W        W69690   9.574  15.619   5.040
 3282W        W69691  29.063  14.220  13.917
 3283W        W69692  16.190  25.908   0.397
 3284W        W69693  17.249  36.444   3.740
 3285W        W69694  32.028  17.174  13.853
 3286W        W69695   0.935   3.836   1.222
 3287W        W69696  40.364   3.994  10.716
 3288W        W69697  39.152  19.084   0.485
 3289W        W69698  43.101  22.057   2.287
 3290W        W69699  17.296   2.709   4.998
 3291W        W69700  21.778  14.645   4.636
 3292W        W69701  35.343  32.733   3.272
 3293W        W69702  20.071  18.280   4.267
 3294W        W69703   9.847  41.909  14.379
 3295W        W69704   1.266  12.411  11.897
 3296W        W69705  14.371  41.499  11.221
 3297W        W69706  26.700  20.270  12.332
 3298W        W69707  12.588  14.239   4.582
 3299W        W69708  38.464  28.232  12.587
 3300W        W69709   5.376  17.680   1.252
 3301W        W69710  19.628  40.025   2.239
 3302W        W69711  43.961   2.694  10.631
 3303W        W69712  23.268   3.331   1.717
 3304W        W69713   1.420  27.004   4.504
 3305W        W69714  36.438  26.952  13.400
 3306W        W69715  32.111  30.727  12.994
 3307W        W69716  19.274  38.380  11.583
 3308W        W69717  24.513  42.945   5.050
 3309W        W69718  14.723  39.573   0.169
 3310W        W69719  33.501  32.628   0.871
 3311W        W69720  26.167  11.305  13.307
 3312W        W69721  34.800  11.463  12.302
 3313W        W69722  41.055  13.619  14.864
 3314W        W69723  15.373  28.468   0.196
 3315W        W69724  36.394  39.433  13.382
 3316W        W69725  15.394  31.939   4.565
 3317W        W69726   6.756  38.711  13.047
 3318W        W69727  44.283  22.980  13.051
 3319W        W69728  17.064  32.726   2.290
 3320W        W69729  17.088  39.106   0.300
 3321W        W69730  44.448   4.158  11.122
 3322W        W69731  29.051  34.896  14.054
 3323W        W69732  11.663  17.237  12.354
 3324W        W69733  34.310   2.908  12.967
 3325W        W69734  21.326  24.378  11.110
 3326W        W69735  20.704   4.064   1.411
 3327W        W69736  22.867  21.785   2.745
 3328W        W69737  28.364   9.370  12.965
 3329W        W69738  30.903  37.613  11.599
 3330W        W69739  23.563  17.570  12.553
 3331W        W69740   4.351   8.920  14.139
 3332W        W69741  10.293   0.779   0.341
 3333W        W69742  29.177  40.473  12.765
 3334W        W69743  29.671   3.678  12.738
 3335W        W69744   8.501  40.070   2.417
 3336W        W69745  14.203  25.513  13.552
 3337W        W69746   9.569  38.515  13.057
 3338W        W69747  38.501  19.104   3.664
 3339W        W69748  29.118  29.971   0.734
 3340W        W69749  35.481  28.672  12.016
 3341W        W69750  27.189  10.597  13.796
 3342W        W69751  17.862  22.764  11.242
 3343W        W69752  26.228  19.935  12.118
 3344W        W69753  14.791  34.530  14.002
 3345W        W69754   6.637   6.718   2.753
 3346W        W69755  36.086  39.050  13.573
 3347W        W69756  37.506   5.300  12.865
 3348W        W69757  22.107  39.824  14.165
 3349W        W69758  20.079  11.794  14.937
 3350W        W69759  29.683  38.793  13.991
 3351W        W69760   0.506  34.666   0.476
 3352W        W69761  12.358  34.058  13.764
 3353W        W69762  26.228  21.486   3.259
 3354W        W69763   4.739  31.023  11.709
 3355W        W69764  30.058  44.061   3.580
 3356W        W69765  26.544  11.312   3.900
 3357W        W69766   8.757  16.067  11.522
 3358W        W69767  28.545  42.330   3.835
 3359W        W69768   6.220  32.498   3.981
 3360W        W69769  11.326  25.749  11.455
 3361W        W69770  39.107  34.005  12.903
 3362W        W69771  12.940  30.903   4.017
 3363W        W69772  15.182  16.237  14.271
 3364W        W69773  23.467  35.899   1.675
 3365W        W69774  22.256  41.121   4.230
 3366W        W69775   6.384  21.331   4.561
 3367W        W69776   5.315  15.210   0.528
 3368W        W69777  44.173  39.015   0.737
 3369W        W69778  19.211  33.533   0.706
 3370W        W69779   6.496  34.345  15.000
 3371W        W69780  42.319  29.660  13.413
 3372W        W69781  40.395  18.853  12.952
 3373W        W69782   8.399  12.722  11.848
 3374W        W69783  28.510  22.005  13.811
 3375W        W69784   1.425   1.989  12.403
 3376W        W69785  10.183   7.903   4.623
 3377W        W69786   7.113  21.618  12.927
 3378W        W69787  44.671  42.434  10.367
 3379W        W69788   3.268  34.942  14.975
 3380W        W69789   8.057   9.190  12.342
 3381W        W69790  23.483  42.852  11.445
 3382W        W69791  27.065  34.702   3.229
 3383W        W69792   0.872  20.533  11.984
 3384W        W69793   9.780   9.352   3.103
 3385W        W69794  44.963  18.435   3.274
 3386W        W69795  18.915  44.784  11.122
 3387W        W69796  23.722   4.750  12.887
 3388W        W69797  35.577  41.925  10.730
 3389W        W69798  13.998  22.783  10.630
 3390W        W69799  29.166  33.184   2.934
 3391W        W69800  13.777   5.264  12.175
 3392W        W69801  41.035  37.369   3.077
 3393W        W69802   9.929  31.569  12.044
 3394W        W69803  36.943  16.633   2.922
 3395W        W69804  28.413   6.712   4.037
 3396W        W69805   4.326  25.603  13.978
 3397W        W69806  41.530   1.308  12.123
 3398W        W69807  34.062  17.078  13.899
 3399W        W69808  44.331  17.190  12.045
 3400W        W69809  17.484  20.066   4.133
 3401W        W69810  24.938  20.145  11.138
 3402W        W69811   2.538  15.299   2.880
 3403W        W69812  19.010  39.289  13.285
 3404W        W69813  16.783  30.588  11.980
 3405W        W69814  20.030  18.289   0.070
 3406W        W69815  33.362   6.033   1.894
 3407W        W69816  26.508  12.960  13.101
 3408W        W69817   0.558  28.971  13.512
 3409W        W69818  43.316  16.186  10.957
 3410W        W69819  35.841  25.396   0.367
 3411W        W69820   5.557  34.705  14.791
 3412W        W69821  12.948   8.107  13.546
 3413W        W69822  42.458  37.568   0.901
 3414W        W69823  15.374  44.204  11.187
 3415W        W69824   7.968   4.856   2.268
 3416W        W69825  23.237  12.224   4.240
 3417W        W69826  44.090  30.266  12.123
 3418W        W69827   5.191  30.001   0.937
 3419W        W69828  41.050  21.622   0.968
 3420W        W69829  10.852  12.457   2.734
 3421W        W69830  34.127  27.483  12.455
 3422W        W69831  16.697  25.777   3.241
 3423W        W69832  37.433  25.085   2.771
 3424W        W69833  15.429  26.161  11.381
 3425W        W69834   9.650  41.755   4.328
 3426W        W69835  41.320  14.353  14.279
 3427W        W69836   2.420   2.037   4.659
 3428W        W69837   9.005  39.304   4.748
 3429W        W69838  40.947  28.982   0.973
 3430W        W69839  19.418  38.198   2.262
 3431W        W69840   9.420   1.741  11.513
 3432W        W69841  21.525  43.948  12.355
 3433W        W69842  33.505  10.862  14.828
 3434W        W69843  30.490  26.752  12.882
 3435W        W69844  16.875  16.031  12.047
 3436W        W69845  22.348  12.694   4.699
 3437W        W69846  44.660  27.218  13.152
 3438W        W69847  17.232  17.590   0.870
 3439W        W69848  44.408  38.536  11.188
 3440W        W69849  18.355  20.610  14.228
 3441W        W69850  35.488   3.668  10.725
 3442W        W69851  23.221   2.281  14.350
 3443W        W69852  14.083  26.552   4.280
 3444W        W69853  38.544  30.810  10.684
 3445W        W69854   3.467  28.548   1.744
 3446W        W69855  28.382  43.686  14.678
 3447W        W69856  34.950  22.041   0.731
 3448W        W69857  13.366  26.696  14.757
 3449W        W69858  18.545  16.320  10.737
 3450W        W69859  28.233  12.656   3.772
 3451W        W69860   8.390  41.260  13.507
 3452W        W69861  42.956  14.125  11.832
 3453W        W69862  33.455  10.273  11.788
 3454W        W69863  19.436  11.656   1.187
 3455W        W69864   0.056   4.699  13.180
 3456W        W69865  18.740  25.906  14.464
 3457W        W69866  15.575  39.451  14.439
 3458W        W69867   5.804   3.733  11.762
 3459W        W69868  15.853   2.298   3.872
 3460W        W69869  38.088  27.031   2.570
 3461W        W69870  23.141  29.528   2.775
 3462W        W69871   6.434  44.408   0.948
 3463W        W69872  27.459  22.107  11.198
 3464W        W69873  33.501  38.484   0.897
 3465W        W69874   8.248  17.320   2.293
 3466W        W69875   2.284  19.557   3.333
 3467W        W69876  13.736  13.731   0.786
 3468W        W69877  29.813  19.613  10.788
 3469W        W69878  10.361  21.249   1.474
 3470W        W69879  37.586  12.764  13.482
 3471W        W69880  37.908  35.650   1.032
 3472W        W69881  26.553   6.215  11.163
 3473W        W69882  28.013  24.270   4.183
 3474W        W69883  29.453  29.112  11.418
 3475W        W69884  33.950  44.713  11.983
 3476W        W69885  40.778  21.808   0.525
 3477W        W69886  19.038  17.327   2.753
 3478W        W69887  17.624  22.586   4.314
 3479W        W69888  37.391  30.972   0.793
 3480W        W69889  19.064  40.421  11.519
 3481W        W69890  14.678  14.184   0.853
 3482W        W69891  16.000  11.176  10.432
 3483W        W69892  23.523  19.014  12.414
 3484W        W69893  31.943  12.340  13.026
 3485W        W69894  41.479  28.513  13.431
 3486W        W69895  26.946  30.079  14.463
 3487W        W69896  15.140  17.724  10.690
 3488W        W69897   7.622  29.450  14.037
 3489W        W69898   7.816  37.901  12.754
 3490W        W69899   0.779  36.590  13.371
 3491W        W69900  15.769  38.093  13.709
 3492W        W69901  40.421  40.465   4.187
 3493W        W69902   2.004  36.594   3.560
 3494W        W69903  11.224  12.113   3.545
 3495W        W69904  21.908  38.323   1.422
 3496W        W69905  34.677   4.726  10.655
 3497W        W69906  42.702  39.862   2.150
 3498W        W69907  31.636  36.476   0.282
 3499W        W69908   7.204   1.891  11.241
 3500W        W69909  20.874  12.523  12.244
 3501W        W69910  28.628  13.314   4.253
 3502W        W69911   7.693  39.920  14.979
 3503W        W69912  19.071  14.194  13.082
 3504W        W69913   2.721  31.431  14.522
 3505W        W69914   9.560  24.083  11.582
 3506W        W69915  15.217   0.476   9.551
 3507W        W69916  35.440   0.255  13.273
 3508W        W69917  44.182  16.214  11.375
 3509W        W69918   0.917  15.179   1.273
 3510W        W69919  13.084  11.648  12.074
 3511W        W69920  18.116  40.954   3.305
 3512W        W69921  36.534   2.262   4.120
 3513W        W69922  39.524  11.411   2.551
 3514W        W69923   4.908   4.494   2.373
 3515W        W69924  15.886  39.603   2.626
 3516W        W69925   3.754  20.684   2.290
 3517W        W69926  31.062   0.093  13.479
 3518W        W69927  12.855  17.182   2.355
 3519W        W69928   8.688   6.910   0.330
 3520W        W69929   0.627   6.732  11.137
 3521W        W69930  23.008  44.767   3.384
 3522W        W69931  28.653  10.038   3.118
 3523W        W69932   9.736  12.286   0.927
 3524W        W69933   7.167   3.512   2.248
 3525W        W69934  39.341  16.909   3.453
 3526W        W69935   0.944  43.552   2.774
 3527W        W69936   1.554  35.076   2.280
 3528W        W69937  31.514  29.680  11.646
 3529W        W69938  11.615   3.468  14.040
 3530W        W69939  12.814   7.232  13.811
 3531W        W69940  15.676  13.894   1.914
 3532W        W69941  30.321  27.557  14.387
 3533W        W69942  12.546  35.527  10.931
 3534W        W69943  33.806   2.822  14.733
 3535W        W69944  40.927  34.339  12.872
 3536W        W69945   8.679  21.110   1.966
 3537W        W69946  25.695  27.263   2.851
 3538W        W69947  21.673  31.565   3.178
 3539W        W69948  26.760   7.921   3.588
 3540W        W69949  42.980  40.356   4.849
 3541W        W69950  20.968  41.742  11.236
 3542W        W69951  13.901   1.761   0.559
 3543W        W69952  28.021  44.880   4.535
 3544W        W69953  15.120  32.693  14.045
 3545W        W69954   4.873   7.494   4.096
 3546W        W69955  42.703  17.561  13.312
 3547W        W69956  37.919  28.608  13.003
 3548W        W69957  16.777  32.015   4.465
 3549W        W69958  21.079  37.892   1.785
 3550W        W69959  25.174  17.363  14.006
 3551W        W69960  20.030  17.028  11.207
 3552W        W69961  26.924  37.060  14.272
 3553W        W69962  35.117  20.366  14.300
 3554W        W69963  34.235  44.186   3.720
 3555W        W69964  33.284  42.498  11.489
 3556W        W69965  13.060  35.018  12.969
 3557W        W69966   8.828  34.071   1.928
 3558W        W69967  18.499  44.868   1.015
 3559W        W69968   9.732   5.304  11.446
 3560W        W69969  29.003   5.026  11.913
 3561W        W69970  18.907  16.149   4.701
 3562W        W69971  44.482   3.937   1.902
 3563W        W69972   0.028  27.065  12.323
 3564W        W69973  33.928   5.314   2.879
 3565W        W69974  18.954   2.624   0.689
 3566W        W69975  39.672  29.013   4.105
 3567W        W69976  22.214   7.721   4.380
 3568W        W69977   1.350  13.308  10.795
 3569W        W69978  36.518   8.236  11.901
 3570W        W69979   0.427  29.739  13.887
 3571W        W69980  13.893  40.332  11.808
 3572W        W69981   9.874   6.682   2.506
 3573W        W69982   9.686  28.652  11.455
 3574W        W69983  34.025  36.470  10.982
 3575W        W69984  16.286  41.974  11.453
 3576W        W69985  34.484   2.234  11.968
 3577W        W69986  13.879  14.565  14.702
 3578W        W69987  25.419  18.036  14.073
 3579W        W69988  21.501  20.009  12.434
 3580W        W69989  31.533   1.760  12.642
 3581W        W69990  30.380  28.633   0.795
 3582W        W69991   5.239  29.724  14.701
 3583W        W69992   4.111   7.416  13.064
 3584W        W69993  39.796  43.831  11.211
 3585W        W69994  22.630  21.177   0.245
 3586W        W69995  32.036   4.765   4.950
 3587W        W69996  15.348   0.332   0.899
 3588W        W69997  22.240  38.522  10.595
 3589W        W69998  23.286  34.994   0.234
 3590W        W69999   0.096  14.699   0.365
 3591W        W70000  42.895   1.446  14.700
 3592W        W70001  44.402  34.398   2.657
 3593W        W70002   1.570  20.259  13.139
 3594W        W70003   3.288  35.616  14.434
 3595W        W70004  25.003   8.873  13.946
 3596W        W70005   7.815  42.496   4.833
 3597W        W70006  17.448  18.062   2.715
 3598W        W70007  26.058  37.314   3.263
 3599W        W70008  15.379  43.807   3.338
 3600W        W70009  42.276  13.362  13.518
 3601W        W70010  25.366  12.124   2.104
 3602W        W70011  37.091   0.011  12.014
 3603W        W70012   2.898   2.429  11.699
 3604W        W70013  14.192  39.538   1.891
 3605W        W70014  41.671  14.913  11.703
 3606W        W70015  19.831  33.897   1.347
 3607W        W70016  10.968  19.007  13.372
 3608W        W70017  26.765  43.802  14.498
 3609W        W70018  42.976   9.559   0.182
 3610W        W70019  44.012  36.001  13.774
 3611W        W70020  23.726  26.461  12.623
 3612W        W70021  37.135  29.690   0.931
 3613W        W70022  15.122  12.304   0.437
 3614W        W70023  21.233   8.200  13.095
 3615W        W70024   0.059  24.751   4.353
 3616W        W70025  10.850  40.371   0.842
 3617W        W70026  19.266  13.105   2.626
 3618W        W70027  22.831  25.006   0.177
 3619W        W70028  36.544  19.722  12.399
 3620W        W70029  22.484  39.408   1.341
 3621W        W70030  42.313  35.232   0.849
 3622W        W70031   6.363  39.354  14.986
 3623W        W70032  34.215  21.244  10.978
 3624W        W70033  11.651   9.828   0.974
 3625W        W70034  40.877  16.384   3.794
 3626W        W70035  24.470  31.438   2.071
 3627W        W70036   7.527  18.575   3.972
 3628W        W70037  25.080  29.993  14.746
 3629W        W70038  25.569   4.784  10.536
 3630W        W70039   3.883   9.892  11.347
 3631W        W70040  31.363  38.362  14.916
 3632W        W70041   2.498  43.071   4.485
 3633W        W70042  40.307  18.722   2.773
 3634W        W70043  33.349  38.985  10.629
 3635W        W70044   0.755  23.843   4.133
 3636W        W70045  24.520  10.369  13.502
 3637W        W70046   7.467  15.776   0.466
 3638W        W70047  17.946  17.599   1.473
 3639W        W70048  16.068  22.935  13.583
 3640W        W70049  29.904  17.363   3.312
 3641W        W70050  33.452  13.863   1.728
 3642W        W70051  32.301   0.416   2.802
 3643W        W70052  14.256  31.086   0.491
 3644W        W70053  34.502  37.426  11.623
 3645W        W70054  40.856   8.389   1.764
 3646W        W70055   7.378   5.951  12.839
 3647W        W70056  20.054  32.877   4.414
 3648W        W70057  16.143  15.225   0.629
 3649W        W70058  15.114  23.837  11.919
 3650W        W70059  24.158   4.938   3.593
 3651W        W70060   1.855   3.247   3.226
 3652W        W70061  39.447  38.777  13.887
 3653W        W70062  33.816  35.108  13.693
 3654W        W70063  35.385   9.307  12.046
 3655W        W70064  17.622   7.747   3.785
 3656W        W70065  16.518  13.183  14.312
 3657W        W70066  34.015  20.699   3.965
 3658W        W70067  10.413  20.240  13.071
 3659W        W70068  10.282   1.993  12.379
 3660W        W70069  38.659  25.274   4.149
 3661W        W70070  14.911   3.977   4.316
 3662W        W70071  28.993  14.961  13.023
 3663W        W70072  19.691  31.449  11.360
 3664W        W70073  33.697  33.630  13.104
 3665W        W70074  33.868   2.403  14.380
 3666W        W70075  36.474  27.446  11.505
 3667W        W70076  13.323  20.299   0.791
 3668W        W70077   5.635   6.692  14.427
 3669W        W70078  29.879  25.411   0.787
 3670W        W70079  13.789  27.726  13.971
 3671W        W70080  38.674  41.528  12.569
 3672W        W70081  37.371   4.402   3.188
 3673W        W70082  15.124  23.496   0.818
 3674W        W70083  18.875  19.678   2.907
 3675W        W70084  17.011  44.946  12.683
 3676W        W70085  23.950  43.712   3.722
 3677W        W70086  24.517  27.499   4.681
 3678W        W70087   3.381  26.007  12.394
 3679W        W70088   4.471  10.743  13.940
 3680W        W70089  13.074   9.280  13.560
 3681W        W70090  14.484  35.889   1.895
 3682W        W70091  41.927   3.279  14.547
 3683W        W70092  34.726   3.904   5.027
 3684W        W70093  30.113  30.472  12.097
 3685W        W70094  40.297  19.944   0.439
 3686W        W70095  33.586  16.055   2.723
 3687W        W70096  24.981  40.318   1.311
 3688W        W70097  23.478   9.754   3.649
 3689W        W70098  37.939   8.865   4.466
 3690W        W70099  29.014  12.411  13.838
 3691W        W70100  36.812   3.071   3.120
 3692W        W70101  13.268  24.260   3.201
 3693W        W70102  31.170   6.561  14.028
 3694W        W70103  26.984  39.995  14.994
 3695W        W70104  27.566   0.676  10.736
 3696W        W70105  20.078  23.590  11.118
 3697W        W70106  30.040   6.436  11.915
 3698W        W70107  40.053  33.401   3.403
 3699W        W70108   1.214  16.348   0.769
 3700W        W70109  24.738  30.469  14.436
 3701W        W70110  19.035   1.191  11.229
 3702W        W70111   2.930  18.458  11.128
 3703W        W70112  20.581  12.189  13.134
 3704W        W70113  36.103  40.717   1.755
 3705W        W70114   5.227  41.203   3.135
 3706W        W70115  37.955  22.224  11.116
 3707W        W70116   1.750  16.528   1.828
 3708W        W70117  43.506  43.367   2.731
 3709W        W70118   4.423  38.901  14.043
 3710W        W70119  17.188  36.599   2.795
 3711W        W70120  35.335  22.595  12.987
 3712W        W70121  30.817  10.734   1.723
 3713W        W70122  24.684  16.804   1.905
 3714W        W70123  15.791   9.607   1.891
 3715W        W70124  28.667  29.451   4.469
 3716W        W70125  27.143  13.260   3.287
 3717W        W70126  28.472   0.022  14.138
 3718W        W70127  40.456  18.232   1.790
 3719W        W70128  18.680  43.397  12.422
 3720W        W70129  16.044  20.760  11.961
 3721W        W70130  37.502  42.218   3.709
 3722W        W70131  42.473  29.964  12.999
 3723W        W70132  33.009  20.316   4.710
 3724W        W70133  24.758  12.905   2.813
 3725W        W70134  30.209  12.925   2.779
 3726W        W70135  44.109  17.505   3.738
 3727W        W70136  23.708  12.787  14.455
 3728W        W70137  35.147   2.771   4.797
 3729W        W70138  39.829  31.003   1.711
 3730W        W70139  16.559   7.584  11.721
 3731W        W70140  41.513  20.735  14.216
 3732W        W70141  34.081  23.185   0.139
 3733W        W70142   2.529  17.674  12.457
 3734W        W70143  28.372  39.934  12.901
 3735W        W70144  25.102  42.281  12.110
 3736W        W70145  24.410  33.336   0.361
 3737W        W70146   7.295  36.105   2.289
 3738W        W70147  31.723  39.914   3.747
 3739W        W70148  17.592  37.627  12.417
 3740W        W70149   3.942  44.380   3.222
 3741W        W70150  21.515  14.914  12.882
 3742W        W70151  27.205   1.861   3.258
 3743W        W70152  30.965  10.843  10.650
 3744W        W70153   7.583  14.428  13.858
 3745W        W70154  41.991  39.566  13.737
 3746W        W70155  31.950   6.212  11.124
 3747W        W70156  23.428  40.597   2.174
 3748W        W70157  19.309  34.059  13.325
 3749W        W70158   7.119   1.180  14.303
 3750W        W70159   7.756  15.840  11.507
 3751W        W70160   9.796  14.781  14.832
 3752W        W70161  34.482   6.686   0.826
 3753W        W70162  21.098  41.916   4.364
 3754W        W70163  25.668  30.161   2.433
 3755W        W70164  42.712   3.441  11.493
 3756W        W70165   9.390  24.889   4.495
 3757W        W70166   3.229  17.904  10.628
 3758W        W70167  10.697  29.103  13.425
 3759W        W70168   5.183   1.175  11.070
 3760W        W70169  42.492  23.663  12.494
 3761W        W70170   3.310  11.659  13.242
 3762W        W70171  20.706  27.462   4.253
 3763W        W70172  34.138   0.670  14.051
 3764W        W70173   9.811  15.491  11.957
 3765W        W70174  28.718   9.701   2.710
 3766W        W70175  29.549  42.918  11.147
 3767W        W70176  24.186  24.443  12.469
 3768W        W70177  38.005  10.950   0.123
 3769W        W70178  41.391  30.475   0.497
 3770W        W70179  43.898  44.580   2.384
 3771W        W70180  28.156   4.732   3.260
 3772W        W70181  22.993  37.177  14.388
 3773W        W70182  38.612  37.627  10.714
 3774W        W70183  32.589  25.507  14.053
 3775W        W70184  28.705   5.422  14.414
 3776W        W70185  35.216   1.917  11.465
 3777W        W70186  37.417  42.188   5.308
 3778W        W70187   3.203   1.358   2.065
 3779W        W70188   5.845  43.103   3.700
 3780W        W70189  35.309  35.072   3.634
 3781W        W70190  14.731  13.254  12.017
 3782W        W70191  21.249  18.278   2.700
 3783W        W70192  31.938  39.864  10.684
 3784W        W70193  13.531  29.724  12.685
 3785W        W70194  28.541  31.420  10.941
 3786W        W70195  44.902   1.736   1.748
 3787W        W70196  43.570  26.084  11.811
 3788W        W70197  25.598  22.778  10.484
 3789W        W70198  35.358  26.949   3.928
 3790W        W70199  35.841   2.934   1.413
 3791W        W70200  19.666  26.403   3.678
 3792W        W70201  16.231  26.728  13.103
 3793W        W70202  31.815   1.732   4.196
 3794W        W70203  16.330  16.843  11.111
 3795W        W70204   7.963   4.254  14.594
 3796W        W70205   4.788  30.413  14.754
 3797W        W70206   6.707   3.063  14.474
 3798W        W70207  42.635  25.451   1.970
 3799W        W70208  24.289  13.848  11.900
 3800W        W70209  34.391   6.882  10.372
 3801W        W70210  32.237  25.938  11.133
 3802W        W70211  17.192  11.276  13.333
 3803W        W70212   3.802  39.032  12.075
 3804W        W70213  33.291  32.994   0.133
 3805W        W70214   4.040  40.304   0.256
 3806W        W70215  28.402  29.975   1.864
 3807W        W70216   5.805  15.103   0.714
 3808W        W70217  12.684   4.347   3.398
 3809W        W70218   0.876   3.115   0.898
 3810W        W70219   5.676  35.879  13.912
 3811W        W70220   9.708  44.448   2.845
 3812W        W70221   8.361   0.436   2.547
 3813W        W70222  22.733  40.806   3.462
 3814W        W70223  31.653  44.345  12.313
 3815W        W70224  31.886  15.995   4.262
 3816W        W70225  25.589  27.576  13.133
 3817W        W70226  31.544   5.914   2.095
 3818W        W70227  17.086  36.377   0.136
 3819W        W70228  29.653  29.132  12.361
 3820W        W70229  44.021  26.020  12.058
 3821W        W70230  39.414  13.711  12.309
 3822W        W70231  28.178   1.843   0.494
 3823W        W70232  33.327  19.152   0.365
 3824W        W70233  16.806  36.134   4.101
 3825W        W70234  36.761  39.991   0.586
 3826W        W70235  37.466  40.770  10.934
 3827W        W70236  41.077  29.699  12.908
 3828W        W70237  22.305  17.923  13.042
 3829W        W70238  31.381  22.271  14.840
 3830W        W70239   3.773  13.156   4.648
 3831W        W70240  23.627   8.931   4.511
 3832W        W70241  11.003  31.948  10.558
 3833W        W70242  13.358  27.903   0.435
 3834W        W70243  15.257  13.415  14.687
 3835W        W70244   0.044  27.093  10.934
 3836W        W70245  32.073  33.513   2.827
 3837W        W70246   3.303  26.048  14.830
 3838W        W70247  16.224  38.157   1.886
 3839W        W70248  34.486   2.576   1.156
 3840W        W70249  15.575   9.751  12.001
 3841W        W70250  33.482  17.457   1.896
 3842W        W70251  11.123  22.191   0.410
 3843W        W70252  24.700   4.009  14.248
 3844W        W70253   6.260  24.226   1.878
 3845W        W70254  32.321  34.449   1.272
 3846W        W70255  37.097  24.045   5.062
 3847W        W70256  33.000  18.243  14.308
 3848W        W70257  28.931   4.383  12.574
 3849W        W70258  44.924   5.172   3.597
 3850W        W70259  26.316  34.006  14.424
 3851W        W70260  39.863   5.214   0.251
 3852W        W70261  30.400  22.296   0.868
 3853W        W70262  22.104  33.160   0.923
 3854W        W70263  40.818  33.171  12.264
 3855W        W70264   3.833   3.742  13.530
 3856W        W70265  12.595  24.089   2.050
 3857W        W70266  36.499   1.353   3.234
 3858W        W70267  39.715   4.603   1.972
 3859W        W70268  16.244  28.996   0.255
 3860W        W70269   7.146  39.066   4.642
 3861W        W70270  14.833  23.635  14.318
 3862W        W70271  18.655  16.181   0.515
 3863W        W70272  26.051  17.644  11.251
 3864W        W70273  35.324  43.332   3.678
 3865W        W70274  18.570  37.450  12.234
 3866W        W70275  21.684  14.267  10.651
 3867W        W70276  17.381  38.147   1.474
 3868W        W70277  11.718  23.691   0.875
 3869W        W70278  37.769  15.119   1.247
 3870W        W70279  25.721  11.276  11.747
 3871W        W70280  38.594  42.897   4.311
 3872W        W70281   9.525  35.077   2.219
 3873W        W70282  19.286  17.845  12.029
 3874W        W70283  44.648   3.090   3.013
 3875W        W70284   9.061  16.771  12.997
 3876W        W70285  21.400  44.941   3.092
 3877W        W70286  19.779  17.345  12.543
 3878W        W70287  23.501  13.702  13.529
 3879W        W70288  30.151  32.407  12.878
 3880W        W70289   2.451   3.334   4.267
 3881W        W70290  13.628   7.669  10.879
 3882W        W70291   7.174  34.024   1.447
 3883W        W70292  14.737  40.385  12.654
 3884W        W70293  15.309  20.522   2.215
 3885W        W70294   4.830   9.094  13.635
 3886W        W70295  16.950  24.770   2.414
 3887W        W70296  18.357  23.209   3.927
 3888W        W70297  41.459  37.532   2.845
 3889W        W70298  24.357  12.504   0.485
 3890W        W70299  16.282  33.704  14.331
 3891W        W70300  34.726  10.515  10.233
 3892W        W70301  13.813  22.814   1.775
 3893W        W70302  19.174  16.809   2.535
 3894W        W70303  13.455  37.442  12.412
 3895W        W70304  40.354   8.654   2.471
 3896W        W70305   0.803  13.133   0.244
 3897W        W70306  12.616  30.420   2.723
 3898W        W70307  14.935  37.387  13.753
 3899W        W70308  11.860  44.770   4.345
 3900W        W70309  39.068   5.235  10.245
 3901W        W70310  28.099   9.728   1.226
 3902W        W70311  43.925   0.718   1.559
 3903W        W70312  40.182  16.376   5.242
 3904W        W70313  44.741   4.355   1.711
 3905W        W70314  18.071   5.397  11.797
 3906W        W70315  42.848   0.314   2.827
 3907W        W70316  26.852  41.385  14.468
 3908W        W70317  41.950   7.259   0.504
 3909W        W70318  31.030  27.053  11.880
 3910W        W70319  26.814  10.417   3.127
 3911W        W70320  23.517  15.073  11.999
 3912W        W70321  25.399  28.081   1.990
 3913W        W70322  10.581  26.927  14.753
 3914W        W70323   1.255   7.810   3.273
 3915W        W70324  26.077   3.851   4.620
 3916W        W70325  23.329  30.809   2.631
 3917W        W70326   4.246  42.444   0.397
 3918W        W70327  42.872  24.632  13.048
 3919W        W70328  11.320  16.801   2.182
 3920W        W70329  24.729  17.228  11.483
 3921W        W70330  27.054   7.594   4.504
 3922W        W70331  20.626   2.945   4.153
 3923W        W70332  24.619  39.542  14.419
 3924W        W70333  31.151  11.424  13.598
 3925W        W70334  22.195   9.701   2.781
 3926W        W70335  14.037  35.068   2.700
 3927W        W70336  24.243  17.152  10.653
 3928W        W70337   3.179  23.385  11.579
 3929W        W70338   2.666   1.272   2.744
 3930W        W70339  39.562  30.393   3.153
 3931W        W70340  21.419  27.496   3.688
 3932W        W70341  17.688  23.278  12.091
 3933W        W70342  13.265  19.054  12.090
 3934W        W70343  13.096  23.564  13.010
 3935W        W70344  11.178  25.074   0.668
 3936W        W70345   9.395  43.876   4.452
 3937W        W70346  17.696  17.249  14.483
 3938W        W70347   8.681  21.508  12.520
 3939W        W70348  40.915  16.044   2.899
 3940W        W70349  15.039   0.880  14.855
 3941W        W70350  35.309  37.364  13.892
 3942W        W70351  37.551  31.623  12.543
 3943W        W70352  43.303  16.123   0.905
 3944W        W70353  35.866   7.651   0.496
 3945W        W70354  33.103  10.460   2.699
 3946W        W70355   2.492  35.323  13.033
 3947W        W70356   2.115   5.974  13.649
 3948W        W70357   4.864  23.754   1.113
 3949W        W70358  34.431   3.750  14.452
 3950W        W70359  17.546  38.025   2.494
 3951W        W70360  23.105  12.719  12.523
 3952W        W70361  24.564  27.980   1.373
 3953W        W70362  30.499  43.464   1.769
 3954W        W70363  42.466  12.363  14.403
 3955W        W70364   2.772  16.270   1.850
 3956W        W70365  31.339   1.670   3.955
 3957W        W70366  29.621  27.448   0.880
 3958W        W70367  27.308  23.892   0.973
 3959W        W70368   2.427  32.150   1.246
 3960W        W70369  22.091  29.437  11.799
 3961W        W70370   7.583   2.874   4.657
 3962W        W70371  25.050  20.387   9.908
 3963W        W70372   1.740  15.011  12.418
 3964W        W70373  21.258  38.734   3.254
 3965W        W70374  31.109  11.261  12.737
 3966W        W70375   4.458   3.369   0.398
 3967W        W70376  14.903   9.071  10.889
 3968W        W70377  17.143  42.969  12.341
 3969W        W70378  26.459   1.838  14.239
 3970W        W70379  35.201  27.402   3.254
 3971W        W70380  31.922  13.346  12.032
 3972W        W70381   2.355   6.322  11.015
 3973W        W70382   6.097  37.923   4.607
 3974W        W70383  44.822  11.142   2.774
 3975W        W70384   0.696  24.079   9.564
 3976W        W70385  15.688  36.032   4.609
 3977W        W70386   2.036  11.824  14.332
 3978W        W70387  25.137  10.857   2.382
 3979W        W70388  38.637  12.913   3.477
 3980W        W70389  10.348  39.809   3.280
 3981W        W70390  40.033  36.939  11.183
 3982W        W70391  39.787  21.103   1.024
 3983W        W70392  35.778  17.031  11.181
 3984W        W70393   3.798   4.644  11.420
 3985W        W70394  37.531  12.775  11.869
 3986W        W70395   6.599   7.737   2.837
 3987W        W70396   5.847  30.225  12.605
 3988W        W70397   5.387  23.103   4.076
 3989W        W70398   6.093  39.506   4.214
 3990W        W70399   6.308  15.072   1.793
 3991W        W70400  17.648  32.261   3.029
 3992W        W70401  18.737  10.353  14.906
 3993W        W70402  40.038   6.253  12.586
 3994W        W70403  22.195  21.450   4.217
 3995W        W70404  14.067  19.540  14.006
 3996W        W70405  10.090  27.927  10.488
 3997W        W70406  16.076  13.599   1.687
 3998W        W70407  38.094  28.400  13.683
 3999W        W70408  24.480  13.295   2.293
 4000W        W70409  21.449  32.136   9.846
 4001W        W70410  22.654  40.665  10.747
 4002W        W70411  26.568  13.943  14.012
 4003W        W70412  15.140   4.481   0.985
 4004W        W70413  42.722  44.381  13.253
 4005W        W70414  38.412  13.707   2.865
 4006W        W70415   8.945  16.063  12.388
 4007W        W70416   5.119  28.458   0.966
 4008W        W70417  19.841  15.714   1.407
 4009W        W70418  38.948  41.945   1.455
 4010W        W70419  28.544  29.991   3.507
 4011W        W70420  37.918  33.406   2.396
 4012W        W70421  14.880  19.745   9.810
 4013W        W70422  16.065  27.966  11.059
 4014W        W70423  28.437   4.275   2.270
 4015W        W70424  35.573  11.616   3.601
 4016W        W70425  14.260  44.060  10.829
 4017W        W70426   9.233   0.295  13.563
 4018W        W70427  22.565  10.176   0.846
 4019W        W70428  39.570  22.622  12.602
 4020W        W70429   9.751  33.658   1.185
 4021W        W70430  20.473   5.143   1.875
 4022W        W70431  31.619  15.092   4.261
 4023W        W70432  18.565  25.209  13.003
 4024W        W70433  13.030  18.249   5.180
 4025W        W70434  26.518  13.201   1.329
 4026W        W70435  34.480   7.874  14.863
 4027W        W70436   0.894  18.175  14.317
 4028W        W70437  10.627  30.489   1.829
 4029W        W70438   2.977   5.885  13.828
 4030W        W70439  17.587  16.190  12.491
 4031W        W70440  13.241  31.000  12.426
 4032W        W70441   0.586  19.272   4.842
 4033W        W70442  29.646  26.943   2.309
 4034W        W70443  34.660   9.505   4.153
 4035W        W70444  11.155  17.545   1.388
 4036W        W70445  17.075  24.662   2.899
 4037W        W70446  29.993  25.972   4.576
 4038W        W70447  23.886   7.290   2.802
 4039W        W70448   6.145  29.649   5.331
 4040W        W70449  15.219  10.378   2.382
 4041W        W70450   9.243   2.044  10.460
 4042W        W70451  42.780   9.129  13.582
 4043W        W70452  33.667   1.443   3.198
 4044W        W70453  25.678  21.630   2.327
 4045W        W70454  32.473  10.228  11.804
 4046W        W70455   3.500  27.230  13.938
 4047W        W70456  31.798   6.045   1.266
 4048W        W70457  16.303  20.386   0.778
 4049W        W70458  13.780   8.154  13.989
 4050W        W70459  22.101  13.863   0.950
 4051W        W70460  11.771   1.266   0.185
 4052W        W70461  21.774  13.895  12.938
 4053W        W70462  16.309  38.535  11.555
 4054W        W70463  39.508  13.361   3.366
 4055W        W70464  11.333   4.321   1.411
 4056W        W70465   2.383   8.799   4.732
 4057W        W70466  18.987  35.626   3.923
 4058W        W70467   2.962   4.008   4.595
 4059W        W70468  38.018  26.671  10.768
 4060W        W70469   7.287  38.245  14.480
 4061W        W70470   4.265  24.457   3.132
 4062W        W70471   9.883  17.058   4.659
 4063W        W70472  28.850  28.778   3.216
 4064W        W70473  42.908  30.959  11.723
 4065W        W70474  13.124  39.763   3.294
 4066W        W70475  42.656  19.380   0.514
 4067W        W70476  35.947   5.766  11.504
 4068W        W70477  29.465  21.352  14.366
 4069W        W70478  14.522   7.696  11.193
 4070W        W70479  14.519  43.453   3.015
 4071W        W70480  18.934  32.016   2.656
 4072W        W70481   0.670  31.590   2.628
 4073W        W70482  31.653  14.058  11.635
 4074W        W70483  18.881  24.948   4.162
 4075W        W70484   1.037  17.643  10.305
 4076W        W70485   2.387   1.193  10.847
 4077W        W70486  36.424  20.717   1.591
 4078W        W70487  19.670   5.362  11.930
 4079W        W70488  11.187  12.990  11.501
 4080W        W70489  29.619  17.864   0.055
 4081W        W70490   8.710   1.838   3.591
 4082W        W70491  22.085  28.878  13.466
 4083W        W70492  43.831  15.858   0.013
 4084W        W70493  31.255   3.181   2.311
 4085W        W70494  27.392  36.190  11.178
 4086W        W70495   7.917   8.154   2.196
 4087W        W70496  40.575  11.910   0.020
 4088W        W70497  27.152   5.832   2.287
 4089W        W70498   6.434  18.059  14.990
 4090W        W70499  29.147   7.249   4.853
 4091W        W70500  43.000  25.400   4.992
 4092W        W70501  34.920  43.907   0.837
 4093W        W70502  42.792  23.492  12.080
 4094W        W70503  18.673  41.044   2.248
 4095W        W70504   6.303  22.709  10.753
 4096W        W70505   4.212  43.698  11.014
 4097W        W70506   5.943  28.952  13.906
 4098W        W70507   6.329  18.027  10.661
 4099W        W70508  23.702   3.386  13.053
 4100W        W70509   8.449  28.346  13.516
 4101W        W70510  25.510  28.146  10.625
 4102W        W70511  21.013  30.568  12.311
 4103W        W70512  29.802  23.721   3.175
 4104W        W70513  13.654  38.547  13.356
 4105W        W70514   4.562  39.776  10.733
 4106W        W70515  28.336  29.029  12.798
 4107W        W70516  39.992  26.635  11.639
 4108W        W70517  43.719  30.653   2.225
 4109W        W70518   4.225  15.703   4.212
 4110W        W70519   8.155  10.320   1.171
 4111W        W70520   8.709   5.854  11.969
 4112W        W70521  43.548  10.489   2.426
 4113W        W70522  41.911   0.819   2.281
 4114W        W70523  38.381  16.395  10.952
 4115W        W70524   4.338  41.466  13.815
 4116W        W70525   7.431  40.832  10.631
 4117W        W70526   0.213  28.713   0.349
 4118W        W70527  39.468   8.739  14.357
 4119W        W70528  29.099  35.041  10.695
 4120W        W70529  19.332  24.715   1.730
 4121W        W70530  43.400  12.869   4.008
 4122W        W70531  31.081   5.448  14.995
 4123W        W70532   9.298  27.904   3.526
 4124W        W70533  38.593   6.967  11.696
 4125W        W70534  39.064  12.570   1.792
 4126W        W70535  39.995  25.217   0.101
 4127W        W70536  30.834   0.364   3.902
 4128W        W70537  40.903  22.371  13.838
 4129W        W70538  33.929  38.598   4.904
 4130W        W70539   9.246  26.067   3.751
 4131W        W70540   2.720  25.147   3.641
 4132W        W70541  14.651  16.097  14.113
 4133W        W70542  36.964  24.876   3.970
 4134W        W70543   8.200  39.833   1.459
 4135W        W70544  32.377  42.443   1.234
 4136W        W70545   1.114  30.613  10.191
 4137W        W70546  18.214  25.512   3.333
 4138W        W70547  35.311  34.872   0.446
 4139W        W70548  40.984   2.443   0.490
 4140W        W70549  11.195  34.606   3.503
 4141W        W70550  26.767  10.892   2.755
 4142W        W70551   7.424  38.029   1.237
 4143W        W70552  16.796   7.241   1.803
 4144W        W70553  18.958   4.868  14.272
 4145W        W70554  12.588  19.617  13.950
 4146W        W70555   3.391  27.463   1.841
 4147W        W70556   0.238  22.568   1.660
 4148W        W70557  22.673  28.494  11.680
 4149W        W70558  36.322   7.703   0.246
 4150W        W70559  40.010   5.957  11.174
 4151W        W70560  34.638   3.777  10.578
 4152W        W70561   0.401  27.490  14.433
 4153W        W70562  33.903  37.877   1.726
 4154W        W70563  20.114  14.729  14.126
 4155W        W70564  36.244   8.795  13.838
 4156W        W70565   0.245  35.013  13.299
 4157W        W70566  18.195  24.475   0.855
 4158W        W70567  40.384  23.468   3.091
 4159W        W70568  42.217   1.329  10.867
 4160W        W70569  39.049  33.282   3.921
 4161W        W70570  43.123  22.761  11.667
 4162W        W70571  40.352  25.489  13.894
 4163W        W70572  19.096  31.914   3.419
 4164W        W70573  27.667  12.663   3.785
 4165W        W70574  27.179  12.221   2.125
 4166W        W70575  29.535  16.979   3.270
 4167W        W70576  36.008   6.237  11.278
 4168W        W70577  20.080   5.574   0.029
 4169W        W70578   6.933  31.643  10.753
 4170W        W70579   3.928  43.473   4.452
 4171W        W70580  23.024  24.158  14.016
 4172W        W70581  36.579  28.388   2.845
 4173W        W70582  25.389  13.720   2.632
 4174W        W70583  24.362  12.408  13.305
 4175W        W70584  11.906  13.370   0.545
 4176W        W70585   8.279  13.247   4.140
 4177W        W70586  23.561  14.692   1.169
 4178W        W70587  13.523  34.978  11.648
 4179W        W70588  41.509  42.614   3.814
 4180W        W70589   2.026  39.096   4.373
 4181W        W70590   5.366  18.158   0.488
 4182W        W70591  40.475  34.463  13.044
 4183W        W70592  33.212  27.445   4.545
 4184W        W70593  19.559  21.019  13.647
 4185W        W70594  17.574  19.698  12.869
 4186W        W70595   3.351   9.173  12.366
 4187W        W70596   8.441   0.405   4.663
 4188W        W70597  25.939  24.345   2.603
 4189W        W70598  41.959  11.174   3.292
 4190W        W70599  32.936  23.452  14.387
 4191W        W70600  35.009  12.332   0.253
 4192W        W70601  24.662  36.104   0.150
 4193W        W70602  25.491  25.517  10.589
 4194W        W70603  28.023  32.898  11.132
 4195W        W70604  30.887  34.792  11.037
 4196W        W70605  14.233  10.083   0.938
 4197W        W70606  14.242  22.614  11.603
 4198W        W70607   7.927  28.730   4.067
 4199W        W70608  17.738  15.021   1.939
 4200W        W70609  24.605  10.182   0.036
 4201W        W70610  12.408   1.953   0.465
 4202W        W70611   8.339  37.044   4.852
 4203W        W70612  15.705  36.918   1.737
 4204W        W70613  25.523  10.621   2.143
 4205W        W70614   6.431   1.076   0.436
 4206W        W70615  17.613  41.686   1.262
 4207W        W70616  21.795  29.548   0.114
 4208W        W70617  39.030   3.327   0.886
 4209W        W70618  24.751  34.287   2.261
 4210W        W70619   0.852  16.272  14.361
 4211W        W70620  33.573  15.690   3.682
 4212W        W70621  17.846  37.169   9.970
 4213W        W70622  38.085  30.112  13.587
 4214W        W70623  33.414  15.032  12.452
 4215W        W70624  10.683  15.615   4.639
 4216W        W70625  14.787  15.052  14.806
 4217W        W70626  21.976  43.458   2.290
 4218W        W70627  20.195  34.698  10.506
 4219W        W70628  20.684  44.952  11.966
 4220W        W70629  16.069  44.276  11.621
 4221W        W70630  16.506  40.251  13.861
 4222W        W70631  11.225  36.418   3.367
 4223W        W70632  21.471  40.430   1.472
 4224W        W70633  14.093  33.031  10.151
 4225W        W70634  40.052  37.848   2.291
 4226W        W70635  10.142  31.773  14.561
 4227W        W70636   3.783  40.909  13.402
 4228W        W70637  16.348  32.817  11.197
 4229W        W70638  42.786  16.164  11.845
 4230W        W70639  40.284  36.994   1.813
 4231W        W70640  30.142  27.510   0.342
 4232W        W70641  16.562  39.840   3.189
 4233W        W70642   4.325   4.545   3.151
 4234W        W70643  37.712  25.937   1.169
 4235W        W70644  43.480  16.221  12.581
 4236W        W70645   9.101  38.446  12.814
 4237W        W70646   6.366  15.981  14.856
 4238W        W70647  10.181  33.420  13.341
 4239W        W70648  39.748   7.796   4.409
 4240W        W70649  17.957  19.246  14.257
 4241W        W70650  37.505   4.292   1.809
 4242W        W70651  41.512   4.009  11.646
 4243W        W70652  31.226  38.776   1.843
 4244W        W70653  44.740   1.250  11.273
 4245W        W70654   1.928  29.180   4.126
 4246W        W70655  23.410  18.831  12.896
 4247W        W70656  10.583  29.565   4.895
 4248W        W70657   9.860  26.871  14.573
 4249W        W70658  39.467  31.689   4.377
 4250W        W70659  36.345  16.554  10.651
 4251W        W70660  34.116  20.061  11.593
 4252W        W70661  40.645  39.473   2.822
 4253W        W70662  17.071  11.761  12.049
 4254W        W70663  37.701  21.167  12.565
 4255W        W70664  42.839  44.914   1.884
 4256W        W70665  27.942  35.581  12.986
 4257W        W70666   5.665  26.427   0.354
 4258W        W70667   5.962  24.890  12.479
 4259W        W70668   1.813  15.187  10.689
 4260W        W70669   8.897  16.087   3.714
 4261W        W70670   5.977   8.363   2.600
 4262W        W70671  27.065  13.147   4.216
 4263W        W70672  23.754  22.694  14.484
 4264W        W70673  29.952  37.207   1.221
 4265W        W70674  29.502   8.409  14.999
 4266W        W70675  13.587  23.159   4.146
 4267W        W70676   6.319  13.778   2.800
 4268W        W70677  23.071  30.456   1.612
 4269W        W70678  20.277  44.967  10.652
 4270W        W70679  26.489  42.074  14.896
 4271W        W70680   0.752  41.124   1.315
 4272W        W70681  26.958  25.996   2.999
 4273W        W70682  22.752   4.609   3.324
 4274W        W70683  30.484  10.295   4.181
 4275W        W70684   4.985  38.812   1.367
 4276W        W70685  11.240   7.527   0.367
 4277W        W70686   1.167   1.521   4.272
 4278W        W70687  21.207   8.123   3.945
 4279W        W70688  34.905   9.488  11.158
 4280W        W70689  36.464  10.167  15.000
 4281W        W70690   3.471   7.345  13.400
 4282W        W70691  41.895   4.347  14.691
 4283W        W70692  18.221  18.005  14.036
 4284W        W70693  32.674  21.742  14.279
 4285W        W70694   5.865  25.250   1.082
 4286W        W70695   8.919  21.353   3.318
 4287W        W70696  35.841  35.561  14.921
 4288W        W70697  21.986  44.879   0.290
 4289W        W70698  14.596  42.016   1.474
 4290W        W70699   3.630  35.575   2.366
 4291W        W70700  34.813  44.553  13.827
 4292W        W70701  10.559  10.254   2.786
 4293W        W70702  30.993   5.126  14.080
 4294W        W70703  40.575   8.094  11.166
 4295W        W70704  25.584  25.254   3.842
 4296W        W70705  11.767  15.460  11.018
 4297W        W70706  20.260   4.421  13.036
 4298W        W70707  36.388  28.894  13.353
 4299W        W70708   5.308  39.935   4.740
 4300W        W70709  41.329  29.525   2.092
 4301W        W70710   5.421   1.846   1.136
 4302W        W70711  43.300  35.063  12.592
 4303W        W70712  19.104   5.392   2.448
 4304W        W70713  30.773  37.048  13.027
 4305W        W70714  23.969  43.169  13.304
 4306W        W70715  41.209  33.660   4.387
 4307W        W70716  42.157  10.716  12.639
 4308W        W70717  15.689  11.604   1.420
 4309W        W70718  24.997  39.504   1.728
 4310W        W70719  33.686  30.131   2.668
 4311W        W70720   7.062  34.858  13.844
 4312W        W70721  15.145  17.956  11.256
 4313W        W70722  15.375  17.153   4.623
 4314W        W70723  27.991  12.116  11.225
 4315W        W70724  17.560   9.886  14.462
 4316W        W70725  43.975  19.935  11.327
 4317W        W70726  25.128   7.378   2.507
 4318W        W70727   0.749  38.891   0.891
 4319W        W70728  32.920  14.171   2.854
 4320W        W70729  19.754  25.781  11.688
 4321W        W70730  13.429  21.955   3.261
 4322W        W70731  37.988  20.766  11.604
 4323W        W70732  15.746  26.911   3.179
 4324W        W70733  20.031   1.921  10.775
 4325W        W70734  16.059  44.810  11.036
 4326W        W70735  41.704  41.839  12.426
 4327W        W70736  21.559  26.958   2.189
 4328W        W70737  17.378  21.742   3.825
 4329W        W70738  35.146  38.777   3.195
 4330W        W70739   8.766  44.323   4.409
 4331W        W70740  19.846  36.246  13.254
 4332W        W70741   0.684  26.870  10.151
 4333W        W70742   4.476  33.355  11.724
 4334W        W70743  40.898  37.541  13.091
 4335W        W70744  19.066  12.172  13.531
 4336W        W70745   2.795  39.277  10.761
 4337W        W70746   0.954   9.769  14.960
 4338W        W70747   7.947  27.174  14.816
 4339W        W70748   8.538  32.595  14.149
 4340W        W70749  25.005   4.959  12.497
 4341W        W70750  24.240   3.349  11.647
 4342W        W70751   7.390  40.019   2.346
 4343W        W70752  18.543  41.018   4.113
 4344W        W70753  32.428  35.707   4.095
 4345W        W70754   1.897  17.795   4.066
 4346W        W70755  26.781  24.029   3.549
 4347W        W70756  25.830  11.991   4.825
 4348W        W70757  28.706  12.212  10.172
 4349W        W70758  22.944  20.598  14.072
 4350W        W70759  16.674  16.822   0.791
 4351W        W70760  33.800  37.454  14.756
 4352W        W70761  24.418   2.006  13.342
 4353W        W70762   4.754  34.584  10.647
 4354W        W70763  34.967   1.724  13.979
 4355W        W70764   6.703   9.333  11.567
 4356W        W70765  44.698  39.899   0.294
 4357W        W70766  44.096  28.276   4.415
 4358W        W70767  35.494  43.338  14.851
 4359W        W70768  41.415  44.533   2.195
 4360W        W70769  39.569  12.412   0.805
 4361W        W70770   9.920  38.098  12.118
 4362W        W70771  28.303  25.167   1.743
 4363W        W70772  14.964  14.258   4.725
 4364W        W70773   0.838  41.326   4.100
 4365W        W70774  16.175  22.243   2.119
 4366W        W70775  13.308  26.595   1.402
 4367W        W70776  25.039  22.665  12.572
 4368W        W70777   6.069  25.501  14.860
 4369W        W70778  35.247   6.312  14.439
 4370W        W70779  20.063  28.619  13.419
 4371W        W70780   7.159   8.835  13.674
 4372W        W70781   1.160  35.952  14.980
 4373W        W70782  33.091  31.541   4.970
 4374W        W70783  33.574   6.425  10.708
 4375W        W70784   3.406   3.091   4.672
 4376W        W70785   8.868   7.786   2.453
 4377W        W70786  37.044  35.589   0.848
 4378W        W70787  31.017  15.648  14.876
 4379W        W70788   2.571   0.178  10.653
 4380W        W70789  25.698  32.466   3.121
 4381W        W70790  18.867  13.809   1.280
 4382W        W70791   2.876  36.413   0.480
 4383W        W70792   4.585  14.364  12.112
 4384W        W70793  26.526  35.031   4.612
 4385W        W70794  40.369  22.603  10.450
 4386W        W70795  39.524  32.680   3.518
 4387W        W70796  42.264  23.743   2.263
 4388W        W70797   1.836  33.954   0.291
 4389W        W70798   7.812   2.461   0.773
 4390W        W70799  42.191   9.070  11.641
 4391W        W70800  31.516  25.205  11.160
 4392W        W70801  19.598   9.301  12.605
 4393W        W70802  13.358  12.721  11.907
 4394W        W70803  44.492  25.628  12.828
 4395W        W70804  41.596  22.161  13.287
 4396W        W70805   8.623  39.509   3.741
 4397W        W70806  20.185  26.871   2.258
 4398W        W70807  34.564  43.295  10.763
 4399W        W70808  37.522   4.376   0.926
 4400W        W70809  36.717  27.098   2.123
 4401W        W70810  37.982   2.754  14.308
 4402W        W70811  23.251  17.194   4.060
 4403W        W70812  31.032   6.858   0.441
 4404W        W70813  17.534  27.950  12.883
 4405W        W70814  35.439  16.074   3.400
 4406W        W70815  30.686  32.573   3.359
 4407W        W70816  13.359  41.979  11.940
 4408W        W70817   0.928   4.913   9.991
 4409W        W70818  41.092  32.916   3.652
 4410W        W70819   2.977   4.427  12.472
 4411W        W70820  11.638  25.701  13.607
 4412W        W70821   5.619  26.070  11.202
 4413W        W70822   7.774   7.065  14.488
 4414W        W70823  19.314  12.448  13.135
 4415W        W70824  20.698   1.193  13.397
 4416W        W70825  15.279  19.471   2.689
 4417W        W70826  44.416  30.947   3.327
 4418W        W70827  38.724  12.146  13.574
 4419W        W70828  30.485  12.836   1.338
 4420W        W70829  32.527  19.184   4.615
 4421W        W70830  33.691  42.262  10.590
 4422W        W70831  10.381  35.291   2.796
 4423W        W70832  35.945  20.558  12.740
 4424W        W70833   4.443  23.965   1.337
 4425W        W70834   3.855  15.810   3.690
 4426W        W70835  10.217   5.171  13.820
 4427W        W70836  29.443  39.086  10.714
 4428W        W70837   5.797   9.565   0.930
 4429W        W70838  32.854  43.398  13.358
 4430W        W70839  39.804  37.143   2.741
 4431W        W70840  32.328  19.559  11.664
 4432W        W70841  38.921  44.015   2.432
 4433W        W70842  15.747  29.076  10.715
 4434W        W70843  21.952  21.744   2.141
 4435W        W70844  40.406  41.376   0.304
 4436W        W70845  20.234  36.007   2.348
 4437W        W70846   7.798  39.913  11.216
 4438W        W70847   7.501  20.036   3.342
 4439W        W70848  37.144  42.715   1.225
 4440W        W70849  25.942  39.239  11.167
 4441W        W70850  41.301  22.832  10.643
 4442W        W70851   9.251  20.299   4.141
 4443W        W70852  29.687  37.482  11.216
 4444W        W70853   1.363  21.868   1.466
 4445W        W70854  25.475   1.730   4.163
 4446W        W70855   1.541  34.991   4.083
 4447W        W70856   4.506   7.218   1.885
 4448W        W70857  11.481  38.052  11.636
 4449W        W70858  24.754  41.780   3.561
 4450W        W70859  42.716  37.489  12.629
 4451W        W70860  28.405  14.164   0.145
 4452W        W70861  35.010  36.875   4.660
 4453W        W70862   7.099   4.358   1.317
 4454W        W70863  27.686  23.498  10.951
 4455W        W70864  33.142  33.570   1.199
 4456W        W70865   3.458  18.305  12.028
 4457W        W70866  33.467   7.867   0.903
 4458W        W70867  35.958   4.996   1.160
 4459W        W70868   3.883   3.661  12.989
 4460W        W70869  27.916  31.825   2.341
 4461W        W70870  13.501   4.038  13.923
 4462W        W70871  17.143  23.470   0.192
 4463W        W70872  11.597  39.806  11.255
 4464W        W70873   3.891   8.647   1.264
 4465W        W70874  30.548   6.750   1.253
 4466W        W70875  17.505   4.450   3.340
 4467W        W70876  17.881  14.785  12.461
 4468W        W70877   4.672  27.377   2.174
 4469W        W70878  15.632  11.113  12.080
 4470W        W70879  43.938  34.003   0.716
 4471W        W70880  19.204  10.575  10.695
 4472W        W70881  10.200   7.821   0.512
 4473W        W70882  16.308  31.893  13.387
 4474W        W70883   4.072   1.770   2.268
 4475W        W70884  43.817   4.123  14.495
 4476W        W70885   6.832  21.555   4.624
 4477W        W70886   3.214  19.753   0.014
 4478W        W70887  41.792  26.192  14.459
 4479W        W70888   7.241  38.137  11.190
 4480W        W70889  23.264  20.360  14.941
 4481W        W70890  33.772  32.991   2.822
 4482W        W70891  19.059  41.021  12.528
 4483W        W70892  26.013  11.382  12.665
 4484W        W70893  41.954  36.489   3.164
 4485W        W70894  41.200  17.710   0.925
 4486W        W70895  22.003  13.049   3.150
 4487W        W70896  38.624  39.448  11.175
 4488W        W70897  43.440   5.902   0.041
 4489W        W70898   5.863  28.131  10.853
 4490W        W70899   4.121  41.939   4.576
 4491W        W70900  19.789  22.900   3.768
 4492W        W70901  10.803  33.184  12.532
 4493W        W70902  37.334   3.945  14.252
 4494W        W70903  24.269  38.825  12.190
 4495W        W70904  17.828   6.457   3.353
 4496W        W70905  11.371  44.223   5.441
 4497W        W70906  17.354   1.426  13.540
 4498W        W70907  44.608  25.281   5.125
 4499W        W70908  18.061  29.672  13.687
 4500W        W70909  39.700  32.536   1.017
 4501W        W70910  15.518  33.390  14.936
 4502W        W70911  17.848  44.895   2.281
 4503W        W70912  38.085  39.710   4.055
 4504W        W70913  38.558   1.515  10.943
 4505W        W70914  38.078   6.290   4.591
 4506W        W70915  33.931  43.441  12.119
 4507W        W70916  16.644   9.439  12.940
 4508W        W70917  16.744  11.131  13.552
 4509W        W70918  30.111  10.122   2.726
 4510W        W70919  39.373  34.717   1.425
 4511W        W70920   8.810   7.852  13.373
 4512W        W70921  17.284  22.641  10.777
 4513W        W70922   6.719  10.222   4.622
 4514W        W70923  23.438  40.998  13.867
 4515W        W70924  22.840  32.992  12.548
 4516W        W70925  33.436  39.379  14.276
 4517W        W70926  42.005   6.268  14.512
 4518W        W70927  29.384  38.057  14.374
 4519W        W70928  31.303  33.545   3.288
 4520W        W70929  35.321  39.900   4.235
 4521W        W70930  28.651  30.346  13.715
 4522W        W70931   1.407  15.923   1.120
 4523W        W70932  26.956  29.538  13.280
 4524W        W70933  27.993  21.337   3.694
 4525W        W70934  40.529  15.251   1.762
 4526W        W70935  24.652  28.698   2.957
 4527W        W70936  44.707  26.469   1.924
 4528W        W70937  10.226  28.232  13.055
 4529W        W70938  29.985  32.943  12.902
 4530W        W70939  40.831  27.437   3.262
 4531W        W70940  31.967   4.883   1.712
 4532W        W70941  26.927  16.561  11.161
 4533W        W70942  12.651  44.719  11.666
 4534W        W70943  22.140  37.555  13.627
 4535W        W70944   2.100   0.389   2.667
 4536W        W70945  37.662  37.768   2.293
 4537W        W70946  40.902  44.809   0.971
 4538W        W70947  33.848  10.176   2.215
 4539W        W70948  22.245  44.191   2.776
 4540W        W70949  43.464  19.229   1.703
 4541W        W70950   8.034  32.412  10.566
 4542W        W70951  12.161   8.695   1.266
 4543W        W70952   1.461   5.895   1.801
 4544W        W70953  41.799  13.055  12.391
 4545W        W70954  29.496  42.085   1.061
 4546W        W70955  30.547   8.992  14.347
 4547W        W70956   1.165  28.445   0.422
 4548W        W70957  10.154  41.438  14.300
 4549W        W70958  36.333  39.083   3.845
 4550W        W70959  16.369  28.703   1.855
 4551W        W70960  27.821  42.882  12.677
 4552W        W70961  39.066  20.793   3.555
 4553W        W70962  28.721  41.764   2.803
 4554W        W70963   6.084  30.608   0.968
 4555W        W70964  39.558  41.050  11.530
 4556W        W70965  32.020  33.561  11.607
 4557W        W70966  17.576   7.326   4.720
 4558W        W70967  35.629  31.721  10.810
 4559W        W70968  36.183  31.604   0.342
 4560W        W70969   9.079   9.026   0.943
 4561W        W70970  21.831  30.531  13.846
 4562W        W70971  20.709  22.635   0.066
 4563W        W70972   8.893   0.833  10.549
 4564W        W70973  15.721   4.933  12.356
 4565W        W70974  18.484  33.947   0.923
 4566W        W70975  16.330  30.064  13.994
 4567W        W70976   1.060  14.587  10.610
 4568W        W70977  37.381  37.298  13.453
 4569W        W70978  42.564  18.251  12.064
 4570W        W70979  41.050   7.611  11.966
 4571W        W70980   8.849  28.705  13.423
 4572W        W70981  21.494  14.251   3.908
 4573W        W70982  13.633  33.530   2.410
 4574W        W70983   1.339  27.468   4.321
 4575W        W70984  42.813  29.207   0.446
 4576W        W70985  13.162  28.115  12.338
 4577W        W70986   5.306  38.545   1.984
 4578W        W70987   6.965  40.106  11.590
 4579W        W70988  26.979  14.820   4.932
 4580W        W70989  17.757  40.360   3.858
 4581W        W70990  31.089  21.671   2.143
 4582W        W70991  31.188  44.820   3.201
 4583W        W70992  28.488  33.377  11.083
 4584W        W70993  21.410  33.527   0.218
 4585W        W70994   6.312  18.266  12.531
 4586W        W70995  16.288  42.546   2.649
 4587W        W70996  35.560  37.887  13.248
 4588W        W70997  30.768  11.026   3.723
 4589W        W70998  17.589   5.301  12.429
 4590W        W70999   4.418  38.483  14.345
 4591W        W71000  40.061  12.772  11.199
 4592W        W71001  29.149  31.336  12.975
 4593W        W71002  41.381  16.869  14.974
 4594W        W71003  12.730   4.543   4.260
 4595W        W71004   4.283  13.303  12.850
 4596W        W71005  15.495  15.612   2.638
 4597W        W71006  15.268   5.001  10.506
 4598W        W71007  19.129  43.437   4.635
 4599W        W71008  24.677   9.371   1.378
 4600W        W71009  35.903   7.891  13.565
 4601W        W71010  13.827  25.292   2.905
 4602W        W71011   6.631  36.462   4.433
 4603W        W71012  38.004  38.707   0.318
 4604W        W71013  32.703  33.874   0.030
 4605W        W71014  33.936  11.543  14.435
 4606W        W71015   5.386  36.046  11.391
 4607W        W71016  10.678   5.849   4.200
 4608W        W71017  26.745   2.667   2.530
 4609W        W71018   5.794   3.528  10.612
 4610W        W71019  11.344   8.386   0.010
 4611W        W71020  20.237  35.322   0.906
 4612W        W71021   7.952  10.655   2.341
 4613W        W71022  12.669  35.592  13.707
 4614W        W71023   3.291   9.175  14.909
 4615W        W71024  33.982  38.123  11.552
 4616W        W71025   3.787   2.267   4.588
 4617W        W71026  19.084  19.077  13.346
 4618W        W71027  25.363  38.876  12.408
 4619W        W71028  44.945   7.311   0.807
 4620W        W71029  11.229   6.048  12.075
 4621W        W71030  38.883  19.798   0.902
 4622W        W71031   9.731  15.852  10.080
 4623W        W71032   0.811  28.185  14.822
 4624W        W71033  14.735  11.114  10.512
 4625W        W71034   2.870   5.374   1.759
 4626W        W71035  34.186  21.053  11.894
 4627W        W71036  29.690  24.515  13.546
 4628W        W71037  44.422  19.871   3.387
 4629W        W71038  19.095  22.762   4.600
 4630W        W71039  27.481  22.116   1.251
 4631W        W71040  39.953   8.150  12.041
 4632W        W71041   2.733  20.985  13.436
 4633W        W71042  42.218  27.170   2.255
 4634W        W71043   8.227  39.061  14.203
 4635W        W71044   9.249  35.126  12.348
 4636W        W71045   4.138  14.061  12.143
 4637W        W71046  29.624  39.022   1.781
 4638W        W71047  27.453  20.661  14.509
 4639W        W71048   3.490  41.439   1.459
 4640W        W71049  23.547  44.056   3.558
 4641W        W71050  24.147   5.732   2.241
 4642W        W71051   1.151  13.653   1.454
 4643W        W71052  18.639  25.745   4.742
 4644W        W71053  25.041  32.180   4.172
 4645W        W71054  30.772   5.812   1.413
 4646W        W71055  35.337  27.058   0.917
 4647W        W71056   4.436  16.287   1.524
 4648W        W71057  26.926  20.270   3.167
 4649W        W71058  26.107  43.058   3.743
 4650W        W71059  27.065   0.867  10.584
 4651W        W71060  22.274   4.467   3.432
 4652W        W71061   2.548   9.885  12.659
 4653W        W71062  43.955  42.131   1.996
 4654W        W71063  27.201  25.165   0.269
 4655W        W71064  29.944  39.477   1.792
 4656W        W71065  34.973  29.096  14.765
 4657W        W71066  31.070  10.065  11.142
 4658W        W71067  36.858  29.233   3.638
 4659W        W71068  44.320  36.895  14.862
 4660W        W71069   9.470  24.518   0.429
 4661W        W71070  16.804  40.462  14.510
 4662W        W71071  28.999   1.002   2.587
 4663W        W71072   6.165  34.024   0.912
 4664W        W71073  15.213  42.560   0.828
 4665W        W71074  41.082  16.258   1.485
 4666W        W71075   7.736  36.556  11.595
 4667W        W71076  16.561  41.730   3.160
 4668W        W71077  12.639  23.663  10.698
 4669W        W71078  32.159   8.901  12.097
 4670W        W71079   4.759  37.868   1.287
 4671W        W71080  29.896  13.545  12.856
 4672W        W71081  17.069  31.958   2.404
 4673W        W71082  21.645  42.939  14.388
 4674W        W71083  31.128  35.433   4.113
 4675W        W71084   9.729  43.095  11.970
 4676W        W71085  37.268  35.632  11.179
 4677W        W71086   6.423   0.246  14.260
 4678W        W71087  40.552  43.818   3.549
 4679W        W71088  32.530  40.411   3.098
 4680W        W71089   7.626  32.493  13.286
 4681W        W71090   3.293  32.585   2.525
 4682W        W71091   1.923  42.696   2.901
 4683W        W71092  26.126  14.148   3.768
 4684W        W71093  30.038  41.527  14.329
 4685W        W71094   0.000  33.926   4.246
 4686W        W71095  20.773  43.649  12.019
 4687W        W71096  32.011   2.938  14.384
 4688W        W71097  28.669  32.149   1.176
 4689W        W71098   5.248  34.009  11.768
 4690W        W71099  28.735  29.301   2.320
 4691W        W71100  15.393  38.635  14.412
 4692W        W71101  29.414  18.760  11.169
 4693W        W71102  20.297  36.768   0.282
 4694W        W71103   9.434  35.007  10.986
 4695W        W71104  30.128  19.738  13.284
 4696W        W71105   9.630  24.587  13.139
 4697W        W71106  25.551  39.481  11.827
 4698W        W71107   9.062  13.717  11.713
 4699W        W71108  25.990  37.496  13.135
 4700W        W71109  14.763  43.382  11.040
 4701W        W71110  17.599  27.733   1.817
 4702W        W71111   1.181   0.878  12.945
 4703W        W71112  15.846  29.764   9.952
 4704W        W71113  14.400  43.391  11.485
 4705W        W71114  33.116  31.498  13.772
 4706W        W71115  27.088  33.418   4.163
 4707W        W71116   4.681   8.435   9.978
 4708W        W71117  15.132  12.596   2.738
 4709W        W71118  23.277  44.964  14.074
 4710W        W71119  22.105   5.459   2.863
 4711W        W71120   2.410  43.374   1.253
 4712W        W71121  21.270  25.683  14.997
 4713W        W71122   9.660   7.783  11.760
 4714W        W71123  40.499  42.324   1.236
 4715W        W71124  19.200   8.743  12.565
 4716W        W71125  35.033  36.862  13.879
 4717W        W71126   3.960  26.091   4.266
 4718W        W71127  28.013  22.265   1.311
 4719W        W71128  44.639  13.756   2.164
 4720W        W71129   9.597   5.765   0.354
 4721W        W71130   2.433  36.937   2.919
 4722W        W71131  10.665  12.607   0.307
 4723W        W71132  27.101  16.117  14.292
 4724W        W71133  34.985  10.158   2.072
 4725W        W71134  24.679  34.882  11.596
 4726W        W71135  31.372  30.696   0.394
 4727W        W71136  27.992  29.395  14.886
 4728W        W71137  32.029   0.531   0.379
 4729W        W71138  11.134  38.317  11.283
 4730W        W71139  36.589  40.517   2.711
 4731W        W71140  17.834  19.116   1.805
 4732W        W71141  40.881  23.892   2.627
 4733W        W71142  33.828  43.805   4.534
 4734W        W71143   1.308  12.638  12.575
 4735W        W71144  12.080   1.848   3.158
 4736W        W71145  37.670  43.315  11.667
 4737W        W71146  35.028  37.342   1.653
 4738W        W71147  19.520  18.246  13.791
 4739W        W71148  32.350  41.124   3.618
 4740W        W71149   4.337   7.285  14.866
 4741W        W71150  11.326  24.578  10.679
 4742W        W71151   4.678  28.397   2.329
 4743W        W71152  31.129  24.671  13.348
 4744W        W71153  15.612  17.210  12.100
 4745W        W71154  35.571  29.863   1.763
 4746W        W71155  19.321  11.693   2.458
 4747W        W71156  24.623  37.257   1.407
 4748W        W71157  24.022  23.841  14.087
 4749W        W71158  40.039  15.875   3.771
 4750W        W71159  39.111  21.192   2.749
 4751W        W71160  44.978  33.586  10.814
 4752W        W71161  40.485  12.131   3.157
 4753W        W71162  15.733  41.702  14.020
 4754W        W71163  39.856   5.426   4.060
 4755W        W71164  36.033  27.646   2.446
 4756W        W71165   0.828  38.994   1.829
 4757W        W71166  11.082  30.150  10.688
 4758W        W71167  22.136  26.006   0.072
 4759W        W71168  29.897   9.225  10.751
 4760W        W71169  20.728  12.692  14.394
 4761W        W71170  44.411  28.925  11.955
 4762W        W71171  33.578   0.007  12.719
 4763W        W71172  25.572  16.881  11.964
 4764W        W71173  42.932   8.601   0.362
 4765W        W71174  27.221  39.101   4.785
 4766W        W71175   8.724  12.661  10.885
 4767W        W71176   7.674  32.318  10.193
 4768W        W71177  26.496   1.406  11.222
 4769W        W71178  35.178  21.304  12.688
 4770W        W71179  43.711  23.956  11.609
 4771W        W71180  25.710  19.895   2.630
 4772W        W71181  25.954  15.300   3.265
 4773W        W71182  23.566   6.138   3.663
 4774W        W71183  21.533  19.905   0.402
 4775W        W71184  33.453   5.841  10.150
 4776W        W71185  40.872  16.815  11.226
 4777W        W71186  11.254   3.484  10.597
 4778W        W71187  18.690  22.676  13.364
 4779W        W71188  30.498   0.293  13.409
 4780W        W71189  27.589  25.210   4.428
 4781W        W71190  17.596  28.045  13.725
 4782W        W71191  20.021  32.160  13.899
 4783W        W71192   1.279   0.265   4.743
 4784W        W71193  22.235   0.422   2.264
 4785W        W71194  13.013  15.822   3.091
 4786W        W71195  12.385  37.467  10.104
 4787W        W71196   8.861  15.717  14.590
 4788W        W71197  29.510  23.222   3.716
 4789W        W71198   6.172  41.126  11.629
 4790W        W71199  18.365  20.501   3.557
 4791W        W71200  40.556  29.395   3.163
 4792W        W71201   1.421   8.618   2.878
 4793W        W71202  28.692  26.544   0.489
 4794W        W71203   3.002  19.652   0.467
 4795W        W71204  42.530  19.299  12.970
 4796W        W71205   9.213   2.213   4.112
 4797W        W71206   0.224   1.028  11.205
 4798W        W71207  43.966  11.893   3.750
 4799W        W71208  36.415  20.824   0.216
 4800W        W71209  19.007   6.291   3.845
 4801W        W71210   7.538  33.198   4.855
 4802W        W71211  36.378   0.910   4.444
 4803W        W71212  19.519  41.066   2.499
 4804W        W71213  24.750  37.031  14.100
 4805W        W71214  23.599   3.958   4.349
 4806W        W71215   7.322   5.689  11.065
 4807W        W71216   9.669  20.145   3.267
 4808W        W71217   5.688   4.404   4.147
 4809W        W71218  32.017  34.523  13.453
 4810W        W71219  26.573  14.339   4.010
 4811W        W71220   6.680  21.914   0.900
 4812W        W71221  27.746  14.219  14.388
 4813W        W71222  30.613  12.402  12.937
 4814W        W71223  24.297  20.742   2.906
 4815W        W71224  40.263  25.865  13.484
 4816W        W71225  13.785   7.325   4.739
 4817W        W71226  14.281  43.106   3.537
 4818W        W71227  33.800   4.434  11.231
 4819W        W71228  20.094  12.290  13.329
 4820W        W71229  44.403   2.797   4.459
 4821W        W71230  34.889  30.681  13.367
 4822W        W71231  20.774  28.114   2.290
 4823W        W71232  43.507  32.210  10.776
 4824W        W71233  23.451   3.380   0.458
 4825W        W71234  12.701  28.653   2.392
 4826W        W71235  34.078  34.069  12.262
 4827W        W71236   2.991  20.368  11.358
 4828W        W71237   2.908  12.750   4.121
 4829W        W71238  17.787   0.260  14.905
 4830W        W71239  32.882   0.025  11.518
 4831W        W71240  11.678  40.112  14.051
 4832W        W71241  29.678  19.623   4.459
 4833W        W71242  39.610  16.299  10.706
 4834W        W71243  37.046  32.661   0.265
 4835W        W71244  30.421  34.421  13.617
 4836W        W71245  31.876  15.808  11.058
 4837W        W71246  35.967  10.493  12.828
 4838W        W71247   9.336  32.190   2.367
 4839W        W71248  27.486  15.813  11.916
 4840W        W71249   8.593   9.283  11.502
 4841W        W71250  24.587  22.781   3.723
 4842W        W71251  11.364  24.626   0.429
 4843W        W71252  40.373  12.368   4.559
 4844W        W71253  22.749   5.975  12.582
 4845W        W71254  17.170  41.507  14.907
 4846W        W71255  22.052   9.211   1.939
 4847W        W71256  28.106  42.117  12.943
 4848W        W71257   1.324   2.937   1.615
 4849W        W71258  31.943  11.174   0.484
 4850W        W71259  29.368  42.580   2.241
 4851W        W71260   6.180  11.647  13.501
 4852W        W71261  39.277  36.401  12.454
 4853W        W71262  23.929  26.158   0.315
 4854W        W71263  11.715  11.939  13.119
 4855W        W71264  27.346  33.773  12.521
 4856W        W71265  16.380  12.822   2.754
 4857W        W71266  15.491  30.552  12.481
 4858W        W71267  30.116  35.380   0.992
 4859W        W71268  25.442  33.885   2.656
 4860W        W71269  19.479  13.107   0.040
 4861W        W71270  30.503  42.677   1.374
 4862W        W71271  21.372  24.363  13.815
 4863W        W71272  19.205  26.267   0.271
 4864W        W71273  44.095  44.267  10.627
 4865W        W71274   2.303   3.773   2.180
 4866W        W71275  18.750  32.172  14.971
 4867W        W71276  14.002  31.647   3.568
 4868W        W71277  14.873  32.162   1.338
 4869W        W71278  20.243   9.193  14.813
 4870W        W71279   2.029  29.833  11.574
 4871W        W71280  36.163  34.920   0.860
 4872W        W71281  13.672  39.783  10.635
 4873W        W71282  22.134  12.887  12.584
 4874W        W71283  24.703  26.936  12.097
 4875W        W71284  36.919  29.660   1.966
 4876W        W71285   2.803  39.809  10.809
 4877W        W71286  14.627  12.809   2.750
 4878W        W71287   4.706  20.025   2.871
 4879W        W71288  36.478  28.714  10.665
 4880W        W71289  21.847   8.099  11.039
 4881W        W71290   4.757  42.493   0.459
 4882W        W71291  31.501  39.187   4.141
 4883W        W71292  16.317  43.885   3.859
 4884W        W71293   6.684  22.529   2.211
 4885W        W71294  18.138   5.287   0.949
 4886W        W71295  22.925  26.913   1.715
 4887W        W71296   4.128  31.386   1.728
 4888W        W71297  22.968  28.504  12.146
 4889W        W71298   9.657  11.281  13.896
 4890W        W71299   3.909  16.558  14.047
 4891W        W71300  42.801  44.624  12.803
 4892W        W71301   9.349  23.105   0.410
 4893W        W71302   6.932  13.349   1.143
 4894W        W71303  14.574  17.518  14.988
 4895W        W71304   3.917  10.419  12.214
 4896W        W71305  14.812   7.143   2.738
 4897W        W71306  42.761  24.704   1.695
 4898W        W71307   4.984  20.693   2.407
 4899W        W71308  30.435   9.678   3.547
 4900W        W71309  37.030  13.693  13.583
 4901W        W71310  44.000  17.072   2.774
 4902W        W71311  35.016  40.699   4.647
 4903W        W71312  30.637  35.556   0.195
 4904W        W71313  27.717   6.644   1.954
 4905W        W71314  26.994  33.939   0.735
 4906W        W71315   2.417  42.566   4.619
 4907W        W71316  24.672  16.622   4.971
 4908W        W71317   4.947  36.019  13.046
 4909W        W71318  15.869  35.526  13.088
 4910W        W71319  39.058  32.646  14.304
 4911W        W71320  12.154   5.617  12.526
 4912W        W71321  24.477  17.043   0.142
 4913W        W71322   8.365   5.761  14.504
 4914W        W71323  28.237  14.619  12.540
 4915W        W71324  21.595  38.659  14.569
 4916W        W71325  24.667  31.365  11.600
 4917W        W71326  22.054  24.210  10.669
 4918W        W71327  34.414  34.454   1.246
 4919W        W71328  44.542  13.782   0.711
 4920W        W71329  31.163  28.190  12.895
 4921W        W71330  38.552   3.635  14.715
 4922W        W71331  36.741  20.727   1.184
 4923W        W71332  21.578  12.295   4.628
 4924W        W71333  41.940   6.748   4.036
 4925W        W71334  31.007  14.274   3.298
 4926W        W71335  22.540  26.637  10.821
 4927W        W71336  15.742  19.477  14.847
 4928W        W71337  25.740  40.371   2.910
 4929W        W71338  10.877  41.150  10.641
 4930W        W71339  35.518  27.987  10.718
 4931W        W71340  26.464   9.606  14.737
 4932W        W71341  32.513  40.657  11.427
 4933W        W71342  42.510  43.994  14.508
 4934W        W71343  20.367  38.915  10.198
 4935W        W71344  34.550  41.858  13.058
 4936W        W71345  20.411  13.839  10.937
 4937W        W71346   4.372   2.991  10.637
 4938W        W71347  30.341  44.498  12.135
 4939W        W71348  18.556  41.921  10.923
 4940W        W71349  29.364  18.414  12.440
 4941W        W71350   5.263  30.178  14.453
 4942W        W71351  26.634  25.692  10.950
 4943W        W71352  39.893   9.814  10.989
 4944W        W71353  15.299  43.525  13.661
 4945W        W71354  23.966   5.978  10.799
 4946W        W71355  21.078  11.338  10.797
 4947W        W71356   5.265  13.591   2.432
 4948W        W71357  36.423   9.804  13.983
 4949W        W71358  36.004  42.783  12.454
 4950W        W71359  44.194  13.343  14.459
 4951W        W71360   6.998  29.027   2.388
 4952W        W71361   3.162  32.201  14.389
 4953W        W71362  11.188  25.796  12.526
 4954W        W71363  24.763  17.948  14.747
 4955W        W71364  43.371  16.510   4.816
 4956W        W71365  40.274  38.836   1.629
 4957W        W71366   4.401  36.927  13.055
 4958W        W71367  39.669   5.262   3.580
 4959W        W71368   0.460  29.687  12.458
 4960W        W71369  26.818  29.537   2.230
 4961W        W71370  13.834   5.764   4.456
 4962W        W71371  22.107   2.134   1.363
 4963W        W71372  19.009   3.661   0.079
 4964W        W71373  31.515   1.441   0.033
 4965W        W71374   6.170  24.465  12.952
 4966W        W71375  29.857  19.149   4.607
 4967W        W71376  30.713  38.669   1.744
 4968W        W71377  31.619  23.720  14.755
 4969W        W71378  18.779  12.075   1.865
 4970W        W71379  34.624  19.566   1.826
 4971W        W71380   6.120  32.510   4.477
 4972W        W71381  42.228  21.362  11.676
 4973W        W71382   4.902  15.212   3.260
 4974W        W71383   2.969  17.738  14.594
 4975W        W71384  13.793  15.566   3.206
 4976W        W71385  21.039   8.742  14.895
 4977W        W71386  22.132  34.428  13.031
 4978W        W71387  24.214  37.719  12.362
 4979W        W71388   9.268  23.457  12.439
 4980W        W71389   4.377  12.833  10.766
 4981W        W71390  42.975  25.020  11.183
 4982W        W71391  42.819  10.233  14.415
 4983W        W71392  38.691   9.648  13.501
 4984W        W71393   8.344   3.341   2.658
 4985W        W71394  39.503  34.996   0.990
 4986W        W71395   6.569   0.602  10.364
 4987W        W71396   2.991  29.901  12.248
 4988W        W71397  10.582  36.539   2.640
 4989W        W71398  33.966  36.552  12.495
 4990W        W71399   3.837  28.700   0.840
 4991W        W71400   0.730  39.470   2.900
 4992W        W71401  23.957  30.673   1.450
 4993W        W71402   8.711  35.903  14.812
 4994W        W71403  40.183  17.357   2.294
 4995W        W71404  16.434   1.777   2.091
 4996W        W71405  22.102  11.804   1.528
 4997W        W71406  22.239  27.230   2.231
 4998W        W71407  13.888  11.157   1.236
 4999W        W71408  26.446  10.318   0.905
 5000W        W71409  15.442  23.039   3.652
 5001W        W71410  39.767   3.381  10.929
 5002W        W71411  19.780  30.316   1.823
 5003W        W71412  10.416  13.742  12.956
 5004W        W71413  16.771   5.724  14.745
 5005W        W71414   6.755   9.887   2.303
 5006W        W71415  14.104  34.051   1.636
 5007W        W71416   1.225  41.200   2.327
 5008W        W71417  38.979   2.981   2.900
 5009W        W71418  19.169  39.485   1.104
 5010W        W71419  13.562  37.582  13.247
 5011W        W71420  29.137  37.772   2.715
 5012W        W71421  29.624   5.218  11.552
 5013W        W71422  15.627  43.752  11.080
 5014W        W71423  25.564  15.292  13.574
 5015W        W71424  26.951  27.718  13.885
 5016W        W71425  44.247  44.548   5.007
 5017W        W71426   8.199  28.086  10.877
 5018W        W71427   5.228  22.056   3.594
 5019W        W71428  26.031  40.103   4.111
 5020W        W71429  16.397  22.512  13.556
 5021W        W71430   4.352  40.102  14.366
 5022W        W71431  36.873   4.395   3.247
 5023W        W71432  31.340   7.687   4.094
 5024W        W71433  27.659  16.613  11.558
 5025W        W71434  23.633  27.653  14.152
 5026W        W71435  19.809   5.925  13.020
 5027W        W71436  23.122  17.289  13.880
 5028W        W71437  20.585   3.250  12.641
 5029W        W71438   8.192  11.108   4.741
 5030W        W71439  27.411  37.804  14.646
 5031W        W71440   7.399  20.740   0.246
 5032W        W71441  15.760  39.618   0.332
 5033W        W71442  20.107  28.463  14.355
 5034W        W71443  14.842  30.856   2.245
 5035W        W71444  40.447  40.235  13.801
 5036W        W71445  38.560   4.929   2.433
 5037W        W71446  37.295  37.838   0.502
 5038W        W71447  13.103  17.839   4.496
 5039W        W71448  16.606  33.969  14.991
 5040W        W71449  25.328  17.804   0.749
 5041W        W71450  32.107  37.382  11.127
 5042W        W71451   4.460  23.968   3.164
 5043W        W71452  17.635  32.569  10.994
 5044W        W71453  28.265  39.862   0.175
 5045W        W71454  33.960  44.475  13.959
 5046W        W71455  17.775   4.275   1.522
 5047W        W71456  21.213  37.855   0.453
 5048W        W71457  34.034  38.640   1.235
 5049W        W71458  12.048   3.157   9.785
 5050W        W71459  16.210  30.939   2.421
 5051W        W71460  33.066   6.122   0.472
 5052W        W71461   7.795  37.479   0.490
 5053W        W71462   4.617  44.821   4.579
 5054W        W71463  16.154  26.708  14.934
 5055W        W71464  13.299  42.990  13.558
 5056W        W71465  36.558   3.398  11.624
 5057W        W71466  26.100   0.262   1.254
 5058W        W71467  20.522   3.990  11.551
 5059W        W71468   7.842  13.297   0.774
 5060W        W71469  42.667  10.838  12.457
 5061W        W71470   9.764  25.626  10.014
 5062W        W71471   1.331   2.722   0.264
 5063W        W71472  30.109  34.079  12.410
 5064W        W71473   6.368  17.211   0.327
 5065W        W71474  21.333  41.861  13.624
 5066W        W71475   6.918   9.371   1.277
 5067W        W71476  35.522  36.338   1.110
 5068W        W71477   4.381  27.979  11.136
 5069W        W71478  25.176  21.393  12.131
 5070W        W71479   4.459  44.164   4.930
 5071W        W71480  21.378  17.306   0.445
 5072W        W71481  37.767  10.605  11.135
 5073W        W71482  16.692  27.569   2.087
 5074W        W71483  23.249  39.543   4.057
 5075W        W71484  23.581   0.570   2.503
 5076W        W71485   1.928   5.732  12.848
 5077W        W71486  36.425   9.235   3.850
 5078W        W71487  30.012   4.999  13.971
 5079W        W71488  38.516  43.830  12.934
 5080W        W71489   6.951   2.421  12.590
 5081W        W71490  31.176   9.211  13.964
 5082W        W71491   3.270  29.265  14.024
 5083W        W71492  12.602  24.449   4.029
 5084W        W71493  18.238  33.430   1.071
 5085W        W71494  13.618   3.801   3.862
 5086W        W71495  17.232   8.805  11.579
 5087W        W71496  23.739  32.614   0.014
 5088W        W71497   3.081  15.086  13.915
 5089W        W71498  24.738  14.585  11.638
 5090W        W71499  42.098   8.773  12.080
 5091W        W71500  14.686  32.854  14.938
 5092W        W71501  32.170  20.669   3.967
 5093W        W71502  19.068  10.924  12.917
 5094W        W71503  15.375   3.961  14.565
 5095W        W71504   0.087  17.024  12.257
 5096W        W71505  23.689  29.494   3.636
 5097W        W71506  20.025   2.977   4.108
 5098W        W71507   8.648  11.722   4.616
 5099W        W71508  26.085  23.716  11.567
 5100W        W71509  33.378  15.125   0.507
 5101W        W71510  33.587  37.877   3.212
 5102W        W71511  35.200  14.716   1.776
 5103W        W71512  24.448  40.215   1.747
 5104W        W71513  43.548   5.930   1.850
 5105W        W71514  13.102  25.103  13.294
 5106W        W71515  38.365  32.566  11.149
 5107W        W71516  19.390  10.704  12.394
 5108W        W71517  43.509  22.665  11.265
 5109W        W71518  32.503  24.996  14.023
 5110W        W71519  26.045  28.212   0.931
 5111W        W71520   4.911   0.251   4.577
 5112W        W71521   1.965  28.578   3.248
 5113W        W71522  26.186  22.987  11.245
 5114W        W71523  37.581   7.288   2.374
 5115W        W71524  31.918  39.747   1.714
 5116W        W71525   5.695   5.746  11.070
 5117W        W71526   7.389  27.974  14.948
 5118W        W71527  25.681  29.626  11.308
 5119W        W71528   3.848  15.861   1.809
 5120W        W71529   0.915   0.216  12.439
 5121W        W71530  12.275  16.309  11.969
 5122W        W71531  25.486   4.443  14.422
 5123W        W71532  14.330  34.955   3.638
 5124W        W71533  18.732   6.127  12.579
 5125W        W71534  28.074  27.521  12.862
 5126W        W71535   5.721  43.820  12.875
 5127W        W71536  15.488  33.163   1.442
 5128W        W71537  20.324  29.942  12.620
 5129W        W71538  31.976  27.119  10.677
 5130W        W71539  22.544  31.067   3.191
 5131W        W71540   7.840  35.047  12.590
 5132W        W71541  17.367  22.847  14.130
 5133W        W71542  41.256  18.080   2.195
 5134W        W71543  19.608  16.171  10.896
 5135W        W71544  40.001  19.535  11.091
 5136W        W71545  12.379  25.689  12.839
 5137W        W71546  34.556   8.786  10.760
 5138W        W71547  13.898   6.798  10.673
 5139W        W71548   7.672   9.940  13.957
 5140W        W71549  42.384  24.024   1.628
 5141W        W71550  13.788  31.213  11.739
 5142W        W71551  12.360  34.048   0.743
 5143W        W71552  31.000   2.218   9.855
 5144W        W71553  39.186  31.689  13.466
 5145W        W71554  37.058  25.719   4.167
 5146W        W71555   3.864   9.006  13.289
 5147W        W71556   9.430   5.385   3.625
 5148W        W71557  34.236   2.291   4.016
 5149W        W71558  22.769  33.576  11.173
 5150W        W71559  35.801  40.465   2.140
 5151W        W71560  13.759  31.316   3.254
 5152W        W71561  14.087  31.597  14.799
 5153W        W71562  15.524  27.550   2.338
 5154W        W71563  39.921   9.721   3.852
 5155W        W71564  21.163  38.585  13.732
 5156W        W71565  31.641  22.520   4.056
 5157W        W71566  41.393  28.150  14.767
 5158W        W71567  29.176  11.399   1.386
 5159W        W71568   9.294   8.819   1.376
 5160W        W71569   9.723  38.924  10.359
 5161W        W71570  16.843  40.320   3.801
 5162W        W71571  16.163   0.876  13.475
 5163W        W71572  29.853  21.576   4.792
 5164W        W71573  43.446  33.882  14.887
 5165W        W71574  12.117   6.167  13.459
 5166W        W71575   4.878   1.584  11.186
 5167W        W71576  44.710  20.741  11.611
 5168W        W71577  11.631   9.920   3.755
 5169W        W71578  26.921   8.181  13.057
 5170W        W71579  40.445  41.998   4.666
 5171W        W71580  13.468  30.428   3.289
 5172W        W71581   7.521  25.544   0.052
 5173W        W71582  27.646  21.189   4.315
 5174W        W71583   9.405  24.323   1.818
 5175W        W71584  15.105  39.873   4.147
 5176W        W71585   0.859  42.778  14.501
 5177W        W71586  35.605  39.811   1.762
 5178W        W71587  35.339  24.824   0.751
 5179W        W71588   5.312   9.173  13.847
 5180W        W71589  37.112  38.443   1.221
 5181W        W71590  39.490  20.621   2.143
 5182W        W71591  20.594  11.796  12.801
 5183W        W71592  29.490   1.050   4.510
 5184W        W71593  43.065  10.790   4.482
 5185W        W71594  24.319   3.749   0.451
 5186W        W71595  37.458   0.936   4.121
 5187W        W71596  37.808  30.977   2.326
 5188W        W71597  19.864  44.587  13.320
 5189W        W71598   2.789  36.459  13.392
 5190W        W71599  39.973  38.855  14.998
 5191W        W71600   8.158   4.336   4.099
 5192W        W71601  13.856  41.944   4.817
 5193W        W71602  22.209  33.426   1.358
 5194W        W71603  41.344  37.830  11.849
 5195W        W71604  38.402   3.882  12.935
 5196W        W71605  20.054  33.480  11.308
 5197W        W71606  14.229   6.930  12.399
 5198W        W71607  18.742  33.399   2.791
 5199W        W71608  37.801  25.005   4.597
 5200W        W71609  43.782  36.106   4.421
 5201W        W71610  36.516  35.028  14.720
 5202W        W71611   4.270  33.501  13.848
 5203W        W71612  42.380  35.186  13.999
 5204W        W71613   7.762  39.226   3.670
 5205W        W71614   9.435   1.812   0.382
 5206W        W71615  38.805   1.369   0.830
 5207W        W71616  44.923  11.723  14.440
 5208W        W71617   0.246  15.685   2.656
 5209W        W71618  20.076  13.074   2.935
 5210W        W71619  13.405  27.991  12.775
 5211W        W71620  21.152  40.975  13.278
 5212W        W71621  44.644  26.034  12.538
 5213W        W71622  32.984   2.711  13.355
 5214W        W71623  16.797  42.929  11.595
 5215W        W71624   2.448  29.121  12.636
 5216W        W71625  41.915  43.413   0.961
 5217W        W71626   7.134  44.904   3.662
 5218W        W71627  29.217  34.841  14.931
 5219W        W71628   3.227  32.908   1.187
 5220W        W71629  36.409  17.015  14.997
 5221W        W71630  13.140  28.268  13.772
 5222W        W71631   6.692   3.254  10.629
 5223W        W71632  24.276   4.744  10.737
 5224W        W71633  26.669   1.047  13.512
 5225W        W71634  20.420  19.641   1.241
 5226W        W71635  22.070   4.824   3.105
 5227W        W71636  15.948  41.041   5.447
 5228W        W71637  18.780  22.784  11.684
 5229W        W71638   7.134  41.305  12.536
 5230W        W71639   6.720  22.263  14.424
 5231W        W71640  27.285  25.467   4.047
 5232W        W71641   8.982  23.727  14.139
 5233W        W71642  17.676  22.532   4.833
 5234W        W71643  33.670  27.847   0.886
 5235W        W71644  18.190  13.768   3.290
 5236W        W71645  24.661  36.946  13.207
 5237W        W71646  12.787   2.585   1.727
 5238W        W71647   3.253  13.224   2.426
 5239W        W71648   0.406  35.215   4.222
 5240W        W71649  33.630  26.102   0.435
 5241W        W71650  17.551  19.173   2.227
 5242W        W71651  41.651  14.775   3.989
 5243W        W71652   0.000  10.398  14.238
 5244W        W71653   5.216  25.609  12.445
 5245W        W71654  24.226  42.343   0.216
 5246W        W71655   2.206   2.507   0.011
 5247W        W71656   2.494  37.265  14.099
 5248W        W71657  12.116  12.862   2.694
 5249W        W71658  19.977  29.975   4.856
 5250W        W71659   1.831  28.846  14.254
 5251W        W71660  32.913  14.159   3.735
 5252W        W71661  17.809  31.907  11.690
 5253W        W71662   6.772  13.148  12.989
 5254W        W71663  10.452   8.645  12.867
 5255W        W71664  21.770  26.093  11.067
 5256W        W71665   3.656  25.101   3.758
 5257W        W71666  34.783  10.607   0.402
 5258W        W71667  23.950  22.904   0.504
 5259W        W71668  21.422  32.397  12.072
 5260W        W71669   7.955  22.603   4.559
 5261W        W71670  43.852  26.031   2.806
 5262W        W71671   8.132  22.605   2.327
 5263W        W71672  13.867   2.552  11.562
 5264W        W71673   6.886   1.280   1.851
 5265W        W71674  13.587  43.891   1.260
 5266W        W71675   1.048  22.802  11.396
 5267W        W71676   9.341  15.692  14.352
 5268W        W71677  38.742  42.467   4.600
 5269W        W71678   6.766  29.704  11.487
 5270W        W71679  19.387   6.183  12.139
 5271W        W71680  17.131  18.020  13.145
 5272W        W71681  30.149  39.939  14.644
 5273W        W71682   6.448  20.717  11.102
 5274W        W71683   4.270  11.849   3.401
 5275W        W71684  15.648  16.820  13.420
 5276W        W71685  12.106   8.160   3.690
 5277W        W71686  15.630  23.422   3.188
 5278W        W71687  19.763  34.016   0.380
 5279W        W71688  43.461  34.471  11.064
 5280W        W71689   9.252  29.535  14.189
 5281W        W71690  11.223  24.944  12.021
 5282W        W71691   7.762   8.807  14.222
 5283W        W71692  23.630   4.158   1.821
 5284W        W71693  40.647  11.755  10.678
 5285W        W71694  41.805  43.368   0.462
 5286W        W71695  31.751  36.400   3.280
 5287W        W71696  39.310  20.512  14.340
 5288W        W71697  13.788  30.931   2.307
 5289W        W71698  36.287  20.956   2.418
 5290W        W71699  42.997  30.341   3.573
 5291W        W71700  27.702  10.120  12.352
 5292W        W71701  33.133   9.928   0.746
 5293W        W71702  20.086  34.378   3.311
 5294W        W71703  29.130  34.150   0.815
 5295W        W71704  43.312   6.448  11.550
 5296W        W71705   4.882  10.418   2.613
 5297W        W71706   7.365  39.947  13.372
 5298W        W71707  28.493  16.601   4.096
 5299W        W71708   3.986   5.024   0.864
 5300W        W71709  28.464  42.057  12.514
 5301W        W71710  17.080  16.851  13.570
 5302W        W71711  36.472  12.297  13.856
 5303W        W71712   6.107   6.531  11.157
 5304W        W71713   2.830  32.931  12.167
 5305W        W71714  11.110  23.525  14.946
 5306W        W71715  36.538  31.650  12.052
 5307W        W71716  42.561  25.504  14.514
 5308W        W71717  19.025  31.348   0.238
 5309W        W71718  26.241  42.941  11.136
 5310W        W71719  28.460  21.095   3.608
 5311W        W71720  27.922  12.434   0.465
 5312W        W71721  33.547  19.681   3.337
 5313W        W71722  17.633  21.044   0.243
 5314W        W71723  26.011  37.541  14.502
 5315W        W71724   9.173  41.570   9.876
 5316W        W71725  37.014  21.610   4.525
 5317W        W71726  34.375  36.852  11.158
 5318W        W71727   4.116  37.175   3.545
 5319W        W71728  17.203  14.146   2.629
 5320W        W71729   6.919  14.130  14.952
 5321W        W71730   8.198  20.734  14.568
 5322W        W71731  24.153  15.386   0.278
 5323W        W71732  14.698  39.586   2.096
 5324W        W71733  29.875  32.057   0.370
 5325W        W71734  13.322  10.646  10.398
 5326W        W71735   8.341  38.067   2.860
 5327W        W71736  30.558  28.177   2.307
 5328W        W71737  35.000  31.902   3.167
 5329W        W71738   1.955  44.977   3.700
 5330W        W71739  13.061  43.017  10.655
 5331W        W71740  32.119  28.611  12.135
 5332W        W71741  18.942   3.769   1.445
 5333W        W71742  27.630  44.410   1.335
 5334W        W71743  20.488  32.448   2.506
 5335W        W71744  22.665   4.655  13.686
 5336W        W71745  43.078  44.907   4.077
 5337W        W71746   2.925  31.351  12.186
 5338W        W71747  16.093  29.208   1.008
 5339W        W71748  24.416   0.988   4.143
 5340W        W71749  38.975  22.170  12.882
 5341W        W71750  25.199  33.114  14.475
 5342W        W71751   1.837  42.064   1.606
 5343W        W71752  44.160  26.599  10.018
 5344W        W71753  16.180  13.594   3.507
 5345W        W71754  20.068  32.599  13.627
 5346W        W71755   3.175  29.061   1.979
 5347W        W71756   4.874  44.148  14.513
 5348W        W71757  44.751  41.321   3.220
 5349W        W71758  12.046  11.657  13.972
 5350W        W71759  19.594  11.925   1.622
 5351W        W71760  12.676  25.968  10.734
 5352W        W71761   5.885  25.757   2.100
 5353W        W71762  13.788  14.044  13.006
 5354W        W71763  24.253  35.058  10.972
 5355W        W71764  40.017   1.939  13.408
 5356W        W71765  32.822   1.284   2.839
 5357W        W71766  23.236  21.515   4.075
 5358W        W71767  19.521   6.085  13.504
 5359W        W71768   0.476   8.352  11.461
 5360W        W71769  21.117   5.212  13.471
 5361W        W71770  32.605  17.194  10.659
 5362W        W71771   0.698  10.399   3.204
 5363W        W71772  12.289   0.995   0.816
 5364W        W71773  36.986  13.062   3.221
 5365W        W71774  33.642  40.407  10.464
 5366W        W71775  35.310  39.519   0.307
 5367W        W71776  40.994   1.603  12.549
 5368W        W71777  24.800  36.303   1.688
 5369W        W71778   6.779  41.283  13.923
 5370W        W71779  25.457  34.616  11.230
 5371W        W71780  34.119   6.873   1.166
 5372W        W71781   5.791   1.038  12.143
 5373W        W71782  37.082  37.402   0.718
 5374W        W71783  27.099  27.746  11.177
 5375W        W71784  15.945  28.194  14.336
 5376W        W71785  35.838  23.975  12.135
 5377W        W71786  22.271  40.605   3.775
 5378W        W71787  15.678  17.029  14.358
 5379W        W71788   3.307  16.687   9.730
 5380W        W71789  43.805  24.754  11.193
 5381W        W71790  42.319  15.838   1.028
 5382W        W71791  35.972  20.084  10.184
 5383W        W71792  31.979  40.667  13.943
 5384W        W71793  26.088  16.360  13.825
 5385W        W71794  32.141  42.099  11.859
 5386W        W71795  32.284  44.211  13.368
 5387W        W71796  30.732   5.976  10.192
 5388W        W71797  15.573  22.594   0.662
 5389W        W71798  13.371  17.482  12.551
 5390W        W71799  32.359   8.657   4.454
 5391W        W71800   8.936  16.296   2.688
 5392W        W71801   2.782   3.712   3.340
 5393W        W71802   7.984  18.617   4.215
 5394W        W71803  29.408  14.252   2.793
 5395W        W71804  28.113  26.900   1.402
 5396W        W71805  23.985  11.774   3.629
 5397W        W71806  29.811   2.909  13.319
 5398W        W71807  12.672   5.799  12.624
 5399W        W71808  36.502  25.982   2.616
 5400W        W71809   3.671  42.028  10.795
 5401W        W71810  35.443  16.757  14.024
 5402W        W71811   0.243  19.894  11.466
 5403W        W71812  30.028  16.847   1.966
 5404W        W71813  33.433   5.709   3.655
 5405W        W71814   2.370  35.094  14.344
 5406W        W71815  34.957  23.218   1.748
 5407W        W71816  12.592  10.239   3.261
 5408W        W71817  22.608  20.762  11.084
 5409W        W71818   6.682  41.077  11.637
 5410W        W71819  21.671  42.997   0.520
 5411W        W71820  39.117  14.782  13.986
 5412W        W71821  43.691  13.237  14.398
 5413W        W71822  14.671  36.422  13.827
 5414W        W71823  36.037  16.088   2.149
 5415W        W71824  11.324  26.764  11.402
 5416W        W71825  34.845   2.033  14.367
 5417W        W71826  44.041  41.121  10.830
 5418W        W71827   2.436  37.325   1.422
 5419W        W71828  17.227  40.996   0.811
 5420W        W71829  38.600  35.369  13.517
 5421W        W71830  36.006  12.033  13.878
 5422W        W71831  14.776  35.367   0.966
 5423W        W71832   2.264  37.699   3.238
 5424W        W71833  18.760  19.214   1.832
 5425W        W71834   5.785   8.659   5.037
 5426W        W71835  12.074  42.876  12.624
 5427W        W71836   5.244  15.256   2.757
 5428W        W71837  17.674  28.067  12.393
 5429W        W71838  28.565  10.251   4.452
 5430W        W71839   3.902  14.821  12.520
 5431W        W71840  27.887  27.342   2.727
 5432W        W71841   5.532  19.673   0.607
 5433W        W71842  41.918  12.174  12.817
 5434W        W71843  30.149  12.720   0.981
 5435W        W71844   0.740  28.952   3.592
 5436W        W71845  23.942  18.250   4.541
 5437W        W71846  23.744   5.393   2.334
 5438W        W71847   1.275  17.610  13.924
 5439W        W71848   5.879   6.794   0.278
 5440W        W71849  19.496  33.015   4.097
 5441W        W71850  43.112   1.175  11.128
 5442W        W71851  13.700  10.682  13.441
 5443W        W71852  29.719   3.418   2.734
 5444W        W71853   8.405   1.465  14.797
 5445W        W71854  11.990   4.867  10.461
 5446W        W71855   0.384  38.541  14.780
 5447W        W71856  31.426  42.079  12.592
 5448W        W71857  42.633  22.751  10.925
 5449W        W71858  10.562   5.358   1.731
 5450W        W71859  40.992  19.648  13.082
 5451W        W71860  15.739  15.707  10.625
 5452W        W71861  14.672  17.224  11.698
 5453W        W71862  23.272  23.916   3.911
 5454W        W71863  28.515  20.256   2.615
 5455W        W71864  20.740  44.035   4.591
 5456W        W71865   6.799  26.527  13.396
 5457W        W71866  17.241   9.668   1.722
 5458W        W71867   6.966  19.516   3.855
 5459W        W71868  31.562  33.394  12.498
 5460W        W71869  27.964  19.272   0.221
 5461W        W71870  44.700  10.057   2.991
 5462W        W71871  36.544  17.080   4.949
 5463W        W71872  33.035  22.038  13.272
 5464W        W71873  35.876  34.521  14.118
 5465W        W71874   8.414  41.826   3.555
 5466W        W71875  28.070   6.529   1.230
 5467W        W71876  20.111  43.511  13.868
 5468W        W71877  44.250  30.641   0.177
 5469W        W71878   8.926  12.047   3.350
 5470W        W71879  36.583  27.626  12.638
 5471W        W71880  34.850  35.261   0.887
 5472W        W71881   3.352  13.059   0.216
 5473W        W71882  38.405  40.878   1.068
 5474W        W71883  14.579  10.350  13.418
 5475W        W71884   5.453   2.720   0.052
 5476W        W71885  30.152   7.676   4.566
 5477W        W71886   8.661   7.376   5.004
 5478W        W71887  30.359  17.641   4.679
 5479W        W71888   8.163  16.773   2.291
 5480W        W71889   8.195   7.906   1.786
 5481W        W71890  12.409  35.671   1.347
 5482W        W71891   0.421  12.081  13.357
 5483W        W71892  22.045  34.365  13.569
 5484W        W71893  28.700  15.073   1.855
 5485W        W71894   7.460  34.796  10.866
 5486W        W71895  29.515  44.731  12.059
 5487W        W71896   3.122   6.997  14.330
 5488W        W71897  38.330  24.447  14.963
 5489W        W71898   7.327  20.899  12.486
 5490W        W71899  26.024  10.720  14.450
 5491W        W71900  17.261  44.758   4.124
 5492W        W71901  19.144   0.430   2.341
 5493W        W71902  13.828   4.400  11.143
 5494W        W71903  39.851   8.138  10.688
 5495W        W71904  17.509  41.588  11.271
 5496W        W71905   2.477  21.230   2.788
 5497W        W71906  13.083  20.219   2.347
 5498W        W71907   6.652  22.220  12.168
 5499W        W71908   6.878  36.486  13.714
 5500W        W71909  43.987   4.018  11.433
 5501W        W71910   0.422  33.792   4.504
 5502W        W71911  37.422  32.470   1.851
 5503W        W71912  26.904  37.970   1.923
 5504W        W71913   2.284   8.955  13.863
 5505W        W71914   5.547  17.593  13.594
 5506W        W71915  41.388  16.733  11.116
 5507W        W71916  22.229   9.739  13.785
 5508W        W71917  26.708  35.930  14.345
 5509W        W71918  27.290   1.644  11.637
 5510W        W71919  13.398   9.804  10.631
 5511W        W71920  10.080  43.364   4.525
 5512W        W71921  14.457  15.631   4.994
 5513W        W71922  19.580  15.195   0.714
 5514W        W71923  31.862  10.911  14.108
 5515W        W71924  22.289  30.981  11.149
 5516W        W71925  22.163  44.898   2.226
 5517W        W71926  27.085  25.292  14.036
 5518W        W71927  28.921  29.941   0.239
 5519W        W71928  20.251  44.219   4.562
 5520W        W71929  19.300   8.765   4.780
 5521W        W71930  24.776  27.035   0.689
 5522W        W71931  26.915  32.577  11.507
 5523W        W71932   3.692  43.363   3.407
 5524W        W71933   5.755   7.021   2.640
 5525W        W71934  23.028  32.786   4.087
 5526W        W71935  31.722  10.643   3.815
 5527W        W71936  27.686  26.039  13.979
 5528W        W71937  31.256  28.033   5.025
 5529W        W71938  38.784  26.967  13.638
 5530W        W71939  38.572  23.033   2.769
 5531W        W71940  27.428  24.433  13.321
 5532W        W71941   4.472  28.838   0.464
 5533W        W71942  28.610  24.373   1.035
 5534W        W71943  29.622  38.396   4.216
 5535W        W71944  40.901   5.183   1.142
 5536W        W71945  13.102  42.762  13.983
 5537W        W71946  40.900  28.676  10.679
 5538W        W71947  19.851  44.199   2.293
 5539W        W71948   8.149  34.961  13.867
 5540W        W71949  16.016  11.159  14.868
 5541W        W71950  33.792  10.716  11.175
 5542W        W71951  24.739   9.074   2.208
 5543W        W71952   5.467  40.191  12.995
 5544W        W71953  29.201   3.856  14.332
 5545W        W71954  42.483  36.394   1.937
 5546W        W71955  41.903  40.430   3.859
 5547W        W71956  33.936   8.658   2.680
 5548W        W71957  32.396  25.713   4.044
 5549W        W71958  10.395  37.060   3.184
 5550W        W71959  10.853  30.399   1.343
 5551W        W71960  36.970  14.613  12.914
 5552W        W71961  40.478  13.384   0.791
 5553W        W71962  24.153  10.121  11.299
 5554W        W71963  17.215   5.672  11.015
 5555W        W71964   2.083  15.364   2.651
 5556W        W71965  10.908  17.783   3.679
 5557W        W71966   8.790  31.686  14.243
 5558W        W71967  41.312   1.002   1.278
 5559W        W71968  18.236  19.342  11.589
 5560W        W71969   5.574   9.437  12.083
 5561W        W71970  20.411  42.163  11.912
 5562W        W71971   4.761  39.940  12.010
 5563W        W71972   3.210  19.904   0.870
 5564W        W71973  33.456  11.832  14.481
 5565W        W71974  28.903  37.978   2.248
 5566W        W71975   3.061  43.335  10.646
 5567W        W71976  10.114  41.510   4.018
 5568W        W71977  24.066  19.803   4.041
 5569W        W71978   2.167  23.108   0.813
 5570W        W71979   7.235  44.888   0.671
 5571W        W71980  31.154  38.428   2.587
 5572W        W71981  38.224  16.028  11.267
 5573W        W71982  26.292  31.427   0.497
 5574W        W71983  33.019  26.060  11.079
 5575W        W71984  16.095  43.112   4.316
 5576W        W71985   7.885   6.955   1.411
 5577W        W71986  31.140  24.248   0.392
 5578W        W71987  28.944  42.325  10.750
 5579W        W71988  24.003  20.970  11.792
 5580W        W71989  22.991  36.408  13.513
 5581W        W71990  14.560  11.791   4.796
 5582W        W71991  19.251   1.499   4.710
 5583W        W71992  24.134  22.088   3.234
 5584W        W71993   8.202  29.901   0.295
 5585W        W71994  30.191  15.582   2.421
 5586W        W71995  20.060  38.528   2.882
 5587W        W71996   5.963  17.825  14.888
 5588W        W71997  31.821  32.003   4.524
 5589W        W71998  33.658  26.219   4.351
 5590W        W71999   6.822   7.977   4.716
 5591W        W72000  28.691   1.153   1.921
 5592W        W72001  23.015  37.441   1.486
 5593W        W72002  33.402  19.807  13.950
 5594W        W72003  41.658  41.829   0.257
 5595W        W72004   3.028  36.887   0.657
 5596W        W72005  39.308  13.098   0.183
 5597W        W72006  26.161  41.458  11.874
 5598W        W72007  18.333  12.386   1.849
 5599W        W72008   1.790   1.692  12.120
 5600W        W72009  17.827   2.807   2.469
 5601W        W72010  27.954   7.475  14.869
 5602W        W72011   8.282   2.264   2.730
 5603W        W72012   8.465  29.959   3.192
 5604W        W72013  40.970  27.913  12.138
 5605W        W72014  31.661  38.749   2.144
 5606W        W72015  30.840  12.590  11.192
 5607W        W72016  20.201   8.321  12.436
 5608W        W72017  42.412  18.213  14.442
 5609W        W72018  38.137  25.263   2.337
 5610W        W72019  24.833   6.998   4.720
 5611W        W72020  11.710  13.823  14.751
 5612W        W72021   4.429  39.460   3.265
 5613W        W72022  19.858   6.032  10.788
 5614W        W72023   0.090  30.711   2.521
 5615W        W72024  15.343  29.171   1.325
 5616W        W72025  44.469  44.483  10.957
 5617W        W72026  38.445  43.381   0.286
 5618W        W72027   9.814  40.748  11.577
 5619W        W72028  19.163   6.900  13.893
 5620W        W72029  25.261  40.867   1.835
 5621W        W72030  37.377  38.546   2.212
 5622W        W72031  19.077  44.520   3.270
 5623W        W72032  42.018  18.245   1.722
 5624W        W72033  21.213  20.183   3.588
 5625W        W72034  12.767  34.612   2.716
 5626W        W72035  41.443  28.002  12.356
 5627W        W72036  30.575  38.408  13.587
 5628W        W72037   3.850   3.328  14.534
 5629W        W72038  35.165  37.977  12.324
 5630W        W72039   0.645   1.481  12.078
 5631W        W72040  11.622  18.932  14.391
 5632W        W72041  34.834   8.968  11.167
 5633W        W72042  14.836  31.899  14.392
 5634W        W72043  35.039  14.696   2.251
 5635W        W72044  19.163  32.510   2.526
 5636W        W72045  28.879  40.434   0.780
 5637W        W72046  30.673  33.737   0.003
 5638W        W72047  33.065   7.758   3.874
 5639W        W72048  28.953   3.016   1.717
 5640W        W72049  17.328   9.308   1.320
 5641W        W72050  20.730  16.573   3.264
 5642W        W72051  41.269  29.079  12.293
 5643W        W72052  32.234  23.273  10.713
 5644W        W72053   8.840  32.069   4.075
 5645W        W72054  29.701   4.159   3.274
 5646W        W72055   0.359  21.122   1.051
 5647W        W72056   8.816  21.558  14.833
 5648W        W72057  11.735  12.415  11.065
 5649W        W72058   7.564  34.345  11.576
 5650W        W72059  27.252   4.633  11.127
 5651W        W72060  15.881  34.480  14.019
 5652W        W72061  42.135  41.523  14.510
 5653W        W72062  19.355  10.409   3.809
 5654W        W72063  29.725  36.148   1.268
 5655W        W72064  19.068  43.188   3.806
 5656W        W72065  41.304  36.327  14.358
 5657W        W72066  39.673  33.492   0.948
 5658W        W72067  34.300  43.944  11.586
 5659W        W72068  40.827  33.119  10.577
 5660W        W72069  19.129  36.104  11.979
 5661W        W72070  39.037  26.542  10.697
 5662W        W72071  30.043  32.368  12.112
 5663W        W72072  40.675  37.469   1.813
 5664W        W72073  41.421  10.055  11.495
 5665W        W72074  36.954  10.855  12.283
 5666W        W72075  39.307  17.056   0.496
 5667W        W72076  26.467  11.626   0.747
 5668W        W72077  39.989  24.033  13.812
 5669W        W72078   5.278  26.567   1.926
 5670W        W72079  19.275  33.314  12.387
 5671W        W72080  29.642  20.682  13.683
 5672W        W72081   3.848  15.105   2.957
 5673W        W72082  26.958  17.277   1.756
 5674W        W72083   3.469  16.835  12.854
 5675W        W72084  25.277  43.643  11.932
 5676W        W72085  26.766  26.048   0.870
 5677W        W72086  22.929   0.841  14.899
 5678W        W72087  41.437  22.573  13.880
 5679W        W72088  38.217  29.377  11.170
 5680W        W72089  21.183  29.111   0.525
 5681W        W72090  19.493  16.288   3.398
 5682W        W72091  32.984  44.839   4.645
 5683W        W72092  24.576  37.103   2.827
 5684W        W72093   0.449  14.539  13.183
 5685W        W72094  33.321   9.767  11.571
 5686W        W72095   3.358  24.965   4.165
 5687W        W72096  29.805  30.049  11.866
 5688W        W72097  36.297  33.676   0.444
 5689W        W72098  36.255  35.614   4.057
 5690W        W72099  40.246  39.654   4.768
 5691W        W72100  33.593  25.279   2.969
 5692W        W72101  31.614  20.002   3.364
 5693W        W72102   9.547  18.512  14.003
 5694W        W72103  44.206  15.999   4.422
 5695W        W72104   6.614  44.026   3.636
 5696W        W72105   7.047   9.499  11.992
 5697W        W72106  31.747  29.381  13.361
 5698W        W72107  25.353  37.989  10.846
 5699W        W72108  40.134  35.961   2.498
 5700W        W72109  31.030  20.346   2.713
 5701W        W72110  29.641   4.943  12.413
 5702W        W72111   1.115  21.613   0.523
 5703W        W72112  11.185  12.678   0.430
 5704W        W72113  41.473   7.611   1.916
 5705W        W72114  13.867  19.694  11.044
 5706W        W72115  22.935  26.092   0.194
 5707W        W72116  37.961  27.107  11.935
 5708W        W72117   7.523  29.803  14.509
 5709W        W72118  16.789  23.937   4.624
 5710W        W72119  37.611   3.397   3.150
 5711W        W72120  29.507  10.633   0.731
 5712W        W72121  33.147  41.997  14.955
 5713W        W72122  44.188  35.573   0.332
 5714W        W72123  25.535  11.536   0.477
 5715W        W72124   2.730  29.625   3.509
 5716W        W72125  14.200  24.995   0.219
 5717W        W72126  36.088  33.968  10.535
 5718W        W72127  16.095  37.963   2.873
 5719W        W72128  16.818  35.071   0.360
 5720W        W72129  21.827  17.656  12.957
 5721W        W72130   8.765  29.358   1.345
 5722W        W72131  32.661   7.240  10.441
 5723W        W72132  13.972   6.246  12.825
 5724W        W72133  43.825  42.390  13.535
 5725W        W72134  23.296  36.757   2.858
 5726W        W72135  39.621  11.622  14.660
 5727W        W72136  11.261  33.344   0.998
 5728W        W72137  40.424  34.084   4.514
 5729W        W72138  16.255  31.909  14.751
 5730W        W72139  13.187  41.032   2.918
 5731W        W72140  38.937  11.871   0.319
 5732W        W72141  30.489  34.538  13.123
 5733W        W72142  39.262  41.560   1.761
 5734W        W72143  40.023   9.699   4.965
 5735W        W72144  43.247   3.863  12.146
 5736W        W72145  42.620  15.661  12.014
 5737W        W72146  21.446  21.436   0.176
 5738W        W72147   8.728  23.095  14.843
 5739W        W72148   6.140   3.100   4.162
 5740W        W72149  32.144   2.896   2.377
 5741W        W72150  14.904  37.510   0.263
 5742W        W72151   4.391  25.458   3.200
 5743W        W72152  18.714   6.438   0.304
 5744W        W72153  32.954  23.015   0.864
 5745W        W72154  14.830   7.622  12.122
 5746W        W72155  25.743   1.279   2.863
 5747W        W72156  28.986  26.413   2.215
 5748W        W72157  28.306  23.325   2.433
 5749W        W72158  41.126  40.177  11.833
 5750W        W72159  29.630  29.814   4.607
 5751W        W72160  24.070  27.189  10.698
 5752W        W72161  24.604  35.077  14.500
 5753W        W72162   5.761  26.919   1.387
 5754W        W72163  43.491  31.364  13.524
 5755W        W72164  22.747  36.905  14.836
 5756W        W72165  12.625  19.685  14.858
 5757W        W72166  43.073  33.489   4.277
 5758W        W72167  42.239  21.219  12.923
 5759W        W72168  18.694  14.324   4.530
 5760W        W72169  15.040   3.355   2.811
 5761W        W72170  18.571  33.012   3.096
 5762W        W72171  12.637  13.224  13.059
 5763W        W72172  25.359  24.523  10.634
 5764W        W72173   3.472  40.011  11.484
 5765W        W72174  44.635   8.906   1.350
 5766W        W72175  10.210  19.624   2.768
 5767W        W72176   8.134  31.978   0.389
 5768W        W72177  40.882   0.808   3.189
 5769W        W72178   3.734  37.753  13.795
 5770W        W72179  33.490  36.078   2.816
 5771W        W72180  35.517   8.309   0.488
 5772W        W72181  40.792   0.308  14.804
 5773W        W72182  27.604  33.372  11.228
 5774W        W72183  23.119   0.227   0.965
 5775W        W72184  44.175  18.265  10.899
 5776W        W72185  39.263  22.207  11.424
 5777W        W72186  27.707  33.662  11.635
 5778W        W72187  16.021  43.573  12.910
 5779W        W72188  20.241  23.800  10.092
 5780W        W72189  40.815  11.254  13.367
 5781W        W72190  36.002  23.561  10.663
 5782W        W72191   8.613  41.417   0.234
 5783W        W72192  33.634  13.303  14.358
 5784W        W72193  37.610   4.029   1.328
 5785W        W72194  13.815   2.931  11.197
 5786W        W72195  19.960  22.158  10.672
 5787W        W72196  35.876   5.756  12.509
 5788W        W72197  36.946  31.104   4.472
 5789W        W72198   3.815   9.927  12.101
 5790W        W72199  43.990  15.658  12.991
 5791W        W72200   2.592  44.174  12.063
 5792W        W72201   0.852   1.822   5.393
 5793W        W72202  32.256  26.034   2.741
 5794W        W72203  12.366  44.453  10.697
 5795W        W72204  32.869   2.359  14.836
 5796W        W72205   4.696  21.548  13.512
 5797W        W72206  40.562   9.613  13.511
 5798W        W72207  23.218   9.844   0.970
 5799W        W72208  34.235  42.861   1.434
 5800W        W72209  38.506  43.344  11.978
 5801W        W72210   4.314  24.897  12.440
 5802W        W72211   5.840  38.081   3.693
 5803W        W72212  34.448  39.557   2.853
 5804W        W72213  23.571  23.627   4.954
 5805W        W72214  15.608   9.256   2.867
 5806W        W72215  30.622  30.881   0.820
 5807W        W72216   8.347  17.852  14.849
 5808W        W72217  21.518   6.829  14.350
 5809W        W72218  30.027  12.296   4.663
 5810W        W72219  35.438  34.029   4.618
 5811W        W72220  14.259   3.225   1.815
 5812W        W72221  11.705   9.442   3.918
 5813W        W72222  42.872  36.293   0.807
 5814W        W72223  25.120  27.151  13.928
 5815W        W72224  27.735  44.919   4.095
 5816W        W72225  40.913  13.365  10.438
 5817W        W72226  43.255  27.967   0.527
 5818W        W72227  32.185   6.901   1.447
 5819W        W72228   3.932  42.165  12.332
 5820W        W72229  26.994  27.169  14.971
 5821W        W72230  43.271   6.829   1.174
 5822W        W72231  28.005  42.266  10.860
 5823W        W72232   1.314  28.762   3.530
 5824W        W72233  21.370  19.939   0.915
 5825W        W72234  32.535   0.402   2.320
 5826W        W72235  25.577  44.510  13.765
 5827W        W72236   3.441  35.213   0.405
 5828W        W72237  18.994  30.318   1.278
 5829W        W72238  39.140  41.400  10.670
 5830W        W72239  44.978  21.281   5.076
 5831W        W72240  37.759  19.277  12.807
 5832W        W72241  22.792  37.187  12.510
 5833W        W72242  24.023   7.325   4.558
 5834W        W72243  20.087  31.604   2.804
 5835W        W72244  23.626  25.700  13.164
 5836W        W72245  37.299  13.146   4.554
 5837W        W72246  13.131  24.741  11.899
 5838W        W72247  17.898   5.613  12.673
 5839W        W72248   4.275  21.792  13.030
 5840W        W72249  23.855  24.756   1.285
 5841W        W72250   4.551  27.087   4.558
 5842W        W72251  14.353   5.151  13.541
 5843W        W72252  37.085  33.491  11.123
 5844W        W72253   4.652  35.485   2.481
 5845W        W72254  20.192  44.487   2.800
 5846W        W72255  44.038  11.674  12.879
 5847W        W72256  13.944  18.245   2.833
 5848W        W72257   2.751  31.888  12.001
 5849W        W72258   7.806  13.129   4.395
 5850W        W72259  28.018   1.209  14.911
 5851W        W72260  32.529   3.420  12.960
 5852W        W72261  12.677  29.501  10.852
 5853W        W72262  27.052   4.423   2.627
 5854W        W72263  12.830  36.506  12.395
 5855W        W72264   9.835  41.296   2.581
 5856W        W72265  22.936  25.278  11.021
 5857W        W72266  41.915  34.632  12.146
 5858W        W72267  14.072   9.568   4.192
 5859W        W72268  43.428  29.620   4.682
 5860W        W72269  29.811  29.376   0.685
 5861W        W72270  24.732  20.911   3.199
 5862W        W72271   3.840  38.971   2.170
 5863W        W72272  18.071  41.521   1.494
 5864W        W72273  40.441  25.449   4.721
 5865W        W72274  18.169  16.554   2.333
 5866W        W72275  15.198   3.507  14.379
 5867W        W72276   8.467  27.438  13.170
 5868W        W72277  39.788  24.729   0.067
 5869W        W72278   1.462  44.956  13.356
 5870W        W72279  17.903  18.037   0.312
 5871W        W72280   8.829   6.135   0.135
 5872W        W72281   3.857  43.772   1.318
 5873W        W72282  36.590   7.166  12.010
 5874W        W72283  30.896  14.201  12.150
 5875W        W72284  32.146   4.757  13.217
 5876W        W72285   9.351  18.212   0.401
 5877W        W72286  17.056  12.165   4.282
 5878W        W72287  13.586  14.220   1.924
 5879W        W72288  37.377  12.722  14.073
 5880W        W72289   8.623  19.604   2.867
 5881W        W72290  21.051  16.400  12.086
 5882W        W72291  25.086  18.508   4.084
 5883W        W72292  32.259   8.290  13.043
 5884W        W72293  33.228  34.857   1.553
 5885W        W72294   7.426   5.851  14.945
 5886W        W72295  29.773   5.924   2.773
 5887W        W72296  12.993   4.457  11.018
 5888W        W72297  40.924   1.117   3.670
 5889W        W72298  31.545  27.140  13.495
 5890W        W72299  24.264  42.253   3.798
 5891W        W72300  32.127  30.445  13.424
 5892W        W72301  33.116  20.815   3.390
 5893W        W72302  22.749  39.426   4.100
 5894W        W72303   4.743  29.852   2.923
 5895W        W72304  31.847  14.176  12.435
 5896W        W72305   6.659  24.999   0.036
 5897W        W72306  32.838  43.241  10.985
 5898W        W72307  36.217  36.208  14.304
 5899W        W72308  18.809  10.385   5.221
 5900W        W72309  22.591  12.522  10.474
 5901W        W72310   9.165  36.920   4.549
 5902W        W72311  36.336  34.502   3.052
 5903W        W72312  30.936  17.668   1.872
 5904W        W72313  16.137  22.573  13.978
 5905W        W72314  20.783  42.429   0.310
 5906W        W72315  41.553  20.131   3.229
 5907W        W72316  10.756   3.293   1.779
 5908W        W72317  20.112  21.008   0.880
 5909W        W72318   9.159  34.654  12.498
 5910W        W72319  32.544  38.521  13.072
 5911W        W72320  17.729   1.807   1.695
 5912W        W72321  34.034  22.428  11.963
 5913W        W72322  13.231   6.907  13.893
 5914W        W72323  23.508  36.937   1.819
 5915W        W72324  32.647  18.473   3.310
 5916W        W72325  26.540  43.304   4.420
 5917W        W72326  40.242   7.079  10.168
 5918W        W72327  21.485  40.465  14.680
 5919W        W72328   8.583  30.847  13.950
 5920W        W72329  42.248  29.867   0.194
 5921W        W72330  43.282  36.544  13.540
 5922W        W72331  19.076  30.436   0.288
 5923W        W72332  22.201  33.133   1.796
 5924W        W72333   0.426   2.680   2.833
 5925W        W72334  24.170  42.894   0.877
 5926W        W72335   1.367   2.375   0.924
 5927W        W72336  19.238  25.464  14.960
 5928W        W72337   5.654  20.475   4.383
 5929W        W72338   6.696  30.259  10.729
 5930W        W72339  37.028   7.464   4.159
 5931W        W72340  25.575  20.979  12.551
 5932W        W72341  14.809  22.584  12.417
 5933W        W72342  31.855   4.425   2.727
 5934W        W72343  27.033  40.523  10.538
 5935W        W72344   3.352  34.684  13.346
 5936W        W72345  31.381  30.645  12.792
 5937W        W72346  37.383   8.088   2.938
 5938W        W72347  36.190  19.550   3.937
 5939W        W72348  24.241   3.116   1.922
 5940W        W72349  40.027   3.290   1.057
 5941W        W72350  28.574   6.744   0.394
 5942W        W72351  32.154   6.668   2.861
 5943W        W72352   7.010  23.112   3.087
 5944W        W72353  42.414  32.811   2.755
 5945W        W72354  26.916  44.755   3.356
 5946W        W72355  21.670   9.911  12.067
 5947W        W72356  18.820  22.741   1.807
 5948W        W72357  32.026  44.867  11.045
 5949W        W72358  30.701   6.634  14.213
 5950W        W72359  30.478  26.093   1.370
 5951W        W72360  34.125  31.588  14.921
 5952W        W72361  34.541   1.288   1.973
 5953W        W72362  20.298  38.693  14.121
 5954W        W72363  32.934  16.246  12.344
 5955W        W72364  27.045  14.109   3.240
 5956W        W72365  19.769  23.461  11.585
 5957W        W72366  27.755  10.768  11.632
 5958W        W72367  38.759  31.487  14.902
 5959W        W72368  24.545  25.454   4.562
 5960W        W72369  31.552  40.557   1.206
 5961W        W72370  38.119  39.038  14.412
 5962W        W72371  38.878  32.226   0.377
 5963W        W72372  34.862   1.139  13.087
 5964W        W72373  22.634  22.152  13.978
 5965W        W72374   3.909  14.542   0.928
 5966W        W72375  17.210  12.677   2.474
 5967W        W72376  22.598  39.098  10.032
 5968W        W72377  12.630  20.588   3.132
 5969W        W72378  18.305  11.393   0.553
 5970W        W72379  28.959  10.121   3.569
 5971W        W72380  40.931   7.142   1.405
 5972W        W72381  10.566  32.757  12.688
 5973W        W72382  26.027   3.308   3.279
 5974W        W72383  20.201   7.358   2.848
 5975W        W72384  23.106  15.817  14.897
 5976W        W72385   0.456  40.947  13.833
 5977W        W72386  40.975   4.382  11.254
 5978W        W72387  20.222  32.774   0.916
 5979W        W72388  18.026  24.104   4.973
 5980W        W72389  37.151  17.271  14.269
 5981W        W72390  22.931  37.519   3.233
 5982W        W72391   0.749  42.177   4.061
 5983W        W72392   0.987  23.587   3.173
 5984W        W72393   3.031  42.547  12.587
 5985W        W72394  13.137  42.886  12.459
 5986W        W72395   2.656   1.031   0.533
 5987W        W72396   6.628  12.231  12.930
 5988W        W72397   3.460  16.233  14.529
 5989W        W72398  10.889  30.120   0.906
 5990W        W72399  33.768  33.070  13.144
 5991W        W72400  20.380   0.886  13.095
 5992W        W72401  28.274  20.084  14.903
 5993W        W72402   0.399  38.324   4.773
 5994W        W72403   0.309   7.962   4.364
 5995W        W72404  12.373  34.946   3.606
 5996W        W72405  30.098  33.532  11.217
 5997W        W72406  19.124   7.407  11.729
 5998W        W72407   3.449  35.722   0.500
 5999W        W72408  17.994   6.892  14.406
 6000W        W72409  13.487  28.565   2.043
 6001W        W72410  18.975  38.573   4.988
 6002W        W72411  17.645   3.188   0.256
 6003W        W72412  40.755  20.388   0.311
 6004W        W72413  16.751  32.857   3.118
 6005W        W72414  13.177  41.339   4.552
 6006W        W72415  33.475   7.354  10.130
 6007W        W72416  41.332  24.464  11.278
 6008W        W72417   1.163  31.670   4.601
 6009W        W72418   6.366  35.141  10.394
 6010W        W72419   2.168   2.840   3.331
 6011W        W72420  11.240  14.709  12.652
 6012W        W72421  40.054  21.528   0.824
 6013W        W72422  44.320  25.932   2.514
 6014W        W72423   1.568   3.992   2.640
 6015W        W72424  15.798  21.265   1.365
 6016W        W72425   4.555   5.056  10.612
 6017W        W72426  37.055  24.708   1.228
 6018W        W72427  40.718  27.415  14.923
 6019W        W72428  19.369   1.868   2.244
 6020W        W72429  12.310  24.615  14.984
 6021W        W72430  43.021  20.975   3.635
 6022W        W72431  44.558  14.304   5.113
 6023W        W72432  22.145  25.903   1.617
 6024W        W72433  36.628  32.832   2.319
 6025W        W72434  28.965  43.430  11.529
 6026W        W72435  35.388  13.818  11.130
 6027W        W72436   9.334  23.989  13.851
 6028W        W72437  17.764  25.016  12.563
 6029W        W72438  20.274  34.248  13.522
 6030W        W72439   4.481  17.855  10.837
 6031W        W72440  43.807  16.862  11.215
 6032W        W72441  41.770  26.421   1.756
 6033W        W72442  30.137  21.722   2.263
 6034W        W72443   7.127  28.650   2.776
 6035W        W72444  34.335  29.226   1.847
 6036W        W72445  33.704  44.312   4.602
 6037W        W72446  30.007   4.847   1.748
 6038W        W72447  40.965   9.271   2.572
 6039W        W72448  11.716  15.560   3.641
 6040W        W72449  34.643  25.620  11.182
 6041W        W72450  27.011   8.134  12.166
 6042W        W72451  30.705  44.783   3.791
 6043W        W72452  31.596  18.786   3.240
 6044W        W72453   8.146  41.058  12.575
 6045W        W72454  42.355  21.777  14.492
 6046W        W72455  12.045   8.584   2.179
 6047W        W72456  44.896   6.097   4.142
 6048W        W72457   3.464  36.988   4.219
 6049W        W72458  20.986  18.994   0.727
 6050W        W72459   5.998  44.956  11.565
 6051W        W72460  30.885  42.919  14.381
 6052W        W72461  27.506  13.900   0.849
 6053W        W72462  14.205   0.823   1.636
 6054W        W72463  43.693  23.734   2.771
 6055W        W72464   4.594  25.047  12.899
 6056W        W72465  26.365  10.753  11.533
 6057W        W72466  19.411  42.258   0.280
 6058W        W72467   7.120  22.221  10.425
 6059W        W72468  44.661  29.121   1.703
 6060W        W72469  35.465  41.499   0.421
 6061W        W72470  16.232  25.767  11.580
 6062W        W72471   1.334  41.581  13.401
 6063W        W72472  32.404   2.938   0.749
 6064W        W72473  14.546   7.220  11.893
 6065W        W72474   1.397  15.230  13.944
 6066W        W72475  10.318  38.295   0.969
 6067W        W72476  33.018   4.447  14.391
 6068W        W72477  28.804  42.928  12.577
 6069W        W72478  13.670  26.690   9.731
 6070W        W72479  37.817   7.197  12.923
 6071W        W72480   7.001  21.002  10.227
 6072W        W72481  29.253   9.864  11.202
 6073W        W72482  41.387  17.261   0.687
 6074W        W72483  28.451  23.972  10.771
 6075W        W72484  36.115  17.536   3.157
 6076W        W72485  44.780  15.662   3.575
 6077W        W72486  27.678  10.637  14.712
 6078W        W72487  27.036   9.325  12.530
 6079W        W72488  22.049   6.315   3.063
 6080W        W72489   8.309  14.127   2.799
 6081W        W72490  30.709  15.239  13.072
 6082W        W72491  20.738  40.855   1.489
 6083W        W72492  22.255   4.357   2.917
 6084W        W72493  15.693  30.101  13.889
 6085W        W72494  37.339  30.205   2.773
 6086W        W72495  26.118   7.712   1.909
 6087W        W72496  35.827   7.539   3.713
 6088W        W72497  34.753  27.507   0.270
 6089W        W72498  31.023  27.966  13.933
 6090W        W72499  41.331  31.245  10.926
 6091W        W72500  17.802  16.385  12.900
 6092W        W72501  16.672  16.772  10.718
 6093W        W72502  24.423   7.740   1.250
 6094W        W72503   1.170   6.796  12.140
 6095W        W72504  17.724  11.676   0.632
 6096W        W72505  29.072  37.118  11.228
 6097W        W72506  20.707   8.202  11.560
 6098W        W72507  11.456  29.806  11.878
 6099W        W72508  43.956  37.264  11.654
 6100W        W72509  40.704  26.423   1.906
 6101W        W72510  22.647  13.659   2.656
 6102W        W72511  26.590   0.013  13.677
 6103W        W72512  18.035  15.739   1.786
 6104W        W72513  43.356  27.929  10.612
 6105W        W72514  16.663   1.301  11.137
 6106W        W72515  28.092  10.651   3.296
 6107W        W72516  40.489  15.148   3.764
 6108W        W72517  25.024  27.775   2.209
 6109W        W72518   8.487   2.275  12.402
 6110W        W72519  22.999  21.055   4.089
 6111W        W72520  43.530  25.100   1.907
 6112W        W72521  25.425  20.010   9.857
 6113W        W72522  39.277  16.498   9.579
 6114W        W72523  26.845   2.825   1.636
 6115W        W72524  22.138  36.452  13.789
 6116W        W72525  10.833  23.975  14.914
 6117W        W72526   4.825   1.467  14.133
 6118W        W72527  22.600  14.849   0.546
 6119W        W72528  31.458  25.205  14.491
 6120W        W72529  39.076  20.077  14.579
 6121W        W72530  42.775  43.609  12.882
 6122W        W72531  12.139  15.238   4.627
 6123W        W72532  10.303  42.910   2.083
 6124W        W72533  18.410  36.083  13.826
 6125W        W72534   1.801  28.551  10.611
 6126W        W72535   2.210  21.064  13.411
 6127W        W72536  25.176  44.811   4.049
 6128W        W72537  25.490  30.611   4.200
 6129W        W72538  39.020   9.109   2.605
 6130W        W72539   5.675  18.709   1.856
 6131W        W72540   6.976  18.157  11.890
 6132W        W72541  16.265   3.995   3.532
 6133W        W72542  15.302   7.275  11.115
 6134W        W72543   4.874  31.704  13.824
 6135W        W72544   4.299  21.849  13.988
 6136W        W72545   3.813  18.437  11.684
 6137W        W72546  16.870  40.426  13.493
 6138W        W72547  40.574  40.972   0.969
 6139W        W72548  11.084  17.160  11.614
 6140W        W72549   4.002  21.255   0.234
 6141W        W72550  28.278  32.537  10.139
 6142W        W72551   7.862   3.459   0.012
 6143W        W72552  20.698  26.557  12.386
 6144W        W72553  34.264  41.156  11.095
 6145W        W72554  44.636   1.589   3.503
 6146W        W72555  24.526  44.753   0.890
 6147W        W72556  26.151  28.712   0.934
 6148W        W72557  30.658   7.291   0.384
 6149W        W72558  39.636  23.021  13.855
 6150W        W72559  14.446   4.175   0.573
 6151W        W72560   2.010  19.111  12.685
 6152W        W72561  39.052   2.408  13.400
 6153W        W72562  11.785   8.369  13.860
 6154W        W72563  19.470  37.914   0.320
 6155W        W72564  40.740   3.804   0.852
 6156W        W72565   4.464  25.424   1.318
 6157W        W72566  13.836  33.848   4.582
 6158W        W72567  41.856  43.476  13.447
 6159W        W72568   3.336  33.111   0.673
 6160W        W72569  40.066  41.190  11.552
 6161W        W72570  27.510  10.189   4.614
 6162W        W72571  43.197  21.730  11.419
 6163W        W72572  39.906  21.037   3.270
 6164W        W72573  28.610   7.723  12.109
 6165W        W72574  27.166  10.929   0.488
 6166W        W72575  20.620  26.264   4.812
 6167W        W72576  40.295  36.364  12.403
 6168W        W72577  23.706   3.344  11.642
 6169W        W72578  41.375  14.591  14.753
 6170W        W72579  13.841  35.219  10.803
 6171W        W72580  34.469  32.296   0.451
 6172W        W72581  12.660  32.371  12.660
 6173W        W72582  10.942  23.248  14.503
 6174W        W72583   5.339  35.552  13.227
 6175W        W72584  18.123  10.672   4.945
 6176W        W72585  28.185   0.993  14.026
 6177W        W72586  38.486  26.305   3.188
 6178W        W72587  15.364  22.925   5.420
 6179W        W72588   2.767  25.066  13.369
 6180W        W72589  31.890   2.786   0.728
 6181W        W72590   1.593   1.012  14.751
 6182W        W72591  19.030  26.010   2.813
 6183W        W72592  16.736   5.783   2.155
 6184W        W72593  21.670  18.627   3.336
 6185W        W72594   2.994  25.724  12.582
 6186W        W72595  18.305   7.227   3.985
 6187W        W72596  37.437  44.320   3.634
 6188W        W72597  24.817   8.416  14.113
 6189W        W72598  31.165  42.945   4.184
 6190W        W72599  10.781   2.580  12.511
 6191W        W72600  42.506   0.817   3.668
 6192W        W72601  39.783  14.050   4.164
 6193W        W72602  29.755  31.099  10.463
 6194W        W72603  38.900  18.641   0.524
 6195W        W72604  20.772  21.343  10.989
 6196W        W72605  16.120  26.457   0.408
 6197W        W72606  43.348  28.031  11.437
 6198W        W72607  13.011   8.954   4.572
 6199W        W72608   3.874  24.661   3.521
 6200W        W72609  24.796  12.409   0.164
 6201W        W72610  11.651  20.437   0.766
 6202W        W72611  32.990  32.593   4.202
 6203W        W72612  14.775   6.867   1.250
 6204W        W72613   6.652  31.664   4.180
 6205W        W72614   5.823  19.363  12.113
 6206W        W72615  39.796  18.735  14.634
 6207W        W72616  31.142   7.397  13.739
 6208W        W72617  15.279   0.081  11.323
 6209W        W72618  43.971   3.967   1.889
 6210W        W72619  20.088   2.210  11.192
 6211W        W72620   6.885  32.899   0.658
 6212W        W72621  36.054  31.454  12.812
 6213W        W72622  43.192  34.931  14.370
 6214W        W72623  18.076  42.864   4.097
 6215W        W72624  38.508  29.066   3.382
 6216W        W72625  28.309  20.848  10.018
 6217W        W72626  22.087  37.863   3.218
 6218W        W72627  44.705   5.384  10.629
 6219W        W72628  24.033  34.372  13.513
 6220W        W72629  39.993  12.362  14.788
 6221W        W72630  22.626  23.492   2.287
 6222W        W72631  44.299  32.714   0.369
 6223W        W72632  12.711  11.836   4.198
 6224W        W72633  30.180  29.952   2.435
 6225W        W72634  34.610  26.085   0.513
 6226W        W72635  14.566  16.449   4.170
 6227W        W72636  33.368  13.057  13.980
 6228W        W72637  33.624  14.387   2.601
 6229W        W72638   1.342   8.136  10.729
 6230W        W72639   0.318  10.366   3.562
 6231W        W72640  29.125  43.537   0.465
 6232W        W72641  14.083   3.829  13.987
 6233W        W72642  32.500   3.385   0.990
 6234W        W72643  17.310  39.552   3.580
 6235W        W72644  27.667   7.779  12.585
 6236W        W72645  38.901   2.801   4.281
 6237W        W72646  32.137  43.457  11.460
 6238W        W72647  36.768   8.503  14.413
 6239W        W72648  22.120  27.805  13.377
 6240W        W72649  12.799  17.057  10.643
 6241W        W72650   4.713  32.165  14.927
 6242W        W72651  37.595  35.818  12.653
 6243W        W72652  24.956  35.934  13.398
 6244W        W72653  30.297  18.732  10.826
 6245W        W72654  42.198   2.171   0.032
 6246W        W72655  23.087  14.784  12.116
 6247W        W72656  24.616  44.405  13.404
 6248W        W72657  32.968  44.551   0.859
 6249W        W72658  35.551  36.561  14.702
 6250W        W72659   2.764  37.972   1.344
 6251W        W72660  15.215  11.820   1.365
 6252W        W72661  35.818  30.913   0.880
 6253W        W72662  24.149  13.143   1.912
 6254W        W72663  37.335  43.971  12.539
 6255W        W72664  36.444  21.058  13.458
 6256W        W72665  40.960  18.552  13.839
 6257W        W72666   3.780  11.648  13.019
 6258W        W72667  15.023   6.195  14.961
 6259W        W72668   5.153   9.592  13.465
 6260W        W72669  23.327  11.435   1.740
 6261W        W72670  21.123  13.155   4.755
 6262W        W72671  39.032  31.618  10.691
 6263W        W72672  18.525  39.965  14.280
 6264W        W72673  10.805  24.000  13.007
 6265W        W72674  39.562   2.227  12.483
 6266W        W72675  40.072  28.800  14.400
 6267W        W72676   9.896  17.864  12.787
 6268W        W72677  40.392  31.346  13.034
 6269W        W72678   4.248  20.154   4.316
 6270W        W72679  12.704  15.486   2.831
 6271W        W72680  34.127  34.650  13.491
 6272W        W72681  30.593  40.846   3.672
 6273W        W72682  27.069  31.650  11.621
 6274W        W72683  15.342   4.081  10.763
 6275W        W72684  28.469   8.517   1.635
 6276W        W72685  25.795  43.556   0.386
 6277W        W72686  25.425  40.490   1.495
 6278W        W72687  39.950  41.879  14.245
 6279W        W72688  40.933   7.372  12.436
 6280W        W72689  10.270   6.825  14.955
 6281W        W72690   9.297  29.032  14.043
 6282W        W72691  30.968   9.547   4.276
 6283W        W72692  22.531  34.654   5.134
 6284W        W72693  13.331   4.697  12.884
 6285W        W72694  27.984  21.842  13.402
 6286W        W72695  28.858  36.508   1.047
 6287W        W72696   4.909  28.559  14.915
 6288W        W72697  16.852   7.735   0.443
 6289W        W72698  12.452   4.136   4.428
 6290W        W72699  29.619  12.352   2.345
 6291W        W72700  30.960  21.993  13.858
 6292W        W72701  14.339  37.293  14.417
 6293W        W72702  13.826  40.510  11.321
 6294W        W72703  42.413  29.404   1.887
 6295W        W72704   6.487  25.151   1.899
 6296W        W72705   4.400  23.943  12.489
 6297W        W72706  11.839  10.322   3.516
 6298W        W72707  31.159  22.327  12.176
 6299W        W72708  17.307  29.664  10.463
 6300W        W72709  17.726  37.347  10.437
 6301W        W72710  21.987  13.227   4.114
 6302W        W72711  23.879   3.239   1.574
 6303W        W72712  27.029  30.002   0.499
 6304W        W72713  37.546  38.907   1.848
 6305W        W72714  43.109  36.041  13.908
 6306W        W72715  39.062  31.634   2.821
 6307W        W72716  31.153  17.747  12.480
 6308W        W72717  37.354   3.773   4.028
 6309W        W72718   8.717  39.901   1.729
 6310W        W72719  40.521   6.172   4.166
 6311W        W72720  42.867  24.907  12.078
 6312W        W72721   3.665  13.618  10.783
 6313W        W72722  42.530  27.092  14.803
 6314W        W72723  20.274  13.719   0.422
 6315W        W72724  39.374  28.243  13.503
 6316W        W72725  15.723  26.186  14.349
 6317W        W72726  38.486  28.603   2.722
 6318W        W72727  25.266  40.388   2.700
 6319W        W72728  10.694  25.664   3.803
 6320W        W72729  21.138  13.771   3.877
 6321W        W72730  40.234  18.590  12.120
 6322W        W72731  23.119  14.935   3.931
 6323W        W72732  25.983  19.709   0.029
 6324W        W72733  38.526  34.716   0.447
 6325W        W72734  30.433  10.236  10.179
 6326W        W72735   2.977  19.594  10.265
 6327W        W72736  37.239  27.948  14.280
 6328W        W72737   3.725  13.146  11.114
 6329W        W72738   8.089  40.346   2.226
 6330W        W72739  25.436  25.991   1.646
 6331W        W72740   3.359   6.368  12.298
 6332W        W72741  24.319   5.666  11.045
 6333W        W72742  40.862  29.207  11.622
 6334W        W72743  16.077  28.964  13.910
 6335W        W72744  17.027  31.663  10.786
 6336W        W72745  35.636   4.378  14.464
 6337W        W72746  10.133  30.581   1.871
 6338W        W72747  38.542  22.556  12.440
 6339W        W72748   1.503  10.969  11.179
 6340W        W72749  37.551  34.995   2.129
 6341W        W72750   6.989  32.651   1.117
 6342W        W72751  21.722   2.692   3.140
 6343W        W72752  35.430  12.594  14.447
 6344W        W72753   1.266   9.715   2.792
 6345W        W72754  35.833  37.698  14.423
 6346W        W72755   5.670  38.897  13.524
 6347W        W72756   9.144   9.667  13.838
 6348W        W72757  10.925  43.334   4.158
 6349W        W72758   9.994  37.047  12.112
 6350W        W72759  31.044  27.663   0.469
 6351W        W72760  20.721   2.311  12.375
 6352W        W72761   8.517  29.456  11.466
 6353W        W72762  35.876   6.330   0.248
 6354W        W72763  17.117  22.970   0.329
 6355W        W72764   6.941  33.453   3.200
 6356W        W72765  23.235  37.895   1.931
 6357W        W72766  37.361  29.390  14.278
 6358W        W72767  38.368  11.205  12.664
 6359W        W72768   2.125  33.585  14.314
 6360W        W72769  26.242  42.411  11.006
 6361W        W72770  40.147  11.817  10.755
 6362W        W72771  31.992  22.230   3.275
 6363W        W72772   7.260  30.942  13.991
 6364W        W72773  44.905   7.609  13.506
 6365W        W72774   2.176  17.255   0.941
 6366W        W72775   3.053   7.429   4.165
 6367W        W72776  12.665  20.769  14.870
 6368W        W72777  14.099   2.880   3.695
 6369W        W72778  29.822  10.439  13.421
 6370W        W72779  32.920  37.381   2.165
 6371W        W72780   6.072   8.805  12.456
 6372W        W72781  42.829  19.282   2.874
 6373W        W72782   7.865  28.227  13.510
 6374W        W72783  39.052  29.627  13.271
 6375W        W72784  33.569   8.918   3.914
 6376W        W72785  22.474   5.000   0.021
 6377W        W72786  35.318  22.223  14.501
 6378W        W72787   5.414  14.089  13.905
 6379W        W72788   9.796  20.765  10.855
 6380W        W72789   9.226  26.110  10.889
 6381W        W72790  24.602  24.493  11.734
 6382W        W72791  20.783  12.010  13.581
 6383W        W72792  28.525  40.823  13.867
 6384W        W72793   6.646   4.453  14.776
 6385W        W72794  25.887  43.813  11.250
 6386W        W72795  41.072   1.829  11.641
 6387W        W72796  40.302  13.682  12.483
 6388W        W72797  15.322  32.725  11.051
 6389W        W72798   4.543  13.095   2.794
 6390W        W72799   8.572  36.848   1.478
 6391W        W72800   4.835  30.175   1.271
 6392W        W72801  42.962  13.074   1.770
 6393W        W72802  10.441  30.952  10.733
 6394W        W72803  36.528  25.623   0.898
 6395W        W72804   4.213  16.829   3.302
 6396W        W72805  40.479  26.452  11.633
 6397W        W72806   2.788   4.632  11.116
 6398W        W72807   9.847   9.741  14.823
 6399W        W72808  34.600   9.356   1.752
 6400W        W72809  44.676  14.644  14.253
 6401W        W72810  24.954   9.206   5.474
 6402W        W72811   7.708  36.156  13.447
 6403W        W72812  10.050  35.054   2.291
 6404W        W72813  41.063  21.139  12.486
 6405W        W72814  36.135  42.250   0.166
 6406W        W72815  40.097  29.121  10.839
 6407W        W72816  27.754  27.773  13.630
 6408W        W72817  21.654  32.608   3.277
 6409W        W72818   9.349  18.324  14.449
 6410W        W72819  35.933  40.072  14.341
 6411W        W72820   5.267  25.592  11.927
 6412W        W72821   2.423  29.735   4.721
 6413W        W72822  19.324  20.800   3.297
 6414W        W72823  21.446   0.843   1.727
 6415W        W72824  28.352  31.524   2.310
 6416W        W72825  37.924  31.413   1.376
 6417W        W72826   5.324   9.586  11.265
 6418W        W72827  22.079  17.642  10.626
 6419W        W72828  31.451  24.705  14.654
 6420W        W72829  39.758  36.669  12.011
 6421W        W72830   7.764  29.373   0.864
 6422W        W72831  12.118   8.765  10.660
 6423W        W72832  28.960  37.252   0.516
 6424W        W72833  15.160  12.612  14.395
 6425W        W72834  36.611  17.982  14.369
 6426W        W72835  21.311   7.312  11.126
 6427W        W72836   8.490  23.252   1.722
 6428W        W72837  36.273  38.037  14.444
 6429W        W72838  10.623  27.502   1.155
 6430W        W72839  26.746   6.431  14.498
 6431W        W72840   8.415  25.494   4.904
 6432W        W72841  37.561  43.616  11.214
 6433W        W72842  10.100   7.025  14.432
 6434W        W72843  40.899  37.271  11.872
 6435W        W72844   4.753  27.141  13.556
 6436W        W72845  30.596  20.850   2.151
 6437W        W72846   0.867  41.654   4.985
 6438W        W72847  35.582   3.935  10.240
 6439W        W72848  37.907  35.551  13.897
 6440W        W72849   2.137  40.095  12.916
 6441W        W72850  39.642  21.661  11.933
 6442W        W72851  17.116  30.027  10.160
 6443W        W72852  41.385  44.380   4.013
 6444W        W72853  16.090   9.933   0.957
 6445W        W72854  31.503  17.580  13.287
 6446W        W72855  23.625  22.579  12.163
 6447W        W72856  31.120   0.462  11.225
 6448W        W72857   1.687  25.225  11.554
 6449W        W72858  11.047  17.332  12.946
 6450W        W72859  39.934   4.132   4.184
 6451W        W72860  20.971  31.947  11.177
 6452W        W72861  38.014  11.061  13.764
 6453W        W72862  39.781  25.659  14.928
 6454W        W72863  43.800  32.459  10.428
 6455W        W72864  31.603  18.522  13.525
 6456W        W72865  38.691  17.705   2.569
 6457W        W72866  24.339   9.204   5.001
 6458W        W72867   0.128   3.025  11.645
 6459W        W72868   0.561   7.402  12.726
 6460W        W72869  22.145   3.917   3.192
 6461W        W72870  24.236  23.101   1.254
 6462W        W72871   5.407   7.879  11.183
 6463W        W72872  39.616  40.510   3.778
 6464W        W72873  30.017   2.336  14.485
 6465W        W72874  42.940  41.518  10.801
 6466W        W72875  12.200  40.947  14.797
 6467W        W72876  34.679  20.187  13.512
 6468W        W72877  29.354  44.469   1.921
 6469W        W72878  42.801  19.573  10.760
 6470W        W72879  18.575  27.258  14.673
 6471W        W72880  15.380  28.443  14.312
 6472W        W72881  14.102   5.908  13.197
 6473W        W72882  35.835  14.221  13.286
 6474W        W72883  21.693  29.692  13.423
 6475W        W72884  16.279  12.706  14.451
 6476W        W72885  40.111  19.714  12.886
 6477W        W72886   1.153  24.716   0.848
 6478W        W72887  42.460  42.475  10.672
 6479W        W72888  40.505  22.804   0.534
 6480W        W72889   2.425   9.189  14.328
 6481W        W72890   4.648  34.298   0.965
 6482W        W72891  17.996   6.315  13.118
 6483W        W72892   0.998  30.404   3.528
 6484W        W72893  20.616  26.630  10.375
 6485W        W72894  14.367   8.361   4.823
 6486W        W72895  42.884  30.519   4.034
 6487W        W72896  16.418  43.342   0.955
 6488W        W72897   0.918   1.266   0.432
 6489W        W72898   6.526  34.284  10.685
 6490W        W72899  37.994  36.592   1.199
 6491W        W72900  10.182  35.524   0.211
 6492W        W72901  38.033  40.348   0.012
 6493W        W72902   0.034  36.695  11.231
 6494W        W72903   5.739  29.978   1.148
 6495W        W72904   1.884   6.752  14.907
 6496W        W72905   6.893  40.063   3.270
 6497W        W72906  27.576   7.590  14.118
 6498W        W72907  31.019  20.315   4.458
 6499W        W72908  31.962  35.662   2.006
 6500W        W72909   3.997  20.141   4.781
 6501W        W72910  39.260  36.753  14.845
 6502W        W72911  18.788  14.878   3.292
 6503W        W72912  16.173   6.934   2.648
 6504W        W72913  22.209  10.548  13.438
 6505W        W72914  18.837  22.712  10.404
 6506W        W72915  17.647  42.729   2.555
 6507W        W72916  20.204  29.987   1.797
 6508W        W72917  27.188  27.709   4.785
 6509W        W72918  31.376  10.241  11.993
 6510W        W72919   7.922   8.932  11.037
 6511W        W72920  34.565   3.314   3.292
 6512W        W72921  39.348  16.590  14.579
 6513W        W72922  17.064  26.430  14.359
 6514W        W72923   7.115   3.902  14.346
 6515W        W72924  32.159   9.802  10.590
 6516W        W72925  34.889  42.894   2.276
 6517W        W72926  31.627  22.216   3.633
 6518W        W72927  15.886  44.171   3.920
 6519W        W72928  15.018  43.406   1.392
 6520W        W72929   0.530  43.949   4.349
 6521W        W72930   2.371  36.409  13.897
 6522W        W72931  18.236  18.603  11.437
 6523W        W72932  15.187   4.981  11.022
 6524W        W72933   6.235  29.648   2.248
 6525W        W72934  34.684  24.990  14.382
 6526W        W72935  28.222  40.986   4.023
 6527W        W72936  13.103  44.028   2.786
 6528W        W72937   1.072  14.778  13.795
 6529W        W72938   4.375  33.421  14.730
 6530W        W72939  22.447  42.896   1.858
 6531W        W72940  30.918  28.088  10.500
 6532W        W72941  34.446  17.726   2.795
 6533W        W72942   2.711  25.446   1.382
 6534W        W72943  22.510  34.360  13.829
 6535W        W72944   0.397  42.511  14.516
 6536W        W72945   9.651  42.891   2.138
 6537W        W72946   5.753   3.979  14.338
 6538W        W72947  41.322  14.761   3.106
 6539W        W72948  19.505  28.690  12.645
 6540W        W72949  32.172  21.581  14.358
 6541W        W72950   3.499   1.947  14.697
 6542W        W72951  34.006   6.541  14.863
 6543W        W72952  20.272  29.435   0.302
 6544W        W72953  36.246  30.655  12.919
 6545W        W72954  10.234  36.903  14.419
 6546W        W72955  26.548  29.454   1.734
 6547W        W72956  30.029  13.396   2.740
 6548W        W72957  43.569  21.926   1.290
 6549W        W72958  22.934  40.913  12.449
 6550W        W72959  42.253  14.032   1.415
 6551W        W72960   8.201  27.030   0.443
 6552W        W72961  25.980  10.661  11.182
 6553W        W72962   4.737  42.852   2.084
 6554W        W72963  37.611  29.057   3.783
 6555W        W72964  44.338  33.747  13.978
 6556W        W72965  27.715  31.025  13.083
 6557W        W72966  31.164   0.060   3.651
 6558W        W72967  22.147  36.121  12.456
 6559W        W72968  43.144  39.989   1.904
 6560W        W72969   4.809   7.711  13.315
 6561W        W72970  34.106   7.672  11.809
 6562W        W72971  26.218  12.636   3.648
 6563W        W72972  29.574   2.320  10.983
 6564W        W72973  26.510  26.156   1.347
 6565W        W72974  31.634   4.993  10.836
 6566W        W72975  26.627   6.097   0.965
 6567W        W72976  34.717   5.602  11.039
 6568W        W72977  37.596  32.522  14.391
 6569W        W72978  42.037  20.732  12.804
 6570W        W72979   9.844  22.613   4.185
 6571W        W72980  35.140  33.449  11.161
 6572W        W72981   6.456  15.613   2.384
 6573W        W72982  19.967  31.080   2.800
 6574W        W72983  29.430  14.659  14.011
 6575W        W72984  15.624  43.768  14.871
 6576W        W72985  26.775  34.602  11.208
 6577W        W72986  27.040   8.387   2.693
 6578W        W72987  31.886   2.718  12.788
 6579W        W72988  26.066  38.395  11.545
 6580W        W72989  34.841  36.722   3.725
 6581W        W72990  44.281   2.879  11.218
 6582W        W72991  23.097  30.249  12.622
 6583W        W72992  36.591  13.115   1.975
 6584W        W72993  26.911   6.767  10.391
 6585W        W72994  29.000   8.643  11.516
 6586W        W72995  25.539   7.785   9.832
 6587W        W72996  37.861  27.201  11.450
 6588W        W72997  17.103  16.810  10.317
 6589W        W72998  27.299  29.946   4.686
 6590W        W72999  31.184  20.522  12.146
 6591W        W73000  21.111   7.653  14.185
 6592W        W73001  16.665  44.200   3.616
 6593W        W73002  30.880   0.451   3.394
 6594W        W73003  24.183   0.707   3.745
 6595W        W73004  23.007  27.657  12.757
 6596W        W73005   1.475  22.148  13.521
 6597W        W73006  43.907  15.763   4.762
 6598W        W73007  25.961  35.442   4.218
 6599W        W73008  16.548  18.736  14.090
 6600W        W73009  31.414  13.124  11.627
 6601W        W73010  30.134  40.381   3.720
 6602W        W73011  31.064  23.066  10.530
 6603W        W73012  23.110  33.213   1.497
 6604W        W73013  15.042  42.473   0.343
 6605W        W73014  19.984  35.933   5.098
 6606W        W73015  20.219   3.769   3.149
 6607W        W73016  12.634  38.570  13.504
 6608W        W73017   1.783  22.244  12.326
 6609W        W73018  34.459  10.047  12.367
 6610W        W73019  27.896  25.195  11.150
 6611W        W73020  43.207  41.366   1.213
 6612W        W73021   0.753   4.064  12.442
 6613W        W73022  21.153  37.422   0.179
 6614W        W73023  41.551  13.933   2.463
 6615W        W73024  23.594  21.368  10.064
 6616W        W73025  25.039  41.209   4.109
 6617W        W73026  35.267  19.787   0.973
 6618W        W73027  25.605  27.048  13.821
 6619W        W73028  23.465  14.721  12.915
 6620W        W73029   3.782   3.337   4.922
 6621W        W73030  22.973  15.318  10.220
 6622W        W73031  31.824   5.284  10.296
 6623W        W73032  31.080   9.719   0.204
 6624W        W73033   5.785  18.713   3.885
 6625W        W73034  31.138  41.811   1.245
 6626W        W73035  20.242   5.245   2.321
 6627W        W73036  19.025  31.438   3.623
 6628W        W73037  32.071  41.114  12.948
 6629W        W73038   2.528   7.389  11.993
 6630W        W73039   7.329  23.213   2.637
 6631W        W73040   4.468  31.019   2.405
 6632W        W73041  41.478  36.284   2.975
 6633W        W73042  17.091  18.376   1.363
 6634W        W73043   4.842  34.001   4.083
 6635W        W73044  22.991  20.683   0.941
 6636W        W73045  32.636  30.553  13.495
 6637W        W73046   9.968  40.112  12.986
 6638W        W73047  17.618  39.447   0.764
 6639W        W73048  22.713  15.679   0.865
 6640W        W73049   6.783   7.200  10.743
 6641W        W73050  29.823  11.259   3.560
 6642W        W73051  36.455  10.959   3.839
 6643W        W73052  43.250   3.311  14.553
 6644W        W73053  30.073  43.621   3.861
 6645W        W73054  13.008  36.808  10.711
 6646W        W73055  41.265  21.750  11.593
 6647W        W73056  18.734  32.173  12.977
 6648W        W73057  44.699  41.807  14.782
 6649W        W73058  22.042  30.947  12.926
 6650W        W73059   7.327   3.053   1.639
 6651W        W73060  18.097  42.441   2.439
 6652W        W73061   9.893  36.565  11.408
 6653W        W73062  40.196  34.419   1.537
 6654W        W73063  17.302  35.271   0.867
 6655W        W73064  15.016   6.911   1.762
 6656W        W73065   2.909   7.583   2.388
 6657W        W73066  29.885  33.576   2.753
 6658W        W73067  13.109   7.843  14.332
 6659W        W73068  36.417  20.792  12.560
 6660W        W73069  13.550  12.238  12.626
 6661W        W73070  12.179  18.937  10.739
 6662W        W73071  22.795   1.191   2.188
 6663W        W73072  25.729   7.201   0.391
 6664W        W73073  12.154   4.482   4.123
 6665W        W73074  24.173   7.809  13.963
 6666W        W73075  33.040  42.785   2.821
 6667W        W73076  12.081  17.751  13.583
 6668W        W73077   4.304  23.059   1.062
 6669W        W73078  37.932  42.802   5.110
 6670W        W73079  18.230  43.532   1.309
 6671W        W73080  39.213  33.704   3.650
 6672W        W73081  37.427  34.408   4.849
 6673W        W73082   7.533  31.408  14.872
 6674W        W73083   6.899  32.039  12.012
 6675W        W73084  12.020   2.771   5.424
 6676W        W73085  34.907  26.997  13.517
 6677W        W73086  16.362  24.572   0.206
 6678W        W73087  24.283  37.636   1.441
 6679W        W73088   5.312  16.384  12.607
 6680W        W73089  26.420  44.844   2.799
 6681W        W73090   2.721  36.058   3.427
 6682W        W73091   9.589   1.256  11.468
 6683W        W73092   7.422  13.159   4.791
 6684W        W73093  41.475   9.964   1.480
 6685W        W73094  33.940  36.106  11.770
 6686W        W73095  24.597  31.379  13.577
 6687W        W73096   1.186  31.188  11.896
 6688W        W73097   4.746  17.173   0.864
 6689W        W73098  30.017  44.906  12.128
 6690W        W73099   4.541   6.505   4.897
 6691W        W73100  17.696   2.844   0.880
 6692W        W73101   9.318  16.163  10.869
 6693W        W73102  22.220  27.955   3.624
 6694W        W73103  31.772   3.889   0.507
 6695W        W73104  32.691  41.876   1.441
 6696W        W73105  39.327  37.583  11.026
 6697W        W73106  38.471  30.964  13.390
 6698W        W73107  27.589  21.028   4.808
 6699W        W73108  42.869  37.555   1.371
 6700W        W73109  21.248  43.224   4.420
 6701W        W73110  10.144   5.966  13.458
 6702W        W73111  35.730  30.797   1.396
 6703W        W73112   6.298  44.784  13.280
 6704W        W73113   3.111  22.427   1.811
 6705W        W73114   2.276   3.799  12.031
 6706W        W73115  31.567  14.626  12.472
 6707W        W73116  38.835  29.849  11.038
 6708W        W73117   4.917  40.046  13.707
 6709W        W73118  25.542  34.964  11.918
 6710W        W73119  30.922  41.343   1.263
 6711W        W73120  34.820   5.163   2.349
 6712W        W73121  16.061  19.797   2.708
 6713W        W73122  13.192  30.435  12.434
 6714W        W73123   1.269  26.110   1.024
 6715W        W73124  33.989  23.307  13.744
 6716W        W73125  38.283  31.165   1.630
 6717W        W73126  31.993   6.955  10.983
 6718W        W73127  18.149  23.314  14.330
 6719W        W73128  42.421   6.965  14.323
 6720W        W73129  37.971  19.602  11.536
 6721W        W73130   0.966  29.271   0.281
 6722W        W73131  11.679  12.939  13.075
 6723W        W73132  18.280   7.157   1.497
 6724W        W73133  42.786   4.584   9.869
 6725W        W73134  11.736  42.950  13.578
 6726W        W73135  33.510  43.758  13.931
 6727W        W73136  16.623  36.383  11.200
 6728W        W73137  24.550   1.925   1.254
 6729W        W73138  37.568  28.135   9.790
 6730W        W73139  22.949   8.813  12.922
 6731W        W73140  21.717   5.247  12.976
 6732W        W73141  40.270   8.329  12.403
 6733W        W73142  35.978   2.441   2.837
 6734W        W73143  15.787  26.517  12.502
 6735W        W73144  14.791   4.051   2.784
 6736W        W73145   1.534   1.810  13.502
 6737W        W73146  43.697  31.082  14.394
 6738W        W73147   9.205  32.050  11.415
 6739W        W73148  18.293  29.144  12.419
 6740W        W73149  42.171   5.934   3.837
 6741W        W73150   0.881  40.273  13.345
 6742W        W73151  24.936   3.432   3.414
 6743W        W73152   4.588  10.216  10.820
 6744W        W73153  37.860  35.784   4.642
 6745W        W73154  20.199   1.425  11.467
 6746W        W73155   6.143  43.658   1.388
 6747W        W73156   8.845  30.351   4.522
 6748W        W73157   9.786  18.582  13.004
 6749W        W73158  36.130  14.569  13.073
 6750W        W73159  38.904  22.647  14.419
 6751W        W73160  42.421   0.402  11.893
 6752W        W73161   3.407  12.733   2.338
 6753W        W73162  14.722  26.993   2.397
 6754W        W73163   2.028   3.480  13.868
 6755W        W73164  22.491  22.638   2.189
 6756W        W73165  10.857  10.081  12.495
 6757W        W73166   1.379  40.249  13.910
 6758W        W73167  44.446  32.182  13.986
 6759W        W73168  16.322   9.374  11.637
 6760W        W73169   2.163  20.838  11.211
 6761W        W73170  44.585  33.131   0.510
 6762W        W73171  34.668   0.000  13.637
 6763W        W73172  17.709   5.360   2.118
 6764W        W73173   5.477  39.981  11.411
 6765W        W73174  41.491   0.354  11.252
 6766W        W73175   9.761  17.710   0.006
 6767W        W73176  36.356  35.305  12.580
 6768W        W73177  43.279   3.608  10.209
 6769W        W73178  13.039  34.668  13.360
 6770W        W73179  41.855  42.242   3.722
 6771W        W73180  27.573  29.900   1.673
 6772W        W73181  23.536  13.238  14.277
 6773W        W73182  21.957  30.075  11.239
 6774W        W73183  23.343   8.197  13.825
 6775W        W73184  23.446   8.604  11.441
 6776W        W73185  28.777  31.696  14.025
 6777W        W73186  24.328  43.986   0.463
 6778W        W73187  17.042  35.426  13.905
 6779W        W73188  23.729   2.815  14.880
 6780W        W73189  37.491  39.992   3.206
 6781W        W73190  38.267   3.686  14.269
 6782W        W73191  40.292  16.639   0.901
 6783W        W73192  17.965  39.692   1.839
 6784W        W73193   5.405   2.424   4.256
 6785W        W73194  16.293  11.107   2.901
 6786W        W73195  14.109  19.310   3.213
 6787W        W73196  35.133  30.673  14.324
 6788W        W73197  28.492   6.248  14.483
 6789W        W73198  27.878  31.329   2.177
 6790W        W73199   4.282  28.609   4.430
 6791W        W73200  16.599  25.513   1.240
 6792W        W73201  34.145  29.961   2.897
 6793W        W73202  37.392  21.615   2.693
 6794W        W73203  32.360  13.274  11.737
 6795W        W73204  27.709  41.460  10.965
 6796W        W73205  25.577  24.014   2.431
 6797W        W73206   2.527   9.602  11.541
 6798W        W73207  26.221   9.649  13.823
 6799W        W73208  14.256  41.703   5.026
 6800W        W73209  15.384   9.227  12.188
 6801W        W73210  34.273   4.152   3.698
 6802W        W73211  40.074   7.202  10.655
 6803W        W73212  34.831  28.939  11.201
 6804W        W73213  41.560  38.396   1.288
 6805W        W73214  28.361  44.150  10.481
 6806W        W73215  22.003  31.150   0.906
 6807W        W73216   7.767  12.929   0.391
 6808W        W73217   1.450  15.325  13.007
 6809W        W73218  18.548  24.726  13.791
 6810W        W73219  27.893   3.528   4.570
 6811W        W73220  32.592  17.161   3.464
 6812W        W73221   7.305  29.647  13.331
 6813W        W73222   1.010  22.939   1.320
 6814W        W73223  38.106   4.335  11.527
 6815W        W73224  12.569  14.138   1.897
 6816W        W73225  30.170  32.386   2.203
 6817W        W73226  33.373  39.544   2.136
 6818W        W73227   5.654  10.314  10.765
 6819W        W73228   9.942  14.532   3.113
 6820W        W73229  36.445   6.358   4.427
 6821W        W73230   7.348   3.338  13.744
 6822W        W73231  44.461  26.159   1.540
 6823W        W73232  31.403   4.010  12.943
 6824W        W73233  40.820  19.151   0.804
 6825W        W73234  25.688  31.216   0.695
 6826W        W73235  20.065  39.690  11.948
 6827W        W73236  30.384  12.420  14.497
 6828W        W73237   5.785   8.254   3.601
 6829W        W73238   7.693  11.811  12.072
 6830W        W73239   0.450   8.266  10.501
 6831W        W73240   8.292  34.860  13.370
 6832W        W73241  41.911  16.160  10.625
 6833W        W73242  15.138  32.757  11.553
 6834W        W73243   2.350  29.188   3.276
 6835W        W73244  10.919  30.704   2.235
 6836W        W73245   5.463  28.266  13.488
 6837W        W73246  35.109  19.164  14.931
 6838W        W73247  17.560  37.539   2.259
 6839W        W73248   6.679  39.044  10.773
 6840W        W73249  40.993  36.532   0.636
 6841W        W73250  19.312  14.880   0.343
 6842W        W73251  33.846  13.788   2.456
 6843W        W73252  26.096  33.086  12.075
 6844W        W73253  38.330   7.281   4.225
 6845W        W73254  43.926  10.142  13.066
 6846W        W73255   8.503  14.125   3.612
 6847W        W73256  20.796  20.307  13.914
 6848W        W73257  20.264  22.927   0.733
 6849W        W73258  24.854  15.275  10.738
 6850W        W73259  19.104  23.186   3.415
 6851W        W73260   7.299   1.482  14.982
 6852W        W73261  27.996  42.458  13.379
 6853W        W73262  44.156  37.604  14.607
 6854W        W73263  20.774  24.499   0.674
 6855W        W73264  30.884  27.660  11.587
 6856W        W73265  14.651  15.290  12.348
 6857W        W73266  17.742  27.173   4.669
 6858W        W73267  25.482  30.542   1.811
 6859W        W73268  36.547  28.881   3.852
 6860W        W73269  36.944   3.849  13.870
 6861W        W73270  23.623   5.531   2.840
 6862W        W73271  16.108  40.559   1.647
 6863W        W73272  22.716  15.705   4.164
 6864W        W73273   7.775  18.523  14.865
 6865W        W73274   9.453  44.857   4.180
 6866W        W73275  12.375  44.353  13.822
 6867W        W73276  13.956  26.482   3.490
 6868W        W73277  37.591  44.411  12.666
 6869W        W73278  16.890  30.583  13.586
 6870W        W73279  31.288  12.933  11.177
 6871W        W73280  23.045  13.483   0.535
 6872W        W73281  35.514  44.258  14.422
 6873W        W73282  26.548  23.992   3.100
 6874W        W73283  31.588  35.399   3.851
 6875W        W73284   9.615  37.070  10.610
 6876W        W73285  12.751  39.866  12.057
 6877W        W73286   4.695  26.475   1.786
 6878W        W73287   3.429  43.724  10.552
 6879W        W73288  14.534   0.914  13.483
 6880W        W73289  35.818  34.653   4.275
 6881W        W73290  32.637  12.355   1.475
 6882W        W73291  27.484  12.707  14.815
 6883W        W73292   3.738  17.211  12.607
 6884W        W73293  22.054  21.738   3.802
 6885W        W73294  40.620   7.089  11.425
 6886W        W73295  33.736   9.353   2.265
 6887W        W73296  19.112  10.387  12.863
 6888W        W73297  16.340  14.913  12.345
 6889W        W73298  25.477  43.599  14.968
 6890W        W73299  26.701  14.846  14.867
 6891W        W73300   9.818  41.009  13.558
 6892W        W73301   9.078  16.844   1.172
 6893W        W73302  21.075  26.995  14.860
 6894W        W73303  32.411  28.697   1.824
 6895W        W73304  20.141   3.743  14.422
 6896W        W73305  13.707  39.237  14.457
 6897W        W73306   0.752  33.181   5.009
 6898W        W73307  23.950   1.762   4.578
 6899W        W73308   9.779   0.925  14.470
 6900W        W73309  25.485   5.682  14.988
 6901W        W73310  16.139   8.930  13.098
 6902W        W73311  23.109  38.236  12.448
 6903W        W73312  43.840  36.626   4.366
 6904W        W73313  24.081   3.063  12.827
 6905W        W73314   2.920  31.335   4.250
 6906W        W73315  42.467  13.419   2.665
 6907W        W73316  14.729   2.241  10.971
 6908W        W73317  20.330  23.141  11.245
 6909W        W73318  40.720   9.688   0.856
 6910W        W73319  20.680   1.978  11.541
 6911W        W73320  34.358  33.664   2.400
 6912W        W73321  25.708  39.934   2.087
 6913W        W73322  25.639  14.806  10.703
 6914W        W73323  23.486  26.867   3.369
 6915W        W73324   5.537  37.503  11.462
 6916W        W73325  43.457  29.112  14.038
 6917W        W73326  21.600  26.848   0.258
 6918W        W73327  33.854  30.070   0.912
 6919W        W73328  24.802   0.341   0.525
 6920W        W73329  37.262  20.538  13.960
 6921W        W73330  25.627  27.475  12.641
 6922W        W73331  29.527   2.987   4.709
 6923W        W73332   6.066  38.454  10.453
 6924W        W73333   3.326  21.178   1.406
 6925W        W73334   8.312  32.417   1.520
 6926W        W73335  16.132  39.266   0.174
 6927W        W73336   0.952  14.677   4.860
 6928W        W73337  14.351  33.045   2.136
 6929W        W73338  24.648  43.007  13.091
 6930W        W73339   7.161  39.075  11.594
 6931W        W73340  39.218  11.550   3.327
 6932W        W73341  23.506  27.608  14.693
 6933W        W73342  26.092  14.575  14.840
 6934W        W73343  12.374  27.483  12.063
 6935W        W73344  24.495  24.502   0.770
 6936W        W73345  24.559  41.521   3.171
 6937W        W73346  28.634   2.918  11.952
 6938W        W73347  37.327  13.661  11.091
 6939W        W73348  26.095  40.736   2.231
 6940W        W73349  34.892   1.898   2.413
 6941W        W73350  36.686  15.464   0.861
 6942W        W73351  18.308  22.626  10.493
 6943W        W73352   5.283   8.428   4.748
 6944W        W73353  20.819  32.469   0.010
 6945W        W73354   9.858  11.875   0.078
 6946W        W73355  26.168  38.715  11.142
 6947W        W73356  31.134  32.422   0.895
 6948W        W73357   4.667   2.774  12.491
 6949W        W73358  32.408  15.797   1.765
 6950W        W73359   4.506   3.317  11.001
 6951W        W73360  18.569   3.804   2.237
 6952W        W73361  24.448  26.637  14.980
 6953W        W73362  18.744  42.376   3.123
 6954W        W73363  30.432  30.396   0.844
 6955W        W73364   2.910  13.317   0.298
 6956W        W73365  31.150   0.722   0.346
 6957W        W73366  29.491  11.248  13.074
 6958W        W73367  41.290  35.200   4.870
 6959W        W73368   2.371  43.548   3.703
 6960W        W73369   0.441  30.852  11.722
 6961W        W73370  15.791  36.292   4.118
 6962W        W73371  28.207  17.007   3.744
 6963W        W73372  24.115  35.871   4.209
 6964W        W73373  13.604   6.594  12.732
 6965W        W73374  37.977  43.253  14.433
 6966W        W73375   8.209   4.017  11.955
 6967W        W73376  10.187  44.840  13.785
 6968W        W73377  31.622  12.637  11.631
 6969W        W73378  28.573  35.373  13.428
 6970W        W73379  27.145  44.142  11.964
 6971W        W73380  43.712  12.067   1.421
 6972W        W73381  20.330  43.011   4.988
 6973W        W73382  36.415  40.880  13.370
 6974W        W73383  20.809  30.381  13.918
 6975W        W73384   4.267  34.918   3.362
 6976W        W73385  33.964  38.637  11.071
 6977W        W73386  36.426  44.505   3.275
 6978W        W73387  10.433   6.500  10.675
 6979W        W73388  12.293   3.531   5.056
 6980W        W73389  15.088  25.620  12.505
 6981W        W73390  37.906   6.344  14.804
 6982W        W73391  10.683  23.290  12.096
 6983W        W73392   5.687  24.442  13.130
 6984W        W73393  35.912  17.113   0.271
 6985W        W73394  31.614  12.915   0.239
 6986W        W73395  25.697  31.913  14.519
 6987W        W73396   9.933   9.390  11.055
 6988W        W73397  42.649  10.678   2.677
 6989W        W73398  38.059  44.954   0.992
 6990W        W73399  25.139   5.128   1.955
 6991W        W73400   7.409  32.439   0.063
 6992W        W73401  34.980  37.516   2.688
 6993W        W73402  30.721  41.193  12.083
 6994W        W73403  12.826  29.389  13.091
 6995W        W73404  41.632  42.723  14.288
 6996W        W73405  31.474  39.242  12.611
 6997W        W73406   9.105  39.110  12.567
 6998W        W73407  26.277  28.089  12.471
 6999W        W73408  27.131   2.232   4.059
 7000W        W73409  23.727  18.480  13.671
 7001W        W73410  43.865  27.361  12.879
 7002W        W73411  41.070   8.614  12.108
 7003W        W73412  32.341  24.460  14.859
 7004W        W73413  12.447   2.724   4.497
 7005W        W73414   7.672   9.186  10.642
 7006W        W73415  24.686  39.779  10.613
 7007W        W73416  13.339  30.858   3.679
 7008W        W73417  13.776  41.348   0.514
 7009W        W73418  34.414  43.842  13.764
 7010W        W73419  26.310  32.946  14.769
 7011W        W73420  34.431  14.338  14.324
 7012W        W73421  10.581  24.653   2.257
 7013W        W73422  35.772  16.966   5.333
 7014W        W73423  41.014  43.021   0.680
 7015W        W73424   6.613  28.168  14.180
 7016W        W73425   8.615   9.905  10.618
 7017W        W73426  20.785   9.397   3.318
 7018W        W73427  16.744   0.040   3.282
 7019W        W73428   2.787  15.110   4.814
 7020W        W73429   4.654   2.048  13.036
 7021W        W73430  26.898   1.303   4.464
 7022W        W73431  24.577  29.660  14.682
 7023W        W73432  38.031  32.894   0.759
 7024W        W73433   5.665  40.935   0.853
 7025W        W73434  20.564   2.019  13.960
 7026W        W73435  31.044  24.069   2.787
 7027W        W73436  21.978  36.607  10.624
 7028W        W73437  17.500   4.853  11.677
 7029W        W73438   1.923  29.684   2.411
 7030W        W73439   1.840  41.982  13.997
 7031W        W73440  29.122   4.409  13.045
 7032W        W73441  22.432   0.858   2.007
 7033W        W73442  24.919  19.697  11.462
 7034W        W73443  43.372   9.601   2.253
 7035W        W73444  28.593   8.291   2.627
 7036W        W73445  15.774  27.764  13.712
 7037W        W73446  44.010  41.386  13.877
 7038W        W73447   1.502  18.374   1.634
 7039W        W73448  30.518  42.085   2.292
 7040W        W73449   8.424  23.405   5.172
 7041W        W73450  43.507  14.598   2.273
 7042W        W73451   5.990  36.413  11.862
 7043W        W73452  34.878   8.993   1.481
 7044W        W73453  33.383  43.893   1.704
 7045W        W73454  41.072  37.461   0.791
 7046W        W73455  25.055  21.225   0.802
 7047W        W73456  13.384  37.684   2.278
 7048W        W73457  17.344  10.918   0.923
 7049W        W73458  38.743  28.614   4.128
 7050W        W73459  43.499  42.454  10.644
 7051W        W73460  31.680  21.961   0.408
 7052W        W73461   8.116  43.784   3.681
 7053W        W73462  40.901  10.785  11.620
 7054W        W73463  42.961   5.265  13.157
 7055W        W73464  29.875   4.851  10.303
 7056W        W73465  26.214   5.672   1.325
 7057W        W73466  29.075   2.548   2.774
 7058W        W73467  30.072  17.210   4.604
 7059W        W73468  28.984   6.904  13.667
 7060W        W73469  17.752  16.303  14.039
 7061W        W73470  28.739  25.112  12.194
 7062W        W73471  30.204   9.058   2.889
 7063W        W73472  27.698  41.884   2.008
 7064W        W73473  23.705  42.217   3.818
 7065W        W73474  34.410  28.652  11.206
 7066W        W73475  17.845  31.106   3.113
 7067W        W73476  39.404   4.929   9.962
 7068W        W73477  29.140  13.391   2.191
 7069W        W73478  35.076  29.451   4.104
 7070W        W73479  23.768  17.516   4.887
 7071W        W73480  22.740  31.630   0.453
 7072W        W73481   0.040  22.119  11.189
 7073W        W73482  21.852  36.518  14.495
 7074W        W73483  39.956  41.864   4.548
 7075W        W73484  21.776  35.431   2.831
 7076W        W73485  20.617  23.066  11.642
 7077W        W73486  30.446  35.032   2.727
 7078W        W73487  17.032  37.293  12.963
 7079W        W73488  14.244   7.609  13.391
 7080W        W73489  15.331  18.235   3.818
 7081W        W73490  32.371  24.524   4.774
 7082W        W73491  23.015  17.276   1.323
 7083W        W73492  33.995  16.991  14.749
 7084W        W73493  23.690  15.810  14.572
 7085W        W73494  27.136  12.352   1.219
 7086W        W73495  32.920  21.834   3.437
 7087W        W73496   0.454  24.527  11.578
 7088W        W73497  16.033   3.426  11.072
 7089W        W73498   6.840  35.851   3.155
 7090W        W73499  35.831   8.138  14.515
 7091W        W73500  14.744  30.854  10.840
 7092W        W73501   4.940  11.242   0.950
 7093W        W73502  43.941  29.984   0.750
 7094W        W73503  37.912  36.053  14.885
 7095W        W73504  32.970  19.619   1.183
 7096W        W73505  32.469  23.606  11.074
 7097W        W73506  32.093   5.281   3.024
 7098W        W73507   3.792  17.178  14.284
 7099W        W73508  44.835  14.250  12.455
 7100W        W73509  10.913  19.173   4.188
 7101W        W73510  10.090   9.373  14.257
 7102W        W73511  28.881  42.868  13.460
 7103W        W73512  43.849   9.161   0.512
 7104W        W73513  42.576   3.311   1.211
 7105W        W73514   5.234  29.737  11.751
 7106W        W73515  11.803  27.860   4.863
 7107W        W73516  24.938  44.142   2.957
 7108W        W73517  18.202  13.860   1.772
 7109W        W73518  23.030   1.148  13.122
 7110W        W73519  31.026  19.037   2.164
 7111W        W73520  31.680  31.064  13.878
 7112W        W73521   0.037   8.535  10.715
 7113W        W73522  32.407  25.653   0.591
 7114W        W73523  10.586  10.112  14.503
 7115W        W73524  18.351  21.412   1.634
 7116W        W73525  11.639  18.689   1.935
 7117W        W73526   3.399  21.365  14.149
 7118W        W73527  25.221  14.393  11.624
 7119W        W73528  20.290  10.701  12.482
 7120W        W73529  14.238   7.928   5.052
 7121W        W73530   7.953   2.871  11.499
 7122W        W73531  25.594  32.517  13.807
 7123W        W73532  19.144  29.319   4.576
 7124W        W73533  24.186  40.951  11.078
 7125W        W73534  21.479  38.779  10.274
 7126W        W73535  20.992   3.140   0.358
 7127W        W73536  25.255   2.190   4.906
 7128W        W73537  33.390   3.318   0.892
 7129W        W73538  40.865  23.783   0.451
 7130W        W73539  19.596   3.587   4.567
 7131W        W73540  24.378  25.513   3.273
 7132W        W73541   1.088  24.445   0.327
 7133W        W73542  27.451  29.647  11.225
 7134W        W73543  22.071  40.632   4.261
 7135W        W73544  29.350  31.662   0.415
 7136W        W73545  23.482   5.658  14.378
 7137W        W73546   3.002   7.484  14.490
 7138W        W73547  38.269   0.500  14.477
 7139W        W73548  36.987  25.631   4.698
 7140W        W73549  32.164  38.891   1.952
 7141W        W73550  41.750  19.145   1.819
 7142W        W73551  39.416   8.142  13.134
 7143W        W73552  42.904  26.257   1.604
 7144W        W73553  28.506  17.254   0.259
 7145W        W73554  44.279  44.804  14.407
 7146W        W73555  34.208  15.621  10.712
 7147W        W73556  38.841   5.923   2.409
 7148W        W73557  43.466   1.796  14.439
 7149W        W73558  14.421  26.613   4.655
 7150W        W73559  40.945  11.465  11.991
 7151W        W73560  24.570  27.711   4.122
 7152W        W73561  44.753  16.782  10.974
 7153W        W73562  13.591  19.520   3.183
 7154W        W73563   7.928   9.649   2.362
 7155W        W73564  26.033  14.281   2.851
 7156W        W73565  18.828   3.660  12.544
 7157W        W73566   7.179  20.783   3.559
 7158W        W73567   0.283  20.242   0.516
 7159W        W73568  29.603  38.107   2.813
 7160W        W73569  26.751  12.550  13.743
 7161W        W73570  40.135   5.363   4.538
 7162W        W73571  23.196  33.369  13.407
 7163W        W73572  36.797  12.807   2.391
 7164W        W73573  29.381  12.109   3.311
 7165W        W73574  14.833   0.749   3.687
 7166W        W73575  39.710  33.212  11.606
 7167W        W73576  42.250  21.636  13.578
 7168W        W73577  44.050  28.651   4.064
 7169W        W73578  13.571   1.672   3.210
 7170W        W73579   0.871  31.165  13.953
 7171W        W73580  43.606   4.236  11.138
 7172W        W73581  37.992  24.191   3.566
 7173W        W73582  26.432  15.686   4.096
 7174W        W73583  33.563  43.419  11.696
 7175W        W73584   2.484  32.128   4.618
 7176W        W73585  30.134  12.442   2.195
 7177W        W73586   8.544  12.747  11.348
 7178W        W73587  19.650  29.031   2.682
 7179W        W73588  41.114  31.996   4.285
 7180W        W73589  44.720   1.610   4.992
 7181W        W73590  38.503  15.715   0.481
 7182W        W73591  26.621  21.488   4.218
 7183W        W73592  14.336  39.884   2.828
 7184W        W73593  27.978   3.494   2.772
 7185W        W73594  39.550  23.500  13.140
 7186W        W73595  22.202  38.822  12.892
 7187W        W73596  30.053  10.641  12.024
 7188W        W73597  38.398  33.919  10.714
 7189W        W73598  16.273   7.932   2.860
 7190W        W73599  40.406  29.574   4.593
 7191W        W73600  25.503  18.248  13.050
 7192W        W73601  24.690  11.758  14.194
 7193W        W73602  24.495  17.685  11.677
 7194W        W73603  39.951  12.410   2.399
 7195W        W73604  36.033   6.891   3.146
 7196W        W73605  36.143  21.914  10.658
 7197W        W73606  12.890   3.409   3.336
 7198W        W73607  18.616  20.761   4.486
 7199W        W73608  30.446  16.832   3.778
 7200W        W73609  16.113  43.019   2.835
 7201W        W73610   2.355  38.449  13.130
 7202W        W73611  31.066  40.458  13.979
 7203W        W73612   8.673  19.351   1.240
 7204W        W73613  26.700   2.818   3.515
 7205W        W73614  26.916  18.684   2.330
 7206W        W73615  33.351  24.528  14.014
 7207W        W73616  14.869  22.716  14.196
 7208W        W73617  15.727  25.624  14.298
 7209W        W73618   4.405   3.244  12.323
 7210W        W73619  27.955  21.062  14.849
 7211W        W73620  34.879  42.769   0.743
 7212W        W73621   9.611  27.643  12.450
 7213W        W73622  24.207  42.622  14.773
 7214W        W73623  38.379  44.814   2.817
 7215W        W73624  12.896  27.613   2.190
 7216W        W73625  25.753  36.037   3.384
 7217W        W73626  30.816   4.019  12.034
 7218W        W73627  35.172  18.616  11.738
 7219W        W73628  43.872  40.142   0.353
 7220W        W73629  44.941   2.908   4.537
 7221W        W73630  38.667   1.050  14.207
 7222W        W73631  13.601  21.804   1.875
 7223W        W73632   9.812  39.130  13.940
 7224W        W73633   1.230  20.724   4.100
 7225W        W73634   9.196  16.537   4.657
 7226W        W73635  15.110  20.175  12.439
 7227W        W73636  37.262  39.287   1.194
 7228W        W73637  34.244  32.857   0.465
 7229W        W73638  24.316  16.315  11.085
 7230W        W73639  43.178  20.233  12.902
 7231W        W73640  30.943  18.860   2.739
 7232W        W73641  30.689   6.358  10.559
 7233W        W73642  34.282  36.983   0.747
 7234W        W73643   5.688  15.862   1.896
 7235W        W73644   7.089  10.644   0.857
 7236W        W73645  18.243  21.648  14.817
 7237W        W73646  42.408  24.551  11.539
 7238W        W73647  36.302  16.806   4.585
 7239W        W73648  19.780  16.496  14.034
 7240W        W73649  31.988  26.130  11.880
 7241W        W73650   9.782  10.303  13.571
 7242W        W73651  15.007  11.911   3.560
 7243W        W73652  19.145  36.795  12.427
 7244W        W73653  30.126  16.581  14.968
 7245W        W73654  44.511  37.150  12.468
 7246W        W73655  11.135  16.773   0.229
 7247W        W73656  26.000   6.563   4.209
 7248W        W73657  10.229   5.028  11.411
 7249W        W73658  13.773  43.398  11.646
 7250W        W73659  28.993  44.676  12.104
 7251W        W73660  39.343  43.349   4.868
 7252W        W73661   5.277  22.467   1.768
 7253W        W73662  17.014  36.129  13.351
 7254W        W73663   2.874  28.602  14.333
 7255W        W73664  28.645  37.931  10.436
 7256W        W73665   9.606  25.151   1.615
 7257W        W73666  31.035  19.865  14.290
 7258W        W73667  24.060  43.251   2.029
 7259W        W73668  18.561  35.527   4.832
 7260W        W73669  23.306   1.482   1.311
 7261W        W73670  16.666  10.697   3.090
 7262W        W73671  39.202  12.601   4.014
 7263W        W73672  22.150  22.736  11.903
 7264W        W73673  42.852  17.253   4.774
 7265W        W73674  38.661   3.688  12.509
 7266W        W73675  16.038  13.226  12.941
 7267W        W73676  19.148  43.108  14.095
 7268W        W73677  43.367  35.029  13.460
 7269W        W73678  16.804   6.979  13.046
 7270W        W73679  38.949  17.395   0.678
 7271W        W73680  37.424  34.153   1.448
 7272W        W73681  40.111  37.632  10.546
 7273W        W73682  29.442  34.367  14.045
 7274W        W73683   2.121  26.252   4.572
 7275W        W73684  23.025  26.109  13.757
 7276W        W73685  25.575  24.262  12.012
 7277W        W73686  29.301  11.194   2.699
 7278W        W73687  13.272  21.551  13.981
 7279W        W73688  26.438  14.457  13.857
 7280W        W73689  26.059  36.046   3.819
 7281W        W73690  35.530  24.784  14.815
 7282W        W73691  28.007  20.085   3.446
 7283W        W73692  15.685  14.706  11.212
 7284W        W73693  17.979  25.172  12.117
 7285W        W73694  26.453  23.279  12.970
 7286W        W73695   0.457  33.035  13.382
 7287W        W73696  43.319   4.437   2.735
 7288W        W73697   8.610  20.294   3.233
 7289W        W73698  42.413  35.084  11.631
 7290W        W73699  21.460  41.312   3.332
 7291W        W73700  13.184   1.482  10.649
 7292W        W73701  25.389  39.954   1.667
 7293W        W73702  14.793  28.962  13.802
 7294W        W73703  28.898   0.024   2.741
 7295W        W73704  44.718  42.420   4.000
 7296W        W73705  26.948   1.329   2.072
 7297W        W73706  44.671   3.450   0.260
 7298W        W73707   5.459  21.266  13.394
 7299W        W73708  31.690  39.758  12.807
 7300W        W73709   1.428  18.213   3.213
 7301W        W73710  14.424   6.942  14.380
 7302W        W73711  15.299   4.876  13.141
 7303W        W73712  41.558  32.496   1.759
 7304W        W73713  43.878  13.119   4.333
 7305W        W73714  19.511  41.399   4.418
 7306W        W73715  40.303  24.051   4.836
 7307W        W73716  24.259  13.745  12.403
 7308W        W73717  19.865  36.529   4.538
 7309W        W73718  23.274  43.799   4.145
 7310W        W73719  30.570   2.906  13.790
 7311W        W73720  20.010  44.490  13.799
 7312W        W73721   3.484  27.519  13.467
 7313W        W73722  37.545  40.333  10.676
 7314W        W73723  36.010   3.960   3.263
 7315W        W73724  42.154  41.588   1.281
 7316W        W73725   9.635  40.451   3.610
 7317W        W73726  31.632  43.911   4.261
 7318W        W73727  39.499  41.674  13.869
 7319W        W73728  20.683  37.577   2.830
 7320W        W73729  18.420   7.763  12.844
 7321W        W73730  28.140  36.001   4.114
 7322W        W73731   1.576  36.406  13.031
 7323W        W73732   9.367  36.023  12.880
 7324W        W73733  33.622  34.548  13.545
 7325W        W73734  29.494  26.736   1.396
 7326W        W73735  42.945  37.368   3.453
 7327W        W73736  31.511  28.318  11.143
 7328W        W73737  14.439  42.199  12.444
 7329W        W73738  20.272  41.098  12.932
 7330W        W73739  14.469   2.666  14.252
 7331W        W73740  31.254  14.443  12.850
 7332W        W73741  22.905   5.382   3.248
 7333W        W73742  44.168  15.509  13.461
 7334W        W73743  15.687  18.532   2.722
 7335W        W73744  12.308  31.580  12.231
 7336W        W73745  33.040  27.063  14.848
 7337W        W73746  43.143  40.645   2.215
 7338W        W73747  23.512   5.618   3.734
 7339W        W73748  40.069  13.686   0.879
 7340W        W73749  27.566  23.148  14.772
 7341W        W73750  24.179  35.302   0.238
 7342W        W73751   9.175  44.544   3.652
 7343W        W73752   9.065   9.204   2.212
 7344W        W73753  14.565  34.993   2.764
 7345W        W73754  20.012  39.803  10.682
 7346W        W73755  27.867  28.643   3.242
 7347W        W73756  32.098  25.309   4.138
 7348W        W73757  12.769  11.836   2.201
 7349W        W73758  43.283  16.107  11.749
 7350W        W73759  28.425   7.186   3.324
 7351W        W73760   9.861  27.137   0.040
 7352W        W73761   1.657  17.253   0.038
 7353W        W73762  16.192  41.941  12.892
 7354W        W73763  41.821  44.684   1.014
 7355W        W73764   5.387   4.723  14.848
 7356W        W73765  36.671  35.815   4.343
 7357W        W73766  13.355   8.192   2.306
 7358W        W73767  21.573   3.692  14.057
 7359W        W73768  40.374   2.888  12.557
 7360W        W73769  36.595   8.530   2.894
 7361W        W73770  24.951  13.397  13.702
 7362W        W73771  35.408  41.938   0.150
 7363W        W73772  22.011  39.552   2.763
 7364W        W73773  37.785  14.300   4.245
 7365W        W73774   6.817  29.187  13.823
 7366W        W73775  15.321   7.738  13.852
 7367W        W73776  34.573   9.859  10.993
 7368W        W73777  41.884  25.534  13.087
 7369W        W73778  36.582  39.062  14.332
 7370W        W73779   6.266  12.255  11.629
 7371W        W73780  25.929  24.350   0.757
 7372W        W73781   2.851  33.623   0.876
 7373W        W73782  34.394  22.637  13.856
 7374W        W73783  33.571  23.538   1.432
 7375W        W73784  19.334   8.917   4.276
 7376W        W73785  43.079  16.529  10.569
 7377W        W73786  15.603  30.898  12.094
 7378W        W73787  41.427   4.214  14.942
 7379W        W73788  27.940  11.333   5.057
 7380W        W73789  34.127   7.251  12.814
 7381W        W73790  34.163  33.407  14.791
 7382W        W73791   4.942  15.868  12.079
 7383W        W73792   8.520  26.545  13.096
 7384W        W73793   3.309  39.600  13.134
 7385W        W73794  31.584  10.563  12.324
 7386W        W73795  29.875  36.980   1.714
 7387W        W73796  13.439  16.664  11.681
 7388W        W73797  29.736  35.567  13.468
 7389W        W73798  18.817  15.025  13.351
 7390W        W73799  35.453  14.237  12.098
 7391W        W73800   6.715  24.221  13.972
 7392W        W73801  16.953  30.994  11.048
 7393W        W73802  19.368  20.680  12.489
 7394W        W73803  15.765  18.964  14.779
 7395W        W73804  35.679  21.518  13.578
 7396W        W73805  42.419  10.379  13.428
 7397W        W73806  31.460  18.744   4.465
 7398W        W73807  26.978  27.561  12.075
 7399W        W73808  30.113  21.515   2.771
 7400W        W73809  30.042   0.267  12.575
 7401W        W73810  28.666  20.745  14.567
 7402W        W73811  30.623   8.273  13.927
 7403W        W73812  26.501   5.346   3.611
 7404W        W73813  14.760  24.970   2.810
 7405W        W73814  41.327  41.116   2.848
 7406W        W73815  41.537   7.225  14.305
 7407W        W73816  20.088  33.406  13.035
 7408W        W73817   2.089   7.439   2.862
 7409W        W73818  38.819  24.445   4.055
 7410W        W73819   2.454  11.860  14.936
 7411W        W73820  35.544  39.234   0.674
 7412W        W73821  18.481  33.111  11.980
 7413W        W73822  30.593  31.363   2.828
 7414W        W73823  26.668  30.413   4.152
 7415W        W73824  41.380  10.387  13.460
 7416W        W73825  25.456  10.436  13.375
 7417W        W73826  33.089  34.626  10.793
 7418W        W73827  11.603   5.462   1.742
 7419W        W73828  14.107  14.297   2.772
 7420W        W73829   3.333   4.900   0.223
 7421W        W73830  21.548   4.756   3.113
 7422W        W73831  22.186   9.803  12.040
 7423W        W73832  25.524  16.558   3.437
 7424W        W73833  13.110   5.264   2.003
 7425W        W73834  15.615  24.118  14.280
 7426W        W73835   8.786   6.016  13.298
 7427W        W73836  40.208  44.972  11.598
 7428W        W73837  27.882  16.682  10.816
 7429W        W73838   2.700  33.033   3.194
 7430W        W73839  22.029  30.025   1.432
 7431W        W73840  28.590   4.869  13.757
 7432W        W73841  35.064  34.525   9.935
 7433W        W73842  19.249  36.443   3.777
 7434W        W73843  44.138  41.834  11.083
 7435W        W73844   5.193  25.574   1.064
 7436W        W73845  22.871  41.776   4.241
 7437W        W73846  17.235  29.218  13.456
 7438W        W73847  11.246  14.648  14.404
 7439W        W73848   5.341  31.910   2.118
 7440W        W73849  36.951  44.724  10.046
 7441W        W73850  43.814  28.364   2.654
 7442W        W73851   7.868   1.878  12.696
 7443W        W73852  37.390   4.798  11.991
 7444W        W73853  41.515  11.607   0.269
 7445W        W73854  43.998  35.440  12.975
 7446W        W73855  27.503  16.757  13.575
 7447W        W73856  31.048  24.627   4.125
 7448W        W73857   3.665  30.992   4.791
 7449W        W73858  12.850   2.358  11.834
 7450W        W73859  32.336   9.782   4.146
 7451W        W73860  17.524  13.323   4.540
 7452W        W73861   0.920  32.305  11.726
 7453W        W73862  35.873  13.268  12.784
 7454W        W73863  17.975  17.205   1.856
 7455W        W73864  32.023   1.239   4.156
 7456W        W73865  37.758  16.039   3.577
 7457W        W73866  19.659   6.782  13.978
 7458W        W73867  41.860  33.877   2.397
 7459W        W73868   9.720  36.868  12.517
 7460W        W73869  13.334   0.283  14.880
 7461W        W73870  18.724  42.489  14.411
 7462W        W73871  21.167  40.601   2.885
 7463W        W73872  43.573  40.775  12.890
 7464W        W73873   8.962  36.636   1.717
 7465W        W73874   0.736  20.027  12.058
 7466W        W73875   0.534  35.531  10.699
 7467W        W73876  11.411  40.290  12.121
 7468W        W73877  37.622  37.083  13.897
 7469W        W73878  42.232  18.090   1.269
 7470W        W73879   4.776  18.687  11.226
 7471W        W73880  43.944  37.126  14.557
 7472W        W73881  20.676  39.140   3.774
 7473W        W73882  31.048  25.166  12.332
 7474W        W73883  16.565  34.148   3.290
 7475W        W73884  13.758  25.959   0.982
 7476W        W73885  29.691   2.652  10.197
 7477W        W73886  11.093  12.700  13.852
 7478W        W73887  36.013  28.129  13.075
 7479W        W73888  14.930  31.259  12.403
 7480W        W73889  37.491  34.189   4.369
 7481W        W73890   5.103  13.699   0.430
 7482W        W73891  29.644   3.964  12.301
 7483W        W73892   8.870  44.478  11.135
 7484W        W73893  25.108   4.442  11.158
 7485W        W73894  12.744   3.724  14.920
 7486W        W73895  25.751  16.350  11.973
 7487W        W73896  38.983   3.948  14.755
 7488W        W73897  25.323  42.706  10.915
 7489W        W73898  22.295  42.853  10.142
 7490W        W73899  40.302  18.288   2.284
 7491W        W73900  43.027  13.898   2.866
 7492W        W73901  12.342  40.604   1.078
 7493W        W73902  28.172   3.082  14.614
 7494W        W73903  34.475  42.092  14.001
 7495W        W73904  21.297  26.994   3.853
 7496W        W73905  26.173  31.076   0.882
 7497W        W73906  20.632  44.735   0.035
 7498W        W73907  13.124  33.902   0.233
 7499W        W73908  19.332  35.584  12.874
 7500W        W73909  43.949  22.337   1.937
 7501W        W73910   3.183   0.487  13.592
 7502W        W73911  26.616  23.848  14.047
 7503W        W73912  29.839  27.103   4.059
 7504W        W73913  16.149  42.037  13.871
 7505W        W73914  12.289  36.116  10.274
 7506W        W73915  17.267  33.393  14.831
 7507W        W73916  19.754  17.089   4.742
 7508W        W73917   7.192   6.972   0.492
 7509W        W73918  25.689  26.242  14.836
 7510W        W73919   6.218  17.070   4.339
 7511W        W73920  38.050  26.603   2.299
 7512W        W73921  27.635  44.927   1.186
 7513W        W73922  21.927  26.224   2.407
 7514W        W73923  16.682  14.536  12.858
 7515W        W73924  15.364  25.571   3.152
 7516W        W73925  25.997   6.148   1.920
 7517W        W73926  11.507   3.996   4.607
 7518W        W73927  21.147  36.953  11.873
 7519W        W73928  20.592  37.522   1.094
 7520W        W73929  26.979  26.931   2.637
 7521W        W73930   6.819  13.147   0.265
 7522W        W73931   0.088  41.276  14.593
 7523W        W73932  16.249   4.720   4.685
 7524W        W73933  38.588   0.013   0.883
 7525W        W73934  33.511  12.696   3.352
 7526W        W73935  23.579  12.866  12.949
 7527W        W73936   6.468   3.654   4.105
 7528W        W73937   6.536  38.775   9.809
 7529W        W73938  23.058  30.523   3.582
 7530W        W73939  39.428  36.063   3.833
 7531W        W73940   8.205  26.112  12.044
 7532W        W73941  32.190  37.478  14.216
 7533W        W73942  16.380  34.430  14.917
 7534W        W73943  16.839  20.615   2.379
 7535W        W73944  12.880  34.075   0.717
 7536W        W73945  43.349  19.018  14.845
 7537W        W73946  11.758   7.247  11.081
 7538W        W73947   6.834  26.345   1.143
 7539W        W73948  32.435  14.840  10.597
 7540W        W73949  39.497  31.583  10.930
 7541W        W73950   0.522  29.847  11.985
 7542W        W73951  17.031   2.131  12.075
 7543W        W73952  29.204   7.141   0.199
 7544W        W73953  20.529  27.943   4.210
 7545W        W73954  44.274  18.448  13.557
 7546W        W73955   9.557  33.339  13.959
 7547W        W73956  25.084  33.850  10.707
 7548W        W73957  18.053  29.644   3.547
 7549W        W73958  15.705   0.737  13.637
 7550W        W73959  32.853  38.939  10.610
 7551W        W73960   8.127  37.327   0.865
 7552W        W73961  35.391  16.713  11.596
 7553W        W73962  23.988  40.465   3.956
 7554W        W73963  24.110  13.502   3.422
 7555W        W73964  19.957   0.345  11.486
 7556W        W73965   5.685   1.869   3.132
 7557W        W73966  36.892  13.377  11.072
 7558W        W73967  41.738  41.322   0.415
 7559W        W73968  31.353  19.591   3.138
 7560W        W73969  44.994  41.820  13.879
 7561W        W73970  44.715  24.250   2.904
 7562W        W73971  18.485  22.776   4.301
 7563W        W73972   3.807  26.296  11.561
 7564W        W73973   8.456  13.639  12.552
 7565W        W73974  13.545  24.275  11.481
 7566W        W73975  12.486  31.245  11.550
 7567W        W73976  41.597  15.097   1.345
 7568W        W73977   8.799  42.316  12.486
 7569W        W73978  13.841  44.289   0.352
 7570W        W73979  36.307   6.725   2.729
 7571W        W73980  36.796  19.805   4.119
 7572W        W73981  33.969  34.535  10.961
 7573W        W73982   1.443  39.074   2.625
 7574W        W73983   0.246  38.304  14.347
 7575W        W73984  42.839  11.766  10.581
 7576W        W73985  22.299   7.074  10.794
 7577W        W73986  14.326   8.180  13.410
 7578W        W73987  16.299  14.688   2.395
 7579W        W73988  18.065  30.535   1.764
 7580W        W73989  32.138  22.777   1.390
 7581W        W73990  33.743  31.451   3.637
 7582W        W73991   6.221   5.809   4.235
 7583W        W73992  42.096  44.777   4.274
 7584W        W73993  26.845  14.255  12.695
 7585W        W73994  22.723   0.910  12.595
 7586W        W73995  13.702  14.182   3.699
 7587W        W73996  21.111  26.262   3.708
 7588W        W73997  41.539  24.783  14.546
 7589W        W73998  30.403  33.112  12.538
 7590W        W73999  14.394  36.130   9.895
 7591W        W74000  44.932  41.589  10.612
 7592W        W74001   2.603  21.550   0.590
 7593W        W74002  44.753  37.258  12.038
 7594W        W74003  24.653  12.225  12.904
 7595W        W74004  34.458   1.206  13.424
 7596W        W74005   3.304  27.701   2.329
 7597W        W74006  20.130   9.833  13.714
 7598W        W74007  36.285  29.949   3.826
 7599W        W74008  36.454   2.757   0.104
 7600W        W74009  15.586  25.143   1.417
 7601W        W74010   5.993  35.545  11.571
 7602W        W74011   7.125  40.446   2.545
 7603W        W74012  37.786  32.647  13.882
 7604W        W74013  35.764   4.256   2.203
 7605W        W74014  43.209  10.291   3.220
 7606W        W74015   0.634   7.613  11.047
 7607W        W74016  28.671  29.682  10.641
 7608W        W74017  16.846  38.878   3.318
 7609W        W74018  32.799  28.115  10.710
 7610W        W74019  32.948  24.439   0.760
 7611W        W74020  22.622  27.746   0.399
 7612W        W74021  25.972  14.395  10.569
 7613W        W74022   5.794  18.870  14.940
 7614W        W74023   0.444   0.547   4.881
 7615W        W74024   2.546   4.387  14.815
 7616W        W74025  26.024  29.799  13.217
 7617W        W74026  33.539   0.846   1.216
 7618W        W74027  21.042  13.267   3.859
 7619W        W74028  40.009  26.627   2.628
 7620W        W74029  37.122  18.984   4.130
 7621W        W74030  17.313  11.268  10.121
 7622W        W74031  28.971  28.484   4.172
 7623W        W74032  20.853  30.475   0.816
 7624W        W74033  42.903  41.560  14.937
 7625W        W74034  43.460   5.957  13.938
 7626W        W74035  25.278  43.588   3.514
 7627W        W74036  12.198  14.144   3.185
 7628W        W74037  16.185  44.103   1.656
 7629W        W74038  20.070  28.147   1.745
 7630W        W74039  40.780  26.572  12.376
 7631W        W74040  22.946  15.721  13.585
 7632W        W74041  12.255   9.867  12.590
 7633W        W74042   6.529  31.599   1.008
 7634W        W74043  12.748  38.516   4.542
 7635W        W74044  29.992   0.209  13.441
 7636W        W74045  16.121  27.769   0.875
 7637W        W74046  34.861  13.326  13.704
 7638W        W74047  27.855   0.291  11.558
 7639W        W74048   2.947  39.147  11.549
 7640W        W74049  25.258  35.828  11.514
 7641W        W74050  24.013   9.210  11.705
 7642W        W74051  35.138  35.300  11.599
 7643W        W74052  28.928  18.593  11.060
 7644W        W74053  29.058  41.667   4.040
 7645W        W74054  30.920  27.623   3.648
 7646W        W74055  39.925  26.963   0.018
 7647W        W74056  14.924   0.566   1.236
 7648W        W74057  38.047   2.515   2.721
 7649W        W74058  14.672  30.140   4.616
 7650W        W74059  41.064  16.696  10.294
 7651W        W74060  25.939  17.471  13.608
 7652W        W74061   0.468  36.572   3.278
 7653W        W74062  31.363  25.182  13.567
 7654W        W74063  19.582  36.478  14.154
 7655W        W74064   2.823  10.283   4.332
 7656W        W74065  18.759   0.076   2.379
 7657W        W74066  17.410  11.326  11.557
 7658W        W74067  13.282  14.147   2.345
 7659W        W74068   8.680   2.997   0.687
 7660W        W74069   7.774  40.122   1.453
 7661W        W74070  26.495  14.677  12.136
 7662W        W74071  14.525   9.847  11.488
 7663W        W74072  11.706   6.325  11.182
 7664W        W74073  22.192  42.929   2.343
 7665W        W74074  41.023  11.994   3.240
 7666W        W74075  38.534   0.461   2.333
 7667W        W74076  27.501  33.250   0.226
 7668W        W74077  10.680  44.388   4.611
 7669W        W74078  26.928  31.323   0.389
 7670W        W74079   6.644  28.673  10.582
 7671W        W74080  23.046  11.732  14.430
 7672W        W74081  13.786  25.721   4.775
 7673W        W74082  10.649  26.991   1.632
 7674W        W74083  35.540   6.382   3.905
 7675W        W74084  43.551   7.074   4.082
 7676W        W74085  25.722   1.578   1.961
 7677W        W74086   1.898   1.361  10.787
 7678W        W74087   8.489  35.519  11.546
 7679W        W74088  31.104  10.287   2.570
 7680W        W74089  26.550  29.382  14.818
 7681W        W74090  40.458  11.939  11.140
 7682W        W74091  20.532  21.070   1.383
 7683W        W74092  22.127   0.351  13.355
 7684W        W74093  12.937  33.906   4.992
 7685W        W74094  37.756   8.748  14.114
 7686W        W74095  14.777  43.424   4.454
 7687W        W74096  30.211  16.648   2.776
 7688W        W74097   7.391  39.596  11.180
 7689W        W74098  11.174   1.121   3.543
 7690W        W74099  42.292  15.792   4.511
 7691W        W74100  40.378  13.088   0.375
 7692W        W74101  29.160  41.967   1.485
 7693W        W74102  22.754  34.876   0.248
 7694W        W74103  34.810  13.694  12.001
 7695W        W74104  28.236   3.891   0.093
 7696W        W74105  10.875  11.664   3.220
 7697W        W74106  26.504  27.015   1.239
 7698W        W74107  34.025  15.659  11.229
 7699W        W74108  35.559  12.600   4.181
 7700W        W74109  16.983  12.267  11.190
 7701W        W74110   0.725  12.694  14.966
 7702W        W74111  30.403   1.654   1.483
 7703W        W74112  25.773  36.677  14.951
 7704W        W74113  14.295  39.000  13.928
 7705W        W74114  41.957   3.942   0.560
 7706W        W74115  28.969   1.365   3.850
 7707W        W74116   0.245  30.434  14.924
 7708W        W74117   0.732  31.635  13.748
 7709W        W74118  28.396   7.832   1.315
 7710W        W74119  22.306  27.215   3.116
 7711W        W74120  40.824  26.104  10.584
 7712W        W74121  12.149   0.743   3.534
 7713W        W74122  11.537  12.913   3.684
 7714W        W74123   4.084  24.296   3.944
 7715W        W74124  39.797  27.135   4.254
 7716W        W74125  11.200  31.513  12.658
 7717W        W74126  37.936  38.147  11.189
 7718W        W74127  34.094  11.128   2.420
 7719W        W74128  37.352  35.553  13.949
 7720W        W74129   7.829  22.887   3.172
 7721W        W74130  11.799  39.521   4.524
 7722W        W74131  14.853  43.078  12.370
 7723W        W74132   9.176   1.960  14.927
 7724W        W74133   7.367  35.700   1.938
 7725W        W74134  24.062  15.878   4.171
 7726W        W74135   7.630  19.052   0.006
 7727W        W74136   1.224   1.860   0.807
 7728W        W74137   7.940  19.258  12.455
 7729W        W74138  37.853  20.023   0.830
 7730W        W74139  28.799  40.520  12.377
 7731W        W74140  38.515   7.485  11.042
 7732W        W74141  12.000  13.992  11.978
 7733W        W74142  26.949  19.333  11.557
 7734W        W74143  13.775  38.970  13.809
 7735W        W74144  37.427  35.395  14.446
 7736W        W74145  15.335   2.191  13.942
 7737W        W74146   6.313  18.995   4.188
 7738W        W74147  39.747   7.835   0.313
 7739W        W74148   7.269  13.812   3.388
 7740W        W74149   0.236   7.008   0.175
 7741W        W74150  11.372  28.691  13.392
 7742W        W74151  36.945  31.894  13.901
 7743W        W74152  43.024  30.948   2.732
 7744W        W74153  30.574  19.332   2.157
 7745W        W74154   9.648  41.319   3.573
 7746W        W74155  32.431   0.735  12.503
 7747W        W74156  16.315  33.710  11.045
 7748W        W74157  15.332  31.068  12.679
 7749W        W74158  11.360   6.950  10.848
 7750W        W74159  10.626  25.922   1.704
 7751W        W74160   3.315  44.875   3.059
 7752W        W74161  39.076   9.460   4.668
 7753W        W74162  43.016  17.129   1.869
 7754W        W74163   7.350  43.015  13.044
 7755W        W74164  32.814  31.244  11.122
 7756W        W74165   3.251  19.536  14.551
 7757W        W74166  24.733   6.278   0.720
 7758W        W74167  21.474  44.437   2.313
 7759W        W74168  27.930  41.462  12.106
 7760W        W74169   5.801  33.904  14.367
 7761W        W74170  34.444   7.784   0.771
 7762W        W74171  16.600  17.487   1.890
 7763W        W74172  32.667   3.241   0.179
 7764W        W74173  42.974  33.322  11.155
 7765W        W74174  25.931   5.285   4.764
 7766W        W74175  23.633  35.330   0.937
 7767W        W74176  30.929   1.983   3.735
 7768W        W74177  22.974   6.342   4.655
 7769W        W74178  12.868  20.796   2.704
 7770W        W74179  42.595  28.157   4.669
 7771W        W74180  32.429  22.725  12.843
 7772W        W74181  32.888  42.894   4.639
 7773W        W74182   1.291  44.568  13.015
 7774W        W74183  39.301  34.219   1.484
 7775W        W74184  20.721  25.940  13.077
 7776W        W74185  24.264  32.021   2.432
 7777W        W74186   2.776  15.101  14.829
 7778W        W74187  37.425  42.596  13.856
 7779W        W74188  37.918  32.352  13.439
 7780W        W74189  22.011  31.578   4.472
 7781W        W74190   2.851  41.342  11.631
 7782W        W74191   2.645  27.443  13.828
 7783W        W74192   2.867  22.768   3.203
 7784W        W74193  27.648   3.296  11.989
 7785W        W74194   4.376  44.480   1.713
 7786W        W74195  12.822  24.119  10.758
 7787W        W74196  15.999  16.757  12.846
 7788W        W74197   1.374  12.114   4.212
 7789W        W74198   6.811  11.749   1.743
 7790W        W74199  30.989  35.944   0.862
 7791W        W74200  18.081  17.090   2.709
 7792W        W74201  11.176   6.417   3.107
 7793W        W74202  39.225  37.919   0.487
 7794W        W74203  12.409  14.505  14.717
 7795W        W74204  22.987   9.073   2.661
 7796W        W74205   8.789   4.810  14.794
 7797W        W74206  10.241  13.636  14.493
 7798W        W74207  36.275  20.591  10.974
 7799W        W74208   9.693   1.272   1.203
 7800W        W74209  20.903  28.706  12.540
 7801W        W74210  41.966  23.625   2.816
 7802W        W74211   6.829  42.804   2.234
 7803W        W74212  16.164   6.472  11.089
 7804W        W74213   1.874  38.853   2.820
 7805W        W74214  24.981  11.362  13.945
 7806W        W74215   7.258   6.247   1.768
 7807W        W74216  30.072  42.155   1.566
 7808W        W74217   2.913  18.190   3.313
 7809W        W74218   3.401  13.431  14.311
 7810W        W74219  22.040   3.532   0.863
 7811W        W74220  10.161  24.678  12.851
 7812W        W74221   5.499  29.967   4.163
 7813W        W74222  36.058  38.580   0.302
 7814W        W74223  12.691   5.299   3.412
 7815W        W74224   6.824  36.387  11.168
 7816W        W74225  33.148   2.567  13.837
 7817W        W74226  21.035  20.791  13.207
 7818W        W74227   7.595  41.260  11.598
 7819W        W74228  40.073  39.773   1.257
 7820W        W74229   4.804   7.994   2.610
 7821W        W74230  30.454  13.278   3.616
 7822W        W74231  44.350  23.494  13.112
 7823W        W74232   0.875  36.125  11.130
 7824W        W74233  21.156  33.382  12.894
 7825W        W74234  39.398  22.019  14.037
 7826W        W74235  44.799   1.553   4.505
 7827W        W74236  40.498  41.176  12.426
 7828W        W74237  26.106   1.709   4.625
 7829W        W74238  16.868   8.694  12.474
 7830W        W74239   6.523  23.031   3.251
 7831W        W74240   3.530   3.732  14.404
 7832W        W74241  21.640  40.138   1.063
 7833W        W74242  41.037  16.480   0.221
 7834W        W74243  18.209   7.770   1.711
 7835W        W74244  44.417  26.685  13.135
 7836W        W74245   1.806  41.478  14.173
 7837W        W74246   0.597  42.006  11.777
 7838W        W74247   1.504  11.012   9.830
 7839W        W74248   3.215   4.509  10.379
 7840W        W74249  43.322  20.011  14.753
 7841W        W74250  21.163  25.223  11.179
 7842W        W74251  34.873  20.102   0.794
 7843W        W74252  17.784   8.875  12.361
 7844W        W74253  44.999   3.525   1.451
 7845W        W74254  10.721   1.517   0.277
 7846W        W74255   6.955  40.610  10.719
 7847W        W74256  36.398  41.914  13.267
 7848W        W74257   0.932  43.032   2.904
 7849W        W74258  11.612  43.853   1.121
 7850W        W74259  21.743   1.511   4.029
 7851W        W74260  30.527  17.634   1.038
 7852W        W74261  44.457  17.219   4.114
 7853W        W74262  35.960   1.321  14.934
 7854W        W74263   0.169   2.379  12.070
 7855W        W74264   0.532  19.046  13.121
 7856W        W74265  14.731  16.647   4.629
 7857W        W74266  42.340  16.845  14.169
 7858W        W74267  37.983  39.111   1.645
 7859W        W74268  20.781  27.078  11.650
 7860W        W74269  31.975  18.265  13.975
 7861W        W74270  15.361  10.972   3.625
 7862W        W74271   2.331   4.786   1.002
 7863W        W74272  28.081  22.427   2.831
 7864W        W74273   8.428  33.432   0.857
 7865W        W74274  31.876   4.958   4.497
 7866W        W74275  38.102  44.470  13.913
 7867W        W74276   7.835   9.409   2.807
 7868W        W74277   5.952   2.363  12.619
 7869W        W74278  39.941  28.707   0.806
 7870W        W74279  35.086  14.524  13.811
 7871W        W74280  24.374  37.963   4.890
 7872W        W74281   0.636  10.478   4.488
 7873W        W74282  33.840   6.830  12.956
 7874W        W74283   9.725  37.776  14.916
 7875W        W74284  39.743  21.293  10.845
 7876W        W74285  25.742  43.051  13.867
 7877W        W74286   9.643  21.313  13.456
 7878W        W74287   2.043  21.162  13.884
 7879W        W74288   6.206  37.355   2.004
 7880W        W74289   7.180  38.840   0.246
 7881W        W74290  34.553  10.943   1.138
 7882W        W74291  40.153  22.538   1.877
 7883W        W74292  35.507  43.351  12.387
 7884W        W74293  32.841  19.223  11.810
 7885W        W74294  41.470  36.031   1.112
 7886W        W74295   7.798  32.366   1.716
 7887W        W74296  10.692  39.300  14.939
 7888W        W74297  36.237  43.044  14.624
 7889W        W74298  29.928   3.225   0.038
 7890W        W74299   3.395  10.115   1.750
 7891W        W74300  12.641  15.835  13.721
 7892W        W74301  14.104   9.358  10.593
 7893W        W74302  21.595  44.904   1.265
 7894W        W74303  14.078  32.866   3.051
 7895W        W74304  35.775  18.180   3.863
 7896W        W74305  41.985  44.678  13.829
 7897W        W74306  18.643  32.028   3.657
 7898W        W74307  41.392  38.307  12.100
 7899W        W74308  27.040  12.508   4.982
 7900W        W74309  30.127  38.864  12.414
 7901W        W74310  28.159   8.100   3.508
 7902W        W74311  26.009   3.447   0.221
 7903W        W74312  36.476   5.539   4.059
 7904W        W74313   2.622  17.882  14.971
 7905W        W74314  20.504  41.961  11.196
 7906W        W74315  28.678  23.741   3.745
 7907W        W74316  36.656   1.873  11.271
 7908W        W74317   0.402  33.560  13.406
 7909W        W74318  21.132  41.834   3.377
 7910W        W74319  24.248   1.421   1.647
 7911W        W74320  11.795  43.296  10.022
 7912W        W74321  33.141   2.048  13.861
 7913W        W74322  42.183  25.848  13.390
 7914W        W74323  22.454   3.171  13.915
 7915W        W74324  40.016  12.183  11.140
 7916W        W74325  24.633  19.151  12.699
 7917W        W74326   4.734  10.512  11.238
 7918W        W74327  25.328  19.623  10.653
 7919W        W74328  41.161  16.729   4.107
 7920W        W74329  40.625  19.575   3.389
 7921W        W74330  23.652  23.622   4.077
 7922W        W74331   6.644  27.886  10.890
 7923W        W74332   9.245  44.748  11.993
 7924W        W74333  25.736  19.646  12.838
 7925W        W74334  29.503  24.896  13.249
 7926W        W74335  17.630   3.899  13.132
 7927W        W74336   0.285  18.315  13.515
 7928W        W74337   5.298  30.097   2.318
 7929W        W74338  15.899   0.786   0.379
 7930W        W74339   7.792  24.270  13.940
 7931W        W74340   4.528   0.011   1.443
 7932W        W74341   3.229  29.133   0.389
 7933W        W74342  39.479  30.969  11.133
 7934W        W74343  21.767  42.815  10.773
 7935W        W74344  36.341  11.329  11.232
 7936W        W74345  16.137  32.561   3.825
 7937W        W74346   0.166  23.921   2.843
 7938W        W74347  41.015  35.284  13.992
 7939W        W74348  36.863   9.431  13.040
 7940W        W74349  24.766  17.333  13.118
 7941W        W74350  14.839   2.798   4.850
 7942W        W74351  15.258  17.869  14.345
 7943W        W74352  14.538  18.764  12.317
 7944W        W74353  23.614  25.555   1.945
 7945W        W74354  21.940  20.151   0.205
 7946W        W74355  37.391  30.060  12.588
 7947W        W74356  17.690  33.877  13.790
 7948W        W74357  12.288   8.411   4.094
 7949W        W74358   8.113  11.387  10.136
 7950W        W74359  33.332  12.272   3.630
 7951W        W74360  29.321  23.550   2.437
 7952W        W74361  32.595  20.289  12.319
 7953W        W74362   9.272   9.405  12.032
 7954W        W74363  13.008  43.165   0.135
 7955W        W74364  24.641  36.926   4.826
 7956W        W74365  39.948  23.745  13.364
 7957W        W74366  17.774   8.686  13.858
 7958W        W74367  14.706  15.168   0.833
 7959W        W74368   2.892   2.903   1.918
 7960W        W74369  10.375  41.282  14.946
 7961W        W74370  36.622  22.701  11.507
 7962W        W74371  31.372  10.145   2.131
 7963W        W74372  32.065  36.812   3.293
 7964W        W74373  12.275  17.386   2.242
 7965W        W74374  42.760  40.277   0.972
 7966W        W74375  38.435  22.973   1.387
 7967W        W74376  23.762  23.118   4.087
 7968W        W74377   4.922  42.661   3.828
 7969W        W74378  34.383  30.133  13.806
 7970W        W74379   0.190  36.128   0.935
 7971W        W74380  40.842  42.839   4.870
 7972W        W74381  43.093   2.365  13.312
 7973W        W74382  39.357  19.966  13.250
 7974W        W74383  43.849   4.698  14.487
 7975W        W74384   2.812   7.721   2.885
 7976W        W74385   8.176  39.776   4.790
 7977W        W74386  22.361   4.244  14.831
 7978W        W74387  43.596  42.477   1.840
 7979W        W74388  15.625  12.237   0.325
 7980W        W74389  43.644  34.360  14.714
 7981W        W74390  26.462  13.622   0.382
 7982W        W74391   7.701  37.850   1.651
 7983W        W74392  44.380  19.592   3.834
 7984W        W74393   1.031  28.315   1.785
 7985W        W74394  39.488  26.494  13.488
 7986W        W74395   8.155   7.819  10.651
 7987W        W74396   5.387   8.920   4.821
 7988W        W74397  37.240  23.956  12.988
 7989W        W74398   1.693  43.901   1.776
 7990W        W74399  12.311  15.385  10.947
 7991W        W74400   2.381  38.952   3.612
 7992W        W74401   9.063   1.775   3.251
 7993W        W74402  36.825  41.520  14.972
 7994W        W74403   7.672  38.889  11.602
 7995W        W74404  40.813  18.538  12.960
 7996W        W74405  16.853  44.269   0.892
 7997W        W74406  40.762  42.448  14.279
 7998W        W74407  11.375   2.052   1.437
 7999W        W74408  26.212   7.078   4.123
 8000W        W74409  27.147   3.592  14.300
 8001W        W74410   5.125  14.041   2.177
 8002W        W74411  22.106  34.869  13.620
 8003W        W74412  25.752  27.951   4.642
 8004W        W74413  25.502   4.319  10.836
 8005W        W74414  24.009  18.359  14.136
 8006W        W74415   0.912  26.900   4.177
 8007W        W74416  43.259  19.085  13.952
 8008W        W74417  39.327  30.689   2.788
 8009W        W74418  25.021  35.821  10.701
 8010W        W74419  35.392  28.213  14.416
 8011W        W74420   2.022  29.165  12.930
 8012W        W74421  21.820  39.956   4.864
 8013W        W74422  35.935  17.787  10.139
 8014W        W74423  10.201  10.192  13.297
 8015W        W74424   6.310  35.058  11.746
 8016W        W74425  40.328  34.374   3.916
 8017W        W74426  29.672  25.238  12.383
 8018W        W74427  29.382  27.039   4.747
 8019W        W74428  27.403  43.892   4.102
 8020W        W74429  10.684  32.846   0.426
 8021W        W74430  24.231   5.042  14.956
 8022W        W74431  27.939   1.551  12.077
 8023W        W74432  27.434   9.212   4.046
 8024W        W74433  27.451  16.624   4.128
 8025W        W74434   1.294  22.562   0.781
 8026W        W74435   2.776   4.706   2.387
 8027W        W74436  23.826  39.113   2.253
 8028W        W74437  14.941   5.444  10.792
 8029W        W74438  10.236  34.815  11.506
 8030W        W74439  43.498  33.443   3.373
 8031W        W74440   5.952  44.929  14.878
 8032W        W74441  14.817  23.926   0.677
 8033W        W74442  26.228  30.446  11.559
 8034W        W74443  18.804  25.061  13.468
 8035W        W74444   0.203  42.997   5.265
 8036W        W74445  24.872   3.371  10.918
 8037W        W74446  10.255  40.635   0.765
 8038W        W74447  36.636  11.673  14.461
 8039W        W74448  33.042  36.137   4.829
 8040W        W74449  42.937  17.701   4.527
 8041W        W74450  44.342   0.968  11.118
 8042W        W74451  31.969  23.073  12.624
 8043W        W74452  31.140  40.698   1.513
 8044W        W74453  20.807   8.998   2.363
 8045W        W74454  16.304   0.925  14.152
 8046W        W74455  29.506  25.175   3.790
 8047W        W74456  41.853  20.542  10.815
 8048W        W74457  28.183  11.995   3.756
 8049W        W74458  23.721  33.443  10.635
 8050W        W74459   7.515  44.725  13.002
 8051W        W74460  44.470   2.793  10.736
 8052W        W74461  11.354   1.612   3.595
 8053W        W74462  33.500  31.127  14.304
 8054W        W74463  10.158   6.676  14.063
 8055W        W74464   4.295  32.829  11.987
 8056W        W74465  23.820  30.106   0.247
 8057W        W74466  21.454  31.392  11.915
 8058W        W74467   7.381  44.415  12.593
 8059W        W74468  28.168  44.417  13.291
 8060W        W74469   4.077  18.055  13.770
 8061W        W74470  18.832  26.154  14.022
 8062W        W74471  26.042  29.591   3.535
 8063W        W74472  29.937   0.237   4.398
 8064W        W74473  30.135   3.361   3.068
 8065W        W74474  15.354   7.900   4.081
 8066W        W74475  27.010  24.787   0.733
 8067W        W74476  21.692  32.221  12.502
 8068W        W74477  17.098  42.010  14.851
 8069W        W74478  38.232  26.014  14.485
 8070W        W74479  31.404   3.047  11.679
 8071W        W74480  29.040  24.201   3.006
 8072W        W74481  21.745   2.321  12.063
 8073W        W74482  14.020  40.867   2.808
 8074W        W74483  42.047  11.645  12.010
 8075W        W74484  24.264  34.827  14.223
 8076W        W74485   8.460  38.444  10.718
 8077W        W74486  14.718  13.842   4.283
 8078W        W74487  33.011  11.085   4.105
 8079W        W74488  17.747  16.734   1.728
 8080W        W74489  36.558  32.451   1.281
 8081W        W74490  13.159  37.320   5.487
 8082W        W74491  13.787  27.483   2.217
 8083W        W74492  15.954  24.713  13.373
 8084W        W74493  14.337  17.112   3.321
 8085W        W74494  16.794  31.885   0.840
 8086W        W74495   0.896   7.473   4.567
 8087W        W74496   2.047  41.737  13.268
 8088W        W74497  38.963  34.807   1.707
 8089W        W74498  24.935  14.346  11.207
 8090W        W74499  12.234  10.165  10.436
 8091W        W74500  38.244  18.498  14.035
 8092W        W74501  14.866   1.996   4.456
 8093W        W74502  43.886  23.420  12.008
 8094W        W74503  21.197   9.716  11.993
 8095W        W74504   2.589  23.778   1.817
 8096W        W74505  30.542  41.599  14.448
 8097W        W74506  26.628  36.657  13.810
 8098W        W74507   8.053  36.364   1.927
 8099W        W74508  18.188  43.292  13.156
 8100W        W74509  10.775  19.020  10.700
 8101W        W74510  34.596  43.399  13.934
 8102W        W74511  42.546  21.277  12.060
 8103W        W74512  30.284  24.381  12.925
 8104W        W74513  42.726  20.791  10.469
 8105W        W74514  21.082  12.660   1.734
 8106W        W74515  43.482  13.277   3.643
 8107W        W74516  25.619  41.018   2.201
 8108W        W74517  32.580  11.618  13.466
 8109W        W74518  17.433   2.910  14.880
 8110W        W74519  36.135  29.490  12.423
 8111W        W74520  27.177  28.350  12.499
 8112W        W74521  34.800  33.005  10.623
 8113W        W74522   6.759  27.488   2.135
 8114W        W74523  29.238  10.298  14.349
 8115W        W74524   3.506  32.013   0.375
 8116W        W74525  26.677   4.843  13.163
 8117W        W74526  20.173  31.860   1.471
 8118W        W74527  17.326   4.357   1.302
 8119W        W74528  32.959   1.978  11.432
 8120W        W74529  33.502  14.427   4.461
 8121W        W74530   3.510   9.361  13.439
 8122W        W74531  31.880  41.771  11.590
 8123W        W74532  19.862  42.989   2.722
 8124W        W74533   8.091  17.711   1.182
 8125W        W74534  37.449  44.590  10.032
 8126W        W74535  36.396   3.251   3.670
 8127W        W74536  34.425  26.378  14.920
 8128W        W74537   2.993  26.647  13.463
 8129W        W74538  25.560  14.214   2.587
 8130W        W74539  43.639  27.443  10.701
 8131W        W74540  25.645   3.952  10.491
 8132W        W74541  30.502  33.721   4.254
 8133W        W74542   4.477  22.042   1.357
 8134W        W74543  42.604  20.976  14.769
 8135W        W74544  16.788  16.538  12.031
 8136W        W74545   0.742   7.436  11.523
 8137W        W74546  29.918  22.479   2.753
 8138W        W74547  22.632  38.488   4.169
 8139W        W74548  40.563  21.509   0.899
 8140W        W74549  35.777  29.369   4.560
 8141W        W74550  39.745   4.729  10.830
 8142W        W74551  19.238   5.236  12.500
 8143W        W74552  41.459  32.851   2.687
 8144W        W74553   8.665  12.376   1.798
 8145W        W74554  27.166   7.944  14.043
 8146W        W74555   8.836   7.345   0.660
 8147W        W74556   3.285  40.422   4.016
 8148W        W74557  29.289  34.380  11.312
 8149W        W74558   5.735  38.951   0.842
 8150W        W74559  44.526   9.478   1.382
 8151W        W74560  36.501  39.797   1.406
 8152W        W74561  18.444  32.402   4.540
 8153W        W74562   9.479  26.460   0.455
 8154W        W74563  14.703   1.018   1.461
 8155W        W74564   9.770   6.808  12.761
 8156W        W74565  36.495   0.307  11.901
 8157W        W74566   2.750  42.814  12.965
 8158W        W74567  14.071  41.228  10.882
 8159W        W74568  31.529  28.570  11.602
 8160W        W74569  31.929  13.075  11.529
 8161W        W74570  33.837  24.677   3.564
 8162W        W74571  41.982  26.791  12.601
 8163W        W74572  21.292  15.307   2.755
 8164W        W74573   0.738  43.805  11.280
 8165W        W74574  32.271  14.433  12.991
 8166W        W74575  40.386  36.947  14.938
 8167W        W74576  35.642   8.832  13.534
 8168W        W74577  18.235  24.643   3.743
 8169W        W74578  19.316  13.365  11.592
 8170W        W74579   1.284  42.269   3.217
 8171W        W74580   4.772  34.778   0.870
 8172W        W74581  30.413   9.382  14.662
 8173W        W74582  33.736  15.546  11.638
 8174W        W74583  13.469  39.130  11.147
 8175W        W74584   9.753   6.845   3.016
 8176W        W74585   9.161  37.553  13.411
 8177W        W74586   8.243   1.269   0.716
 8178W        W74587  43.077  23.787  11.494
 8179W        W74588  11.180   2.228   4.083
 8180W        W74589  21.342  30.068  13.532
 8181W        W74590  40.568  10.493  10.925
 8182W        W74591  41.500  16.272  10.915
 8183W        W74592  31.128  42.024  11.970
 8184W        W74593  37.249   5.669  12.581
 8185W        W74594  10.128  31.113   3.506
 8186W        W74595  17.876  37.502   0.514
 8187W        W74596  44.812  22.146   3.650
 8188W        W74597  19.687  30.603  11.971
 8189W        W74598  14.132   1.521  11.998
 8190W        W74599  25.857  38.789  13.926
 8191W        W74600  24.717  24.466   3.628
 8192W        W74601  12.606  20.485   4.071
 8193W        W74602   5.754   1.883   0.086
 8194W        W74603  17.021   6.120  14.949
 8195W        W74604  23.251  10.656  11.139
 8196W        W74605  15.793  21.653  13.965
 8197W        W74606  25.153   8.291   5.036
 8198W        W74607  23.092   0.822  10.467
 8199W        W74608  33.325  33.102  11.663
 8200W        W74609  30.651  10.111  13.955
 8201W        W74610   2.479   4.246   2.375
 8202W        W74611  23.163  16.206  11.502
 8203W        W74612  37.305  29.627   3.189
 8204W        W74613  32.851  17.876  11.195
 8205W        W74614  11.988  25.488   1.829
 8206W        W74615  33.219   4.663   4.638
 8207W        W74616  11.717  30.435  11.143
 8208W        W74617  25.995  12.539   4.106
 8209W        W74618   7.744  43.328   1.370
 8210W        W74619   4.190  19.148   3.946
 8211W        W74620  10.151  36.357   2.861
 8212W        W74621  26.800  39.813   2.805
 8213W        W74622  24.554  16.178   4.144
 8214W        W74623  34.581   7.569  12.884
 8215W        W74624  33.914  43.457  14.761
 8216W        W74625  32.702  13.325   4.569
 8217W        W74626  14.119   8.534   0.288
 8218W        W74627  30.630  38.899  13.441
 8219W        W74628  27.157  20.764  12.868
 8220W        W74629  31.909  34.627   5.170
 8221W        W74630  38.672  36.679   0.946
 8222W        W74631   1.271  36.621  11.611
 8223W        W74632  13.344  26.476   3.672
 8224W        W74633   7.974  28.059   9.637
 8225W        W74634  39.105  44.032  11.858
 8226W        W74635   0.921  16.333   0.299
 8227W        W74636  43.602  27.143  13.918
 8228W        W74637  43.318   8.132   1.696
 8229W        W74638   7.165  19.207   0.922
 8230W        W74639   5.150  39.518   1.668
 8231W        W74640  28.460   1.444   3.719
 8232W        W74641  43.037  24.735  10.744
 8233W        W74642  41.845  39.971  14.015
 8234W        W74643  31.670  33.885  11.426
 8235W        W74644   4.920  44.012   3.245
 8236W        W74645  26.963  26.588  12.206
 8237W        W74646  16.553  22.667  11.232
 8238W        W74647   7.319  25.932   2.759
 8239W        W74648  12.171   3.934  10.728
 8240W        W74649  18.257  34.411   0.915
 8241W        W74650  23.140  22.719  12.998
 8242W        W74651  29.730  26.877  11.541
 8243W        W74652   6.982  42.053   3.865
 8244W        W74653  42.493  20.144  11.160
 8245W        W74654   5.197   7.417  11.165
 8246W        W74655  21.595   1.565  13.451
 8247W        W74656  34.073   2.179  13.938
 8248W        W74657  11.709  14.370   2.395
 8249W        W74658  26.649   0.871  12.433
 8250W        W74659  12.806  25.693   0.585
 8251W        W74660  19.422  21.530   0.269
 8252W        W74661  32.578  13.326   1.439
 8253W        W74662  13.360  23.210  14.644
 8254W        W74663  21.515  43.962  11.523
 8255W        W74664  35.382  19.867  11.035
 8256W        W74665   1.770   6.187  14.032
 8257W        W74666  17.662  40.006  11.222
 8258W        W74667  32.574   7.748  14.716
 8259W        W74668  44.453  26.062  13.867
 8260W        W74669   0.301  14.880   3.599
 8261W        W74670  33.822  20.675  10.714
 8262W        W74671  11.831   3.507   2.904
 8263W        W74672  10.074  27.249   0.790
 8264W        W74673  42.573   1.465   2.907
 8265W        W74674  22.551  23.102   1.943
 8266W        W74675  33.836  30.427  11.074
 8267W        W74676  40.481  27.274   2.621
 8268W        W74677   0.588   0.521  11.206
 8269W        W74678  23.290  19.630   9.935
 8270W        W74679  44.725  21.250   3.106
 8271W        W74680  22.414  39.014   0.967
 8272W        W74681   5.833  22.324  10.144
 8273W        W74682  28.768  34.909  13.581
 8274W        W74683  37.925   3.889  11.336
 8275W        W74684  22.773  23.934   4.048
 8276W        W74685  12.142  17.062   1.774
 8277W        W74686  19.293  28.522   4.242
 8278W        W74687  27.452   5.878  10.200
 8279W        W74688   9.914  36.390   0.232
 8280W        W74689  24.932  33.158   1.141
 8281W        W74690  33.207  38.037   0.884
 8282W        W74691  43.885  27.085   3.795
 8283W        W74692  27.112  23.778   0.475
 8284W        W74693   4.919  29.108  13.700
 8285W        W74694   4.097  16.372  11.692
 8286W        W74695  27.020  35.917  11.397
 8287W        W74696   3.979   4.885   4.578
 8288W        W74697  38.054  41.740   1.176
 8289W        W74698  12.285  26.448   2.770
 8290W        W74699  26.999   1.450  11.276
 8291W        W74700  18.739  43.810   3.437
 8292W        W74701   9.864  31.492  13.485
 8293W        W74702  25.654  11.286   0.940
 8294W        W74703   4.880  28.132  12.049
 8295W        W74704   9.189  23.538   0.123
 8296W        W74705  12.383  14.433  10.628
 8297W        W74706   9.104  26.677   2.343
 8298W        W74707  11.902  42.548   0.781
 8299W        W74708  31.894  27.445  12.437
 8300W        W74709  18.439   1.249  11.168
 8301W        W74710   2.809   8.942   2.793
 8302W        W74711  34.101   0.309  14.440
 8303W        W74712  29.175  20.171  12.916
 8304W        W74713  39.068  36.505   1.275
 8305W        W74714  42.072  37.504  13.337
 8306W        W74715  13.141  37.916  14.016
 8307W        W74716  37.787   2.526  10.768
 8308W        W74717  37.113  11.818  14.942
 8309W        W74718  29.944  27.935  10.736
 8310W        W74719  32.132  32.962   1.212
 8311W        W74720  15.817  42.020   1.390
 8312W        W74721  43.155   1.329  12.257
 8313W        W74722  15.259  26.512   4.984
 8314W        W74723  10.306  27.260   3.503
 8315W        W74724  26.374  22.981  13.821
 8316W        W74725   9.896  20.699  12.657
 8317W        W74726  24.320   8.926   1.384
 8318W        W74727  23.154  21.520  13.288
 8319W        W74728  43.394  44.856  14.381
 8320W        W74729  33.022  21.788  12.385
 8321W        W74730  42.713  40.043  10.174
 8322W        W74731  12.254   4.511  14.957
 8323W        W74732  13.286  15.230  12.080
 8324W        W74733  34.990   7.818   1.037
 8325W        W74734  33.910   1.882   3.299
 8326W        W74735  37.095  17.797  14.274
 8327W        W74736  32.583  39.021  10.154
 8328W        W74737   9.231  31.056   4.488
 8329W        W74738  13.439   4.091   4.908
 8330W        W74739  17.994  22.557  12.615
 8331W        W74740  31.564  42.768  11.207
 8332W        W74741  40.409  30.665  14.401
 8333W        W74742   9.830  17.528   0.962
 8334W        W74743  14.865  27.000   1.898
 8335W        W74744   4.369  12.240   2.568
 8336W        W74745  28.128   7.556   0.929
 8337W        W74746  28.449  39.583   3.575
 8338W        W74747  42.649  24.667  14.863
 8339W        W74748  27.661  32.918   3.338
 8340W        W74749  32.036  11.281   3.931
 8341W        W74750  24.323   3.045   4.764
 8342W        W74751  17.120  34.740   0.018
 8343W        W74752  19.723   6.366   1.196
 8344W        W74753  29.534  25.522   2.065
 8345W        W74754   4.694  23.352   4.519
 8346W        W74755   2.198  44.872   1.431
 8347W        W74756  24.976  18.979   0.477
 8348W        W74757  19.107   5.414  13.003
 8349W        W74758  15.556  18.690   0.933
 8350W        W74759  28.120   0.227   1.281
 8351W        W74760  28.549  30.276   1.476
 8352W        W74761  13.445  37.477  14.244
 8353W        W74762  13.474  25.634   1.983
 8354W        W74763  30.534  23.516  11.202
 8355W        W74764  26.969   4.341  10.659
 8356W        W74765   4.798  37.146  10.942
 8357W        W74766   7.604  38.198  13.113
 8358W        W74767  24.047  34.502  14.959
 8359W        W74768  15.755  19.372   3.912
 8360W        W74769  32.099   0.987  11.627
 8361W        W74770  14.096   4.500  11.861
 8362W        W74771  43.744   2.723   2.266
 8363W        W74772  36.900  19.175  14.407
 8364W        W74773   7.342  38.773   1.908
 8365W        W74774   4.271  19.959  13.466
 8366W        W74775  43.783  19.827  11.792
 8367W        W74776  26.710  24.523   1.074
 8368W        W74777  19.594  10.931  11.972
 8369W        W74778  37.416   6.474  13.904
 8370W        W74779  17.260  37.298  14.893
 8371W        W74780  40.994   1.291  14.047
 8372W        W74781  21.099  26.688   0.275
 8373W        W74782  31.435   3.738  12.459
 8374W        W74783  14.108  27.120  12.885
 8375W        W74784   8.639  22.890  12.083
 8376W        W74785  42.543  17.227   4.008
 8377W        W74786   7.365   5.282   3.821
 8378W        W74787  41.239  12.226  14.021
 8379W        W74788   1.255  28.809  14.036
 8380W        W74789  13.837   7.220  11.243
 8381W        W74790  28.513  20.233   1.793
 8382W        W74791  26.722  19.012   1.155
 8383W        W74792   5.601   2.938   3.660
 8384W        W74793  22.005   2.867   1.967
 8385W        W74794  41.403   1.521  14.895
 8386W        W74795  15.904  37.907  10.278
 8387W        W74796  24.654   3.215  12.950
 8388W        W74797  12.204  23.149   9.868
 8389W        W74798   9.352  21.633  12.299
 8390W        W74799  35.397   6.419   4.405
 8391W        W74800   1.291   0.819   0.759
 8392W        W74801  43.264  11.859   1.240
 8393W        W74802  34.531  27.238   2.731
 8394W        W74803   9.962   5.255  14.972
 8395W        W74804  30.921  35.818  13.630
 8396W        W74805   5.429  25.319   2.733
 8397W        W74806  15.842  26.975  10.246
 8398W        W74807  32.718  33.596  14.321
 8399W        W74808  10.235   0.535   4.000
 8400W        W74809  25.010  29.914   2.787
 8401W        W74810  18.021  29.915   0.447
 8402W        W74811  23.358  14.878   1.936
 8403W        W74812  33.810  18.502  12.981
 8404W        W74813  40.354  34.585  14.474
 8405W        W74814  18.288  23.559  14.895
 8406W        W74815   1.458   3.651   4.088
 8407W        W74816  35.008  29.725   0.260
 8408W        W74817   6.534  28.228   0.589
 8409W        W74818   5.307  14.648   1.393
 8410W        W74819  19.450  14.722  11.802
 8411W        W74820  23.801  17.837   2.228
 8412W        W74821   5.278  28.073   0.026
 8413W        W74822  25.607  14.350   0.737
 8414W        W74823  28.405  41.422   4.544
 8415W        W74824  41.267  17.287   3.593
 8416W        W74825  44.251  16.674  11.594
 8417W        W74826  25.682  12.631  12.462
 8418W        W74827  40.132  11.820   1.577
 8419W        W74828  43.077   7.655   5.492
 8420W        W74829   7.476  36.323   2.736
 8421W        W74830   3.882  20.156   2.450
 8422W        W74831   4.954   7.298   3.279
 8423W        W74832   6.747  42.596  10.353
 8424W        W74833  31.878  13.298   3.580
 8425W        W74834  13.654  14.518  11.986
 8426W        W74835  27.018  42.917   0.865
 8427W        W74836  37.665  27.532  13.443
 8428W        W74837  24.089  28.903  13.154
 8429W        W74838  18.245  16.118   4.561
 8430W        W74839  27.868   8.864   0.149
 8431W        W74840  35.008  18.441  14.385
 8432W        W74841  23.146  37.461  12.915
 8433W        W74842   7.489  31.879  14.033
 8434W        W74843  24.513  36.554  11.127
 8435W        W74844  34.048   5.894  13.117
 8436W        W74845  36.174   3.022   4.124
 8437W        W74846   7.507  12.495  11.957
 8438W        W74847  38.839   1.309  14.771
 8439W        W74848  19.603  18.318  14.782
 8440W        W74849  32.492   7.249  14.485
 8441W        W74850  14.621  18.748   4.445
 8442W        W74851   1.807  26.483  11.642
 8443W        W74852  34.868  29.830   2.330
 8444W        W74853   0.015  36.845   1.429
 8445W        W74854  27.599  16.642   3.263
 8446W        W74855  39.113  28.472  10.420
 8447W        W74856  37.096  24.645   2.620
 8448W        W74857  34.384   5.658   3.703
 8449W        W74858  27.980  44.943  13.431
 8450W        W74859  37.466  24.433  14.531
 8451W        W74860   0.415   8.906  12.550
 8452W        W74861  27.112  26.210  11.445
 8453W        W74862  40.998  25.023   4.197
 8454W        W74863   4.693  22.581   0.473
 8455W        W74864  30.668  28.221   4.528
 8456W        W74865   1.765  28.890  11.569
 8457W        W74866  12.674   6.478  11.700
 8458W        W74867  28.151   7.022  13.611
 8459W        W74868  34.866  21.800  11.122
 8460W        W74869  42.344  43.916  14.992
 8461W        W74870   1.650  40.382  12.514
 8462W        W74871  30.181  26.783  11.083
 8463W        W74872  17.181   9.450  10.403
 8464W        W74873  16.151  25.733  13.922
 8465W        W74874  13.733  12.856   4.813
 8466W        W74875  35.805  12.255  12.665
 8467W        W74876  41.899   4.086   1.836
 8468W        W74877  26.177   2.876   1.065
 8469W        W74878  34.035  37.949   2.270
 8470W        W74879  14.610  10.701   1.618
 8471W        W74880   7.188  39.251   0.546
 8472W        W74881  42.448  12.602  13.926
 8473W        W74882  36.923  21.287  14.340
 8474W        W74883  32.629  38.274  11.092
 8475W        W74884   0.222   8.571  13.918
 8476W        W74885  20.635  37.193  14.705
 8477W        W74886  44.515  34.185   3.112
 8478W        W74887  11.129  29.409  14.788
 8479W        W74888  11.879  17.627   3.937
 8480W        W74889   8.310   4.461  11.131
 8481W        W74890  30.318  29.147   0.751
 8482W        W74891  11.835   8.248  14.988
 8483W        W74892  10.955  29.194  14.349
 8484W        W74893  25.089  23.150   5.440
 8485W        W74894  30.497  42.067   3.187
 8486W        W74895  34.881  20.985   3.730
 8487W        W74896  24.840  29.061  11.141
 8488W        W74897  34.651  11.600  10.619
 8489W        W74898  31.701  44.000  13.409
 8490W        W74899  27.387  41.510   3.822
 8491W        W74900  26.164  10.760   1.419
 8492W        W74901  12.233  28.157  12.725
 8493W        W74902  31.515   8.556  12.870
 8494W        W74903  43.459  35.246   3.326
 8495W        W74904  21.278  33.143   0.976
 8496W        W74905  34.515  25.813  14.026
 8497W        W74906  37.908  11.722   3.234
 8498W        W74907   7.021  34.922  11.115
 8499W        W74908  34.328  10.252   1.269
 8500W        W74909   4.908  33.120  13.504
 8501W        W74910  20.743  44.018  13.015
 8502W        W74911  11.684   7.191   3.125
 8503W        W74912  16.365  34.863  13.532
 8504W        W74913  13.194   2.930   0.035
 8505W        W74914  14.836  23.126  13.893
 8506W        W74915  13.858  40.329  13.847
 8507W        W74916  41.945  18.305  14.230
 8508W        W74917  20.952  27.000   4.285
 8509W        W74918  21.155  11.767   2.157
 8510W        W74919  10.255  20.053  14.575
 8511W        W74920   7.813   5.731  12.284
 8512W        W74921  34.450  42.538  13.742
 8513W        W74922  39.107  23.798  11.963
 8514W        W74923  14.903  29.482   1.329
 8515W        W74924  25.681  19.953  11.525
 8516W        W74925  10.570  28.123   3.637
 8517W        W74926  38.488   2.815  14.108
 8518W        W74927   8.191  33.622   1.336
 8519W        W74928  40.261   9.221   4.304
 8520W        W74929  17.183  33.242   4.183
 8521W        W74930   1.792  29.410  12.431
 8522W        W74931  28.406  37.275  13.053
 8523W        W74932  12.403  41.612  11.083
 8524W        W74933  36.091  36.933  11.658
 8525W        W74934  28.372  11.657   2.435
 8526W        W74935  28.055  23.062  14.535
 8527W        W74936  33.982  28.526   2.250
 8528W        W74937  13.189  27.191  13.385
 8529W        W74938  26.091  19.037  12.224
 8530W        W74939  10.379  39.732  14.840
 8531W        W74940   6.710  34.488  11.120
 8532W        W74941   7.462  39.070  11.166
 8533W        W74942   7.329  41.893  12.022
 8534W        W74943  27.682  17.046   4.365
 8535W        W74944  38.413  17.145   0.328
 8536W        W74945  33.598  29.236   3.630
 8537W        W74946  11.821   2.897   1.285
 8538W        W74947  31.923  19.789   0.979
 8539W        W74948  29.591   2.176  11.492
 8540W        W74949  40.245   4.755  11.703
 8541W        W74950  42.902   8.785  12.584
 8542W        W74951  33.115  39.042  14.516
 8543W        W74952   5.907   3.651   2.810
 8544W        W74953  37.124   8.818   2.959
 8545W        W74954  43.949  27.085   2.781
 8546W        W74955  15.736   6.614  14.593
 8547W        W74956   4.393  35.620   1.996
 8548W        W74957  29.759  30.615   4.042
 8549W        W74958  22.229  26.503   2.716
 8550W        W74959  30.398  39.298   0.775
 8551W        W74960   2.890  27.362  14.793
 8552W        W74961   7.609  40.994  11.121
 8553W        W74962  22.596  12.884  10.838
 8554W        W74963  28.981  17.598   1.952
 8555W        W74964  26.493   4.644  11.523
 8556W        W74965  31.300  20.241   0.236
 8557W        W74966   9.582  31.171  12.040
 8558W        W74967  15.184  38.333  13.010
 8559W        W74968  27.563  31.891  11.579
 8560W        W74969  21.643  13.835   2.168
 8561W        W74970  30.486  12.776   2.363
 8562W        W74971  20.079   8.677   3.420
 8563W        W74972  35.494   9.163   2.888
 8564W        W74973   8.729  35.830  13.854
 8565W        W74974   8.066  23.724  12.884
 8566W        W74975  39.449  25.557  11.444
 8567W        W74976  40.481   1.270  13.874
 8568W        W74977  41.676   0.312  13.467
 8569W        W74978  32.140  33.190   3.785
 8570W        W74979  28.710  39.958   4.020
 8571W        W74980  26.151  36.492  14.052
 8572W        W74981   6.986  28.725  10.197
 8573W        W74982  38.914   6.383   0.662
 8574W        W74983  26.639   2.069   4.216
 8575W        W74984   2.231  30.887   0.757
 8576W        W74985  26.932   5.663   3.611
 8577W        W74986  37.085   9.697  12.544
 8578W        W74987  14.901  36.918   2.745
 8579W        W74988  19.822  42.917  13.079
 8580W        W74989  33.091  33.284  12.978
 8581W        W74990   7.456   9.363  12.872
 8582W        W74991   3.694  44.521   0.034
 8583W        W74992  11.459  34.464  12.053
 8584W        W74993   0.688   6.204  14.002
 8585W        W74994   5.177   3.056   1.484
 8586W        W74995  38.155  31.040   0.252
 8587W        W74996   0.972  34.387  14.259
 8588W        W74997  40.740  27.678   2.816
 8589W        W74998  12.218  22.093   4.377
 8590W        W74999  27.239  35.008   2.382
 8591W        W75000  27.986  10.592  13.388
 8592W        W75001  20.998  17.637   2.691
 8593W        W75002  33.133  35.411   2.635
 8594W        W75003  31.351   6.901  13.630
 8595W        W75004  27.848   2.853  13.201
 8596W        W75005   9.425  11.057   3.422
 8597W        W75006  33.192  32.303   2.877
 8598W        W75007   1.495  42.406   2.770
 8599W        W75008  35.011  13.510   1.986
 8600W        W75009  25.635  18.968   2.912
 8601W        W75010  28.731   7.310  13.876
 8602W        W75011  41.780  33.816  11.448
 8603W        W75012   7.877  32.101  13.010
 8604W        W75013  29.491  12.602  12.126
 8605W        W75014   3.747  44.453  13.646
 8606W        W75015   2.410  40.719  11.218
 8607W        W75016  30.109  11.009   3.204
 8608W        W75017  35.920  23.173  10.998
 8609W        W75018  18.260  41.732  12.226
 8610W        W75019  33.945  37.612   0.251
 8611W        W75020   0.507   5.233   0.492
 8612W        W75021  42.960   9.739  14.330
 8613W        W75022  34.546   8.121   1.574
 8614W        W75023  32.584   5.694   0.793
 8615W        W75024  33.562  35.865  12.029
 8616W        W75025  16.461   9.330   1.771
 8617W        W75026   2.813   2.934  11.698
 8618W        W75027   6.654  32.759   4.057
 8619W        W75028  28.717  30.706  13.336
 8620W        W75029  18.770  21.129   0.354
 8621W        W75030  25.004  32.991   4.611
 8622W        W75031  25.686   4.756   4.648
 8623W        W75032  16.410  23.558  11.582
 8624W        W75033   1.970  23.628   4.334
 8625W        W75034   2.442  16.249  14.404
 8626W        W75035  35.468   1.047  12.765
 8627W        W75036  27.672  38.553  11.573
 8628W        W75037  29.959  39.652   0.039
 8629W        W75038   4.679  29.955   0.799
 8630W        W75039  38.379  31.435  12.058
 8631W        W75040  22.669  41.993  12.580
 8632W        W75041  15.973  31.043  14.523
 8633W        W75042  34.436  42.992   0.308
 8634W        W75043  33.258   6.178   3.816
 8635W        W75044  22.004  10.118  13.004
 8636W        W75045  18.707  13.800   4.523
 8637W        W75046  32.573  31.378   0.568
 8638W        W75047  19.684   5.905   3.319
 8639W        W75048  43.914  30.642   3.202
 8640W        W75049   5.845  26.725  14.413
 8641W        W75050  19.598  32.916  10.626
 8642W        W75051  30.113  26.858   3.683
 8643W        W75052   6.943  18.774   1.140
 8644W        W75053  20.142  13.887   5.095
 8645W        W75054  23.980  36.029  12.151
 8646W        W75055   2.438  17.969   4.060
 8647W        W75056  41.322  12.211   1.514
 8648W        W75057   7.801  18.170   0.401
 8649W        W75058  22.782  23.082  12.985
 8650W        W75059  31.892  14.849  12.120
 8651W        W75060  40.579  30.479  13.954
 8652W        W75061   3.143  17.150   1.824
 8653W        W75062  15.727  30.981   1.630
 8654W        W75063  14.556   5.423  13.102
 8655W        W75064  28.515  29.471   1.877
 8656W        W75065  33.020  29.428   2.459
 8657W        W75066  16.357  27.938   2.263
 8658W        W75067  43.766  10.206   1.457
 8659W        W75068  17.542  44.995  12.580
 8660W        W75069  29.396  11.756   4.314
 8661W        W75070  35.624  21.728   2.284
 8662W        W75071   4.472  12.705   0.853
 8663W        W75072   4.128  27.113  10.211
 8664W        W75073  22.099  18.948   3.664
 8665W        W75074  27.093   5.204  12.450
 8666W        W75075   2.845  15.319   0.307
 8667W        W75076  16.188   3.284  14.484
 8668W        W75077  24.131  23.471  11.555
 8669W        W75078   6.651   7.953  13.456
 8670W        W75079  33.123   3.264  11.250
 8671W        W75080   8.900   2.868   4.157
 8672W        W75081  10.328   8.647  14.090
 8673W        W75082  17.121  12.179   2.712
 8674W        W75083   2.995  35.577   0.841
 8675W        W75084  24.477  40.775   0.325
 8676W        W75085   1.282  20.289   3.244
 8677W        W75086   6.382  42.830  12.373
 8678W        W75087  10.806  34.470   3.795
 8679W        W75088  33.730   6.410   2.029
 8680W        W75089  17.600  38.492   2.245
 8681W        W75090   3.457  23.213  13.700
 8682W        W75091   3.483  38.278   0.737
 8683W        W75092  31.936  16.618   2.277
 8684W        W75093  43.823  34.355   1.537
 8685W        W75094  37.008  30.001  12.235
 8686W        W75095  15.061  31.823   2.402
 8687W        W75096   8.342  12.220  11.175
 8688W        W75097  29.665  32.126  11.239
 8689W        W75098  43.812  23.490  10.443
 8690W        W75099  18.109  29.503  14.699
 8691W        W75100   3.253  28.237   1.367
 8692W        W75101  27.939  25.170  12.056
 8693W        W75102  12.949  15.584  10.387
 8694W        W75103  42.908  17.448  11.526
 8695W        W75104  16.136  20.584  13.936
 8696W        W75105   7.368   1.912  12.496
 8697W        W75106  27.481   6.695  14.021
 8698W        W75107  28.787  38.351   1.868
 8699W        W75108  23.082  25.655   4.600
 8700W        W75109  21.793  32.086  13.447
 8701W        W75110  32.955   4.278  11.492
 8702W        W75111   6.741  42.045   2.865
 8703W        W75112  13.989  20.538   0.390
 8704W        W75113  21.655  28.025  14.054
 8705W        W75114   9.213   7.428  12.548
 8706W        W75115  32.062  26.034   3.207
 8707W        W75116  23.745  40.608   2.602
 8708W        W75117  37.263  39.866   2.749
 8709W        W75118  19.588   6.312   2.982
 8710W        W75119  44.495   9.212   0.935
 8711W        W75120   6.353  30.913  11.686
 8712W        W75121  42.710  36.130   3.568
 8713W        W75122   3.075  13.857  11.016
 8714W        W75123  41.375   1.763   1.638
 8715W        W75124  29.490  35.846  10.664
 8716W        W75125  31.566  26.141   3.229
 8717W        W75126  26.488  29.637  13.058
 8718W        W75127  15.515  41.240  13.890
 8719W        W75128  12.130  24.211   2.305
 8720W        W75129  22.930  35.096   1.708
 8721W        W75130  27.657  30.214   1.270
 8722W        W75131  13.865  10.843  12.965
 8723W        W75132   6.763  19.332  12.947
 8724W        W75133  42.032  11.832   1.739
 8725W        W75134  30.681   4.949  13.103
 8726W        W75135   8.709  44.146  11.548
 8727W        W75136  30.397  36.064  12.325
 8728W        W75137  38.921  34.529   1.239
 8729W        W75138  44.486   7.431  12.937
 8730W        W75139  34.062  32.139   1.233
 8731W        W75140   5.557   4.526   1.390
 8732W        W75141  18.849  30.847  11.605
 8733W        W75142  18.300  32.024  11.699
 8734W        W75143  12.027  11.757  10.669
 8735W        W75144   2.247  44.265  14.439
 8736W        W75145  20.129   5.906   0.556
 8737W        W75146  42.422  11.096  12.859
 8738W        W75147  42.198   0.933  11.643
 8739W        W75148  17.026   3.891   1.333
 8740W        W75149  27.455  40.912  14.716
 8741W        W75150  41.448   5.428  14.413
 8742W        W75151  38.905  39.510   2.408
 8743W        W75152  17.764  19.787  11.104
 8744W        W75153   1.364  33.919   2.995
 8745W        W75154   4.438   5.595  14.254
 8746W        W75155  22.728   5.454  12.630
 8747W        W75156  41.801  34.204  12.409
 8748W        W75157  14.340   1.950   3.699
 8749W        W75158   5.652   5.890   3.292
 8750W        W75159  18.244  32.352   3.694
 8751W        W75160  35.507  11.511   0.393
 8752W        W75161  15.159  16.037   4.916
 8753W        W75162   0.373  29.258  13.072
 8754W        W75163  43.576  16.809   0.249
 8755W        W75164  12.892  31.105  14.814
 8756W        W75165  14.823   1.246  10.107
 8757W        W75166  25.244   2.172   4.357
 8758W        W75167  35.065  44.172  10.573
 8759W        W75168   7.623   5.776  10.643
 8760W        W75169  15.632  35.903   2.674
 8761W        W75170  26.503  39.973   4.357
 8762W        W75171  30.529   9.899   1.452
 8763W        W75172  38.507  41.762  12.019
 8764W        W75173  37.646  30.903  12.184
 8765W        W75174  39.084   2.952   3.786
 8766W        W75175  40.944  12.208  14.793
 8767W        W75176  39.053  27.177  12.306
 8768W        W75177  38.614   3.996   2.183
 8769W        W75178   0.041  34.231   1.739
 8770W        W75179   9.623  43.475   9.827
 8771W        W75180  43.786   3.009  10.162
 8772W        W75181  16.351  39.487  11.649
 8773W        W75182  42.992  41.349   1.710
 8774W        W75183  14.775  21.216   2.777
 8775W        W75184  43.900   2.905  11.577
 8776W        W75185  24.173  11.342  14.982
 8777W        W75186  22.155   8.368  11.718
 8778W        W75187  42.394  41.734  14.930
 8779W        W75188  15.053  29.227   1.774
 8780W        W75189   8.739   5.352  11.976
 8781W        W75190  29.967  39.644  13.419
 8782W        W75191  21.150  26.677  12.097
 8783W        W75192   5.016  34.364  12.444
 8784W        W75193  44.285  37.338  11.006
 8785W        W75194   4.793  26.592   0.688
 8786W        W75195   1.856  19.651  14.864
 8787W        W75196  21.560  38.596   0.483
 8788W        W75197   8.465   2.829  11.440
 8789W        W75198   4.432  11.356   2.753
 8790W        W75199  40.508  15.645  11.950
 8791W        W75200   4.248  36.268  13.350
 8792W        W75201   7.414  16.339  13.391
 8793W        W75202   0.537  29.185   3.154
 8794W        W75203  31.837  26.346   2.811
 8795W        W75204   9.095   9.319  11.485
 8796W        W75205   0.320   1.904  13.972
 8797W        W75206  15.570   5.378  14.852
 8798W        W75207  29.206  22.663   2.335
 8799W        W75208   3.325  43.291  11.988
 8800W        W75209  18.880  36.328   1.324
 8801W        W75210   4.194  30.599   1.433
 8802W        W75211   3.164  27.665  12.136
 8803W        W75212  13.324  21.011  11.653
 8804W        W75213   5.402  17.838  12.805
 8805W        W75214  20.600  34.124  12.860
 8806W        W75215  28.448  33.811  14.056
 8807W        W75216  30.245  38.494   1.892
 8808W        W75217   1.836  37.915   0.329
 8809W        W75218  32.616  24.550  10.880
 8810W        W75219  16.255  11.261   4.702
 8811W        W75220  44.309  14.561   3.883
 8812W        W75221   0.038   3.209  14.967
 8813W        W75222  40.780   7.598  11.304
 8814W        W75223   8.849  23.918  14.604
 8815W        W75224  21.170   4.178  13.452
 8816W        W75225  12.894  24.423  11.534
 8817W        W75226  42.522  23.920   0.286
 8818W        W75227  13.067  11.257  13.142
 8819W        W75228  22.880   7.821   1.123
 8820W        W75229  43.202  37.439  10.749
 8821W        W75230   7.824  27.175  13.540
 8822W        W75231  18.000  29.165  13.834
 8823W        W75232  43.222  31.509  13.113
 8824W        W75233  11.241  16.992   4.828
 8825W        W75234   6.957  10.278  14.532
 8826W        W75235  34.933  36.620  10.471
 8827W        W75236   8.440  43.255  12.310
 8828W        W75237  19.664  39.284   2.925
 8829W        W75238  17.253  42.799  11.879
 8830W        W75239  41.750  32.942   3.239
 8831W        W75240  44.018  14.023   9.918
 8832W        W75241   6.079  22.459  14.960
 8833W        W75242  27.209  32.440   0.430
 8834W        W75243  16.115  14.767  13.687
 8835W        W75244  39.329  44.017  11.210
 8836W        W75245  13.531   4.301   4.043
 8837W        W75246   5.445  22.574   3.662
 8838W        W75247  36.107  42.000   1.890
 8839W        W75248  21.669   8.831   3.052
 8840W        W75249   3.451  19.343  10.433
 8841W        W75250  29.379  19.681   0.690
 8842W        W75251   5.367   3.850  13.535
 8843W        W75252   3.808   3.982  10.852
 8844W        W75253  30.842  20.674  13.106
 8845W        W75254  11.911  13.279   1.937
 8846W        W75255  33.817   9.910  11.452
 8847W        W75256  13.533  33.380   4.632
 8848W        W75257  14.760  38.063  12.437
 8849W        W75258  18.184  12.102   1.402
 8850W        W75259  15.641  29.468  14.514
 8851W        W75260  22.681  17.927   0.315
 8852W        W75261  16.218  23.978  10.704
 8853W        W75262  41.808  15.969   3.749
 8854W        W75263  39.712   2.377  11.605
 8855W        W75264  25.546  23.218   1.328
 8856W        W75265  18.054  32.043  13.544
 8857W        W75266   3.230  11.725  12.279
 8858W        W75267  36.936   8.000  14.447
 8859W        W75268  24.332  40.460  11.107
 8860W        W75269  41.572  22.045   1.295
 8861W        W75270  19.729  29.849   0.880
 8862W        W75271  39.594  40.034   1.333
 8863W        W75272   0.729  17.760  13.078
 8864W        W75273   1.417   3.631   1.287
 8865W        W75274   1.745  14.101   0.032
 8866W        W75275  13.615  23.222   0.462
 8867W        W75276  24.198  29.166  13.999
 8868W        W75277  27.480   3.502   9.948
 8869W        W75278  26.023  27.448   5.083
 8870W        W75279  16.391  43.302  12.670
 8871W        W75280  22.568  26.054   4.171
 8872W        W75281   7.241  15.530   3.326
 8873W        W75282  32.605  29.262   2.768
 8874W        W75283  31.517  16.367  10.436
 8875W        W75284  17.695  13.994   1.836
 8876W        W75285   8.592  20.239   2.339
 8877W        W75286   2.566   8.286  11.696
 8878W        W75287  18.272  17.735   3.835
 8879W        W75288  12.023   2.754   1.807
 8880W        W75289  40.276  41.937   3.253
 8881W        W75290  23.196   0.365  11.801
 8882W        W75291  23.884  26.504   4.050
 8883W        W75292  38.508  14.673  14.965
 8884W        W75293  30.983  20.015   4.030
 8885W        W75294  10.342  37.909  13.325
 8886W        W75295  23.769   5.699   3.305
 8887W        W75296  23.642   1.853  13.278
 8888W        W75297  31.561  21.965   3.150
 8889W        W75298  25.659   1.875  13.812
 8890W        W75299  29.894   5.771   1.747
 8891W        W75300  18.286  24.493  10.967
 8892W        W75301   1.952  34.452   0.004
 8893W        W75302  38.574  24.370   1.915
 8894W        W75303   1.982  39.779   0.042
 8895W        W75304  11.165  40.830  14.873
 8896W        W75305  20.689  44.813  13.767
 8897W        W75306  31.623  13.670  14.815
 8898W        W75307  33.855  33.835   2.513
 8899W        W75308  21.482  21.114  13.190
 8900W        W75309  10.065  16.298   3.154
 8901W        W75310   0.796  25.673   4.820
 8902W        W75311   2.680  16.801  13.550
 8903W        W75312  26.980  44.346  13.811
 8904W        W75313   1.321   4.018  14.900
 8905W        W75314   1.394  36.616   0.454
 8906W        W75315  25.727   8.875  14.385
 8907W        W75316  21.600  39.502   4.794
 8908W        W75317   4.599  12.105   0.892
 8909W        W75318  24.667  15.178   3.103
 8910W        W75319  38.511  23.951   0.022
 8911W        W75320  15.163  41.330  12.922
 8912W        W75321  15.281   9.157   2.375
 8913W        W75322   6.932  29.237   0.789
 8914W        W75323   1.427  11.597   1.403
 8915W        W75324   4.663  34.034  13.394
 8916W        W75325   3.585  42.579   4.148
 8917W        W75326   6.774  38.742  14.146
 8918W        W75327   3.296   5.215   4.810
 8919W        W75328  21.429   7.595   1.815
 8920W        W75329  14.101  12.154   3.155
 8921W        W75330   1.856  39.140  14.262
 8922W        W75331  26.493  27.473  13.898
 8923W        W75332   3.708  26.797   3.265
 8924W        W75333  21.398  23.634  13.846
 8925W        W75334  17.146  32.483   3.152
 8926W        W75335  30.149  25.030   5.082
 8927W        W75336  37.530  10.420   0.699
 8928W        W75337  39.782  29.901   1.253
 8929W        W75338  39.049  42.830   1.310
 8930W        W75339  18.126  31.858   3.749
 8931W        W75340  24.637  21.868  12.529
 8932W        W75341  23.749  36.934  13.958
 8933W        W75342   0.227  25.686  11.155
 8934W        W75343  29.252  18.408   0.823
 8935W        W75344  20.029  26.062   2.886
 8936W        W75345  29.944  38.741  12.873
 8937W        W75346  16.323  41.384  13.351
 8938W        W75347   7.129  18.808  11.185
 8939W        W75348  13.371  20.202   1.712
 8940W        W75349   3.959  19.360   0.208
 8941W        W75350  15.565   8.765   4.386
 8942W        W75351  40.914   2.611   4.956
 8943W        W75352  14.626   9.791   1.365
 8944W        W75353  42.339   0.070   1.977
 8945W        W75354  21.860  42.518   3.643
 8946W        W75355  43.480  12.368  10.974
 8947W        W75356  33.790  43.509  11.207
 8948W        W75357  31.309  26.655  12.042
 8949W        W75358   0.235  16.870  11.652
 8950W        W75359  19.809  34.129  13.386
 8951W        W75360  23.648   9.835  13.566
 8952W        W75361  23.183   3.391  14.614
 8953W        W75362   4.220  28.823  11.766
 8954W        W75363  33.406  32.432  11.924
 8955W        W75364  16.854  41.361  12.534
 8956W        W75365   3.339  14.769   4.544
 8957W        W75366  22.635  35.384  10.766
 8958W        W75367  26.615  33.034  10.089
 8959W        W75368  13.225  23.589   1.366
 8960W        W75369  25.564   4.676  11.201
 8961W        W75370  25.495  15.572   3.207
 8962W        W75371  38.988   3.910   2.965
 8963W        W75372  34.939  12.322  11.787
 8964W        W75373   8.783   6.876   0.850
 8965W        W75374   8.753  37.223   4.604
 8966W        W75375  29.775  43.959  12.515
 8967W        W75376  43.351  11.177  13.519
 8968W        W75377  14.237   9.686   1.729
 8969W        W75378  10.969   3.450   4.093
 8970W        W75379  42.703  33.881   3.283
 8971W        W75380  23.301  37.987  11.272
 8972W        W75381  34.907  26.936   1.706
 8973W        W75382  18.774  10.893   1.012
 8974W        W75383  22.117  31.697  13.408
 8975W        W75384  36.067   8.032  12.031
 8976W        W75385  19.384   0.317   4.984
 8977W        W75386  32.688  11.161  10.732
 8978W        W75387   5.917  32.118   3.813
 8979W        W75388  13.291  20.926   9.882
 8980W        W75389  37.824  25.177   0.596
 8981W        W75390  26.515  22.486   1.876
 8982W        W75391  21.360   9.860   1.469
 8983W        W75392  32.575  17.164   3.975
 8984W        W75393   6.853  19.631  11.534
 8985W        W75394   2.701  39.604  11.615
 8986W        W75395  25.641   0.041  13.773
 8987W        W75396  39.863  34.615  11.550
 8988W        W75397  29.012  26.244  12.150
 8989W        W75398  32.882  15.729  13.646
 8990W        W75399  22.404   4.663   9.929
 8991W        W75400  36.213  24.831   3.866
 8992W        W75401  42.830  27.517  13.730
 8993W        W75402  28.465  18.260   4.667
 8994W        W75403  34.383   2.068   1.240
 8995W        W75404  13.333   3.430   3.626
 8996W        W75405  32.435  28.501  12.516
 8997W        W75406  19.354  42.420  11.263
 8998W        W75407  41.802  27.372   1.760
 8999W        W75408  10.409   2.089   2.414
 9000W        W75409  19.720  29.607  10.638
 9001W        W75410   9.054   0.036   3.712
 9002W        W75411  20.618  44.261  12.581
 9003W        W75412  19.484  35.523  13.409
 9004W        W75413  38.950  18.608   4.615
 9005W        W75414  13.826  17.334   1.185
 9006W        W75415  14.489  35.460   0.500
 9007W        W75416  23.801  12.282  12.489
 9008W        W75417  13.255  10.352  11.601
 9009W        W75418  44.357  10.627  13.910
 9010W        W75419   9.526  22.701   3.749
 9011W        W75420   0.670  38.105   1.333
 9012W        W75421  31.591  39.592   5.007
 9013W        W75422   8.773  38.817  10.233
 9014W        W75423  39.519  30.999  11.636
 9015W        W75424  35.650  13.852   0.709
 9016W        W75425   0.246   7.929   2.973
 9017W        W75426  33.410  28.976  10.217
 9018W        W75427  44.583  16.546   0.339
 9019W        W75428   6.590  15.126   2.679
 9020W        W75429  11.755  14.322   3.420
 9021W        W75430  39.054   8.742   3.024
 9022W        W75431  26.190  19.729  14.541
 9023W        W75432  16.959  13.824   0.718
 9024W        W75433  43.248  41.427  13.426
 9025W        W75434  14.590  27.934  13.906
 9026W        W75435  35.207  32.968  11.612
 9027W        W75436  22.725  34.104   1.499
 9028W        W75437  20.289  25.965   4.546
 9029W        W75438  17.142  29.590  13.065
 9030W        W75439  33.063   8.227  14.841
 9031W        W75440  29.733  41.458   4.556
 9032W        W75441   4.375  28.140  10.622
 9033W        W75442   8.912  25.483  13.868
 9034W        W75443   3.347   2.661   3.757
 9035W        W75444  20.857  40.835  11.019
 9036W        W75445  16.825  10.301   2.398
 9037W        W75446  11.191  34.361   4.462
 9038W        W75447   0.594  38.439   0.235
 9039W        W75448  30.800  13.258  13.017
 9040W        W75449  13.028   2.835  11.651
 9041W        W75450   2.211  26.180  11.634
 9042W        W75451   3.930   1.907  10.809
 9043W        W75452  23.183  14.122   2.205
 9044W        W75453  41.358   7.471   1.412
 9045W        W75454  10.276  31.766   0.936
 9046W        W75455  18.277  38.415  11.111
 9047W        W75456  41.959  25.657   4.666
 9048W        W75457  11.593  42.856  12.500
 9049W        W75458  20.503  15.748   2.240
 9050W        W75459  31.549  43.228   4.655
 9051W        W75460  21.157   0.507  14.112
 9052W        W75461  25.480  18.197   0.442
 9053W        W75462  26.927  30.233  11.633
 9054W        W75463  10.467  24.234   4.623
 9055W        W75464  38.050  31.952   2.271
 9056W        W75465  40.040  34.344  11.146
 9057W        W75466  22.171  22.747   0.489
 9058W        W75467  33.629   2.204  11.692
 9059W        W75468  22.524  11.105  11.957
 9060W        W75469  12.242  36.940   3.585
 9061W        W75470  30.316  23.499  10.747
 9062W        W75471  24.730  16.574  12.107
 9063W        W75472  19.571  38.268   4.132
 9064W        W75473  20.206  12.365  14.223
 9065W        W75474  23.732  28.599   3.236
 9066W        W75475  44.070  18.750   3.567
 9067W        W75476  23.665  34.016  12.423
 9068W        W75477  22.480  21.991   0.934
 9069W        W75478   3.423  16.685  11.073
 9070W        W75479  29.520   4.514   0.458
 9071W        W75480  39.500  27.561   1.195
 9072W        W75481  29.635  41.796   2.731
 9073W        W75482  39.835  14.295   0.294
 9074W        W75483  32.024   8.750  12.988
 9075W        W75484  25.140  16.646   3.782
 9076W        W75485  19.248   6.310   2.454
 9077W        W75486  22.096  29.379  13.394
 9078W        W75487  23.802  33.343   2.432
 9079W        W75488  11.872  18.677   4.434
 9080W        W75489  43.744  36.477   1.236
 9081W        W75490  29.547  32.544   2.807
 9082W        W75491   3.294  26.194  13.832
 9083W        W75492  42.320   4.213   3.713
 9084W        W75493   3.657  11.129   3.811
 9085W        W75494  44.393  22.748  11.158
 9086W        W75495  41.514  15.129  13.858
 9087W        W75496  35.568  39.974   2.247
 9088W        W75497  10.685  43.404   3.686
 9089W        W75498  40.151   5.402   2.691
 9090W        W75499   4.926  35.405  14.480
 9091W        W75500   3.988  31.434  12.882
 9092W        W75501  21.567  14.337   3.398
 9093W        W75502  42.325  12.419  11.526
 9094W        W75503  26.284  18.041  12.470
 9095W        W75504   7.324   1.996   0.708
 9096W        W75505  24.605  12.506   1.238
 9097W        W75506  26.934  23.549  12.514
 9098W        W75507  14.458   3.420  13.875
 9099W        W75508  35.557  16.187   4.967
 9100W        W75509  11.539  41.355   3.757
 9101W        W75510  16.329  40.331  10.781
 9102W        W75511  44.404  27.132  14.043
 9103W        W75512  31.563   1.265   5.000
 9104W        W75513   9.379  33.805   1.733
 9105W        W75514  31.600   5.091  14.953
 9106W        W75515  17.507  34.471  10.811
 9107W        W75516  38.578  21.758   5.427
 9108W        W75517  13.135  25.166  12.395
 9109W        W75518  11.563  26.079  11.109
 9110W        W75519   0.524  18.492   3.302
 9111W        W75520  43.003  29.893   3.912
 9112W        W75521  14.057  35.333   3.204
 9113W        W75522  32.200  27.480   1.448
 9114W        W75523   3.331  16.329  10.693
 9115W        W75524  17.930  30.441  14.288
 9116W        W75525  35.226  21.122   2.922
 9117W        W75526  41.122  31.530   1.899
 9118W        W75527  40.325  21.989   0.249
 9119W        W75528  14.193   6.153  11.979
 9120W        W75529   4.191  26.251  12.248
 9121W        W75530  33.621  42.946   4.146
 9122W        W75531  33.994  15.216  14.312
 9123W        W75532  11.921  10.407  14.385
 9124W        W75533   6.228  16.659  12.965
 9125W        W75534  27.665  29.606   0.740
 9126W        W75535  38.435   5.835  12.880
 9127W        W75536  35.170   9.159   2.349
 9128W        W75537  31.860  20.042  12.460
 9129W        W75538   0.880  23.773   1.820
 9130W        W75539   6.320  26.246   3.624
 9131W        W75540  12.754  18.186   4.722
 9132W        W75541  10.468  43.876   3.656
 9133W        W75542  19.740  19.530  14.532
 9134W        W75543  32.431   3.739   1.374
 9135W        W75544  36.220   5.412   1.898
 9136W        W75545  28.576  27.511  13.081
 9137W        W75546   9.178  11.808  14.005
 9138W        W75547  11.609  14.682   2.816
 9139W        W75548  28.119   5.379   4.875
 9140W        W75549   1.969  36.486  11.201
 9141W        W75550  19.515  17.168  14.795
 9142W        W75551  18.586  41.006  11.175
 9143W        W75552  24.628  36.302   2.198
 9144W        W75553  30.146  18.326   3.554
 9145W        W75554  35.202   7.536   5.093
 9146W        W75555   5.786   1.851  12.563
 9147W        W75556   5.023  44.786   1.360
 9148W        W75557   0.266  26.242   4.108
 9149W        W75558   6.325  21.044  11.567
 9150W        W75559  35.081  12.685   4.877
 9151W        W75560  43.332   4.465   0.286
 9152W        W75561   2.949  26.941  10.872
 9153W        W75562   1.222  42.709   0.025
 9154W        W75563   0.594   0.386  12.037
 9155W        W75564  17.523   7.718   1.010
 9156W        W75565  18.552   1.934   3.714
 9157W        W75566   8.650  39.012  11.660
 9158W        W75567  40.874  31.976   3.837
 9159W        W75568  15.773  13.896   4.209
 9160W        W75569   9.815   3.285  12.489
 9161W        W75570  13.234  29.168   4.631
 9162W        W75571  30.487  32.199   1.730
 9163W        W75572   6.848  31.545   0.002
 9164W        W75573  18.194  30.803   1.207
 9165W        W75574   6.786  40.273  12.906
 9166W        W75575  23.922   1.389   3.784
 9167W        W75576  26.703  40.636  11.313
 9168W        W75577  17.640  31.467  12.477
 9169W        W75578  37.562  11.321  12.569
 9170W        W75579  19.535  22.150  14.276
 9171W        W75580  22.168  28.132   1.848
 9172W        W75581  18.991   8.292  13.250
 9173W        W75582  12.948  43.361   4.327
 9174W        W75583  34.448  17.539  11.167
 9175W        W75584   2.356  13.091   2.233
 9176W        W75585  28.734  33.463   1.905
 9177W        W75586  43.273  39.286  10.995
 9178W        W75587   9.390  36.587  14.539
 9179W        W75588   3.350  40.895   0.491
 9180W        W75589   1.043  37.997  11.534
 9181W        W75590  17.808  37.845  12.867
 9182W        W75591  24.103  32.115  11.626
 9183W        W75592   9.301  37.479   0.034
 9184W        W75593  26.453  19.160   0.323
 9185W        W75594  22.641  30.920   2.280
 9186W        W75595  16.526  40.356  12.521
 9187W        W75596   0.501   8.753  10.698
 9188W        W75597  33.917  19.245   1.302
 9189W        W75598  32.100  33.895   3.225
 9190W        W75599  13.321  40.460  14.788
 9191W        W75600  40.512  27.768  11.939
 9192W        W75601  35.649  29.109  11.105
 9193W        W75602  34.891   9.614  13.566
 9194W        W75603  38.559  31.464   3.570
 9195W        W75604  32.965  17.132  14.817
 9196W        W75605  35.711  20.394   1.973
 9197W        W75606  27.096  32.343   3.597
 9198W        W75607  39.323   6.891   4.695
 9199W        W75608  13.032  34.360  14.469
 9200W        W75609  37.064  27.741  11.458
 9201W        W75610  15.640   4.901   3.227
 9202W        W75611  13.900  35.561   2.708
 9203W        W75612  29.550  38.538  14.423
 9204W        W75613   3.357  20.196  11.698
 9205W        W75614  41.716   3.810  13.933
 9206W        W75615  27.914  12.710   2.418
 9207W        W75616   7.310  21.083  14.392
 9208W        W75617  15.185  44.432   1.964
 9209W        W75618  44.105  13.286  12.106
 9210W        W75619   8.615  33.056   1.619
 9211W        W75620   3.750  27.888  13.116
 9212W        W75621   6.696  35.136   4.021
 9213W        W75622  18.613  34.654  11.452
 9214W        W75623  33.600   3.547  12.972
 9215W        W75624   1.688  11.383   0.990
 9216W        W75625  41.453  35.008   1.956
 9217W        W75626  35.111  39.266   3.183
 9218W        W75627  27.007  18.046  11.947
 9219W        W75628  41.515  36.527  11.796
 9220W        W75629  19.062  35.488   3.425
 9221W        W75630  35.946  12.208  12.177
 9222W        W75631  25.605   5.568  13.470
 9223W        W75632  39.018  42.552  12.173
 9224W        W75633   5.214  31.913  11.985
 9225W        W75634  32.632   5.702   4.168
 9226W        W75635  10.714  23.682   1.286
 9227W        W75636  29.258  41.447   0.806
 9228W        W75637  39.798  29.054  14.037
 9229W        W75638  11.717  42.700   2.771
 9230W        W75639  16.719   0.363   0.579
 9231W        W75640  29.276  19.870  13.356
 9232W        W75641  15.099  34.440   3.161
 9233W        W75642  23.785  28.103  11.141
 9234W        W75643   8.822   7.223  12.091
 9235W        W75644  13.337  11.854  14.893
 9236W        W75645   2.475  39.659   0.290
 9237W        W75646  35.923  17.737  11.862
 9238W        W75647  18.138  26.124  10.752
 9239W        W75648   0.890   6.941   1.284
 9240W        W75649  19.102  33.396   1.240
 9241W        W75650  16.602  17.116   1.225
 9242W        W75651  38.729   0.534  13.366
 9243W        W75652  13.679  26.994  13.566
 9244W        W75653  33.987   0.900   4.695
 9245W        W75654  16.758  24.956  12.603
 9246W        W75655  42.784  40.572  11.888
 9247W        W75656  40.519  44.456   2.150
 9248W        W75657  19.140  10.780   1.974
 9249W        W75658   1.203  17.985  14.741
 9250W        W75659  16.522  36.079  12.037
 9251W        W75660  19.055  33.393   1.759
 9252W        W75661   9.963  28.997  11.712
 9253W        W75662  18.329  33.519  14.988
 9254W        W75663   1.297   0.164   0.016
 9255W        W75664  27.439   1.057  12.992
 9256W        W75665   5.416   6.890   0.917
 9257W        W75666  10.219   1.341   3.899
 9258W        W75667  37.958  27.225   0.373
 9259W        W75668  29.680  15.317  14.898
 9260W        W75669  21.096   7.234   0.040
 9261W        W75670  18.413  41.069   2.893
 9262W        W75671  21.241  28.965  12.235
 9263W        W75672  23.701   5.902   0.086
 9264W        W75673  15.184  39.788   2.276
 9265W        W75674  24.604  20.095   5.564
 9266W        W75675  18.934  24.937  11.188
 9267W        W75676  12.163   9.620  10.423
 9268W        W75677  29.424  19.188   2.854
 9269W        W75678  12.712  35.617   4.981
 9270W        W75679   1.985  13.249  13.038
 9271W        W75680  28.158  29.402   2.766
 9272W        W75681  14.795   9.757   0.390
 9273W        W75682  33.211  22.877   3.065
 9274W        W75683  15.577   7.818  13.148
 9275W        W75684  35.061  11.130   1.230
 9276W        W75685  34.377   7.719   2.652
 9277W        W75686  10.321  17.299   4.509
 9278W        W75687  17.626  41.968  13.400
 9279W        W75688  39.624  40.495   1.055
 9280W        W75689  13.263  13.083   0.449
 9281W        W75690  22.177   8.942  14.428
 9282W        W75691  40.117  19.217   2.785
 9283W        W75692  24.229   5.660   4.240
 9284W        W75693  17.364  18.653   3.189
 9285W        W75694  44.771  44.057   3.281
 9286W        W75695  40.854  20.178   4.470
 9287W        W75696  22.757  16.174   3.529
 9288W        W75697  41.381  13.390   2.378
 9289W        W75698  15.463   5.396  10.812
 9290W        W75699  21.711  21.720  10.734
 9291W        W75700  35.838  16.406  11.576
 9292W        W75701  17.628  20.836   2.304
 9293W        W75702   8.006  34.921  10.802
 9294W        W75703   9.824  29.049   3.977
 9295W        W75704  42.293  31.076  11.244
 9296W        W75705   2.872  16.729   0.028
 9297W        W75706  38.282  33.501   1.138
 9298W        W75707  28.997  28.079   2.422
 9299W        W75708  17.056  18.248   2.262
 9300W        W75709  31.440  34.045  14.358
 9301W        W75710  27.557   0.111   4.556
 9302W        W75711  35.972  29.165   3.801
 9303W        W75712   1.006  18.050   4.155
 9304W        W75713  12.394  12.125   2.491
 9305W        W75714   1.415  10.249   1.937
 9306W        W75715  16.222  26.170   4.716
 9307W        W75716  12.204  37.463   0.750
 9308W        W75717  18.134  11.516   1.337
 9309W        W75718  36.039  10.041   3.693
 9310W        W75719  21.303  23.055  13.955
 9311W        W75720  29.113  16.121   0.769
 9312W        W75721  26.902  28.992   4.381
 9313W        W75722  23.784  20.480  14.911
 9314W        W75723  35.162  22.531  12.049
 9315W        W75724   3.200  13.382   3.270
 9316W        W75725  15.267   3.570  10.751
 9317W        W75726  33.025  34.449  14.879
 9318W        W75727   5.401  21.100   2.849
 9319W        W75728  42.729  21.285   0.171
 9320W        W75729  32.509  29.465   2.312
 9321W        W75730  34.158  14.851  13.960
 9322W        W75731   9.128  37.279   3.315
 9323W        W75732  44.243  19.442  12.558
 9324W        W75733  32.562  31.734   0.134
 9325W        W75734  24.361   3.717  12.028
 9326W        W75735   6.816  17.363   1.452
 9327W        W75736  30.013  18.027   3.960
 9328W        W75737  33.493  13.552  13.897
 9329W        W75738  41.346  20.818  12.820
 9330W        W75739  21.284   2.997  11.219
 9331W        W75740   3.023  13.859   3.396
 9332W        W75741  19.554  15.315  14.848
 9333W        W75742  35.846  32.361   0.705
 9334W        W75743  20.687  42.811   1.444
 9335W        W75744  31.028  32.517   4.698
 9336W        W75745  14.553  41.342  10.767
 9337W        W75746  18.087  26.751  14.580
 9338W        W75747   4.636  36.493  14.788
 9339W        W75748   3.326  33.458   4.639
 9340W        W75749   1.717  19.715  10.781
 9341W        W75750   6.879   1.602   2.634
 9342W        W75751   9.181  39.393  13.252
 9343W        W75752  35.531  27.406  14.900
 9344W        W75753   2.428  19.621   1.269
 9345W        W75754  38.232  36.897  11.073
 9346W        W75755  20.424  10.547   2.660
 9347W        W75756   8.888   7.673   3.288
 9348W        W75757  41.582  14.915  13.386
 9349W        W75758  31.192  11.640   4.907
 9350W        W75759  42.459   0.972   2.754
 9351W        W75760  13.131  29.014   1.283
 9352W        W75761  13.130  10.009  11.222
 9353W        W75762  42.426   3.895  12.580
 9354W        W75763  22.663  26.601   3.523
 9355W        W75764  36.335  29.549  13.247
 9356W        W75765  13.087  29.461  12.655
 9357W        W75766   5.464  21.723   1.087
 9358W        W75767  35.308  29.165  14.308
 9359W        W75768  40.782  21.186   1.783
 9360W        W75769  38.523  20.231  10.422
 9361W        W75770  43.310  40.891   1.424
 9362W        W75771  43.478  15.102   4.685
 9363W        W75772  28.247  43.873   2.542
 9364W        W75773  33.570  31.943   4.591
 9365W        W75774  25.457  24.172  12.967
 9366W        W75775   5.519  21.466  14.474
 9367W        W75776  32.268  33.976   0.841
 9368W        W75777  41.482  17.365  14.796
 9369W        W75778  15.993  38.896   0.483
 9370W        W75779  43.583  18.640  12.360
 9371W        W75780  13.097  14.262   4.471
 9372W        W75781  17.200  31.723  12.459
 9373W        W75782  18.720   6.657  13.957
 9374W        W75783  18.318  33.221   1.879
 9375W        W75784  19.532   2.768   4.099
 9376W        W75785  21.845  20.433   1.900
 9377W        W75786  34.460  36.345  11.230
 9378W        W75787  38.874  28.686  14.301
 9379W        W75788  39.636  42.281  12.968
 9380W        W75789  42.750   0.479   1.431
 9381W        W75790  22.234  22.946  11.444
 9382W        W75791  12.789  15.264  10.772
 9383W        W75792  10.097  27.237   4.377
 9384W        W75793  19.805  13.857  12.129
 9385W        W75794  29.086   3.003  10.733
 9386W        W75795  37.397  37.481   2.628
 9387W        W75796  27.954  26.046   4.494
 9388W        W75797  40.071  28.050   4.857
 9389W        W75798  26.828   1.932   0.805
 9390W        W75799  10.747  39.969  14.491
 9391W        W75800  18.764  35.822   1.162
 9392W        W75801   8.127  43.270  13.993
 9393W        W75802  16.716  29.963  12.389
 9394W        W75803  30.051  31.032   4.139
 9395W        W75804   4.118  23.189  13.871
 9396W        W75805  11.667  31.467   4.348
 9397W        W75806   9.599  13.910   1.728
 9398W        W75807  14.741  32.534  14.447
 9399W        W75808  40.859   2.028  14.451
 9400W        W75809  35.240  42.425  13.379
 9401W        W75810  14.787   7.735  11.634
 9402W        W75811  20.008  15.236   4.843
 9403W        W75812  19.395   0.506  13.763
 9404W        W75813  18.173  26.809  10.714
 9405W        W75814   5.225  43.466  10.714
 9406W        W75815  44.337  23.165  11.446
 9407W        W75816  14.332  41.582   1.659
 9408W        W75817  18.919  30.984  12.717
 9409W        W75818  14.057  10.303  13.384
 9410W        W75819  30.036  41.356  10.782
 9411W        W75820  24.575  22.845  13.522
 9412W        W75821  17.758  22.056  12.565
 9413W        W75822  14.575  36.925   3.998
 9414W        W75823  28.428   0.229  13.554
 9415W        W75824  31.038  32.793  11.953
 9416W        W75825  16.783  37.218   5.152
 9417W        W75826  34.094  10.309  11.110
 9418W        W75827  39.218  39.251   4.106
 9419W        W75828   0.038   9.399  14.353
 9420W        W75829   1.181  25.529  14.923
 9421W        W75830  38.878   1.494   3.613
 9422W        W75831  27.109  38.053   2.398
 9423W        W75832  14.874   8.931   0.912
 9424W        W75833   4.354  40.211   2.836
 9425W        W75834  10.095  14.474   5.182
 9426W        W75835  38.564  40.472   3.635
 9427W        W75836  15.774   7.982   3.771
 9428W        W75837  20.056   6.835  12.808
 9429W        W75838  27.581  24.140   3.944
 9430W        W75839  13.335  42.732   4.156
 9431W        W75840  39.773   9.843   0.737
 9432W        W75841  29.132   2.199  11.201
 9433W        W75842  24.998   6.390  13.087
 9434W        W75843  15.255  14.265  14.888
 9435W        W75844  43.378  42.806  12.235
 9436W        W75845  40.761  17.437   3.609
 9437W        W75846  26.452  23.655   0.884
 9438W        W75847  42.289  25.728  13.904
 9439W        W75848  34.525  32.943  11.453
 9440W        W75849  34.066  10.753  14.787
 9441W        W75850   7.407  39.970  12.086
 9442W        W75851  21.444   2.459  11.616
 9443W        W75852   9.725  42.324   2.303
 9444W        W75853  19.164  33.893  12.861
 9445W        W75854  41.904  32.617   2.830
 9446W        W75855  28.472  24.871   0.934
 9447W        W75856   4.310  26.978  12.309
 9448W        W75857  41.290   4.734  13.793
 9449W        W75858  27.043  21.452   3.723
 9450W        W75859   7.203  30.639   0.230
 9451W        W75860  22.320  30.581   4.560
 9452W        W75861  36.540   8.215   1.932
 9453W        W75862  22.007  22.126   4.726
 9454W        W75863  41.839  26.635  13.810
 9455W        W75864  16.553   1.797   3.799
 9456W        W75865   9.256   1.438   1.852
 9457W        W75866  13.026   8.617   4.981
 9458W        W75867   0.925  21.065   1.467
 9459W        W75868  41.929  35.087   2.940
 9460W        W75869   6.219   7.104  13.231
 9461W        W75870  23.169  19.532   0.400
 9462W        W75871   3.736  33.000   1.288
 9463W        W75872  32.898  13.495   2.308
 9464W        W75873  43.080  23.768   1.859
 9465W        W75874  11.765  24.925  10.779
 9466W        W75875  44.462  29.598   1.843
 9467W        W75876  32.610  42.339  14.418
 9468W        W75877  22.753   1.911  13.521
 9469W        W75878  26.165   0.945  14.792
 9470W        W75879   9.168  31.605   3.159
 9471W        W75880  22.011  31.044  14.428
 9472W        W75881   3.392   5.852   1.681
 9473W        W75882  33.658  29.406   4.214
 9474W        W75883  33.353   4.740  12.394
 9475W        W75884  32.575  34.506   4.186
 9476W        W75885   8.550  16.269   4.054
 9477W        W75886   1.445   8.674  13.478
 9478W        W75887  31.882  36.439  13.892
 9479W        W75888   5.689  13.934  11.035
 9480W        W75889  39.308  11.310  14.934
 9481W        W75890  17.712  32.969   4.564
 9482W        W75891  15.846  29.071   2.690
 9483W        W75892  11.880  44.639   3.041
 9484W        W75893   3.391  13.416  13.446
 9485W        W75894  32.928  39.437   2.361
 9486W        W75895  16.917  40.498  11.366
 9487W        W75896  21.608   1.736   2.692
 9488W        W75897  21.937  32.285  12.063
 9489W        W75898  14.137  16.053  14.259
 9490W        W75899   7.811  35.072  13.441
 9491W        W75900   0.994  15.226   4.258
 9492W        W75901  37.932   6.997   1.858
 9493W        W75902   4.793  18.219  10.597
 9494W        W75903  16.900  35.083  14.511
 9495W        W75904   3.370  38.750   4.024
 9496W        W75905  24.141  32.392   4.544
 9497W        W75906  28.913  38.416  10.993
 9498W        W75907  20.897  36.830   1.041
 9499W        W75908  22.634  31.211  13.308
 9500W        W75909   8.745  35.565  12.484
 9501W        W75910  34.602  43.055  11.230
 9502W        W75911  40.492  35.980   1.773
 9503W        W75912  44.471  24.173   4.729
 9504W        W75913  41.845  16.633  14.950
 9505W        W75914  31.339  18.598  10.491
 9506W        W75915  12.184  26.776  11.539
 9507W        W75916  28.450   8.919  13.833
 9508W        W75917   0.935  13.106  14.725
 9509W        W75918  29.911  30.436  13.962
 9510W        W75919  20.604  33.615  14.756
 9511W        W75920  12.578  21.196   1.030
 9512W        W75921  17.143  12.665   4.259
 9513W        W75922  42.543  37.898  13.351
 9514W        W75923   7.742  21.533   0.497
 9515W        W75924  34.830  36.454  12.987
 9516W        W75925  22.384  24.122   1.578
 9517W        W75926   4.405  36.148   0.781
 9518W        W75927   4.308  43.305  13.439
 9519W        W75928  24.703  12.083   2.653
 9520W        W75929   7.919  41.060  13.407
 9521W        W75930  15.679   2.929  13.947
 9522W        W75931  29.501  35.324   3.665
 9523W        W75932  13.420  28.435   1.099
 9524W        W75933  35.476   1.158  14.742
 9525W        W75934  33.977  33.226  12.126
 9526W        W75935  35.514  14.891   2.342
 9527W        W75936  26.517  21.048   4.542
 9528W        W75937  15.680  27.557  12.794
 9529W        W75938  19.699  16.578   2.274
 9530W        W75939  18.074  20.796   0.126
 9531W        W75940  27.228  30.990  11.229
 9532W        W75941  36.559   6.363  10.953
 9533W        W75942  38.511   3.339   1.813
 9534W        W75943   8.581  17.944  12.657
 9535W        W75944  36.353  31.511   2.917
 9536W        W75945  12.817  44.334   1.168
 9537W        W75946  35.618  19.166   1.564
 9538W        W75947  43.402   8.064   5.487
 9539W        W75948  35.936  33.957   3.675
 9540W        W75949  42.737  40.176  13.303
 9541W        W75950  21.998   5.896   0.317
 9542W        W75951   5.677   3.928  11.301
 9543W        W75952  31.259   4.268   4.061
 9544W        W75953  10.604   8.971   2.330
 9545W        W75954   8.635  33.842  13.874
 9546W        W75955   0.325  44.916   4.795
 9547W        W75956  39.465  33.334  11.157
 9548W        W75957   6.363  15.585   3.280
 9549W        W75958  29.545   3.961   1.433
 9550W        W75959  28.141  38.441   3.321
 9551W        W75960   8.224  38.469  13.401
 9552W        W75961  22.396  17.661   2.106
 9553W        W75962  42.034  43.891  14.304
 9554W        W75963  30.644   8.257   5.579
 9555W        W75964  10.210  35.571   3.331
 9556W        W75965  22.592  39.463   2.155
 9557W        W75966   3.350   3.722  12.954
 9558W        W75967  11.187  28.840  14.076
 9559W        W75968   0.238   3.460   5.007
 9560W        W75969  29.034   7.666   2.602
 9561W        W75970   4.700  17.513   1.891
 9562W        W75971  19.618  10.943   1.844
 9563W        W75972   4.968  40.407  12.044
 9564W        W75973  22.954  11.283   1.406
 9565W        W75974  26.655  12.337  10.135
 9566W        W75975   1.739  23.087   3.275
 9567W        W75976   2.921  39.330   0.244
 9568W        W75977   5.565  20.119  12.459
 9569W        W75978   3.165  26.382   4.153
 9570W        W75979  23.620   6.502   3.090
 9571W        W75980  20.169  12.301  14.751
 9572W        W75981  25.065   8.467   1.120
 9573W        W75982  40.224  13.198   1.240
 9574W        W75983  43.593  17.859  11.268
 9575W        W75984  11.200  18.532  14.394
 9576W        W75985  26.643  44.466  14.428
 9577W        W75986   9.685  14.671   4.604
 9578W        W75987  19.089   0.179  11.417
 9579W        W75988  32.643   4.328  12.636
 9580W        W75989  40.839  34.476   3.930
 9581W        W75990   5.698  38.135  14.932
 9582W        W75991  12.126  25.910  13.506
 9583W        W75992  29.451  33.599  12.085
 9584W        W75993   2.870   5.259   4.084
 9585W        W75994  34.399   7.048   4.446
 9586W        W75995   4.816   8.217  13.461
 9587W        W75996   9.330  11.420  11.971
 9588W        W75997   1.717  20.278   0.289
 9589W        W75998  15.569   8.430   0.348
 9590W        W75999   1.283   4.413   0.871
 9591W        W76000  32.693  19.136  11.313
 9592W        W76001  33.049  13.777  13.057
 9593W        W76002  11.765  23.747  13.344
 9594W        W76003  38.366   5.580  13.346
 9595W        W76004  13.087  31.818   3.670
 9596W        W76005   4.483  30.326   4.243
 9597W        W76006  33.406  15.516   0.850
 9598W        W76007  12.190   4.860  10.914
 9599W        W76008  36.680   2.417   2.682
 9600W        W76009  38.386   6.446  13.879
 9601W        W76010  20.334  28.076  13.013
 9602W        W76011  27.701   3.521   3.754
 9603W        W76012  33.647  29.124   1.298
 9604W        W76013  15.222  32.981   3.159
 9605W        W76014  18.160  23.209  12.319
 9606W        W76015  16.743  36.326   4.578
 9607W        W76016  22.473  25.415  10.049
 9608W        W76017  25.405  30.928  14.083
 9609W        W76018  23.764  34.463   0.384
 9610W        W76019  43.053  21.471   4.537
 9611W        W76020  17.104  12.716   1.373
 9612W        W76021  29.023  11.930   0.422
 9613W        W76022   2.939   1.423   0.698
 9614W        W76023  33.470  40.473   4.558
 9615W        W76024  25.766  26.062  12.465
 9616W        W76025  29.658  19.511  13.278
 9617W        W76026  34.595  13.369  11.049
 9618W        W76027  23.667  24.929   4.532
 9619W        W76028   0.248  29.529   4.241
 9620W        W76029  18.664  14.767  12.927
 9621W        W76030  38.757  33.454  14.886
 9622W        W76031  33.545  44.446  14.307
 9623W        W76032  41.299  26.591  12.423
 9624W        W76033  18.047  40.808  10.373
 9625W        W76034  28.934  24.683  13.973
 9626W        W76035  33.456   5.173  14.516
 9627W        W76036  36.523   6.887  12.465
 9628W        W76037  37.312  12.730   9.561
 9629W        W76038  11.445   0.992   0.880
 9630W        W76039  22.104  21.094   4.587
 9631W        W76040   9.237   5.259  12.630
 9632W        W76041   5.425  25.664   2.314
 9633W        W76042  33.479  16.324   1.356
 9634W        W76043  37.068  18.450  11.860
 9635W        W76044   0.771  31.512   0.570
 9636W        W76045  21.994  16.800   0.931
 9637W        W76046  19.513   2.755  14.447
 9638W        W76047  41.777  41.213   1.226
 9639W        W76048  43.677  11.075  10.669
 9640W        W76049  17.568  39.015  14.474
 9641W        W76050  40.236  40.565   1.847
 9642W        W76051  42.008  25.431   0.660
 9643W        W76052  35.255   2.800   0.801
 9644W        W76053  21.403   6.222   0.009
 9645W        W76054  41.429   0.994  13.997
 9646W        W76055  43.051  44.386  11.577
 9647W        W76056  25.681  28.975   4.017
 9648W        W76057   6.665  20.605   1.605
 9649W        W76058  17.318  44.524  12.486
 9650W        W76059   4.937  32.328   0.394
 9651W        W76060  39.756  37.991   0.431
 9652W        W76061  30.170  43.826   1.948
 9653W        W76062   2.741  29.769   3.013
 9654W        W76063  11.178  19.110  11.917
 9655W        W76064   7.613  23.288  14.075
 9656W        W76065   1.457  29.368   0.557
 9657W        W76066  16.659  32.242   2.335
 9658W        W76067   9.188   3.580   4.553
 9659W        W76068  22.924   0.416  14.514
 9660W        W76069  38.965  32.861   1.933
 9661W        W76070   9.591   2.283   2.350
 9662W        W76071  24.193  38.330  10.925
 9663W        W76072   8.222  26.614   3.270
 9664W        W76073  11.450  18.423   4.257
 9665W        W76074  25.041  43.986   4.727
 9666W        W76075  16.576  10.338   4.365
 9667W        W76076  28.745  12.700   2.702
 9668W        W76077  27.135  20.304  13.129
 9669W        W76078   9.416  12.697   3.797
 9670W        W76079  25.179   7.964   0.959
 9671W        W76080  42.605  26.980  13.921
 9672W        W76081  42.591  39.475  11.172
 9673W        W76082  16.499  36.177   1.397
 9674W        W76083  24.955   4.217   0.529
 9675W        W76084  20.468  39.539  10.631
 9676W        W76085  10.915  15.141  12.516
 9677W        W76086  31.551  39.442   1.913
 9678W        W76087  35.421  35.886  13.904
 9679W        W76088  23.257  23.737  13.837
 9680W        W76089   3.861  39.361   4.605
 9681W        W76090  25.689  12.297  13.016
 9682W        W76091   1.485  12.457   1.828
 9683W        W76092  12.802   9.555   1.687
 9684W        W76093  29.551   8.431   9.746
 9685W        W76094   8.274  16.114   1.487
 9686W        W76095  24.289  21.764  13.062
 9687W        W76096   0.016  10.432   3.994
 9688W        W76097  32.593  19.610  12.109
 9689W        W76098  41.061  43.515  10.558
 9690W        W76099  28.616  10.697  11.974
 9691W        W76100  37.883  28.163   3.750
 9692W        W76101  10.408  14.918   1.292
 9693W        W76102  42.011  40.936  11.519
 9694W        W76103   3.198  10.684  14.795
 9695W        W76104  33.999  27.068   1.931
 9696W        W76105   2.790  12.369  13.858
 9697W        W76106  40.522  29.757  12.023
 9698W        W76107   0.506  21.965   0.462
 9699W        W76108  19.315  31.189   2.226
 9700W        W76109  30.132   2.224  11.922
 9701W        W76110  14.358  32.030   4.631
 9702W        W76111   5.139  32.850   2.726
 9703W        W76112   8.900  24.054  13.164
 9704W        W76113  40.144   3.413   1.980
 9705W        W76114   2.076  36.401  12.095
 9706W        W76115  40.263  33.346   3.868
 9707W        W76116  40.740  23.679   2.182
 9708W        W76117  32.738  22.446  13.515
 9709W        W76118  23.588  22.514  13.961
 9710W        W76119  29.985   4.447  13.074
 9711W        W76120  41.390  39.763   4.124
 9712W        W76121  22.099  43.295   4.337
 9713W        W76122  36.366  38.580   3.816
 9714W        W76123   8.067  18.190   1.856
 9715W        W76124  26.201   6.555  10.996
 9716W        W76125  41.301  36.975   3.675
 9717W        W76126  32.473  21.884   2.825
 9718W        W76127  19.238   6.357  12.615
 9719W        W76128  18.465  31.966  12.575
 9720W        W76129   7.445  14.519   5.047
 9721W        W76130  44.608  40.774  12.963
 9722W        W76131  14.269  16.602  12.151
 9723W        W76132  14.599  26.211  12.570
 9724W        W76133  37.473  18.241   3.288
 9725W        W76134  18.724  17.758   2.839
 9726W        W76135  17.284  27.925   3.137
 9727W        W76136  34.282   6.659   0.333
 9728W        W76137  39.823  32.688  13.911
 9729W        W76138  30.056  17.520   3.798
 9730W        W76139   8.981  22.541  14.175
 9731W        W76140   1.333  34.296  11.253
 9732W        W76141   3.262   9.677   0.827
 9733W        W76142  20.140  26.797  10.207
 9734W        W76143  29.446  37.821  13.915
 9735W        W76144   5.867  23.327  13.373
 9736W        W76145  39.124  21.769  13.647
 9737W        W76146  12.887  42.702   2.756
 9738W        W76147  28.031  25.630   0.872
 9739W        W76148  38.523   0.755  10.483
 9740W        W76149  33.870  27.538   2.160
 9741W        W76150  10.687  23.567   3.718
 9742W        W76151  14.350  32.182  14.282
 9743W        W76152   8.245  29.266  12.297
 9744W        W76153  30.153   8.911  10.402
 9745W        W76154  44.039   9.467   0.914
 9746W        W76155  29.255  43.873  12.315
 9747W        W76156  10.428  22.642   1.279
 9748W        W76157  41.810  40.244  13.597
 9749W        W76158  40.255   6.420   5.075
 9750W        W76159  18.047   3.378   4.222
 9751W        W76160   1.437  42.935   2.775
 9752W        W76161   2.655   3.479   0.710
 9753W        W76162  15.406  22.454   3.162
 9754W        W76163  16.050  23.153   0.334
 9755W        W76164  19.073  38.822  10.678
 9756W        W76165   0.870   2.606   2.112
 9757W        W76166  35.068  19.424   5.782
 9758W        W76167  41.630  11.337  11.242
 9759W        W76168  30.573  13.008   0.841
 9760W        W76169  36.888  28.016   3.096
 9761W        W76170  21.975  12.679  13.543
 9762W        W76171   3.534   0.077  13.737
 9763W        W76172  25.106  37.830  13.312
 9764W        W76173  38.284  14.239   0.759
 9765W        W76174  40.476  16.803  14.046
 9766W        W76175  15.149  33.710  10.403
 9767W        W76176  41.739  26.928   4.360
 9768W        W76177  19.904  15.546   3.505
 9769W        W76178  44.621  16.058  14.937
 9770W        W76179  11.817  44.275  14.212
 9771W        W76180  19.818  32.542   4.961
 9772W        W76181  23.554  29.307   4.091
 9773W        W76182  41.596  25.223  14.270
 9774W        W76183  16.568  33.467  10.398
 9775W        W76184  20.792  31.861  11.639
 9776W        W76185  21.545   5.221   3.758
 9777W        W76186   5.679  12.677   2.757
 9778W        W76187  11.909   5.913   1.001
 9779W        W76188  13.778  34.072  13.499
 9780W        W76189  44.458  30.378   1.677
 9781W        W76190  35.630  36.043  10.710
 9782W        W76191  42.785  14.878   2.561
 9783W        W76192  24.777  37.503   3.629
 9784W        W76193  34.861  39.713  12.465
 9785W        W76194  10.974  29.779  12.337
 9786W        W76195  33.844  22.528  12.925
 9787W        W76196   9.824  15.777   4.602
 9788W        W76197  22.068  32.100   2.830
 9789W        W76198  39.322   4.986  10.654
 9790W        W76199   5.859  40.519   3.948
 9791W        W76200   3.484  38.352   3.644
 9792W        W76201   8.692  22.549  13.360
 9793W        W76202   0.114  26.054   2.645
 9794W        W76203  44.036   9.248   2.748
 9795W        W76204  23.087  22.590  12.081
 9796W        W76205  37.758  28.171   4.243
 9797W        W76206  40.351  21.309   4.130
 9798W        W76207   3.848   0.700  14.341
 9799W        W76208  35.427  15.404   1.200
 9800W        W76209  31.869  24.118   1.673
 9801W        W76210  12.949  31.132   3.453
 9802W        W76211  41.059   7.243  13.402
 9803W        W76212  10.426  32.082  14.843
 9804W        W76213  10.606  22.250   9.878
 9805W        W76214  28.025  27.217  13.692
 9806W        W76215  10.118   6.737   1.797
 9807W        W76216  23.561  12.613   2.669
 9808W        W76217   1.218  40.935   1.186
 9809W        W76218  20.989  40.331   4.667
 9810W        W76219   9.904  16.274  10.692
 9811W        W76220  23.954  16.728  11.670
 9812W        W76221  18.860  37.926   3.161
 9813W        W76222  36.883   1.806   0.060
 9814W        W76223   6.515  25.761   4.851
 9815W        W76224   6.147  28.747   2.751
 9816W        W76225  44.831  14.140   2.504
 9817W        W76226  35.818  17.131  12.367
 9818W        W76227  28.047   9.641   2.270
 9819W        W76228   5.460  37.040   4.753
 9820W        W76229  11.368  16.046   1.933
 9821W        W76230  20.307  26.689   1.038
 9822W        W76231  24.332  28.600   1.628
 9823W        W76232  42.514  24.222  13.855
 9824W        W76233  37.602  20.093   3.742
 9825W        W76234  27.151  32.972   1.033
 9826W        W76235   1.453  39.469   2.306
 9827W        W76236  13.686  15.119  13.849
 9828W        W76237   7.184  40.313  14.213
 9829W        W76238  25.754  21.027   5.003
 9830W        W76239  25.090  34.846  10.966
 9831W        W76240  35.510  15.886  12.812
 9832W        W76241  34.326  37.308  14.410
 9833W        W76242  24.445   0.911   3.244
 9834W        W76243   8.934  21.778  12.045
 9835W        W76244  14.114   1.580   4.034
 9836W        W76245  32.083  43.342  13.882
 9837W        W76246   3.289  29.922   3.631
 9838W        W76247  40.476  24.196  12.565
 9839W        W76248  43.706  15.060   2.117
 9840W        W76249  35.347  28.990  12.402
 9841W        W76250  36.594  17.665   3.279
 9842W        W76251  23.260  27.105  13.853
 9843W        W76252   5.677   4.919  14.436
 9844W        W76253  24.431   9.819   1.418
 9845W        W76254  35.129  27.420  11.196
 9846W        W76255  39.386  44.914   1.468
 9847W        W76256  29.538  14.830   3.805
 9848W        W76257  20.478  26.931   1.701
 9849W        W76258  15.878  27.553   1.367
 9850W        W76259  20.664   6.428  11.155
 9851W        W76260  10.273  28.624   4.167
 9852W        W76261  43.441  24.314   4.434
 9853W        W76262  42.373  25.205   0.987
 9854W        W76263   3.264   0.785   1.619
 9855W        W76264   6.849  41.227   4.642
 9856W        W76265  44.759  15.481  11.973
 9857W        W76266  30.538  15.345   0.769
 9858W        W76267   6.871  42.971   2.763
 9859W        W76268  30.409  15.871  12.021
 9860W        W76269   3.409   1.931   0.204
 9861W        W76270   6.265  43.743  12.986
 9862W        W76271  25.225  30.923   3.072
 9863W        W76272  31.472  41.471  11.612
 9864W        W76273  21.784  23.820  12.444
 9865W        W76274  29.988  18.169   2.006
 9866W        W76275  36.155  36.943  10.788
 9867W        W76276  10.626  36.890  14.034
 9868W        W76277  36.661  26.079   4.162
 9869W        W76278   8.884  38.087  11.446
 9870W        W76279   2.447  29.502  14.375
 9871W        W76280  23.540  43.480   1.265
 9872W        W76281   4.301  36.960   1.593
 9873W        W76282  40.575  27.647  14.482
 9874W        W76283   5.278  26.111   3.182
 9875W        W76284  34.171  40.160   1.456
 9876W        W76285  38.979  10.604   1.643
 9877W        W76286  36.499  21.956  11.070
 9878W        W76287  35.571   8.194   1.584
 9879W        W76288   0.767  27.945  12.379
 9880W        W76289  17.316  10.970  11.187
 9881W        W76290  11.166  14.095   0.434
 9882W        W76291  27.004  41.274   3.620
 9883W        W76292   9.495  27.911   1.826
 9884W        W76293  22.443  38.943   4.831
 9885W        W76294  26.956  13.066  13.908
 9886W        W76295   6.265  14.008  12.064
 9887W        W76296  37.328  10.150  10.512
 9888W        W76297  13.443  16.021  11.120
 9889W        W76298   1.979  32.058   4.532
 9890W        W76299  34.533  37.562   2.438
 9891W        W76300  24.109   8.131  10.727
 9892W        W76301  18.803  43.504  10.589
 9893W        W76302  36.516   4.562  12.409
 9894W        W76303  19.884  24.790   0.925
 9895W        W76304  28.132  34.435   9.932
 9896W        W76305  38.569  39.019   4.320
 9897W        W76306  31.136  29.649  12.138
 9898W        W76307  41.287  26.204   4.911
 9899W        W76308  43.603  29.443  12.197
 9900W        W76309  17.885  20.706   3.679
 9901W        W76310  35.837   8.330   3.189
 9902W        W76311  15.657  19.430   4.621
 9903W        W76312  37.887  22.582   4.061
 9904W        W76313  38.034  14.402  11.926
 9905W        W76314   5.744  23.795   2.573
 9906W        W76315  40.998   3.470  14.171
 9907W        W76316  23.702  37.259   2.199
 9908W        W76317  20.279   8.293   2.736
 9909W        W76318  11.157  11.898  13.853
 9910W        W76319  16.077  44.632  13.730
 9911W        W76320  41.247  10.042  10.994
 9912W        W76321  25.427  29.725   4.308
 9913W        W76322   0.373  10.112  14.918
 9914W        W76323  22.888  23.591  13.007
 9915W        W76324  34.613  34.846  13.310
 9916W        W76325  12.890   1.433  13.939
 9917W        W76326  21.544   3.812  11.352
 9918W        W76327   9.518  23.977  12.091
 9919W        W76328  27.218  24.312   3.565
 9920W        W76329  18.793  36.568   0.457
 9921W        W76330  16.245  36.979  13.050
 9922W        W76331  18.623   0.924  14.805
 9923W        W76332  24.997  40.179  10.698
 9924W        W76333   2.952  16.090   3.179
 9925W        W76334  11.298   7.744  10.524
 9926W        W76335   8.354  11.114  12.502
 9927W        W76336  13.680  40.986  12.578
 9928W        W76337  23.652  16.043   3.810
 9929W        W76338  23.693   6.396   2.604
 9930W        W76339  22.007  19.181  14.537
 9931W        W76340  10.492  26.925   4.535
 9932W        W76341  36.376  28.739   1.284
 9933W        W76342  11.465  23.162   0.605
 9934W        W76343  32.607  38.074  13.424
 9935W        W76344  22.072  30.208   0.551
 9936W        W76345  23.133   7.746  13.976
 9937W        W76346   9.281  19.521   1.744
 9938W        W76347  27.437   3.966   1.666
 9939W        W76348  15.183  22.340   4.535
 9940W        W76349   7.367  16.613   0.766
 9941W        W76350  33.514  31.670  14.382
 9942W        W76351  21.570  19.450  12.983
 9943W        W76352  32.621  40.996   4.478
 9944W        W76353  20.120  10.520  12.992
 9945W        W76354  15.139  29.733   1.816
 9946W        W76355   9.343  41.995  14.541
 9947W        W76356  11.934  13.948   4.201
 9948W        W76357  31.126  19.677   1.432
 9949W        W76358  34.426  44.733  14.511
 9950W        W76359   7.006  24.688  12.043
 9951W        W76360   2.811  35.410  14.344
 9952W        W76361   6.164  38.477   3.745
 9953W        W76362   1.908  13.279   4.942
 9954W        W76363  12.152  17.763   3.530
 9955W        W76364  38.060  30.821   2.745
 9956W        W76365  36.583  18.472   2.369
 9957W        W76366  25.485  28.121   3.280
 9958W        W76367   3.906   9.560  11.726
 9959W        W76368   8.059   1.296  14.434
 9960W        W76369   6.221   7.366  14.281
 9961W        W76370   6.677  14.152  11.607
 9962W        W76371   2.495  29.491   1.218
 9963W        W76372   2.208  28.071  14.528
 9964W        W76373  16.095  17.792   0.900
 9965W        W76374  12.429  13.278   1.949
 9966W        W76375   8.350   2.530  10.640
 9967W        W76376   5.649   2.320  14.752
 9968W        W76377   1.745  27.657  12.079
 9969W        W76378  15.856   0.195   0.736
 9970W        W76379   3.943  33.013  10.700
 9971W        W76380  24.940  14.166  10.724
 9972W        W76381  10.738  11.655  12.225
 9973W        W76382   7.797  41.829  10.813
 9974W        W76383   7.611  40.573  14.344
 9975W        W76384  31.005   9.385   0.998
 9976W        W76385   9.285  34.305   1.781
 9977W        W76386  26.559  25.518   0.937
 9978W        W76387  11.846  44.266  11.076
 9979W        W76388  38.673  32.974  11.611
 9980W        W76389  14.467  11.927   0.747
 9981W        W76390  31.367   3.800  13.457
 9982W        W76391  20.326  38.979  10.730
 9983W        W76392  16.226  26.650  10.412
 9984W        W76393  23.814  11.218   4.179
 9985W        W76394  24.723   9.939   1.840
 9986W        W76395  29.760  44.123  14.981
 9987W        W76396  18.458   6.905   0.279
 9988W        W76397  19.247  12.683  14.077
 9989W        W76398  35.560   4.171  10.695
 9990W        W76399  36.083  14.156  14.859
 9991W        W76400  42.298   5.460   0.781
 9992W        W76401   0.447  44.275  10.550
 9993W        W76402   8.384  28.426   1.279
 9994W        W76403  40.005   1.081  13.983
 9995W        W76404  26.609  30.985   0.610
 9996W        W76405   0.042  14.461  13.941
 9997W        W76406  42.936   1.522   0.878
 9998W        W76407   5.213  20.243  11.590
 9999W        W76408   5.178  30.731  14.940
10000W        W76409  14.314  16.491  12.658
10001W        W76410   8.273  39.854  14.975
10002W        W76411   8.232  25.187   3.853
10003W        W76412  39.478  24.643   3.317
10004W        W76413  18.032   7.017  10.749
10005W        W76414  43.483  27.726   1.498
10006W        W76415   6.832  43.907   1.412
10007W        W76416  12.356   4.601   4.619
10008W        W76417  32.887  17.180  13.273
10009W        W76418   4.962  25.297   5.345
10010W        W76419   9.315   8.940  11.729
10011W        W76420  14.054  34.633   4.964
10012W        W76421   2.005  41.344  11.155
10013W        W76422  37.032  39.564  11.204
10014W        W76423   8.922  37.170  14.817
10015W        W76424  13.562  28.386   4.654
10016W        W76425  27.234  26.000  12.526
10017W        W76426  27.111  32.317   3.086
10018W        W76427  12.654   3.752   4.139
10019W        W76428  15.741  32.675   4.984
10020W        W76429  21.105  43.509   1.029
10021W        W76430  15.805  43.943   0.323
10022W        W76431  16.919  13.589  10.968
10023W        W76432  32.922  34.305   4.576
10024W        W76433  29.821  22.011  14.744
10025W        W76434  14.341  26.053  14.361
10026W        W76435  41.704  28.957  12.562
10027W        W76436  25.998  19.690   4.452
10028W        W76437   8.824   0.498   3.807
10029W        W76438  10.388  33.452  12.493
10030W        W76439  16.032  42.819  13.435
10031W        W76440  39.495   0.240   0.448
10032W        W76441  10.624  21.748   3.720
10033W        W76442  18.860  40.334   2.625
10034W        W76443  32.314  20.410   1.401
10035W        W76444  25.120  16.004   3.441
10036W        W76445  39.128  41.452   0.810
10037W        W76446  33.693  20.077  13.290
10038W        W76447  18.991  39.949  10.634
10039W        W76448  42.689  41.748  14.493
10040W        W76449  15.057  35.329   3.391
10041W        W76450  21.505  18.811  10.725
10042W        W76451  40.370  13.172  11.689
10043W        W76452   9.623  32.321  11.664
10044W        W76453  32.548  22.169  14.974
10045W        W76454  40.975  19.661   2.658
10046W        W76455  43.665  37.495  12.789
10047W        W76456  37.381  35.184  13.077
10048W        W76457  21.704  16.121   2.680
10049W        W76458  39.942  28.499  11.922
10050W        W76459  27.791  19.113  14.208
10051W        W76460   2.429   1.723   2.865
10052W        W76461   0.409  10.196   4.853
10053W        W76462  33.740  34.269  13.974
10054W        W76463   2.828  15.132   2.147
10055W        W76464  33.735  34.224  14.943
10056W        W76465   5.713  11.616   3.559
10057W        W76466  18.622  28.176   5.015
10058W        W76467   6.429  31.353   1.458
10059W        W76468   5.834  16.381  11.163
10060W        W76469  28.895  29.044  14.154
10061W        W76470  41.811  42.793   9.990
10062W        W76471  31.514  13.630  13.724
10063W        W76472   8.615  21.783   3.289
10064W        W76473  10.108  41.343  11.009
10065W        W76474  29.605  31.058  12.886
10066W        W76475  39.986  17.771   0.464
10067W        W76476  43.472  31.531   1.936
10068W        W76477  13.301  12.024   4.145
10069W        W76478  40.745  30.841   2.306
10070W        W76479  37.647  41.842  11.499
10071W        W76480  34.651  19.547  12.781
10072W        W76481  32.190  37.866   0.845
10073W        W76482  39.436  13.731   1.158
10074W        W76483   8.173  25.970   0.361
10075W        W76484  42.862  21.043   0.980
10076W        W76485  44.403  11.127   2.211
10077W        W76486  21.627  12.784  14.251
10078W        W76487   6.804  32.178   4.435
10079W        W76488  35.911   7.101  12.368
10080W        W76489  31.710   8.757  14.954
10081W        W76490  16.211  33.951   2.754
10082W        W76491  33.063   3.477  12.976
10083W        W76492   2.328  26.523   3.763
10084W        W76493  42.468   1.359   1.520
10085W        W76494   7.465  30.457  13.868
10086W        W76495  11.808  35.924  13.932
10087W        W76496  36.499  34.965  12.954
10088W        W76497   9.866  43.000   3.058
10089W        W76498  44.896  44.278   4.295
10090W        W76499  21.171  14.836   2.889
10091W        W76500  31.464  18.299   3.290
10092W        W76501  16.361   4.293  10.603
10093W        W76502   8.709  26.081  12.898
10094W        W76503  25.527  20.197   4.557
10095W        W76504   3.217  32.112   3.169
10096W        W76505  32.525  16.645   1.647
10097W        W76506  26.303   2.768   1.585
10098W        W76507   1.413  31.552   4.160
10099W        W76508  21.396   1.713  11.257
10100W        W76509   8.538   8.447  14.460
10101W        W76510  44.347  30.473   3.498
10102W        W76511  27.894  32.486  13.828
10103W        W76512   6.689  18.667   3.668
10104W        W76513  44.949  10.368   1.092
10105W        W76514   0.523  22.472  12.615
10106W        W76515   9.107  27.750  13.238
10107W        W76516   8.681  29.996   2.387
10108W        W76517  10.986  32.408   0.373
10109W        W76518  30.503  26.165   2.327
10110W        W76519  33.113  37.408   4.604
10111W        W76520  34.752  29.879   0.971
10112W        W76521  44.494  15.679  10.734
10113W        W76522   5.876  22.163  12.561
10114W        W76523  34.229  39.902  13.978
10115W        W76524   2.124  13.013  10.812
10116W        W76525  37.070  11.815  12.051
10117W        W76526  11.755  34.819   1.860
10118W        W76527  33.394  25.792   4.219
10119W        W76528  20.070  31.873   0.452
10120W        W76529  29.994   9.501   1.200
10121W        W76530  38.470  38.898   2.867
10122W        W76531   0.429  18.762   4.722
10123W        W76532  29.115  42.744   3.250
10124W        W76533  32.165  19.618   3.298
10125W        W76534  13.239  29.501   2.896
10126W        W76535  31.787  31.417   2.102
10127W        W76536  43.005   0.204   0.168
10128W        W76537  29.344  23.490   3.306
10129W        W76538   8.845   8.820  11.534
10130W        W76539   2.287  36.237   5.034
10131W        W76540   6.007  42.981  14.953
10132W        W76541  16.764  36.988   4.223
10133W        W76542   4.170  15.341   2.097
10134W        W76543   7.319   4.475  13.986
10135W        W76544  33.037  17.159  12.420
10136W        W76545  43.559  22.307   2.329
10137W        W76546   1.344  24.850   4.794
10138W        W76547  33.516   0.513  12.560
10139W        W76548  29.550  11.951  12.590
10140W        W76549  13.037  24.906  12.824
10141W        W76550  40.879  30.519   0.558
10142W        W76551  24.465  16.697  11.676
10143W        W76552  42.879  24.202   1.650
10144W        W76553   2.251  24.903   3.681
10145W        W76554  39.854  31.359  12.257
10146W        W76555  26.353   3.380   4.648
10147W        W76556  13.229   7.282   0.643
10148W        W76557  16.047  21.044  13.571
10149W        W76558   0.271  15.285  12.482
10150W        W76559  11.258  24.091  13.728
10151W        W76560   3.816   8.510  13.424
10152W        W76561  34.956  37.001   2.836
10153W        W76562  33.489  14.822  11.188
10154W        W76563  16.391   9.720   1.353
10155W        W76564  15.629  18.462   4.207
10156W        W76565  40.437  21.801  10.990
10157W        W76566   7.702  35.314   2.687
10158W        W76567   1.287  36.946   3.663
10159W        W76568  32.279  33.330   5.022
10160W        W76569  36.130  13.826   2.672
10161W        W76570  28.090  36.549  13.203
10162W        W76571  37.216  33.955   1.896
10163W        W76572  18.174   2.431   0.381
10164W        W76573  26.914  15.762   3.176
10165W        W76574  17.258  38.333  14.753
10166W        W76575  13.113  40.537  11.977
10167W        W76576   4.445   3.881  12.975
10168W        W76577   4.531  18.675   4.292
10169W        W76578  28.649   4.804  13.254
10170W        W76579  10.389  35.470   4.563
10171W        W76580  41.389  41.271  12.644
10172W        W76581   6.048  44.241   4.177
10173W        W76582  25.714  18.892   5.041
10174W        W76583  22.583  43.337   0.055
10175W        W76584  17.701  30.874   0.996
10176W        W76585  32.797   4.448  14.864
10177W        W76586  43.199   5.821   2.215
10178W        W76587  12.011  14.254  13.564
10179W        W76588  27.093   8.936  13.868
10180W        W76589  32.066   1.847   2.898
10181W        W76590  28.697  25.837   0.683
10182W        W76591   8.130  13.076  11.242
10183W        W76592   4.447   8.742   4.565
10184W        W76593   2.122  35.042  12.803
10185W        W76594  26.022  22.251  12.680
10186W        W76595  17.274  34.340  13.574
10187W        W76596   3.715  42.926  14.727
10188W        W76597  33.840  34.402   1.261
10189W        W76598  43.390  10.781  12.150
10190W        W76599  21.314   4.347   3.304
10191W        W76600  15.361  23.164   4.942
10192W        W76601  17.382   6.303  13.054
10193W        W76602   4.261  36.639   4.614
10194W        W76603   5.695  20.641   0.805
10195W        W76604  17.179  31.210  12.442
10196W        W76605   7.870   2.338  11.066
10197W        W76606   8.066  44.824  10.844
10198W        W76607  24.933  26.396  12.916
10199W        W76608  24.549  10.683   4.673
10200W        W76609   7.348  31.569   1.302
10201W        W76610   3.888  33.209  14.766
10202W        W76611  26.227  31.015   1.793
10203W        W76612  22.163  19.819   1.278
10204W        W76613  42.131   3.058   0.408
10205W        W76614  28.850  12.407   0.152
10206W        W76615  13.267  20.164  14.824
10207W        W76616  23.151  13.391   2.699
10208W        W76617   3.081  30.791   0.363
10209W        W76618  23.743  39.772  14.492
10210W        W76619   4.475  35.548  14.143
10211W        W76620  44.965  26.045   1.744
10212W        W76621  16.715  14.815   4.682
10213W        W76622  32.122   8.661   2.758
10214W        W76623  27.898  17.648   5.099
10215W        W76624  16.421  35.053   0.710
10216W        W76625  13.032  36.990   4.654
10217W        W76626  25.496  17.701  11.503
10218W        W76627  30.986  42.093  12.877
10219W        W76628  34.155  28.481  11.674
10220W        W76629  35.822  22.288  14.397
10221W        W76630  32.651  25.215  14.838
10222W        W76631  14.542  18.588  10.252
10223W        W76632  36.412   1.893   2.151
10224W        W76633  29.015  22.692  14.589
10225W        W76634   2.316  22.715   4.601
10226W        W76635  10.066  24.024  10.210
10227W        W76636  15.163   1.296   3.097
10228W        W76637  25.465  41.756   2.728
10229W        W76638  28.204   1.034   0.524
10230W        W76639  32.742  39.640   3.354
10231W        W76640  35.836  32.148  11.020
10232W        W76641  26.180  40.362   0.826
10233W        W76642  30.958  37.821   4.228
10234W        W76643  22.989  17.802   2.709
10235W        W76644  42.360  21.726  13.061
10236W        W76645  26.945  44.775   0.508
10237W        W76646  31.846  12.764   1.924
10238W        W76647  38.339  15.887   4.459
10239W        W76648   2.259   2.215   2.868
10240W        W76649   3.861  43.487  10.693
10241W        W76650  18.529  12.242  14.490
10242W        W76651  23.602   4.157  14.368
10243W        W76652   4.700  35.758   0.609
10244W        W76653  26.523  36.713  12.840
10245W        W76654  31.931   6.282   3.128
10246W        W76655  42.444  12.883   4.269
10247W        W76656  36.790  24.977  14.927
10248W        W76657  31.096  25.070   1.118
10249W        W76658  35.071  30.300   2.193
10250W        W76659   8.316  29.641   4.000
10251W        W76660  42.381  15.810   1.915
10252W        W76661  16.086  40.070  12.519
10253W        W76662  11.205   1.513   2.335
10254W        W76663   0.459   3.971  12.954
10255W        W76664  18.840  17.171  12.591
10256W        W76665   0.986   8.413  12.651
10257W        W76666  13.662   5.329   1.391
10258W        W76667  37.335  28.902   0.413
10259W        W76668  39.611  44.532   3.660
10260W        W76669   5.213  43.777  13.324
10261W        W76670  26.475  26.488   3.682
10262W        W76671   2.951  16.209   1.358
10263W        W76672  36.522  20.558   2.110
10264W        W76673   4.396  19.610   4.114
10265W        W76674  10.659  13.822  11.213
10266W        W76675  33.983  37.511  12.961
10267W        W76676  25.570   2.105  11.871
10268W        W76677   9.909   2.515  11.128
10269W        W76678  42.686  34.983  14.352
10270W        W76679   1.758  13.248   3.945
10271W        W76680  25.507  37.466  14.402
10272W        W76681   9.573   0.067   3.725
10273W        W76682  12.663  43.213   2.798
10274W        W76683  12.777   3.134   5.296
10275W        W76684  19.647  44.796   4.565
10276W        W76685  28.482  28.410   0.905
10277W        W76686  43.438   9.331   0.251
10278W        W76687  22.623  24.060  12.868
10279W        W76688  13.033  32.174  11.007
10280W        W76689   0.804  16.187  12.455
10281W        W76690  32.966   8.655   3.207
10282W        W76691  31.038   5.571  13.839
10283W        W76692  35.329   4.425  11.113
10284W        W76693   9.153  44.760   4.599
10285W        W76694   7.249   6.243  13.449
10286W        W76695  35.033  34.882   2.656
10287W        W76696  19.349  30.402   3.649
10288W        W76697  34.925   1.393  13.554
10289W        W76698  29.957   1.163   2.199
10290W        W76699   5.164  26.445  13.863
10291W        W76700  38.797  41.535  14.928
10292W        W76701  12.758  29.976   3.708
10293W        W76702  29.059  27.759  10.769
10294W        W76703  26.820   0.642   3.332
10295W        W76704  12.082   8.140   2.783
10296W        W76705  24.885   8.755  10.176
10297W        W76706  24.140  18.001   1.443
10298W        W76707  11.757   3.000  12.301
10299W        W76708  40.838  20.019  11.167
10300W        W76709  19.366  34.419   1.881
10301W        W76710  19.046  28.665  14.445
10302W        W76711  23.884  28.949   2.903
10303W        W76712   8.791  38.597   3.179
10304W        W76713  37.452  39.876   0.411
10305W        W76714   8.832  42.425  10.951
10306W        W76715  15.833   9.310  11.912
10307W        W76716  31.590  26.072  13.875
10308W        W76717  39.510  36.824  10.642
10309W        W76718   0.675  21.157  11.010
10310W        W76719  16.580  19.752   2.882
10311W        W76720  15.842  22.153   0.794
10312W        W76721   1.728  43.464   0.980
10313W        W76722  16.171  41.760   5.441
10314W        W76723  22.745  35.370  14.994
10315W        W76724  32.614  11.702   3.343
10316W        W76725   6.814  28.022  11.361
10317W        W76726  35.396  41.093   2.472
10318W        W76727  38.650  31.180  14.348
10319W        W76728  41.220  28.639  13.881
10320W        W76729  29.022  27.261  12.003
10321W        W76730  33.874  36.930  11.180
10322W        W76731  20.010   7.259   4.440
10323W        W76732  21.723  11.647  13.450
10324W        W76733  28.710  15.659  14.965
10325W        W76734  37.933  42.508   3.547
10326W        W76735  25.312   0.310   0.650
10327W        W76736  21.021  26.452   5.116
10328W        W76737   8.541  31.091  14.766
10329W        W76738  38.364   0.410   3.206
10330W        W76739  41.386  38.129   2.850
10331W        W76740   8.266  26.099  11.129
10332W        W76741  29.268  12.809   3.722
10333W        W76742   3.760  19.368  12.544
10334W        W76743  22.560  29.528  10.678
10335W        W76744  34.117  25.591   3.885
10336W        W76745   1.500  24.726   0.445
10337W        W76746  15.853  15.725  14.951
10338W        W76747  19.554   9.857   3.378
10339W        W76748   6.638   5.794   1.823
10340W        W76749  16.008  24.517   1.443
10341W        W76750  10.592   6.926  14.170
10342W        W76751  28.771  21.053   0.517
10343W        W76752   0.953   8.168   1.863
10344W        W76753  27.175  42.509  14.901
10345W        W76754  22.573  36.338  13.210
10346W        W76755  33.667   1.380  12.480
10347W        W76756   4.160   3.786   0.324
10348W        W76757  11.309  39.920  13.373
10349W        W76758  29.633  42.811  13.673
10350W        W76759  35.810  25.968  14.582
10351W        W76760  24.240  40.806  12.045
10352W        W76761  19.345  35.404   1.756
10353W        W76762  22.592  31.836   0.899
10354W        W76763  32.555  24.766   0.627
10355W        W76764  32.681  32.878  12.117
10356W        W76765  31.962  15.498  13.989
10357W        W76766   9.588   7.532  10.253
10358W        W76767  33.606  34.497  11.721
10359W        W76768  39.103  12.706  14.539
10360W        W76769  15.765  33.528   4.656
10361W        W76770  13.432  24.529  12.881
10362W        W76771  19.143  30.360  14.756
10363W        W76772  14.111  41.916  10.336
10364W        W76773  18.250  40.043   4.894
10365W        W76774  21.513  11.185   4.627
10366W        W76775  13.858  44.713   4.402
10367W        W76776  18.235  14.675  11.150
10368W        W76777  33.162  33.471   4.681
10369W        W76778   2.848  15.363  10.802
10370W        W76779   7.280  31.350   2.280
10371W        W76780  25.135  40.987  14.622
10372W        W76781   4.678  42.585   5.035
10373W        W76782  42.137  20.611   3.753
10374W        W76783  41.484  42.683  10.585
10375W        W76784  28.581  31.685   0.957
10376W        W76785   0.584  10.202  11.691
10377W        W76786  23.072   9.005  14.978
10378W        W76787  43.785  34.348   2.335
10379W        W76788  19.780  14.413   1.646
10380W        W76789  14.170  26.797   0.705
10381W        W76790  44.789   5.975   1.107
10382W        W76791   6.686  17.585   3.695
10383W        W76792  15.617  39.171   5.003
10384W        W76793   9.659   3.929   2.857
10385W        W76794  40.609  26.456  14.284
10386W        W76795  24.704  14.361   0.863
10387W        W76796   9.844  44.180   0.008
10388W        W76797  12.481  44.854   2.348
10389W        W76798  37.854   8.155   0.289
10390W        W76799  35.588  38.395   0.082
10391W        W76800  17.810  23.715   0.082
10392W        W76801   3.385   8.146  14.816
10393W        W76802  27.815  34.443   1.177
10394W        W76803   7.616   6.300   2.726
10395W        W76804  12.156  27.071   0.996
10396W        W76805  29.624  29.855   0.766
10397W        W76806  40.190  11.649   0.776
10398W        W76807  39.617  37.530  14.487
10399W        W76808  30.912  28.169   0.489
10400W        W76809  23.477  17.590  11.624
10401W        W76810  35.011  39.995  11.579
10402W        W76811  21.463  19.100   3.246
10403W        W76812   9.211  30.127  13.451
10404W        W76813  17.336  26.622   2.801
10405W        W76814  16.277  13.872  13.899
10406W        W76815   2.646   6.164   1.384
10407W        W76816  40.528  41.005   1.816
10408W        W76817  18.534   9.904  12.134
10409W        W76818  40.633   2.992   2.701
10410W        W76819  21.665  40.558   3.911
10411W        W76820  33.521  19.145  10.535
10412W        W76821  27.127  14.360   4.748
10413W        W76822   0.337   8.222  14.849
10414W        W76823  36.063  29.650  13.814
10415W        W76824  39.584   2.200   1.510
10416W        W76825  21.275  38.270   0.789
10417W        W76826   3.460   4.891  12.245
10418W        W76827  27.910   5.716  13.981
10419W        W76828  30.590  42.956   1.878
10420W        W76829  26.205  10.840   0.343
10421W        W76830   1.231  34.554  13.338
10422W        W76831   6.243   1.734  14.415
10423W        W76832  44.689  24.006  11.712
10424W        W76833  36.609  17.675   5.471
10425W        W76834  29.076  39.079  12.437
10426W        W76835  26.197   9.199  13.536
10427W        W76836  39.121  30.290   3.392
10428W        W76837  30.690  43.974  11.399
10429W        W76838  25.154  35.363   4.800
10430W        W76839  42.072  25.464  14.352
10431W        W76840   5.424  20.834   2.131
10432W        W76841  40.311  33.501  13.519
10433W        W76842  26.205   2.358  10.964
10434W        W76843   6.691   6.780   0.507
10435W        W76844  18.719  29.920  11.555
10436W        W76845  10.295  38.838   4.730
10437W        W76846   3.559  33.653   1.471
10438W        W76847  21.664   4.366  10.706
10439W        W76848  13.619   9.109  14.829
10440W        W76849  29.912  16.333   1.176
10441W        W76850  25.384   9.989  10.729
10442W        W76851   8.439   8.231   2.346
10443W        W76852  44.077  42.558   1.666
10444W        W76853  27.774  15.471   0.118
10445W        W76854  25.557  43.508  11.522
10446W        W76855  12.912  21.337  11.702
10447W        W76856   9.395  25.243   4.044
10448W        W76857  36.395  26.542  12.266
10449W        W76858  29.435   4.863   0.850
10450W        W76859  19.518  18.359   4.287
10451W        W76860  22.143   8.197  14.868
10452W        W76861  12.185   2.713  13.513
10453W        W76862  24.431  15.107  11.015
10454W        W76863  12.686  34.051   3.947
10455W        W76864  35.885  22.086  12.111
10456W        W76865  37.933  15.961   2.705
10457W        W76866   3.865  27.253  11.727
10458W        W76867   9.106  34.208   4.968
10459W        W76868  37.116   2.954   0.433
10460W        W76869  30.487   9.472  12.506
10461W        W76870   0.431   8.530   1.822
10462W        W76871   7.705  36.000   1.659
10463W        W76872  20.953  17.711   4.559
10464W        W76873  18.800   4.285   2.270
10465W        W76874  36.922  37.564  13.374
10466W        W76875  13.368  39.332   3.091
10467W        W76876  42.708  24.714  12.547
10468W        W76877   2.234  31.868   0.831
10469W        W76878  44.474  21.268   2.179
10470W        W76879  14.062   1.368   2.235
10471W        W76880  19.064   0.519  11.966
10472W        W76881  22.104  38.313  12.988
10473W        W76882  29.531   2.432  14.678
10474W        W76883  39.884  29.884  14.272
10475W        W76884  23.685  41.558   2.176
10476W        W76885  20.384  18.769  13.303
10477W        W76886  44.447  22.700  11.684
10478W        W76887   7.473  20.693  14.736
10479W        W76888  12.648  32.372   2.308
10480W        W76889  34.623  19.040   0.943
10481W        W76890  12.188  33.570   0.549
10482W        W76891   3.436  40.816   2.302
10483W        W76892   7.133  37.543  11.894
10484W        W76893  21.962  40.457  14.852
10485W        W76894  14.778   0.644  10.189
10486W        W76895   0.785  22.431   4.576
10487W        W76896  30.084  37.064   3.234
10488W        W76897   2.158  43.782   3.277
10489W        W76898   4.708  36.396  11.546
10490W        W76899  40.544  39.975   3.136
10491W        W76900  41.290  23.307  10.816
10492W        W76901  39.368  42.255   2.398
10493W        W76902   9.616  17.820   1.456
10494W        W76903   3.736  34.158  14.835
10495W        W76904  26.779  22.018   2.607
10496W        W76905  11.935   8.048   4.964
10497W        W76906   0.722  16.796  13.516
10498W        W76907  23.415  32.156  12.560
10499W        W76908  35.928  35.877   2.275
10500W        W76909  27.940  42.269   0.195
10501W        W76910  15.687  28.266   4.990
10502W        W76911  13.275  41.926  12.969
10503W        W76912  21.006  44.059  12.289
10504W        W76913  22.629  11.225  14.810
10505W        W76914  34.456   3.382  11.682
10506W        W76915  15.871  23.136   0.804
10507W        W76916   8.441  43.452   3.354
10508W        W76917   5.349  22.327  10.729
10509W        W76918  32.914  36.285   2.290
10510W        W76919  36.533   5.133  13.943
10511W        W76920  38.357  41.148  11.139
10512W        W76921  31.219  38.885  11.253
10513W        W76922  33.860  10.335   0.376
10514W        W76923  32.953  38.462   0.987
10515W        W76924  40.761  32.407  13.601
10516W        W76925   0.182  38.378   1.568
10517W        W76926  30.599  19.523  12.090
10518W        W76927  43.856  41.107   1.755
10519W        W76928  11.381  21.999  10.887
10520W        W76929  24.731  32.494  10.551
10521W        W76930  36.731  23.095  14.380
10522W        W76931  42.437  23.062   0.163
10523W        W76932   2.855  16.861  14.073
10524W        W76933  26.468  36.707   4.325
10525W        W76934   3.477   6.248  13.771
10526W        W76935   1.032  35.980   2.263
10527W        W76936   2.980   3.060  14.040
10528W        W76937  25.078  33.378   2.118
10529W        W76938  38.437   4.739  11.458
10530W        W76939   4.270  19.401  12.627
10531W        W76940   0.514  39.881   1.739
10532W        W76941  12.775   6.350   1.874
10533W        W76942  36.701  36.870  10.798
10534W        W76943   8.964  35.656  10.725
10535W        W76944   6.059   3.180  13.135
10536W        W76945  18.227  21.137   2.905
10537W        W76946  25.514   0.564  12.878
10538W        W76947  31.489  35.064  14.516
10539W        W76948   7.068  23.428  13.003
10540W        W76949  40.794   6.911   0.269
10541W        W76950  19.766   9.533  13.945
10542W        W76951  40.438   0.968   1.298
10543W        W76952  35.926  16.070  13.030
10544W        W76953  21.341   2.982   3.360
10545W        W76954   4.277  33.860  14.998
10546W        W76955  26.041  15.527   4.372
10547W        W76956  16.270  38.914  14.818
10548W        W76957  31.901   7.245   2.731
10549W        W76958  36.352  40.094   0.996
10550W        W76959   8.749  38.900  10.741
10551W        W76960  17.192  27.202  13.954
10552W        W76961  16.545  11.300  11.217
10553W        W76962  20.607  28.355  13.384
10554W        W76963  15.143  28.900   2.166
10555W        W76964   4.173  24.450   0.807
10556W        W76965  27.569  36.166  12.041
10557W        W76966  16.847  14.720   3.255
10558W        W76967  35.130  20.689   3.371
10559W        W76968  10.832  43.016   3.328
10560W        W76969  12.875  30.310   0.401
10561W        W76970   5.871  40.097  13.823
10562W        W76971  27.976  34.301   5.004
10563W        W76972  44.022  16.726  12.960
10564W        W76973  32.075   8.317   4.148
10565W        W76974  27.212  26.291   0.765
10566W        W76975  13.495  44.630   1.889
10567W        W76976  27.768  22.583  14.922
10568W        W76977  11.159   4.374  12.987
10569W        W76978  35.481  36.996   0.014
10570W        W76979  11.567  13.628   0.243
10571W        W76980  28.514  38.604   3.641
10572W        W76981  40.710  18.112  13.734
10573W        W76982  32.014  14.231  13.555
10574W        W76983   1.719  44.324  14.606
10575W        W76984  40.151   6.199   2.987
10576W        W76985  16.700  37.289   9.712
10577W        W76986   9.337  22.215   2.705
10578W        W76987   5.275  34.098  11.253
10579W        W76988   1.356  28.918   0.302
10580W        W76989  24.467  26.578   0.877
10581W        W76990  23.788  12.763  13.932
10582W        W76991   7.719  24.245   1.324
10583W        W76992   9.299  14.023   1.290
10584W        W76993  31.150   2.499  13.616
10585W        W76994  18.761  29.119  13.175
10586W        W76995  35.416  17.187  10.252
10587W        W76996  33.895  34.063   1.671
10588W        W76997   9.361  31.511   0.484
10589W        W76998  23.915  32.130   2.802
10590W        W76999  43.576  10.447   5.370
10591W        W77000  30.441   5.401  11.323
10592W        W77001  38.022  21.351  13.034
10593W        W77002  40.506   2.232  13.463
10594W        W77003   0.733  37.609   2.720
10595W        W77004  34.612   4.843   0.744
10596W        W77005  36.436  40.058  14.499
10597W        W77006  14.326   0.408  10.205
10598W        W77007  42.542  25.504   2.822
10599W        W77008  43.356  30.109  14.867
10600W        W77009  20.049  38.026   2.792
10601W        W77010  34.377  18.961  11.122
10602W        W77011  40.295  36.287   4.595
10603W        W77012  37.794  10.696  12.909
10604W        W77013  27.546   2.753   2.737
10605W        W77014   7.270  27.984  13.443
10606W        W77015  34.578  19.841  11.496
10607W        W77016  37.892  13.575  13.772
10608W        W77017  24.585  41.499   0.855
10609W        W77018  31.153  30.392   1.625
10610W        W77019  11.827  36.348   1.368
10611W        W77020   9.485  19.812  14.325
10612W        W77021  34.749  12.833  12.962
10613W        W77022  35.408  17.498   4.153
10614W        W77023  21.628  37.367   1.148
10615W        W77024  27.588  22.143   0.304
10616W        W77025  32.617  30.699  11.660
10617W        W77026  39.491  23.037   4.922
10618W        W77027  43.640  39.100  10.178
10619W        W77028  40.085  25.893  11.998
10620W        W77029   2.448  25.023  12.387
10621W        W77030  39.870  19.113   1.954
10622W        W77031   0.888  22.044   3.730
10623W        W77032  14.852  11.142   2.859
10624W        W77033  23.764  23.561  12.753
10625W        W77034  32.920   0.332   4.733
10626W        W77035  23.785  32.078  11.171
10627W        W77036  30.483  18.331  12.741
10628W        W77037  23.388   1.771   2.633
10629W        W77038  16.928  31.595   3.188
10630W        W77039  37.410   5.697   2.694
10631W        W77040  30.887  17.649   2.429
10632W        W77041  22.104  21.059   3.572
10633W        W77042  21.338  43.423   0.571
10634W        W77043  40.042  18.685  11.301
10635W        W77044   3.896  27.753  11.720
10636W        W77045  26.515  31.601  13.594
10637W        W77046  16.653  22.894   4.553
10638W        W77047  27.550  34.639   4.120
10639W        W77048  20.984  34.656  11.149
10640W        W77049  23.591  28.914   1.458
10641W        W77050  36.657  16.782  12.954
10642W        W77051  27.069   6.737  12.185
10643W        W77052  22.301  34.647   0.981
10644W        W77053  12.668   9.294  12.964
10645W        W77054  37.203  26.920   1.297
10646W        W77055  28.566  44.687   3.682
10647W        W77056  44.026   1.333  11.291
10648W        W77057  12.822  11.676  14.837
10649W        W77058  29.664  29.205   1.158
10650W        W77059  30.095  17.559  14.383
10651W        W77060  20.973  39.604  10.543
10652W        W77061  10.703   0.727  12.019
10653W        W77062  32.097   6.898  10.357
10654W        W77063  23.641   5.919  13.921
10655W        W77064   3.356  27.176  11.747
10656W        W77065  39.918  39.278   4.651
10657W        W77066  10.932  16.701   4.482
10658W        W77067  39.495  20.672  13.878
10659W        W77068  33.051  20.112  14.866
10660W        W77069  17.303  13.306  13.091
10661W        W77070  26.114  24.079   4.574
10662W        W77071   1.343  28.396  11.923
10663W        W77072   1.900  31.447   3.123
10664W        W77073  26.002   6.046   4.238
10665W        W77074   9.724  41.603  11.224
10666W        W77075   6.919  12.698   3.335
10667W        W77076  19.917  10.177  11.119
10668W        W77077  27.990  17.843   4.255
10669W        W77078  15.184  38.950  11.566
10670W        W77079  41.948   5.840  11.615
10671W        W77080  22.434   4.285   4.853
10672W        W77081   8.062  35.099   1.968
10673W        W77082  10.660  26.262  13.521
10674W        W77083  12.661  35.060   0.829
10675W        W77084  43.743  33.455  14.915
10676W        W77085   9.431  29.833   4.990
10677W        W77086  41.929  29.449  14.954
10678W        W77087  24.673   6.109   3.649
10679W        W77088  42.457  33.485  12.393
10680W        W77089  28.919  24.010  11.913
10681W        W77090  44.793  34.141   3.536
10682W        W77091  22.101  37.117  11.791
10683W        W77092   9.898  17.293   0.306
10684W        W77093  14.583   0.493   1.612
10685W        W77094  41.324  29.652   0.683
10686W        W77095  32.590   4.301   1.292
10687W        W77096  19.037   5.377   2.957
10688W        W77097  29.547   3.659   4.132
10689W        W77098  19.937  21.128   4.917
10690W        W77099  31.435  34.224  10.508
10691W        W77100  24.617  44.440  10.537
10692W        W77101  39.188  12.110  10.723
10693W        W77102  27.187  38.035  12.869
10694W        W77103  42.964   3.980   0.811
10695W        W77104  40.895  42.846   1.859
10696W        W77105  33.921   6.272   4.356
10697W        W77106  18.608   9.157  13.044
10698W        W77107  32.571  19.687   3.621
10699W        W77108   7.816  16.076  11.027
10700W        W77109  30.923   7.170  12.735
10701W        W77110  35.725   4.440  10.275
10702W        W77111  11.260  16.735  10.796
10703W        W77112  11.075  13.169   0.844
10704W        W77113  23.903  24.304   1.979
10705W        W77114  37.194  33.624   3.715
10706W        W77115   2.218  10.811  13.595
10707W        W77116  36.770  40.875  12.590
10708W        W77117  24.178  25.204   3.685
10709W        W77118   9.744  25.268   4.659
10710W        W77119  20.848  37.420  11.184
10711W        W77120  39.652   9.086   1.230
10712W        W77121  25.627  32.878   2.795
10713W        W77122   7.733   2.954   0.949
10714W        W77123  15.345  33.992  13.513
10715W        W77124  24.199  41.944   4.715
10716W        W77125  24.221  21.225   4.943
10717W        W77126   2.049   3.289   2.216
10718W        W77127  24.424   8.261   3.168
10719W        W77128  18.091   4.258  14.232
10720W        W77129  25.577  34.801   2.660
10721W        W77130  13.522  13.283  10.674
10722W        W77131  27.986  19.036  11.012
10723W        W77132  42.956  26.066  13.827
10724W        W77133   3.022  23.398  10.456
10725W        W77134  44.970  29.911  14.861
10726W        W77135  38.472  28.968   2.355
10727W        W77136  15.721  18.018  14.602
10728W        W77137  39.393  41.008  14.733
10729W        W77138  10.615  43.339   4.585
10730W        W77139  27.614   2.797   0.335
10731W        W77140  26.191  29.557  11.549
10732W        W77141  21.987  12.096   3.245
10733W        W77142  39.457  43.532  12.576
10734W        W77143   3.703  20.081  13.083
10735W        W77144  14.491  33.472   5.014
10736W        W77145  13.660  25.609   2.482
10737W        W77146  11.008  32.409   3.710
10738W        W77147  18.057  22.131   2.360
10739W        W77148   8.824  22.242   1.443
10740W        W77149  23.236  43.498   2.693
10741W        W77150   0.244  43.457  11.134
10742W        W77151  16.697   9.920  12.027
10743W        W77152   4.362  16.822   4.166
10744W        W77153  17.611  18.580   2.715
10745W        W77154   5.979  32.550   1.292
10746W        W77155  17.622  19.654  14.931
10747W        W77156  12.153  44.650   5.353
10748W        W77157  28.489   5.334   0.809
10749W        W77158  25.214  17.925  11.084
10750W        W77159   6.072  34.883   1.988
10751W        W77160   1.987  34.713  11.308
10752W        W77161   2.738  40.755  10.827
10753W        W77162  43.110   2.318   1.162
10754W        W77163  30.872  31.684  14.561
10755W        W77164  32.696  40.477  10.546
10756W        W77165   6.863  42.397  14.837
10757W        W77166  38.814  41.445   2.225
10758W        W77167  19.165  14.189  14.947
10759W        W77168  14.725  31.876  10.741
10760W        W77169  26.356  38.989  13.850
10761W        W77170   6.292  40.846   3.849
10762W        W77171  19.534   5.189   0.323
10763W        W77172  12.690  22.218   4.579
10764W        W77173   2.424  18.800  12.684
10765W        W77174  35.077  39.815   2.141
10766W        W77175  26.032   1.298   1.350
10767W        W77176  11.555   6.314  14.312
10768W        W77177  34.598  35.335  13.507
10769W        W77178  30.386  11.218  12.253
10770W        W77179   0.427  41.520  13.304
10771W        W77180  19.142  37.996   2.704
10772W        W77181  10.607  19.355  13.520
10773W        W77182   8.914   5.825  14.344
10774W        W77183   1.299  14.029  12.684
10775W        W77184  44.261  35.626  13.474
10776W        W77185  30.241  33.640  14.719
10777W        W77186  14.804  44.109  12.561
10778W        W77187  36.470   2.463  11.641
10779W        W77188   2.245   4.375  14.048
10780W        W77189  10.663  37.048   2.729
10781W        W77190  23.678  29.520  14.196
10782W        W77191  25.468  31.012   3.746
10783W        W77192  14.765  37.296  11.722
10784W        W77193  13.852  26.256   0.558
10785W        W77194  25.632  22.226  12.074
10786W        W77195  18.797  19.228   0.163
10787W        W77196   5.795   5.139   0.315
10788W        W77197   3.273  21.032  10.173
10789W        W77198   1.972  35.697   3.770
10790W        W77199  27.995  39.712   4.838
10791W        W77200   8.145  43.070   3.186
10792W        W77201  18.276  28.108   4.641
10793W        W77202   5.378  10.983  14.370
10794W        W77203  15.866  44.810  14.790
10795W        W77204  26.108   3.944  13.064
10796W        W77205  15.462   4.663  13.606
10797W        W77206  44.011  25.997   3.832
10798W        W77207  38.642  34.911   3.191
10799W        W77208  42.450  22.978   3.720
10800W        W77209  39.294   8.732   2.412
10801W        W77210  24.136  44.927   2.724
10802W        W77211  44.483  29.915  12.161
10803W        W77212   4.268  21.872   4.589
10804W        W77213  37.463   8.769  13.317
10805W        W77214  12.160  16.156  14.516
10806W        W77215  30.846   2.859  13.358
10807W        W77216  38.218  24.678  14.074
10808W        W77217  41.755  35.733  11.525
10809W        W77218  23.603  20.737  13.557
10810W        W77219  30.646  44.071   0.699
10811W        W77220   5.409  23.107  14.503
10812W        W77221   6.609  33.032   2.718
10813W        W77222  27.524   0.504   2.498
10814W        W77223  25.954  10.846   3.616
10815W        W77224  20.272  27.615   4.695
10816W        W77225   9.347   3.775  12.017
10817W        W77226  28.981   4.445   4.949
10818W        W77227  32.733  30.874   0.693
10819W        W77228  29.107   1.844   1.591
10820W        W77229  41.141  11.389   2.635
10821W        W77230  28.543  20.103   0.389
10822W        W77231  30.514  30.439  11.168
10823W        W77232   6.884  29.150  14.346
10824W        W77233  41.924  25.149   0.235
10825W        W77234   6.905  39.236  12.947
10826W        W77235   4.287   7.065  14.355
10827W        W77236  10.621   5.230   4.792
10828W        W77237  38.596   5.685   4.143
10829W        W77238  33.850  12.257  12.832
10830W        W77239  19.081  10.221   2.872
10831W        W77240  43.177  39.934  13.101
10832W        W77241  35.805  19.721  14.534
10833W        W77242   2.027  43.642  11.528
10834W        W77243  27.442  38.266   3.220
10835W        W77244   1.478  19.475   4.510
10836W        W77245  33.566  17.352   2.400
10837W        W77246   8.205  13.114  10.720
10838W        W77247   2.429   5.737   2.377
10839W        W77248  10.307  43.400  13.729
10840W        W77249  26.560  14.080   3.462
10841W        W77250  19.319  14.811   3.375
10842W        W77251  23.079   0.616  12.355
10843W        W77252   1.934  30.897  12.183
10844W        W77253  34.145  34.590  14.046
10845W        W77254  22.108   8.725   1.732
10846W        W77255  42.906  41.935   3.833
10847W        W77256   3.301   3.747  14.861
10848W        W77257  20.227  23.394  13.527
10849W        W77258  41.513  21.786  12.929
10850W        W77259  23.961  11.534  13.660
10851W        W77260  40.255  21.638  11.435
10852W        W77261  16.559  20.588   3.275
10853W        W77262  37.470  29.654  13.859
10854W        W77263  14.246   5.396  11.758
10855W        W77264   9.173  13.715  14.321
10856W        W77265   6.230  17.116   2.086
10857W        W77266   4.198  16.959  11.834
10858W        W77267  17.388  34.879   3.234
10859W        W77268  32.468  40.743   4.067
10860W        W77269   7.649  13.725  11.625
10861W        W77270  21.440  38.801   0.930
10862W        W77271  24.091  37.568  12.856
10863W        W77272  22.015  30.602   0.243
10864W        W77273  21.573  30.751  10.756
10865W        W77274  28.912  22.214   0.914
10866W        W77275  26.535  32.100   3.672
10867W        W77276  24.076   5.198   4.461
10868W        W77277   3.214  36.956   4.702
10869W        W77278   4.917   9.994  11.142
10870W        W77279  30.708  18.705   4.171
10871W        W77280  10.345   1.021   2.395
10872W        W77281  31.501  14.943  10.693
10873W        W77282  13.933   3.976   4.235
10874W        W77283  32.120  39.878   3.420
10875W        W77284   5.432  24.741  12.379
10876W        W77285  18.536  24.278  13.532
10877W        W77286   6.189   4.064  13.438
10878W        W77287  43.806   3.516  11.583
10879W        W77288  18.034  29.414   0.644
10880W        W77289  22.535  43.897   3.634
10881W        W77290  31.647   0.239   3.720
10882W        W77291   1.340  22.415  12.629
10883W        W77292  19.270  16.825  13.374
10884W        W77293   0.768  44.791   0.348
10885W        W77294  12.123  23.066  12.565
10886W        W77295  23.656  32.492   4.723
10887W        W77296  17.628  16.267   2.990
10888W        W77297  25.948  36.860  13.391
10889W        W77298   5.658  23.761   0.096
10890W        W77299   9.698  26.634  13.816
10891W        W77300  20.304  44.289  13.392
10892W        W77301  32.507  12.869   1.825
10893W        W77302  25.488  40.871   4.135
10894W        W77303  36.857   2.091   3.353
10895W        W77304  37.563  20.139  13.839
10896W        W77305   2.162  27.095   0.922
10897W        W77306  31.974  38.902  11.978
10898W        W77307   4.705  15.132   2.377
10899W        W77308  15.063  24.157  10.586
10900W        W77309   0.528  20.204   1.917
10901W        W77310   7.948  36.484   1.027
10902W        W77311  44.779  38.858   4.157
10903W        W77312  10.612  27.093   3.138
10904W        W77313  10.119   2.490  14.566
10905W        W77314   2.377  33.860   3.316
10906W        W77315   3.121  41.985  10.586
10907W        W77316  12.390  11.653   2.908
10908W        W77317   6.664  31.058  14.806
10909W        W77318  36.861  15.310  10.216
10910W        W77319   5.713   2.106  13.902
10911W        W77320  37.486   0.488   9.985
10912W        W77321  39.824  16.436  13.567
10913W        W77322  38.185   9.752  13.394
10914W        W77323  25.544  14.563  10.262
10915W        W77324  14.657  11.506   0.052
10916W        W77325  38.226   9.182   4.765
10917W        W77326  32.328  26.713  13.926
10918W        W77327   6.986  28.072   1.880
10919W        W77328  42.557   9.694  12.994
10920W        W77329  23.136   3.736   4.524
10921W        W77330  13.874  16.209   0.473
10922W        W77331  36.538  15.181   4.240
10923W        W77332  29.437  22.303   2.666
10924W        W77333  37.095  43.457   3.410
10925W        W77334   9.871   0.514   0.482
10926W        W77335  31.560   8.318   5.051
10927W        W77336  27.390  29.706  13.069
10928W        W77337  11.647  26.719   2.327
10929W        W77338  10.164  26.340   3.358
10930W        W77339  14.490  23.919   3.702
10931W        W77340  30.140  19.576   4.706
10932W        W77341  34.153  20.337  12.463
10933W        W77342  42.928   4.748  14.440
10934W        W77343  24.149  22.014  12.612
10935W        W77344   3.490  41.812   4.665
10936W        W77345   6.617  43.589  10.717
10937W        W77346   3.659  17.061   3.965
10938W        W77347   3.378  39.037   2.608
10939W        W77348  44.756   4.358  11.527
10940W        W77349  12.652  17.761  10.657
10941W        W77350   6.223  28.124   3.735
10942W        W77351  42.391   8.727  14.846
10943W        W77352   2.029  33.275  12.436
10944W        W77353  23.736  38.447   3.678
10945W        W77354   5.999  41.599  11.695
10946W        W77355  11.936   5.707   4.928
10947W        W77356   7.206   0.709  13.313
10948W        W77357  34.624  17.798  10.512
10949W        W77358   8.715  40.945  11.501
10950W        W77359   3.853  30.611   3.549
10951W        W77360  17.231  16.574  14.549
10952W        W77361   8.943  31.450   4.714
10953W        W77362  35.649  23.478  12.031
10954W        W77363   6.669  39.571  10.776
10955W        W77364  35.445  27.707   0.756
10956W        W77365  43.566  42.210  13.120
10957W        W77366   2.975  15.790   1.689
10958W        W77367  23.977  12.419   2.453
10959W        W77368  41.255   3.902  12.118
10960W        W77369  32.581  40.104  14.835
10961W        W77370  36.665   7.673  14.814
10962W        W77371  30.205   4.178   3.293
10963W        W77372   1.338  44.690  14.784
10964W        W77373  14.616  31.985   4.158
10965W        W77374  23.596   5.024   2.850
10966W        W77375  23.745  21.446   4.972
10967W        W77376   6.843  12.529  10.778
10968W        W77377  37.686   3.668   3.607
10969W        W77378  37.818  12.760   4.032
10970W        W77379  40.058   6.378  13.349
10971W        W77380  12.938  35.342  12.601
10972W        W77381   0.198  40.876  14.302
10973W        W77382  15.874  20.179  11.934
10974W        W77383   9.413   9.320   1.213
10975W        W77384  18.154  34.846  11.433
10976W        W77385  32.675   4.372   4.612
10977W        W77386  32.915  14.987   2.200
10978W        W77387   5.757   9.133   0.566
10979W        W77388  29.517  28.354  14.908
10980W        W77389  41.827  34.327  11.359
10981W        W77390   2.340  10.832  12.402
10982W        W77391  11.111  41.491   1.889
10983W        W77392  22.857  33.766  13.402
10984W        W77393   1.510  19.722  12.169
10985W        W77394  18.707  18.784  13.047
10986W        W77395  12.166  29.449   1.889
10987W        W77396  15.034  32.445  13.568
10988W        W77397  17.587  40.548   2.096
10989W        W77398   9.330   0.838   2.175
10990W        W77399  24.062   5.755   0.454
10991W        W77400   8.331  38.587   3.746
10992W        W77401  36.358  24.708  14.922
10993W        W77402  22.463  41.411  13.576
10994W        W77403  31.929  26.956  12.670
10995W        W77404  30.675   9.687  12.939
10996W        W77405  17.045  41.562   3.708
10997W        W77406   6.843   2.143   0.857
10998W        W77407  27.123   6.110  14.731
10999W        W77408  20.020  22.675   3.172
11000W        W77409  16.866  18.339  12.446
11001W        W77410  26.181   2.337   1.925
11002W        W77411  13.383  29.970   3.066
11003W        W77412  28.471  33.092   0.248
11004W        W77413   4.653  12.773   0.358
11005W        W77414  12.160  43.543  10.310
11006W        W77415   6.472  32.900  14.855
11007W        W77416  38.456   6.818  13.063
11008W        W77417  27.377   0.006   0.728
11009W        W77418   9.125   1.788  13.845
11010W        W77419  42.484   6.464  14.482
11011W        W77420  18.484  27.274   2.661
11012W        W77421   7.794  13.136  13.432
11013W        W77422   3.798  39.540  13.317
11014W        W77423  17.990   1.880  14.435
11015W        W77424  31.864  21.829   4.569
11016W        W77425   3.698  22.088   2.686
11017W        W77426  22.558  33.310  10.757
11018W        W77427  24.192   9.142  11.239
11019W        W77428   7.588  26.634   1.343
11020W        W77429   9.271  36.415   2.865
11021W        W77430  23.352  43.023  14.872
11022W        W77431   6.787  11.852   3.070
11023W        W77432  24.773   2.846   4.120
11024W        W77433  33.454  10.357   9.931
11025W        W77434  23.504  24.243   0.914
11026W        W77435  27.939  41.060  11.164
11027W        W77436   2.398  44.503   0.742
11028W        W77437  33.705  30.682   0.851
11029W        W77438   1.903  17.716   1.322
11030W        W77439  37.443  22.554  14.516
11031W        W77440  17.456  24.656   2.188
11032W        W77441   8.440  24.250  13.400
11033W        W77442  38.313  28.619   0.480
11034W        W77443  39.511  40.211   2.387
11035W        W77444  18.251  10.137  13.047
11036W        W77445  27.286  12.542   2.821
11037W        W77446   7.400  19.124  14.551
11038W        W77447  40.256  16.845  12.467
11039W        W77448   1.272  11.925  11.026
11040W        W77449   6.389  35.635   2.957
11041W        W77450   9.792   8.213   4.813
11042W        W77451   7.137  28.979  11.785
11043W        W77452  25.736   2.814  14.807
11044W        W77453  38.089  31.552  12.479
11045W        W77454  14.645  25.201   0.386
11046W        W77455   3.723  13.834  12.460
11047W        W77456  25.758  42.285   1.763
11048W        W77457  41.108  25.297  10.221
11049W        W77458  40.076  34.055  10.716
11050W        W77459  21.521  34.110   3.221
11051W        W77460  15.243  44.220  12.832
11052W        W77461   0.929   6.367   4.552
11053W        W77462   5.298  18.238   4.646
11054W        W77463  42.848  32.891  12.951
11055W        W77464   7.353  44.615  10.158
11056W        W77465  27.935  11.193   3.664
11057W        W77466  26.531  39.226   1.432
11058W        W77467  44.290   8.286   1.947
11059W        W77468  22.624  27.594   4.415
11060W        W77469  20.670  35.991   2.624
11061W        W77470  20.141  39.564   0.208
11062W        W77471   7.821  36.963  10.666
11063W        W77472  13.853   3.966  13.537
11064W        W77473  14.639   3.316  12.421
11065W        W77474   4.821   7.790  14.275
11066W        W77475  40.915  26.608   3.708
11067W        W77476   6.101  26.275  14.324
11068W        W77477  33.923  20.694   1.330
11069W        W77478  36.597  36.553  14.276
11070W        W77479   9.165   7.996  11.592
11071W        W77480  28.416  13.831   3.227
11072W        W77481  22.143  37.063   3.819
11073W        W77482  26.137  39.379  11.647
11074W        W77483   3.793  13.681   3.894
11075W        W77484  23.043  17.556   0.863
11076W        W77485   4.911   9.390   2.241
11077W        W77486  32.075  36.052   2.348
11078W        W77487   1.483  39.761   1.734
11079W        W77488  38.778  33.389   1.875
11080W        W77489   0.248   3.734  13.387
11081W        W77490  16.753  13.096  10.779
11082W        W77491  31.576  26.613  12.495
11083W        W77492   0.490  31.162  11.136
11084W        W77493  38.135   3.934   1.269
11085W        W77494  20.349  36.606   4.704
11086W        W77495  13.145  35.923  13.294
11087W        W77496  33.423  20.646   0.383
11088W        W77497   8.358  17.189  11.943
11089W        W77498  15.919  40.550  11.128
11090W        W77499  11.165  21.554   2.891
11091W        W77500   1.321  39.579  12.052
11092W        W77501  23.304  32.536   1.918
11093W        W77502  39.921  40.695  11.672
11094W        W77503  14.779  20.322   4.593
11095W        W77504  38.143  18.111  13.425
11096W        W77505  28.505  40.330  14.015
11097W        W77506  27.099  29.515  10.428
11098W        W77507  19.281  22.998  10.456
11099W        W77508  30.607   9.736   0.004
11100W        W77509  23.481  19.531   3.235
11101W        W77510  40.016  36.583  11.561
11102W        W77511   1.129  22.322  11.606
11103W        W77512  42.096  15.019   4.072
11104W        W77513  12.330  44.965  10.640
11105W        W77514  33.427  26.266   3.375
11106W        W77515  40.940  19.217   4.046
11107W        W77516   0.192  26.582  12.117
11108W        W77517  43.180  24.588   1.391
11109W        W77518  30.701  35.838   2.513
11110W        W77519  15.456  25.130   2.266
11111W        W77520  31.332  33.016  11.025
11112W        W77521  39.937  35.150  11.496
11113W        W77522  43.905   9.473  14.545
11114W        W77523   8.161  12.546   1.784
11115W        W77524   1.458   5.548  13.078
11116W        W77525  14.444  38.006  12.023
11117W        W77526  28.231  16.710   3.240
11118W        W77527  19.054  41.734  13.321
11119W        W77528   5.900  34.161   2.356
11120W        W77529  16.677   9.031   2.221
11121W        W77530  10.525  33.977   2.716
11122W        W77531  14.089  13.703   4.957
11123W        W77532  19.094   0.273  10.918
11124W        W77533   2.882  17.816   2.519
11125W        W77534  44.242  25.491  11.341
11126W        W77535  20.968   5.392   0.081
11127W        W77536  14.754  16.065   3.246
11128W        W77537  14.680  38.447  12.106
11129W        W77538  39.348  19.302  11.272
11130W        W77539   8.687  16.229   1.783
11131W        W77540  13.145  10.772   0.285
11132W        W77541  41.296   8.807  11.653
11133W        W77542  38.046  10.118   4.105
11134W        W77543  27.890  10.710   3.787
11135W        W77544  43.800  38.638   3.857
11136W        W77545  20.585  29.418   3.405
11137W        W77546  29.159  34.605  12.721
11138W        W77547  22.231  17.670   3.246
11139W        W77548  24.055   7.018  14.848
11140W        W77549   3.533  16.696   3.471
11141W        W77550  28.659   6.605   4.482
11142W        W77551  30.632  30.888  14.932
11143W        W77552  39.044  41.714   2.920
11144W        W77553  38.053  27.411  12.609
11145W        W77554  12.687  38.835   4.974
11146W        W77555  13.301  37.912  14.489
11147W        W77556  29.264  38.451  12.566
11148W        W77557  38.727   5.946  13.297
11149W        W77558  39.601  24.679   1.933
11150W        W77559  16.360  24.117   3.301
11151W        W77560  40.062   4.273   2.234
11152W        W77561  20.740  33.733   3.776
11153W        W77562   5.419  15.218   3.657
11154W        W77563   6.855  42.994  14.468
11155W        W77564  12.925  35.934  12.630
11156W        W77565  12.855  39.542  10.713
11157W        W77566  29.410  13.194  13.268
11158W        W77567  12.326  44.353  14.355
11159W        W77568  41.149  38.534  11.606
11160W        W77569   6.472  15.564   0.809
11161W        W77570  36.340  31.391  11.531
11162W        W77571  29.561   7.673  11.978
11163W        W77572  36.343  18.972   2.763
11164W        W77573  15.549  24.318  10.678
11165W        W77574  10.910  36.615   5.192
11166W        W77575   9.402  35.951   4.662
11167W        W77576  32.920  21.043   0.838
11168W        W77577   6.008  42.387   4.682
11169W        W77578   4.882  22.594   4.544
11170W        W77579  27.141  43.828   3.251
11171W        W77580  31.634   2.229   3.777
11172W        W77581  16.458  26.654   3.772
11173W        W77582  35.042   3.000  14.419
11174W        W77583  14.267   4.006   5.092
11175W        W77584  24.459   4.275  12.314
11176W        W77585  36.800  29.499   3.197
11177W        W77586  13.071  32.038   4.158
11178W        W77587  26.967  43.572   4.211
11179W        W77588  37.441   0.396  11.862
11180W        W77589  26.017  17.727  12.763
11181W        W77590  37.594  38.988  11.489
11182W        W77591   5.791  37.426   0.792
11183W        W77592   3.685  24.601   1.705
11184W        W77593  33.557   6.714   2.443
11185W        W77594  35.068  25.443   0.945
11186W        W77595  29.921  31.703  11.112
11187W        W77596   0.255  11.789   3.421
11188W        W77597  13.858   2.496   3.470
11189W        W77598   9.805  40.871   3.362
11190W        W77599  38.409  39.621  10.752
11191W        W77600   6.430  29.132  12.074
11192W        W77601   0.326  40.392   2.459
11193W        W77602  24.381   3.791  14.946
11194W        W77603   9.134   4.228   3.217
11195W        W77604   2.373  36.288   3.741
11196W        W77605  18.264  18.160   4.691
11197W        W77606  16.614  29.069   0.929
11198W        W77607  30.491  38.300   0.354
11199W        W77608  35.216  44.646   0.073
11200W        W77609   2.117  37.481  10.345
11201W        W77610   8.367  16.469  13.523
11202W        W77611   8.297  35.525   0.261
11203W        W77612  26.149   9.177  12.123
11204W        W77613  15.761  42.820  10.100
11205W        W77614  42.112  44.875   0.027
11206W        W77615  41.779   2.446  14.816
11207W        W77616   8.343  15.149   4.576
11208W        W77617  33.469  29.934  12.769
11209W        W77618  40.123   9.280  10.311
11210W        W77619  40.099   4.487   0.784
11211W        W77620  28.846  44.186  12.138
11212W        W77621  12.854   7.775  14.784
11213W        W77622  40.281  17.587  13.094
11214W        W77623   6.693  14.690   0.865
11215W        W77624  15.637  34.117   1.152
11216W        W77625  28.565  29.263   1.202
11217W        W77626   8.073  16.154  14.452
11218W        W77627  23.658  43.539  13.119
11219W        W77628  28.040  25.306  10.094
11220W        W77629  23.600  18.565   1.809
11221W        W77630  36.083  20.131  12.455
11222W        W77631  33.514  43.373   1.822
11223W        W77632   7.670  25.498  12.706
11224W        W77633  43.324  21.762  14.327
11225W        W77634  24.184  17.680  13.415
11226W        W77635   0.467   5.278  11.239
11227W        W77636  42.566  15.311   2.751
11228W        W77637  37.861   7.774   2.449
11229W        W77638  24.168  42.893   4.627
11230W        W77639  39.102   3.921   0.258
11231W        W77640  31.670  23.547   4.032
11232W        W77641  42.544  22.792   1.857
11233W        W77642  45.000  33.014  11.071
11234W        W77643  35.027  23.540   3.208
11235W        W77644  22.873  14.233   1.237
11236W        W77645   8.259  10.818   2.738
11237W        W77646   3.818   0.873  14.832
11238W        W77647   6.877  29.404  11.061
11239W        W77648  11.755  12.387  14.423
11240W        W77649  40.792  23.158  14.314
11241W        W77650  40.290   8.460   0.793
11242W        W77651   9.323  36.526  13.034
11243W        W77652   4.815  32.203   3.738
11244W        W77653   9.366  11.495   4.182
11245W        W77654  13.695  28.183  13.142
11246W        W77655  25.019  21.784  13.865
11247W        W77656  42.315  14.467  14.338
11248W        W77657  11.731   8.269  13.346
11249W        W77658  12.162   3.877   1.265
11250W        W77659  13.501  39.023   3.930
11251W        W77660   7.400   3.321  11.134
11252W        W77661  21.113  39.255   2.458
11253W        W77662  36.911  36.200   2.151
11254W        W77663  20.112  30.459   2.231
11255W        W77664  18.787   6.829   2.689
11256W        W77665   5.216  33.820   1.877
11257W        W77666  14.500   0.929  14.942
11258W        W77667  37.658  39.299  14.549
11259W        W77668  33.054  35.155   4.645
11260W        W77669   7.947  14.661   1.229
11261W        W77670  11.375  36.087   2.167
11262W        W77671  37.451   5.228  10.512
11263W        W77672   1.763  36.011  11.066
11264W        W77673  36.259  13.137  11.576
11265W        W77674  18.581   0.468   1.517
11266W        W77675  15.646   0.314   9.772
11267W        W77676  39.338  34.067   2.417
11268W        W77677  25.649  15.858   0.914
11269W        W77678  22.079   4.535   3.913
11270W        W77679  10.514  41.471   3.209
11271W        W77680   8.931   2.685   3.296
11272W        W77681  37.576   3.356  14.560
11273W        W77682   3.170  21.907   1.819
11274W        W77683  17.556  37.447   3.225
11275W        W77684  15.738  13.896  11.602
11276W        W77685  38.262  43.917   0.319
11277W        W77686  26.847  10.380  12.614
11278W        W77687  10.603  14.642   0.412
11279W        W77688  24.141  19.948   4.597
11280W        W77689  40.290  31.854  13.010
11281W        W77690   7.134  18.048   4.531
11282W        W77691  15.176  37.445  11.433
11283W        W77692  33.621   1.958  12.159
11284W        W77693   3.949  19.933   3.405
11285W        W77694  26.490  17.795   1.947
11286W        W77695   7.458  39.917  11.592
11287W        W77696  33.487  17.892  14.973
11288W        W77697  38.650  25.126   0.739
11289W        W77698  40.440  29.668  13.634
11290W        W77699   3.144   2.308   0.774
11291W        W77700  30.551  15.836  14.960
11292W        W77701  36.102  11.816  10.801
11293W        W77702   1.816   4.849  11.092
11294W        W77703  11.735   6.832   1.484
11295W        W77704   4.285  40.843  13.192
11296W        W77705  13.417  41.783   1.986
11297W        W77706  24.511  35.510   4.166
11298W        W77707  17.170   8.252   4.402
11299W        W77708  31.987   3.462   1.754
11300W        W77709   3.507   6.387  11.435
11301W        W77710  31.457  10.045   0.048
11302W        W77711   3.809  29.912  11.065
11303W        W77712  44.197  19.821   4.254
11304W        W77713  40.321   2.664   2.958
11305W        W77714   6.407  21.216  14.415
11306W        W77715  18.930  32.535   4.484
11307W        W77716  38.099  38.447  14.877
11308W        W77717  37.241  23.514  11.705
11309W        W77718  44.438  33.353   5.056
11310W        W77719  11.347  32.793   3.816
11311W        W77720  26.684   1.614   0.388
11312W        W77721  17.810  21.711   1.848
11313W        W77722   8.275  23.087   2.202
11314W        W77723  43.050  26.782   1.423
11315W        W77724  15.317   6.154   2.151
11316W        W77725   3.496  24.920  11.562
11317W        W77726   2.330   0.939  11.651
11318W        W77727  34.609  31.472  14.796
11319W        W77728   2.493  33.892  10.818
11320W        W77729  16.572   2.797   3.293
11321W        W77730  39.450   4.269  11.515
11322W        W77731   5.430   4.491   3.690
11323W        W77732   3.107  21.952  12.216
11324W        W77733  41.670  37.111   1.906
11325W        W77734  43.591   2.652   4.043
11326W        W77735   9.159   2.708  12.092
11327W        W77736  28.235  40.688  10.285
11328W        W77737  26.406   7.983   3.206
11329W        W77738  32.404  41.501   0.708
11330W        W77739   1.832  35.093  13.937
11331W        W77740  41.307  39.376   1.072
11332W        W77741  25.959  20.170  14.732
11333W        W77742  33.859   1.341   1.349
11334W        W77743  41.201  32.804  13.753
11335W        W77744   6.135  10.872  12.148
11336W        W77745  44.387   0.510  13.887
11337W        W77746  29.175   9.915   3.141
11338W        W77747   1.227  33.079   2.616
11339W        W77748  13.143  16.099  14.495
11340W        W77749  37.077  41.844   2.642
11341W        W77750   9.075  40.536  11.018
11342W        W77751  28.658  16.771   3.631
11343W        W77752  27.207  23.079  13.359
11344W        W77753  35.378  11.594   3.122
11345W        W77754  23.944  39.932   2.844
11346W        W77755  26.411  40.756   3.026
11347W        W77756  40.291  26.955   3.338
11348W        W77757  31.029  18.279  12.569
11349W        W77758  35.581  18.860  13.090
11350W        W77759  22.322  44.817   0.690
11351W        W77760  19.780  20.528   2.533
11352W        W77761  26.992  13.402   0.368
11353W        W77762  36.068   6.256   2.782
11354W        W77763  10.986   2.041  11.694
11355W        W77764  19.569   0.444  14.500
11356W        W77765  27.964  27.962   1.344
11357W        W77766  24.665   8.425  11.349
11358W        W77767   9.636  21.989  13.086
11359W        W77768  27.540  37.979   4.306
11360W        W77769  28.568  41.507  10.721
11361W        W77770  43.408  15.097  11.927
11362W        W77771  29.862  21.738   0.189
11363W        W77772  26.472   6.376   1.902
11364W        W77773  22.997  10.331  12.899
11365W        W77774  36.225  44.599   4.919
11366W        W77775  15.192  40.727  13.852
11367W        W77776   1.450  28.604   4.678
11368W        W77777  25.397  23.592  10.931
11369W        W77778  41.583  10.400  11.148
11370W        W77779  33.606  42.859  11.270
11371W        W77780  20.511  24.207   4.678
11372W        W77781  12.240  40.635  11.039
11373W        W77782  11.180  41.884  13.834
11374W        W77783  16.706  18.050   3.199
11375W        W77784  41.174   5.127  11.623
11376W        W77785  25.497  39.035  10.649
11377W        W77786  42.324  22.828  14.282
11378W        W77787  37.002  17.507   2.369
11379W        W77788  20.119  27.145  14.793
11380W        W77789   7.801  43.671  14.013
11381W        W77790  25.678  27.040   4.327
11382W        W77791  21.406   0.898  13.901
11383W        W77792  25.538  38.974   1.815
11384W        W77793  34.460  19.094  12.072
11385W        W77794   3.664  36.485  14.948
11386W        W77795   1.529  32.005   1.382
11387W        W77796   1.441  39.046   3.151
11388W        W77797  11.396  14.389   0.798
11389W        W77798  21.979   9.719   2.150
11390W        W77799  18.177  30.086  11.441
11391W        W77800   2.899  43.296  13.141
11392W        W77801   2.524  41.453   1.259
11393W        W77802  27.243  41.414  10.789
11394W        W77803   0.525  16.261   1.437
11395W        W77804  40.984  43.494  11.393
11396W        W77805   7.815  28.465   0.341
11397W        W77806  32.533  38.879   3.655
11398W        W77807  28.092  44.355   4.546
11399W        W77808  23.197  29.739  12.535
11400W        W77809  40.557  18.500   3.163
11401W        W77810  14.179  36.624   9.937
11402W        W77811  29.516  37.983  12.631
11403W        W77812   2.050  25.075  14.703
11404W        W77813   9.746  33.131   0.265
11405W        W77814   7.148  30.772  12.097
11406W        W77815   6.455  36.460   2.918
11407W        W77816  28.426  32.618   0.463
11408W        W77817   9.389  38.603   3.702
11409W        W77818  44.510  42.287  12.905
11410W        W77819  41.404  28.542  12.496
11411W        W77820  36.390  13.282  11.100
11412W        W77821   9.370  44.263   0.653
11413W        W77822  36.437  33.047  12.590
11414W        W77823   2.039  13.827  11.114
11415W        W77824   0.287  23.659   3.993
11416W        W77825  37.497   4.597  11.542
11417W        W77826  18.125  33.844  13.493
11418W        W77827  19.355  13.149  13.840
11419W        W77828  33.875   4.677   0.007
11420W        W77829  37.461  19.133  11.538
11421W        W77830  26.765  25.601   4.111
11422W        W77831   4.662  29.505   4.172
11423W        W77832  41.737   3.623   2.160
11424W        W77833  32.499  33.185  10.584
11425W        W77834  17.089  11.606   3.669
11426W        W77835   4.282  22.044  11.126
11427W        W77836  12.219  41.338  11.913
11428W        W77837  20.084  33.803   0.844
11429W        W77838   9.409  22.688   0.727
11430W        W77839  43.960   0.042   3.843
11431W        W77840  21.256   8.267  14.953
11432W        W77841  32.559  33.534   3.751
11433W        W77842   0.493  14.776   0.004
11434W        W77843   0.208  28.883  12.272
11435W        W77844  14.053  38.233   1.336
11436W        W77845  15.604  35.748  13.562
11437W        W77846  40.999  28.083   4.038
11438W        W77847  13.604  24.937   4.535
11439W        W77848  37.444   3.698   2.730
11440W        W77849  41.654  25.302   3.745
11441W        W77850   0.052  36.135  12.961
11442W        W77851  13.342  10.786  13.070
11443W        W77852  33.255  23.421   0.825
11444W        W77853  18.483  28.170  14.837
11445W        W77854  15.285  43.023   0.611
11446W        W77855  23.001  14.528   0.489
11447W        W77856  17.067  32.874   0.932
11448W        W77857  23.933  26.131   1.342
11449W        W77858  39.368  43.487  11.175
11450W        W77859  37.613  30.864   0.316
11451W        W77860  41.955   1.982  12.429
11452W        W77861  27.214  13.715  11.168
11453W        W77862  44.248  11.236  13.171
11454W        W77863  38.280  13.846  13.975
11455W        W77864  25.128  13.082  10.774
11456W        W77865   4.809  21.092  10.885
11457W        W77866  42.985  34.675   4.562
11458W        W77867  34.447  13.027  13.616
11459W        W77868  32.462  43.322  11.915
11460W        W77869  18.588  15.527   2.423
11461W        W77870  19.942  15.753  13.860
11462W        W77871  24.283  37.888   0.994
11463W        W77872  44.788  22.481  13.580
11464W        W77873   1.042  27.726   3.964
11465W        W77874  43.790  17.900  12.872
11466W        W77875  30.924   7.203   2.618
11467W        W77876   1.953   5.302   2.992
11468W        W77877  24.725  13.725  12.189
11469W        W77878  10.362  30.235  14.871
11470W        W77879  14.133  14.817   1.489
11471W        W77880  43.792  44.495  14.457
11472W        W77881  27.190  28.123  12.969
11473W        W77882  38.494  39.748  12.469
11474W        W77883  13.643  36.964   3.297
11475W        W77884  16.894  34.726  11.689
11476W        W77885  25.932  32.903  11.617
11477W        W77886  14.231  17.559   2.340
11478W        W77887   2.429  21.756   2.752
11479W        W77888  38.379   4.363   1.914
11480W        W77889  39.324   2.262  13.859
11481W        W77890  30.977   2.409   1.851
11482W        W77891  43.814  40.869  12.458
11483W        W77892  18.681  23.444   3.594
11484W        W77893  35.912  13.379   2.481
11485W        W77894  29.295  28.494   3.764
11486W        W77895  31.396   1.653   3.438
11487W        W77896  18.862  40.868   2.704
11488W        W77897  43.460  25.817   4.834
11489W        W77898   9.367   6.827  13.082
11490W        W77899  29.621  38.500  11.603
11491W        W77900  35.451  10.988   0.287
11492W        W77901  32.619  27.438  14.380
11493W        W77902  35.932   6.956   2.272
11494W        W77903   8.374  39.506  13.936
11495W        W77904  42.412  14.211   1.888
11496W        W77905   2.399  37.400  12.164
11497W        W77906  17.854  40.978   1.969
11498W        W77907  41.235  44.323   1.764
11499W        W77908  39.423   9.853   1.706
11500W        W77909  44.947  42.105  10.673
11501W        W77910   8.657   7.700   1.509
11502W        W77911  37.496  39.911   1.798
11503W        W77912  10.207   0.022   1.227
11504W        W77913  15.807  35.894   0.325
11505W        W77914   8.228  27.885  13.391
11506W        W77915  36.364  22.698   1.846
11507W        W77916   4.324  13.316   4.663
11508W        W77917  15.805  36.600   2.121
11509W        W77918   6.666  30.909   2.816
11510W        W77919  31.052  32.172  14.541
11511W        W77920  12.167  38.839  14.090
11512W        W77921  16.593  44.486  13.489
11513W        W77922  37.851   1.429  12.018
11514W        W77923  40.450   5.186  11.248
11515W        W77924  29.807  25.127   1.817
11516W        W77925  24.023  23.895   2.317
11517W        W77926  10.248  17.278  13.841
11518W        W77927  26.304  31.928   1.823
11519W        W77928  17.290   6.486   3.272
11520W        W77929  29.687   5.829  11.536
11521W        W77930  28.222   6.172  12.288
11522W        W77931  19.047  20.137   1.493
11523W        W77932  14.580  37.110   1.491
11524W        W77933   7.405  43.872  11.488
11525W        W77934  19.162  44.018   0.210
11526W        W77935   7.961   9.314   4.349
11527W        W77936  19.913  38.350  14.016
11528W        W77937  12.132  38.171  12.967
11529W        W77938  22.119  36.147  13.376
11530W        W77939  43.775  37.796   3.266
11531W        W77940  29.230  30.136   4.666
11532W        W77941   8.086  29.050  10.497
11533W        W77942  25.669  24.775   2.704
11534W        W77943  33.926   3.291  11.647
11535W        W77944  44.529  33.732   3.367
11536W        W77945   0.187   5.737   4.846
11537W        W77946   9.677  33.639   0.302
11538W        W77947  40.073  18.167  11.852
11539W        W77948  36.427  15.865   2.669
11540W        W77949  13.315  39.579   1.400
11541W        W77950   2.802   2.886   2.444
11542W        W77951  23.192  27.553  13.212
11543W        W77952   3.767  18.715  14.482
11544W        W77953  33.672  17.120  10.720
11545W        W77954  34.500  29.649  13.593
11546W        W77955  18.837  12.286  14.048
11547W        W77956  15.292  35.336  13.706
11548W        W77957  19.191  21.398   3.977
11549W        W77958  27.299  44.563   0.978
11550W        W77959  44.012  26.529   0.454
11551W        W77960  32.749  12.458  10.771
11552W        W77961  11.118  31.304  14.850
11553W        W77962   4.770   9.722  14.933
11554W        W77963  15.105  30.970   2.704
11555W        W77964  14.649  36.689  12.339
11556W        W77965  27.639   8.270  11.020
11557W        W77966  42.204  30.013  14.280
11558W        W77967  33.410  22.777  14.827
11559W        W77968  13.053  24.758   4.140
11560W        W77969   4.750   6.644   3.709
11561W        W77970   2.073  36.386  13.018
11562W        W77971  18.113  16.590  13.805
11563W        W77972  26.569  35.072  11.159
11564W        W77973  44.776  31.118  12.936
11565W        W77974   2.418  27.606  13.365
11566W        W77975  13.050  22.023  11.364
11567W        W77976  34.116  24.057   2.332
11568W        W77977  15.893  10.244  14.090
11569W        W77978  16.557  24.981   3.787
11570W        W77979  35.932  18.125   4.913
11571W        W77980  36.090   5.903  14.306
11572W        W77981  32.023  27.482  14.858
11573W        W77982  40.013  29.620  12.069
11574W        W77983  21.647  15.378  13.124
11575W        W77984  18.433  22.049   0.616
11576W        W77985  42.975  29.844  13.001
11577W        W77986  35.153  20.891  13.011
11578W        W77987   6.142  37.943  11.085
11579W        W77988   6.153  40.001  14.589
11580W        W77989  23.045  25.719  11.483
11581W        W77990  40.196   5.024  12.150
11582W        W77991  23.633  31.652   2.719
11583W        W77992  32.137  27.554  14.330
11584W        W77993  27.723  28.478  12.462
11585W        W77994   0.870  17.708   3.719
11586W        W77995  18.580  22.588   3.418
11587W        W77996  41.411   6.176   1.365
11588W        W77997  21.419  17.157   1.337
11589W        W77998  39.395   3.728  11.655
11590W        W77999  23.675  13.317  14.800
11591W        W78000   1.551  32.586  14.400
11592W        W78001   0.922  16.009  10.574
11593W        W78002  17.191   1.235   4.831
11594W        W78003   6.862  39.973  14.455
11595W        W78004  34.383  39.825  14.518
11596W        W78005  19.173   4.433   4.488
11597W        W78006  29.394  29.910   3.728
11598W        W78007  36.927  23.530   1.627
11599W        W78008  12.902  19.264   0.258
11600W        W78009   2.252  42.900  13.117
11601W        W78010  35.289   9.317   1.358
11602W        W78011   6.865  41.093   0.312
11603W        W78012  33.313  34.530  12.580
11604W        W78013  39.742   1.215  12.031
11605W        W78014  37.800  39.853   2.796
11606W        W78015   2.923   7.141  12.216
11607W        W78016  39.921  29.321  14.467
11608W        W78017  23.798  35.701   2.359
11609W        W78018  35.454  10.874  11.249
11610W        W78019  42.456  11.701   3.609
11611W        W78020   7.046  17.834  11.081
11612W        W78021   7.594  32.103  12.551
11613W        W78022  11.197  21.163   1.685
11614W        W78023  10.755  25.231   0.364
11615W        W78024  27.272  21.733  10.562
11616W        W78025   7.450   0.891  11.437
11617W        W78026   7.652  12.391   1.793
11618W        W78027  15.177  42.421  11.134
11619W        W78028   9.383  39.858   3.314
11620W        W78029  44.047  20.245   5.103
11621W        W78030  13.940  23.236   3.757
11622W        W78031  31.886  28.358   0.404
11623W        W78032  20.106  39.775   0.675
11624W        W78033   8.318  26.351   4.576
11625W        W78034  20.804   3.351   1.703
11626W        W78035  35.503  37.871  13.794
11627W        W78036  13.002  40.564  10.689
11628W        W78037   6.678  33.494  12.928
11629W        W78038  10.314  20.514  12.417
11630W        W78039   3.753  39.296   0.767
11631W        W78040  39.554   1.298   2.446
11632W        W78041   4.164  40.100  10.754
11633W        W78042  29.237  44.016  14.942
11634W        W78043  32.914  26.543  12.086
11635W        W78044  19.054  31.873   0.277
11636W        W78045  33.890  20.737  12.651
11637W        W78046  14.829  12.279   0.868
11638W        W78047  21.127  27.338  14.479
11639W        W78048   9.133  21.174   0.094
11640W        W78049  28.608  27.895  14.065
11641W        W78050  21.572  26.465   3.608
11642W        W78051   1.027  28.097  13.868
11643W        W78052  17.815   3.884  14.488
11644W        W78053  27.629  14.382  11.535
11645W        W78054  11.479   2.300  12.078
11646W        W78055  21.440  26.030  13.343
11647W        W78056   2.512   1.058   2.271
11648W        W78057  29.551  27.611  10.612
11649W        W78058   9.174  22.214  10.754
11650W        W78059  24.187   0.250   4.215
11651W        W78060  36.366  27.977  13.611
11652W        W78061  34.822  38.713  11.227
11653W        W78062  11.332  42.986   5.053
11654W        W78063  15.193   3.953   4.781
11655W        W78064  33.053  32.438   3.408
11656W        W78065  36.219   1.734  11.521
11657W        W78066  18.201  36.359  11.586
11658W        W78067  11.337  31.814   3.683
11659W        W78068  19.701  39.977  14.237
11660W        W78069  21.653  28.519  13.957
11661W        W78070  39.590  19.154   5.212
11662W        W78071   9.817  20.774   4.658
11663W        W78072  16.583  41.179  13.751
11664W        W78073  35.028  31.391   4.079
11665W        W78074  16.692   4.465   4.572
11666W        W78075  29.060   0.709   0.333
11667W        W78076  38.811  44.883   0.405
11668W        W78077  32.979  27.891  13.551
11669W        W78078   8.780  34.407  14.728
11670W        W78079  29.550  24.024   0.918
11671W        W78080  33.019  19.183   4.409
11672W        W78081  26.564   7.761   4.561
11673W        W78082  19.509  14.773  11.303
11674W        W78083  43.936  19.750   4.935
11675W        W78084  11.439  19.174   0.230
11676W        W78085  34.578  19.704   0.507
11677W        W78086  37.605  17.003  12.189
11678W        W78087  18.720  44.190   0.395
11679W        W78088   8.904  27.541   4.286
11680W        W78089  37.362   0.713  13.302
11681W        W78090  24.810  27.577  11.089
11682W        W78091  35.766  31.015  12.632
11683W        W78092   8.172  25.099  10.167
11684W        W78093  28.767  31.525  10.469
11685W        W78094  34.183  32.661   2.810
11686W        W78095  39.645  22.587  14.912
11687W        W78096  11.365  15.712  14.677
11688W        W78097  37.999  13.056  11.629
11689W        W78098  20.505  10.879  12.912
11690W        W78099  17.303  17.363   0.415
11691W        W78100  15.570  18.760  12.422
11692W        W78101  25.675   7.390   1.819
11693W        W78102   3.656  20.585  14.351
11694W        W78103  37.838  32.308   2.551
11695W        W78104  26.872  42.838  14.564
11696W        W78105   0.884  40.575  12.925
11697W        W78106   2.995  16.602   0.995
11698W        W78107  31.900  12.721   2.451
11699W        W78108   6.042  23.480   4.906
11700W        W78109  16.136   7.858  12.490
11701W        W78110   5.902  18.214  11.553
11702W        W78111  40.349  12.562   0.472
11703W        W78112  27.600  38.055  13.186
11704W        W78113   9.396  37.024  13.367
11705W        W78114  41.132  40.668  12.032
11706W        W78115  30.589  24.062   4.068
11707W        W78116  32.599   1.452  12.498
11708W        W78117  28.862  21.254  13.492
11709W        W78118  12.672  15.583   2.307
11710W        W78119  29.041  18.428   3.831
11711W        W78120  11.676   0.171   2.339
11712W        W78121   4.229  44.005   1.013
11713W        W78122  12.155  15.390   0.562
11714W        W78123  12.919   8.090  12.581
11715W        W78124  13.562   9.433   0.442
11716W        W78125   3.947  38.139  11.093
11717W        W78126  18.119  40.800  11.910
11718W        W78127  17.474   7.373   2.245
11719W        W78128   5.162   9.959  13.837
11720W        W78129  26.119  23.029  14.296
11721W        W78130  20.441  22.064   4.542
11722W        W78131  14.442  41.743  14.398
11723W        W78132  22.628  41.026   2.461
11724W        W78133  28.520  38.174  13.825
11725W        W78134   4.987   0.679  11.932
11726W        W78135  12.452  29.684  13.301
11727W        W78136  43.283  39.463  14.445
11728W        W78137  42.990  14.135  14.230
11729W        W78138   9.148   7.476  13.524
11730W        W78139  27.380  44.524  12.815
11731W        W78140  10.146  36.891   1.288
11732W        W78141   2.922  27.048  12.079
11733W        W78142  32.854   2.677   0.751
11734W        W78143  13.802  38.426  13.862
11735W        W78144  31.109  29.885  13.900
11736W        W78145  15.884  40.042  11.002
11737W        W78146  37.699  29.688  12.402
11738W        W78147  19.539  21.207  14.676
11739W        W78148  11.305   2.642   3.781
11740W        W78149  20.899  10.370  12.335
11741W        W78150   6.124  25.336  12.298
11742W        W78151  38.948  26.075  12.964
11743W        W78152   8.700  15.594   3.740
11744W        W78153  35.955  35.024  12.988
11745W        W78154   4.788   8.324   4.565
11746W        W78155  16.596  31.278   1.218
11747W        W78156  17.319   0.666  11.431
11748W        W78157  25.932  27.026   3.283
11749W        W78158  41.919   8.063   4.361
11750W        W78159  16.780  11.763   4.096
11751W        W78160  36.957  36.403  11.620
11752W        W78161   5.228   5.352  12.941
11753W        W78162   9.154  32.600  14.866
11754W        W78163  39.807  20.160  13.035
11755W        W78164  43.993   1.145   1.262
11756W        W78165  27.024  31.972   0.978
11757W        W78166  13.269   6.282  14.584
11758W        W78167  34.670  28.647   0.466
11759W        W78168  35.393  38.471  10.986
11760W        W78169  39.345   7.930  11.377
11761W        W78170  28.937  33.628  10.989
11762W        W78171  40.309   7.127  12.889
11763W        W78172   6.096  19.055   0.386
11764W        W78173  30.681  29.101  11.492
11765W        W78174  24.589  18.994  13.960
11766W        W78175   1.354  26.077   0.049
11767W        W78176   7.361  44.816   4.127
11768W        W78177  27.501  22.203  14.455
11769W        W78178  32.115  38.205  10.605
11770W        W78179  12.467  24.027   1.018
11771W        W78180  39.795  31.909  13.495
11772W        W78181  10.602  29.907   3.196
11773W        W78182  14.527  14.097   5.331
11774W        W78183  21.510   6.059   1.333
11775W        W78184  34.104   1.540  14.805
11776W        W78185  44.341  31.102  13.885
11777W        W78186  40.387  12.717   3.114
11778W        W78187  16.807   6.895   4.491
11779W        W78188  42.707  23.944   3.790
11780W        W78189  26.578   2.913  13.756
11781W        W78190  35.280  16.686  10.195
11782W        W78191  20.212  20.935  12.437
11783W        W78192  44.910  42.798  14.178
11784W        W78193  14.423   7.785   3.711
11785W        W78194  28.445  23.568  11.431
11786W        W78195  37.872   2.047   2.826
11787W        W78196   2.726  21.632  11.509
11788W        W78197  15.690  28.861   0.126
11789W        W78198   2.909   2.152  14.423
11790W        W78199   3.365  38.520  14.187
11791W        W78200   1.328   7.998  11.426
11792W        W78201   0.824  29.376  13.323
11793W        W78202  30.530  29.935  11.173
11794W        W78203  15.086  28.379   2.156
11795W        W78204   4.752  11.869  14.104
11796W        W78205   2.095   9.165  11.561
11797W        W78206  37.312  13.912   5.005
11798W        W78207   0.502  18.262   1.910
11799W        W78208   8.822  39.986  12.003
11800W        W78209  25.838  28.841  10.135
11801W        W78210   1.989   6.179   0.841
11802W        W78211  14.324  40.298   2.419
11803W        W78212  12.461  38.441  14.215
11804W        W78213  16.774  44.891  14.785
11805W        W78214  22.420  38.061   3.912
11806W        W78215   3.926  17.324  12.137
11807W        W78216  36.464  12.333  14.866
11808W        W78217  36.690  36.471  11.176
11809W        W78218  35.603  26.152   2.402
11810W        W78219  34.962  39.423  14.899
11811W        W78220   7.397  24.052   3.767
11812W        W78221  42.936   1.003   0.672
11813W        W78222  10.773  13.105  12.008
11814W        W78223  18.824   0.811   4.270
11815W        W78224  18.660  33.984  12.212
11816W        W78225   1.256  10.163  12.855
11817W        W78226  30.124  40.886   1.525
11818W        W78227  18.221   6.215   0.391
11819W        W78228  39.084  21.992  11.916
11820W        W78229   1.052  31.015  13.026
11821W        W78230  15.072  34.460  14.470
11822W        W78231  31.547  28.468   3.791
11823W        W78232  33.402  27.970  13.036
11824W        W78233  38.471  13.130  14.399
11825W        W78234  14.900  38.598  14.536
11826W        W78235   9.266  22.932  13.936
11827W        W78236  33.362  37.444   4.148
11828W        W78237  38.108  28.774   0.012
11829W        W78238   9.804  16.711   1.660
11830W        W78239  31.637  38.286   2.400
11831W        W78240   4.550   3.531  11.472
11832W        W78241  30.969  33.325  14.053
11833W        W78242  41.235  18.976   0.531
11834W        W78243  15.058  17.055  13.952
11835W        W78244  33.087  42.745  11.071
11836W        W78245  23.458   8.180   2.906
11837W        W78246  17.308  44.830   0.305
11838W        W78247   8.680   4.233   0.039
11839W        W78248  18.002  11.294   2.371
11840W        W78249  12.646  20.676  11.111
11841W        W78250  16.093   5.494   4.257
11842W        W78251  32.601  36.582   0.365
11843W        W78252  29.952  36.431  14.556
11844W        W78253   9.749   0.348  13.597
11845W        W78254  20.161  24.214   1.778
11846W        W78255   5.933  16.869  11.043
11847W        W78256  19.113  38.044   1.225
11848W        W78257  24.923  10.740  11.906
11849W        W78258  43.383  44.414   0.420
11850W        W78259  36.614  13.338   0.976
11851W        W78260  24.210   9.326  13.928
11852W        W78261   3.810  11.346   4.703
11853W        W78262  10.414  24.807  11.903
11854W        W78263   9.909   2.901  14.871
11855W        W78264   9.736  30.137   0.860
11856W        W78265   2.276  36.474  11.626
11857W        W78266  42.155  36.897   2.860
11858W        W78267  23.688  39.492   1.050
11859W        W78268  33.493  21.154  11.509
11860W        W78269  17.056  30.032  14.343
11861W        W78270  24.170  36.604  13.959
11862W        W78271  42.494  39.833   0.886
11863W        W78272  39.581  11.337  12.012
11864W        W78273  25.445  20.475   5.119
11865W        W78274  32.670  11.085   0.914
11866W        W78275  18.649  28.541   3.654
11867W        W78276  29.940   9.936   2.256
11868W        W78277  38.390   2.249  11.941
11869W        W78278  20.575   1.122  11.753
11870W        W78279   5.710  19.379   0.221
11871W        W78280  32.542   8.909  13.372
11872W        W78281  32.636  13.730   3.614
11873W        W78282  17.218  33.993  13.957
11874W        W78283  23.142  26.206  14.718
11875W        W78284  43.725  16.635  11.674
11876W        W78285  21.796  15.362   4.126
11877W        W78286  21.621  39.634   1.343
11878W        W78287  42.306  34.734   0.966
11879W        W78288  16.131   9.115   3.205
11880W        W78289  43.330  13.502   2.697
11881W        W78290  10.296  42.780  13.995
11882W        W78291   4.703  19.678  12.589
11883W        W78292  11.844  43.536  11.500
11884W        W78293  17.019  24.725  10.853
11885W        W78294   1.924  22.996   0.357
11886W        W78295  25.603  39.458   0.379
11887W        W78296  43.577  15.205  13.849
11888W        W78297  31.713  28.950   2.379
11889W        W78298  14.912  40.046   4.605
11890W        W78299  27.080   2.307   3.515
11891W        W78300   3.705  20.890   3.145
11892W        W78301  10.471  12.645  14.816
11893W        W78302  19.440  16.132   2.290
11894W        W78303  41.144  18.398   3.781
11895W        W78304  14.386  10.830   3.207
11896W        W78305  10.657  37.241   0.542
11897W        W78306  35.983  20.578   5.028
11898W        W78307  38.156  17.988  14.797
11899W        W78308  30.408   8.562  10.095
11900W        W78309  33.534  25.281  11.968
11901W        W78310  33.416  21.836   1.032
11902W        W78311  14.766   1.271  14.680
11903W        W78312  32.490  24.665   3.248
11904W        W78313  42.975  26.238   3.090
11905W        W78314   1.245  12.926   1.811
11906W        W78315  22.991   5.174  10.957
11907W        W78316  37.058  19.247  14.950
11908W        W78317  13.086  40.961  14.906
11909W        W78318   8.284   3.090   4.591
11910W        W78319  23.635   1.838  13.801
11911W        W78320  37.341  29.998  11.279
11912W        W78321  25.978   6.307   0.463
11913W        W78322   9.312   1.878   2.821
11914W        W78323  31.884   1.277  11.997
11915W        W78324   6.718  43.731  13.849
11916W        W78325  21.578   4.443  12.623
11917W        W78326  39.822  35.236   3.842
11918W        W78327  34.084  31.731  12.993
11919W        W78328  38.146  14.743  13.963
11920W        W78329  28.018  32.576  12.422
11921W        W78330  44.978  35.168   0.802
11922W        W78331   7.912  19.295   4.587
11923W        W78332  40.994  13.421   0.749
11924W        W78333   2.068  14.969  13.888
11925W        W78334  38.667   4.291  13.547
11926W        W78335  34.809  10.831  13.423
11927W        W78336  27.507   2.621  10.645
11928W        W78337  26.894  39.140  10.606
11929W        W78338  12.159  28.236  11.293
11930W        W78339  27.611  31.442   3.062
11931W        W78340   7.057   9.892   0.206
11932W        W78341   7.147  18.138   1.611
11933W        W78342  39.942  36.097  13.034
11934W        W78343  24.313  41.922   0.677
11935W        W78344  29.957  15.112   3.892
11936W        W78345  21.593   7.861   3.733
11937W        W78346  41.583  44.900  14.861
11938W        W78347   9.143  30.035  12.578
11939W        W78348  34.026  12.832   0.484
11940W        W78349  11.300  18.464   1.168
11941W        W78350  26.333  32.113   2.672
11942W        W78351  18.912  26.419  14.859
11943W        W78352   2.729  43.993   2.171
11944W        W78353  17.582  27.275   2.213
11945W        W78354   7.902  10.092  14.851
11946W        W78355  43.246  39.701   2.309
11947W        W78356   2.518  12.654   2.460
11948W        W78357  19.022  14.021  14.132
11949W        W78358  39.481   3.969   4.388
11950W        W78359  25.947  43.948   0.832
11951W        W78360  35.583   0.563  12.826
11952W        W78361  27.076  19.104  11.121
11953W        W78362   1.527  23.106  13.755
11954W        W78363  16.768  19.172   0.813
11955W        W78364  40.397  42.228  12.463
11956W        W78365   4.694  22.725   3.225
11957W        W78366   5.271  18.696  14.227
11958W        W78367  24.098   4.740   2.681
11959W        W78368  34.048  44.831   0.336
11960W        W78369  37.918  26.006  12.441
11961W        W78370  17.518  27.218   1.710
11962W        W78371  28.045  33.641   1.833
11963W        W78372   3.984   3.893   1.772
11964W        W78373  36.459  37.329  10.975
11965W        W78374  17.216  41.259  11.030
11966W        W78375   7.761  22.390  14.127
11967W        W78376  25.196  38.749  11.913
11968W        W78377  38.647  19.086   0.401
11969W        W78378  27.708   2.870  12.362
11970W        W78379  34.064  17.297  13.398
11971W        W78380  27.606  21.292   0.818
11972W        W78381  34.215  22.723   0.331
11973W        W78382  14.370   7.175   0.206
11974W        W78383  21.979  31.591   2.753
11975W        W78384   3.322  41.633  13.112
11976W        W78385  39.051  28.621   2.776
11977W        W78386  11.069  11.656   2.702
11978W        W78387  36.530  13.997   2.392
11979W        W78388   2.484   0.930  12.128
11980W        W78389  22.729   4.808  12.057
11981W        W78390  38.139   5.190   2.834
11982W        W78391  13.123  19.800   3.189
11983W        W78392  37.151  18.393   0.962
11984W        W78393  26.152   3.722   0.642
11985W        W78394  39.337  43.388   0.507
11986W        W78395  27.178  26.186  10.476
11987W        W78396  37.870  40.331  10.263
11988W        W78397   5.255   0.024  10.633
11989W        W78398  20.011   3.907  13.135
11990W        W78399  20.092  28.510  12.895
11991W        W78400  43.884  23.603   3.237
11992W        W78401  38.352   5.594  14.176
11993W        W78402  41.504  10.921   1.117
11994W        W78403  25.455  12.752   1.617
11995W        W78404  14.911  37.902  12.887
11996W        W78405  17.120  11.840  10.935
11997W        W78406   6.016  37.907  12.560
11998W        W78407  23.416  33.283   3.231
11999W        W78408  33.606   6.299   3.456
12000W        W78409  36.842   5.358   2.391
12001W        W78410  37.282  15.243   3.133
12002W        W78411  25.703  12.481   0.346
12003W        W78412   6.180  31.922  11.637
12004W        W78413  23.229  33.851  12.213
12005W        W78414  17.277  32.193  11.026
12006W        W78415  22.175  23.660  14.534
12007W        W78416  10.352  32.455  13.504
12008W        W78417  12.743  33.138  14.774
12009W        W78418  40.322  10.981   2.657
12010W        W78419  27.699  44.252  13.112
12011W        W78420  15.059   8.453  12.463
12012W        W78421   8.201  15.322   3.742
12013W        W78422  29.638  18.620   0.497
12014W        W78423   0.739  34.932  11.302
12015W        W78424  32.570   4.491  13.470
12016W        W78425   1.928  37.043   2.145
12017W        W78426  17.878  21.713   3.776
12018W        W78427  25.497  41.734   0.665
12019W        W78428   0.938  40.954  12.525
12020W        W78429  31.619  44.740   3.616
12021W        W78430  24.584   8.862   4.704
12022W        W78431  27.545  16.353  14.463
12023W        W78432  22.690  38.862   5.293
12024W        W78433  11.748  22.646  13.317
12025W        W78434   6.803  21.101   4.335
12026W        W78435   1.798   4.915  12.182
12027W        W78436  33.754   5.962  14.409
12028W        W78437   0.068   4.682  12.653
12029W        W78438  18.089  27.278  14.528
12030W        W78439  27.895  35.806   2.368
12031W        W78440  38.767  31.295   3.131
12032W        W78441  11.034   6.772  13.933
12033W        W78442  14.792   6.820  13.986
12034W        W78443   5.949  31.261  11.075
12035W        W78444   3.962  31.407  13.791
12036W        W78445  21.517  13.307   3.125
12037W        W78446  23.315  42.022   4.176
12038W        W78447   2.559  10.749  12.880
12039W        W78448  25.885  20.109   3.226
12040W        W78449  12.616   6.992  11.569
12041W        W78450  31.925   4.839   2.226
12042W        W78451  16.567  44.450   4.834
12043W        W78452   7.925  22.533   1.831
12044W        W78453  39.282  15.587  12.500
12045W        W78454   8.386  11.857  14.382
12046W        W78455  12.721   3.210  13.078
12047W        W78456  43.649  21.398   1.356
12048W        W78457  30.540  10.301   1.754
12049W        W78458  44.527  32.356   1.373
12050W        W78459  23.258  16.623   2.140
12051W        W78460  41.597  28.908  10.558
12052W        W78461  31.061  43.245  12.117
12053W        W78462  16.143  22.785  14.439
12054W        W78463   9.405   6.338   4.591
12055W        W78464  10.022  29.567  11.457
12056W        W78465  28.688  32.460   2.367
12057W        W78466  20.704  39.409  11.600
12058W        W78467  38.887  36.577   3.772
12059W        W78468  32.165  39.442  12.027
12060W        W78469  27.089  31.474   0.858
12061W        W78470  42.457  43.184   3.244
12062W        W78471  39.496  21.954   2.930
12063W        W78472   7.288   2.381  14.886
12064W        W78473  22.982   4.001   3.659
12065W        W78474  40.084  14.285   2.820
12066W        W78475  39.556  37.996   3.617
12067W        W78476  43.428  19.788   5.005
12068W        W78477  27.628   9.737   1.476
12069W        W78478  42.445  12.270   4.492
12070W        W78479  32.986  35.069   3.428
12071W        W78480  38.663  11.822  13.987
12072W        W78481  25.201  16.122  10.809
12073W        W78482   7.853  37.969  13.947
12074W        W78483  10.667   9.577   4.643
12075W        W78484  10.988  10.132   0.441
12076W        W78485  26.956  21.162  13.674
12077W        W78486  37.156  34.755   0.722
12078W        W78487   8.395  28.069   3.652
12079W        W78488  41.753   3.947   1.359
12080W        W78489  15.111  26.910   1.453
12081W        W78490  43.790  27.265  11.607
12082W        W78491  34.250   7.439  14.991
12083W        W78492   4.897   8.879   5.032
12084W        W78493  28.855  39.814  12.003
12085W        W78494  44.793   8.359  14.935
12086W        W78495  36.559  21.051  10.942
12087W        W78496  16.763  14.221   3.751
12088W        W78497   2.277  10.325   1.424
12089W        W78498  33.609  13.927   4.551
12090W        W78499   0.300   1.137   2.905
12091W        W78500  19.602  41.839  13.961
12092W        W78501   2.277  38.882  14.376
12093W        W78502  33.595  37.353   2.809
12094W        W78503  15.063  31.208   1.895
12095W        W78504   8.861  37.743   1.155
12096W        W78505  39.518  11.880   0.772
12097W        W78506  18.730  37.075   3.666
12098W        W78507   6.158  19.206   1.361
12099W        W78508  42.195  25.547  12.664
12100W        W78509  39.545  38.556  14.944
12101W        W78510  18.108  25.154   3.678
12102W        W78511  17.551  44.491   2.487
12103W        W78512  35.005   3.991  12.347
12104W        W78513  12.398   4.259   2.267
12105W        W78514  18.097  44.890   3.186
12106W        W78515  24.167   0.753  14.981
12107W        W78516  43.610  35.103   0.364
12108W        W78517  31.978  37.500  14.727
12109W        W78518  23.536  23.278  13.668
12110W        W78519  24.562  18.720   1.696
12111W        W78520  12.793  31.402   3.035
12112W        W78521  31.826  33.387   4.141
12113W        W78522  36.935  44.427  12.079
12114W        W78523  15.747   7.187   3.748
12115W        W78524  19.544  23.007  11.552
12116W        W78525  22.520  21.476   4.660
12117W        W78526  42.313  38.605  12.504
12118W        W78527  38.842  22.919   4.341
12119W        W78528  26.022   4.239  10.710
12120W        W78529   2.115  40.908   2.261
12121W        W78530   6.859  24.650   2.327
12122W        W78531  18.785  22.215   3.142
12123W        W78532  29.788  41.596  12.008
12124W        W78533  13.487  42.795  10.444
12125W        W78534  39.748   6.793  13.313
12126W        W78535  36.480  16.105  10.443
12127W        W78536  19.720  27.943   1.417
12128W        W78537  25.748  16.127   0.459
12129W        W78538   2.270  12.367  12.967
12130W        W78539  20.153  24.201   5.070
12131W        W78540  25.194  43.867   1.671
12132W        W78541  25.980   1.430  14.918
12133W        W78542   6.985  29.932  11.080
12134W        W78543  34.909  28.401  13.376
12135W        W78544  39.117  43.481   3.312
12136W        W78545  29.548  31.035   1.661
12137W        W78546  41.868  16.980  11.989
12138W        W78547  33.374  11.875   0.928
12139W        W78548  36.547  37.540   3.121
12140W        W78549  22.788  33.063  11.208
12141W        W78550   6.922   0.853   2.154
12142W        W78551  31.030  28.530   2.154
12143W        W78552   9.608  43.466   3.731
12144W        W78553  27.193  15.681  12.635
12145W        W78554  22.776  44.790  12.842
12146W        W78555  14.379  18.651   5.145
12147W        W78556  38.527  23.145   4.699
12148W        W78557  31.973   5.248   0.269
12149W        W78558  34.134  22.118   1.675
12150W        W78559  26.100   3.205  10.530
12151W        W78560  26.143  27.464   3.067
12152W        W78561  28.578  20.670   4.908
12153W        W78562   9.706   5.796  10.619
12154W        W78563  24.448   1.007  10.594
12155W        W78564  11.496   6.415  12.616
12156W        W78565   2.781  16.798  12.246
12157W        W78566  14.745  26.110   1.788
12158W        W78567   7.248  32.036   3.214
12159W        W78568  34.407  18.550   1.847
12160W        W78569  29.666  26.359  11.525
12161W        W78570  20.267   4.143  14.749
12162W        W78571  21.215   9.520   3.810
12163W        W78572  18.226  34.318  12.511
12164W        W78573   1.820  38.611  14.327
12165W        W78574  21.474   6.899  11.935
12166W        W78575  14.760   0.478  14.745
12167W        W78576  39.929  17.615   3.273
12168W        W78577  19.229  43.250   2.844
12169W        W78578  42.004  41.091  12.005
12170W        W78579  44.125  18.270   4.256
12171W        W78580  36.190  32.119   1.038
12172W        W78581  11.052  15.952  11.534
12173W        W78582  22.487  13.389   3.212
12174W        W78583  22.158  26.899   4.045
12175W        W78584   4.218  44.464   4.587
12176W        W78585   2.939   8.540  14.429
12177W        W78586   0.424  27.301   1.318
12178W        W78587  24.782  10.911   0.748
12179W        W78588  10.361   6.911   0.955
12180W        W78589  40.377  13.829   4.638
12181W        W78590   7.207  31.180  10.665
12182W        W78591   3.281   4.661  11.286
12183W        W78592   5.163  25.992  14.588
12184W        W78593  24.602   0.243   1.903
12185W        W78594  23.473  32.427   3.710
12186W        W78595  19.594  41.347   1.265
12187W        W78596   6.315  24.048   4.284
12188W        W78597  17.653   1.866  14.849
12189W        W78598  39.412   2.925   3.305
12190W        W78599   6.350  31.850   3.779
12191W        W78600   7.649  19.577   3.091
12192W        W78601  23.276   1.103  13.581
12193W        W78602  14.611  10.327   1.173
12194W        W78603  39.007  13.810  12.011
12195W        W78604  35.354  37.415   0.286
12196W        W78605  44.778  14.392   1.468
12197W        W78606   3.347  13.847   0.797
12198W        W78607  33.371  29.315   0.860
12199W        W78608  27.815  27.402   3.733
12200W        W78609  41.342  42.765   1.010
12201W        W78610  22.728  22.924  14.348
12202W        W78611  35.867   0.014   2.354
12203W        W78612   6.200  42.455   0.292
12204W        W78613   3.959  24.449  12.467
12205W        W78614   7.155  40.860   4.193
12206W        W78615  41.878  22.512  11.461
12207W        W78616  38.498   9.332  13.852
12208W        W78617  41.025  40.947  11.615
12209W        W78618  32.984  32.802   0.799
12210W        W78619  17.556  35.459  12.986
12211W        W78620  32.571  24.129  12.580
12212W        W78621  22.410  37.504   4.665
12213W        W78622  13.258  44.103  14.431
12214W        W78623  26.463  31.629  14.126
12215W        W78624  35.382  26.642   1.741
12216W        W78625   2.740  24.632   2.230
12217W        W78626  17.213  23.205  12.372
12218W        W78627  23.933  27.050   0.299
12219W        W78628  17.023  33.584   2.541
12220W        W78629  41.485  41.510  13.104
12221W        W78630  34.343  42.919   1.919
12222W        W78631   3.447  20.726   2.705
12223W        W78632  27.545  41.080   1.665
12224W        W78633  33.121   4.416   0.278
12225W        W78634  20.175  44.009  13.813
12226W        W78635  38.846  44.382  12.140
12227W        W78636  19.642   1.933   1.808
12228W        W78637   9.097  40.592  12.746
12229W        W78638   6.291  19.554  12.995
12230W        W78639  13.109  36.602   0.546
12231W        W78640  23.647  26.135  14.890
12232W        W78641  30.052   7.917   1.869
12233W        W78642  17.595  36.474  14.059
12234W        W78643  40.333  10.365  14.722
12235W        W78644  42.375  26.231  11.156
12236W        W78645  32.651  20.997   3.232
12237W        W78646   4.678  33.781   0.985
12238W        W78647  43.857  10.952  13.436
12239W        W78648  32.223   5.556  10.454
12240W        W78649  24.641  19.808  13.488
12241W        W78650   3.462  25.080   1.683
12242W        W78651  43.676  12.661  14.656
12243W        W78652   0.809  33.047   1.780
12244W        W78653  18.961  26.103   0.722
12245W        W78654  10.296  20.717   4.549
12246W        W78655   9.612  28.961  12.093
12247W        W78656  22.978  13.108  11.094
12248W        W78657  18.646  16.294   2.944
12249W        W78658  19.999  16.189   1.591
12250W        W78659  43.910  11.164   2.845
12251W        W78660  41.869   9.171  13.395
12252W        W78661  23.332  36.501  14.446
12253W        W78662  33.358  15.328  13.278
12254W        W78663  19.320   2.291   4.142
12255W        W78664  34.042  14.524   1.339
12256W        W78665   2.921   2.372   1.657
12257W        W78666  15.307   9.325   0.830
12258W        W78667  28.941  34.143  10.991
12259W        W78668  18.821   0.211   4.883
12260W        W78669  39.406  38.357  12.956
12261W        W78670  12.683  17.534   0.258
12262W        W78671  13.698  23.688   2.653
12263W        W78672  15.609  42.950   0.208
12264W        W78673  15.118  34.473   0.891
12265W        W78674  24.404  18.481  11.138
12266W        W78675   4.865  34.417   0.504
12267W        W78676  38.864   1.771   1.378
12268W        W78677  33.016  14.856   0.823
12269W        W78678  42.127  44.102   1.190
12270W        W78679  34.336  13.825  10.993
12271W        W78680  41.299  16.817  13.376
12272W        W78681  10.350   3.712  11.239
12273W        W78682   8.870  36.506   5.142
12274W        W78683  37.438  15.637  11.029
12275W        W78684  28.250  34.361  12.153
12276W        W78685  35.066   1.822   4.349
12277W        W78686  11.670   0.825  12.955
12278W        W78687   5.380  17.193   2.338
12279W        W78688  30.577  19.543  13.496
12280W        W78689  17.689  21.550  11.658
12281W        W78690  16.890   9.728  10.733
12282W        W78691  41.941  13.733   0.315
12283W        W78692  38.915  20.167   0.062
12284W        W78693  12.908  13.203  12.593
12285W        W78694  24.130  39.595   3.786
12286W        W78695  31.068   6.435   1.808
12287W        W78696  40.284  21.580  14.799
12288W        W78697  17.547   8.272   2.131
12289W        W78698   7.843  16.995  14.434
12290W        W78699  12.720  23.510   1.332
12291W        W78700  36.177  19.368  11.426
12292W        W78701  20.244  24.080  11.898
12293W        W78702  13.367  36.390   0.934
12294W        W78703   7.258  37.132   0.584
12295W        W78704   5.283  36.986   2.838
12296W        W78705  28.117   0.643   2.187
12297W        W78706  32.690  39.499  12.041
12298W        W78707   6.472  20.330  12.098
12299W        W78708  10.642  18.035  11.608
12300W        W78709  11.647   5.927   1.461
12301W        W78710  22.719   5.757   4.100
12302W        W78711  41.235  41.367   3.315
12303W        W78712  42.693  25.921  11.414
12304W        W78713  41.036  22.526   2.812
12305W        W78714  26.662   6.494  10.743
12306W        W78715   9.881  30.910   5.585
12307W        W78716   0.913  15.383  13.850
12308W        W78717  31.871   2.176  12.905
12309W        W78718  15.829  32.591  12.418
12310W        W78719   1.550   8.386  13.895
12311W        W78720  29.278  31.725  12.145
12312W        W78721  42.796  42.314  12.411
12313W        W78722  18.753  27.628  11.571
12314W        W78723  16.319  25.412   0.364
12315W        W78724  21.645  39.276  10.237
12316W        W78725   4.740  29.061   1.796
12317W        W78726  32.369  26.673   2.395
12318W        W78727   3.003  18.792  13.761
12319W        W78728  13.269  15.349   3.055
12320W        W78729  24.659  37.887  12.155
12321W        W78730   0.944  36.551   4.725
12322W        W78731  35.574  39.599   3.921
12323W        W78732   8.378  14.355   0.832
12324W        W78733  16.179  29.697  13.233
12325W        W78734  38.297   7.900   4.132
12326W        W78735  23.695   7.182   2.305
12327W        W78736  41.498   9.607  11.260
12328W        W78737  29.954   7.423  13.298
12329W        W78738  25.046  20.520  10.404
12330W        W78739   4.017  13.679   2.950
12331W        W78740   1.204  44.490   4.102
12332W        W78741   4.353  41.091   1.862
12333W        W78742  10.305  21.450  14.355
12334W        W78743   9.194   3.504  11.574
12335W        W78744  29.424  30.761  13.833
12336W        W78745  21.484  30.433   1.942
12337W        W78746  29.423   1.010  10.655
12338W        W78747  27.540  20.504  13.530
12339W        W78748  26.171  14.363  14.382
12340W        W78749  15.707  10.743  13.404
12341W        W78750  24.972  12.189  11.468
12342W        W78751  16.719  37.275  13.811
12343W        W78752   7.334  36.817   2.814
12344W        W78753  27.916   9.103  12.907
12345W        W78754  11.797  40.798   4.156
12346W        W78755  14.255  19.111  14.573
12347W        W78756   4.103  42.262  11.004
12348W        W78757  10.559  24.764  13.955
12349W        W78758  43.996  34.734  14.473
12350W        W78759  34.530  32.492  10.644
12351W        W78760  39.088  27.931   4.541
12352W        W78761  26.016  18.658   3.615
12353W        W78762  11.643  40.151   2.805
12354W        W78763   0.374  25.884   1.102
12355W        W78764  33.880  13.121  10.012
12356W        W78765  26.471  33.068  10.625
12357W        W78766   6.178  19.866   3.679
12358W        W78767  40.975  24.732  10.678
12359W        W78768  37.116  13.166   1.350
12360W        W78769  23.753  44.814  13.990
12361W        W78770  44.479  13.306  11.038
12362W        W78771   2.747  25.437  12.943
12363W        W78772  36.974  26.706   0.571
12364W        W78773   7.654  39.395   1.238
12365W        W78774  26.422  25.069  11.368
12366W        W78775   5.750   9.709  11.531
12367W        W78776  42.091  18.806   5.396
12368W        W78777  36.374  40.763  13.896
12369W        W78778   6.750  22.069   4.570
12370W        W78779  18.327  23.740  11.664
12371W        W78780  16.851  38.954  13.699
12372W        W78781  16.642  21.650   3.550
12373W        W78782  40.096  44.447   2.509
12374W        W78783  33.046  26.264  10.618
12375W        W78784  17.177  25.922  11.335
12376W        W78785  15.252  20.009  11.100
12377W        W78786  26.782  43.623  12.217
12378W        W78787  37.077  12.341  13.177
12379W        W78788  36.524  17.748   2.253
12380W        W78789  29.538  38.465   0.981
12381W        W78790  40.899   2.162   3.273
12382W        W78791  19.962  11.171   2.803
12383W        W78792  27.488  11.144   1.397
12384W        W78793  19.516  21.945   4.628
12385W        W78794  29.712   8.161   3.723
12386W        W78795  14.144   3.361   0.909
12387W        W78796  31.640  24.596  13.279
12388W        W78797  16.164   0.020   1.921
12389W        W78798  44.791   9.143   0.525
12390W        W78799  31.759  23.513  12.370
12391W        W78800   3.727  39.320  11.564
12392W        W78801  24.658   8.150   0.985
12393W        W78802  17.974   5.340   2.885
12394W        W78803  22.909   8.865   1.005
12395W        W78804  35.452  18.810   4.814
12396W        W78805  13.291  13.057   2.306
12397W        W78806  43.880   2.960   1.836
12398W        W78807  40.546  10.786  12.558
12399W        W78808  31.120   8.957   1.272
12400W        W78809  35.821  21.210   4.114
12401W        W78810  20.420  10.801   1.416
12402W        W78811  33.617   0.800   0.706
12403W        W78812  10.806  40.534   3.159
12404W        W78813  39.516  41.108   0.241
12405W        W78814  39.351   7.413   1.527
12406W        W78815   1.914  41.688   3.715
12407W        W78816   4.986  21.971   1.380
12408W        W78817  13.589  27.504  13.525
12409W        W78818   1.904  41.879  14.491
12410W        W78819  21.317  30.713   4.397
12411W        W78820  13.710  21.108  14.329
12412W        W78821  37.013   8.754   2.239
12413W        W78822  10.604  41.857  13.131
12414W        W78823  30.249  29.829   0.677
12415W        W78824   5.598  39.069   3.726
12416W        W78825   9.972   5.883  12.974
12417W        W78826   6.021  24.089  13.304
12418W        W78827  42.473   8.856  14.364
12419W        W78828  18.340  16.218   3.536
12420W        W78829  10.703   2.394   4.067
12421W        W78830  24.680  10.306  14.528
12422W        W78831   3.173  42.236   1.584
12423W        W78832  28.194  39.804   1.785
12424W        W78833  28.866  38.419  10.460
12425W        W78834   9.592   3.021   1.841
12426W        W78835  39.973   7.368  11.119
12427W        W78836   3.923  37.612  11.112
12428W        W78837  25.280  28.700  11.615
12429W        W78838   3.818  18.511  11.191
12430W        W78839  25.424  23.325  12.987
12431W        W78840  35.623   0.942   0.284
12432W        W78841  44.829  14.632   0.833
12433W        W78842   6.267  27.564   3.292
12434W        W78843   8.919  41.415   1.219
12435W        W78844  21.515   6.598   1.275
12436W        W78845  29.508   6.323  12.985
12437W        W78846  29.884   8.824   3.233
12438W        W78847   5.576   2.301   1.358
12439W        W78848  38.370   1.967  13.068
12440W        W78849   5.893   4.153   1.775
12441W        W78850  33.449  33.926  12.563
12442W        W78851  30.093   7.613   3.379
12443W        W78852   1.336   7.088  12.525
12444W        W78853  16.223   0.631   3.694
12445W        W78854  24.292  42.889   4.133
12446W        W78855  44.563  18.192   1.836
12447W        W78856   2.522  38.421  11.954
12448W        W78857  11.190  26.638  11.894
12449W        W78858  32.344  20.367   2.284
12450W        W78859  13.677  41.859   1.503
12451W        W78860  43.260  24.835   0.090
12452W        W78861  41.044  36.227   0.205
12453W        W78862   9.789   0.275   4.137
12454W        W78863  28.414  16.196   1.174
12455W        W78864  15.301  20.603   3.359
12456W        W78865  42.237   0.354  14.707
12457W        W78866  13.757  22.879   4.534
12458W        W78867  24.641  29.528  12.236
12459W        W78868  36.650  29.154  10.492
12460W        W78869  41.397  21.792  10.677
12461W        W78870  20.561  15.880  14.900
12462W        W78871  17.807   3.470  11.609
12463W        W78872   4.670   0.940   4.149
12464W        W78873  41.454   4.360  12.012
12465W        W78874  27.946  23.636   4.243
12466W        W78875  33.532  19.285  12.947
12467W        W78876  12.696  16.743   3.332
12468W        W78877  43.684  23.701   3.702
12469W        W78878  15.279  22.327  11.972
12470W        W78879  44.751  32.585  11.185
12471W        W78880  19.870   6.383   3.416
12472W        W78881  32.272  16.679   4.634
12473W        W78882  29.223  13.257  12.149
12474W        W78883  32.932  13.957  11.229
12475W        W78884  27.268  23.065   3.193
12476W        W78885   6.128  26.173  11.189
12477W        W78886  26.245  36.705   3.070
12478W        W78887   7.286  11.416   3.599
12479W        W78888  28.614  28.420  14.187
12480W        W78889  39.186  25.918   0.672
12481W        W78890  27.166  25.572   2.707
12482W        W78891   7.792   9.421  11.956
12483W        W78892  38.304  42.248   3.252
12484W        W78893  21.600  30.855  14.172
12485W        W78894  31.751  38.075   3.859
12486W        W78895   6.768   2.264   1.655
12487W        W78896  18.709   3.281  10.677
12488W        W78897   7.301  27.042   0.682
12489W        W78898  41.516  22.321   4.539
12490W        W78899   9.190  11.376  12.888
12491W        W78900   6.708  43.948   4.464
12492W        W78901  23.327  21.730   0.960
12493W        W78902   0.580  22.086  11.319
12494W        W78903  34.013  25.587  13.914
12495W        W78904  43.774   7.383  10.284
12496W        W78905  32.739  44.602   2.843
12497W        W78906  29.923  14.255   0.693
12498W        W78907   9.215  36.741  10.971
12499W        W78908  39.098  20.573  14.807
12500W        W78909  27.127  16.812   2.178
12501W        W78910  42.719  13.131  13.409
12502W        W78911  15.307  15.591   4.596
12503W        W78912  31.156  40.420  12.135
12504W        W78913  44.323   5.235  11.980
12505W        W78914  23.302   9.842   0.462
12506W        W78915  23.022  16.658   0.840
12507W        W78916  12.622  14.603   2.118
12508W        W78917  11.589  26.054   3.622
12509W        W78918  39.037  28.505  10.931
12510W        W78919  16.323  26.229   2.572
12511W        W78920  13.431  10.215  13.492
12512W        W78921  16.380  13.634  12.904
12513W        W78922   0.364  20.192   2.801
12514W        W78923   2.172  27.145  10.766
12515W        W78924  29.472  40.141  10.784
12516W        W78925  20.159  39.531   2.735
12517W        W78926  29.340  19.230   1.445
12518W        W78927  15.012  34.096  10.732
12519W        W78928  23.130  29.036   1.242
12520W        W78929  26.040  23.568  14.239
12521W        W78930  23.940  11.867   3.105
12522W        W78931  27.443  43.105  12.375
12523W        W78932  41.509   7.984   1.508
12524W        W78933   1.915  21.522  11.990
12525W        W78934  14.595  26.348  11.075
12526W        W78935   0.627  19.617   4.151
12527W        W78936  25.631   3.167  11.628
12528W        W78937   5.437  24.070  12.462
12529W        W78938  36.503  17.686   1.749
12530W        W78939   2.825   2.668  14.388
12531W        W78940   5.240  28.959   2.636
12532W        W78941  43.808  20.137  12.180
12533W        W78942   7.828   8.897   2.697
12534W        W78943  33.961  18.874  12.542
12535W        W78944  36.862  19.258  12.545
12536W        W78945   6.528   0.810   4.586
12537W        W78946  18.151  16.042   1.258
12538W        W78947  14.428  17.926   4.518
12539W        W78948  43.243   5.499   2.618
12540W        W78949  20.974   1.011   1.613
12541W        W78950   0.499   8.458  13.369
12542W        W78951   4.932  43.411  11.987
12543W        W78952  18.495   3.930   3.732
12544W        W78953  24.106  41.077  10.587
12545W        W78954  38.011  43.537   4.420
12546W        W78955   6.803  25.647  11.730
12547W        W78956   9.670  20.277   4.639
12548W        W78957   3.700  37.398   0.866
12549W        W78958  19.660  11.156   0.486
12550W        W78959  25.996   5.108  14.393
12551W        W78960   7.877   6.707  11.349
12552W        W78961  41.139   9.686   2.834
12553W        W78962  24.279  42.896  10.681
12554W        W78963  15.696   1.754  11.143
12555W        W78964   1.954  30.870   3.813
12556W        W78965  37.861   8.834  13.614
12557W        W78966  40.301   9.814  12.992
12558W        W78967  27.640  38.851   4.941
12559W        W78968  24.757  30.978  13.314
12560W        W78969  15.265  28.945   4.591
12561W        W78970  37.450   0.366   3.316
12562W        W78971   4.203   9.202   4.598
12563W        W78972  31.522  16.851  14.006
12564W        W78973  41.876   4.986   5.087
12565W        W78974  36.029  21.770   4.540
12566W        W78975  18.596  33.292   3.810
12567W        W78976  29.108  39.695  13.300
12568W        W78977  38.007  24.088   0.231
12569W        W78978  43.568  16.029   1.350
12570W        W78979  30.108  19.678  14.486
12571W        W78980   4.391  11.859  11.804
12572W        W78981  12.177   3.903   3.873
12573W        W78982  15.577  14.744   1.796
12574W        W78983   4.966  34.501   2.295
12575W        W78984  17.802  24.966  13.396
12576W        W78985   6.274  14.228  12.549
12577W        W78986  42.569   3.467  13.505
12578W        W78987  30.623  24.782   2.815
12579W        W78988  18.059   1.485  11.441
12580W        W78989  44.552  39.383  14.007
12581W        W78990  36.069  31.104  11.142
12582W        W78991  26.935   7.689   0.375
12583W        W78992  25.447  27.704   2.961
12584W        W78993  27.423  11.426   4.151
12585W        W78994  41.402  37.828   4.610
12586W        W78995  34.748  44.717  11.817
12587W        W78996  18.594   5.634  12.579
12588W        W78997  25.151  12.315   1.672
12589W        W78998  34.838   4.598   3.199
12590W        W78999   7.371  29.019   0.957
12591W        W79000  26.609  21.534   5.117
12592W        W79001  38.447  15.935   9.753
12593W        W79002  30.881  29.379   4.134
12594W        W79003  12.821   6.114   2.328
12595W        W79004  37.480  26.333   2.066
12596W        W79005  39.358  16.684  11.271
12597W        W79006  17.337  21.189   3.110
12598W        W79007  13.921   6.850  14.465
12599W        W79008  21.209  37.647   2.758
12600W        W79009  27.091  19.938   0.876
12601W        W79010  35.889   9.203   2.571
12602W        W79011   7.386  35.521  13.116
12603W        W79012   4.577  36.959   3.655
12604W        W79013  34.591   4.266  14.440
12605W        W79014   4.947  38.123  12.023
12606W        W79015  27.151   0.507   1.701
12607W        W79016  28.174  40.973  11.648
12608W        W79017   6.669  34.687   1.352
12609W        W79018  19.341  31.642   2.007
12610W        W79019   7.765   3.713  11.159
12611W        W79020  40.268  34.989   0.311
12612W        W79021  10.820  28.004   4.593
12613W        W79022  26.624   2.361   1.668
12614W        W79023  42.346  38.137   4.285
12615W        W79024  31.419  21.305   2.725
12616W        W79025   7.283  19.689  10.614
12617W        W79026   9.933  11.362   0.025
12618W        W79027  12.175   7.001   3.216
12619W        W79028   4.203   9.746  10.608
12620W        W79029   6.718  10.870  14.796
12621W        W79030  14.646  35.481  14.451
12622W        W79031  11.740  20.130  11.924
12623W        W79032  29.962   3.886  10.589
12624W        W79033   0.372  40.400  12.980
12625W        W79034   8.775  36.449  11.181
12626W        W79035  40.510  40.291  14.832
12627W        W79036  38.461  33.090  11.139
12628W        W79037   2.288  31.498   1.679
12629W        W79038   3.431   6.727   0.927
12630W        W79039  42.405   5.982  14.334
12631W        W79040  31.042  34.885  14.719
12632W        W79041  11.239  41.835  14.773
12633W        W79042  19.490  35.008  14.268
12634W        W79043   1.482  41.440   0.655
12635W        W79044  44.711  39.287  13.538
12636W        W79045  39.059   5.757   3.952
12637W        W79046  23.649  30.153   4.317
12638W        W79047   5.694  16.515   0.286
12639W        W79048   2.841  19.874  14.644
12640W        W79049  14.562  28.435  14.707
12641W        W79050   9.379   5.905   2.833
12642W        W79051  44.244  29.162   2.652
12643W        W79052  42.919  44.403   3.225
12644W        W79053  26.630  40.060   3.347
12645W        W79054  27.944  23.482  14.890
12646W        W79055  17.559  22.590   1.406
12647W        W79056  35.860  15.125   3.141
12648W        W79057  27.643   2.031  13.944
12649W        W79058  25.589  33.404   2.783
12650W        W79059   9.617  17.760   2.398
12651W        W79060   2.382  14.576   0.419
12652W        W79061  27.777   1.866  12.459
12653W        W79062  33.673   0.347   3.250
12654W        W79063   2.973  26.249  12.631
12655W        W79064  38.539  39.916   2.327
12656W        W79065   4.674  38.990   3.757
12657W        W79066  20.086  13.411   1.538
12658W        W79067   6.477   5.192   1.147
12659W        W79068  35.067  14.269  10.996
12660W        W79069  17.046  20.276  14.516
12661W        W79070  26.760  19.782  12.095
12662W        W79071  12.594  31.870   4.225
12663W        W79072  44.825  44.494  11.524
12664W        W79073  15.200  29.261  13.847
12665W        W79074  21.112  13.452   4.331
12666W        W79075  42.626  30.101   2.171
12667W        W79076  16.478  43.695   1.388
12668W        W79077  43.254  24.994   2.377
12669W        W79078  21.250  17.174  11.628
12670W        W79079  28.434  36.029  11.393
12671W        W79080  28.883  44.733  12.946
12672W        W79081  30.728  18.492  11.929
12673W        W79082   0.627  36.903   4.509
12674W        W79083   1.434   1.461  11.670
12675W        W79084   2.892  11.558  14.891
12676W        W79085  18.428  36.987  10.820
12677W        W79086   2.881  37.068   2.701
12678W        W79087  19.202  43.031  14.974
12679W        W79088   2.821   0.959  13.047
12680W        W79089  40.422   1.395   2.121
12681W        W79090  42.040   0.142  12.890
12682W        W79091  28.390  36.420   0.417
12683W        W79092   7.420   6.313   3.607
12684W        W79093  35.053   2.372  11.730
12685W        W79094  33.201  42.448  10.619
12686W        W79095  20.580  21.120  11.545
12687W        W79096  34.208  32.260  12.437
12688W        W79097  39.761  12.806   0.497
12689W        W79098  15.977   7.212  14.842
12690W        W79099  21.503  15.977   1.728
12691W        W79100  38.015  35.528  14.787
12692W        W79101   6.223   0.213   2.221
12693W        W79102  12.760  42.400  13.853
12694W        W79103  27.585  25.506  13.991
12695W        W79104  42.956   9.891  13.448
12696W        W79105  41.250  17.741   3.252
12697W        W79106  12.372  35.028  11.914
12698W        W79107  39.591  24.214   1.743
12699W        W79108  21.813  37.096   4.774
12700W        W79109  26.991  23.958  11.622
12701W        W79110  12.178  25.639   3.752
12702W        W79111  35.026  23.156   0.810
12703W        W79112  22.479   2.208   0.069
12704W        W79113  17.524  18.089   4.943
12705W        W79114  10.417  11.629  12.882
12706W        W79115   2.385  43.229   0.162
12707W        W79116  44.534  16.698  12.044
12708W        W79117  40.929  27.680  11.658
12709W        W79118  35.052   2.917   2.730
12710W        W79119  13.655   7.157   0.891
12711W        W79120  16.716  15.611   0.314
12712W        W79121  42.349  26.536  14.034
12713W        W79122  39.117  22.659  13.538
12714W        W79123  26.974  27.499   2.834
12715W        W79124  13.306   9.167  11.595
12716W        W79125  14.734  33.362  14.873
12717W        W79126  35.268  25.167  13.391
12718W        W79127  43.977  44.849   0.083
12719W        W79128  14.361  30.227   1.224
12720W        W79129   2.320  27.223  12.991
12721W        W79130  16.584   5.794   3.210
12722W        W79131   4.382  22.203  12.057
12723W        W79132  30.136  25.013   2.806
12724W        W79133  33.864  40.043   1.857
12725W        W79134   6.749  32.904   2.050
12726W        W79135  36.483  22.422   2.279
12727W        W79136  41.180   3.922   2.726
12728W        W79137  34.819  21.592  12.938
12729W        W79138  44.199  28.047   3.681
12730W        W79139  34.982  40.836  10.932
12731W        W79140  27.079  13.205  11.075
12732W        W79141   0.292  21.676  11.189
12733W        W79142  17.403  42.455  13.464
12734W        W79143   9.612  13.161   3.679
12735W        W79144   0.773  14.182  12.911
12736W        W79145  27.622  18.173  14.812
12737W        W79146  27.375  11.294   5.091
12738W        W79147  15.925  40.249   4.280
12739W        W79148   0.070   5.812   2.877
12740W        W79149  38.819  34.216   2.211
12741W        W79150   0.162  16.181   2.401
12742W        W79151   4.394  29.741   2.080
12743W        W79152  22.686  27.143  10.630
12744W        W79153  37.814  22.951   3.430
12745W        W79154   8.101   2.021  14.038
12746W        W79155  28.571   6.014  11.472
12747W        W79156   0.853  20.006   4.405
12748W        W79157  17.569  16.751  11.580
12749W        W79158  25.206  24.536   9.880
12750W        W79159   0.954  23.651  13.560
12751W        W79160  26.553   6.431   1.375
12752W        W79161  30.561  18.042  13.490
12753W        W79162  29.532  12.305   2.850
12754W        W79163  12.693  30.386   1.702
12755W        W79164  22.917   7.284   1.612
12756W        W79165  19.074  10.299  11.493
12757W        W79166  27.459   8.924   1.408
12758W        W79167  19.188  38.476   4.530
12759W        W79168  34.272  25.632   2.529
12760W        W79169  36.086   5.300   0.019
12761W        W79170  14.047  28.097   3.526
12762W        W79171   6.695   6.304   0.281
12763W        W79172   4.450  26.903  11.049
12764W        W79173   2.461  23.177   4.392
12765W        W79174  33.916  31.143   4.358
12766W        W79175  29.974  34.584  10.788
12767W        W79176  43.329  29.118   3.715
12768W        W79177  12.290  40.576   3.217
12769W        W79178  42.003  20.983  11.025
12770W        W79179  10.515  23.998   9.889
12771W        W79180  22.811  37.702  12.586
12772W        W79181   9.485  20.123  11.518
12773W        W79182   3.035  40.965   4.695
12774W        W79183   6.794  15.618   4.590
12775W        W79184  18.173  10.086   1.220
12776W        W79185  44.135  35.407   4.640
12777W        W79186  21.052  31.148  13.639
12778W        W79187   4.457   9.566   4.982
12779W        W79188  43.425  15.056   1.062
12780W        W79189  32.383  26.681  12.950
12781W        W79190  41.876  23.059  14.465
12782W        W79191  14.944  10.253   2.822
12783W        W79192  39.544  28.946   3.160
12784W        W79193  13.285  41.145  10.112
12785W        W79194  36.739  33.562   2.749
12786W        W79195   9.279  34.508   0.480
12787W        W79196  44.988  12.270   3.534
12788W        W79197  27.516  44.016   0.300
12789W        W79198  44.952  10.650   2.672
12790W        W79199  23.541  10.710   4.538
12791W        W79200  32.548  25.230   3.905
12792W        W79201   1.811   0.523  11.023
12793W        W79202  14.588  19.395  12.915
12794W        W79203  21.761  29.087  10.884
12795W        W79204  10.014  19.052  11.145
12796W        W79205  14.016  30.205   2.621
12797W        W79206  11.745  11.611  14.932
12798W        W79207  25.688  43.275   3.502
12799W        W79208  11.886   1.502   3.549
12800W        W79209  18.132  42.507   0.223
12801W        W79210  31.123  25.622  13.417
12802W        W79211  35.940   8.190   2.256
12803W        W79212  23.831  12.581   0.434
12804W        W79213  41.121   8.809   3.668
12805W        W79214  43.906  11.874   1.866
12806W        W79215   2.320   1.926  11.464
12807W        W79216  33.617  40.044   3.629
12808W        W79217  26.538  33.151   1.806
12809W        W79218  18.111  26.957  11.451
12810W        W79219  16.804  23.609   3.777
12811W        W79220   1.281  44.398  11.667
12812W        W79221  28.642  38.850   1.790
12813W        W79222  28.536  18.889  11.521
12814W        W79223  17.280  21.840  14.021
12815W        W79224  34.090  30.539  12.072
12816W        W79225   8.813  13.030   5.068
12817W        W79226  15.374  25.704  12.923
12818W        W79227  33.861  39.665  10.996
12819W        W79228   0.644  26.226   0.732
12820W        W79229  40.245   3.168   2.961
12821W        W79230  21.403  32.991  13.874
12822W        W79231  35.976   0.021   0.520
12823W        W79232   7.106  22.728   0.672
12824W        W79233   8.740  29.291   0.804
12825W        W79234  24.393  21.047   9.754
12826W        W79235   9.649   8.119   1.863
12827W        W79236  43.382  35.090  11.210
12828W        W79237   3.724  32.513  10.647
12829W        W79238   2.493   3.699  14.515
12830W        W79239  35.154  43.056  11.194
12831W        W79240  14.362  37.764   0.375
12832W        W79241   7.890  13.570   4.088
12833W        W79242   7.174   3.436   0.287
12834W        W79243  15.744   8.400   3.452
12835W        W79244   2.809  35.147   3.655
12836W        W79245   1.753  37.476   0.915
12837W        W79246   2.527  18.475  13.061
12838W        W79247  11.097  40.797   0.610
12839W        W79248   3.231  26.909   1.093
12840W        W79249  30.629  32.090  10.997
12841W        W79250  20.295  16.987   4.905
12842W        W79251   6.820  43.769   3.228
12843W        W79252   2.688  32.910   2.696
12844W        W79253  22.939  41.883  13.936
12845W        W79254  23.104  38.800  12.387
12846W        W79255  42.863  44.185   2.622
12847W        W79256  23.553  19.538  12.454
12848W        W79257   3.385  33.964  13.905
12849W        W79258  25.523  31.457  12.309
12850W        W79259  40.372  30.615   2.686
12851W        W79260   7.667  28.316  10.610
12852W        W79261  19.587  30.634   1.416
12853W        W79262  24.742   0.307  12.153
12854W        W79263  15.693  28.687   4.383
12855W        W79264  36.994   3.537   4.822
12856W        W79265  28.147  22.765  11.016
12857W        W79266  19.514  24.738  10.657
12858W        W79267  28.582  16.098  14.733
12859W        W79268   3.311   0.757  13.119
12860W        W79269  16.374   9.904  11.616
12861W        W79270   1.865  32.597   3.284
12862W        W79271  37.011  38.012   1.863
12863W        W79272  39.903  21.655  10.519
12864W        W79273  35.517  35.118   2.739
12865W        W79274  26.434  28.458  12.974
12866W        W79275  44.754  35.769  11.683
12867W        W79276  42.483   1.828  12.999
12868W        W79277   8.926  12.683   2.451
12869W        W79278  34.075  20.587  11.618
12870W        W79279  13.172   5.632  10.683
12871W        W79280  38.640  18.328  11.513
12872W        W79281  12.251  10.901  12.566
12873W        W79282  26.776  12.614   2.820
12874W        W79283  17.430  34.324  14.908
12875W        W79284  40.521  30.506  10.637
12876W        W79285  32.544   0.599   0.344
12877W        W79286   1.704  11.646   3.188
12878W        W79287  32.858  37.881   1.905
12879W        W79288  15.947  39.149   5.403
12880W        W79289  32.820  10.853  11.164
12881W        W79290  40.458   7.285  14.334
12882W        W79291  29.169  17.597   1.214
12883W        W79292  25.103   1.761   4.625
12884W        W79293  11.798  15.762   1.888
12885W        W79294   6.468  38.810  12.416
12886W        W79295  30.658   5.129   1.953
12887W        W79296   3.977  36.968   0.819
12888W        W79297   5.729   9.217  12.552
12889W        W79298   3.409   5.923  12.017
12890W        W79299   3.751  13.090  12.096
12891W        W79300   4.413  42.124  14.936
12892W        W79301  37.674  44.090  11.012
12893W        W79302  11.775  15.926  13.245
12894W        W79303   3.709   5.282   1.239
12895W        W79304  36.520   0.441  12.390
12896W        W79305   7.174  38.120   0.777
12897W        W79306  25.909  20.238   2.250
12898W        W79307   1.391  26.243  13.911
12899W        W79308  29.937  37.273  10.802
12900W        W79309  32.857  16.636   3.753
12901W        W79310  33.928  38.264  12.504
12902W        W79311  26.113  16.489   4.101
12903W        W79312  24.091  38.356   0.941
12904W        W79313   9.787  25.524  12.795
12905W        W79314   0.788  15.144  12.487
12906W        W79315  30.549  17.910   2.794
12907W        W79316  25.066  16.800   2.770
12908W        W79317   7.620  26.651  12.015
12909W        W79318  29.008  38.397  14.475
12910W        W79319  11.567  16.803   2.629
12911W        W79320  39.829  20.736  12.291
12912W        W79321  33.032   9.406  12.090
12913W        W79322  27.366   6.989  14.910
12914W        W79323  10.068   3.758  11.709
12915W        W79324  10.165  26.988  10.678
12916W        W79325  17.454  43.142   0.328
12917W        W79326  41.962  36.922  11.136
12918W        W79327  10.295   9.446  14.732
12919W        W79328  40.647   3.181  13.445
12920W        W79329   3.508  11.281  14.555
12921W        W79330  17.675   9.790   2.903
12922W        W79331  21.061  25.664  13.387
12923W        W79332  30.142  31.615   0.980
12924W        W79333   0.778   3.844   2.227
12925W        W79334  24.254   8.265  11.624
12926W        W79335   7.805   3.062   2.781
12927W        W79336  18.054  33.568  12.952
12928W        W79337   4.271  13.850  14.471
12929W        W79338  26.599   3.740   2.960
12930W        W79339  42.579  44.541  13.816
12931W        W79340  37.110   9.873   3.726
12932W        W79341  44.334  23.079  12.526
12933W        W79342  21.015  22.119   2.369
12934W        W79343   9.372  39.708  14.492
12935W        W79344   8.305  26.988  10.979
12936W        W79345  27.036  14.141  14.920
12937W        W79346  29.438  12.804   2.123
12938W        W79347  16.681  32.787   0.457
12939W        W79348  29.698  39.333   1.366
12940W        W79349  32.437  30.202   1.924
12941W        W79350   8.637  40.358   2.853
12942W        W79351  34.083  27.656  14.619
12943W        W79352  35.450  17.632  11.608
12944W        W79353  42.970   8.785   3.242
12945W        W79354  32.454  41.890   0.370
12946W        W79355  18.169  10.663  14.790
12947W        W79356  28.917  29.927   1.734
12948W        W79357  19.174  33.020   2.369
12949W        W79358  25.174  39.002   3.832
12950W        W79359  35.645  43.872   3.658
12951W        W79360  38.549  40.335  14.699
12952W        W79361   8.124   1.173  13.380
12953W        W79362  42.717   7.722   3.622
12954W        W79363  43.951   1.406   1.757
12955W        W79364  39.879  28.121   2.881
12956W        W79365  13.408  15.035   2.234
12957W        W79366  38.874  13.886   0.322
12958W        W79367  30.078   8.755   1.047
12959W        W79368  18.795   2.265   2.408
12960W        W79369  42.052  25.992  12.891
12961W        W79370  28.949  27.152  14.453
12962W        W79371  19.736  13.928  11.161
12963W        W79372  27.603  15.640   2.129
12964W        W79373   5.088  11.631  13.641
12965W        W79374  23.063  11.044   3.629
12966W        W79375   6.966  23.072  12.633
12967W        W79376  27.645  24.328   2.477
12968W        W79377  24.522  43.447  12.825
12969W        W79378   5.970  21.227  13.514
12970W        W79379  35.897  19.176   9.719
12971W        W79380  27.520  19.185  12.329
12972W        W79381  43.822  18.092  11.826
12973W        W79382  21.317  10.298  12.027
12974W        W79383   8.407  33.057   2.742
12975W        W79384   5.316   1.414   0.869
12976W        W79385   6.942   7.181  14.705
12977W        W79386  36.402   6.157   0.001
12978W        W79387   0.914  21.956  10.831
12979W        W79388  16.430  13.773  10.995
12980W        W79389  43.872  19.076   0.786
12981W        W79390  39.178  15.634  13.047
12982W        W79391   2.490  22.467   1.319
12983W        W79392   8.894  33.085   2.584
12984W        W79393  34.467   0.918   1.628
12985W        W79394  43.748  18.465  11.134
12986W        W79395   9.810  40.618   1.123
12987W        W79396  42.426   7.986  10.772
12988W        W79397  30.155  18.605   2.201
12989W        W79398  11.605  30.714  14.907
12990W        W79399   1.275  28.383  11.157
12991W        W79400   8.156  18.029  11.143
12992W        W79401  22.149   1.935   3.414
12993W        W79402  26.657  30.063   4.528
12994W        W79403   4.815  24.744  13.580
12995W        W79404  44.295   9.746  14.359
12996W        W79405  24.974   1.751  11.640
12997W        W79406  34.142  16.220   1.736
12998W        W79407   4.092   2.313   2.228
12999W        W79408  43.338   9.930  10.353
13000W        W79409  24.574  41.055   2.154
13001W        W79410   7.566   2.292   0.340
13002W        W79411  42.097  10.583  14.704
13003W        W79412  28.959  33.033   0.040
13004W        W79413  42.964  33.867  13.781
13005W        W79414  13.830  36.468  10.672
13006W        W79415  41.329  27.482   3.352
13007W        W79416  23.715  19.737  13.453
13008W        W79417  28.108  30.628   4.609
13009W        W79418   7.432   9.890  12.779
13010W        W79419  23.558  25.621   0.464
13011W        W79420  23.824  42.621  12.428
13012W        W79421  19.986   3.489   2.770
13013W        W79422   7.388  32.309   3.653
13014W        W79423  43.329  37.328   4.538
13015W        W79424   6.226  21.713  10.549
13016W        W79425  13.672   9.374  14.364
13017W        W79426  38.388  12.391  13.249
13018W        W79427  22.978  32.858  13.328
13019W        W79428   7.215  36.356   4.633
13020W        W79429  29.592  21.623   1.018
13021W        W79430   1.729  33.181   2.346
13022W        W79431   1.752  32.235  13.160
13023W        W79432  44.917  36.108  10.570
13024W        W79433   9.389   8.407   4.528
13025W        W79434  37.305  40.805   0.171
13026W        W79435  42.399  17.005   1.395
13027W        W79436  23.495  24.150  12.670
13028W        W79437   1.490  41.285   1.820
13029W        W79438  25.655  14.305   3.644
13030W        W79439  21.138  37.521   5.041
13031W        W79440  22.223   0.799   0.792
13032W        W79441  28.126  33.663  10.474
13033W        W79442  37.943  28.015  11.952
13034W        W79443  36.881  11.123   3.584
13035W        W79444   6.361  31.234  12.103
13036W        W79445  11.654  22.749  10.887
13037W        W79446  25.725  34.662   4.562
13038W        W79447   9.577   2.496   1.864
13039W        W79448  28.541  23.643  11.960
13040W        W79449  14.648  19.639   0.288
13041W        W79450  23.478  12.375  14.199
13042W        W79451  16.140  18.543  11.717
13043W        W79452   2.536   1.984   2.418
13044W        W79453  36.727   9.324  11.216
13045W        W79454  19.857  13.271  13.787
13046W        W79455  11.303  13.800   4.625
13047W        W79456  24.271  22.541   0.272
13048W        W79457  24.739  42.855  11.594
13049W        W79458   1.909   8.718   1.632
13050W        W79459  30.663  13.181   2.634
13051W        W79460  22.558   3.666   2.317
13052W        W79461  26.891  35.439   0.849
13053W        W79462  23.639  30.411  11.651
13054W        W79463   7.474   1.043  14.726
13055W        W79464  24.266   8.604   2.715
13056W        W79465  18.477  31.382   1.879
13057W        W79466  30.974  15.032  13.886
13058W        W79467   7.832  44.312   1.206
13059W        W79468  28.468   1.431   1.215
13060W        W79469  42.960   7.397  13.136
13061W        W79470  43.733  37.447  14.221
13062W        W79471  21.024  43.007   4.019
13063W        W79472  10.189   3.220   4.091
13064W        W79473   4.696  25.971   1.957
13065W        W79474  32.082  15.341  11.160
13066W        W79475  19.612   5.264  13.704
13067W        W79476  36.300  24.155  13.050
13068W        W79477  14.604  18.783   2.204
13069W        W79478  44.759  15.154  12.382
13070W        W79479   6.913  15.165  10.586
13071W        W79480  33.898  20.772   2.174
13072W        W79481  24.678  23.066   3.283
13073W        W79482  24.171   4.826   1.288
13074W        W79483  22.783  13.178  11.605
13075W        W79484  16.704  23.021   2.591
13076W        W79485  31.075  27.083   4.725
13077W        W79486   3.997  31.904   3.671
13078W        W79487  34.443   0.710  11.133
13079W        W79488  33.632  30.446   2.226
13080W        W79489   3.719  24.249   0.547
13081W        W79490  32.574  33.350  12.327
13082W        W79491   7.594   1.297  12.480
13083W        W79492  39.013   9.697  12.286
13084W        W79493  19.817   4.173   2.424
13085W        W79494  32.702  24.200   3.152
13086W        W79495  37.838  44.456   0.948
13087W        W79496  32.190   4.325   3.596
13088W        W79497  40.852  16.138   2.377
13089W        W79498  39.002  38.084  13.160
13090W        W79499  19.737  28.614   0.304
13091W        W79500  23.509  12.042   1.485
13092W        W79501  19.590  43.640   4.568
13093W        W79502  15.519   5.432  12.437
13094W        W79503  27.191  15.731  13.511
13095W        W79504  21.582  12.397   1.470
13096W        W79505  25.827  18.256   2.508
13097W        W79506  17.693  28.985   4.524
13098W        W79507   0.785  42.419   3.139
13099W        W79508  27.366  18.332   1.220
13100W        W79509  10.829  39.069  14.007
13101W        W79510  29.422   2.991   1.453
13102W        W79511   6.911   9.103  14.485
13103W        W79512  41.896  37.649   2.611
13104W        W79513  22.977  31.019   3.444
13105W        W79514  33.121  21.250   4.720
13106W        W79515  42.680  21.230  10.746
13107W        W79516  43.408  11.102   3.612
13108W        W79517  32.967  40.386  13.966
13109W        W79518  32.487   6.185  12.995
13110W        W79519  42.643  41.229   9.756
13111W        W79520  24.308   3.939  13.258
13112W        W79521  41.375  32.724   4.207
13113W        W79522  11.876  26.925   3.562
13114W        W79523   7.962  36.766  14.947
13115W        W79524  14.695  10.913   0.601
13116W        W79525  33.929  21.896   3.708
13117W        W79526  15.282  39.608  13.382
13118W        W79527  29.141  35.347  12.634
13119W        W79528   1.351   2.537   2.939
13120W        W79529  44.009   5.771   3.324
13121W        W79530  42.343   7.450  10.752
13122W        W79531  37.314  32.225  14.056
13123W        W79532  27.746  31.794  13.233
13124W        W79533  14.854  22.033  11.554
13125W        W79534  17.975  20.081   2.725
13126W        W79535  34.910  27.170  10.758
13127W        W79536  21.279  23.615  14.510
13128W        W79537  24.614  31.615   1.566
13129W        W79538  24.354   4.180   3.236
13130W        W79539   3.781  34.984   3.183
13131W        W79540   6.283  30.464  11.443
13132W        W79541  39.737  23.064   0.219
13133W        W79542   5.391  32.206   0.196
13134W        W79543   1.575  43.932  11.574
13135W        W79544   1.401  44.347  13.893
13136W        W79545  42.313  14.624  12.953
13137W        W79546  13.189   2.978   1.031
13138W        W79547  23.374  40.186  12.642
13139W        W79548  22.188  14.278   2.268
13140W        W79549  13.315  38.587   1.748
13141W        W79550   6.233  42.730   3.689
13142W        W79551   3.296  18.029  14.318
13143W        W79552  17.494   7.896   3.289
13144W        W79553  38.765  16.410   2.891
13145W        W79554   0.768  29.084   4.576
13146W        W79555  19.596  43.922   1.392
13147W        W79556   6.222  35.953   0.683
13148W        W79557  24.576  44.738   2.949
13149W        W79558  26.684  13.875  11.535
13150W        W79559  36.561   6.385   3.619
13151W        W79560   2.497  39.341  13.689
13152W        W79561  18.979   0.044   0.910
13153W        W79562  41.491   8.301  11.352
13154W        W79563  19.534   7.457  10.752
13155W        W79564  10.603  22.248   0.455
13156W        W79565  38.416  39.392   2.340
13157W        W79566  16.779  20.233   3.650
13158W        W79567  37.594  40.752   3.719
13159W        W79568  44.771  34.814  13.413
13160W        W79569  24.239   0.146  13.369
13161W        W79570  22.865  42.390   2.041
13162W        W79571  29.786  26.421   2.797
13163W        W79572   6.720  42.080   1.448
13164W        W79573  35.192  42.816   3.581
13165W        W79574  17.592  37.924   2.986
13166W        W79575  13.709   1.445  13.317
13167W        W79576  41.393  19.594  11.532
13168W        W79577  15.503  14.631  12.114
13169W        W79578  23.602  21.407  14.955
13170W        W79579  19.030  27.954  10.511
13171W        W79580  36.866   2.484  14.313
13172W        W79581   6.782  19.989   3.799
13173W        W79582  42.012  16.691  13.170
13174W        W79583  21.791  20.723   2.757
13175W        W79584  39.019  36.008  12.713
13176W        W79585  43.252  10.783  11.622
13177W        W79586  39.872  12.938  11.650
13178W        W79587  29.610  28.895   3.626
13179W        W79588  40.101  25.385  14.605
13180W        W79589  14.327  17.756   4.056
13181W        W79590  12.464   4.671   0.865
13182W        W79591  40.989  21.349   0.534
13183W        W79592   9.435  38.029  12.852
13184W        W79593  34.588  22.779  11.126
13185W        W79594   0.682   5.396  14.414
13186W        W79595  16.832  20.161  14.981
13187W        W79596  13.230  19.373   4.543
13188W        W79597  28.930  42.159   4.124
13189W        W79598  11.725  27.133  13.274
13190W        W79599  19.821  41.827   3.145
13191W        W79600  36.835  16.614  13.907
13192W        W79601  40.747  42.071   4.235
13193W        W79602  28.702  10.753   2.628
13194W        W79603  24.984   7.318  13.105
13195W        W79604  37.174  43.500  12.764
13196W        W79605  26.700  33.450  11.869
13197W        W79606  33.009  27.021  11.403
13198W        W79607  34.050  25.537   2.976
13199W        W79608   7.867  40.286  12.688
13200W        W79609   5.751  36.891   1.947
13201W        W79610   6.729  40.576  13.484
13202W        W79611   8.831  15.713   1.838
13203W        W79612  36.515  41.096  12.063
13204W        W79613   1.826  13.641   3.163
13205W        W79614   9.823  39.847   0.872
13206W        W79615  11.572  26.965  13.911
13207W        W79616   0.462  34.769  13.683
13208W        W79617  27.716  25.225   2.648
13209W        W79618  38.687  18.203   2.833
13210W        W79619  28.972  19.281   4.457
13211W        W79620   4.622  41.509  11.096
13212W        W79621  16.861  19.434   4.152
13213W        W79622  39.922  41.276   3.414
13214W        W79623   4.690  40.212  11.499
13215W        W79624  18.640  40.945   0.416
13216W        W79625   7.385  33.959  13.358
13217W        W79626  14.564  34.988  13.905
13218W        W79627  21.055   8.383   1.264
13219W        W79628  29.991  21.619  11.467
13220W        W79629  37.581  26.500  13.018
13221W        W79630  10.401  14.176  10.871
13222W        W79631  41.419  34.416  14.384
13223W        W79632  13.248  30.719  12.882
13224W        W79633  17.084  13.371   4.855
13225W        W79634  33.343  11.093   3.702
13226W        W79635  27.425  21.254  10.698
13227W        W79636  31.791  35.567  11.750
13228W        W79637   6.828  27.480   4.123
13229W        W79638  40.597  16.331  14.948
13230W        W79639  12.453   3.770  12.130
13231W        W79640  30.612  34.618  12.114
13232W        W79641  37.414  25.886  11.669
13233W        W79642   6.344  41.488  10.303
13234W        W79643  31.403  15.121  12.479
13235W        W79644   7.193  14.393  11.601
13236W        W79645   2.079   9.863  14.764
13237W        W79646  29.959  13.034  13.920
13238W        W79647  36.856  23.708   2.648
13239W        W79648  38.562  23.859   1.875
13240W        W79649  29.278   9.336   3.108
13241W        W79650  37.647  39.063   4.747
13242W        W79651  39.913  15.902  13.598
13243W        W79652   1.324  21.125   0.555
13244W        W79653  16.420  33.947   1.751
13245W        W79654  35.175  11.291  11.976
13246W        W79655  35.277  39.334  12.595
13247W        W79656   6.776  34.678  13.422
13248W        W79657  34.126  43.184   2.803
13249W        W79658  40.388   7.246   3.610
13250W        W79659  42.771  23.466  13.861
13251W        W79660  15.091  29.178  11.135
13252W        W79661  32.115  10.887   4.760
13253W        W79662  43.142  43.328  13.915
13254W        W79663  14.911  22.195   1.205
13255W        W79664  31.570   5.643   2.519
13256W        W79665  24.729  21.049   4.052
13257W        W79666  36.353  12.122  14.360
13258W        W79667  36.344  20.824  11.413
13259W        W79668   1.366  15.811  10.761
13260W        W79669  14.252  18.758   0.975
13261W        W79670  32.402   7.185   5.020
13262W        W79671   6.877  39.939  12.069
13263W        W79672   7.919  39.419  12.571
13264W        W79673  16.235  21.936  14.767
13265W        W79674   7.350  41.758   1.865
13266W        W79675  41.077   8.180   2.215
13267W        W79676  33.014  13.406  12.066
13268W        W79677  23.426  13.674  14.547
13269W        W79678  40.760  11.798  11.590
13270W        W79679   8.892  38.000  14.487
13271W        W79680  11.615  37.598  12.562
13272W        W79681  31.714  14.419  14.251
13273W        W79682  20.688  31.378   2.196
13274W        W79683  17.118  23.745   4.305
13275W        W79684  30.885  25.233   5.139
13276W        W79685  10.666  34.873   2.904
13277W        W79686   6.933  40.615  11.578
13278W        W79687  40.983   5.589  14.795
13279W        W79688   0.386  22.766  13.903
13280W        W79689  33.852  28.382   1.741
13281W        W79690  27.992  37.072  14.069
13282W        W79691   3.473  34.579  11.611
13283W        W79692   2.668  37.018  13.552
13284W        W79693  40.649   8.899   1.003
13285W        W79694  13.757  24.822   3.184
13286W        W79695  43.883  14.967  11.442
13287W        W79696   6.464  12.736  10.416
13288W        W79697   1.455  38.483   4.763
13289W        W79698   4.471  22.058  13.534
13290W        W79699  26.565  37.859  14.527
13291W        W79700  23.543  31.607   1.713
13292W        W79701  31.505  35.517  14.758
13293W        W79702  30.890   7.815  13.989
13294W        W79703  24.527  28.426  11.929
13295W        W79704   5.725  10.618  14.564
13296W        W79705  15.062   7.032   0.725
13297W        W79706  35.525  26.102   0.457
13298W        W79707   1.307   7.670   3.779
13299W        W79708   0.062  24.044  10.759
13300W        W79709  32.964  30.878   2.337
13301W        W79710  24.558  26.642  14.451
13302W        W79711   9.487  32.811   1.352
13303W        W79712   4.237  26.769  10.603
13304W        W79713  25.455  15.706  11.690
13305W        W79714  26.854  12.641   4.246
13306W        W79715  13.275  41.266  11.203
13307W        W79716   9.459  43.522  11.549
13308W        W79717  26.706  28.730  11.628
13309W        W79718  36.859  27.925  13.461
13310W        W79719  28.385  17.552   4.098
13311W        W79720   2.330  13.355  11.220
13312W        W79721  29.728  40.613   0.804
13313W        W79722  38.467  36.536   4.642
13314W        W79723   8.713   4.457   4.713
13315W        W79724  26.538  36.413  14.444
13316W        W79725  20.011   4.688  11.557
13317W        W79726  43.472  24.758  14.261
13318W        W79727  19.960  32.861   0.451
13319W        W79728   2.475  37.140  14.584
13320W        W79729   2.348  17.165  10.693
13321W        W79730  25.178   0.541  12.051
13322W        W79731  39.019  18.024   1.264
13323W        W79732  12.330  33.567  14.063
13324W        W79733   3.540  15.208  13.748
13325W        W79734   1.902   5.207   1.559
13326W        W79735   7.840  19.536  13.330
13327W        W79736  11.511  36.587   2.380
13328W        W79737  41.963  21.163   4.535
13329W        W79738  31.820   0.134  14.820
13330W        W79739   2.466  30.056  12.413
13331W        W79740  21.983   9.357  11.565
13332W        W79741  34.825  13.115   5.042
13333W        W79742  40.940   7.167  11.035
13334W        W79743  36.302  33.869  12.755
13335W        W79744   9.236   8.911   2.887
13336W        W79745   0.933  14.626  14.783
13337W        W79746  11.698  10.333  11.462
13338W        W79747   8.349   7.447   4.593
13339W        W79748  13.844  27.835   2.599
13340W        W79749  35.962  31.357  12.323
13341W        W79750  34.679  22.723  13.422
13342W        W79751   0.485   3.961  11.611
13343W        W79752  44.517  30.498   4.994
13344W        W79753  41.754  37.866   3.117
13345W        W79754  21.717  13.252   0.856
13346W        W79755  44.167  39.638  12.170
13347W        W79756  33.676  27.232   4.681
13348W        W79757  44.277  15.523   3.634
13349W        W79758   5.949  20.691   2.141
13350W        W79759  39.096   4.748   0.540
13351W        W79760  20.020  16.529  10.646
13352W        W79761  22.026   1.243   1.919
13353W        W79762  18.990  19.719  12.123
13354W        W79763  36.967  31.441  14.894
13355W        W79764   6.590  13.124  12.488
13356W        W79765  31.701  32.578   3.167
13357W        W79766   2.528   3.339   2.408
13358W        W79767  38.940   3.748  11.121
13359W        W79768   3.687  19.563   3.124
13360W        W79769  37.465   8.648   4.618
13361W        W79770  29.359  32.545   1.916
13362W        W79771  26.277  40.911  13.909
13363W        W79772  24.652  39.122  13.594
13364W        W79773   4.702  31.063  14.938
13365W        W79774  24.070  33.579  13.065
13366W        W79775  18.572  34.415  10.623
13367W        W79776  22.717  38.500   1.730
13368W        W79777  41.781   1.972   4.902
13369W        W79778  20.166  18.963  11.114
13370W        W79779   2.829  31.612   3.415
13371W        W79780   8.870   4.958   2.366
13372W        W79781  42.542  29.902  13.821
13373W        W79782  35.842  40.630  12.449
13374W        W79783  19.073   7.066   1.049
13375W        W79784  10.949  32.498  14.461
13376W        W79785  37.591  43.103   4.141
13377W        W79786  21.099  42.246  11.162
13378W        W79787  33.717  12.311  14.626
13379W        W79788  17.505  12.588   0.177
13380W        W79789  31.110   8.265  14.135
13381W        W79790  31.926  23.674   4.565
13382W        W79791  22.891   6.319   4.150
13383W        W79792  30.528  14.401   1.291
13384W        W79793   3.717   7.782  14.625
13385W        W79794  37.554  14.336   1.872
13386W        W79795   6.912   8.812   0.826
13387W        W79796  41.547  43.413  13.893
13388W        W79797  13.320  19.014   3.584
13389W        W79798  44.989  37.471   0.453
13390W        W79799  23.334  29.185  11.052
13391W        W79800   3.817  13.170  13.054
13392W        W79801  27.738  11.279   0.958
13393W        W79802  34.447   1.366   0.720
13394W        W79803  42.803  17.010   0.741
13395W        W79804  27.946  29.105  13.432
13396W        W79805  23.730  18.655   0.173
13397W        W79806  14.130   4.462   4.194
13398W        W79807  10.279  30.896   0.589
13399W        W79808  34.955   7.794   1.556
13400W        W79809  15.515  25.570  10.319
13401W        W79810  21.602   4.746   3.995
13402W        W79811   8.417  20.238  13.822
13403W        W79812  29.017  27.083   1.477
13404W        W79813  41.372  42.499  11.904
13405W        W79814  13.941  41.763   1.931
13406W        W79815  23.970   8.072  11.227
13407W        W79816  43.972   7.477  11.143
13408W        W79817   1.267  10.542   2.461
13409W        W79818  34.522  12.482  14.381
13410W        W79819  38.564  19.981  11.483
13411W        W79820  36.388  43.945   3.296
13412W        W79821   9.333  15.736   1.774
13413W        W79822  16.537   6.411  14.860
13414W        W79823   5.678  25.190   2.271
13415W        W79824   7.755  32.037   4.014
13416W        W79825   8.914  20.993  11.055
13417W        W79826  20.338   8.714   2.429
13418W        W79827  32.141   5.285   3.548
13419W        W79828  40.109   9.384  12.449
13420W        W79829  14.578  12.293  12.497
13421W        W79830  13.540   0.791  14.200
13422W        W79831  13.262  40.099   0.269
13423W        W79832  40.818  44.822  12.570
13424W        W79833  37.416   0.389  12.876
13425W        W79834  40.277  21.803   1.252
13426W        W79835  32.139  12.501   3.380
13427W        W79836  35.038  40.547   3.671
13428W        W79837   0.510   9.165   2.391
13429W        W79838  30.641   6.834   4.820
13430W        W79839  24.877  19.220   3.262
13431W        W79840  39.462  35.519   3.136
13432W        W79841  21.763  36.081  11.695
13433W        W79842   2.782  10.399  13.888
13434W        W79843  38.084  18.932   3.923
13435W        W79844  27.956  12.837   4.175
13436W        W79845  34.008  39.876   0.979
13437W        W79846  38.467   9.881  11.009
13438W        W79847  33.898  17.012   2.654
13439W        W79848  17.184  36.028  14.741
13440W        W79849  30.847   3.357  13.881
13441W        W79850   6.695  20.788  12.029
13442W        W79851  12.835  29.543  13.640
13443W        W79852  16.063  40.592  12.435
13444W        W79853  20.634  34.452  10.745
13445W        W79854   0.867  12.778  11.354
13446W        W79855   1.263  13.879   0.015
13447W        W79856  15.560  29.438   1.827
13448W        W79857  28.644  30.132  14.789
13449W        W79858  41.088   4.211   0.922
13450W        W79859  33.198  10.685  14.454
13451W        W79860  38.626  12.683  13.602
13452W        W79861  10.339   0.345  13.858
13453W        W79862   6.155  40.224   1.085
13454W        W79863  33.525   2.173   1.470
13455W        W79864   2.016  17.539   4.513
13456W        W79865   5.198  36.509  11.451
13457W        W79866  39.731  14.076  13.782
13458W        W79867  35.867  35.977   4.043
13459W        W79868   9.193  15.881   0.871
13460W        W79869  23.147  26.048   2.898
13461W        W79870  30.870  32.924  12.429
13462W        W79871  44.679  42.796  11.161
13463W        W79872  12.748  30.375  10.429
13464W        W79873   5.845  36.473   2.241
13465W        W79874  43.109  34.511  11.449
13466W        W79875  28.437  42.141   1.847
13467W        W79876  19.243  16.925   2.036
13468W        W79877  42.565  36.237  13.167
13469W        W79878  34.174  24.146  13.395
13470W        W79879  25.443  26.178  14.373
13471W        W79880  28.431  23.305  14.894
13472W        W79881  17.195  10.494  11.437
13473W        W79882  24.848  44.721  11.519
13474W        W79883   3.490  17.182   5.393
13475W        W79884  30.943   5.662   0.945
13476W        W79885  26.459  34.490  14.339
13477W        W79886  34.894  11.873  13.436
13478W        W79887   6.256   9.034   3.299
13479W        W79888   5.631  42.317  13.479
13480W        W79889  26.745   9.778   0.136
13481W        W79890   7.900  42.556  11.934
13482W        W79891  32.232  35.512  11.482
13483W        W79892  22.520   1.417   1.802
13484W        W79893  18.957   6.451  12.205
13485W        W79894  18.673  37.800  14.796
13486W        W79895  21.566  37.266   4.348
13487W        W79896  23.073   7.857   4.104
13488W        W79897  19.026  12.860   1.263
13489W        W79898  23.289  27.353  12.343
13490W        W79899   9.467  24.203   0.859
13491W        W79900  33.147   4.908  14.182
13492W        W79901   2.548  23.176  10.373
13493W        W79902  24.483   9.926   9.889
13494W        W79903  24.697   2.941  12.473
13495W        W79904  27.055  42.892   3.719
13496W        W79905  20.674  13.357   2.293
13497W        W79906  11.646  34.969   4.089
13498W        W79907  21.618  42.049  12.022
13499W        W79908  24.017   2.741   1.657
13500W        W79909  34.356  23.216  11.228
13501W        W79910  26.018  17.212  11.919
13502W        W79911   6.066  44.761   4.470
13503W        W79912  26.000   1.715  13.248
13504W        W79913   2.252  14.834   1.645
13505W        W79914  44.949  21.767   0.394
13506W        W79915  25.019  37.287  14.456
13507W        W79916  34.116   9.648  11.810
13508W        W79917  26.630  36.881   0.254
13509W        W79918  33.388   4.906   1.354
13510W        W79919   8.725  40.506   0.389
13511W        W79920   7.877  16.594  13.469
13512W        W79921  18.032  17.048  10.724
13513W        W79922  29.452  22.057  14.368
13514W        W79923  39.046   3.855   1.475
13515W        W79924  28.557   0.892   2.360
13516W        W79925  18.307  25.187   2.328
13517W        W79926  28.484  40.629   0.481
13518W        W79927  38.894  28.418  12.822
13519W        W79928  18.148   2.223   3.581
13520W        W79929  15.288   9.502   3.192
13521W        W79930   2.251  29.209  12.161
13522W        W79931  16.047  12.673   2.406
13523W        W79932  37.843   5.021  12.035
13524W        W79933  17.247  27.775  11.437
13525W        W79934   3.849  22.945  11.933
13526W        W79935   5.189  36.562  14.765
13527W        W79936  42.109  27.090  13.757
13528W        W79937  24.998   3.346  12.371
13529W        W79938  38.145  41.689   0.114
13530W        W79939  18.489  14.550  11.610
13531W        W79940  13.175  40.537   1.662
13532W        W79941   0.614  38.173  12.651
13533W        W79942  37.130  35.124  12.075
13534W        W79943   7.960  36.875  12.920
13535W        W79944  35.265  21.604   4.933
13536W        W79945  11.292  28.965   2.631
13537W        W79946  19.591  34.771   2.179
13538W        W79947  34.033   9.308   0.661
13539W        W79948  38.472   2.229   2.744
13540W        W79949  19.284  31.265  13.504
13541W        W79950  39.648  41.376   0.889
13542W        W79951   2.496   5.768  14.005
13543W        W79952  16.209   4.044   0.912
13544W        W79953   6.315  30.390  12.891
13545W        W79954  35.359  31.244   0.220
13546W        W79955  44.682  13.619   3.808
13547W        W79956  30.153   8.948  14.839
13548W        W79957  16.341  24.682  10.293
13549W        W79958  16.760   4.348  11.430
13550W        W79959  14.698  42.329  11.375
13551W        W79960  32.224   9.708  12.898
13552W        W79961   9.451   6.300  10.711
13553W        W79962  35.463  18.281   4.754
13554W        W79963   4.286  42.387  13.112
13555W        W79964  20.995  30.964   1.763
13556W        W79965  30.564  41.282  12.951
13557W        W79966  39.404   0.772  11.748
13558W        W79967   7.121  35.383  12.707
13559W        W79968  14.227  30.323  13.832
13560W        W79969   0.047   5.437   0.288
13561W        W79970  39.054  26.535  14.452
13562W        W79971  31.566  23.618  11.376
13563W        W79972  42.900  11.035  14.582
13564W        W79973  19.054  15.637   1.864
13565W        W79974  22.089   4.534   0.736
13566W        W79975  17.879  18.769   2.282
13567W        W79976  42.748   5.868  11.168
13568W        W79977  43.249  29.927  13.444
13569W        W79978  27.817   4.783  10.479
13570W        W79979  24.006   7.547   5.012
13571W        W79980  30.816  19.163  14.781
13572W        W79981  36.752  15.304  11.587
13573W        W79982   5.655  41.129  11.640
13574W        W79983  27.209  25.800   0.985
13575W        W79984  17.370  43.760   3.251
13576W        W79985  43.040  32.449  12.278
13577W        W79986   3.230  15.739   4.182
13578W        W79987  20.258  15.710   4.752
13579W        W79988  10.456  27.207  11.060
13580W        W79989  11.646  21.384   3.558
13581W        W79990   9.915  22.822   0.854
13582W        W79991  41.981   0.063   1.587
13583W        W79992   2.958  16.028   0.868
13584W        W79993  29.144  24.470   1.322
13585W        W79994  23.047  35.500   0.974
13586W        W79995  31.668  39.000   1.680
13587W        W79996  29.088  29.897  14.712
13588W        W79997  28.120  24.424   0.059
13589W        W79998  23.147  44.490  14.867
13590W        W79999  31.912  11.756   4.100
13591W        W80000  24.836  36.986  12.710
13592W        W80001  22.704  22.644   2.695
13593W        W80002  14.498  27.664  12.096
13594W        W80003  40.374  38.568  14.835
13595W        W80004  44.492  32.484   3.246
13596W        W80005  27.190  35.313  13.841
13597W        W80006  41.882  43.889  12.410
13598W        W80007   4.502  22.544   5.045
13599W        W80008  42.123  25.925   0.567
13600W        W80009  25.066  16.923  11.236
13601W        W80010  11.130  40.476  11.698
13602W        W80011  42.875  44.600   2.305
13603W        W80012  18.549  36.473   9.635
13604W        W80013  21.130  10.590   0.923
13605W        W80014  40.582   3.300   5.211
13606W        W80015  30.045   0.166   0.174
13607W        W80016   1.432  26.961   2.688
13608W        W80017  43.752  14.256   3.284
13609W        W80018   0.790  44.022   1.607
13610W        W80019  43.404  25.094  14.679
13611W        W80020  16.627   8.124   1.278
13612W        W80021  18.192  43.399   4.986
13613W        W80022  32.587  32.480  14.311
13614W        W80023  42.837   7.196   1.859
13615W        W80024  14.239  24.384  10.738
13616W        W80025   1.391  27.979   4.260
13617W        W80026  12.134  43.920  14.009
13618W        W80027  43.463  28.605  13.949
13619W        W80028   9.557  15.358   1.520
13620W        W80029  38.820  18.164   1.724
13621W        W80030   8.784  21.775  12.950
13622W        W80031  14.578  43.856  11.208
13623W        W80032  31.850  21.240   1.411
13624W        W80033  31.527  16.873  12.644
13625W        W80034  29.814   9.821   5.135
13626W        W80035  11.928  19.322   2.218
13627W        W80036  38.915  40.939   2.280
13628W        W80037  24.656  20.549   4.149
13629W        W80038  29.636  17.017  12.466
13630W        W80039  39.091  27.529  11.472
13631W        W80040  30.955  19.938  12.013
13632W        W80041   9.683  38.365  12.547
13633W        W80042  14.582  30.680   1.305
13634W        W80043  40.538   1.475  14.766
13635W        W80044  14.161  25.706  11.280
13636W        W80045  14.694  30.038   0.879
13637W        W80046  17.370  33.479  13.895
13638W        W80047   6.171  21.180   3.242
13639W        W80048  38.930  13.032  13.371
13640W        W80049   3.201  21.069  14.549
13641W        W80050  42.450  31.006   4.452
13642W        W80051  15.296   3.524  13.498
13643W        W80052  27.933  36.456  14.058
13644W        W80053   4.259  39.303  12.494
13645W        W80054  25.620   2.957   4.338
13646W        W80055  15.424  18.983   2.736
13647W        W80056  11.715  35.193   2.202
13648W        W80057  41.661  39.138  13.784
13649W        W80058  30.089  14.236   4.389
13650W        W80059  23.419  27.016   0.313
13651W        W80060  13.426  14.816  12.719
13652W        W80061  20.392  36.666   1.223
13653W        W80062  33.757  26.968  12.422
13654W        W80063  16.084  43.971  14.837
13655W        W80064  40.110   1.688   0.006
13656W        W80065  22.821  44.990   0.592
13657W        W80066   5.468  12.791   4.605
13658W        W80067  10.118  13.918   0.332
13659W        W80068  14.717  32.123  10.287
13660W        W80069  10.823  27.690   1.965
13661W        W80070  12.596  14.618  13.067
13662W        W80071  19.713  34.512   4.198
13663W        W80072  28.576  19.197   0.500
13664W        W80073  19.734  44.272  12.448
13665W        W80074   5.023  11.773   0.757
13666W        W80075  25.022  15.286   1.418
13667W        W80076  40.224  23.767   3.504
13668W        W80077  18.691   8.900   0.327
13669W        W80078   6.309  42.430  11.723
13670W        W80079  34.471   8.641   2.832
13671W        W80080  41.378  28.680   2.001
13672W        W80081  28.476  18.640  14.775
13673W        W80082   2.347  10.022  11.749
13674W        W80083   5.729  15.051   2.770
13675W        W80084  19.748  14.717   2.437
13676W        W80085  18.681  36.498  10.922
13677W        W80086  26.991   6.930  11.705
13678W        W80087  39.436   9.083   4.822
13679W        W80088  43.756  29.342   3.511
13680W        W80089  18.078  28.532  12.588
13681W        W80090  15.626  13.654   3.788
13682W        W80091  21.144  23.486   2.783
13683W        W80092  29.562  10.901   3.819
13684W        W80093  14.617  11.741   1.297
13685W        W80094  10.760   5.463  11.178
13686W        W80095  14.119  19.595   2.543
13687W        W80096  19.177   6.249  14.356
13688W        W80097   3.374  37.095   2.846
13689W        W80098  21.029  34.597   4.304
13690W        W80099  21.495   7.971   2.648
13691W        W80100  38.119  11.059  11.978
13692W        W80101  16.406  32.614  13.973
13693W        W80102  16.489   9.168   1.276
13694W        W80103  24.640  28.507  13.351
13695W        W80104   3.929  34.043   0.330
13696W        W80105  18.045   5.090  12.583
13697W        W80106  22.716   1.031  10.775
13698W        W80107   5.148  17.148  14.439
13699W        W80108   6.887  13.248   2.764
13700W        W80109  10.254  37.218   5.103
13701W        W80110  21.555  40.082  13.494
13702W        W80111  22.218  15.328   1.218
13703W        W80112  44.434  17.431  11.601
13704W        W80113  43.235  28.131   3.779
13705W        W80114  38.030  11.648  10.306
13706W        W80115   2.898   3.273   3.054
13707W        W80116  20.808  36.807   2.354
13708W        W80117   8.850  25.284  14.359
13709W        W80118  19.187  11.622  12.434
13710W        W80119  15.600  17.251   0.350
13711W        W80120  23.951  31.299  14.944
13712W        W80121  23.110  39.436   4.555
13713W        W80122  36.796  13.610  14.812
13714W        W80123  20.266  30.817  11.086
13715W        W80124  15.180  43.972   0.723
13716W        W80125  38.386  26.056  13.071
13717W        W80126  19.609  23.100  12.622
13718W        W80127  12.805  25.502  13.098
13719W        W80128  10.057  42.897  12.325
13720W        W80129  13.443   3.905   4.404
13721W        W80130  22.324  41.410   0.850
13722W        W80131   9.193  40.103   1.684
13723W        W80132  33.634  17.524  13.190
13724W        W80133   4.477  23.401   2.305
13725W        W80134  19.745  21.107   3.237
13726W        W80135  23.083  34.602  10.681
13727W        W80136  21.142  15.845   4.453
13728W        W80137  44.235  11.422  14.599
13729W        W80138  17.658  22.146   1.132
13730W        W80139   7.257   4.857   4.143
13731W        W80140  36.040  11.079   3.552
13732W        W80141  44.933  44.065  14.709
13733W        W80142  36.331  23.597   2.809
13734W        W80143   1.011  25.414   3.370
13735W        W80144  30.122   1.435  13.082
13736W        W80145   0.083  15.369  11.140
13737W        W80146  11.613  41.833   2.522
13738W        W80147  22.164  15.396   2.132
13739W        W80148  11.144  39.976  11.060
13740W        W80149  33.667  35.083  14.689
13741W        W80150  31.525  30.172   3.340
13742W        W80151  40.711  16.842   0.030
13743W        W80152   7.480  37.765  14.450
13744W        W80153   4.499  31.133   1.446
13745W        W80154   0.707  36.131   0.918
13746W        W80155  31.042  28.862  12.625
13747W        W80156   9.619  30.088  10.854
13748W        W80157  35.922  12.476   2.695
13749W        W80158  29.316   2.948   3.808
13750W        W80159  30.972  31.550   4.600
13751W        W80160  37.000  14.847   2.693
13752W        W80161  20.724   0.362  13.889
13753W        W80162  13.077  15.168  12.548
13754W        W80163  25.704   2.432  10.940
13755W        W80164   6.455  27.837  10.379
13756W        W80165   3.012  15.196  12.847
13757W        W80166  37.247  11.457  13.489
13758W        W80167   5.713  31.854   4.197
13759W        W80168  10.771   7.783   3.486
13760W        W80169   1.550  17.610  13.447
13761W        W80170  29.162  23.827  11.482
13762W        W80171  33.671  11.889   4.004
13763W        W80172  23.487  44.933   1.262
13764W        W80173   9.612  36.403   0.648
13765W        W80174  21.151  40.343   0.039
13766W        W80175  44.551  35.325  12.161
13767W        W80176  34.170  22.155   2.203
13768W        W80177  35.222  11.613   1.309
13769W        W80178  26.637   0.280  11.146
13770W        W80179  32.512  15.199   1.467
13771W        W80180  21.275   5.114  11.235
13772W        W80181   2.389  22.898  14.608
13773W        W80182  10.371   7.218  11.359
13774W        W80183  34.929  43.405  14.916
13775W        W80184   4.855  27.657   1.757
13776W        W80185  15.866  20.552  13.492
13777W        W80186  38.778  38.959  11.172
13778W        W80187   7.409  40.244  14.687
13779W        W80188   6.269  33.862  10.421
13780W        W80189  18.371  12.697  14.285
13781W        W80190   0.868  33.864   3.258
13782W        W80191  21.191  19.809   1.782
13783W        W80192  26.701   8.859  12.419
13784W        W80193  20.119  16.411  12.614
13785W        W80194   8.673  19.247   4.101
13786W        W80195   1.729   3.666  11.138
13787W        W80196   2.796  39.078   0.720
13788W        W80197  23.587  20.218  12.116
13789W        W80198  36.090  23.587   3.276
13790W        W80199   4.097  25.865  14.368
13791W        W80200  35.581  18.274  11.059
13792W        W80201  23.040  25.378  14.572
13793W        W80202  15.851  22.874  12.926
13794W        W80203  10.857  34.686   4.690
13795W        W80204  32.109  20.520  14.811
13796W        W80205  27.906  29.061   4.544
13797W        W80206  13.744   8.670  14.016
13798W        W80207  38.340  14.367  11.494
13799W        W80208  12.651  11.376  11.999
13800W        W80209  40.943   7.154   3.174
13801W        W80210   1.032  14.147   4.078
13802W        W80211   2.026  24.700  12.453
13803W        W80212  17.259  28.911   2.730
13804W        W80213  14.097  34.556   3.871
13805W        W80214  24.995  37.528   4.958
13806W        W80215   5.207   2.793   4.569
13807W        W80216  35.912  36.019   0.956
13808W        W80217  37.133   1.527  11.729
13809W        W80218  14.172  38.632  12.029
13810W        W80219   5.828  34.092   0.331
13811W        W80220  38.359  10.257  14.834
13812W        W80221  36.162  31.039   3.101
13813W        W80222  32.045   3.000  13.541
13814W        W80223  41.258  36.069   0.649
13815W        W80224  28.197   1.849   2.276
13816W        W80225  36.476  11.641   4.429
13817W        W80226  44.949  44.230  14.207
13818W        W80227  28.049  27.372  14.226
13819W        W80228  11.395  44.185   4.104
13820W        W80229  17.039   7.930  10.426
13821W        W80230  34.933  38.995   3.595
13822W        W80231   1.044  32.252   4.066
13823W        W80232  13.038   5.301  14.135
13824W        W80233  12.847  24.767   0.722
13825W        W80234   7.337  41.012   4.651
13826W        W80235  37.075  40.539  14.776
13827W        W80236  40.791  12.270  14.284
13828W        W80237   5.640  38.558   3.746
13829W        W80238   2.594  31.689  12.450
13830W        W80239  32.363  20.145   1.828
13831W        W80240  10.404  16.285  14.410
13832W        W80241  13.537  30.947   0.825
13833W        W80242  44.311  10.858   4.063
13834W        W80243  35.512   5.125   4.959
13835W        W80244  21.790  26.538  14.389
13836W        W80245  23.684   8.420  10.981
13837W        W80246  42.088  23.234  11.093
13838W        W80247  16.344  39.940   4.422
13839W        W80248  15.032  15.810  13.088
13840W        W80249  39.158   0.958   0.865
13841W        W80250  26.944  24.465  11.539
13842W        W80251   6.361  16.285   4.658
13843W        W80252  42.983  17.243   4.260
13844W        W80253  12.819  37.371   3.187
13845W        W80254  32.519  38.323   2.712
13846W        W80255   5.171  30.884  13.999
13847W        W80256  37.415   6.587   2.908
13848W        W80257  27.147  16.361   1.392
13849W        W80258   5.366  31.151  11.635
13850W        W80259   1.701  18.705   2.153
13851W        W80260  11.247   7.122   4.040
13852W        W80261  31.234   1.398   4.517
13853W        W80262  12.922   5.710  11.819
13854W        W80263  22.575  37.408  14.854
13855W        W80264  29.834  16.750   4.635
13856W        W80265   0.495  11.796   0.323
13857W        W80266  44.456  27.921  10.583
13858W        W80267  32.938  12.054  13.425
13859W        W80268  44.306  44.440  11.483
13860W        W80269  23.519  38.272   2.274
13861W        W80270  44.430  43.296  11.994
13862W        W80271  35.597   5.950   4.217
13863W        W80272  10.549  16.685   2.778
13864W        W80273  24.564  26.802  12.871
13865W        W80274  15.571  28.710  13.878
13866W        W80275  27.559  36.897   0.774
13867W        W80276   7.774   3.939  13.189
13868W        W80277   2.335  44.267   0.250
13869W        W80278  38.743  11.690   4.148
13870W        W80279  28.109  34.052   2.147
13871W        W80280  31.618  25.472   4.208
13872W        W80281  28.829  12.205  11.168
13873W        W80282  44.947  32.358  14.068
13874W        W80283  38.305  20.992   0.845
13875W        W80284  42.944  24.556   3.204
13876W        W80285  36.573  38.126   0.862
13877W        W80286  29.829   4.370   1.857
13878W        W80287  27.075  40.490  12.492
13879W        W80288  12.082  39.937  14.693
13880W        W80289  44.444   5.506  11.048
13881W        W80290  30.574  26.063  12.843
13882W        W80291  27.758  39.442  13.273
13883W        W80292  42.791   9.752   1.179
13884W        W80293  16.134  44.064  12.897
13885W        W80294   9.321  23.862   4.300
13886W        W80295  24.519  39.532  13.909
13887W        W80296   1.897  43.907  11.988
13888W        W80297  16.433  36.393  14.273
13889W        W80298  28.645  39.009   2.691
13890W        W80299  36.517   4.798  13.413
13891W        W80300   2.664  18.746   4.542
13892W        W80301  33.921  44.488   3.271
13893W        W80302  44.970  17.289   0.373
13894W        W80303  30.882  42.978   2.850
13895W        W80304  33.504  33.458   2.170
13896W        W80305   6.586  21.743  14.386
13897W        W80306  19.146  24.958  12.483
13898W        W80307   1.427  16.321   1.457
13899W        W80308  21.951   9.669  13.315
13900W        W80309  38.969  11.097   1.823
13901W        W80310   5.487  36.593  14.306
13902W        W80311  36.182  21.926  14.391
13903W        W80312  18.251  27.584  12.898
13904W        W80313  39.573  29.340  12.229
13905W        W80314  13.903  42.297   1.367
13906W        W80315  22.213  27.436  10.858
13907W        W80316  27.564  43.027   1.808
13908W        W80317  44.012  22.513  11.456
13909W        W80318  23.253  24.773  12.879
13910W        W80319  24.695  32.019  13.015
13911W        W80320  15.974  11.274   2.440
13912W        W80321   2.204  22.162   0.807
13913W        W80322  22.287  37.976   1.313
13914W        W80323  11.302  35.971   3.626
13915W        W80324  15.655  19.140  12.785
13916W        W80325  34.684   5.735   4.122
13917W        W80326  16.565  16.136   0.272
13918W        W80327   6.046  11.887   0.664
13919W        W80328   3.740  15.631  11.585
13920W        W80329  10.165   5.045  10.880
13921W        W80330  40.223   0.950   1.770
13922W        W80331  22.570  21.457  14.550
13923W        W80332  39.800  25.998   0.524
13924W        W80333  40.526  19.093  10.685
13925W        W80334   0.494  21.448  14.758
13926W        W80335  42.584   9.690  14.879
13927W        W80336   1.481  19.787  13.011
13928W        W80337  40.897  10.617   1.793
13929W        W80338  27.610   0.414   0.942
13930W        W80339  39.288  40.685   5.037
13931W        W80340   1.110  19.686  13.916
13932W        W80341  20.451   1.883  14.492
13933W        W80342  33.142  22.632   1.308
13934W        W80343  42.425  36.316  10.547
13935W        W80344  19.722  35.946   1.098
13936W        W80345   4.251   1.344  11.868
13937W        W80346  29.025  39.569  14.947
13938W        W80347  38.978  26.495  13.548
13939W        W80348  27.445  22.355   0.769
13940W        W80349  22.224  19.712   0.295
13941W        W80350  24.782   0.726  14.300
13942W        W80351   8.388  12.760   3.795
13943W        W80352  12.824  26.580   1.242
13944W        W80353  28.443  21.483   5.503
13945W        W80354  11.673  13.826  10.896
13946W        W80355   1.754  26.226   2.395
13947W        W80356   2.140  19.779   0.816
13948W        W80357   7.696   7.620  11.696
13949W        W80358  18.501   6.249  12.124
13950W        W80359  27.043  21.210  12.616
13951W        W80360   2.781   1.299  14.340
13952W        W80361  12.707  10.950  13.426
13953W        W80362  35.026   6.923   2.818
13954W        W80363  16.201  35.124  12.992
13955W        W80364  24.551  34.440  10.581
13956W        W80365  43.890  19.463   2.271
13957W        W80366  12.174  29.844  12.907
13958W        W80367   9.092  41.251   3.305
13959W        W80368   7.378  39.851  14.351
13960W        W80369  37.887  32.757  11.074
13961W        W80370   0.233  19.145   1.945
13962W        W80371  17.845   9.298   0.748
13963W        W80372  16.656  44.895   1.957
13964W        W80373  22.213  15.563   3.405
13965W        W80374  28.226  31.810  11.133
13966W        W80375  18.092  12.601  10.616
13967W        W80376  25.397  19.112  10.601
13968W        W80377   8.718  13.189  12.622
13969W        W80378   8.170  13.741  14.367
13970W        W80379  31.356  38.399  11.107
13971W        W80380   4.052  42.730   4.035
13972W        W80381  15.544  36.295   3.080
13973W        W80382  39.579  31.673   3.838
13974W        W80383  10.589  18.087   1.659
13975W        W80384  43.248  18.819   2.314
13976W        W80385  25.080   1.846   0.562
13977W        W80386   1.719  41.437   2.256
13978W        W80387  35.892  36.934   2.398
13979W        W80388  43.824  37.005   0.460
13980W        W80389  26.292  37.419  13.540
13981W        W80390  24.017   1.266  10.411
13982W        W80391  36.947  23.573  14.381
13983W        W80392   7.659  38.831   2.643
13984W        W80393  18.107  36.423  14.079
13985W        W80394   5.718  36.996  12.064
13986W        W80395  38.141  26.672   1.014
13987W        W80396   1.150  16.727  11.035
13988W        W80397  13.844  34.112   2.845
13989W        W80398   3.316  24.975   0.812
13990W        W80399  17.247  14.554   2.293
13991W        W80400  27.167   0.476   3.690
13992W        W80401  39.520  26.176  14.809
13993W        W80402  32.243   0.855  11.159
13994W        W80403  21.728  22.371  13.629
13995W        W80404  44.325  20.122  13.558
13996W        W80405  25.154  42.831   3.114
13997W        W80406  42.078  35.848   0.316
13998W        W80407  43.473  40.040  13.544
13999W        W80408   0.121  11.084   0.628
14000W        W80409  18.466  22.142  10.677
14001W        W80410  33.852  19.121  14.499
14002W        W80411   0.907   2.518  11.611
14003W        W80412  25.699  42.855   4.467
14004W        W80413  40.095  34.476   2.051
14005W        W80414  24.028  25.469  14.507
14006W        W80415  41.487  41.405   2.434
14007W        W80416  31.864  41.230   3.750
14008W        W80417   5.301   8.214   3.800
14009W        W80418  25.519   5.624   2.669
14010W        W80419  14.249  11.782  12.328
14011W        W80420   4.815  38.122  11.126
14012W        W80421   1.888  18.643  14.424
14013W        W80422   9.806  19.280  12.491
14014W        W80423  34.683  42.967  12.006
14015W        W80424  38.026  44.388   0.415
14016W        W80425  15.398   0.833   3.133
14017W        W80426   7.362  20.240  11.469
14018W        W80427   9.525  33.394   0.783
14019W        W80428  44.912  38.505  13.880
14020W        W80429  44.732   9.194   1.773
14021W        W80430  26.022  41.977  11.966
14022W        W80431  34.466  19.759   1.358
14023W        W80432   0.909   7.081   3.224
14024W        W80433  16.044  41.452   2.000
14025W        W80434  25.542  42.177   0.943
14026W        W80435  39.429  32.268  14.381
14027W        W80436   4.543  43.740   0.650
14028W        W80437  20.833  29.874  14.469
14029W        W80438  35.893  42.815  10.760
14030W        W80439  17.792  18.702  12.816
14031W        W80440  27.688   6.733   3.046
14032W        W80441  33.977  23.879   1.428
14033W        W80442  44.279  34.415   0.841
14034W        W80443   0.296  44.515   3.527
14035W        W80444  14.304  20.613   3.385
14036W        W80445  31.894  34.181   3.606
14037W        W80446  38.696  27.676   2.313
14038W        W80447  11.825  42.863  14.493
14039W        W80448  29.942  19.972  14.095
14040W        W80449  17.341  44.758   1.217
14041W        W80450  19.493  23.958   0.225
14042W        W80451  28.739  41.863  11.633
14043W        W80452  40.979  18.770   3.294
14044W        W80453  23.225  38.363  11.603
14045W        W80454  15.277   0.509  11.020
14046W        W80455  39.306  23.839   3.722
14047W        W80456  27.519  12.815  14.300
14048W        W80457  13.058  44.937   1.824
14049W        W80458  26.183  12.122   1.866
14050W        W80459  42.126  34.834  12.915
14051W        W80460  13.722  29.704   0.998
14052W        W80461  13.175  42.057   1.517
14053W        W80462  28.959  15.606   1.259
14054W        W80463  18.359   4.779  14.803
14055W        W80464  44.266   4.783   1.214
14056W        W80465  28.041  34.737   4.053
14057W        W80466   4.358  34.127  12.984
14058W        W80467   8.638  12.315  11.608
14059W        W80468  41.817  40.428  10.668
14060W        W80469  14.563  40.386   0.660
14061W        W80470  27.009  31.473  13.455
14062W        W80471  40.397   3.598  12.894
14063W        W80472   3.404   8.633   4.615
14064W        W80473  30.803  41.199   4.978
14065W        W80474  40.206  24.597  13.946
14066W        W80475   8.844   9.154  11.056
14067W        W80476   7.656  16.176   0.772
14068W        W80477  42.792  37.046  12.981
14069W        W80478  22.762  41.849  12.091
14070W        W80479  42.970  20.627  11.630
14071W        W80480  24.190   4.481  13.911
14072W        W80481  38.839  26.206   5.149
14073W        W80482  19.152  28.530  11.765
14074W        W80483  33.677  30.300  14.548
14075W        W80484   8.877   5.690   4.840
14076W        W80485  20.667  15.245  14.033
14077W        W80486  30.786  18.535   5.012
14078W        W80487  14.791   2.636  14.645
14079W        W80488   0.923  37.841   0.923
14080W        W80489   1.517  41.833  11.550
14081W        W80490  10.199   5.499  11.259
14082W        W80491   6.943   6.832   0.951
14083W        W80492  33.283   5.965  13.693
14084W        W80493  38.840  13.909   2.697
14085W        W80494   4.663  35.575   9.952
14086W        W80495  32.539   5.158   2.591
14087W        W80496  17.354  14.784   4.185
14088W        W80497  43.361  31.424  12.159
14089W        W80498   1.405  34.638  14.403
14090W        W80499  25.413  22.857   1.694
14091W        W80500   5.839  22.521  10.628
14092W        W80501   4.245  18.191  10.507
14093W        W80502  28.086  28.056   4.010
14094W        W80503  15.109  11.276  12.238
14095W        W80504  27.994  14.068   0.892
14096W        W80505   2.205  21.669   0.932
14097W        W80506  39.982  14.170   4.629
14098W        W80507  10.337  28.515   1.751
14099W        W80508  34.932  17.855  13.541
14100W        W80509  10.283  21.432  11.969
14101W        W80510   6.069  32.695  12.889
14102W        W80511  15.800  21.058   1.846
14103W        W80512  20.632  36.154   3.138
14104W        W80513  12.695  23.706  13.527
14105W        W80514  41.806  10.758  11.920
14106W        W80515  42.105  18.113   2.276
14107W        W80516  32.418   4.434   0.248
14108W        W80517  24.106  44.351   1.192
14109W        W80518  34.497  22.311   4.778
14110W        W80519  40.846  41.216   0.547
14111W        W80520  13.767  14.131   1.458
14112W        W80521  20.342  13.815   1.732
14113W        W80522  29.520  25.611  12.048
14114W        W80523  36.874  28.908  14.907
14115W        W80524  22.417  20.568  13.987
14116W        W80525   2.417   7.420  14.922
14117W        W80526  32.886  31.216   3.626
14118W        W80527  28.912  43.031  14.458
14119W        W80528   5.426  39.363  13.398
14120W        W80529  22.110  11.710   2.047
14121W        W80530  22.649  17.061  13.000
14122W        W80531  39.143   5.243   2.766
14123W        W80532  31.563  33.929   1.679
14124W        W80533   4.155  32.550  11.495
14125W        W80534   5.651   3.343   2.366
14126W        W80535  31.532   0.305   2.078
14127W        W80536   3.193  36.434  14.734
14128W        W80537  26.649  13.219  13.535
14129W        W80538  36.371  43.362  12.462
14130W        W80539  40.738  36.565  12.510
14131W        W80540  10.146  21.143  10.995
14132W        W80541  19.472  28.700   3.374
14133W        W80542   3.524  30.102  12.374
14134W        W80543  36.573  21.395   2.383
14135W        W80544  29.146  17.454   2.781
14136W        W80545  27.556   6.429  11.081
14137W        W80546  40.842   7.152  11.941
14138W        W80547   0.399  36.113  11.704
14139W        W80548  19.182  36.841   1.907
14140W        W80549  35.347   5.105   2.186
14141W        W80550  20.585  39.235   2.658
14142W        W80551  21.169  22.505   0.319
14143W        W80552   7.103   3.197   3.228
14144W        W80553  22.072  39.366  11.167
14145W        W80554  31.392  23.971   0.763
14146W        W80555  41.258  21.350  12.974
14147W        W80556  40.493   4.109  13.018
14148W        W80557  37.070  26.762   3.862
14149W        W80558  31.592  40.447   3.684
14150W        W80559   1.168  17.489   0.862
14151W        W80560  42.755  41.856   1.793
14152W        W80561   3.191  34.166  13.427
14153W        W80562  31.853  36.899   0.705
14154W        W80563  35.368  24.504   3.900
14155W        W80564   2.800  26.414  13.908
14156W        W80565   8.981  41.640  14.933
14157W        W80566  25.913  10.367   4.609
14158W        W80567  22.995   9.620   3.562
14159W        W80568  39.812  21.176  13.032
14160W        W80569   1.474  42.604  13.490
14161W        W80570  38.784   6.726   1.025
14162W        W80571  27.231  11.704   4.573
14163W        W80572  25.502  17.331  13.318
14164W        W80573  26.032  33.870   3.471
14165W        W80574  34.951  17.232   1.232
14166W        W80575  13.654   2.796  12.657
14167W        W80576  18.177   8.269  11.501
14168W        W80577  18.778  34.361  14.064
14169W        W80578  21.232  33.949   0.937
14170W        W80579  34.414  43.147   2.363
14171W        W80580  20.501  26.224   0.864
14172W        W80581  44.376   2.181   2.873
14173W        W80582  31.063  25.073   2.717
14174W        W80583  15.603  36.588   1.337
14175W        W80584  40.978  17.538  11.588
14176W        W80585  42.845  13.153   4.518
14177W        W80586  22.379  37.845   2.206
14178W        W80587  36.537  43.306   4.565
14179W        W80588  14.187  26.160   4.765
14180W        W80589   7.293  20.739   1.837
14181W        W80590   9.867  10.568  12.467
14182W        W80591  10.242   1.514  12.215
14183W        W80592   1.470   3.209  12.004
14184W        W80593  18.320   6.733   0.757
14185W        W80594  27.552  20.059   1.064
14186W        W80595   9.148  40.371  11.938
14187W        W80596  43.527  15.498   1.338
14188W        W80597   3.792  43.738  11.314
14189W        W80598  14.086  29.878  12.440
14190W        W80599  41.145  13.147  11.253
14191W        W80600  13.709  43.551  12.580
14192W        W80601  33.124   2.238  11.867
14193W        W80602  40.388  39.567  11.661
14194W        W80603  18.068  38.390   0.023
14195W        W80604  42.273   5.744  13.896
14196W        W80605  17.594  41.342   0.866
14197W        W80606  32.865  43.663  12.022
14198W        W80607  19.087  23.563  12.017
14199W        W80608  36.659  34.345  12.481
14200W        W80609  15.635   7.625   4.479
14201W        W80610   9.595  16.533  12.913
14202W        W80611   1.582  11.618   4.108
14203W        W80612   9.345  44.984   1.737
14204W        W80613   4.367  32.868  12.882
14205W        W80614   9.386  21.904   1.698
14206W        W80615  28.442  10.220  11.823
14207W        W80616   5.789  35.371  13.943
14208W        W80617  12.695  17.644  12.118
14209W        W80618  25.172   6.505   4.504
14210W        W80619  22.853  11.311   4.026
14211W        W80620   5.645  33.100  12.819
14212W        W80621  39.020  44.003  10.499
14213W        W80622  14.050  22.577  13.811
14214W        W80623  26.194  20.899  13.049
14215W        W80624   7.613  17.788   3.396
14216W        W80625  13.968  39.506   2.784
14217W        W80626  24.260  14.548  14.241
14218W        W80627   1.200  22.220   3.303
14219W        W80628  38.756  39.071   2.104
14220W        W80629  16.466  33.878  12.035
14221W        W80630  18.265  26.460  12.502
14222W        W80631  22.605  35.608  12.025
14223W        W80632  30.945  33.843   4.037
14224W        W80633  20.294  17.814  13.929
14225W        W80634  36.968  17.442   3.545
14226W        W80635  41.746  13.600  13.487
14227W        W80636  20.534  38.296   1.557
14228W        W80637  19.736  37.246   3.864
14229W        W80638  27.355  42.690   4.445
14230W        W80639  39.470  33.702   1.471
14231W        W80640  19.520  17.707   1.439
14232W        W80641  18.646   3.283   2.250
14233W        W80642   9.918  39.492   1.232
14234W        W80643   0.300  11.883   2.913
14235W        W80644   3.728  32.142   3.227
14236W        W80645  34.904  37.486  10.701
14237W        W80646  18.320  30.176   1.556
14238W        W80647  21.245  26.426  14.341
14239W        W80648  35.406  23.526   2.766
14240W        W80649  14.311  35.918   4.730
14241W        W80650   5.482  27.569   0.015
14242W        W80651   4.013  30.066   4.180
14243W        W80652  37.289   8.530   3.377
14244W        W80653  17.806  43.874   0.828
14245W        W80654  19.962  37.224   2.954
14246W        W80655  19.079  20.585   1.791
14247W        W80656  41.506  17.051   5.011
14248W        W80657  13.597   4.830   1.254
14249W        W80658   6.638  23.327  14.553
14250W        W80659  14.622  34.361   0.922
14251W        W80660  40.300  32.974   3.213
14252W        W80661  41.403   7.180  10.821
14253W        W80662  34.006  13.020   2.240
14254W        W80663  21.456  40.356   3.452
14255W        W80664  26.643   8.237   1.707
14256W        W80665  24.929  32.870   3.330
14257W        W80666   2.158  19.842   2.956
14258W        W80667  19.268  34.826  10.674
14259W        W80668   0.976  12.391   3.225
14260W        W80669  32.560  37.552   0.548
14261W        W80670   6.705  41.918  12.995
14262W        W80671  20.694  39.534   4.106
14263W        W80672  21.918  16.805   4.158
14264W        W80673  13.468   4.881  13.396
14265W        W80674   5.172  17.563  14.777
14266W        W80675  18.514  23.066   0.038
14267W        W80676  11.346  38.359   2.698
14268W        W80677  43.354  38.583   3.556
14269W        W80678  18.033  32.255  11.138
14270W        W80679  32.104  42.033   0.016
14271W        W80680  25.683   6.966   4.156
14272W        W80681  21.062  21.208   1.615
14273W        W80682   8.832   8.555   3.177
14274W        W80683  27.966  25.482  14.891
14275W        W80684  23.599  26.552  12.085
14276W        W80685  26.522  21.132  13.385
14277W        W80686  13.905  15.669   0.427
14278W        W80687  26.122   9.623  12.571
14279W        W80688   5.408  36.408  10.971
14280W        W80689  40.504  19.359  11.117
14281W        W80690  34.125  23.212  12.449
14282W        W80691  11.124  23.705  10.655
14283W        W80692   9.877   7.183   2.641
14284W        W80693   0.946  37.343   2.292
14285W        W80694  32.052   3.373   1.237
14286W        W80695  36.012   0.573   3.160
14287W        W80696   0.952  27.462   1.776
14288W        W80697  43.219  24.705   1.918
14289W        W80698  18.291  36.489  14.565
14290W        W80699   6.681  17.968   0.820
14291W        W80700  33.523  36.522   4.154
14292W        W80701  20.041   2.922  10.691
14293W        W80702  27.539  33.988   1.374
14294W        W80703  14.169   4.265   1.816
14295W        W80704   5.776  37.788   1.839
14296W        W80705  35.532  33.853  14.461
14297W        W80706  40.361  29.885   2.253
14298W        W80707  23.211  20.173   0.853
14299W        W80708  23.001  44.871   1.435
14300W        W80709  43.336  28.637   4.677
14301W        W80710  29.175  12.220  12.987
14302W        W80711  11.877  27.501  14.712
14303W        W80712   8.228   1.752   2.805
14304W        W80713  22.213  40.690  10.506
14305W        W80714   9.247  10.944   1.066
14306W        W80715  15.168  32.995   4.144
14307W        W80716   9.425  26.694   4.567
14308W        W80717  28.202   0.622  10.189
14309W        W80718  19.719  17.738  13.990
14310W        W80719  28.308   1.292  10.755
14311W        W80720  20.734  36.600   4.363
14312W        W80721   9.891  43.009   0.738
14313W        W80722  25.687  38.833  13.391
14314W        W80723  41.123  15.229   4.515
14315W        W80724  23.651  12.182  12.012
14316W        W80725  20.052  43.319  14.867
14317W        W80726  11.096   5.340   4.894
14318W        W80727  16.741  12.611  12.580
14319W        W80728  28.196   6.659  14.418
14320W        W80729  43.223   1.758   3.952
14321W        W80730  10.296  30.362   4.008
14322W        W80731  10.682  22.840   2.730
14323W        W80732  26.982  14.357   1.835
14324W        W80733   6.697  37.381  12.118
14325W        W80734   0.777  23.573  11.748
14326W        W80735  29.822  37.798  14.825
14327W        W80736  22.654  21.623  13.871
14328W        W80737  23.862  15.081  12.844
14329W        W80738  40.768  15.126  12.505
14330W        W80739  44.196  26.436   1.911
14331W        W80740  33.284  23.583  14.016
14332W        W80741   8.138  32.500  10.064
14333W        W80742   0.314  19.649   1.244
14334W        W80743  24.625  33.195   4.225
14335W        W80744  18.055  36.185   1.763
14336W        W80745  26.619   5.597   4.053
14337W        W80746  37.321   6.325   1.942
14338W        W80747   0.825   2.969   2.474
14339W        W80748  42.984  31.886  14.853
14340W        W80749  23.107  31.786  14.944
14341W        W80750   4.932   0.542   5.040
14342W        W80751  31.141  16.634  12.098
14343W        W80752  15.719  41.769   2.326
14344W        W80753  41.834  17.070   2.236
14345W        W80754  29.204  33.456  10.594
14346W        W80755  10.132  21.714   3.794
14347W        W80756  42.464   3.788   0.802
14348W        W80757  10.258  15.699   4.306
14349W        W80758  21.479  19.470   4.069
14350W        W80759   6.267   0.290   0.843
14351W        W80760  41.883  39.961   4.069
14352W        W80761  28.748  23.515   1.398
14353W        W80762  20.154  33.598  10.832
14354W        W80763  17.688  32.415   4.161
14355W        W80764  32.469   6.788   4.669
14356W        W80765  33.857  15.247   2.644
14357W        W80766  33.543  40.837   0.332
14358W        W80767  36.748  10.854   2.240
14359W        W80768  15.833   1.824  11.618
14360W        W80769  31.903  15.112  14.962
14361W        W80770  11.469  29.129  14.497
14362W        W80771  39.576  26.477  11.355
14363W        W80772  10.955  16.088  10.734
14364W        W80773  22.163  20.694  11.759
14365W        W80774  18.534  15.051  11.675
14366W        W80775   0.730  30.707  11.133
14367W        W80776  17.127  19.407  13.060
14368W        W80777  11.253  10.681   1.299
14369W        W80778  32.134  31.570  14.287
14370W        W80779   2.813  43.854   4.462
14371W        W80780  12.135   0.402   3.138
14372W        W80781  42.972   6.910  14.282
14373W        W80782  12.377  16.355   4.554
14374W        W80783  16.254  14.896  14.177
14375W        W80784  44.424   7.404  14.964
14376W        W80785  13.660   4.281  12.094
14377W        W80786  12.287  14.647  11.087
14378W        W80787  11.579  38.760   4.105
14379W        W80788  17.021  16.893  14.103
14380W        W80789  26.487   6.613   4.143
14381W        W80790  32.584  27.138  12.078
14382W        W80791  29.854  12.810   2.429
14383W        W80792   8.912  44.153  14.526
14384W        W80793  38.826  28.224   3.556
14385W        W80794  24.602  20.236  14.432
14386W        W80795  25.967  22.133   2.183
14387W        W80796  22.654   2.101  11.123
14388W        W80797  21.697  20.052  14.005
14389W        W80798  29.542  17.907  10.705
14390W        W80799  22.350  29.166  10.974
14391W        W80800  27.126  29.506   2.669
14392W        W80801  42.487   5.365   3.256
14393W        W80802  44.484  39.959   1.985
14394W        W80803  35.290  35.956   4.690
14395W        W80804   7.251  14.149   1.637
14396W        W80805  24.672  15.245   0.214
14397W        W80806   2.413  20.564  13.420
14398W        W80807   5.327  11.631  11.602
14399W        W80808   0.937  34.027  10.740
14400W        W80809   1.436   4.972   3.704
14401W        W80810   7.951  24.249   3.154
14402W        W80811  29.148  40.880  13.558
14403W        W80812  13.957   3.337  13.992
14404W        W80813  11.144  34.083  12.213
14405W        W80814  29.158  19.316  13.261
14406W        W80815  13.450  12.005   0.794
14407W        W80816  38.468  12.666  10.448
14408W        W80817  36.603   5.943  14.486
14409W        W80818  38.513  43.393   4.118
14410W        W80819  30.975  29.172   0.750
14411W        W80820   2.476  19.325  12.835
14412W        W80821  36.570  20.709   0.699
14413W        W80822  22.527   4.343   1.676
14414W        W80823  17.109   9.886  14.130
14415W        W80824  24.596  43.538  13.831
14416W        W80825  32.169  44.913  14.070
14417W        W80826  20.164  42.654  14.924
14418W        W80827  11.768  44.469   3.523
14419W        W80828  23.092  12.798  14.924
14420W        W80829  42.773  38.038  11.987
14421W        W80830   1.889  42.738  11.431
14422W        W80831  30.495  35.762   0.873
14423W        W80832  39.907  35.622   0.129
14424W        W80833  12.756  44.364   2.522
14425W        W80834  25.618  31.702   0.874
14426W        W80835  22.636   8.335  14.760
14427W        W80836  31.700   9.126  13.980
14428W        W80837  14.589  29.957  13.265
14429W        W80838  40.836  11.776   2.813
14430W        W80839   2.599  16.968   1.001
14431W        W80840  27.366  14.040   2.577
14432W        W80841  19.147  15.056  12.960
14433W        W80842   6.864  32.919   3.168
14434W        W80843  40.308  12.655   4.010
14435W        W80844  18.994  35.216   0.290
14436W        W80845  30.552  22.497  13.035
14437W        W80846  30.519  12.042   0.318
14438W        W80847  13.410   1.277  14.994
14439W        W80848  10.495  29.641  12.477
14440W        W80849  10.130  38.594  11.542
14441W        W80850  30.834  17.285   0.801
14442W        W80851  21.394  29.551  14.750
14443W        W80852   7.299  18.673  14.832
14444W        W80853   9.184   8.052   0.737
14445W        W80854  14.687   7.599   3.315
14446W        W80855  37.849  13.278   2.191
14447W        W80856  39.945   7.087  14.303
14448W        W80857   8.335  44.544   4.696
14449W        W80858  42.262  25.968  14.418
14450W        W80859  35.003  16.779   3.863
14451W        W80860   9.336  29.440   1.846
14452W        W80861  21.020   6.900  14.128
14453W        W80862  21.704  38.898  10.716
14454W        W80863  32.615   7.701   3.634
14455W        W80864  18.638  12.825   4.018
14456W        W80865   2.872   6.113  11.173
14457W        W80866  42.363  32.115   4.757
14458W        W80867  35.413  17.248  12.646
14459W        W80868  25.540  41.237   0.477
14460W        W80869   1.968  26.658  14.741
14461W        W80870  40.437  44.434  11.684
14462W        W80871  42.159  38.388   0.372
14463W        W80872   4.927  31.359  14.215
14464W        W80873  37.808  10.350  10.306
14465W        W80874  16.749  34.668   3.740
14466W        W80875  37.865  27.636  11.153
14467W        W80876   8.402  43.467  14.885
14468W        W80877  43.847  40.920   2.688
14469W        W80878  15.057  16.684  14.834
14470W        W80879  40.570   4.331  11.697
14471W        W80880  24.964   0.033   0.910
14472W        W80881   8.571  38.301  12.137
14473W        W80882  40.716  10.134   4.651
14474W        W80883  11.968  34.023  13.403
14475W        W80884   7.175  10.251   1.415
14476W        W80885  25.078  28.225  14.523
14477W        W80886  16.273   7.857  10.446
14478W        W80887  28.423  15.050  14.516
14479W        W80888  17.868  28.332  11.729
14480W        W80889  15.433  38.790  13.077
14481W        W80890  35.370  21.961   2.828
14482W        W80891  23.819  36.553   0.832
14483W        W80892   8.466   6.499   1.416
14484W        W80893  13.324  44.447  12.125
14485W        W80894  44.615  27.759   1.386
14486W        W80895  16.341  37.620   0.482
14487W        W80896  22.334   3.383  14.376
14488W        W80897  32.711  25.622  11.840
14489W        W80898  40.300  24.348  12.111
14490W        W80899  38.478  32.927  14.861
14491W        W80900  33.592  30.381  13.033
14492W        W80901  29.351  12.035  13.903
14493W        W80902  23.947  17.330   2.131
14494W        W80903  29.663  33.416  13.540
14495W        W80904   6.237  23.554  12.474
14496W        W80905   0.935  28.872  12.467
14497W        W80906  34.412   2.269  13.525
14498W        W80907  16.092  14.541  14.518
14499W        W80908   5.695  32.661   2.273
14500W        W80909  29.470  35.787  14.804
14501W        W80910  38.777  15.498   1.376
14502W        W80911  28.501   1.437  11.208
14503W        W80912  26.573  32.694  11.028
14504W        W80913   9.228  21.355  11.225
14505W        W80914  14.933  21.559   0.833
14506W        W80915  29.920   8.799  12.528
14507W        W80916   9.263  36.284  11.210
14508W        W80917  17.329   9.403   3.169
14509W        W80918   5.229  14.197   0.433
14510W        W80919  22.588  41.483  12.527
14511W        W80920  24.586  39.753   1.939
14512W        W80921  27.257  19.042  14.192
14513W        W80922   4.285  41.713  12.462
14514W        W80923  22.336  18.552   5.027
14515W        W80924   9.614  23.317  11.108
14516W        W80925   2.205   4.890   4.131
14517W        W80926  18.648  30.248  13.035
14518W        W80927  42.341  12.856  14.401
14519W        W80928  41.880  22.173   1.776
14520W        W80929   9.214  19.540  13.969
14521W        W80930  44.447  30.123  13.912
14522W        W80931  21.190  16.494   4.605
14523W        W80932  12.100   7.666  11.533
14524W        W80933   3.581  34.653  14.666
14525W        W80934  16.681  17.756  13.353
14526W        W80935  29.605  36.602  11.707
14527W        W80936   0.873   1.481  10.749
14528W        W80937   9.887  43.124  10.121
14529W        W80938  43.168  11.707  10.158
14530W        W80939  17.807  13.331   2.800
14531W        W80940  29.923  24.925  14.080
14532W        W80941  33.089   0.520   0.971
14533W        W80942   0.492  26.670   2.313
14534W        W80943  26.949  35.402   0.256
14535W        W80944  42.154   9.875  11.690
14536W        W80945   0.777   2.458  14.698
14537W        W80946  38.926  21.585   0.494
14538W        W80947  42.819  28.068  11.479
14539W        W80948  28.136  20.642  11.461
14540W        W80949  17.552   7.579  11.516
14541W        W80950  12.449  44.934  12.156
14542W        W80951  20.286  36.057  10.577
14543W        W80952  40.698  35.350  12.964
14544W        W80953  16.803   0.308  12.073
14545W        W80954  40.439  40.909  14.926
14546W        W80955  22.952  40.439   1.947
14547W        W80956  19.334  13.797  12.837
14548W        W80957  18.624  37.349  10.158
14549W        W80958  18.730   5.801  14.869
14550W        W80959  34.800   8.373  10.944
14551W        W80960  29.790  14.954   4.367
14552W        W80961  14.624  31.156   2.819
14553W        W80962  26.011  43.598   2.199
14554W        W80963   9.322  16.552   1.515
14555W        W80964  25.326  13.262   4.738
14556W        W80965  39.383   2.726  14.555
14557W        W80966  21.321  14.632  10.636
14558W        W80967  19.781  40.824   2.876
14559W        W80968  23.463   6.175  13.439
14560W        W80969  31.187  11.774  12.787
14561W        W80970  38.946  34.419  12.633
14562W        W80971  32.868  27.856   0.294
14563W        W80972  16.218  23.070   5.196
14564W        W80973  26.455  21.148   2.318
14565W        W80974  42.762  35.566  13.858
14566W        W80975  41.241  29.610   1.600
14567W        W80976  28.606  35.192  13.984
14568W        W80977  32.438  10.524  12.816
14569W        W80978  18.358  35.313  12.478
14570W        W80979  19.168   7.898  11.547
14571W        W80980  42.894  18.653   1.023
14572W        W80981   4.693  35.599  12.006
14573W        W80982  17.242   1.131   1.170
14574W        W80983   2.148   4.357   0.763
14575W        W80984  22.202  30.212  11.690
14576W        W80985  16.066   9.780   3.640
14577W        W80986  30.589  18.664  14.198
14578W        W80987   7.193   1.321   1.406
14579W        W80988  36.578  35.526   0.534
14580W        W80989  39.072  20.056  11.657
14581W        W80990  33.346  39.357   4.626
14582W        W80991  34.030   5.222   1.039
14583W        W80992  31.151  29.163  11.230
14584W        W80993  25.808   3.949   4.179
14585W        W80994  38.912  25.455   2.279
14586W        W80995  22.466  10.149   2.843
14587W        W80996  42.496  26.038   2.906
14588W        W80997  22.789  27.192  11.545
14589W        W80998  24.963  10.347   4.575
14590W        W80999  35.192  17.205   0.768
14591W        W81000  24.766  43.556  14.304
14592W        W81001  29.441  43.237   1.775
14593W        W81002  44.478  43.564  12.426
14594W        W81003   9.163  19.245   1.125
14595W        W81004   8.171  18.248   0.797
14596W        W81005  15.625  37.790   0.854
14597W        W81006  18.635  43.561  12.932
14598W        W81007  27.768  17.673   0.548
14599W        W81008  30.258  10.754   1.700
14600W        W81009  43.233   9.233   3.165
14601W        W81010  27.714  11.008   0.498
14602W        W81011  29.649  16.262   2.865
14603W        W81012  26.674  15.339   0.033
14604W        W81013  14.483  34.038   0.229
14605W        W81014  31.507   6.568   2.893
14606W        W81015   1.013  31.098  11.045
14607W        W81016   1.954  37.492   1.392
14608W        W81017  42.672   3.452  12.540
14609W        W81018  22.983  22.808   1.880
14610W        W81019  23.042  11.869   1.706
14611W        W81020  12.679  25.276  12.648
14612W        W81021  26.224   9.391   2.374
14613W        W81022  37.123  30.676   0.404
14614W        W81023  40.029  23.504  14.902
14615W        W81024  41.822  41.997   1.628
14616W        W81025   7.407  15.010  13.718
14617W        W81026   7.202  12.135   1.717
14618W        W81027   2.210  13.073   4.149
14619W        W81028  33.640  27.547   1.312
14620W        W81029  37.104  44.968   1.324
14621W        W81030  22.253  25.011   2.748
14622W        W81031  20.098   0.838  13.523
14623W        W81032  35.153  28.229  11.639
14624W        W81033  20.561  20.580  14.335
14625W        W81034  37.859  26.070  12.960
14626W        W81035  19.094  40.584   4.586
14627W        W81036  35.373  29.876   2.246
14628W        W81037   4.878  21.083  11.890
14629W        W81038  10.941  39.488  14.490
14630W        W81039   6.690  25.356   3.203
14631W        W81040  21.244  34.459   0.941
14632W        W81041  34.926  36.339   4.609
14633W        W81042  39.428  27.514   3.360
14634W        W81043  26.428  38.760  11.606
14635W        W81044   8.935  43.706  10.690
14636W        W81045  15.022  43.715   3.700
14637W        W81046   0.899   5.200   0.869
14638W        W81047  21.748   5.940  13.930
14639W        W81048  11.999  35.079   2.747
14640W        W81049  20.295  22.277  11.095
14641W        W81050   9.856  39.590   3.166
14642W        W81051   0.661  16.747  14.424
14643W        W81052   8.367  20.091   2.784
14644W        W81053  24.867   0.568  13.806
14645W        W81054   3.862  42.399   4.565
14646W        W81055  11.871   8.643   3.635
14647W        W81056  39.056   8.647  14.796
14648W        W81057  24.485  42.503   4.746
14649W        W81058  29.542   2.766   4.242
14650W        W81059  23.141  33.104  13.848
14651W        W81060   6.174  16.330   1.188
14652W        W81061   7.268  36.912   1.053
14653W        W81062  25.029  26.631  12.391
14654W        W81063  18.357  20.001   3.692
14655W        W81064   9.684  44.841  13.682
14656W        W81065  43.859   5.304  11.719
14657W        W81066  20.902  25.978  14.776
14658W        W81067  38.712  30.717  12.541
14659W        W81068  40.169  18.401  14.824
14660W        W81069  35.577   2.297  11.444
14661W        W81070  23.130  26.958  12.038
14662W        W81071  37.584  27.645  14.808
14663W        W81072   6.776  19.984   0.668
14664W        W81073  21.791  16.313   4.097
14665W        W81074  43.237  15.668   2.317
14666W        W81075  21.046  10.086  11.017
14667W        W81076  14.363   9.154   2.318
14668W        W81077   3.752   0.202  14.255
14669W        W81078  35.699  42.850   1.879
14670W        W81079  35.956   3.876  11.354
14671W        W81080  36.379  19.111  10.299
14672W        W81081  40.017  16.046  12.708
14673W        W81082   7.218  39.499   0.987
14674W        W81083  37.442  19.234   4.463
14675W        W81084  15.732  13.361   2.422
14676W        W81085  44.822  44.475   1.512
14677W        W81086  12.064  26.476  12.063
14678W        W81087  20.609  19.584   1.781
14679W        W81088  37.060  23.444  12.997
14680W        W81089  34.951  23.741  12.463
14681W        W81090  36.674   0.229   4.652
14682W        W81091  25.695  20.381   2.787
14683W        W81092   8.714   6.885   3.674
14684W        W81093  21.524  20.994   2.391
14685W        W81094  10.053  12.608   4.889
14686W        W81095   1.595  29.166  13.308
14687W        W81096   0.006  15.692   1.194
14688W        W81097  30.896  40.518   3.025
14689W        W81098   4.839  33.709   3.641
14690W        W81099  41.861  17.045  11.112
14691W        W81100  34.991  29.962   4.000
14692W        W81101  13.882  10.676  11.009
14693W        W81102  17.040  39.421  12.318
14694W        W81103  21.174  36.074  10.188
14695W        W81104  38.831  25.032  10.372
14696W        W81105  35.317   4.823  10.335
14697W        W81106  17.488  38.261  13.869
14698W        W81107  27.763  31.531  13.855
14699W        W81108  12.336  36.345   2.406
14700W        W81109  15.614   2.016  10.277
14701W        W81110  34.494  21.078   4.493
14702W        W81111  31.964  41.411   4.555
14703W        W81112   4.835  30.354   3.056
14704W        W81113   1.250  14.725  14.394
14705W        W81114   9.881   3.308   1.461
14706W        W81115  42.288  25.469   3.800
14707W        W81116  26.120   2.963  11.546
14708W        W81117  34.905  13.264  12.719
14709W        W81118  40.017  34.025   1.812
14710W        W81119  26.226  16.901  10.698
14711W        W81120  29.922   8.240  10.985
14712W        W81121  16.979  40.387  13.999
14713W        W81122   2.176   6.720   4.848
14714W        W81123  19.741  21.476   1.426
14715W        W81124  22.547   8.168  11.444
14716W        W81125  44.077  39.162   4.853
14717W        W81126   6.727  43.486  14.502
14718W        W81127   4.399   4.715   0.782
14719W        W81128  28.482   9.128  11.172
14720W        W81129  33.309  30.901  13.877
14721W        W81130  27.116   3.465   2.392
14722W        W81131   4.161  41.261  11.095
14723W        W81132  26.438   8.664   2.355
14724W        W81133   2.294  20.662   1.883
14725W        W81134  33.997  14.640  14.424
14726W        W81135  36.299  41.403  13.358
14727W        W81136   2.396  25.643  14.273
14728W        W81137  36.198  20.303   1.774
14729W        W81138  30.201  44.359   0.721
14730W        W81139  15.801  35.854   3.161
14731W        W81140  39.823   6.865   1.966
14732W        W81141  17.524   0.458   1.809
14733W        W81142   4.975  36.117  14.898
14734W        W81143  11.139  13.146   3.874
14735W        W81144  15.880  34.432  10.670
14736W        W81145  10.844  41.269  14.761
14737W        W81146  17.313   9.821  12.602
14738W        W81147  42.829   7.738  10.601
14739W        W81148  28.696  32.343  12.469
14740W        W81149  38.313  23.026  11.681
14741W        W81150  23.210  34.079  12.679
14742W        W81151   7.230   9.870  14.735
14743W        W81152  30.436  44.442   1.461
14744W        W81153  38.944   5.987  11.973
14745W        W81154  31.482  23.085   0.929
14746W        W81155  25.847  26.228   0.883
14747W        W81156  15.260   6.182  12.998
14748W        W81157  11.296  14.896  13.961
14749W        W81158  11.628  18.123  10.807
14750W        W81159  10.902  29.464  13.879
14751W        W81160  14.829  27.448   0.955
14752W        W81161  11.906  14.209  10.637
14753W        W81162  40.329  23.631   4.010
14754W        W81163   1.460  33.838  12.154
14755W        W81164  32.896  11.586   4.155
14756W        W81165  22.057  38.820   2.293
14757W        W81166  30.410  18.098   0.822
14758W        W81167  27.678  10.903   4.928
14759W        W81168   9.803  26.092   3.072
14760W        W81169  43.818  17.095   2.219
14761W        W81170  41.533  13.243   4.191
14762W        W81171   6.403   1.364  14.878
14763W        W81172  43.546   9.792   9.885
14764W        W81173  31.170  18.059   2.581
14765W        W81174  28.592  29.017   3.720
14766W        W81175  13.382  38.084  13.146
14767W        W81176  13.573   8.703  12.219
14768W        W81177  32.372  14.221   2.851
14769W        W81178  26.634  43.347   2.835
14770W        W81179  30.172  13.764  13.442
14771W        W81180  38.649  37.156  11.981
14772W        W81181   2.240   2.993   0.184
14773W        W81182  23.717  32.519  10.587
14774W        W81183  35.354  11.751   2.221
14775W        W81184  30.928  17.529  12.051
14776W        W81185   4.489  11.365   3.451
14777W        W81186  44.342  26.930   0.359
14778W        W81187  13.230  26.393  12.944
14779W        W81188  25.048  24.696  12.514
14780W        W81189  14.101  14.548   4.251
14781W        W81190  26.893   9.819  12.474
14782W        W81191   5.283  29.469  13.741
14783W        W81192  37.408  42.295   1.474
14784W        W81193  33.789  20.174  12.754
14785W        W81194  34.493  12.303  11.079
14786W        W81195   3.350   4.507   1.436
14787W        W81196  28.541  11.943  12.462
14788W        W81197  24.507  41.959  13.866
14789W        W81198  14.536  30.485  13.428
14790W        W81199  23.575  23.994  11.928
14791W        W81200  22.731  34.097  11.171
14792W        W81201  26.412  43.434  13.167
14793W        W81202   0.473  21.679   4.468
14794W        W81203   9.223   6.184   0.842
14795W        W81204  19.478   8.352  11.001
14796W        W81205  19.002  30.559   3.304
14797W        W81206  32.964  11.126  11.579
14798W        W81207  31.396   8.398   2.918
14799W        W81208  12.225  11.098  14.809
14800W        W81209   8.293  12.111   2.043
14801W        W81210  11.075   4.187   5.896
14802W        W81211  41.554  14.390   2.762
14803W        W81212  17.555  34.404   3.166
14804W        W81213   1.238  27.018  11.827
14805W        W81214  41.793  13.123   2.271
14806W        W81215   2.209  39.538  12.422
14807W        W81216  28.183  32.295   2.469
14808W        W81217  29.580  20.081   4.271
14809W        W81218  19.523  22.727   4.282
14810W        W81219  40.071  21.120  13.484
14811W        W81220   8.821  40.396   1.933
14812W        W81221  10.819  37.793  13.019
14813W        W81222  15.526  34.012  10.675
14814W        W81223  29.649  41.802  12.926
14815W        W81224  34.926  24.494   0.876
14816W        W81225  23.037   0.638  12.981
14817W        W81226  33.330  12.312  13.813
14818W        W81227  42.911  39.836  14.512
14819W        W81228  31.102   2.195   4.944
14820W        W81229  15.006  14.621   0.177
14821W        W81230  29.353   6.226   1.882
14822W        W81231  14.663  19.544   4.924
14823W        W81232  44.322  44.151   0.443
14824W        W81233  15.171  12.034   4.014
14825W        W81234  18.166  12.572  12.345
14826W        W81235  35.060  42.612  12.907
14827W        W81236  32.101  32.406  11.514
14828W        W81237  13.244  30.051  14.741
14829W        W81238  18.207  14.708  12.046
14830W        W81239  41.055  42.264   1.015
14831W        W81240  20.122  10.959   3.713
14832W        W81241  41.938  20.561  11.316
14833W        W81242   6.810  18.831   3.046
14834W        W81243   0.907  44.870  12.821
14835W        W81244  16.857  40.089   2.799
14836W        W81245   2.390  27.831  14.100
14837W        W81246   4.172  17.392  12.855
14838W        W81247  22.083  42.603  11.516
14839W        W81248   2.907  29.925   4.570
14840W        W81249  44.624  13.949  12.054
14841W        W81250  21.615  16.650  13.089
14842W        W81251  32.203  42.374   0.407
14843W        W81252  29.102  33.949   3.962
14844W        W81253  37.425  38.507  11.594
14845W        W81254  16.576  37.668  12.516
14846W        W81255  32.341  12.118  11.663
14847W        W81256  22.836  41.547   0.942
14848W        W81257   6.501   4.890  10.925
14849W        W81258   5.319  21.739  13.127
14850W        W81259   6.312  40.350   4.131
14851W        W81260  13.636  26.149  13.179
14852W        W81261  29.919  35.865   1.903
14853W        W81262  28.366  28.860   0.705
14854W        W81263   3.771  21.707   2.263
14855W        W81264  15.511  43.772  14.059
14856W        W81265   5.275  38.652  14.505
14857W        W81266  32.012  44.500  11.581
14858W        W81267  25.985  44.394  12.537
14859W        W81268  23.953  20.976  14.917
14860W        W81269  31.163  28.271  14.591
14861W        W81270  35.163  32.250   2.125
14862W        W81271   7.826  34.828   2.796
14863W        W81272  18.928  44.558   1.180
14864W        W81273  27.690  42.289  12.115
14865W        W81274  18.404  35.814   1.900
14866W        W81275   1.800  12.773  11.172
14867W        W81276  39.347  42.999   0.878
14868W        W81277  23.751  39.383  11.688
14869W        W81278  15.642  41.388  11.696
14870W        W81279  40.567   3.291  13.940
14871W        W81280  33.220  11.846   2.810
14872W        W81281  36.356   0.873   3.897
14873W        W81282  30.109  43.736   0.002
14874W        W81283   7.931  31.676   3.236
14875W        W81284  13.916  27.042   4.173
14876W        W81285  43.498  13.286  10.394
14877W        W81286  12.130   3.122  10.627
14878W        W81287   4.611  24.734   2.838
14879W        W81288   6.237   5.246   4.937
14880W        W81289  32.971   6.055   1.531
14881W        W81290  30.919   0.589  13.496
14882W        W81291  23.449  12.134  12.864
14883W        W81292   4.901  33.841  14.620
14884W        W81293  31.147  44.597   1.796
14885W        W81294  14.367   3.760   4.566
14886W        W81295  15.503  24.638   1.668
14887W        W81296   9.561  23.970  10.276
14888W        W81297  31.963  10.846   4.234
14889W        W81298  30.779  12.311  11.631
14890W        W81299  15.821  17.486   2.787
14891W        W81300  12.261  25.769  11.585
14892W        W81301  25.573  21.969  12.549
14893W        W81302  13.062   9.218   2.638
14894W        W81303  39.571   7.892  14.819
14895W        W81304  28.131  20.122  14.389
14896W        W81305   9.679  22.767  10.761
14897W        W81306  25.885  33.487   5.032
14898W        W81307  13.734  31.075   2.799
14899W        W81308  22.113  33.570  10.793
14900W        W81309  10.264   1.668  12.770
14901W        W81310  23.985  35.740   3.705
14902W        W81311  21.245  27.137  13.498
14903W        W81312  34.853  11.939  10.996
14904W        W81313  30.623  30.581   4.657
14905W        W81314  21.154   0.332   4.665
14906W        W81315  12.751  23.586  11.719
14907W        W81316   7.942  37.208   2.785
14908W        W81317   4.485   6.267  11.462
14909W        W81318  25.246  17.231   4.429
14910W        W81319  43.951  32.001   2.157
14911W        W81320  17.322  39.467  10.611
14912W        W81321  27.724   5.609  12.038
14913W        W81322  40.527  34.949  10.403
14914W        W81323  16.661  12.564   1.108
14915W        W81324  27.615   1.743   4.136
14916W        W81325  13.307   2.612   4.177
14917W        W81326  27.771   9.585  11.573
14918W        W81327  36.140  37.885  10.508
14919W        W81328  13.507  18.599  13.882
14920W        W81329  18.910   0.941   0.360
14921W        W81330  10.598  14.113   0.366
14922W        W81331  35.656   5.217   9.410
14923W        W81332  24.014  42.849   5.103
14924W        W81333  38.966   2.863  12.066
14925W        W81334   0.253   1.831   0.925
14926W        W81335  18.635  34.346  11.858
14927W        W81336   7.090  14.650   3.339
14928W        W81337  43.578  31.661   0.936
14929W        W81338  27.578   9.946  11.893
14930W        W81339  41.464  10.392   1.199
14931W        W81340  28.355  44.695  13.698
14932W        W81341  34.781  19.929   5.048
14933W        W81342  11.340  42.423  11.493
14934W        W81343  11.870  21.999  10.626
14935W        W81344  43.027  44.298  13.659
14936W        W81345  36.828  18.972   2.299
14937W        W81346   3.837  20.580  13.891
14938W        W81347   2.022  29.685   1.356
14939W        W81348  21.199  30.417   2.588
14940W        W81349   0.870  19.656   0.456
14941W        W81350  11.864   9.198  11.215
14942W        W81351   3.838  29.926   2.762
14943W        W81352  43.316  26.092  13.096
14944W        W81353  30.474  30.621  13.920
14945W        W81354   9.571  11.807  11.665
14946W        W81355   3.851  36.896  10.564
14947W        W81356  18.149  22.650   2.598
14948W        W81357  23.569  20.570   0.373
14949W        W81358   8.618  15.046  11.486
14950W        W81359  17.829  35.370   4.218
14951W        W81360  25.584   5.166   4.357
14952W        W81361   7.862  36.087  11.742
14953W        W81362  15.165  39.374   1.944
14954W        W81363  37.399   4.217   3.667
14955W        W81364  11.187  10.394  11.195
14956W        W81365  22.091  18.458   1.567
14957W        W81366  30.144  35.586   0.475
14958W        W81367  23.578  35.861   4.129
14959W        W81368  24.155  20.604   9.931
14960W        W81369  40.782  39.641  13.800
14961W        W81370  38.499  15.064   3.227
14962W        W81371  15.085  36.446  11.773
14963W        W81372  43.968  44.247  14.908
14964W        W81373   5.445  33.339  10.663
14965W        W81374  16.342  28.731  13.523
14966W        W81375  14.575  28.038   4.945
14967W        W81376  10.252  41.366   1.480
14968W        W81377  32.325  15.776  10.116
14969W        W81378  24.053  42.249   2.136
14970W        W81379  35.302  23.307  14.928
14971W        W81380   0.886  38.486  13.664
14972W        W81381   4.551   2.970   0.089
14973W        W81382   8.807  10.587  14.162
14974W        W81383  17.585   3.631  14.103
14975W        W81384  36.932  17.265   1.095
14976W        W81385  22.798  43.976   2.334
14977W        W81386  26.625  14.855   4.030
14978W        W81387  25.651   8.592   2.873
14979W        W81388   9.275  25.463   0.364
14980W        W81389  12.114  41.792  10.664
14981W        W81390  37.951  26.237   1.915
14982W        W81391   9.836   3.717  12.207
14983W        W81392  27.092  30.943   0.859
14984W        W81393  16.254  12.163  13.861
14985W        W81394   2.194  32.879  12.886
14986W        W81395   1.194   2.345  12.075
14987W        W81396  34.872  26.205  14.181
14988W        W81397   2.510  10.238   4.744
14989W        W81398  40.395  38.392   1.367
14990W        W81399   5.981   7.058   1.833
14991W        W81400  11.831  36.232  13.488
14992W        W81401  32.305  35.833   1.615
14993W        W81402  29.159   9.689   1.769
14994W        W81403   1.411  37.043  11.911
14995W        W81404  19.116  15.144  10.671
14996W        W81405  32.451   7.182   3.697
14997W        W81406  13.233  34.976   5.209
14998W        W81407   6.787  17.600   2.766
14999W        W81408  21.275  29.139  13.018
15000W        W81409  31.612  21.602  10.492
15001W        W81410  29.354  41.737   1.903
15002W        W81411  13.111  32.808  11.987
15003W        W81412   5.162  21.721  11.666
15004W        W81413   4.745  43.382   0.324
15005W        W81414   6.018  31.595  12.005
15006W        W81415  12.609  22.048  13.593
15007W        W81416  23.743   5.907   2.492
15008W        W81417  38.959  19.113  11.000
15009W        W81418  36.598  41.971   4.129
15010W        W81419  16.089   2.160   2.195
15011W        W81420  13.166  26.225   3.269
15012W        W81421  23.855  20.067  13.025
15013W        W81422  13.695   3.464  11.016
15014W        W81423  22.970   4.171   1.889
15015W        W81424  29.127   8.260  13.820
15016W        W81425  26.462  16.666   0.257
15017W        W81426  22.415   9.892   1.320
15018W        W81427  22.469  19.174   3.262
15019W        W81428  13.041   7.734  10.664
15020W        W81429  43.848  17.213  10.809
15021W        W81430  35.010  30.276   1.204
15022W        W81431  41.036  34.768  12.010
15023W        W81432  29.925   1.889   0.900
15024W        W81433   5.529  25.641  11.491
15025W        W81434   3.165   1.310   3.895
15026W        W81435  19.164  26.508   3.590
15027W        W81436  40.399  17.144   0.941
15028W        W81437  13.060  31.474   4.888
15029W        W81438  10.813   8.414   4.100
15030W        W81439  19.685  33.631   2.900
15031W        W81440   6.113  35.977  10.631
15032W        W81441  38.458  36.969  14.813
15033W        W81442  14.686  17.800   2.386
15034W        W81443  36.675  43.993  11.207
15035W        W81444  12.820   7.762  13.895
15036W        W81445   0.745   6.542   3.329
15037W        W81446  33.545   1.723   0.222
15038W        W81447  11.213  29.241  11.346
15039W        W81448  25.835   1.948   0.748
15040W        W81449  26.341   1.838   0.745
15041W        W81450  32.646  19.455  13.927
15042W        W81451   0.911  24.897  14.024
15043W        W81452  28.036  29.615  12.081
15044W        W81453  30.621  39.120  14.428
15045W        W81454  40.641  33.159   3.557
15046W        W81455  17.706  27.547  14.850
15047W        W81456  23.285  26.176   4.601
15048W        W81457   3.496  23.129   0.521
15049W        W81458  31.398   7.838  14.029
15050W        W81459  10.859  10.895   2.273
15051W        W81460  28.520   2.898   2.328
15052W        W81461  29.398  25.368  11.616
15053W        W81462  27.088  44.515  14.680
15054W        W81463   3.953  38.866  11.606
15055W        W81464  12.444  38.939  13.133
15056W        W81465  16.534  40.414  11.690
15057W        W81466   3.156  16.669  13.700
15058W        W81467  23.675  44.511   0.934
15059W        W81468  10.240   8.592   2.327
15060W        W81469  16.995  13.153  11.244
15061W        W81470  36.734   5.566  12.613
15062W        W81471  31.315  17.611  13.774
15063W        W81472  21.246  25.740   1.392
15064W        W81473  13.869  21.440  12.917
15065W        W81474  31.093  31.424   0.788
15066W        W81475  28.400  25.310   5.033
15067W        W81476  15.826  14.893  12.487
15068W        W81477  42.434  14.891  14.611
15069W        W81478  24.168  29.450   1.806
15070W        W81479  22.137  36.183  10.883
15071W        W81480  18.401  12.675   0.689
15072W        W81481  25.270  19.150  13.608
15073W        W81482  37.105  40.362  12.213
15074W        W81483  32.204  27.319   2.814
15075W        W81484  42.885  11.461   9.792
15076W        W81485  33.887  28.984   1.727
15077W        W81486   6.433   7.695   2.354
15078W        W81487  22.095   4.659   0.008
15079W        W81488  36.316  16.772   1.304
15080W        W81489  20.592  24.429  12.069
15081W        W81490  26.540  30.147  13.203
15082W        W81491   1.414  21.054  11.535
15083W        W81492  17.139  19.698  11.558
15084W        W81493  15.818  20.720  14.367
15085W        W81494  15.327  21.032   2.095
15086W        W81495  41.253  19.088   4.865
15087W        W81496  12.802  37.254   5.114
15088W        W81497  27.963  38.481  12.045
15089W        W81498  20.314  20.193  13.753
15090W        W81499   0.489  30.211  12.364
15091W        W81500  13.294  41.577  13.332
15092W        W81501  39.126  24.973  14.811
15093W        W81502   8.801  44.998  13.500
15094W        W81503  13.373  25.263  11.558
15095W        W81504  28.304  31.033   2.137
15096W        W81505  27.964  16.673   4.117
15097W        W81506   8.487  16.129   2.903
15098W        W81507  17.230  14.182  10.242
15099W        W81508   2.105  24.094  13.918
15100W        W81509  43.749  40.492   4.136
15101W        W81510  35.494  20.816  12.628
15102W        W81511  44.355  36.785   3.676
15103W        W81512  14.766  21.281   1.253
15104W        W81513  39.442  10.356   1.734
15105W        W81514  39.320  38.067   1.359
15106W        W81515  22.261  30.226  12.463
15107W        W81516  22.567  30.493   5.028
15108W        W81517  31.075  33.427  10.772
15109W        W81518   3.610   3.664   0.347
15110W        W81519   8.889  39.886  11.504
15111W        W81520  20.052   9.335   1.191
15112W        W81521   3.442   1.779   2.851
15113W        W81522   3.350  24.489   2.959
15114W        W81523  37.905  36.113  11.298
15115W        W81524  15.728  26.603  10.614
15116W        W81525  43.953   2.378   3.327
15117W        W81526  10.810  39.391  11.596
15118W        W81527  15.638  19.669  11.715
15119W        W81528  35.232  26.015  12.875
15120W        W81529  11.221   8.237   1.424
15121W        W81530  13.390  41.482  12.034
15122W        W81531  23.273  44.454   3.738
15123W        W81532  42.841   9.842   3.743
15124W        W81533  33.624  35.882  12.532
15125W        W81534  40.360   6.289   1.479
15126W        W81535  40.867  35.108  12.390
15127W        W81536   5.147  30.591   2.227
15128W        W81537   9.287  29.252   4.117
15129W        W81538  32.079   4.334   1.433
15130W        W81539  39.957  44.465  14.003
15131W        W81540   1.835  36.361  10.704
15132W        W81541  15.316  32.326   1.897
15133W        W81542  44.529  27.024  10.929
15134W        W81543  31.621  35.194   0.258
15135W        W81544  26.631   5.480  10.579
15136W        W81545  42.550  28.839  11.013
15137W        W81546   5.465  22.209   4.017
15138W        W81547  14.215  13.720  11.488
15139W        W81548   7.806   8.421  12.096
15140W        W81549  11.820  33.319   2.885
15141W        W81550  27.851  32.814  13.392
15142W        W81551  17.738  19.490  11.517
15143W        W81552  16.884  10.770  12.762
15144W        W81553  35.078  25.202  10.553
15145W        W81554   1.960  44.882  13.542
15146W        W81555   7.197  26.057   1.411
15147W        W81556  25.193  26.936  11.948
15148W        W81557   2.865   9.970   3.739
15149W        W81558  15.773  33.659  11.037
15150W        W81559  29.984  16.632  12.931
15151W        W81560  14.447  29.694   4.725
15152W        W81561  33.387  18.686   3.746
15153W        W81562   8.468  35.314   0.738
15154W        W81563   4.809  26.296   1.281
15155W        W81564  43.744   6.358  12.358
15156W        W81565  24.799  36.337   2.694
15157W        W81566  20.439  39.859  11.411
15158W        W81567  39.106   1.969   1.817
15159W        W81568  17.631  36.475   1.862
15160W        W81569  30.434  18.250  14.486
15161W        W81570   3.344  33.819  12.094
15162W        W81571  28.700   1.673  11.625
15163W        W81572  22.159  33.960   1.375
15164W        W81573  20.861  20.535   0.347
15165W        W81574   7.351  12.221  14.348
15166W        W81575  44.192  30.612  10.405
15167W        W81576  28.200  24.783  11.232
15168W        W81577   6.326  18.334   1.525
15169W        W81578  33.300  12.313   2.613
15170W        W81579  35.431   2.512   1.802
15171W        W81580  25.434  15.042  14.447
15172W        W81581  15.307  33.545  14.464
15173W        W81582  43.428  29.907   0.776
15174W        W81583   4.921  29.449   1.500
15175W        W81584   9.116  23.181  11.146
15176W        W81585  22.891  37.795  14.920
15177W        W81586   6.408  17.545  14.915
15178W        W81587   2.895  39.624   0.652
15179W        W81588  17.077  40.445   4.486
15180W        W81589  28.023  43.296  10.651
15181W        W81590  16.551  38.451  10.859
15182W        W81591  10.323   1.546   2.339
15183W        W81592  20.289   7.724  11.638
15184W        W81593  23.315  15.577  12.239
15185W        W81594  44.645  44.901   1.763
15186W        W81595   7.358   8.106   3.963
15187W        W81596  26.869  10.719  13.407
15188W        W81597   3.999  36.876   0.286
15189W        W81598  41.615  29.809   4.435
15190W        W81599  34.004   6.826  13.966
15191W        W81600  26.555  21.391  10.253
15192W        W81601  33.171  42.983  13.417
15193W        W81602  17.750  43.532   4.250
15194W        W81603  23.363  13.432  10.992
15195W        W81604  29.755  20.702  12.282
15196W        W81605  17.805  36.711  10.311
15197W        W81606  34.543  18.113  12.618
15198W        W81607  18.067  16.687  11.532
15199W        W81608  41.043  15.721  14.419
15200W        W81609  30.476  28.137  13.847
15201W        W81610  26.728  28.983  10.945
15202W        W81611   1.735  14.843   1.800
15203W        W81612  22.116   2.917  14.474
15204W        W81613   9.549  41.326   3.030
15205W        W81614  25.426  24.647  13.561
15206W        W81615   4.153  26.474   3.231
15207W        W81616  38.580  41.495   2.810
15208W        W81617  30.204  31.403   3.178
15209W        W81618   0.965   7.791   4.144
15210W        W81619   4.896   3.823   0.771
15211W        W81620  43.569  25.741  13.469
15212W        W81621  40.168  16.995   1.905
15213W        W81622  14.171  22.975  12.109
15214W        W81623  34.425  25.290  14.072
15215W        W81624  22.204   1.486  11.684
15216W        W81625  44.399  24.735   3.232
15217W        W81626  23.809  27.598  11.079
15218W        W81627   0.080   8.387   4.514
15219W        W81628  19.164  30.068  10.618
15220W        W81629  31.073   4.756   4.082
15221W        W81630  11.271  10.984  13.285
15222W        W81631  33.892  38.864   4.160
15223W        W81632  10.717  13.311  14.848
15224W        W81633  42.332  26.027  10.692
15225W        W81634   2.902   0.023  12.005
15226W        W81635  34.036  15.086  11.450
15227W        W81636   5.280  13.746  10.750
15228W        W81637  38.636  28.603  10.632
15229W        W81638  26.895  13.915   0.365
15230W        W81639  17.150   2.851   0.323
15231W        W81640  13.683  12.372   0.414
15232W        W81641   9.409  35.853  10.941
15233W        W81642  31.622  21.130   0.485
15234W        W81643  43.275   6.172  12.526
15235W        W81644  19.837   2.328   4.050
15236W        W81645  27.674  11.620   2.955
15237W        W81646   1.979  19.093   1.934
15238W        W81647   3.001  37.389   2.300
15239W        W81648  29.531  30.054   1.813
15240W        W81649  42.737   2.672   3.667
15241W        W81650  15.287  24.160  10.109
15242W        W81651   3.783  22.813   4.651
15243W        W81652  26.495  40.936   2.516
15244W        W81653  12.268  35.854   2.280
15245W        W81654  24.062  32.626  11.538
15246W        W81655  24.576  24.282  10.984
15247W        W81656  17.285   7.866   2.319
15248W        W81657  10.753  36.024  10.721
15249W        W81658  10.353   8.990  14.483
15250W        W81659  29.850  12.400  11.426
15251W        W81660  22.837  19.640  12.622
15252W        W81661  43.629  20.430   3.852
15253W        W81662  10.124   4.705   1.111
15254W        W81663   3.324  17.894   4.042
15255W        W81664   2.234   0.398  12.099
15256W        W81665  19.649  41.043  13.396
15257W        W81666  24.289  35.438  13.429
15258W        W81667  30.666   6.749   4.174
15259W        W81668  33.978   8.162  11.832
15260W        W81669  17.830  23.238  10.618
15261W        W81670  36.824  23.602   0.676
15262W        W81671  15.607  33.868   3.439
15263W        W81672  41.917  43.455   1.942
15264W        W81673  17.023  30.561   4.091
15265W        W81674  30.168  33.304   1.484
15266W        W81675   6.807  15.087  12.320
15267W        W81676  31.838  18.552   2.854
15268W        W81677  31.366  41.385   1.512
15269W        W81678  40.425  35.071   0.795
15270W        W81679   5.698  14.095  11.527
15271W        W81680  30.359  39.829   4.449
15272W        W81681  39.591  34.009   3.865
15273W        W81682  31.523  11.034  13.463
15274W        W81683  28.066  24.458   4.649
15275W        W81684   1.910  14.973  11.489
15276W        W81685  36.827  27.211  14.250
15277W        W81686   1.213  27.653   4.905
15278W        W81687  34.109  40.326  10.704
15279W        W81688  20.454  24.221  10.621
15280W        W81689  33.934  15.791  13.487
15281W        W81690  29.880  22.470   1.841
15282W        W81691  30.503  29.546   2.420
15283W        W81692  18.030  28.425   2.863
15284W        W81693  40.929  38.959   3.176
15285W        W81694  34.003  42.267   2.846
15286W        W81695   1.293  22.549  14.477
15287W        W81696   9.345  10.717  14.989
15288W        W81697  34.398  28.793  12.412
15289W        W81698  44.705   3.744  11.998
15290W        W81699  14.843  30.581   3.727
15291W        W81700  22.129  14.136  13.505
15292W        W81701  29.038   1.206  13.433
15293W        W81702  10.681  11.693  11.691
15294W        W81703  44.494  13.243   2.188
15295W        W81704  12.570  34.966   2.341
15296W        W81705  28.631  15.724  13.313
15297W        W81706  18.600  32.038  14.432
15298W        W81707  11.875  11.992  12.165
15299W        W81708  20.145   9.474   4.012
15300W        W81709  12.507  17.840   1.563
15301W        W81710  35.130  21.935   2.245
15302W        W81711  32.629  18.240  10.904
15303W        W81712   6.351  21.790  12.300
15304W        W81713  41.341  37.627  13.951
15305W        W81714  10.395  35.430  14.343
15306W        W81715  20.202   1.487   0.237
15307W        W81716  19.359  44.416   2.333
15308W        W81717  17.711   6.919  12.531
15309W        W81718  24.587  21.543  14.020
15310W        W81719  25.620  16.704   1.973
15311W        W81720   5.732  36.034  14.943
15312W        W81721  23.388  30.433  11.192
15313W        W81722  14.561  12.887   3.647
15314W        W81723   2.267  43.738   0.221
15315W        W81724   9.712  31.657   5.022
15316W        W81725  11.836   3.306   5.024
15317W        W81726   4.382  17.332   3.248
15318W        W81727  37.901  12.555  11.572
15319W        W81728  23.003  44.555  13.338
15320W        W81729  15.304  31.680   1.956
15321W        W81730  30.551  35.545  12.466
15322W        W81731  10.856   9.146   4.383
15323W        W81732  20.075  18.596   4.728
15324W        W81733   6.679  18.601  12.572
15325W        W81734  17.834   8.606   3.645
15326W        W81735  25.064  43.005   0.744
15327W        W81736  19.152  41.217  13.395
15328W        W81737  28.199  23.139   4.155
15329W        W81738  38.545   3.360   3.601
15330W        W81739  15.732  33.067   3.281
15331W        W81740  33.391  37.553   2.362
15332W        W81741  27.460  37.160   2.306
15333W        W81742  11.323  37.018   2.165
15334W        W81743  24.487   3.383   3.162
15335W        W81744  35.171   7.401   2.799
15336W        W81745  36.919  13.818  14.128
15337W        W81746  26.688  11.077   4.863
15338W        W81747   1.460  16.626  13.821
15339W        W81748   9.640  36.935   2.131
15340W        W81749  22.490   1.917  14.535
15341W        W81750   7.777  22.916  12.055
15342W        W81751  11.373   8.622   3.781
15343W        W81752  44.321  34.582  10.634
15344W        W81753  14.589   8.794  13.780
15345W        W81754  10.751  12.187  10.454
15346W        W81755   5.343  37.419   3.551
15347W        W81756  40.988  35.585  11.722
15348W        W81757  35.389   0.437   0.340
15349W        W81758  40.371  29.366   0.804
15350W        W81759  19.520  33.988  14.365
15351W        W81760  12.732  36.864  11.533
15352W        W81761  16.677  28.702  14.946
15353W        W81762  31.079  39.613  11.718
15354W        W81763  35.455  29.377   0.523
15355W        W81764  36.969  12.855   4.248
15356W        W81765  19.766  32.222  13.413
15357W        W81766  18.719  12.390  12.101
15358W        W81767  41.871  22.048  12.353
15359W        W81768  29.094  21.979   3.426
15360W        W81769   4.570  35.385   3.316
15361W        W81770  16.597  30.328   2.996
15362W        W81771  21.317  44.776  10.566
15363W        W81772  29.563  41.516   4.073
15364W        W81773   6.349  39.873   3.932
15365W        W81774   7.101  17.802  13.578
15366W        W81775  44.811  24.677   1.420
15367W        W81776  25.954  14.847   0.465
15368W        W81777  26.106  19.249  14.756
15369W        W81778   2.721   4.762   3.286
15370W        W81779  44.333  21.372   3.435
15371W        W81780  23.402  38.977  14.973
15372W        W81781  23.110  27.915   0.378
15373W        W81782   6.986   1.867   2.173
15374W        W81783  29.214  24.214  11.122
15375W        W81784  30.454  11.187   1.926
15376W        W81785  25.025   0.262  12.964
15377W        W81786  36.992  22.360  14.110
15378W        W81787  27.714  40.011  11.149
15379W        W81788   0.406   4.958   0.939
15380W        W81789  18.677   7.069   4.890
15381W        W81790  32.819   0.794  12.109
15382W        W81791  36.188  26.020  13.788
15383W        W81792  20.711  31.871  10.642
15384W        W81793  20.555  18.565  11.938
15385W        W81794  24.645   9.640   5.509
15386W        W81795  41.369  10.523   5.016
15387W        W81796   8.977   4.481   1.045
15388W        W81797  38.997  36.163   4.099
15389W        W81798  24.981  43.319   2.330
15390W        W81799  28.896  20.450  13.944
15391W        W81800   3.393  15.326   2.847
15392W        W81801  28.436   6.121   1.944
15393W        W81802  18.003  20.004  12.505
15394W        W81803   7.156   8.916   2.329
15395W        W81804  44.232  37.478   4.049
15396W        W81805  29.163  44.881  11.650
15397W        W81806  29.538  37.291  13.933
15398W        W81807   7.397  43.470  11.936
15399W        W81808  23.688  12.408  13.207
15400W        W81809   7.885  14.182  12.122
15401W        W81810  25.166  21.492   4.569
15402W        W81811  12.181  16.497  12.438
15403W        W81812  44.372  16.548  13.549
15404W        W81813   5.168   6.823   3.254
15405W        W81814  36.417  27.871  11.187
15406W        W81815  40.566  39.847  10.776
15407W        W81816  18.021   9.142  12.955
15408W        W81817  37.136  41.876   1.603
15409W        W81818  39.970   2.991   1.488
15410W        W81819  26.844  10.846  11.092
15411W        W81820  25.280  31.881   1.753
15412W        W81821   1.609  32.123  10.221
15413W        W81822  44.763  44.558   3.381
15414W        W81823  10.399   0.430  12.973
15415W        W81824  43.990  37.313   0.031
15416W        W81825  41.611   7.218  11.299
15417W        W81826  35.873  37.459   1.630
15418W        W81827  23.521  25.629   1.008
15419W        W81828  43.441  26.229  11.039
15420W        W81829   6.647   2.656   3.736
15421W        W81830   1.449  28.698  12.491
15422W        W81831  25.412  37.885   2.253
15423W        W81832  18.179  40.996   2.384
15424W        W81833   3.502  10.843   2.258
15425W        W81834   3.839  37.074   1.799
15426W        W81835  29.373  24.945   4.561
15427W        W81836  38.550  11.355  11.070
15428W        W81837   8.686   9.733  14.800
15429W        W81838  39.143  37.175   2.635
15430W        W81839  42.326  20.963   0.210
15431W        W81840  27.574  31.552  14.753
15432W        W81841  37.464  13.174  12.186
15433W        W81842  44.401   0.813  13.433
15434W        W81843  33.046   7.714   3.333
15435W        W81844  17.772  30.908   1.901
15436W        W81845   9.339  15.671  11.067
15437W        W81846  35.108  27.673   2.314
15438W        W81847  15.970   5.072   5.056
15439W        W81848  43.441  19.382   0.749
15440W        W81849  33.655  15.572   0.359
15441W        W81850  32.114   2.266   2.575
15442W        W81851  21.487  42.815   4.183
15443W        W81852  30.910  30.991  12.465
15444W        W81853   3.396  11.664  13.751
15445W        W81854  20.297  41.072  11.660
15446W        W81855  44.309   5.168  12.492
15447W        W81856  18.161   1.397  11.939
15448W        W81857   0.546  42.999   4.838
15449W        W81858  12.871  10.163   3.686
15450W        W81859  20.185  40.046   1.349
15451W        W81860  33.663  33.774  11.884
15452W        W81861  40.783  20.109   3.540
15453W        W81862  12.922   7.564  13.413
15454W        W81863   5.165  43.198   2.289
15455W        W81864  39.525  15.239   4.672
15456W        W81865   6.204  27.314  14.464
15457W        W81866  13.839  17.702  14.236
15458W        W81867  21.996   4.193  13.388
15459W        W81868  35.895  22.250   0.789
15460W        W81869  28.628  16.247   1.831
15461W        W81870   6.362  16.108   3.283
15462W        W81871   1.551   4.934  11.536
15463W        W81872  38.498  19.705  13.431
15464W        W81873  11.925  37.649  14.360
15465W        W81874  20.800  14.819  14.917
15466W        W81875  38.519   0.333   0.485
15467W        W81876  37.181  26.449   0.974
15468W        W81877  42.820  12.098   1.415
15469W        W81878  43.353   9.391  12.045
15470W        W81879  20.941  43.808   2.934
15471W        W81880  19.157   8.650   3.353
15472W        W81881   0.686  24.991  11.563
15473W        W81882  18.066  22.601   3.644
15474W        W81883  36.922   8.503   1.263
15475W        W81884  12.528   1.410   1.580
15476W        W81885   0.298  10.899  11.624
15477W        W81886  38.926   9.165  14.715
15478W        W81887   3.551  43.604  13.968
15479W        W81888  44.807  14.900  11.100
15480W        W81889   4.978  30.428   1.740
15481W        W81890  22.309  41.387  14.456
15482W        W81891  21.207  31.208   4.254
15483W        W81892  10.308  21.985  14.426
15484W        W81893  38.512   8.534  14.132
15485W        W81894  31.037  28.160  11.506
15486W        W81895   1.239  20.136  12.045
15487W        W81896   3.748   3.764   4.642
15488W        W81897  30.475  10.670   3.393
15489W        W81898  38.585  41.992  14.930
15490W        W81899  19.373  24.186   3.140
15491W        W81900  44.838  16.194  13.128
15492W        W81901  19.210  44.688  11.533
15493W        W81902  35.993  39.126   4.386
15494W        W81903  39.802  44.513  14.873
15495W        W81904  33.202  25.002   3.227
15496W        W81905   2.442  26.472  14.879
15497W        W81906  31.463   2.509  12.961
15498W        W81907  27.383  14.573  14.068
15499W        W81908  43.792   4.586   4.133
15500W        W81909   0.791  26.716   2.865
15501W        W81910  37.581  14.241  14.867
15502W        W81911  26.106  25.606  10.214
15503W        W81912  21.339  29.053   1.000
15504W        W81913  16.669  14.815   2.768
15505W        W81914  35.327  22.251  12.609
15506W        W81915  13.193  34.251  12.356
15507W        W81916   4.774   2.264   1.786
15508W        W81917  42.237  36.880   3.759
15509W        W81918  17.318  41.292  14.466
15510W        W81919  22.196  16.291  13.988
15511W        W81920  12.711  40.266   0.946
15512W        W81921  32.301  33.844   2.489
15513W        W81922  39.853   0.273  10.582
15514W        W81923  24.921   2.445   3.358
15515W        W81924  28.068  37.100   3.109
15516W        W81925  32.704   9.006  11.992
15517W        W81926  21.060  40.650   5.081
15518W        W81927  38.700   3.961  14.319
15519W        W81928  44.601  14.570   0.294
15520W        W81929   1.646   7.851  11.033
15521W        W81930  35.457   7.890   0.784
15522W        W81931  17.763  20.215  14.012
15523W        W81932   5.672  17.118   1.313
15524W        W81933  44.306  23.465  14.920
15525W        W81934  23.032   2.756   3.079
15526W        W81935  33.842  19.550  10.769
15527W        W81936  33.864  34.423  14.468
15528W        W81937  34.052  22.792   4.232
15529W        W81938  35.585  28.717   0.737
15530W        W81939   0.029   5.229   2.276
15531W        W81940  37.437  20.227  11.809
15532W        W81941  34.898   3.916   2.804
15533W        W81942  10.708  24.573   3.422
15534W        W81943   9.291  41.943  11.208
15535W        W81944  25.484   2.541   2.412
15536W        W81945  29.372   1.800   3.678
15537W        W81946  21.007   2.281  11.838
15538W        W81947  20.276  40.431  12.460
15539W        W81948   7.790   4.711   4.997
15540W        W81949  13.092  43.691   2.371
15541W        W81950  35.514  34.832  10.667
15542W        W81951  22.144   6.785  13.637
15543W        W81952   9.396   0.046  11.146
15544W        W81953  37.761  29.682   0.113
15545W        W81954  18.261  29.525   0.199
15546W        W81955  13.091  19.298   3.211
15547W        W81956  19.020   4.768   3.070
15548W        W81957  18.097  23.219  11.305
15549W        W81958  38.375  38.087   4.598
15550W        W81959  24.298  23.948   1.875
15551W        W81960   9.061  11.739   2.970
15552W        W81961   4.457   6.475  13.932
15553W        W81962  34.343  13.870   2.351
15554W        W81963  20.538   2.765  12.508
15555W        W81964  35.326  12.911   2.755
15556W        W81965  17.852   2.417  12.432
15557W        W81966  23.405  24.198  13.601
15558W        W81967  27.675   7.083   4.254
15559W        W81968  15.247  11.511   3.808
15560W        W81969  20.072  29.149  14.829
15561W        W81970   8.174  43.343   1.935
15562W        W81971  41.474  24.660   4.616
15563W        W81972  38.268  24.153  12.035
15564W        W81973  21.011   9.186  12.844
15565W        W81974   1.172  26.709  13.825
15566W        W81975  24.209  19.937  14.208
15567W        W81976  20.821  37.299   3.796
15568W        W81977  14.258   4.217  11.398
15569W        W81978  22.750  28.611   4.646
15570W        W81979  22.191  33.401  12.862
15571W        W81980   0.874  21.515  12.043
15572W        W81981  39.613  30.625  12.695
15573W        W81982  40.140   3.338  13.509
15574W        W81983   5.680  13.876   2.306
15575W        W81984  35.431  31.314  13.826
15576W        W81985  37.435  31.552   1.251
15577W        W81986   8.429  22.757   0.497
15578W        W81987  12.267  20.177  10.672
15579W        W81988  38.923  27.198   2.239
15580W        W81989  29.520  33.305   0.321
15581W        W81990   5.664  43.747   0.313
15582W        W81991  10.629  13.050   4.391
15583W        W81992   1.394  12.757  14.015
15584W        W81993  26.824   8.280   3.150
15585W        W81994  26.462   8.168  12.834
15586W        W81995  25.058  21.042  14.318
15587W        W81996  15.090  26.424   1.289
15588W        W81997   3.787  28.939  11.093
15589W        W81998  39.348  34.690  12.350
15590W        W81999  44.379   5.144  13.992
15591W        W82000   7.901  40.056  12.146
15592W        W82001   1.424  31.429   3.669
15593W        W82002  26.950  30.447   2.810
15594W        W82003  27.432  19.740   1.451
15595W        W82004   9.553  31.819  11.699
15596W        W82005  27.059  39.493   0.220
15597W        W82006  24.996  23.484  13.214
15598W        W82007   5.852  18.787   4.374
15599W        W82008  38.406  26.718   4.625
15600W        W82009  13.550  13.734   2.163
15601W        W82010  43.715   5.873  12.933
15602W        W82011   1.149   5.817  12.356
15603W        W82012  40.541  36.296   0.470
15604W        W82013  43.229   7.646  11.141
15605W        W82014  20.671  44.788   2.789
15606W        W82015  11.450  36.933   4.090
15607W        W82016   3.584  44.823   4.578
15608W        W82017  42.467  38.104   0.824
15609W        W82018  36.424  15.477  12.865
15610W        W82019  42.029   3.200   1.368
15611W        W82020  41.310  10.647  13.896
15612W        W82021  29.011  36.058  10.533
15613W        W82022  21.062  25.129  14.947
15614W        W82023  16.524  19.101  11.140
15615W        W82024  19.634  12.477  10.763
15616W        W82025  10.323   4.138   0.658
15617W        W82026  36.509  16.230   1.950
15618W        W82027  29.391  20.767   1.316
15619W        W82028  14.402  20.213   0.723
15620W        W82029  33.992  19.588  14.217
15621W        W82030  19.579  20.614   2.056
15622W        W82031  29.542  10.012  14.720
15623W        W82032  44.419  25.124  12.828
15624W        W82033  25.161  19.500  14.599
15625W        W82034   0.196  26.011  14.359
15626W        W82035   6.368   5.355   4.458
15627W        W82036  15.117  15.747  11.762
15628W        W82037   6.341   4.680   3.715
15629W        W82038  30.644  16.640  11.182
15630W        W82039  44.451  23.736   4.114
15631W        W82040  44.538  39.963   0.823
15632W        W82041   6.418  40.512   0.757
15633W        W82042  25.901  42.640  10.691
15634W        W82043  22.171   6.140  11.213
15635W        W82044  31.292  23.521  10.405
15636W        W82045  30.496  31.090  12.804
15637W        W82046  30.462  25.716   4.460
15638W        W82047  14.540  14.438   4.931
15639W        W82048   5.806  41.010   4.140
15640W        W82049  27.135  41.006  13.779
15641W        W82050  36.329  24.646  11.520
15642W        W82051  16.125   0.488  11.202
15643W        W82052  22.975   6.765  14.358
15644W        W82053  35.880  39.246   3.704
15645W        W82054  17.489  17.475   1.283
15646W        W82055  28.720  20.403  14.978
15647W        W82056  31.419  32.201   0.466
15648W        W82057   9.753  21.900  12.145
15649W        W82058  11.503  21.815  13.970
15650W        W82059  17.460  19.997   2.572
15651W        W82060  25.922  38.776   2.162
15652W        W82061  16.960  20.005   2.396
15653W        W82062  23.606   2.193   2.872
15654W        W82063  19.374  33.266  14.695
15655W        W82064  21.647   4.724  11.342
15656W        W82065   1.182  41.442   1.418
15657W        W82066  22.521  15.115  11.361
15658W        W82067   1.708   7.815   0.007
15659W        W82068  27.874  12.219   1.793
15660W        W82069  15.945   9.876  13.283
15661W        W82070  18.368  32.112  13.973
15662W        W82071  35.001  16.817  14.928
15663W        W82072  25.114  18.063   1.959
15664W        W82073   1.072  13.096  14.249
15665W        W82074   4.939   5.250  11.396
15666W        W82075  29.442  19.737  12.881
15667W        W82076  10.345  24.831   1.180
15668W        W82077  15.525  14.354  11.671
15669W        W82078  37.966   2.885  14.862
15670W        W82079  35.210  13.645  12.926
15671W        W82080  42.762  13.150  12.669
15672W        W82081  27.428   1.372  12.053
15673W        W82082  41.981  43.080   3.142
15674W        W82083  39.133  31.560  11.555
15675W        W82084   5.680  33.547  13.061
15676W        W82085  37.895  23.490  12.511
15677W        W82086  37.934   1.528  12.524
15678W        W82087  15.381   8.827   0.880
15679W        W82088   2.176   9.729   3.145
15680W        W82089  17.354  25.068   4.150
15681W        W82090  26.076   3.243  12.361
15682W        W82091  32.891  43.962  11.424
15683W        W82092  30.071  24.985  12.602
15684W        W82093  17.666  10.594  11.225
15685W        W82094  21.770  27.923  11.098
15686W        W82095  16.287   7.513   1.890
15687W        W82096  11.216  32.178  11.573
15688W        W82097  44.256  18.731   0.865
15689W        W82098  22.028   3.599   3.897
15690W        W82099   5.405  38.420   0.872
15691W        W82100  44.040  44.923   0.600
15692W        W82101  21.493  10.391  10.656
15693W        W82102  34.897  34.324  12.440
15694W        W82103  35.622  36.453   2.450
15695W        W82104  41.761  31.663   0.303
15696W        W82105   2.551  25.519  12.463
15697W        W82106  14.558  35.829  10.754
15698W        W82107  20.764  21.529   1.325
15699W        W82108  30.238   8.262   0.711
15700W        W82109  10.481  39.612   1.173
15701W        W82110  39.033  10.437   3.856
15702W        W82111  37.760  22.064  12.488
15703W        W82112   6.951  25.908   4.062
15704W        W82113  39.359  44.488   3.220
15705W        W82114  24.199  26.706   2.095
15706W        W82115  14.421  10.144   4.999
15707W        W82116  35.684  21.011  14.750
15708W        W82117  14.521   4.980  11.619
15709W        W82118   4.531  17.349  10.638
15710W        W82119  16.287  39.253   0.694
15711W        W82120  13.891  18.239  10.749
15712W        W82121   9.361  35.912   0.789
15713W        W82122  29.430   5.709   1.975
15714W        W82123   1.031  44.825   3.197
15715W        W82124   1.886  41.103  13.802
15716W        W82125   6.683   0.009  12.010
15717W        W82126   5.059  18.698   4.515
15718W        W82127   1.168  37.496  11.698
15719W        W82128  14.340  28.581   4.310
15720W        W82129   5.679  33.739  11.662
15721W        W82130   4.402  32.563  13.456
15722W        W82131  16.189  10.129   3.247
15723W        W82132  14.745  42.917   4.353
15724W        W82133  15.801  24.191  13.783
15725W        W82134  22.102  43.173   0.167
15726W        W82135  13.819  38.373  14.467
15727W        W82136  10.556  11.296  10.594
15728W        W82137  37.367  25.508   1.347
15729W        W82138   0.735   1.946  14.865
15730W        W82139  26.684  35.195  13.999
15731W        W82140  24.666   6.307  14.848
15732W        W82141  42.540  37.022  12.520
15733W        W82142   7.931   6.210  14.073
15734W        W82143  19.377  19.739   2.711
15735W        W82144  13.045  30.413   2.389
15736W        W82145   3.757  39.415  12.461
15737W        W82146  10.095  13.072   3.568
15738W        W82147   3.890  21.992   4.265
15739W        W82148  35.477   7.627  12.955
15740W        W82149  27.442  22.397   2.179
15741W        W82150  41.012  28.487   4.364
15742W        W82151  28.342  12.999   2.359
15743W        W82152  23.604  41.076   2.377
15744W        W82153  15.637  12.872  10.842
15745W        W82154  39.587  14.039   3.678
15746W        W82155  41.930   8.507   9.901
15747W        W82156   1.504  14.671  11.564
15748W        W82157  33.086  34.640   3.703
15749W        W82158  26.592  31.362   0.988
15750W        W82159  40.842  37.388  12.359
15751W        W82160  28.465  36.959   0.221
15752W        W82161   0.745   5.380   1.402
15753W        W82162  13.801  39.338  11.540
15754W        W82163   2.747  13.767   4.759
15755W        W82164  19.166  19.587   4.238
15756W        W82165  37.282  38.274   0.775
15757W        W82166  44.085  25.815  13.326
15758W        W82167  25.440   5.992  11.093
15759W        W82168  44.984  23.238  14.442
15760W        W82169   9.721  43.933   1.857
15761W        W82170   9.446  10.650   1.475
15762W        W82171  44.782  13.018  12.611
15763W        W82172   8.320  29.425   2.154
15764W        W82173  17.692   3.269  11.138
15765W        W82174  13.572  22.221  14.453
15766W        W82175   7.748  25.116  12.115
15767W        W82176  35.967  33.028   4.159
15768W        W82177  36.030  26.077   3.186
15769W        W82178   0.728  38.852   3.289
15770W        W82179  22.766  19.281  11.145
15771W        W82180  28.333  32.031  12.023
15772W        W82181   3.534   9.418  11.376
15773W        W82182  20.760  26.258   3.328
15774W        W82183  38.203  28.719  11.369
15775W        W82184  15.872  18.014   2.746
15776W        W82185  32.646  13.231  13.595
15777W        W82186  24.751  29.072   4.698
15778W        W82187  34.105   3.675   0.055
15779W        W82188  25.727  16.756   3.877
15780W        W82189   3.277  13.371  11.701
15781W        W82190  20.449  33.298  11.559
15782W        W82191  40.409   9.191   9.893
15783W        W82192  15.924   9.953  12.381
15784W        W82193  39.415  22.095  14.923
15785W        W82194   4.221  28.532   1.171
15786W        W82195  21.540  32.911  12.010
15787W        W82196  28.867  12.114   3.192
15788W        W82197  14.016  13.967  11.888
15789W        W82198   8.436  29.864  11.085
15790W        W82199  18.430   5.525  14.521
15791W        W82200   8.687  42.787   4.139
15792W        W82201   8.696  10.410  10.688
15793W        W82202  31.437  41.366  14.534
15794W        W82203  37.004   6.429   2.332
15795W        W82204   7.959  15.733   0.242
15796W        W82205  33.422  35.811  14.047
15797W        W82206  10.406  24.239   1.985
15798W        W82207  30.049  19.232   1.785
15799W        W82208  26.567  43.530  11.765
15800W        W82209  31.390  33.081   4.250
15801W        W82210   0.163  25.623   1.492
15802W        W82211   2.050   2.192  12.937
15803W        W82212  15.641  15.050  10.061
15804W        W82213   0.205  12.696  14.978
15805W        W82214  27.217  13.561   2.744
15806W        W82215   2.964   5.645  12.045
15807W        W82216  20.262  19.034  11.936
15808W        W82217  18.758  36.834   0.007
15809W        W82218  40.213  30.106   2.709
15810W        W82219  39.632  26.097   4.753
15811W        W82220   7.968   5.255  14.757
15812W        W82221   2.316  19.055  13.775
15813W        W82222  27.922   0.009   1.810
15814W        W82223  39.501  27.202  14.789
15815W        W82224  42.295  40.012  13.732
15816W        W82225   2.375  33.130  10.416
15817W        W82226   0.183  25.588  14.722
15818W        W82227  35.825  43.907   4.612
15819W        W82228   1.299  34.081  14.537
15820W        W82229   6.661  28.051   1.440
15821W        W82230  43.337   6.708  13.227
15822W        W82231  13.290  39.553  14.413
15823W        W82232  13.139  31.950  14.794
15824W        W82233  10.387  30.222  13.070
15825W        W82234  25.648  33.522   3.280
15826W        W82235  26.726  13.068   3.513
15827W        W82236   5.831  43.452  13.971
15828W        W82237  25.577  41.482  11.407
15829W        W82238  37.833  39.871   0.051
15830W        W82239  26.973  42.514   1.246
15831W        W82240  37.600  36.127   4.311
15832W        W82241  20.856  37.444  12.082
15833W        W82242  24.289   2.925   0.337
15834W        W82243  18.049  27.077   2.885
15835W        W82244  22.212  10.311  11.804
15836W        W82245  39.769  39.884   4.766
15837W        W82246  15.575  40.357  13.760
15838W        W82247   0.688  11.281   4.040
15839W        W82248  13.285  36.582  14.581
15840W        W82249   7.120   4.680  12.965
15841W        W82250  26.079   7.388  11.661
15842W        W82251  38.670  41.593   4.808
15843W        W82252  11.120  22.600   3.653
15844W        W82253   3.283  21.703  12.640
15845W        W82254  30.049  38.243  12.949
15846W        W82255  17.485  37.819  11.057
15847W        W82256  10.033  14.936   0.380
15848W        W82257   6.652  21.885   2.656
15849W        W82258  25.005  21.997  11.662
15850W        W82259   8.972  25.028   2.839
15851W        W82260  24.030  41.601  11.710
15852W        W82261  34.529  15.067  11.305
15853W        W82262   0.920  28.039   3.135
15854W        W82263  29.132  16.080   4.148
15855W        W82264  26.565   4.658   2.703
15856W        W82265  11.222  34.448  14.963
15857W        W82266   3.048  28.877   3.754
15858W        W82267   7.788  20.505  11.499
15859W        W82268  29.614  36.060  14.392
15860W        W82269  32.438  15.659   0.247
15861W        W82270  33.545  36.867  12.553
15862W        W82271   6.936   8.885   4.364
15863W        W82272  29.786  44.891  14.779
15864W        W82273   6.907  35.091  14.802
15865W        W82274  39.719  12.676   4.082
15866W        W82275  18.196  43.349   4.461
15867W        W82276  41.817  40.488   0.797
15868W        W82277  24.180  26.720   5.009
15869W        W82278  42.572   2.195   4.602
15870W        W82279  15.794   9.914  14.543
15871W        W82280  29.558   5.707  12.439
15872W        W82281  11.106  23.517   0.850
15873W        W82282  38.837  39.094  12.952
15874W        W82283  18.764   2.360  10.645
15875W        W82284   3.969  27.590   2.843
15876W        W82285  35.587  20.612   0.453
15877W        W82286  18.241  16.351   4.064
15878W        W82287  16.724   4.852   3.668
15879W        W82288  20.188  10.571   0.997
15880W        W82289  26.584  22.793  14.278
15881W        W82290  17.183  42.023  11.357
15882W        W82291  23.071  38.667   4.010
15883W        W82292  39.044  17.646  13.870
15884W        W82293  24.934  27.459   4.367
15885W        W82294  15.841   6.663   2.946
15886W        W82295  44.887  25.990   1.222
15887W        W82296  11.829  11.684  12.601
15888W        W82297  24.017  41.303  13.447
15889W        W82298  34.922  12.350  12.285
15890W        W82299   0.451  22.742  13.039
15891W        W82300   1.261  18.526   4.917
15892W        W82301  27.546  19.191   4.377
15893W        W82302  43.337  37.988  14.802
15894W        W82303  41.046   4.804  12.499
15895W        W82304  34.433   3.784  13.506
15896W        W82305   1.391   9.003   1.407
15897W        W82306  24.444  29.168  14.515
15898W        W82307  44.800  29.581   0.902
15899W        W82308  18.112   8.405   4.484
15900W        W82309  26.399   4.846   3.531
15901W        W82310  21.103   2.895   4.356
15902W        W82311  37.522   0.713   1.705
15903W        W82312  25.989   2.454   2.391
15904W        W82313   8.279  21.017   4.526
15905W        W82314  24.088   3.730   3.155
15906W        W82315  42.697  32.550   4.670
15907W        W82316  33.134  42.012  13.985
15908W        W82317  13.759  11.032  13.884
15909W        W82318   1.909  34.951  11.810
15910W        W82319  12.083  39.394  13.428
15911W        W82320  14.303  34.070   2.093
15912W        W82321  32.033  20.776  13.275
15913W        W82322   3.980   4.215   2.219
15914W        W82323  44.200   1.336   2.241
15915W        W82324  29.766  44.892  11.628
15916W        W82325  15.575  23.731   0.899
15917W        W82326  28.946   1.146  11.248
15918W        W82327  34.806   8.133   3.289
15919W        W82328   8.197  24.250  12.926
15920W        W82329  37.317  43.264  13.216
15921W        W82330  25.685  10.731   3.135
15922W        W82331  36.161  34.780  14.450
15923W        W82332  20.319  17.442  11.208
15924W        W82333   6.689   6.142   2.647
15925W        W82334  34.827  22.527  10.749
15926W        W82335   7.285  26.250  14.092
15927W        W82336   7.783  28.557  14.467
15928W        W82337  12.592  24.220   4.871
15929W        W82338  36.461  31.041   2.691
15930W        W82339   9.293  31.424  12.591
15931W        W82340  40.751  21.664   0.011
15932W        W82341   9.157  38.874   0.344
15933W        W82342  23.595  34.502  10.642
15934W        W82343  28.664  40.023   1.863
15935W        W82344  16.048  19.107   4.806
15936W        W82345  29.912   2.211   2.384
15937W        W82346  28.608  21.567  14.046
15938W        W82347  12.284  35.843  14.536
15939W        W82348  18.824  31.091  13.217
15940W        W82349   3.292   6.230  12.830
15941W        W82350  42.492  20.129  14.375
15942W        W82351  20.534   9.330   4.585
15943W        W82352  25.104  42.991  13.351
15944W        W82353   1.052  39.498   0.398
15945W        W82354  40.720  40.965  10.802
15946W        W82355  10.387  31.590   3.591
15947W        W82356  25.250  36.036   3.275
15948W        W82357   8.822   1.065  11.359
15949W        W82358  35.498   6.843  11.538
15950W        W82359   0.393  39.880   1.225
15951W        W82360  26.002  39.486   2.707
15952W        W82361  43.340  44.032  13.999
15953W        W82362  41.475  28.154   3.774
15954W        W82363  33.323   7.376   0.935
15955W        W82364   3.472   0.448  12.736
15956W        W82365  39.726  35.659   1.399
15957W        W82366  19.636   8.954   0.303
15958W        W82367  29.692  21.190  11.439
15959W        W82368  15.495  13.769  11.150
15960W        W82369  15.232  29.260  12.514
15961W        W82370  30.685  30.162  14.330
15962W        W82371  31.449  19.774  12.644
15963W        W82372  37.420  39.034   5.205
15964W        W82373  21.682  35.955   2.110
15965W        W82374  41.601   6.300   2.895
15966W        W82375  42.923  44.769   4.542
15967W        W82376  23.944   4.021   1.345
15968W        W82377   4.384  41.606   1.689
15969W        W82378  10.191   6.809  11.908
15970W        W82379  17.340  39.948   2.669
15971W        W82380   3.906  32.458  11.942
15972W        W82381  35.173  30.715   0.208
15973W        W82382  35.022  40.366  10.733
15974W        W82383  34.141   8.329  13.335
15975W        W82384  27.023  19.570   2.732
15976W        W82385  24.335  35.653  11.647
15977W        W82386  38.486   4.496   4.577
15978W        W82387   8.870  28.275   3.741
15979W        W82388   4.286  34.273  11.180
15980W        W82389  37.305  16.997   1.366
15981W        W82390  40.233   9.688   3.103
15982W        W82391   3.470  18.727  14.022
15983W        W82392  14.099   7.453   0.932
15984W        W82393  16.772  17.814   3.678
15985W        W82394  44.414  12.842   2.898
15986W        W82395   3.811  30.630  13.331
15987W        W82396  25.941  13.421   2.141
15988W        W82397  42.944  30.431   2.758
15989W        W82398  34.504  19.067   4.107
15990W        W82399  25.969  31.049   4.514
15991W        W82400  25.746   6.165  11.489
15992W        W82401  31.358  24.239   1.570
15993W        W82402  44.997  14.092   4.216
15994W        W82403   3.704  19.210  13.539
15995W        W82404  11.322  19.361  14.211
15996W        W82405  43.407  16.758   0.763
15997W        W82406  12.601  23.121   4.363
15998W        W82407  38.538   2.470  13.255
15999W        W82408  21.631   7.719  10.770
16000W        W82409  42.722  25.532  12.602
16001W        W82410  27.666  15.057  13.240
16002W        W82411  31.123  44.640  12.122
16003W        W82412   7.976  41.711  12.578
16004W        W82413   5.369  34.383  12.997
16005W        W82414  13.338  24.584   0.961
16006W        W82415  36.797  27.708  14.429
16007W        W82416   6.918  40.480   0.956
16008W        W82417  34.416  37.922   0.245
16009W        W82418  43.989  23.501   0.536
16010W        W82419  13.053  34.033   4.322
16011W        W82420  42.494  36.617  12.824
16012W        W82421  33.375  10.595   0.285
16013W        W82422  15.616  16.050   3.331
16014W        W82423   0.265  33.347   0.718
16015W        W82424  24.159  24.084  10.753
16016W        W82425   2.798  29.306   3.908
16017W        W82426  27.374   9.632   0.045
16018W        W82427  21.593  24.033  10.782
16019W        W82428  25.356  14.040   1.170
16020W        W82429  13.921  43.959  12.374
16021W        W82430  16.783  12.414   3.872
16022W        W82431  42.590  44.453   3.626
16023W        W82432   5.475  16.843   3.631
16024W        W82433   8.395  27.753   0.967
16025W        W82434  32.514  24.489   4.281
16026W        W82435  17.792  22.553  13.468
16027W        W82436  15.116  30.864  11.215
16028W        W82437  28.754   3.216   3.568
16029W        W82438  25.288   7.473   0.383
16030W        W82439  25.712  23.115   3.187
16031W        W82440  28.681  40.001   1.007
16032W        W82441  29.380  33.559   2.677
16033W        W82442  14.348   5.455  14.432
16034W        W82443  17.544   4.960  14.426
16035W        W82444   6.891  44.432   0.687
16036W        W82445  40.731   2.375  13.011
16037W        W82446  21.115  23.538  11.110
16038W        W82447  14.296  34.993   1.781
16039W        W82448   9.000   2.809   0.277
16040W        W82449  25.498  20.280   4.021
16041W        W82450   2.948  30.296   4.202
16042W        W82451   8.606  41.074   3.223
16043W        W82452  44.672  28.891  14.841
16044W        W82453  21.664   6.641   0.213
16045W        W82454  10.543  17.314  12.990
16046W        W82455   7.819  19.560  13.843
16047W        W82456   2.734  38.353   2.269
16048W        W82457  20.991  21.347  10.397
16049W        W82458   5.967   2.131  11.705
16050W        W82459  22.477  10.977  10.601
16051W        W82460  25.877  27.034  14.689
16052W        W82461  20.082   0.776   2.172
16053W        W82462  40.854   0.756  11.614
16054W        W82463  19.702   2.041   2.588
16055W        W82464  44.043  43.921   0.824
16056W        W82465   4.341  18.896  12.790
16057W        W82466  34.711  44.397   0.918
16058W        W82467   9.916  26.366  14.676
16059W        W82468  17.347   2.537   9.968
16060W        W82469  25.738   1.919  11.086
16061W        W82470  17.022   7.998  13.627
16062W        W82471  37.342   1.877   1.250
16063W        W82472  31.500   9.309   3.586
16064W        W82473  31.159   7.443  14.258
16065W        W82474  17.371   7.321   3.573
16066W        W82475  22.701  36.559   1.424
16067W        W82476   2.361  35.622   2.926
16068W        W82477  34.445  41.770  13.584
16069W        W82478  18.730   2.287   2.918
16070W        W82479  11.070   1.777   0.578
16071W        W82480  18.768  31.852  11.635
16072W        W82481  22.945  41.513  11.202
16073W        W82482  23.189  22.793   2.756
16074W        W82483  29.477   7.403   2.328
16075W        W82484   6.236  16.078   4.178
16076W        W82485   8.080  23.987   2.166
16077W        W82486  28.906  31.350   0.344
16078W        W82487  19.203  32.493   2.011
16079W        W82488  42.544  42.276  11.521
16080W        W82489   3.012  28.985  11.466
16081W        W82490   8.263  26.004   1.207
16082W        W82491  15.107  18.672  10.785
16083W        W82492  33.457  20.759  12.922
16084W        W82493  17.592  23.435   0.474
16085W        W82494   0.293  34.109  14.370
16086W        W82495  32.071  42.443  13.278
16087W        W82496  37.597  22.041  14.479
16088W        W82497  42.226  26.948  12.176
16089W        W82498  33.122   8.258  13.710
16090W        W82499  36.111  23.174   0.509
16091W        W82500  36.239   1.264  12.042
16092W        W82501  25.117  36.313  14.359
16093W        W82502  39.318  27.929   3.725
16094W        W82503  33.436  25.218  11.104
16095W        W82504   6.769  36.863   3.453
16096W        W82505  16.875  24.604   0.100
16097W        W82506  31.298  34.805   4.886
16098W        W82507  36.218   0.453   4.621
16099W        W82508  20.826  38.811   4.170
16100W        W82509  17.576  12.056  11.140
16101W        W82510  19.521  25.998  10.739
16102W        W82511   3.386  29.510   1.772
16103W        W82512  42.361  29.655   2.353
16104W        W82513   1.794  14.127  13.831
16105W        W82514   5.040   1.337   2.798
16106W        W82515  38.095  10.315   1.411
16107W        W82516  12.816   2.051   3.666
16108W        W82517  27.962  36.899  12.186
16109W        W82518  31.828  41.304  13.353
16110W        W82519  23.056  37.822   0.414
16111W        W82520   5.627   8.027   2.755
16112W        W82521  16.729  17.842  12.399
16113W        W82522   2.691   6.423  11.671
16114W        W82523   3.459  22.187   4.079
16115W        W82524  14.055  43.357  10.999
16116W        W82525  17.805  13.116   1.338
16117W        W82526  14.754   8.844   3.745
16118W        W82527   3.884   4.468   4.929
16119W        W82528  44.180  19.567  10.728
16120W        W82529  28.771  10.896   0.444
16121W        W82530  17.066  14.050  11.593
16122W        W82531  40.459  22.076  11.643
16123W        W82532  35.235  29.190  11.388
16124W        W82533  24.363  33.124  12.483
16125W        W82534   3.710  14.624   3.715
16126W        W82535  15.377   2.009   3.538
16127W        W82536  41.866  36.381   1.214
16128W        W82537  42.896  30.778   1.922
16129W        W82538  11.691  28.256  13.422
16130W        W82539  29.693  30.989  13.386
16131W        W82540  13.357  26.333   0.936
16132W        W82541  33.643  15.061  12.929
16133W        W82542  42.019  34.135   2.823
16134W        W82543  12.306  36.430  13.463
16135W        W82544  18.152  15.574  14.804
16136W        W82545  33.113  30.021   0.368
16137W        W82546  12.596   0.037  14.528
16138W        W82547  34.657  25.421  14.662
16139W        W82548  34.030  17.585   1.798
16140W        W82549  24.245  18.151   2.278
16141W        W82550   0.018  21.473   1.301
16142W        W82551  12.375  39.329  13.948
16143W        W82552  14.491   7.707   4.216
16144W        W82553  39.124  20.694  11.071
16145W        W82554  28.960   2.307   4.482
16146W        W82555  12.492  25.457   1.874
16147W        W82556  41.068  20.081   4.019
16148W        W82557  41.174  11.075   1.928
16149W        W82558  18.138  19.583   2.728
16150W        W82559  19.600   3.733   0.433
16151W        W82560  11.353  34.865   0.868
16152W        W82561   2.945  15.220   4.341
16153W        W82562  15.514   9.968   2.350
16154W        W82563  41.444  32.068   3.298
16155W        W82564  36.916   9.697   3.251
16156W        W82565   1.669  32.125   3.234
16157W        W82566  13.030  26.045  11.183
16158W        W82567  37.121  38.415   4.178
16159W        W82568  21.223  39.350  11.478
16160W        W82569  16.717  42.988   3.548
16161W        W82570   1.527  34.035   4.364
16162W        W82571  33.226  15.704   4.057
16163W        W82572  12.631  30.122  13.519
16164W        W82573  26.219  12.638  11.521
16165W        W82574   2.617  17.401  14.834
16166W        W82575   9.744  38.269  11.649
16167W        W82576  18.957   7.960   3.974
16168W        W82577  12.054  18.062   1.667
16169W        W82578  14.725  38.913   2.568
16170W        W82579   6.355  37.030   4.308
16171W        W82580  35.531  28.807  10.684
16172W        W82581   5.938  13.785  12.407
16173W        W82582  10.808  17.091   0.723
16174W        W82583  43.443   2.943  12.990
16175W        W82584  22.076  21.898   9.783
16176W        W82585  32.428  20.552  13.801
16177W        W82586   7.836  39.803   4.406
16178W        W82587  16.788  22.115   3.300
16179W        W82588  44.245   7.684   2.721
16180W        W82589  27.613  10.879   3.341
16181W        W82590  25.762  18.996  13.564
16182W        W82591  16.284  28.019  11.891
16183W        W82592   4.574  38.469  12.109
16184W        W82593  19.152   7.814  13.413
16185W        W82594  26.916   7.174   3.599
16186W        W82595  30.685  41.513   4.558
16187W        W82596  44.975  44.929  14.768
16188W        W82597  22.995  37.094  11.138
16189W        W82598  21.703  34.022  11.531
16190W        W82599  11.456  26.388  10.455
16191W        W82600   6.241  41.639  14.594
16192W        W82601   1.406  23.920  12.227
16193W        W82602   7.135  43.446   0.339
16194W        W82603  24.643  32.381  12.430
16195W        W82604  23.516  14.648   4.443
16196W        W82605  43.186  41.380   3.186
16197W        W82606  33.429  36.431  14.320
16198W        W82607   3.145  17.604   0.622
16199W        W82608  25.755   4.682   1.316
16200W        W82609   1.401  42.860   1.389
16201W        W82610   5.827  12.793  13.731
16202W        W82611  44.578  13.449  11.991
16203W        W82612   9.764  30.086   2.269
16204W        W82613  20.577   9.134   0.270
16205W        W82614  40.101  41.832  10.669
16206W        W82615  42.012  30.084   4.648
16207W        W82616  16.027  13.675  12.000
16208W        W82617  26.733  38.992  12.897
16209W        W82618  33.052  44.238  14.380
16210W        W82619  43.300  35.377  10.787
16211W        W82620  41.413  29.551  12.494
16212W        W82621  37.587   0.911   0.194
16213W        W82622  39.902   1.388  13.517
16214W        W82623  42.852  44.814  13.472
16215W        W82624  33.528   4.430   3.237
16216W        W82625   9.845  14.144  13.978
16217W        W82626  43.686   7.291   4.513
16218W        W82627  37.475  38.832   1.345
16219W        W82628  16.297  30.409  14.411
16220W        W82629  42.058  16.525   0.419
16221W        W82630  26.910  17.085  14.455
16222W        W82631  33.424  14.847  13.486
16223W        W82632  33.063  33.595   3.597
16224W        W82633  40.608  24.942  11.010
16225W        W82634  19.454  12.811  12.805
16226W        W82635  27.705  39.728  14.101
16227W        W82636   5.357  15.148   4.387
16228W        W82637  38.518  21.984  12.820
16229W        W82638  40.711  39.383   1.804
16230W        W82639  41.272  33.341  13.516
16231W        W82640   8.344  11.022  11.664
16232W        W82641  35.045  18.207  12.046
16233W        W82642  42.543  11.737   1.754
16234W        W82643  42.307  39.684   4.191
16235W        W82644   6.371  30.626  13.876
16236W        W82645  40.891  14.623  12.324
16237W        W82646   9.889  22.511  11.154
16238W        W82647   2.455  17.749  14.486
16239W        W82648  37.265   4.694  12.862
16240W        W82649   5.880   7.326   2.248
16241W        W82650  14.543  26.129   1.315
16242W        W82651  29.740  20.956   2.218
16243W        W82652  22.673  27.913   1.724
16244W        W82653  13.850  14.769   2.742
16245W        W82654  15.016  43.424   0.435
16246W        W82655  24.531   8.466   4.352
16247W        W82656  12.808  18.645  14.453
16248W        W82657  32.636  10.034  12.786
16249W        W82658  34.872  19.107  11.080
16250W        W82659   4.650  38.062  13.505
16251W        W82660  18.591  12.244   2.326
16252W        W82661  10.792  31.039  13.079
16253W        W82662   0.178  27.680   1.589
16254W        W82663  25.146   4.668   4.630
16255W        W82664  10.843   1.809  14.469
16256W        W82665  35.956  43.332   0.924
16257W        W82666   5.076  34.352  14.734
16258W        W82667  33.703  35.664  11.555
16259W        W82668  33.505  25.991  10.513
16260W        W82669   6.051  12.544  13.332
16261W        W82670  22.479   6.748  14.462
16262W        W82671  19.258  12.373  11.126
16263W        W82672   0.846  10.604  12.494
16264W        W82673  25.486   6.925   1.644
16265W        W82674  23.997  42.064   2.921
16266W        W82675  40.876  38.349  12.001
16267W        W82676   2.836  20.660  13.046
16268W        W82677  23.272   4.876   3.656
16269W        W82678  22.978  28.121   4.029
16270W        W82679   8.289  18.317   2.327
16271W        W82680  32.098  25.095   5.063
16272W        W82681  38.884  25.053  13.012
16273W        W82682  29.241  21.646  10.340
16274W        W82683  22.772  11.952  12.140
16275W        W82684  23.964   7.413   0.788
16276W        W82685   8.187  12.984   2.059
16277W        W82686  10.901  26.520   1.660
16278W        W82687  33.584   7.299  12.959
16279W        W82688   6.816  21.557  10.349
16280W        W82689  22.553  25.144  12.358
16281W        W82690  20.243  35.488  12.963
16282W        W82691  20.607  15.628  14.418
16283W        W82692  36.365  33.396   0.001
16284W        W82693  31.012   0.383  12.584
16285W        W82694  39.765  19.835  10.475
16286W        W82695  16.002  21.280   0.376
16287W        W82696  19.898  41.357   2.242
16288W        W82697  25.995  12.868  14.391
16289W        W82698   7.038   4.466  14.433
16290W        W82699  19.131  11.880  11.054
16291W        W82700   0.823  33.806   4.187
16292W        W82701   1.991  31.649   2.137
16293W        W82702  38.705  32.301   4.729
16294W        W82703  42.884  31.860  11.455
16295W        W82704  25.246  20.017  12.432
16296W        W82705  28.976  24.015  10.685
16297W        W82706   8.684  19.809  12.080
16298W        W82707  33.569  44.779  13.829
16299W        W82708  23.212   4.392  14.639
16300W        W82709  40.531  20.629  10.033
16301W        W82710  19.298  15.247   2.129
16302W        W82711  24.961   0.580  12.545
16303W        W82712   0.348  15.233   2.893
16304W        W82713  30.426   9.620   2.340
16305W        W82714  16.278  38.925  12.498
16306W        W82715  43.759  16.806   4.584
16307W        W82716  14.021  42.032  13.383
16308W        W82717  44.401   2.875   3.866
16309W        W82718   8.027  28.669  14.928
16310W        W82719   9.056   7.255  13.045
16311W        W82720  36.705  36.208   9.541
16312W        W82721   3.493  43.340   0.658
16313W        W82722   5.091  42.447  12.093
16314W        W82723  40.388  21.699   2.783
16315W        W82724  23.033  29.420  14.465
16316W        W82725  43.824   2.576   4.838
16317W        W82726   1.757  14.288  11.097
16318W        W82727  36.916  14.654   2.224
16319W        W82728   3.460  12.575  13.444
16320W        W82729  12.946  19.569   4.108
16321W        W82730  25.473  20.470  12.459
16322W        W82731   5.307   5.713  13.303
16323W        W82732   8.480   4.648   2.275
16324W        W82733  22.265   4.303  14.290
16325W        W82734  39.438   4.357  13.166
16326W        W82735   6.920  44.041   1.920
16327W        W82736  29.608  12.571  10.710
16328W        W82737  29.559  17.923   4.202
16329W        W82738  34.937  22.992  11.895
16330W        W82739  44.372  41.226  10.413
16331W        W82740   3.428  26.401  13.370
16332W        W82741  22.699  35.149   5.031
16333W        W82742  43.055  15.745  10.808
16334W        W82743   2.769   8.814  10.971
16335W        W82744  28.548   6.405   2.851
16336W        W82745  43.577  19.184   4.222
16337W        W82746  20.172  39.361   3.818
16338W        W82747  41.010  13.097  13.890
16339W        W82748  13.920  23.050   1.327
16340W        W82749   9.935  30.614  13.389
16341W        W82750  13.223  40.000  11.933
16342W        W82751  36.658   0.155  10.053
16343W        W82752  31.495  18.034  13.529
16344W        W82753  14.800  20.249   2.813
16345W        W82754  24.876  43.734   1.292
16346W        W82755  19.240  25.767   0.411
16347W        W82756   4.911  36.958  14.851
16348W        W82757  18.329  13.415   2.601
16349W        W82758  22.643   5.342  14.252
16350W        W82759  25.003  25.719   1.802
16351W        W82760  29.949  26.343  12.326
16352W        W82761  18.222  37.490  10.515
16353W        W82762   0.362  26.985   4.562
16354W        W82763  10.853   9.574  11.189
16355W        W82764  18.640  15.808  10.615
16356W        W82765  32.027   1.989   1.491
16357W        W82766  26.470   6.319  12.889
16358W        W82767  40.036  11.622  11.997
16359W        W82768  11.703   3.010   2.669
16360W        W82769  43.059  36.052  12.988
16361W        W82770  37.414  30.938   5.146
16362W        W82771  14.766  17.086   0.951
16363W        W82772  25.633  36.868   1.311
16364W        W82773   1.441   9.297  14.862
16365W        W82774  11.357  41.812   3.160
16366W        W82775  43.274  19.475  11.994
16367W        W82776  42.985  26.327  11.267
16368W        W82777  28.085  38.506  11.188
16369W        W82778   3.270  40.451   0.731
16370W        W82779  15.414  24.149   4.612
16371W        W82780  18.550  30.632   1.573
16372W        W82781  16.632  19.669  13.768
16373W        W82782  33.896   5.979   0.725
16374W        W82783  33.054  12.009   3.269
16375W        W82784  19.645  39.586   3.349
16376W        W82785  38.820  32.952   4.245
16377W        W82786  38.843  37.373  11.101
16378W        W82787  18.588  37.957  14.300
16379W        W82788  10.672   3.751   1.543
16380W        W82789   5.937  13.393  14.252
16381W        W82790  24.216  26.651   1.309
16382W        W82791  34.399  31.164   4.204
16383W        W82792  20.482   8.267   2.184
16384W        W82793  16.846   5.988   4.708
16385W        W82794  38.365  34.384   3.859
16386W        W82795  37.925   4.530  14.892
16387W        W82796  36.442  14.267  10.309
16388W        W82797  17.046  23.779  12.138
16389W        W82798   9.175   9.998   4.497
16390W        W82799  16.182  13.149   2.250
16391W        W82800  19.742  39.918   0.215
16392W        W82801   0.300  34.190   3.546
16393W        W82802   3.671   5.990  12.508
16394W        W82803  23.292  30.053  13.049
16395W        W82804  30.752   7.323  14.556
16396W        W82805   3.065  25.446   2.756
16397W        W82806  33.903  28.164  11.369
16398W        W82807  36.894  42.296   2.383
16399W        W82808   5.235  27.410  14.264
16400W        W82809  19.617   7.358   4.094
16401W        W82810  24.244   1.778   5.008
16402W        W82811  24.735  23.133   2.145
16403W        W82812  42.034   0.728   0.909
16404W        W82813  40.351   5.224   0.448
16405W        W82814  30.534  36.704  13.373
16406W        W82815  42.083  19.250   5.116
16407W        W82816  39.015  43.529  11.847
16408W        W82817  42.864  20.706  13.637
16409W        W82818  27.858  41.878  11.191
16410W        W82819  41.567  44.507  11.513
16411W        W82820  33.063  26.500  14.399
16412W        W82821  13.247   3.490   0.976
16413W        W82822  14.085  30.364  14.819
16414W        W82823  36.721  25.046   0.804
16415W        W82824  17.564  23.733   0.998
16416W        W82825  34.098   7.805  14.063
16417W        W82826  41.630  25.423   1.892
16418W        W82827   1.543  12.759   1.386
16419W        W82828   6.656   8.406  11.075
16420W        W82829  16.093   8.597  14.058
16421W        W82830   8.193  10.961   3.540
16422W        W82831  28.069  24.714   1.756
16423W        W82832  29.677  34.894  12.019
16424W        W82833  17.853  36.347   1.314
16425W        W82834  23.903  42.300  12.993
16426W        W82835   3.466  12.698  10.597
16427W        W82836   3.912  40.772  11.365
16428W        W82837  31.165   5.855   0.345
16429W        W82838  44.060   7.014   4.275
16430W        W82839  34.574  30.935  14.182
16431W        W82840   0.079   5.966   0.246
16432W        W82841  15.790  16.095   1.915
16433W        W82842  37.538  18.197   2.406
16434W        W82843   6.809   0.659  14.076
16435W        W82844  12.699  20.460  10.642
16436W        W82845   1.504  33.369  11.509
16437W        W82846   8.752  29.445  11.959
16438W        W82847  15.903  30.025  11.897
16439W        W82848  33.850  14.760  10.802
16440W        W82849  27.153  43.283   1.638
16441W        W82850   5.465  12.708  10.751
16442W        W82851  21.304   4.429   4.246
16443W        W82852  13.646  16.716   2.826
16444W        W82853  12.486   9.626  11.727
16445W        W82854  11.328  21.809   0.694
16446W        W82855  16.326   1.391  13.366
16447W        W82856   8.896  42.523  13.811
16448W        W82857   6.370  19.441   2.731
16449W        W82858  36.126   4.222   0.689
16450W        W82859  20.963  24.032   4.509
16451W        W82860  19.539  13.196  12.493
16452W        W82861  33.455  20.155   0.209
16453W        W82862  35.872  43.482  11.177
16454W        W82863  30.081  40.951   2.027
16455W        W82864  44.743  40.381  13.704
16456W        W82865  40.917   4.950  11.222
16457W        W82866  27.450   1.945  14.437
16458W        W82867   1.818  25.085   1.252
16459W        W82868  38.797  31.926   1.843
16460W        W82869  10.850   9.104   1.097
16461W        W82870  11.111   0.586   3.550
16462W        W82871  19.699  38.674   3.809
16463W        W82872  12.116   0.679   2.687
16464W        W82873  40.762  28.413   3.169
16465W        W82874   8.002  31.903  11.168
16466W        W82875   5.340  42.003  13.955
16467W        W82876  35.091   5.904   0.313
16468W        W82877   4.480  11.684  14.968
16469W        W82878  33.876  20.877   2.686
16470W        W82879  12.598  44.923  12.697
16471W        W82880  12.834  11.865  11.119
16472W        W82881  35.487  44.187   4.285
16473W        W82882   3.895  26.256   0.507
16474W        W82883   7.344  17.504   2.181
16475W        W82884   9.100  10.110   3.233
16476W        W82885  36.357  13.093   2.439
16477W        W82886  23.249   4.210   2.767
16478W        W82887  16.876  42.787  14.413
16479W        W82888  33.044   1.478  13.887
16480W        W82889  36.575  31.034   4.834
16481W        W82890  15.204  18.503   1.279
16482W        W82891  43.016  33.325  12.166
16483W        W82892  40.874  20.657  13.018
16484W        W82893  26.582  36.014   3.698
16485W        W82894   7.681  12.996  12.440
16486W        W82895   3.282  35.500  14.981
16487W        W82896   9.187  37.790   3.299
16488W        W82897   2.656  33.446   3.859
16489W        W82898  33.824   9.995  14.554
16490W        W82899  32.170  29.572   3.520
16491W        W82900  43.610  26.050  12.379
16492W        W82901  43.263  31.209   3.818
16493W        W82902   4.702  27.928  12.519
16494W        W82903  35.476   2.591   5.173
16495W        W82904  27.481   7.120   0.890
16496W        W82905  28.406  27.244  11.573
16497W        W82906  27.458  34.302   4.482
16498W        W82907   6.134  14.759  14.966
16499W        W82908   5.646  39.244   4.256
16500W        W82909   2.827  12.352   1.765
16501W        W82910   4.252  13.256   3.206
16502W        W82911  37.565  12.410   2.714
16503W        W82912  44.046  38.664   2.767
16504W        W82913   3.321  20.925   0.928
16505W        W82914  29.599  41.091  13.454
16506W        W82915  43.173   6.262   1.833
16507W        W82916  21.441  29.564  12.729
16508W        W82917  31.261   4.809  10.531
16509W        W82918   6.244  44.363   3.710
16510W        W82919  28.481  35.090  12.111
16511W        W82920  20.295  17.569   0.811
16512W        W82921  20.941   7.095  12.482
16513W        W82922   9.859  16.759  10.931
16514W        W82923  16.464   5.527  13.346
16515W        W82924   5.491   5.986   3.779
16516W        W82925   5.386  12.262   2.277
16517W        W82926  12.782   2.500  12.586
16518W        W82927  17.289  29.694   4.217
16519W        W82928   1.950  32.360   1.355
16520W        W82929  29.558   3.889   2.638
16521W        W82930  42.928  34.087   0.960
16522W        W82931   3.144   6.681   1.343
16523W        W82932  11.983  37.293  12.405
16524W        W82933  21.320  32.231  14.336
16525W        W82934   0.274  28.086  13.525
16526W        W82935   2.592  10.062   2.432
16527W        W82936  13.625   9.383  10.840
16528W        W82937   5.259   0.346   3.668
16529W        W82938  34.107  39.547  13.140
16530W        W82939  33.157  27.710   2.687
16531W        W82940   5.372   7.469  12.052
16532W        W82941  24.413  19.680  11.553
16533W        W82942   0.877  42.652   3.875
16534W        W82943  41.952  12.224  13.331
16535W        W82944  43.798  15.235  12.309
16536W        W82945  25.523  43.391   2.217
16537W        W82946  10.272   0.007   2.196
16538W        W82947   2.501  10.262   3.919
16539W        W82948  14.170  28.329  13.029
16540W        W82949   3.465   8.892  11.600
16541W        W82950  10.556  28.146  11.739
16542W        W82951  10.227  26.749   0.856
16543W        W82952  42.799   0.207   4.768
16544W        W82953  44.251  21.164   2.899
16545W        W82954  37.052  42.374  10.831
16546W        W82955   4.411  33.983  10.740
16547W        W82956   9.138  40.070  12.662
16548W        W82957  16.786  15.492  11.199
16549W        W82958  24.532  11.708  12.880
16550W        W82959  43.574  13.882  13.570
16551W        W82960  12.738   0.730  13.780
16552W        W82961  19.906  16.467  10.014
16553W        W82962  35.201  31.201   1.345
16554W        W82963   6.858  39.806   1.181
16555W        W82964  12.584   7.983   1.653
16556W        W82965  34.017  43.274  10.802
16557W        W82966  16.141  12.921  14.971
16558W        W82967  34.804   4.222  11.264
16559W        W82968   4.874  20.986   9.925
16560W        W82969  42.215   7.684   3.753
16561W        W82970   5.317   9.874   0.653
16562W        W82971  36.202  26.777  12.686
16563W        W82972  39.819   2.896   2.955
16564W        W82973  30.980  19.843   0.971
16565W        W82974  36.956  20.094   0.335
16566W        W82975  17.914   6.222   1.899
16567W        W82976  20.470  17.151  13.470
16568W        W82977  39.517   0.476   3.929
16569W        W82978   0.331  38.355  10.945
16570W        W82979  39.086   4.897  12.359
16571W        W82980   6.147  20.535   1.683
16572W        W82981  11.648  36.339  12.142
16573W        W82982  16.869   5.915  11.631
16574W        W82983  12.089  21.090  12.828
16575W        W82984   9.819  14.584   4.115
16576W        W82985   5.351  24.964  13.712
16577W        W82986  15.995  29.666  10.826
16578W        W82987  43.626  11.230   4.980
16579W        W82988  29.896  27.583  13.103
16580W        W82989  20.283   7.365   2.302
16581W        W82990  14.658  22.497   0.854
16582W        W82991  33.479  25.550  13.859
16583W        W82992  22.994   4.500   3.864
16584W        W82993  18.094  25.168  10.746
16585W        W82994   3.503  23.667   1.366
16586W        W82995  37.347  30.561  14.064
16587W        W82996  17.057  13.625   2.342
16588W        W82997  26.589  25.556   3.624
16589W        W82998  36.371   9.353   2.658
16590W        W82999   7.216  20.341   5.203
16591W        W83000   3.696  23.524  14.515
16592W        W83001   6.744  19.827   2.057
16593W        W83002   5.935  40.628   0.535
16594W        W83003  19.233   0.837  14.696
16595W        W83004  14.954   0.519   4.975
16596W        W83005   6.988   0.420   3.798
16597W        W83006  40.026  39.825  14.503
16598W        W83007   4.334  34.355   1.389
16599W        W83008  42.129  31.994  12.108
16600W        W83009   1.645  17.726  14.839
16601W        W83010  22.443  34.124  13.350
16602W        W83011  29.878   4.326   4.584
16603W        W83012  41.741  31.156  11.219
16604W        W83013  28.018  42.374   4.587
16605W        W83014  35.787  41.429   2.417
16606W        W83015   3.712  44.289   0.481
16607W        W83016   9.916   5.306  10.470
16608W        W83017   6.004   8.800   2.894
16609W        W83018   7.833   2.495   1.919
16610W        W83019   1.602  24.266  13.956
16611W        W83020   6.945  10.595  13.928
16612W        W83021  40.407  15.783   1.663
16613W        W83022  32.277   6.544  14.506
16614W        W83023   4.001  15.178  11.525
16615W        W83024  33.801  40.957   3.690
16616W        W83025  19.262  11.702  13.416
16617W        W83026  39.549   2.187   2.031
16618W        W83027  24.085  40.283   1.113
16619W        W83028   9.814  19.122  14.408
16620W        W83029  29.626  43.537   3.136
16621W        W83030  31.299   8.305   4.612
16622W        W83031  28.111  27.777  11.991
16623W        W83032  16.964  34.925   2.940
16624W        W83033  39.746  29.624  11.059
16625W        W83034   5.348   0.054   4.090
16626W        W83035  34.913  36.002   2.395
16627W        W83036   0.850  14.251  13.844
16628W        W83037   6.456  27.525  12.471
16629W        W83038   9.081   6.934   2.902
16630W        W83039   7.100  39.176  14.512
16631W        W83040  28.070  30.181   0.324
16632W        W83041   5.987   6.295   1.320
16633W        W83042  15.724   9.419   2.361
16634W        W83043  42.797  24.627   0.755
16635W        W83044  14.825  25.540   3.792
16636W        W83045  35.808  23.135  12.388
16637W        W83046  28.160  16.196   4.156
16638W        W83047  27.421   9.297   4.557
16639W        W83048   8.463  18.198  14.454
16640W        W83049  37.532   4.849   2.190
16641W        W83050  34.128  19.704   3.519
16642W        W83051  43.411  34.347   4.461
16643W        W83052  39.941  18.111   1.897
16644W        W83053   0.645  38.311   3.309
16645W        W83054   1.288  34.129   3.473
16646W        W83055  43.229   8.663   4.790
16647W        W83056  18.474  12.877   1.647
16648W        W83057   9.103  16.351  14.164
16649W        W83058  43.487   3.217   2.213
16650W        W83059  21.600  41.509  13.901
16651W        W83060  35.673  30.147  12.585
16652W        W83061   2.867  41.792  12.967
16653W        W83062  23.482   8.134  12.454
16654W        W83063  11.334  43.560  11.467
16655W        W83064  32.577  33.654   0.486
16656W        W83065  42.393   5.335   1.273
16657W        W83066  30.024  39.033   3.117
16658W        W83067  40.271  14.559   0.182
16659W        W83068  12.556  34.180  11.071
16660W        W83069  12.192   3.496   4.174
16661W        W83070  10.084  18.768   3.224
16662W        W83071   1.954  10.870   0.517
16663W        W83072  40.666  34.365   1.314
16664W        W83073  10.715   3.751   1.020
16665W        W83074  11.952  14.268  14.966
16666W        W83075  13.283  41.422   0.658
16667W        W83076  36.592  12.260  11.170
16668W        W83077  11.344  36.502   4.850
16669W        W83078  43.348  26.164   2.716
16670W        W83079  21.002  39.560   3.685
16671W        W83080   0.907  21.520   4.173
16672W        W83081  39.300  15.352  11.419
16673W        W83082   7.725  44.297  11.635
16674W        W83083  22.182  22.299   4.079
16675W        W83084  27.094   5.455  13.854
16676W        W83085   0.491  35.540   1.729
16677W        W83086  25.585  26.138   4.406
16678W        W83087  43.409   0.411   0.432
16679W        W83088  24.529  40.793  10.726
16680W        W83089  26.987  13.120  12.944
16681W        W83090  31.851  33.406  12.070
16682W        W83091  37.408  36.819   4.618
16683W        W83092  13.175  33.145  12.396
16684W        W83093   2.802  23.214   1.445
16685W        W83094  26.516  12.289  12.364
16686W        W83095  22.350   8.960   0.300
16687W        W83096  39.919  23.376   3.680
16688W        W83097  34.649  14.063   3.706
16689W        W83098  33.119  13.025  14.466
16690W        W83099   4.343   5.162  13.420
16691W        W83100  16.213   8.795  10.704
16692W        W83101   5.904  11.055   0.483
16693W        W83102  13.200  34.409   1.992
16694W        W83103  10.404  43.844   2.779
16695W        W83104  44.933  20.440   1.442
16696W        W83105  29.018  38.313   4.006
16697W        W83106  19.604  20.054   1.229
16698W        W83107  31.715  37.844   2.682
16699W        W83108  27.050  20.037  14.981
16700W        W83109  31.827   5.378  13.068
16701W        W83110  15.302  33.157  13.132
16702W        W83111   8.286   1.300   4.513
16703W        W83112   7.251  21.527   3.214
16704W        W83113  32.095  11.788  13.313
16705W        W83114   0.915  29.660  10.768
16706W        W83115   0.999  31.596  12.159
16707W        W83116  32.282   6.539  13.306
16708W        W83117  28.555  23.428  10.405
16709W        W83118  44.678  13.625  10.693
16710W        W83119  43.987  33.614  11.911
16711W        W83120  29.188  19.664  14.971
16712W        W83121  12.244  10.382  12.564
16713W        W83122  12.628  35.980  11.639
16714W        W83123  41.987   8.711  14.120
16715W        W83124   5.217   8.218  10.794
16716W        W83125  13.767  20.535   5.455
16717W        W83126  42.601   5.321  14.112
16718W        W83127  27.054  27.956   1.880
16719W        W83128  14.713  37.901  14.684
16720W        W83129  11.791   9.523   3.415
16721W        W83130  23.938  24.735   3.186
16722W        W83131  18.043  35.135   2.815
16723W        W83132  31.656   1.332   1.098
16724W        W83133  36.084   5.386  14.002
16725W        W83134  39.399  40.766   2.418
16726W        W83135   4.252  28.216   2.060
16727W        W83136   3.368  27.213  12.274
16728W        W83137  37.532  26.501   3.659
16729W        W83138   5.864   4.664   1.815
16730W        W83139  38.319  12.909  13.002
16731W        W83140  16.009   5.476  14.600
16732W        W83141  43.388   0.479   3.564
16733W        W83142  28.192  43.455  13.497
16734W        W83143   8.211  19.614  12.093
16735W        W83144  28.092  18.675  12.684
16736W        W83145  20.585  37.118   0.745
16737W        W83146  26.610   4.180   0.383
16738W        W83147  22.646  40.966   1.435
16739W        W83148  12.012  40.238  10.189
16740W        W83149   4.901  33.893   0.521
16741W        W83150  32.696  29.611  11.080
16742W        W83151  35.263   1.206   1.691
16743W        W83152  30.952  16.769   2.245
16744W        W83153  33.459  34.406   1.694
16745W        W83154  44.250  38.006   3.259
16746W        W83155  27.878  37.942   4.735
16747W        W83156  12.510   6.027  14.409
16748W        W83157   1.344  24.541   2.428
16749W        W83158  22.013  29.294   4.551
16750W        W83159  16.030  32.419  11.375
16751W        W83160   7.465  33.721  14.243
16752W        W83161  24.943   6.625  11.651
16753W        W83162  33.206  20.944   1.689
16754W        W83163   3.007  11.382  14.439
16755W        W83164   5.569  22.348  14.953
16756W        W83165   8.712   6.471   5.045
16757W        W83166  11.892  21.569  12.646
16758W        W83167  40.886  44.297   4.213
16759W        W83168  42.394   9.073   0.797
16760W        W83169  19.798  28.528   4.413
16761W        W83170  42.148  34.516  11.703
16762W        W83171  25.086   4.116   4.659
16763W        W83172  30.238  33.619   1.878
16764W        W83173  41.541  33.880   2.807
16765W        W83174  25.618  21.248  14.394
16766W        W83175  44.806  28.729   3.155
16767W        W83176  12.283  43.410  10.791
16768W        W83177  17.795  38.376   2.802
16769W        W83178  36.467  26.016   4.638
16770W        W83179  17.597   9.168  13.743
16771W        W83180  32.386  14.680   3.780
16772W        W83181   9.188  24.088  11.230
16773W        W83182  26.471   1.042   3.222
16774W        W83183  18.556  32.086  13.477
16775W        W83184  11.753  27.979  11.136
16776W        W83185  25.702   2.494   0.367
16777W        W83186   2.082  23.707  10.697
16778W        W83187  33.275  32.773   2.685
16779W        W83188  32.907  39.022  12.577
16780W        W83189  44.396   0.520   1.891
16781W        W83190  12.884   6.862   4.560
16782W        W83191   7.045   1.780  12.908
16783W        W83192  25.053   8.906  14.974
16784W        W83193   2.282  33.334  13.878
16785W        W83194  32.079  16.189  10.777
16786W        W83195  30.146   9.746  12.986
16787W        W83196  10.385  37.076  13.627
16788W        W83197   8.958  13.629  14.785
16789W        W83198  27.438  24.300  12.158
16790W        W83199  17.186  38.248  13.169
16791W        W83200  20.653  37.586   1.673
16792W        W83201  40.525  18.525   0.961
16793W        W83202  19.475  25.142  13.947
16794W        W83203  42.371  33.997  12.543
16795W        W83204  31.668   2.796   2.042
16796W        W83205   4.013  25.612   5.013
16797W        W83206  31.503  28.868  12.059
16798W        W83207  36.661  25.706  11.994
16799W        W83208  39.362  20.677  12.483
16800W        W83209  23.785  26.126   4.576
16801W        W83210  32.665  23.292   0.466
16802W        W83211   8.867  38.429  11.040
16803W        W83212  25.131  41.866  10.421
16804W        W83213   9.821  23.655   3.567
16805W        W83214  12.870  34.137  13.038
16806W        W83215  23.099  14.377   0.004
16807W        W83216  21.054  19.486  12.113
16808W        W83217  16.735   3.505   2.897
16809W        W83218  39.942  30.523  13.156
16810W        W83219  28.728  25.100  14.547
16811W        W83220   9.729  37.001  11.637
16812W        W83221  32.954  37.520  14.463
16813W        W83222  13.194   8.808  14.915
16814W        W83223  17.073  36.933   3.796
16815W        W83224  25.702  28.545   1.184
16816W        W83225  24.507  21.299  13.572
16817W        W83226  16.801  24.965  13.508
16818W        W83227   7.217  31.556   0.390
16819W        W83228  38.788  44.389   1.231
16820W        W83229  38.872   3.203  13.002
16821W        W83230  38.049  16.827  12.545
16822W        W83231  36.093   1.037  11.143
16823W        W83232  43.803  32.164   4.774
16824W        W83233  10.281  11.757  11.986
16825W        W83234  43.765  33.377  11.525
16826W        W83235  43.282   3.531  11.463
16827W        W83236  36.376  13.801  11.029
16828W        W83237  43.997  16.312  14.291
16829W        W83238  22.612  23.435  14.364
16830W        W83239   6.621   1.451  14.208
16831W        W83240   2.996  10.244   4.998
16832W        W83241   8.613   3.299   4.144
16833W        W83242  27.644  28.377  12.954
16834W        W83243  34.494   4.612   3.690
16835W        W83244  13.523  36.222   1.816
16836W        W83245  26.497  29.108   2.218
16837W        W83246  37.812  11.756  12.658
16838W        W83247   2.833  43.349   0.402
16839W        W83248  18.732  31.934  10.063
16840W        W83249   1.364  17.686   3.890
16841W        W83250  22.164  24.640   0.368
16842W        W83251   5.531  37.260   1.219
16843W        W83252  37.406   4.924   0.758
16844W        W83253  42.400  18.983  11.510
16845W        W83254  31.969  21.012  11.680
16846W        W83255  18.547  33.046   0.114
16847W        W83256  16.590  34.951   4.713
16848W        W83257   3.191   6.519  14.489
16849W        W83258  33.060  26.245  13.917
16850W        W83259  35.100  22.428   1.341
16851W        W83260  39.294  27.200   4.219
16852W        W83261   8.808   8.646   2.687
16853W        W83262  27.273  18.275   3.838
16854W        W83263  14.774   3.473  11.508
16855W        W83264  31.985   1.644  14.769
16856W        W83265  14.260   5.393   3.156
16857W        W83266  22.208  31.654   1.872
16858W        W83267  35.380   9.657  11.148
16859W        W83268   4.246   3.458   1.424
16860W        W83269  24.243  40.303  11.999
16861W        W83270  10.264  33.773  10.816
16862W        W83271  20.550  28.990   4.116
16863W        W83272  22.697  25.288   4.549
16864W        W83273   7.665  37.673  13.196
16865W        W83274   8.659  37.974  10.501
16866W        W83275  44.012  39.747  14.373
16867W        W83276  18.836  43.733   0.700
16868W        W83277  30.574  17.843   0.043
16869W        W83278  37.903   3.765  10.314
16870W        W83279  25.112   7.808   1.820
16871W        W83280  25.642  33.050   4.261
16872W        W83281  41.089   8.068  11.117
16873W        W83282  19.202  29.623   3.155
16874W        W83283   5.210  15.395   0.043
16875W        W83284  19.178  25.020   3.733
16876W        W83285  37.608  33.628  10.999
16877W        W83286  21.993  20.107  12.493
16878W        W83287  19.082  15.118  14.918
16879W        W83288   2.027   3.610   1.782
16880W        W83289  21.998  23.588   1.551
16881W        W83290  31.019  24.734  11.093
16882W        W83291  33.094  19.250   4.904
16883W        W83292  41.507  16.359   1.782
16884W        W83293  12.584  17.269   3.254
16885W        W83294   8.966  18.280   2.697
16886W        W83295  10.259  21.811  11.593
16887W        W83296  22.582  18.797   3.598
16888W        W83297  15.531  10.976  14.856
16889W        W83298  41.765  24.832  11.359
16890W        W83299   4.030  20.704   1.336
16891W        W83300  22.963  42.493  10.675
16892W        W83301  14.720   3.564  12.888
16893W        W83302  28.362  35.149   0.799
16894W        W83303  19.011  34.033  14.431
16895W        W83304  34.385  24.336  12.961
16896W        W83305   6.372  44.761   4.045
16897W        W83306  34.122  25.418  13.110
16898W        W83307   7.422  11.887  12.998
16899W        W83308  44.771   9.286  12.295
16900W        W83309   4.641  21.544  14.262
16901W        W83310  11.481  11.702  11.332
16902W        W83311  43.004  18.528  12.060
16903W        W83312  36.380  19.063  11.037
16904W        W83313   9.566  24.599   2.275
16905W        W83314  44.313  22.282  10.638
16906W        W83315  41.289  23.256  12.172
16907W        W83316  19.167   5.236   4.958
16908W        W83317  34.949   4.725  11.269
16909W        W83318  38.598  10.235   3.686
16910W        W83319  22.503   0.236   2.665
16911W        W83320   8.997  36.972  11.949
16912W        W83321  28.430  29.143  11.671
16913W        W83322  11.198  27.433   1.117
16914W        W83323  25.289   8.669   3.289
16915W        W83324  37.838  36.604   3.639
16916W        W83325   7.649   6.076  10.208
16917W        W83326  36.493  14.667   0.027
16918W        W83327  22.792  36.378  11.631
16919W        W83328   7.934  22.292   1.329
16920W        W83329  27.243   9.350  11.607
16921W        W83330  21.587  25.633  12.000
16922W        W83331  13.186  36.502   4.811
16923W        W83332  30.184  12.165  14.920
16924W        W83333  19.279  29.148   0.365
16925W        W83334  30.583   5.340  14.324
16926W        W83335  44.025  14.175   2.844
16927W        W83336   1.951  32.157   2.291
16928W        W83337  38.544  37.322  14.017
16929W        W83338  16.330  25.427   4.068
16930W        W83339  39.065  19.288  12.900
16931W        W83340  11.127   3.209   0.845
16932W        W83341  37.539  39.750   1.304
16933W        W83342  41.251  42.965   3.553
16934W        W83343  30.411  18.680  11.584
16935W        W83344  44.869  33.904   0.255
16936W        W83345  20.080  23.318   3.860
16937W        W83346  32.551   9.683   4.609
16938W        W83347   0.461  24.076   1.837
16939W        W83348  42.134  34.392   4.105
16940W        W83349  37.450  22.731   5.259
16941W        W83350  21.976   2.435  13.662
16942W        W83351  39.736  31.651  13.934
16943W        W83352   0.001   2.516   4.857
16944W        W83353  20.204  10.367   4.501
16945W        W83354  27.679  12.163   3.763
16946W        W83355  18.936  41.243   0.772
16947W        W83356   3.828   8.099  10.629
16948W        W83357  19.752  31.029  11.669
16949W        W83358   3.917  27.135   1.004
16950W        W83359  29.201   2.029  14.768
16951W        W83360  30.499   2.380   9.811
16952W        W83361  20.335  43.231   4.249
16953W        W83362   8.628   2.906   9.866
16954W        W83363  33.419  17.263   1.412
16955W        W83364  24.587  16.685  13.870
16956W        W83365   6.862  26.128  14.808
16957W        W83366   8.352  34.558  12.913
16958W        W83367  18.042  11.013   1.402
16959W        W83368  20.221  22.435   0.837
16960W        W83369   4.639  15.842  13.994
16961W        W83370   0.568  24.913  10.738
16962W        W83371  34.172   3.254  12.095
16963W        W83372  24.959  38.349   1.635
16964W        W83373  15.621  23.410  10.325
16965W        W83374  14.524  26.450   0.541
16966W        W83375  23.249  38.507  14.807
16967W        W83376  16.188  20.167   1.310
16968W        W83377  13.838   8.313   3.439
16969W        W83378  42.189   8.914   1.870
16970W        W83379  43.283  31.400  14.399
16971W        W83380   1.045  33.212  11.628
16972W        W83381   1.368  32.850   2.174
16973W        W83382  35.409  24.598   4.791
16974W        W83383  41.318  24.087  14.710
16975W        W83384  44.379  40.317  10.798
16976W        W83385  31.401   0.440  10.805
16977W        W83386  26.558  30.717   2.562
16978W        W83387   1.301  33.581   4.342
16979W        W83388   4.486  43.511  14.447
16980W        W83389  19.959  18.898   3.407
16981W        W83390  20.308  12.599   3.593
16982W        W83391   7.552  18.367   4.454
16983W        W83392  22.051  35.936  13.913
16984W        W83393  25.253   3.817   3.144
16985W        W83394  11.679  39.794   4.102
16986W        W83395   5.027  36.842  14.342
16987W        W83396   2.583  41.785  14.948
16988W        W83397  43.506  35.857  11.583
16989W        W83398  38.437  36.003   4.602
16990W        W83399  41.896   8.688   1.465
16991W        W83400  36.066   7.183   2.709
16992W        W83401  23.635  41.957  12.186
16993W        W83402  16.594  44.354  10.413
16994W        W83403  23.178  29.573   3.642
16995W        W83404  30.491  15.324   3.603
16996W        W83405   1.390   9.328  10.084
16997W        W83406  25.144  41.582   2.331
16998W        W83407  35.499  44.859   2.699
16999W        W83408  17.029  44.780  13.914
17000W        W83409  41.993  37.126  10.666
17001W        W83410   7.910  18.242   2.679
17002W        W83411   9.219   6.830   4.592
17003W        W83412   4.808   1.288   3.788
17004W        W83413   6.322   9.626   2.209
17005W        W83414  44.773  26.908  12.760
17006W        W83415  25.582  23.716   1.455
17007W        W83416   8.589  20.569  13.072
17008W        W83417  14.653  33.929   3.861
17009W        W83418  16.664   9.617  14.788
17010W        W83419  28.136   4.431  10.226
17011W        W83420  40.779   1.661   3.564
17012W        W83421  14.026   6.932   1.738
17013W        W83422  27.443   5.799  13.628
17014W        W83423  33.625  13.090  12.105
17015W        W83424  19.212  44.315  12.504
17016W        W83425  33.756   1.506   4.138
17017W        W83426  30.573  24.963  11.332
17018W        W83427  37.257  40.433  11.272
17019W        W83428  20.023   9.660   0.737
17020W        W83429  17.744  28.730   2.554
17021W        W83430   5.280  31.891   1.109
17022W        W83431  28.726  40.481   4.686
17023W        W83432  41.033   6.376  13.396
17024W        W83433  23.284  34.585   3.152
17025W        W83434  21.999  32.143   1.901
17026W        W83435  14.339  33.412  10.992
17027W        W83436  15.587  36.773   3.945
17028W        W83437  15.861  43.455   5.013
17029W        W83438  34.563  39.539   4.305
17030W        W83439  22.583   6.695  13.002
17031W        W83440  22.623  44.814   3.762
17032W        W83441  12.443   5.023   0.107
17033W        W83442   8.081  18.822   3.256
17034W        W83443   8.000  26.526   0.432
17035W        W83444  36.816  31.522   2.656
17036W        W83445  10.805  14.507   2.085
17037W        W83446   3.689  41.090  11.008
17038W        W83447  12.095  30.613  14.770
17039W        W83448   1.191   1.578   3.015
17040W        W83449   8.904  32.513   3.815
17041W        W83450  15.743  33.998  13.869
17042W        W83451  38.939  29.077  14.643
17043W        W83452  21.605   2.158  14.819
17044W        W83453  29.349   1.338   2.830
17045W        W83454  41.858  34.335   2.215
17046W        W83455  11.847  20.038  13.654
17047W        W83456   5.239   2.588   3.781
17048W        W83457  30.365  25.610  14.471
17049W        W83458  27.896  19.690  11.571
17050W        W83459  23.148   7.328   1.146
17051W        W83460  33.846   7.269  11.620
17052W        W83461  31.978  25.274  12.344
17053W        W83462  14.095  40.801  13.887
17054W        W83463   9.140   4.933  10.790
17055W        W83464   7.501  23.280   3.118
17056W        W83465  14.136   3.509   4.151
17057W        W83466   4.529   0.449  12.009
17058W        W83467  12.170  26.186   0.321
17059W        W83468  16.296  19.678  13.389
17060W        W83469   5.643  31.905   1.497
17061W        W83470  31.033  33.198  11.635
17062W        W83471   8.644  12.570  13.819
17063W        W83472   0.479  41.988   3.651
17064W        W83473  18.653  20.623   0.840
17065W        W83474  40.095  42.438   1.963
17066W        W83475  42.789  20.805   2.880
17067W        W83476   7.628   7.227   4.056
17068W        W83477  41.777   3.247  10.080
17069W        W83478  20.854  23.008   4.199
17070W        W83479   6.242  32.027  14.770
17071W        W83480  40.840  34.853   3.588
17072W        W83481  11.198   5.788  13.909
17073W        W83482  44.549  43.324  12.871
17074W        W83483   3.556   4.427  13.855
17075W        W83484  31.729  24.947   4.150
17076W        W83485   8.988   4.791   1.886
17077W        W83486   2.425  16.440  14.913
17078W        W83487   5.125  18.595   1.691
17079W        W83488  29.123   5.758  11.018
17080W        W83489  19.269  25.602  10.510
17081W        W83490  18.658  25.991   2.460
17082W        W83491  29.643   4.905  11.143
17083W        W83492  28.374  33.002  13.388
17084W        W83493   0.499  17.713   4.078
17085W        W83494  38.645   2.253   4.587
17086W        W83495  11.409  30.452   2.213
17087W        W83496  13.589  14.136  11.658
17088W        W83497  23.936  26.516   0.901
17089W        W83498   6.458   0.673   2.420
17090W        W83499  14.205   0.503   2.454
17091W        W83500   8.105  32.272  12.558
17092W        W83501  21.893  27.057  12.763
17093W        W83502  19.519  33.098   1.381
17094W        W83503  17.061  42.896  13.557
17095W        W83504  14.324  10.168  13.832
17096W        W83505   7.721  10.659   3.779
17097W        W83506  25.660  23.270  14.383
17098W        W83507  39.602  27.702   4.268
17099W        W83508  42.891  34.474   0.598
17100W        W83509  27.574   8.726   4.043
17101W        W83510  17.293  23.783  11.668
17102W        W83511  38.391  18.623  10.324
17103W        W83512   9.202   7.227   3.314
17104W        W83513  13.812   6.829  11.609
17105W        W83514   6.797  13.071  10.769
17106W        W83515  27.907   7.035  10.138
17107W        W83516  42.282   0.738   4.124
17108W        W83517  20.629   3.602  14.127
17109W        W83518  12.627  10.072   1.281
17110W        W83519  11.019   8.594  11.532
17111W        W83520  27.922  18.538   4.569
17112W        W83521  31.227  14.627   2.975
17113W        W83522  16.046  32.825   2.135
17114W        W83523   7.713  15.854  10.559
17115W        W83524  30.766  37.849   0.896
17116W        W83525  10.929  30.522  11.508
17117W        W83526   5.178   9.876   3.742
17118W        W83527  11.563  11.002  12.032
17119W        W83528   6.703   5.115  11.369
17120W        W83529  26.637  32.104  11.578
17121W        W83530   1.482   0.505   0.385
17122W        W83531  42.356  27.162   3.832
17123W        W83532  16.737  16.690   3.655
17124W        W83533  31.895  36.665  14.386
17125W        W83534  26.270   9.268   3.731
17126W        W83535  44.346   3.215  13.803
17127W        W83536  32.093   9.280  10.703
17128W        W83537  32.934   9.637   3.827
17129W        W83538  20.481  30.777  14.071
17130W        W83539  31.662  28.840   1.385
17131W        W83540   0.769  15.179  14.820
17132W        W83541  13.653  40.458   0.182
17133W        W83542  26.556   3.981  12.347
17134W        W83543  30.667  22.694   0.439
17135W        W83544  12.922  40.865  11.131
17136W        W83545   8.795   9.100   1.771
17137W        W83546  27.609   3.861   0.762
17138W        W83547  33.059  13.570  13.551
17139W        W83548  27.987  19.588   3.656
17140W        W83549  13.062  42.407   3.227
17141W        W83550  25.126   9.396  12.905
17142W        W83551   9.699  34.843  13.063
17143W        W83552   3.429  10.252  13.408
17144W        W83553  17.681  27.170   3.687
17145W        W83554  12.402   3.943  12.890
17146W        W83555  39.308  17.187  11.504
17147W        W83556  22.648  31.725  14.362
17148W        W83557  16.695  20.055   1.350
17149W        W83558   1.981  16.481  12.500
17150W        W83559   1.447  18.311  13.819
17151W        W83560   2.880  32.534   3.354
17152W        W83561  21.072  10.135  10.505
17153W        W83562   5.787  40.283  11.127
17154W        W83563  24.184  37.013   1.334
17155W        W83564  40.755   1.014   4.146
17156W        W83565  22.832  17.192  12.070
17157W        W83566   4.838  23.732   3.452
17158W        W83567  39.880  27.531  11.993
17159W        W83568  10.719  21.277   3.044
17160W        W83569  17.567  28.452  12.741
17161W        W83570  26.194  20.135   0.820
17162W        W83571  23.549  33.493  12.407
17163W        W83572   0.967  39.224  11.981
17164W        W83573  25.463   9.915  13.419
17165W        W83574  11.195   8.656  13.888
17166W        W83575  36.849  29.936  14.927
17167W        W83576   5.616  33.560  11.112
17168W        W83577  14.085  33.376   4.693
17169W        W83578  28.996  20.257  10.616
17170W        W83579   9.769  11.790  13.673
17171W        W83580   3.926   4.463  10.958
17172W        W83581   2.672  27.720   4.604
17173W        W83582   4.471  15.807  11.216
17174W        W83583   4.959  23.467   1.546
17175W        W83584  41.879  19.097   3.239
17176W        W83585  19.934  10.181  12.157
17177W        W83586   3.875   4.228   4.429
17178W        W83587  36.113  36.298   3.202
17179W        W83588  32.794  44.300  13.435
17180W        W83589  11.567   4.699   2.330
17181W        W83590  32.772  29.473  10.583
17182W        W83591   3.835  28.005  11.165
17183W        W83592  40.231  24.605   4.081
17184W        W83593   3.124  31.696  12.535
17185W        W83594  18.658  19.256   0.738
17186W        W83595  32.969   4.107   3.996
17187W        W83596  35.752   6.664  12.051
17188W        W83597   2.255  14.537   3.208
17189W        W83598  39.324  38.984  14.722
17190W        W83599  21.403   0.992   1.241
17191W        W83600  19.760  16.246   0.783
17192W        W83601  15.506  40.616  11.607
17193W        W83602  10.284  15.766  11.985
17194W        W83603  29.066  15.911  13.545
17195W        W83604  30.545   1.988   3.003
17196W        W83605  42.965  39.040   1.484
17197W        W83606  25.699  44.783  14.229
17198W        W83607  10.798  11.058  14.996
17199W        W83608  25.749  24.150   0.316
17200W        W83609  13.396  34.217  11.445
17201W        W83610  43.971   3.834  13.653
17202W        W83611  19.548   4.577   0.981
17203W        W83612  34.023  41.045   1.387
17204W        W83613  17.480  38.852   1.297
17205W        W83614  38.049   8.135  11.211
17206W        W83615  16.245   0.521   0.685
17207W        W83616  34.034  35.922  13.302
17208W        W83617  30.473   9.027   5.089
17209W        W83618  43.084  11.793  12.005
17210W        W83619  33.277   6.384  13.413
17211W        W83620   8.319  32.425   0.051
17212W        W83621  13.693  40.747  13.085
17213W        W83622   3.228  17.096  12.479
17214W        W83623  28.012  14.338  14.862
17215W        W83624  22.685  37.167   3.693
17216W        W83625  36.436  43.502  11.175
17217W        W83626  26.322  26.306  11.639
17218W        W83627  26.880  17.865   3.331
17219W        W83628  26.098  21.156  10.371
17220W        W83629  12.168  19.009  14.447
17221W        W83630  37.154   1.180   4.472
17222W        W83631  32.245  36.259   0.203
17223W        W83632  17.091   8.700   3.245
17224W        W83633  23.932  29.458  12.037
17225W        W83634  27.553  14.110  14.873
17226W        W83635  14.261   7.883  13.948
17227W        W83636   3.690  31.650  12.520
17228W        W83637   4.410  12.330   0.424
17229W        W83638  34.295  34.989  11.996
17230W        W83639  18.143  40.901   1.286
17231W        W83640   7.743  42.939  13.383
17232W        W83641   3.765  38.929  10.238
17233W        W83642   9.857  35.975   3.045
17234W        W83643  24.800  30.565  13.600
17235W        W83644  16.099  36.581   0.437
17236W        W83645  12.173  41.734   0.447
17237W        W83646  29.402  21.815   2.504
17238W        W83647  30.470  11.610  11.529
17239W        W83648  34.133   7.768   2.175
17240W        W83649  40.024  15.348   3.705
17241W        W83650   7.937   5.363  13.841
17242W        W83651  19.713  10.313   1.194
17243W        W83652  34.891  41.771   4.584
17244W        W83653  13.848  29.281   2.688
17245W        W83654   6.828  35.097  11.557
17246W        W83655   1.390   5.373   1.789
17247W        W83656  41.194  18.022   1.368
17248W        W83657  39.267   6.797  13.556
17249W        W83658  36.699  42.816  14.600
17250W        W83659  10.605  13.435   4.731
17251W        W83660  10.148  27.495  10.765
17252W        W83661  18.315  40.508  13.891
17253W        W83662  12.345   9.159  12.224
17254W        W83663  34.268  21.974   4.458
17255W        W83664  32.172  31.659   2.759
17256W        W83665  14.650  23.227   2.621
17257W        W83666  27.440   8.729  13.541
17258W        W83667   8.663  14.570  10.718
17259W        W83668  31.969  16.125  10.284
17260W        W83669  31.228   1.437   2.670
17261W        W83670  17.208   2.353   4.133
17262W        W83671  14.896  36.057   9.766
17263W        W83672  34.101  26.445   4.572
17264W        W83673   3.991  42.389   2.176
17265W        W83674  16.496  36.454  11.668
17266W        W83675  19.210  29.273   2.780
17267W        W83676  26.070   7.287   2.170
17268W        W83677  12.247  23.961  13.135
17269W        W83678  42.357  37.097   3.291
17270W        W83679  35.961  33.648  12.236
17271W        W83680  25.089  11.328  10.259
17272W        W83681  21.300  33.200  13.423
17273W        W83682  25.416   6.257   0.451
17274W        W83683  34.352  35.597  14.988
17275W        W83684  29.523  23.548   4.131
17276W        W83685  17.019   8.784   4.161
17277W        W83686  40.907  42.054  14.639
17278W        W83687  14.068  22.155   0.842
17279W        W83688  38.152  42.531   1.760
17280W        W83689  42.703   7.246   5.581
17281W        W83690  32.278  22.855   2.163
17282W        W83691   0.834  25.538  13.088
17283W        W83692  17.098  26.103   0.331
17284W        W83693  15.438  27.725   3.366
17285W        W83694  21.544  41.249   4.681
17286W        W83695  25.768  13.792   4.131
17287W        W83696  21.717   2.094   4.495
17288W        W83697   3.720  12.430   3.650
17289W        W83698  33.963  30.907  12.894
17290W        W83699  11.957  23.196   0.812
17291W        W83700  15.569   9.635  10.326
17292W        W83701  19.206  21.930   1.747
17293W        W83702  28.476  43.745   0.361
17294W        W83703  22.644  44.369  14.991
17295W        W83704  13.581  39.876   1.762
17296W        W83705  22.242  10.123   1.946
17297W        W83706  43.663  11.886  10.223
17298W        W83707   5.906   5.329   0.926
17299W        W83708  39.612  28.499   4.594
17300W        W83709  18.769  44.447  14.474
17301W        W83710  38.650   7.738  14.375
17302W        W83711  17.616  42.286   2.158
17303W        W83712  25.016  39.183  13.150
17304W        W83713  44.469  16.768   2.744
17305W        W83714  22.486  42.425  11.281
17306W        W83715  35.266   5.993  14.844
17307W        W83716  43.831   6.614   0.361
17308W        W83717  31.100  37.423   1.645
17309W        W83718  42.342  20.534   2.853
17310W        W83719  15.323  22.967  14.070
17311W        W83720  24.459   9.692   0.141
17312W        W83721  39.387  29.015   0.914
17313W        W83722  32.085  31.950   2.319
17314W        W83723   6.730  36.764   2.330
17315W        W83724  23.900  14.480   0.515
17316W        W83725  22.695  19.101   1.258
17317W        W83726  30.664  33.230   2.618
17318W        W83727  32.378  22.340  11.596
17319W        W83728  23.315   2.471   1.591
17320W        W83729  25.036  29.177  11.599
17321W        W83730   0.933   8.651   2.705
17322W        W83731  38.952  41.895  13.396
17323W        W83732  26.804  27.681   3.824
17324W        W83733  17.788  26.831  11.068
17325W        W83734  33.588  28.097   3.706
17326W        W83735   3.007  20.774   0.554
17327W        W83736  42.885  28.068  13.418
17328W        W83737  21.804  36.842  14.008
17329W        W83738  13.172  23.108   4.596
17330W        W83739  33.334  32.108  11.086
17331W        W83740  35.286  44.378  10.979
17332W        W83741  14.261  29.473  14.336
17333W        W83742   7.919  17.572  11.116
17334W        W83743  14.637   2.031   2.384
17335W        W83744   6.373  21.809   3.421
17336W        W83745  31.665  18.660  12.323
17337W        W83746  27.239  35.836   0.323
17338W        W83747  42.911  41.443  11.329
17339W        W83748  44.331  19.253   0.974
17340W        W83749  12.979   7.879   3.620
17341W        W83750  17.178  24.226  10.760
17342W        W83751  29.870   9.640  13.831
17343W        W83752  25.586  15.602  12.460
17344W        W83753  11.664  44.833   0.785
17345W        W83754  21.127  31.475  12.318
17346W        W83755  38.373   6.464   0.807
17347W        W83756  15.208   2.376  11.219
17348W        W83757  15.902  40.534   5.272
17349W        W83758  25.674  40.584  11.542
17350W        W83759  32.562  21.968  13.458
17351W        W83760  24.998  10.579   1.969
17352W        W83761   9.397  10.507  12.270
17353W        W83762  30.366  15.261   1.253
17354W        W83763  30.100  40.407   2.783
17355W        W83764  34.035  23.680   3.702
17356W        W83765  43.470  16.487  13.023
17357W        W83766  11.198   7.795   2.755
17358W        W83767  40.580  27.819  13.963
17359W        W83768  26.081  18.272   4.276
17360W        W83769  28.235   0.407   3.238
17361W        W83770  21.433  38.845  12.672
17362W        W83771   3.846  26.075   2.952
17363W        W83772   7.300  35.839  13.548
17364W        W83773  38.386  33.012  14.332
17365W        W83774  39.122  34.521   2.501
17366W        W83775  18.205  35.147   0.749
17367W        W83776  42.245   0.470  10.427
17368W        W83777  35.966  34.755  13.494
17369W        W83778  35.858  38.541  12.512
17370W        W83779  29.168  29.703  10.837
17371W        W83780  18.032   1.760  10.916
17372W        W83781  44.411  13.211  10.532
17373W        W83782  34.328   1.393   2.865
17374W        W83783  29.001  15.589   2.739
17375W        W83784   8.639   2.235   3.267
17376W        W83785  44.136  22.583  12.559
17377W        W83786  22.104   7.881   1.297
17378W        W83787  10.718  32.253   1.373
17379W        W83788  40.047  27.758  11.505
17380W        W83789  37.128  36.916  13.978
17381W        W83790  19.132  35.086  11.988
17382W        W83791  25.504  20.281  10.301
17383W        W83792  30.951  22.148   2.332
17384W        W83793  27.426  44.536   1.908
17385W        W83794  27.118  36.281  11.731
17386W        W83795  31.590  32.182   0.948
17387W        W83796  13.313  42.843  14.466
17388W        W83797   1.326  29.810  14.038
17389W        W83798  27.494  27.922  14.987
17390W        W83799  15.336  27.824   1.921
17391W        W83800  13.624  27.893   3.768
17392W        W83801  16.212   9.409  14.918
17393W        W83802   3.338  23.743  12.918
17394W        W83803  38.010   1.006  12.742
17395W        W83804  29.234  14.758   1.248
17396W        W83805  24.242  32.586   0.697
17397W        W83806   6.679  41.060   4.187
17398W        W83807  25.888  22.046   3.813
17399W        W83808  13.253  42.674  11.444
17400W        W83809  39.361   1.700   4.595
17401W        W83810  14.928  11.094   1.436
17402W        W83811  21.752  24.084  14.023
17403W        W83812   0.754   3.999  11.199
17404W        W83813  44.979  15.804  10.586
17405W        W83814  21.284  26.573  13.456
17406W        W83815  22.469   5.125   3.189
17407W        W83816  24.559  32.031   3.415
17408W        W83817   0.547   1.812  10.992
17409W        W83818  13.692  41.628   0.989
17410W        W83819   1.720  43.495  13.527
17411W        W83820  35.149  32.638   3.736
17412W        W83821  17.807  40.238   1.757
17413W        W83822  33.536  37.037   2.379
17414W        W83823  42.056  33.449  11.221
17415W        W83824   1.853  26.713   3.921
17416W        W83825  40.680  37.587  14.314
17417W        W83826  18.499  32.537  14.330
17418W        W83827  44.717  32.029  11.866
17419W        W83828   5.663  23.047  12.983
17420W        W83829  38.569  42.449   0.220
17421W        W83830  29.225   7.235  12.868
17422W        W83831  37.294  41.416  13.312
17423W        W83832  22.682  38.380   1.225
17424W        W83833  23.023  18.883   3.879
17425W        W83834  14.807  20.450  12.815
17426W        W83835  23.585  34.313  13.243
17427W        W83836  25.917  39.037   0.297
17428W        W83837   7.800   9.439  14.101
17429W        W83838   3.314  13.865   2.975
17430W        W83839   3.414  12.056   2.839
17431W        W83840  29.877   2.289   0.046
17432W        W83841  44.716   8.333  10.361
17433W        W83842  42.972  24.686  11.594
17434W        W83843  38.682   9.407  11.249
17435W        W83844  21.712  39.455   3.245
17436W        W83845  10.661  40.094  10.841
17437W        W83846  19.055  11.167  14.844
17438W        W83847   9.400  16.068   3.904
17439W        W83848  28.503  34.239   4.655
17440W        W83849  38.528  15.776   1.009
17441W        W83850  44.526  10.303   2.562
17442W        W83851  26.907  34.829  12.977
17443W        W83852  19.173   7.959  14.899
17444W        W83853  20.194  31.079  13.439
17445W        W83854  28.196   1.276  12.446
17446W        W83855   9.989  38.931  13.481
17447W        W83856  29.526  44.648  10.519
17448W        W83857   1.012  24.127   3.709
17449W        W83858  20.032  33.500   1.609
17450W        W83859  18.143  12.087  12.515
17451W        W83860   5.785  26.212   3.003
17452W        W83861  10.270  26.784  13.015
17453W        W83862   2.961   4.942  12.421
17454W        W83863  17.777  35.017  11.703
17455W        W83864  27.448  43.549   4.494
17456W        W83865  29.378   8.688  13.614
17457W        W83866  26.000  15.151   1.715
17458W        W83867  17.149  11.746  13.054
17459W        W83868  19.734  26.911  11.973
17460W        W83869  35.697  42.974  13.534
17461W        W83870  11.917   8.498  10.247
17462W        W83871  37.959  27.153   0.915
17463W        W83872  32.036  10.583   1.654
17464W        W83873  44.796  35.588   0.321
17465W        W83874  19.669   8.028  12.557
17466W        W83875   1.944  35.906   0.310
17467W        W83876   7.293  28.821   1.494
17468W        W83877  15.255  17.236   0.752
17469W        W83878  25.908  30.872  13.999
17470W        W83879  27.063  34.269  13.907
17471W        W83880  25.527  31.452  14.209
17472W        W83881  15.058  30.250  12.493
17473W        W83882  31.453   7.691  10.465
17474W        W83883  34.310  37.695  10.812
17475W        W83884   8.268  35.580  13.884
17476W        W83885  11.442  32.485  12.277
17477W        W83886  40.290  30.701   4.529
17478W        W83887   0.226  41.863   1.246
17479W        W83888  39.145  40.585   4.551
17480W        W83889  21.253  39.736   4.142
17481W        W83890   5.408  29.262   0.472
17482W        W83891  36.035  16.883  11.589
17483W        W83892  30.630  43.544   3.223
17484W        W83893   8.284   4.517  12.127
17485W        W83894  38.823  11.218  10.616
17486W        W83895  34.811  41.893   0.822
17487W        W83896  24.536  28.404  10.803
17488W        W83897   0.872   1.024  14.945
17489W        W83898   4.928  23.052  10.778
17490W        W83899  34.334   0.397   0.360
17491W        W83900  10.596  39.392  12.381
17492W        W83901  23.192   1.352  11.181
17493W        W83902  11.231  30.768   3.722
17494W        W83903  44.497  36.640  12.480
17495W        W83904  37.465   9.010   3.302
17496W        W83905  18.342   0.596   1.982
17497W        W83906  42.002  44.944   3.062
17498W        W83907  24.209  30.496   4.633
17499W        W83908  31.554   8.240  13.741
17500W        W83909  24.211  23.317  12.926
17501W        W83910  13.821   4.231   3.618
17502W        W83911  14.711  31.244  11.767
17503W        W83912  32.434  43.587   4.563
17504W        W83913  38.094   8.667  14.496
17505W        W83914  26.698  14.357  14.310
17506W        W83915   3.174  22.220   2.683
17507W        W83916  34.071   1.742   3.780
17508W        W83917  11.836  29.939   3.659
17509W        W83918  37.954  19.736   3.880
17510W        W83919  40.582  44.273  14.067
17511W        W83920  15.619  10.142   0.969
17512W        W83921  33.904   5.503   3.828
17513W        W83922  28.144  39.302  12.439
17514W        W83923  23.716  40.005  13.520
17515W        W83924  30.628  20.299  13.408
17516W        W83925  38.819  17.583   4.048
17517W        W83926  27.239   1.450   1.633
17518W        W83927  11.723  24.873   2.682
17519W        W83928   4.021   6.299   1.650
17520W        W83929  30.029  40.978   0.476
17521W        W83930  39.993  22.665  13.750
17522W        W83931  27.803  29.998   4.760
17523W        W83932  13.637  44.946  11.525
17524W        W83933  44.104  14.551   0.458
17525W        W83934  10.141   2.373  11.617
17526W        W83935  22.553  23.092   2.928
17527W        W83936  23.858  34.629  14.493
17528W        W83937  18.270  25.215  11.273
17529W        W83938  32.232  33.074  13.041
17530W        W83939  26.914  21.682   0.458
17531W        W83940  15.268   1.495   0.452
17532W        W83941  35.659   5.486   1.854
17533W        W83942   9.013  28.906   1.021
17534W        W83943  44.433  14.296   2.203
17535W        W83944   5.969  12.731   3.292
17536W        W83945  29.584  13.801  14.063
17537W        W83946  39.571  25.722   2.728
17538W        W83947  43.264  13.010  14.558
17539W        W83948  29.872  32.573   1.816
17540W        W83949  29.379  28.607  10.687
17541W        W83950   1.259  12.832  11.036
17542W        W83951  39.013  15.212   4.714
17543W        W83952  26.013  31.606  13.489
17544W        W83953  40.786  28.951  13.036
17545W        W83954  13.554  43.889   2.180
17546W        W83955  29.159  41.016  11.287
17547W        W83956  21.378   8.170  10.832
17548W        W83957  32.795  23.308   1.351
17549W        W83958   5.051  21.862   4.910
17550W        W83959   7.560  23.606  12.826
17551W        W83960  41.022  10.072  12.134
17552W        W83961  32.561  26.160   3.243
17553W        W83962   9.694  36.952  11.107
17554W        W83963   8.935  29.098  11.581
17555W        W83964   8.248   8.428   1.883
17556W        W83965  14.654  10.893  12.410
17557W        W83966  14.232  26.248   2.757
17558W        W83967  21.080  41.098   2.855
17559W        W83968  29.602  14.025   4.450
17560W        W83969  43.727   1.187  12.982
17561W        W83970   6.678  32.415   2.281
17562W        W83971  34.552  18.016  11.252
17563W        W83972  14.138  36.066   0.692
17564W        W83973  30.488   7.320   4.904
17565W        W83974   8.134  39.558   3.560
17566W        W83975  23.533  20.081  12.611
17567W        W83976   0.352  36.109  12.493
17568W        W83977  17.875  13.148   4.122
17569W        W83978  32.476  38.374   3.636
17570W        W83979  25.277  18.990   4.123
17571W        W83980   4.047   2.263   1.395
17572W        W83981  29.579  32.630  11.152
17573W        W83982  42.988  36.559   4.866
17574W        W83983  16.807  24.904   0.972
17575W        W83984  34.446  22.466   4.233
17576W        W83985  38.358   6.189  11.594
17577W        W83986  25.983  26.491   2.758
17578W        W83987  43.393  44.619   3.282
17579W        W83988  42.799  17.085  12.345
17580W        W83989  22.668  25.140  14.250
17581W        W83990  25.401   1.680   5.044
17582W        W83991  31.655   5.352   2.076
17583W        W83992  37.525  34.961   0.381
17584W        W83993  33.081   0.216  11.096
17585W        W83994  11.307   9.614  13.955
17586W        W83995   9.728  16.544   0.801
17587W        W83996   4.770  24.503   1.665
17588W        W83997  25.152  27.432  12.849
17589W        W83998  27.586  29.148  11.057
17590W        W83999  16.103  33.668  10.165
17591W        W84000  31.179  39.515   2.293
17592W        W84001  40.324  39.951   2.692
17593W        W84002  12.260  32.359   3.630
17594W        W84003  20.610  30.366  14.401
17595W        W84004   8.795  38.312   2.720
17596W        W84005  23.251   0.810  14.474
17597W        W84006  43.164  21.656   3.214
17598W        W84007   7.178  23.636   2.908
17599W        W84008  16.101   7.203   0.912
17600W        W84009  18.141  15.032   4.625
17601W        W84010   9.848  21.724  14.441
17602W        W84011  42.415  38.591   3.342
17603W        W84012   0.916  29.905  13.346
17604W        W84013   6.220  29.921   4.895
17605W        W84014  31.432  43.446   2.661
17606W        W84015  29.496  25.661   1.578
17607W        W84016  40.737  26.679   4.219
17608W        W84017  17.180  42.405   4.186
17609W        W84018  22.677  17.683  12.114
17610W        W84019  37.345   5.355   2.285
17611W        W84020  12.468  14.083   0.008
17612W        W84021  13.589  14.326  13.417
17613W        W84022  16.502   4.793  11.603
17614W        W84023  24.952  37.637   2.245
17615W        W84024  37.000   1.728  14.130
17616W        W84025  19.660   5.948   0.880
17617W        W84026  19.925  30.843  12.470
17618W        W84027  18.646  15.586  10.075
17619W        W84028  29.020  30.443   0.515
17620W        W84029  10.114  40.422  10.963
17621W        W84030  27.011  25.589   1.809
17622W        W84031  36.700  22.002  14.355
17623W        W84032   6.606  41.591  11.646
17624W        W84033  27.249  31.708  13.059
17625W        W84034  15.751  30.448   3.215
17626W        W84035  44.410  20.797  10.872
17627W        W84036  40.838  43.020  10.536
17628W        W84037  10.224  33.065  14.243
17629W        W84038  19.658  39.471   0.455
17630W        W84039   5.832   7.888  13.215
17631W        W84040  16.614  33.643   0.814
17632W        W84041  35.369  39.069   1.151
17633W        W84042  44.675  39.876  13.865
17634W        W84043  40.835  34.240  11.669
17635W        W84044  40.386   4.054   2.572
17636W        W84045  14.268  18.113   0.300
17637W        W84046  13.157  27.880   0.936
17638W        W84047  36.251  20.468   1.097
17639W        W84048  12.157  44.893  13.040
17640W        W84049  23.614   9.274   2.363
17641W        W84050  43.548  44.574  14.923
17642W        W84051  14.123  31.860  13.895
17643W        W84052  13.126  19.374   0.951
17644W        W84053  15.750  37.542  14.532
17645W        W84054   6.459  43.815   1.787
17646W        W84055  42.088  39.983  10.580
17647W        W84056   5.696   5.994   2.331
17648W        W84057  32.217  26.713  10.372
17649W        W84058   6.732  15.654  10.636
17650W        W84059  15.096  26.403   4.102
17651W        W84060  40.770  32.878  11.649
17652W        W84061  25.515  13.393  13.975
17653W        W84062  40.699   1.056   0.872
17654W        W84063  12.855  12.616   3.118
17655W        W84064  30.351  21.185  14.974
17656W        W84065  39.502  12.139   1.233
17657W        W84066  39.039   6.930  14.425
17658W        W84067   3.865  34.342   2.801
17659W        W84068  23.408  18.717   3.581
17660W        W84069  29.752  40.001  13.797
17661W        W84070  12.686  43.298  10.438
17662W        W84071  39.569  11.311   4.276
17663W        W84072   0.356  10.425  12.466
17664W        W84073  23.240  16.043  10.656
17665W        W84074  15.953  15.174  11.364
17666W        W84075  10.587  34.599  12.837
17667W        W84076   6.880  12.244   1.265
17668W        W84077   5.171  33.348  13.895
17669W        W84078  22.222   1.652  12.599
17670W        W84079  27.702   6.868   5.333
17671W        W84080   5.011  16.867  11.689
17672W        W84081  40.404   1.430  10.631
17673W        W84082  35.367  28.959   2.115
17674W        W84083   1.034  43.773   4.452
17675W        W84084   5.846  26.217   1.211
17676W        W84085  15.779   4.965  13.323
17677W        W84086  38.055  11.548  11.813
17678W        W84087   3.220  15.093   3.933
17679W        W84088  12.537   4.707   3.766
17680W        W84089  11.670   7.692  13.067
17681W        W84090  19.358  40.669  11.182
17682W        W84091  11.376  35.074   3.631
17683W        W84092  32.109  13.801  14.775
17684W        W84093   9.991  32.620  14.430
17685W        W84094   7.251   0.400   1.389
17686W        W84095  24.561   5.612  14.308
17687W        W84096  33.083   4.997  11.986
17688W        W84097  19.040  30.236  13.396
17689W        W84098   5.342  31.464   1.400
17690W        W84099  42.741  24.524   3.744
17691W        W84100  32.577   9.601  11.077
17692W        W84101  12.080   5.583   2.250
17693W        W84102  35.022  17.759   3.966
17694W        W84103  12.864  28.243   2.702
17695W        W84104  11.443  26.638   3.671
17696W        W84105  12.342   7.236   2.731
17697W        W84106  34.431  16.210  12.454
17698W        W84107  25.601  33.161   0.451
17699W        W84108  15.824  32.300   0.413
17700W        W84109  30.178  39.259   0.292
17701W        W84110  12.300   5.687   1.286
17702W        W84111  40.457  40.621  11.110
17703W        W84112   8.784  28.536   2.911
17704W        W84113  33.636  29.967   1.397
17705W        W84114  24.548  13.657  10.760
17706W        W84115   7.771  10.160   2.303
17707W        W84116  13.839  28.494  12.066
17708W        W84117  38.333   3.925  10.576
17709W        W84118  26.585   4.642   5.090
17710W        W84119   2.923   8.835  13.444
17711W        W84120  22.292  26.690  14.349
17712W        W84121  15.378  14.099   4.452
17713W        W84122  35.114   7.722   3.380
17714W        W84123  36.108  17.782   4.591
17715W        W84124   5.631  17.221   1.878
17716W        W84125  28.447  22.258  12.990
17717W        W84126  42.999   6.454   5.240
17718W        W84127  26.889  44.491  12.524
17719W        W84128  37.509   8.120   4.565
17720W        W84129  36.426  41.062   0.348
17721W        W84130  33.217   5.899   2.811
17722W        W84131  34.500  19.518   0.020
17723W        W84132   5.349   7.213   2.324
17724W        W84133  13.226  23.515   2.794
17725W        W84134  29.074   1.353   0.972
17726W        W84135  19.380   8.622   2.842
17727W        W84136  26.647  22.731   1.134
17728W        W84137   9.399  13.095  11.351
17729W        W84138   4.980  34.585   1.290
17730W        W84139  14.298  23.953   2.150
17731W        W84140  27.692  10.671  13.840
17732W        W84141  14.763  29.591  11.007
17733W        W84142  10.876   3.162  14.526
17734W        W84143   5.611  23.067   3.603
17735W        W84144  41.966  33.963  10.995
17736W        W84145  16.841  39.326   3.647
17737W        W84146  26.945  42.352   0.366
17738W        W84147  32.564  36.830  12.402
17739W        W84148  34.186  44.472   4.753
17740W        W84149  39.434   4.803   3.638
17741W        W84150  32.245  19.117   1.703
17742W        W84151  40.518  30.658   1.903
17743W        W84152  14.746  40.920  12.580
17744W        W84153  13.639  28.466  13.836
17745W        W84154  38.324   7.816   0.300
17746W        W84155  18.327  12.359   2.754
17747W        W84156   2.819  19.261   4.579
17748W        W84157  16.116  34.401   1.883
17749W        W84158  27.400  34.081  12.066
17750W        W84159  14.093  25.187  11.067
17751W        W84160  27.153  15.451   2.788
17752W        W84161  19.585  32.834   4.581
17753W        W84162   9.222  32.034  10.904
17754W        W84163   3.889  36.349   1.462
17755W        W84164   3.462  36.834  12.842
17756W        W84165  38.303  36.074   3.755
17757W        W84166  38.505  28.910  13.278
17758W        W84167  27.720  12.930   0.653
17759W        W84168  36.539  43.568   0.743
17760W        W84169  27.162   1.424   2.961
17761W        W84170   9.798   2.826   0.898
17762W        W84171  32.371  12.423   2.874
17763W        W84172  30.052  19.948   2.872
17764W        W84173  28.556  16.915   2.316
17765W        W84174   6.804  26.092   3.613
17766W        W84175  10.447  44.382  13.893
17767W        W84176  16.383  23.304   0.766
17768W        W84177  18.010  19.716  13.996
17769W        W84178  13.287  18.529   1.382
17770W        W84179  39.197  25.483  12.987
17771W        W84180  16.396  39.570  14.223
17772W        W84181  39.541   5.356   4.538
17773W        W84182  21.694   7.940  14.980
17774W        W84183   3.741  44.758   3.551
17775W        W84184  14.601  44.925  11.618
17776W        W84185  24.218   8.178   4.635
17777W        W84186   0.945  27.664   0.763
17778W        W84187   8.453  21.190  10.957
17779W        W84188  44.977  42.363   0.438
17780W        W84189  44.899  24.955   0.041
17781W        W84190   4.826  17.813   4.043
17782W        W84191  22.618   2.192   3.238
17783W        W84192   8.110   9.456  10.646
17784W        W84193  17.902  41.803   3.829
17785W        W84194  11.037  41.318  11.354
17786W        W84195  44.214  31.193   0.346
17787W        W84196  12.949  24.403  12.806
17788W        W84197  20.481   9.175   2.717
17789W        W84198  26.112  41.312  11.248
17790W        W84199  10.732  28.377   1.384
17791W        W84200  17.251  22.305  11.615
17792W        W84201  23.474   0.498   3.005
17793W        W84202  38.042   0.254   2.161
17794W        W84203  37.990   4.239  14.195
17795W        W84204  37.014  41.954  13.100
17796W        W84205  26.537  15.667   1.646
17797W        W84206  32.150  26.608   4.077
17798W        W84207   9.783  22.415  12.097
17799W        W84208  34.981  37.210   3.668
17800W        W84209  13.650  25.268  12.528
17801W        W84210  44.263  25.520   2.820
17802W        W84211  25.578  29.557  13.091
17803W        W84212  43.260   6.682  12.398
17804W        W84213  26.507   1.526   1.153
17805W        W84214   3.487  33.028   2.301
17806W        W84215  39.463  24.177   2.286
17807W        W84216   6.415  40.145  11.479
17808W        W84217  35.162   2.716  10.833
17809W        W84218  39.525  35.906  12.510
17810W        W84219  10.349  22.478  10.882
17811W        W84220  26.783  12.308  11.138
17812W        W84221  39.554  32.305   5.024
17813W        W84222  32.068  25.609   4.529
17814W        W84223   5.547  35.029  12.126
17815W        W84224  31.701   0.954   0.225
17816W        W84225  27.205  31.403   1.701
17817W        W84226  36.767  39.377   3.234
17818W        W84227  41.539  26.492  13.343
17819W        W84228  33.256  29.469  12.672
17820W        W84229  19.308  25.572  11.890
17821W        W84230  21.027   9.930  13.331
17822W        W84231   9.259  44.084  12.824
17823W        W84232  29.137  28.762   1.889
17824W        W84233  10.842   0.684  13.754
17825W        W84234  12.243  28.058   4.602
17826W        W84235  12.872  21.321   5.479
17827W        W84236  18.271   1.174   1.782
17828W        W84237   0.509  26.454   3.689
17829W        W84238  17.448  23.587  10.435
17830W        W84239  21.074  41.741   4.854
17831W        W84240   5.680  14.134   0.705
17832W        W84241   8.202  26.464  14.369
17833W        W84242   6.670   5.252   2.118
17834W        W84243  44.549  19.766   1.564
17835W        W84244  20.260  34.949  12.110
17836W        W84245  42.239  13.921   0.905
17837W        W84246  12.255  44.397  12.797
17838W        W84247  12.134   5.630  11.542
17839W        W84248  19.655  37.839  10.730
17840W        W84249  30.936  33.820  12.807
17841W        W84250  30.901  18.115   2.154
17842W        W84251  13.334  28.642   3.496
17843W        W84252  25.784  15.752   2.337
17844W        W84253  33.362   5.441  12.055
17845W        W84254  10.349  34.129   1.429
17846W        W84255  39.790  26.144   2.517
17847W        W84256  26.276  27.869   4.531
17848W        W84257  22.472  27.229   0.398
17849W        W84258   2.420   6.361  12.430
17850W        W84259   9.777   0.143  10.312
17851W        W84260  31.546  25.063  12.586
17852W        W84261  25.889  22.715  12.490
17853W        W84262  10.716  35.692  10.304
17854W        W84263  27.638  28.421   1.313
17855W        W84264  26.990  14.168  10.758
17856W        W84265  41.992  24.076  13.650
17857W        W84266  28.956  38.823   0.428
17858W        W84267  21.522  40.564  13.230
17859W        W84268   1.579  31.900   0.484
17860W        W84269  34.185  28.118  14.882
17861W        W84270  21.071  15.378  11.408
17862W        W84271   9.926  25.027  14.357
17863W        W84272  30.024  29.237  12.735
17864W        W84273  39.548  26.552  10.853
17865W        W84274   7.376  10.358  13.020
17866W        W84275  31.058  10.598  11.165
17867W        W84276  38.159  34.719   3.262
17868W        W84277  31.549  27.696   0.348
17869W        W84278  15.596  39.821   4.239
17870W        W84279   5.129  36.465  13.349
17871W        W84280  17.108  24.674  11.852
17872W        W84281   6.338   7.402   0.325
17873W        W84282  16.317   8.842   0.452
17874W        W84283  22.241  35.923   4.570
17875W        W84284   4.959  12.632   3.133
17876W        W84285  11.832  13.749   3.201
17877W        W84286  34.295  10.638   0.267
17878W        W84287  26.965  41.551  12.921
17879W        W84288  21.634  24.708   1.185
17880W        W84289  21.057  26.168   2.697
17881W        W84290   0.391  12.215   4.353
17882W        W84291  27.981   9.313   0.379
17883W        W84292  20.772   6.269   0.917
17884W        W84293  34.182  37.435  12.010
17885W        W84294   6.185  43.842   4.512
17886W        W84295   0.911  38.849  14.057
17887W        W84296  11.450  33.684  13.074
17888W        W84297  37.083  37.431  14.740
17889W        W84298  44.507  42.956  11.617
17890W        W84299  26.013  32.878  10.725
17891W        W84300  21.433  26.927  14.374
17892W        W84301  22.533  42.817   3.679
17893W        W84302  20.355  42.192  13.445
17894W        W84303  13.219  11.324  11.704
17895W        W84304  26.554  12.299   0.059
17896W        W84305  32.456   8.763  12.481
17897W        W84306   2.847  36.183   0.017
17898W        W84307  34.511  23.365   3.773
17899W        W84308  34.104  38.092  13.486
17900W        W84309  40.539  20.826   4.883
17901W        W84310  27.694  32.534  10.934
17902W        W84311  29.505  27.444  13.437
17903W        W84312  27.202  20.049   3.599
17904W        W84313   5.507  20.068   1.694
17905W        W84314  41.501  19.139  13.611
17906W        W84315  33.549  42.487   0.980
17907W        W84316  26.238  13.003  11.119
17908W        W84317  17.820  25.045   2.211
17909W        W84318  37.337  25.515  11.303
17910W        W84319  20.537  19.602   4.428
17911W        W84320  14.790  22.605  10.767
17912W        W84321  15.823  14.869   0.442
17913W        W84322   0.457  16.159  11.240
17914W        W84323   7.002  27.984   0.628
17915W        W84324  38.945  40.676  11.469
17916W        W84325  40.708  11.194   2.934
17917W        W84326  42.223  30.047   3.654
17918W        W84327  13.234  23.631  12.505
17919W        W84328  16.176  17.797   1.817
17920W        W84329  19.158  42.786  14.501
17921W        W84330  36.298  35.918   1.293
17922W        W84331  41.838   5.075   2.152
17923W        W84332  28.099  32.113   4.157
17924W        W84333  21.615   1.672   4.834
17925W        W84334   4.800   2.524  12.052
17926W        W84335  18.906  25.521   1.347
17927W        W84336  39.403  35.713  11.003
17928W        W84337  13.427  19.766   4.072
17929W        W84338   8.863  23.654   3.529
17930W        W84339   1.748   3.023  13.830
17931W        W84340  17.051  31.459  12.882
17932W        W84341  32.672  38.652   1.877
17933W        W84342   1.141  37.339  10.591
17934W        W84343  32.507  17.216  12.493
17935W        W84344   1.896  13.155   1.388
17936W        W84345  21.493   4.185  13.889
17937W        W84346  10.611  43.277  13.016
17938W        W84347  18.987  28.493   3.267
17939W        W84348  44.367  29.613  14.969
17940W        W84349  28.656  42.272  11.196
17941W        W84350   2.937  28.730   0.846
17942W        W84351  36.510  42.399  11.559
17943W        W84352   7.153  14.513  11.102
17944W        W84353  44.400  11.349   1.695
17945W        W84354  14.260   8.170  11.175
17946W        W84355  33.006  31.519  12.157
17947W        W84356  16.532  29.070   3.249
17948W        W84357  12.212   9.143  14.796
17949W        W84358  23.996  43.519  12.739
17950W        W84359  41.291  21.062   1.779
17951W        W84360  11.318  19.078   1.972
17952W        W84361   7.258  35.619   3.380
17953W        W84362  34.332  25.722  12.682
17954W        W84363  15.794  23.133  11.559
17955W        W84364  20.578  12.222  10.669
17956W        W84365   7.854   7.633  12.494
17957W        W84366  37.250   3.211   2.743
17958W        W84367  38.031  11.392  11.214
17959W        W84368  32.463  34.309  14.352
17960W        W84369   1.970   9.891  12.580
17961W        W84370  36.555  24.477  14.493
17962W        W84371   1.862  35.470  14.987
17963W        W84372   5.807  31.465   0.293
17964W        W84373  19.631  27.708   1.876
17965W        W84374  44.280   4.314  12.559
17966W        W84375   1.967  14.157   2.337
17967W        W84376  26.967   2.442  11.532
17968W        W84377  27.088  33.138   2.352
17969W        W84378  16.657  12.867  13.510
17970W        W84379   4.059  27.048   0.506
17971W        W84380  15.664  22.548   2.627
17972W        W84381  30.530  26.247  13.908
17973W        W84382  15.795   1.704   3.496
17974W        W84383  25.230  31.705   4.223
17975W        W84384  35.031  12.315  11.296
17976W        W84385  14.309  27.210   3.149
17977W        W84386   7.993  25.204  13.829
17978W        W84387   5.256  19.524  14.867
17979W        W84388   5.339  37.833  14.646
17980W        W84389  13.103  30.674  11.209
17981W        W84390  20.627   3.775  14.617
17982W        W84391  17.025  10.952  11.623
17983W        W84392   7.201  34.428  11.158
17984W        W84393  41.862  19.612  12.102
17985W        W84394  33.364   3.292  12.572
17986W        W84395  18.639  39.998   2.283
17987W        W84396  17.070  25.697  13.869
17988W        W84397   9.616  17.817  12.366
17989W        W84398  35.309   1.221   1.175
17990W        W84399  14.628  28.583  12.512
17991W        W84400   4.189  43.222   4.059
17992W        W84401  36.826  19.169   0.485
17993W        W84402  18.864  37.642  13.108
17994W        W84403  10.151  22.363   4.532
17995W        W84404  22.560  10.410  10.603
17996W        W84405  23.215   2.878  12.341
17997W        W84406   8.760   7.670  12.401
17998W        W84407   8.157  30.353   3.227
17999W        W84408  33.867  43.759   1.637
18000W        W84409  20.847  16.825  14.926
18001W        W84410  34.382  24.833  13.167
18002W        W84411  16.656  11.409  12.086
18003W        W84412   4.803  35.979   1.071
18004W        W84413  26.957  44.885   0.004
18005W        W84414  35.986  11.490  13.017
18006W        W84415  21.842   9.725   1.328
18007W        W84416  21.708  24.577  10.764
18008W        W84417  42.076  43.458  13.960
18009W        W84418  41.906  12.367  12.345
18010W        W84419   8.762  13.344   1.371
18011W        W84420  35.540   0.676  14.439
18012W        W84421  12.230   7.944   0.648
18013W        W84422  34.381   9.946   4.220
18014W        W84423   3.263   5.345   0.861
18015W        W84424   9.289  31.032  12.963
18016W        W84425  20.209  15.346   1.319
18017W        W84426   1.164   1.318   0.872
18018W        W84427  38.872  31.482   0.856
18019W        W84428   4.753  44.489  13.520
18020W        W84429  29.511  35.343  10.777
18021W        W84430   4.819  43.561   2.370
18022W        W84431   0.893   9.976  13.171
18023W        W84432  23.503  31.193  10.659
18024W        W84433  13.198  33.842  10.663
18025W        W84434  41.298  17.597   2.756
18026W        W84435  18.222   3.569  11.925
18027W        W84436   4.100  23.215  11.536
18028W        W84437  11.197  25.055   0.148
18029W        W84438  10.701  20.295  11.133
18030W        W84439  18.550   1.303  13.713
18031W        W84440  10.293   0.268  14.382
18032W        W84441  44.782  14.652   2.699
18033W        W84442  38.101  37.931  14.961
18034W        W84443  28.127  21.757  12.921
18035W        W84444  13.070  16.174  12.138
18036W        W84445  41.742  18.210   4.539
18037W        W84446   8.649  30.630   2.770
18038W        W84447  24.883  24.668   4.654
18039W        W84448  34.456   4.687  13.056
18040W        W84449  18.683  33.372  10.714
18041W        W84450  42.723  42.891  10.412
18042W        W84451  26.546  28.911   4.026
18043W        W84452  18.529  26.500  13.425
18044W        W84453  36.904  25.592   3.265
18045W        W84454  14.299  14.870   1.975
18046W        W84455  32.862  35.911   3.349
18047W        W84456  31.128  12.279  12.961
18048W        W84457  27.351  42.741   0.344
18049W        W84458  13.172   2.931   2.679
18050W        W84459   4.493  34.166  14.501
18051W        W84460  39.927   2.450   2.720
18052W        W84461  20.671  28.305   4.983
18053W        W84462  35.644  31.775  12.183
18054W        W84463   1.736   9.635  11.101
18055W        W84464  35.860  31.995  14.282
18056W        W84465  44.197  28.415   0.726
18057W        W84466   3.825  33.045   0.269
18058W        W84467   7.853  35.812  10.391
18059W        W84468  43.912   3.226  11.163
18060W        W84469  24.681  39.384  10.286
18061W        W84470   1.705  27.546   3.322
18062W        W84471   7.345  32.194   5.193
18063W        W84472  15.290  41.312  10.863
18064W        W84473   2.991  44.880  10.621
18065W        W84474  29.669  15.580   2.348
18066W        W84475  36.535  38.887  13.390
18067W        W84476  38.362  32.378   0.799
18068W        W84477  30.902  17.679   3.460
18069W        W84478  12.666  12.139   1.215
18070W        W84479  26.218  16.746   3.643
18071W        W84480   6.997   6.277   2.258
18072W        W84481  34.400   2.078   3.580
18073W        W84482  15.880  33.965  13.363
18074W        W84483  42.229  39.801  11.041
18075W        W84484   4.185  21.148   3.591
18076W        W84485  22.497  25.537  11.971
18077W        W84486   9.798  18.297  10.452
18078W        W84487   2.601  31.449   2.113
18079W        W84488  28.966   1.961  12.965
18080W        W84489  15.271  13.915   3.438
18081W        W84490  38.883   4.906  12.842
18082W        W84491  31.025   2.231  14.446
18083W        W84492  11.542  14.552  13.656
18084W        W84493  23.237   0.417  14.944
18085W        W84494  26.774  42.410  11.046
18086W        W84495  23.789  16.798   1.868
18087W        W84496  42.667   0.331  13.413
18088W        W84497  31.352   7.546   2.684
18089W        W84498  10.200  26.925  12.476
18090W        W84499  22.714  18.048   2.329
18091W        W84500  30.908  24.212   0.858
18092W        W84501  39.958  37.001  14.399
18093W        W84502  38.436  27.014   2.171
18094W        W84503  11.862   2.412   2.196
18095W        W84504   1.224  43.595  14.399
18096W        W84505  39.508  34.226  11.520
18097W        W84506  26.094  15.864   4.931
18098W        W84507  32.184   0.988  13.461
18099W        W84508  35.193  15.764  11.665
18100W        W84509  37.555   8.349  11.475
18101W        W84510  28.588   8.552   3.118
18102W        W84511  15.713   3.611   5.039
18103W        W84512  22.925  20.553   4.128
18104W        W84513  15.251  34.993   0.709
18105W        W84514  34.983   8.772  12.578
18106W        W84515  28.169  23.128   1.938
18107W        W84516  19.469  43.300  11.823
18108W        W84517  22.998  18.190  13.976
18109W        W84518  12.572  22.752   2.680
18110W        W84519  30.717  36.558  13.826
18111W        W84520  27.385  37.778  14.141
18112W        W84521   0.148  28.423   2.891
18113W        W84522  25.942  13.966   3.314
18114W        W84523  43.042  26.803   2.365
18115W        W84524  33.535  17.795   3.795
18116W        W84525  31.978  39.945  12.067
18117W        W84526  30.664  12.515  14.912
18118W        W84527  41.501  26.515   3.043
18119W        W84528  29.599  24.752   4.124
18120W        W84529  25.209  42.065   0.318
18121W        W84530  29.890  36.761  11.255
18122W        W84531   8.662  23.467   3.076
18123W        W84532  24.238   8.297  12.928
18124W        W84533   3.077   7.641  11.384
18125W        W84534   2.408  13.147  14.413
18126W        W84535  33.495  22.546  12.488
18127W        W84536  18.051  23.120  14.816
18128W        W84537  34.526  34.624  12.854
18129W        W84538  29.041   9.173   1.778
18130W        W84539  44.371   0.761   3.522
18131W        W84540  30.221  24.616  14.370
18132W        W84541  38.468  44.742  10.684
18133W        W84542  44.192  12.700  14.806
18134W        W84543  38.514  39.959   1.296
18135W        W84544  18.147  20.493   4.436
18136W        W84545  26.686  20.425  10.568
18137W        W84546  26.563  21.694  14.456
18138W        W84547  33.937   0.729  10.589
18139W        W84548  27.690  41.164  12.537
18140W        W84549  17.853  18.953  11.594
18141W        W84550  41.873   6.336   0.554
18142W        W84551  22.469   4.375  12.713
18143W        W84552   6.611  28.825   0.696
18144W        W84553  38.947   7.401   3.842
18145W        W84554   1.115  11.815  10.167
18146W        W84555  23.448  29.627   3.186
18147W        W84556  42.857  42.418   2.585
18148W        W84557  38.736  11.736   1.242
18149W        W84558   8.959  17.986  14.438
18150W        W84559  36.008  12.902  14.368
18151W        W84560  30.121  38.323  10.771
18152W        W84561  11.900  21.738   3.282
18153W        W84562   5.185   9.422  11.754
18154W        W84563  38.578  23.366   1.732
18155W        W84564  17.333  24.213   0.652
18156W        W84565  44.484  27.184   2.940
18157W        W84566  14.931   2.246   1.064
18158W        W84567   3.941  27.463  13.996
18159W        W84568  23.787  42.849  10.997
18160W        W84569  27.696   6.603   2.502
18161W        W84570  13.341   4.999   2.773
18162W        W84571  33.902   7.894   1.714
18163W        W84572  32.496  28.599  14.541
18164W        W84573   8.885  33.586   2.132
18165W        W84574   8.718   4.937   3.712
18166W        W84575  26.102   9.283  14.472
18167W        W84576  39.845  11.398   1.501
18168W        W84577   5.469  13.456   3.458
18169W        W84578  25.582  26.116   3.889
18170W        W84579  44.974  40.859   4.443
18171W        W84580  31.644   4.824  13.327
18172W        W84581  12.591  10.858   1.918
18173W        W84582  22.547  14.320  12.084
18174W        W84583  23.259  18.005  14.432
18175W        W84584  41.543   7.446  13.454
18176W        W84585  27.990  12.677   3.321
18177W        W84586   1.837  33.812   4.736
18178W        W84587  19.093  16.411   4.170
18179W        W84588  43.484   7.660   3.193
18180W        W84589  34.491  12.891   2.349
18181W        W84590   8.966  15.126   2.257
18182W        W84591  18.058  31.204   0.839
18183W        W84592   5.883  20.195   2.029
18184W        W84593  36.321   1.736   3.794
18185W        W84594   0.783  24.256  14.391
18186W        W84595  44.185  19.535  14.767
18187W        W84596  39.405  17.733   3.331
18188W        W84597  22.492  17.557  14.529
18189W        W84598  15.801  13.674  13.847
18190W        W84599  19.086  36.545   3.282
18191W        W84600  32.164  23.715  13.387
18192W        W84601  34.773  23.312  14.296
18193W        W84602  20.565  13.355  10.893
18194W        W84603  31.569  44.500  10.475
18195W        W84604  39.953  44.832  14.350
18196W        W84605  18.668  11.185  11.177
18197W        W84606  41.526  19.272   2.280
18198W        W84607   1.855  31.585  13.982
18199W        W84608  44.925   2.928  14.512
18200W        W84609  12.620  30.006   0.751
18201W        W84610  13.490  20.541   1.216
18202W        W84611  26.113  20.532   3.046
18203W        W84612  38.996  16.795   2.618
18204W        W84613  26.202  28.039  14.956
18205W        W84614  21.280  22.479   2.681
18206W        W84615  22.149  32.447   4.187
18207W        W84616  16.160  24.917  12.082
18208W        W84617  21.533  32.924   2.850
18209W        W84618  36.942  41.254   4.314
18210W        W84619   8.524  24.829  12.106
18211W        W84620  39.201  41.570  12.583
18212W        W84621   1.794  15.542   2.014
18213W        W84622  15.648  10.675   2.790
18214W        W84623  19.394  37.705  11.304
18215W        W84624  41.867  20.209  13.504
18216W        W84625  17.606  44.503   1.970
18217W        W84626  20.755  10.312  14.157
18218W        W84627   1.936  12.313  11.384
18219W        W84628  13.907   8.786   3.626
18220W        W84629   0.028  25.709   3.284
18221W        W84630  27.688  28.699  11.362
18222W        W84631  22.546  21.259  10.968
18223W        W84632  22.687  19.594   1.442
18224W        W84633   6.730   3.576  14.579
18225W        W84634  25.406  26.643  12.742
18226W        W84635  42.753  13.651   1.928
18227W        W84636  15.881   5.827  11.623
18228W        W84637  24.810  27.454   1.350
18229W        W84638  38.443  24.744  13.115
18230W        W84639   2.762   8.934   1.768
18231W        W84640  37.797   6.764   4.583
18232W        W84641  11.409  23.965  11.757
18233W        W84642  18.241  38.985  13.946
18234W        W84643  12.291  42.372   3.669
18235W        W84644  42.601  23.589  11.596
18236W        W84645  26.343   4.342   1.066
18237W        W84646   1.750  28.922   2.669
18238W        W84647   1.339  44.094  14.358
18239W        W84648  32.318   0.320  14.941
18240W        W84649  10.776  27.514  12.873
18241W        W84650   7.216  38.516  12.893
18242W        W84651  11.857   6.697   2.985
18243W        W84652   7.140  34.672  14.437
18244W        W84653  32.136  41.017  12.105
18245W        W84654  11.288  16.906  12.547
18246W        W84655  22.773  42.929  11.996
18247W        W84656  12.639  43.568  12.976
18248W        W84657  43.349  16.037   0.019
18249W        W84658  11.549   2.984   5.309
18250W        W84659  30.406  32.239   2.639
18251W        W84660  38.575  19.117  11.955
18252W        W84661   3.953  43.748   3.165
18253W        W84662   4.456   1.712  14.913
18254W        W84663   1.278  36.120  14.517
18255W        W84664  25.943   1.907  14.269
18256W        W84665   2.814  27.017   0.163
18257W        W84666  26.656  24.749  11.048
18258W        W84667  22.413  20.700   3.314
18259W        W84668  25.664   4.540  11.754
18260W        W84669  32.488  11.782  14.869
18261W        W84670   0.914   1.829   0.387
18262W        W84671  42.945  33.525   2.849
18263W        W84672  36.643   7.693   3.956
18264W        W84673  42.719   5.694   2.141
18265W        W84674   3.614  24.166  12.782
18266W        W84675  16.286  11.552  12.442
18267W        W84676  17.052   0.960   2.083
18268W        W84677  27.565  35.579  14.401
18269W        W84678  40.701   3.922  14.049
18270W        W84679   0.950  22.708  12.427
18271W        W84680  37.423  38.086  11.277
18272W        W84681  39.724  32.645   2.313
18273W        W84682  33.443  13.285   3.608
18274W        W84683  44.446  20.692  12.873
18275W        W84684  42.158   4.827  11.601
18276W        W84685  17.838  23.332   3.791
18277W        W84686   5.507  42.152  12.197
18278W        W84687  43.376  14.277  11.580
18279W        W84688  40.022  23.958   0.185
18280W        W84689   0.809   4.543  14.393
18281W        W84690  13.240   3.185  12.877
18282W        W84691   3.452  40.353  10.739
18283W        W84692  11.681  34.662  14.805
18284W        W84693   3.251   5.173  11.287
18285W        W84694  24.420  33.692   4.188
18286W        W84695  19.530   6.677  12.113
18287W        W84696  32.650  27.126   2.312
18288W        W84697   8.664  34.542  12.495
18289W        W84698  26.535  41.562  11.097
18290W        W84699  41.482  35.348  14.447
18291W        W84700  38.012   3.801   2.670
18292W        W84701   7.910  40.252  11.616
18293W        W84702   7.538   5.818   1.726
18294W        W84703   1.033   7.204  12.915
18295W        W84704  44.794  39.363   4.159
18296W        W84705  11.665  18.564   2.935
18297W        W84706  11.065   1.954   3.248
18298W        W84707  41.402  43.997   2.156
18299W        W84708  24.906  18.323   1.569
18300W        W84709  13.693   5.095   3.631
18301W        W84710  14.781  20.559  13.450
18302W        W84711  27.689   6.680  11.499
18303W        W84712   8.493   7.417   0.248
18304W        W84713  33.093  20.528   3.825
18305W        W84714  15.172  42.933   4.033
18306W        W84715  34.577  18.994   0.008
18307W        W84716  33.690  32.665  12.848
18308W        W84717  16.378   4.485  11.096
18309W        W84718   1.950  18.111  10.485
18310W        W84719  19.693  13.556  10.752
18311W        W84720  31.083  35.382  14.487
18312W        W84721  25.238   5.596   2.215
18313W        W84722  35.370  24.374  12.979
18314W        W84723  26.752  16.166   4.654
18315W        W84724   8.936   5.662  11.125
18316W        W84725  19.003  42.460   1.770
18317W        W84726  14.736  27.250  12.470
18318W        W84727  40.761   2.001   4.934
18319W        W84728  24.283  39.873   1.367
18320W        W84729   8.574   0.337   5.524
18321W        W84730  25.677  28.178  13.293
18322W        W84731  42.941  36.993   4.068
18323W        W84732   6.828   5.306   0.747
18324W        W84733  31.998  19.106   2.209
18325W        W84734  24.193  25.729   3.712
18326W        W84735   1.054  15.391   0.402
18327W        W84736  18.873  41.528   4.979
18328W        W84737  23.174   4.264  14.068
18329W        W84738  23.031   9.896  10.710
18330W        W84739  41.520  41.310  10.718
18331W        W84740  19.480   5.658  10.738
18332W        W84741   4.386  23.247   4.137
18333W        W84742  14.888  25.588   2.324
18334W        W84743  14.719  24.371  13.864
18335W        W84744  37.139  26.609   0.081
18336W        W84745  17.402  41.918   3.628
18337W        W84746  29.237   1.509  10.556
18338W        W84747  42.567  22.117  13.437
18339W        W84748   4.132   5.025  11.696
18340W        W84749  36.390  31.001   0.860
18341W        W84750  31.243   2.117  13.942
18342W        W84751   6.360   7.167  11.939
18343W        W84752  13.403   9.300   4.706
18344W        W84753   7.273  22.262   0.502
18345W        W84754  18.557   5.813   2.425
18346W        W84755  10.262  23.738   1.970
18347W        W84756   8.422   9.852   2.363
18348W        W84757  39.396  15.680  13.596
18349W        W84758   5.257  33.863  13.873
18350W        W84759   5.405  19.861  13.034
18351W        W84760  38.883  25.848  12.495
18352W        W84761  39.961  23.728   2.950
18353W        W84762  26.004   7.131  13.379
18354W        W84763  17.119  30.209  12.148
18355W        W84764  22.208  22.530   5.044
18356W        W84765  38.500  19.746   2.205
18357W        W84766   6.503  32.636   1.309
18358W        W84767   0.762   9.728   2.755
18359W        W84768  35.069  34.742   3.988
18360W        W84769  36.346  11.791   0.977
18361W        W84770  14.254  19.142   4.199
18362W        W84771   8.229  36.041  14.953
18363W        W84772  44.294   8.805  13.463
18364W        W84773   0.811   3.071  10.746
18365W        W84774  18.056   2.662  10.820
18366W        W84775   7.442  23.166   4.089
18367W        W84776  43.971  31.116  12.552
18368W        W84777  27.648  14.663  12.054
18369W        W84778  11.900  28.486  13.841
18370W        W84779  37.031  39.287   1.676
18371W        W84780  34.052   6.765  11.366
18372W        W84781  30.237   0.595  11.137
18373W        W84782  38.846  41.363   4.035
18374W        W84783   5.045   8.827  12.405
18375W        W84784   0.011  27.522   0.603
18376W        W84785   5.435  43.391  13.027
18377W        W84786  15.613   8.852   3.200
18378W        W84787  25.988  21.112   3.681
18379W        W84788  38.077  34.349  12.284
18380W        W84789  12.955  43.253  12.762
18381W        W84790   0.905  13.174  10.576
18382W        W84791   7.778   6.349   4.114
18383W        W84792  13.346   5.739  13.913
18384W        W84793  32.370   9.710   1.462
18385W        W84794  19.350   2.318   1.639
18386W        W84795  42.824  44.900  12.376
18387W        W84796   8.230  32.935  11.184
18388W        W84797  39.572  38.960  10.621
18389W        W84798  11.737  19.519  11.232
18390W        W84799  26.719   3.364  11.719
18391W        W84800  11.701  33.613  12.643
18392W        W84801   9.915   5.814   1.974
18393W        W84802  13.326  31.580   2.308
18394W        W84803  30.854  41.425   1.793
18395W        W84804   5.595  43.819  13.696
18396W        W84805   4.247   1.927  13.440
18397W        W84806  28.736   0.249   3.193
18398W        W84807  21.710  19.211  14.078
18399W        W84808  33.006   1.843  14.788
18400W        W84809  37.617  36.506   2.832
18401W        W84810  16.497  10.280   2.830
18402W        W84811   7.203  26.503   4.594
18403W        W84812  27.310  38.034  11.507
18404W        W84813  35.169  29.199  12.903
18405W        W84814  37.036  27.141  12.202
18406W        W84815   5.668   9.807   3.604
18407W        W84816   6.398  26.066  13.950
18408W        W84817   9.768  21.307   3.671
18409W        W84818  30.217  39.895  11.611
18410W        W84819  20.677   9.935   1.936
18411W        W84820  10.551  36.617  13.355
18412W        W84821  41.879  40.450   3.338
18413W        W84822  23.559  27.409  10.674
18414W        W84823  15.622  23.256  13.718
18415W        W84824  10.794   7.955   2.469
18416W        W84825  25.962  27.881  10.575
18417W        W84826  43.723  19.632  12.251
18418W        W84827  14.292  41.029   4.560
18419W        W84828  33.684  43.384   4.867
18420W        W84829  33.356  39.134   2.446
18421W        W84830  27.301   1.323  10.618
18422W        W84831   3.545  36.606  11.092
18423W        W84832  43.311  25.545   1.754
18424W        W84833   5.515   6.487   1.237
18425W        W84834  34.339  42.836  10.828
18426W        W84835   0.374  19.403   3.328
18427W        W84836  12.288  24.093  12.094
18428W        W84837  41.891  22.019  14.522
18429W        W84838   5.323  42.369   3.645
18430W        W84839   5.526   9.250  14.732
18431W        W84840  36.659  42.974  11.209
18432W        W84841  36.612  38.346   4.203
18433W        W84842  31.134  11.615  11.082
18434W        W84843  35.874  10.145  11.922
18435W        W84844  21.299  27.154   3.332
18436W        W84845   0.313  13.148   1.197
18437W        W84846   7.921   1.519   4.188
18438W        W84847  11.650  38.955   2.357
18439W        W84848  23.737  34.447  12.740
18440W        W84849  35.911  38.917   2.955
18441W        W84850  12.783  41.001   4.710
18442W        W84851  19.487  15.782  14.616
18443W        W84852  44.988   9.094   3.041
18444W        W84853   2.874   5.901   1.824
18445W        W84854  26.049   7.879  11.478
18446W        W84855   7.917  11.161  12.801
18447W        W84856  26.560  34.421   5.070
18448W        W84857  40.177  12.838   2.161
18449W        W84858  26.143  26.652   4.055
18450W        W84859   2.768  17.094  11.628
18451W        W84860  23.800  28.042   0.961
18452W        W84861  35.087  21.080  12.205
18453W        W84862  40.734  24.436   0.883
18454W        W84863  35.499  10.927  11.753
18455W        W84864  27.525  41.420   2.139
18456W        W84865   4.146  41.298  13.372
18457W        W84866  36.190  36.279  11.180
18458W        W84867  17.211  21.985  14.561
18459W        W84868   4.609  25.431  14.989
18460W        W84869  32.818  19.616   4.677
18461W        W84870  17.214  29.777   3.398
18462W        W84871  36.353  35.481  14.934
18463W        W84872  43.916  27.865  13.814
18464W        W84873  39.500   0.842  13.221
18465W        W84874  41.931  40.378   2.173
18466W        W84875  19.696  25.967   1.222
18467W        W84876   6.233  40.878  13.972
18468W        W84877  20.526  14.118  11.660
18469W        W84878  16.957  22.063   0.318
18470W        W84879  17.331  33.687   0.267
18471W        W84880   7.418   3.590   1.766
18472W        W84881   7.044  41.012  13.118
18473W        W84882  13.372  27.000   1.719
18474W        W84883  33.416  27.008  13.340
18475W        W84884  36.606  21.588   1.882
18476W        W84885  33.947  24.706  11.992
18477W        W84886  22.561  31.007   1.746
18478W        W84887  18.917   5.438  10.905
18479W        W84888  16.853  39.314  14.057
18480W        W84889   2.371  43.422   0.662
18481W        W84890  33.467   9.395  13.004
18482W        W84891  17.172  34.797  10.588
18483W        W84892   3.382  15.796   5.185
18484W        W84893  41.830  13.256   3.268
18485W        W84894   9.951  12.678  14.790
18486W        W84895  11.283  21.120   3.819
18487W        W84896  17.239   7.777   4.626
18488W        W84897  13.013  12.630   0.258
18489W        W84898  42.732  43.831   2.249
18490W        W84899  28.901  16.779  14.533
18491W        W84900  44.213  30.774   1.348
18492W        W84901  16.326  43.236   1.495
18493W        W84902  38.022  42.105   2.794
18494W        W84903  23.040  27.225  11.119
18495W        W84904  15.279  32.135  13.182
18496W        W84905  31.589  20.710   3.692
18497W        W84906  43.386   5.168   2.248
18498W        W84907  12.257   3.727   3.326
18499W        W84908   5.470  42.932   0.010
18500W        W84909  37.447  34.686   1.386
18501W        W84910  16.226  27.695   1.805
18502W        W84911  43.745  31.944  11.606
18503W        W84912  18.512  12.706   3.538
18504W        W84913  22.176  35.652  10.821
18505W        W84914  16.540  30.709   1.778
18506W        W84915   7.297  15.070  14.734
18507W        W84916  42.253  31.574  12.915
18508W        W84917  25.155  44.267  13.966
18509W        W84918  16.800  13.091  13.058
18510W        W84919  30.494  19.284   3.568
18511W        W84920   7.131  25.622   2.415
18512W        W84921  42.671   3.224   0.289
18513W        W84922  10.385  25.876   1.238
18514W        W84923  14.157   5.468  14.915
18515W        W84924  27.173  33.387  12.081
18516W        W84925  32.882  40.408  12.186
18517W        W84926  24.014   7.872  11.933
18518W        W84927  39.001  37.432  14.231
18519W        W84928  13.340  38.344  14.197
18520W        W84929  42.708  26.199  14.265
18521W        W84930  18.085  24.514  13.788
18522W        W84931  18.477  38.934  11.445
18523W        W84932   2.649  38.297   1.755
18524W        W84933   9.384  33.158   2.753
18525W        W84934  44.880  10.172   0.235
18526W        W84935  28.660  42.958   2.197
18527W        W84936  15.568  19.904  10.722
18528W        W84937  14.640  13.055  13.090
18529W        W84938  39.871   2.125  10.794
18530W        W84939  25.011  35.433   4.294
18531W        W84940  34.484  12.215  12.004
18532W        W84941  19.694  26.054   0.375
18533W        W84942  32.087  30.555   4.798
18534W        W84943  44.415  40.755  13.915
18535W        W84944  24.418  35.774  13.787
18536W        W84945  37.983  14.261  14.022
18537W        W84946  23.059  29.131   1.732
18538W        W84947   7.222  10.131   4.618
18539W        W84948  16.483   5.292  14.528
18540W        W84949  26.819  32.687   4.890
18541W        W84950  43.834   9.912  13.555
18542W        W84951  20.284  40.589  10.839
18543W        W84952  24.311   6.400  14.019
18544W        W84953  42.868   2.595   1.551
18545W        W84954   9.274  32.374   0.317
18546W        W84955  15.983  25.221  13.940
18547W        W84956   9.633  26.481   3.992
18548W        W84957   0.961  15.446  12.853
18549W        W84958  40.205   5.025  14.902
18550W        W84959  17.320  40.392  14.363
18551W        W84960  17.716  40.746   4.725
18552W        W84961   9.665  31.951  14.558
18553W        W84962   6.491  36.918   4.818
18554W        W84963  32.754  21.022  11.952
18555W        W84964  19.383  28.438   4.758
18556W        W84965  44.540  25.855   3.758
18557W        W84966  17.226  30.907   0.779
18558W        W84967  31.568  19.040  10.646
18559W        W84968   1.244  39.818  11.166
18560W        W84969   5.894  20.419   1.247
18561W        W84970  11.916  10.866   4.264
18562W        W84971  13.596  16.970   3.259
18563W        W84972  23.590   2.581  13.515
18564W        W84973  31.112  30.985   3.130
18565W        W84974  40.793   6.357   3.750
18566W        W84975  30.845   5.387  10.990
18567W        W84976  10.538  11.730   2.798
18568W        W84977  44.355  36.176  11.659
18569W        W84978  29.071  19.069  10.872
18570W        W84979  22.679  27.031   3.875
18571W        W84980  41.775  21.695   2.076
18572W        W84981  25.830  12.661  11.167
18573W        W84982  37.128   8.386  14.776
18574W        W84983  36.857  28.992   3.167
18575W        W84984  36.873  28.875  13.574
18576W        W84985  33.668  26.672   4.718
18577W        W84986   2.433   6.426   1.781
18578W        W84987   7.725  27.904   4.441
18579W        W84988  36.833   4.296  11.174
18580W        W84989  17.116  39.806  11.940
18581W        W84990  32.557  22.849  12.362
18582W        W84991  23.747  17.499  13.927
18583W        W84992  37.381  44.098   2.266
18584W        W84993  43.198  13.029  13.582
18585W        W84994   2.342  37.863   0.509
18586W        W84995  11.695  44.155   4.526
18587W        W84996  23.549   4.728  13.392
18588W        W84997  29.699  39.890  11.634
18589W        W84998   2.785   8.434  10.477
18590W        W84999  17.472  27.720   4.559
18591W        W85000  31.590   9.664  13.808
18592W        W85001  15.216  11.858  14.972
18593W        W85002   4.819  13.214   4.814
18594W        W85003  27.190  22.132  13.554
18595W        W85004  28.369  43.384   0.793
18596W        W85005   5.975   7.421   4.688
18597W        W85006   2.902   4.670   0.384
18598W        W85007  30.132   2.876   3.187
18599W        W85008  39.426   6.380   4.651
18600W        W85009  33.919  15.274  12.469
18601W        W85010  13.783  18.299   0.320
18602W        W85011  10.958   4.283  12.483
18603W        W85012   4.372  11.177   3.962
18604W        W85013  13.558  23.764  11.386
18605W        W85014   6.793  28.675  13.811
18606W        W85015  44.958   4.877  14.491
18607W        W85016   7.138  13.079  12.508
18608W        W85017   1.284  24.098   3.197
18609W        W85018  11.682  35.339  12.524
18610W        W85019   7.347  23.701   3.391
18611W        W85020  25.484  26.466   1.873
18612W        W85021  35.576  18.585  10.636
18613W        W85022  42.760  41.448  11.806
18614W        W85023  10.037   1.953   4.517
18615W        W85024  21.959   9.889  11.596
18616W        W85025   8.273  20.671  13.503
18617W        W85026  29.899  24.874   0.802
18618W        W85027  41.454   0.759   2.635
18619W        W85028  19.576  11.759  12.994
18620W        W85029  40.234  17.320   3.621
18621W        W85030  25.175   1.973  14.002
18622W        W85031  29.732   9.078   4.121
18623W        W85032   9.794  38.885   3.900
18624W        W85033  37.995  30.392   5.062
18625W        W85034  13.070  33.979   1.715
18626W        W85035  34.674  42.016  10.686
18627W        W85036   8.112  27.959   2.326
18628W        W85037  44.307   5.211  14.930
18629W        W85038  38.886  13.224   4.489
18630W        W85039  38.317  11.623   3.506
18631W        W85040   1.721  26.633  13.801
18632W        W85041  14.900  14.442  13.471
18633W        W85042  44.542  34.195  13.827
18634W        W85043  21.712  10.324  11.705
18635W        W85044  27.603  32.081   0.458
18636W        W85045  23.733  33.655   2.837
18637W        W85046  40.950   0.295   3.215
18638W        W85047  26.298  33.127  11.109
18639W        W85048  17.023  27.058   1.549
18640W        W85049  29.007  35.723   1.762
18641W        W85050  43.787  39.590  13.513
18642W        W85051  25.481  19.060   0.445
18643W        W85052   5.143  20.820  12.870
18644W        W85053  33.502  42.047  12.332
18645W        W85054  27.984   2.660   3.865
18646W        W85055  37.145  10.271  13.393
18647W        W85056  39.590  27.545  11.457
18648W        W85057  25.504   5.380   0.450
18649W        W85058   5.340  23.953  14.544
18650W        W85059  30.076  31.942   3.271
18651W        W85060  22.544  32.666  14.945
18652W        W85061  34.086   3.330   0.442
18653W        W85062  10.722  33.632  10.212
18654W        W85063  39.841  32.613   2.817
18655W        W85064   0.056   6.275   0.660
18656W        W85065  23.540  40.448   0.249
18657W        W85066  38.561   9.691  12.589
18658W        W85067   2.281   3.040  13.735
18659W        W85068  39.376  21.554  10.520
18660W        W85069  31.438  40.979   3.621
18661W        W85070  42.789   4.730  11.980
18662W        W85071  23.870   5.156   4.928
18663W        W85072  23.546   4.940   1.436
18664W        W85073  32.433  18.489  13.827
18665W        W85074  22.843  14.053   4.964
18666W        W85075  12.791  19.090  12.340
18667W        W85076  31.600   7.311  13.431
18668W        W85077  30.120  11.700   0.232
18669W        W85078  36.433  29.110  12.304
18670W        W85079  10.321  17.464  11.131
18671W        W85080   3.978  11.264  12.346
18672W        W85081  15.672  20.146   5.059
18673W        W85082  30.588   3.862  14.069
18674W        W85083  14.266  34.114   0.669
18675W        W85084  21.270  21.947   0.322
18676W        W85085  40.083   8.241  11.142
18677W        W85086  31.395   9.704   1.442
18678W        W85087  23.143  26.244  11.407
18679W        W85088  40.038  27.129   2.856
18680W        W85089  37.346  31.768   4.101
18681W        W85090   7.349  20.507   2.313
18682W        W85091   3.909  40.883  12.360
18683W        W85092   5.446  35.357   1.266
18684W        W85093  22.709  25.066  13.750
18685W        W85094  11.205   2.706  11.198
18686W        W85095  30.349  27.949  14.735
18687W        W85096  24.076  22.317  13.918
18688W        W85097  19.222  43.616  14.113
18689W        W85098  24.494  26.103   5.330
18690W        W85099  32.557  18.639   4.141
18691W        W85100   1.167  26.488  12.477
18692W        W85101  26.036  37.899   4.396
18693W        W85102   7.224  37.953   4.864
18694W        W85103  30.736   7.343  10.665
18695W        W85104  21.250  24.411  10.585
18696W        W85105  33.920  36.069  11.265
18697W        W85106  32.878  12.658  12.450
18698W        W85107  12.342  35.559   4.190
18699W        W85108  34.862  24.602  13.024
18700W        W85109   6.389  18.364   2.841
18701W        W85110  30.740   7.193   4.455
18702W        W85111   7.372   1.807   2.623
18703W        W85112  21.350  30.957  11.597
18704W        W85113  35.458   3.199  12.504
18705W        W85114  33.452   4.809   2.230
18706W        W85115  42.307  13.886   4.278
18707W        W85116  22.639  42.338  14.027
18708W        W85117  14.387  39.181  10.735
18709W        W85118  13.636  42.322   4.052
18710W        W85119   7.236   8.707  13.180
18711W        W85120   2.469   7.327   1.779
18712W        W85121  12.201  24.123  14.138
18713W        W85122   5.826  43.428   1.748
18714W        W85123  11.738  16.298  12.022
18715W        W85124  13.323  13.833  14.839
18716W        W85125  37.149  40.818  14.347
18717W        W85126  35.066  35.557   2.152
18718W        W85127   0.906  41.610  13.041
18719W        W85128   4.716  31.992   4.180
18720W        W85129  20.686   9.918  12.572
18721W        W85130  22.536  39.531  14.247
18722W        W85131  32.064   5.197   1.251
18723W        W85132  37.336  23.715  14.711
18724W        W85133  27.960  37.657   1.657
18725W        W85134  21.727  20.304   0.679
18726W        W85135  11.351   4.222   2.273
18727W        W85136  41.358  21.955  12.498
18728W        W85137  43.456  15.598  14.742
18729W        W85138  27.120   9.825   1.892
18730W        W85139  30.397  16.800  11.607
18731W        W85140  36.864   2.047   1.909
18732W        W85141  44.944  39.011  13.905
18733W        W85142  28.134  30.688   0.277
18734W        W85143  26.087   0.456   1.942
18735W        W85144   5.726  35.063   1.628
18736W        W85145  40.444   4.029  14.881
18737W        W85146  19.990  38.873  11.201
18738W        W85147  28.819  17.109   1.905
18739W        W85148  25.081  17.267   4.908
18740W        W85149  17.572  23.272  14.972
18741W        W85150  31.584  40.517  10.621
18742W        W85151  41.085  40.044  12.322
18743W        W85152  19.280  40.376   0.940
18744W        W85153  43.893   2.702  12.915
18745W        W85154  36.869  42.831   0.781
18746W        W85155  16.597  12.411  11.942
18747W        W85156   5.362  19.730   3.042
18748W        W85157  40.531  44.263   3.818
18749W        W85158   2.378  23.436  12.617
18750W        W85159  41.152   8.828   1.903
18751W        W85160  14.850   4.902  12.357
18752W        W85161  26.514  30.497  12.811
18753W        W85162  16.429  24.955   5.494
18754W        W85163   1.793  33.714   2.333
18755W        W85164  31.287  26.976   3.112
18756W        W85165  42.315   5.528  14.547
18757W        W85166  42.917  17.821   3.113
18758W        W85167  23.427  42.974  12.402
18759W        W85168  24.258  27.896   4.488
18760W        W85169  20.020  38.849   4.609
18761W        W85170  22.654  10.693   4.821
18762W        W85171   7.139   7.340   3.158
18763W        W85172  11.214  32.093   1.162
18764W        W85173   4.165  12.116  14.904
18765W        W85174   0.448  26.684  14.968
18766W        W85175   2.054  10.358  11.479
18767W        W85176  11.695  42.823  13.020
18768W        W85177   9.397  20.826  11.182
18769W        W85178  21.563  25.247  10.811
18770W        W85179   8.177  27.480  12.675
18771W        W85180  43.488  27.483   0.524
18772W        W85181  26.012   4.574   3.711
18773W        W85182  11.683  13.585  13.891
18774W        W85183  27.973   2.024  14.343
18775W        W85184  39.985  38.346   0.132
18776W        W85185  33.478  20.484   1.575
18777W        W85186   7.229  17.941  12.624
18778W        W85187   1.913  44.440   0.566
18779W        W85188  17.589  39.927  14.471
18780W        W85189   7.362  34.082   2.984
18781W        W85190  20.935   6.559  13.245
18782W        W85191  12.402  18.361   2.312
18783W        W85192  19.597  16.062   4.220
18784W        W85193  28.096   0.531   1.693
18785W        W85194  38.650  11.954  13.053
18786W        W85195  26.951   1.173   3.372
18787W        W85196   0.712   5.911   4.738
18788W        W85197  19.002  25.571  11.470
18789W        W85198  43.408  41.798   0.947
18790W        W85199  16.977  38.165   0.743
18791W        W85200  18.258   9.423  14.841
18792W        W85201  19.101   8.205  13.758
18793W        W85202  43.297  44.687   1.805
18794W        W85203   0.337  10.717   0.967
18795W        W85204  31.393   2.283   0.319
18796W        W85205   6.791  17.845   3.253
18797W        W85206   7.403  26.421   2.835
18798W        W85207  13.981  28.949   4.147
18799W        W85208  10.479  37.317   1.217
18800W        W85209  14.745  13.798   2.144
18801W        W85210   5.348   0.254   4.926
18802W        W85211  29.064  27.735  13.331
18803W        W85212  29.507  13.328  13.785
18804W        W85213   4.693  13.185  10.550
18805W        W85214   5.503   3.001   2.855
18806W        W85215   6.106  41.392  13.777
18807W        W85216  26.957  36.730  11.532
18808W        W85217  11.829  43.275   1.860
18809W        W85218  43.216  40.419  13.300
18810W        W85219   7.337  35.320  13.649
18811W        W85220   6.805   7.015   4.206
18812W        W85221  26.222  43.321  13.737
18813W        W85222  26.163  20.636  13.513
18814W        W85223   5.752  36.850   1.446
18815W        W85224  28.398  25.550  10.717
18816W        W85225  22.853  31.711   1.345
18817W        W85226  29.021  10.792  14.984
18818W        W85227   9.874   6.355   2.102
18819W        W85228  27.092  20.517   3.779
18820W        W85229  12.579  36.529   1.560
18821W        W85230  14.598  17.194   3.753
18822W        W85231  35.089  43.342   4.907
18823W        W85232  42.711   6.457  10.687
18824W        W85233  41.914   1.300   0.656
18825W        W85234   4.493  22.784  10.690
18826W        W85235  17.132  32.383   0.121
18827W        W85236  42.976  14.722   3.550
18828W        W85237  40.095  15.443   1.039
18829W        W85238  43.437  40.819   0.914
18830W        W85239   4.406  15.240  11.856
18831W        W85240  15.128  33.709   2.084
18832W        W85241  40.417  17.270   2.752
18833W        W85242  33.357  26.055  14.362
18834W        W85243  31.473   8.939   3.955
18835W        W85244   5.784   0.789  14.439
18836W        W85245  27.049  40.144  13.437
18837W        W85246  43.847   2.166  14.495
18838W        W85247  34.609  29.192   4.054
18839W        W85248  26.317   4.725  12.798
18840W        W85249   1.512  28.479  14.987
18841W        W85250  44.077  19.425  11.191
18842W        W85251  25.526  20.288   1.404
18843W        W85252  17.333   9.951   2.551
18844W        W85253  36.470   7.892  12.356
18845W        W85254   3.286  31.967  14.915
18846W        W85255   3.174  11.809   3.266
18847W        W85256   8.847  20.640   4.085
18848W        W85257   8.798  44.724   1.163
18849W        W85258  25.132  35.012  13.235
18850W        W85259   7.899  14.187   0.976
18851W        W85260  21.610   3.908   3.320
18852W        W85261  19.510   7.087  11.641
18853W        W85262  36.258  12.074   2.259
18854W        W85263  29.522  25.866  11.577
18855W        W85264   8.309  26.093  14.012
18856W        W85265   8.567  31.559  13.026
18857W        W85266  26.185  15.340  10.473
18858W        W85267  27.283  44.577   2.788
18859W        W85268  41.260   2.764   4.597
18860W        W85269   6.301   4.388  12.583
18861W        W85270  23.086  28.051  13.097
18862W        W85271  43.051   5.387  11.140
18863W        W85272  29.684  16.850  14.980
18864W        W85273  17.129   6.932  11.386
18865W        W85274  27.997  37.497   0.850
18866W        W85275  42.604  11.604  11.997
18867W        W85276  43.336  18.227   3.798
18868W        W85277  17.211   9.052   2.292
18869W        W85278  34.597  16.199  13.800
18870W        W85279   1.453  17.062  14.596
18871W        W85280   9.649  24.118   5.172
18872W        W85281   7.165  33.674   2.760
18873W        W85282  17.260  12.891   4.712
18874W        W85283   8.488  26.796   3.670
18875W        W85284  20.176   0.723   4.552
18876W        W85285   7.418  42.208   1.621
18877W        W85286  22.055  35.352  11.222
18878W        W85287  14.211   8.275  12.890
18879W        W85288  34.836  40.337   0.286
18880W        W85289  17.168  16.337  13.535
18881W        W85290  29.470  13.266   0.396
18882W        W85291  43.384  27.956  13.308
18883W        W85292   5.369  23.961   0.517
18884W        W85293   8.336  39.949  14.455
18885W        W85294   2.062   7.162   4.061
18886W        W85295  21.474  17.579   1.929
18887W        W85296  28.931  25.936   2.450
18888W        W85297  32.155   9.859  12.002
18889W        W85298   8.908  36.200   4.608
18890W        W85299  16.813   3.309   3.407
18891W        W85300   4.034  22.783   3.773
18892W        W85301  40.536   0.516   4.892
18893W        W85302  43.531   6.397  14.879
18894W        W85303  37.349  19.014   2.255
18895W        W85304  28.921  11.238   1.831
18896W        W85305  23.542  25.782  14.507
18897W        W85306  18.788  16.652  14.752
18898W        W85307  32.365  30.903   4.112
18899W        W85308  17.725  34.884  13.912
18900W        W85309  39.467  23.616  12.317
18901W        W85310  28.391  25.056  11.782
18902W        W85311  43.214   6.712   2.175
18903W        W85312  20.459   6.867   2.277
18904W        W85313  33.661  23.470   2.346
18905W        W85314   1.636   8.301   2.530
18906W        W85315  29.247  38.120   1.821
18907W        W85316  17.241  23.132  11.863
18908W        W85317   0.996  33.355  12.580
18909W        W85318  37.714  43.855   3.668
18910W        W85319  18.276  39.054   2.926
18911W        W85320  18.973  21.747   0.456
18912W        W85321  43.849  20.822  11.623
18913W        W85322  22.344  11.838   2.999
18914W        W85323  17.120  29.285   3.299
18915W        W85324  35.861   7.664   1.525
18916W        W85325  38.619  23.459   0.153
18917W        W85326  23.420   7.347  13.781
18918W        W85327  16.303  29.913   0.491
18919W        W85328   6.899  39.909   2.231
18920W        W85329  18.517  22.012  11.571
18921W        W85330   7.901  11.223   4.157
18922W        W85331  23.154  20.585  11.881
18923W        W85332  27.639   4.830   4.444
18924W        W85333  22.601  26.700   1.310
18925W        W85334   5.694  43.411  14.901
18926W        W85335  31.277  30.596   3.649
18927W        W85336  36.163  42.514   3.630
18928W        W85337  40.038  43.386  14.331
18929W        W85338  12.571  26.160  12.108
18930W        W85339  14.165   0.997  12.095
18931W        W85340   3.422  34.456  13.788
18932W        W85341   0.378  26.987  11.905
18933W        W85342  20.604   1.862  12.594
18934W        W85343   6.508  40.365  10.665
18935W        W85344  24.931  24.823   0.412
18936W        W85345  38.216  17.539   0.038
18937W        W85346  34.860  35.885  10.355
18938W        W85347  13.078   7.239  11.549
18939W        W85348  22.725  14.110   4.433
18940W        W85349  34.830  20.909  12.616
18941W        W85350   9.689  12.192   4.110
18942W        W85351   5.008   3.854   4.155
18943W        W85352  36.600  35.237  12.146
18944W        W85353  10.206  38.537   3.888
18945W        W85354  26.256  38.147  13.287
18946W        W85355  38.316  33.071  11.986
18947W        W85356  23.469  10.853  12.202
18948W        W85357  35.705   1.793  11.555
18949W        W85358   1.509  42.567  10.415
18950W        W85359  16.945  10.724   2.138
18951W        W85360   1.368  29.538   0.046
18952W        W85361   5.849  36.129   4.966
18953W        W85362  18.578  43.844  13.896
18954W        W85363  42.415  26.210   1.438
18955W        W85364  11.602  30.921   1.243
18956W        W85365   9.033  29.551  12.400
18957W        W85366  12.116  18.623   0.206
18958W        W85367   3.834  40.331  11.641
18959W        W85368  23.988  38.009   3.656
18960W        W85369  37.355   3.905   0.761
18961W        W85370  23.692  19.576   0.302
18962W        W85371   9.936  41.919  11.566
18963W        W85372   2.850  24.562  14.497
18964W        W85373  24.148   9.300   0.305
18965W        W85374  36.148  37.120   2.818
18966W        W85375   3.443  11.140   0.586
18967W        W85376  33.085  44.518  10.602
18968W        W85377   6.188  16.573   2.139
18969W        W85378  10.516  14.459   3.808
18970W        W85379   9.905  15.630   2.808
18971W        W85380  37.910   7.201   0.820
18972W        W85381  32.839  40.716   0.841
18973W        W85382  39.739  11.402   3.326
18974W        W85383  39.963  26.397  12.120
18975W        W85384  17.199   3.661  13.315
18976W        W85385   2.320   1.088  10.349
18977W        W85386  38.389   5.891  12.010
18978W        W85387  33.340  33.590  11.525
18979W        W85388  23.014  37.564  13.998
18980W        W85389   7.506  13.780  10.739
18981W        W85390  12.164   2.275   5.431
18982W        W85391  15.236  13.270  11.914
18983W        W85392  16.141  25.258   2.717
18984W        W85393  20.498   0.411   4.175
18985W        W85394   9.233  30.972   1.671
18986W        W85395  41.416  38.902  14.752
18987W        W85396  37.192   0.259   0.817
18988W        W85397  14.556  18.082  10.132
18989W        W85398   7.439  21.761  11.507
18990W        W85399  23.325  11.096   4.096
18991W        W85400  27.603  33.367   4.171
18992W        W85401  24.986   8.912  12.806
18993W        W85402  40.517  31.943   3.033
18994W        W85403   1.415  33.059   0.191
18995W        W85404  28.981   0.841  10.813
18996W        W85405   0.547  27.178  14.855
18997W        W85406  34.201  37.890  12.707
18998W        W85407  22.833   7.373  11.379
18999W        W85408  17.255  43.902  11.938
19000W        W85409  11.214  36.974   2.697
19001W        W85410  13.222  32.422  13.925
19002W        W85411  42.711  29.048  12.485
19003W        W85412   6.581   8.752   3.601
19004W        W85413  13.143  22.423  14.236
19005W        W85414  22.763  27.938   3.588
19006W        W85415  12.609   6.715   0.788
19007W        W85416  37.093  29.629  12.616
19008W        W85417  13.154  27.617  12.470
19009W        W85418  17.495  11.512  11.090
19010W        W85419   7.443  42.201   2.150
19011W        W85420   9.101  37.439  10.185
19012W        W85421  43.872  20.495   3.233
19013W        W85422  19.172  40.200  13.428
19014W        W85423   0.475  20.696   0.254
19015W        W85424  16.017  37.042   3.801
19016W        W85425  28.776  16.926  10.982
19017W        W85426   8.915  17.688  14.003
19018W        W85427  28.747  23.923  12.411
19019W        W85428  14.986  26.048  12.235
19020W        W85429  38.355  23.531  11.651
19021W        W85430   1.486  40.879   3.609
19022W        W85431  30.771  23.973  11.087
19023W        W85432   0.076  34.797   4.234
19024W        W85433  43.629  42.501  12.630
19025W        W85434  27.944  40.255  11.528
19026W        W85435  23.471   1.858   3.225
19027W        W85436  23.572   1.026  10.625
19028W        W85437  27.036  30.297   3.760
19029W        W85438  37.657  41.527   3.134
19030W        W85439  11.158  14.629  11.222
19031W        W85440  32.886  28.429   2.656
19032W        W85441  24.008   3.794  10.632
19033W        W85442  38.681  37.469  14.811
19034W        W85443  39.896  19.734   3.628
19035W        W85444  44.067  10.931  14.740
19036W        W85445  20.733  13.781  12.854
19037W        W85446   3.287  31.520  13.578
19038W        W85447  39.363   8.286  14.562
19039W        W85448  36.424  21.003  14.385
19040W        W85449  36.980  23.954   3.967
19041W        W85450  27.487  15.407  11.569
19042W        W85451   3.187  32.207  11.208
19043W        W85452  41.293   3.199   3.333
19044W        W85453  38.017   5.855  10.796
19045W        W85454  23.083  26.119   0.779
19046W        W85455  15.178   4.347  13.895
19047W        W85456  21.292  14.346   0.320
19048W        W85457  33.372  18.667  11.204
19049W        W85458   5.292  27.538   3.162
19050W        W85459  12.978  18.841   9.854
19051W        W85460  29.503   4.903  11.935
19052W        W85461  15.704   2.307  11.374
19053W        W85462  35.213  37.349  11.103
19054W        W85463   6.644  39.082  13.375
19055W        W85464  44.958  35.902   1.330
19056W        W85465   3.124  25.032  14.482
19057W        W85466  29.361  18.701   3.559
19058W        W85467  21.569  34.007  12.926
19059W        W85468  26.542   7.721   1.629
19060W        W85469  25.120  16.620   0.245
19061W        W85470  33.508  41.342   0.468
19062W        W85471  24.103  31.615  12.476
19063W        W85472  39.452   9.306   4.362
19064W        W85473  17.372  42.698   4.620
19065W        W85474  23.564   1.389   3.428
19066W        W85475  22.815   9.152  11.975
19067W        W85476  43.312  43.164  13.335
19068W        W85477  19.605  14.218   2.658
19069W        W85478  33.053  32.010  13.573
19070W        W85479   6.450   0.392  13.776
19071W        W85480  36.419   2.266  13.076
19072W        W85481  35.107  36.815  12.622
19073W        W85482  37.046   5.180  12.697
19074W        W85483  28.656   2.753   0.777
19075W        W85484  14.202  18.614   0.337
19076W        W85485  34.003  16.465  13.877
19077W        W85486  18.676  11.035   1.881
19078W        W85487  37.829  39.694  14.270
19079W        W85488  37.567  17.750   1.737
19080W        W85489  20.168  31.107  10.678
19081W        W85490  22.406   3.484   4.218
19082W        W85491   2.412  20.606  11.606
19083W        W85492   3.264   1.783   1.229
19084W        W85493  12.192  22.321   3.918
19085W        W85494   5.320   5.842   2.866
19086W        W85495  29.564  21.394   2.869
19087W        W85496   9.377  25.642   0.846
19088W        W85497  31.728  38.421  11.434
19089W        W85498  42.142  30.666   5.144
19090W        W85499  12.240  43.795   2.243
19091W        W85500   5.353  23.536   2.774
19092W        W85501  37.801  31.486   2.299
19093W        W85502  37.797   2.317  13.023
19094W        W85503  16.602  35.065   2.121
19095W        W85504  34.492  38.071   3.705
19096W        W85505  20.772  39.876  10.963
19097W        W85506  10.324  31.416   2.263
19098W        W85507   1.936  22.059   0.360
19099W        W85508  11.291  41.924   0.285
19100W        W85509  37.493   3.379  13.140
19101W        W85510   8.249  20.184  13.314
19102W        W85511  33.944  40.106  14.405
19103W        W85512   7.918  40.962  10.651
19104W        W85513  24.679  16.100  13.435
19105W        W85514   3.948  10.853   4.127
19106W        W85515  41.507  17.513  11.962
19107W        W85516  42.779  19.768  13.507
19108W        W85517  10.338  28.510  14.302
19109W        W85518  10.438  42.301   0.975
19110W        W85519  21.728  20.582  11.000
19111W        W85520  37.429  38.001   0.026
19112W        W85521  19.001  17.723   2.354
19113W        W85522   3.527  33.159  13.422
19114W        W85523  14.763  29.441  11.944
19115W        W85524  42.899   9.158  12.199
19116W        W85525  28.567  37.562  12.638
19117W        W85526   2.511  36.086   4.218
19118W        W85527   5.207   3.392   4.103
19119W        W85528   5.703  39.457   2.365
19120W        W85529  41.082  22.961  13.882
19121W        W85530  14.684   3.877   3.655
19122W        W85531  40.314  22.043   1.863
19123W        W85532   1.382  26.498   4.001
19124W        W85533   7.144  23.345   2.177
19125W        W85534  33.383  22.477   3.342
19126W        W85535  23.534  19.823   2.348
19127W        W85536  30.904   1.784   0.766
19128W        W85537  11.248  38.719  12.775
19129W        W85538   0.792  23.704  14.887
19130W        W85539  19.958  15.810  10.412
19131W        W85540   8.723  35.395  14.840
19132W        W85541  23.494  15.614   1.261
19133W        W85542  39.256  39.323   2.065
19134W        W85543  29.944  21.654   1.395
19135W        W85544  23.004  20.289   4.578
19136W        W85545   4.469   7.190  12.489
19137W        W85546   8.635  25.464   3.696
19138W        W85547  28.174  32.426   3.279
19139W        W85548   6.382  10.020   1.216
19140W        W85549  35.761   9.117  11.179
19141W        W85550  24.657  37.813  12.667
19142W        W85551  24.018  33.827   1.730
19143W        W85552  36.997  24.679   5.051
19144W        W85553  41.942  22.332  14.940
19145W        W85554  31.496  21.207  14.418
19146W        W85555  29.393   2.493   4.699
19147W        W85556  43.361   6.978  13.956
19148W        W85557  35.937  17.837  14.893
19149W        W85558   8.378   9.813  11.059
19150W        W85559  21.517  16.648   1.910
19151W        W85560  26.487  18.619   2.770
19152W        W85561  39.770  16.656   1.857
19153W        W85562   6.434  27.897  14.805
19154W        W85563   0.312   3.680  11.184
19155W        W85564  10.341  21.529   3.344
19156W        W85565   0.892  39.936   1.332
19157W        W85566  34.392  27.490  14.244
19158W        W85567   7.487  39.005   0.903
19159W        W85568  42.816  34.270  12.586
19160W        W85569  39.977   2.597  10.626
19161W        W85570  42.481  31.582  13.915
19162W        W85571  11.825   5.243   4.795
19163W        W85572  34.283  40.008  10.307
19164W        W85573   1.917  23.133   1.255
19165W        W85574  43.573   9.204   3.553
19166W        W85575  32.931   1.777   4.996
19167W        W85576  44.931  18.764  12.418
19168W        W85577  19.293  10.296  14.797
19169W        W85578  12.491  10.375  14.279
19170W        W85579  10.816  26.887   4.129
19171W        W85580  11.293  43.573   0.273
19172W        W85581  36.416  40.766   2.251
19173W        W85582  32.629  14.418  11.198
19174W        W85583  32.599   0.460  10.288
19175W        W85584  20.305   9.591   2.972
19176W        W85585  18.060  16.033  10.705
19177W        W85586  38.961  25.048   1.151
19178W        W85587  12.178  15.864  14.061
19179W        W85588  24.841  19.915   4.045
19180W        W85589  28.491  24.517  13.774
19181W        W85590  42.753   1.220   0.215
19182W        W85591  15.798   4.173  12.780
19183W        W85592  14.820  20.039   4.045
19184W        W85593  27.176  37.607   3.737
19185W        W85594   3.731  22.769   3.361
19186W        W85595  41.430  20.426  11.986
19187W        W85596  21.916  33.584  14.975
19188W        W85597  10.915  40.157  12.050
19189W        W85598  24.108  20.678  12.870
19190W        W85599  11.191  37.371  14.794
19191W        W85600  12.086  39.523  12.139
19192W        W85601  12.356  41.051   3.447
19193W        W85602   9.388  17.808   0.953
19194W        W85603   9.440   2.727  11.180
19195W        W85604  10.505  34.983   4.895
19196W        W85605  34.630   9.218  12.452
19197W        W85606  38.648  38.430  11.916
19198W        W85607  37.112  10.962  10.549
19199W        W85608  24.149  18.039  10.633
19200W        W85609   0.574  34.713   4.169
19201W        W85610  29.568  21.686  11.190
19202W        W85611  44.477  17.611  14.547
19203W        W85612  33.388  43.012   4.634
19204W        W85613   3.329  15.133  10.904
19205W        W85614  24.090  12.060  11.190
19206W        W85615  41.760  43.384  14.963
19207W        W85616  36.540  25.178   4.049
19208W        W85617  37.916  25.378  13.724
19209W        W85618   7.079  32.597  13.073
19210W        W85619  37.576  16.158  11.986
19211W        W85620  42.560  10.909   4.431
19212W        W85621  29.089  42.842   0.949
19213W        W85622   1.833  29.002   0.725
19214W        W85623   1.020  18.117   1.829
19215W        W85624  21.291  11.129  11.722
19216W        W85625   7.587  31.377   0.854
19217W        W85626   3.806  10.868  11.061
19218W        W85627  44.569  20.157  14.523
19219W        W85628  38.916  29.982  12.005
19220W        W85629  26.287   2.881   2.509
19221W        W85630  18.619  44.876  12.485
19222W        W85631  28.585  27.960   1.785
19223W        W85632  30.757   3.762   2.660
19224W        W85633  16.462  18.617  12.986
19225W        W85634  15.179  38.491   3.523
19226W        W85635  20.384  44.238   3.634
19227W        W85636  41.529  37.394   3.344
19228W        W85637  10.158  28.533   0.304
19229W        W85638  14.139  16.010   4.811
19230W        W85639   1.925  44.270   3.528
19231W        W85640  15.240  11.218  11.763
19232W        W85641  31.724  11.792   5.019
19233W        W85642  35.413  42.889  12.607
19234W        W85643  38.094  11.419  13.378
19235W        W85644  14.011  15.842   0.902
19236W        W85645  26.835   9.737  10.705
19237W        W85646  38.766  24.552  11.623
19238W        W85647  25.579  40.693  14.693
19239W        W85648   7.042  41.845   2.300
19240W        W85649  38.259  29.616   0.021
19241W        W85650  29.223  38.709   4.230
19242W        W85651  39.411  28.137  12.623
19243W        W85652  40.305  43.355   1.359
19244W        W85653  41.735  38.980   4.438
19245W        W85654  41.996  19.717   0.938
19246W        W85655  33.852  34.519   3.301
19247W        W85656  17.053  28.100  10.766
19248W        W85657   1.658   5.735   3.025
19249W        W85658  13.800  33.800  10.424
19250W        W85659  27.224  21.228  11.188
19251W        W85660  19.613  18.837  14.827
19252W        W85661  11.215   5.975  12.587
19253W        W85662  38.935  43.668  10.117
19254W        W85663  38.788  30.457  13.973
19255W        W85664  28.477  19.627   1.283
19256W        W85665  21.543   4.954  12.594
19257W        W85666  43.870  16.854  14.808
19258W        W85667  42.432   3.413   1.701
19259W        W85668  21.672  15.271  13.820
19260W        W85669  17.507  41.466  13.201
19261W        W85670  40.430  37.952  12.924
19262W        W85671  43.773  20.831  14.481
19263W        W85672  30.230  44.954   4.042
19264W        W85673   7.517  10.290  13.516
19265W        W85674   8.719  17.807   2.903
19266W        W85675   8.766  27.179  11.566
19267W        W85676  15.626   8.456   3.968
19268W        W85677  39.045  33.542  13.994
19269W        W85678  34.985   0.448  12.369
19270W        W85679  21.120  13.951   4.345
19271W        W85680   0.448   8.818   0.456
19272W        W85681  16.188  36.134  11.392
19273W        W85682  26.089  39.605  13.504
19274W        W85683  42.841  30.584  10.795
19275W        W85684  39.974  35.913  11.117
19276W        W85685  20.152  23.702   1.820
19277W        W85686  39.673  43.905   4.251
19278W        W85687   7.213  40.931   0.829
19279W        W85688  30.548  20.622   1.672
19280W        W85689  18.004  41.840  14.053
19281W        W85690  11.673  44.782  10.420
19282W        W85691  41.617  17.566   4.982
19283W        W85692  14.155   1.709   1.007
19284W        W85693  31.547  32.433   4.664
19285W        W85694  23.021  31.105  10.497
19286W        W85695   5.911  26.661  13.469
19287W        W85696   4.348  16.263   0.953
19288W        W85697   6.706  11.443   2.176
19289W        W85698  41.918  17.739  12.216
19290W        W85699  15.049  18.723   0.796
19291W        W85700  21.442   3.387   4.151
19292W        W85701  44.681  37.409  10.675
19293W        W85702  14.791  12.316  10.479
19294W        W85703  35.526  18.788   0.005
19295W        W85704  42.039  10.974   4.596
19296W        W85705   0.319  36.929   3.658
19297W        W85706  20.813  24.757   1.798
19298W        W85707  41.799  37.444  11.024
19299W        W85708  15.883   7.012   1.364
19300W        W85709  16.249  28.078  12.801
19301W        W85710  16.714  33.883  14.039
19302W        W85711  28.154  27.765   3.595
19303W        W85712  13.188  44.647  11.604
19304W        W85713  41.037  20.575   0.729
19305W        W85714  12.721  21.403   2.039
19306W        W85715  10.033  23.771  12.830
19307W        W85716  38.352   9.399  13.009
19308W        W85717  29.754  32.350  12.550
19309W        W85718  36.992   1.263   0.018
19310W        W85719  12.616   5.526  14.339
19311W        W85720  27.382  40.303   1.848
19312W        W85721  13.835  21.367  12.407
19313W        W85722  35.058   7.358   1.257
19314W        W85723  21.944  16.993   3.691
19315W        W85724  35.984  30.139  14.079
19316W        W85725  26.970  18.070  11.112
19317W        W85726  28.260  36.446   4.360
19318W        W85727  14.889   2.284   3.615
19319W        W85728  18.141  32.849   2.848
19320W        W85729   9.408  44.519  11.046
19321W        W85730  37.374   8.245  13.324
19322W        W85731  11.206  14.272  12.933
19323W        W85732  36.730  42.303  13.389
19324W        W85733  43.300  21.648  13.365
19325W        W85734  13.586  33.966   0.010
19326W        W85735  32.306  27.156   4.049
19327W        W85736  34.394   4.100  12.084
19328W        W85737  10.128   1.478   0.992
19329W        W85738  18.944  25.910  14.949
19330W        W85739  29.145  18.062   3.478
19331W        W85740  14.829  13.606   1.155
19332W        W85741  17.252  43.223   1.908
19333W        W85742  42.626   7.723  14.825
19334W        W85743   9.883   2.788  12.607
19335W        W85744  39.823  39.907   2.659
19336W        W85745   9.145  15.551   1.286
19337W        W85746   2.172   5.911  12.413
19338W        W85747  21.347  25.061   0.485
19339W        W85748  42.293  20.590  14.559
19340W        W85749  23.584  33.821  14.281
19341W        W85750  14.259  13.834   0.880
19342W        W85751   4.416  20.262   0.496
19343W        W85752  14.565  19.522   1.759
19344W        W85753   6.269  19.194   0.856
19345W        W85754  21.705  38.390  10.578
19346W        W85755  39.811  17.787  13.129
19347W        W85756  20.549  11.548  14.496
19348W        W85757  30.086  43.348   0.965
19349W        W85758  41.588  11.401  13.089
19350W        W85759   9.428  25.600  13.799
19351W        W85760  24.193  26.605   0.449
19352W        W85761  13.372  23.724  13.439
19353W        W85762   4.503  27.416  11.106
19354W        W85763  31.263  25.773   1.943
19355W        W85764   0.944  16.884  11.929
19356W        W85765  36.114  20.536   0.530
19357W        W85766  40.984   2.337   1.015
19358W        W85767  10.263  13.679  10.891
19359W        W85768  44.464   5.678  13.967
19360W        W85769  23.270   0.013  10.535
19361W        W85770  17.329  18.705   2.308
19362W        W85771  12.437  37.612  14.288
19363W        W85772  18.193  36.628  11.135
19364W        W85773   0.213  37.531   1.814
19365W        W85774  42.911   2.769   4.723
19366W        W85775  15.565  38.129   1.247
19367W        W85776   1.316  30.132   1.343
19368W        W85777  35.994  44.503   0.702
19369W        W85778   3.337  40.922  14.969
19370W        W85779  13.261   1.421   0.880
19371W        W85780   4.330  18.155  13.343
19372W        W85781  16.796   5.679   0.275
19373W        W85782  19.776  38.886  13.133
19374W        W85783  26.254   9.634   0.235
19375W        W85784   7.666  38.094  12.290
19376W        W85785   8.827  29.802   0.791
19377W        W85786  34.451   0.191  11.165
19378W        W85787   8.968   9.204   0.476
19379W        W85788  17.130  32.317   9.939
19380W        W85789  22.031  34.590  12.483
19381W        W85790   2.448  16.219  11.121
19382W        W85791  10.902  27.939  10.991
19383W        W85792  39.906  32.717  14.846
19384W        W85793  15.814  34.381   2.799
19385W        W85794   0.557  16.549   4.098
19386W        W85795  44.245  23.684  10.692
19387W        W85796  21.325   1.746   2.262
19388W        W85797   4.458  30.557   2.689
19389W        W85798  27.731  35.358  13.895
19390W        W85799   3.712  43.992   0.879
19391W        W85800   8.944  28.414  11.048
19392W        W85801   8.344  12.067   4.388
19393W        W85802  43.382  31.893  13.468
19394W        W85803  21.029  29.350  10.962
19395W        W85804  12.076  38.095  12.150
19396W        W85805  31.393  19.255  12.597
19397W        W85806  43.743  36.980  11.208
19398W        W85807  42.754  32.364  11.395
19399W        W85808  16.675  26.467   4.640
19400W        W85809  11.600  18.130   3.206
19401W        W85810  19.635  41.435   1.792
19402W        W85811  31.092  11.590   1.298
19403W        W85812  30.604  22.038   3.294
19404W        W85813  19.591   7.613  11.631
19405W        W85814  41.426  43.751  13.497
19406W        W85815  16.110  27.469   4.408
19407W        W85816  31.379  14.691  11.542
19408W        W85817  19.070  43.835   4.300
19409W        W85818  20.279  20.242   1.890
19410W        W85819  43.395  28.496   1.894
19411W        W85820  15.692  42.798  10.630
19412W        W85821  34.883  11.086  14.722
19413W        W85822  12.644  40.939  10.702
19414W        W85823  25.960  16.778   3.148
19415W        W85824  42.973  31.980   2.928
19416W        W85825   2.333  30.916  12.800
19417W        W85826  31.424  23.192  12.590
19418W        W85827  11.122   2.831  13.620
19419W        W85828  41.876  31.661  11.144
19420W        W85829  40.480   0.418   3.370
19421W        W85830  37.300  13.653   1.373
19422W        W85831  31.147  38.454  12.868
19423W        W85832  31.703  37.624   0.926
19424W        W85833  38.017   9.816  14.434
19425W        W85834   2.520  17.997   5.016
19426W        W85835  20.307  20.767   4.970
19427W        W85836  21.134  36.377  10.608
19428W        W85837  27.155  30.370   1.196
19429W        W85838  22.015  37.344  14.103
19430W        W85839   0.860  16.964   3.327
19431W        W85840  13.273  11.698  13.386
19432W        W85841   3.885  39.528   3.388
19433W        W85842  37.781  38.260   3.381
19434W        W85843  17.759   0.553  11.669
19435W        W85844   4.783  38.156  12.521
19436W        W85845  17.163  27.570   2.315
19437W        W85846  15.175  28.288  11.121
19438W        W85847  15.210  22.193   2.124
19439W        W85848   4.441  32.142  10.740
19440W        W85849  33.468  15.345  14.475
19441W        W85850  15.640   9.436  13.248
19442W        W85851  28.887  14.078  13.440
19443W        W85852  36.832  20.289   0.840
19444W        W85853  33.013   4.909  14.686
19445W        W85854  22.524  36.353   1.876
19446W        W85855  27.181   0.505  14.406
19447W        W85856  15.718  34.165   0.638
19448W        W85857  12.139  10.599  11.238
19449W        W85858  19.723  17.243   1.522
19450W        W85859  37.598  16.515   3.674
19451W        W85860  27.966   4.016  14.241
19452W        W85861  26.346  40.532   1.820
19453W        W85862  13.255  41.234  12.456
19454W        W85863   6.755  29.940   4.335
19455W        W85864  21.116  19.953  13.675
19456W        W85865  31.366  42.904  12.707
19457W        W85866   3.184  26.685   2.375
19458W        W85867  14.383  26.151  10.651
19459W        W85868  15.170  21.179   3.502
19460W        W85869  13.151  39.457   4.585
19461W        W85870   5.681  14.675   1.760
19462W        W85871   4.239   4.291  12.080
19463W        W85872  19.339  16.304  14.309
19464W        W85873  18.233  12.595  14.768
19465W        W85874  21.992   1.988  12.893
19466W        W85875  38.645  27.886   4.278
19467W        W85876  15.624  19.748   2.981
19468W        W85877  23.644   5.786  10.426
19469W        W85878  31.135  44.727  11.625
19470W        W85879  15.627  35.027  12.042
19471W        W85880  31.104  18.254  10.785
19472W        W85881  10.801  40.021   3.113
19473W        W85882  31.911  26.452   3.572
19474W        W85883   5.747   2.151   2.683
19475W        W85884  11.765  37.832  13.005
19476W        W85885  26.730   7.365   9.852
19477W        W85886  39.706  39.266  12.995
19478W        W85887  28.154  35.433   1.197
19479W        W85888   1.327  19.483   3.630
19480W        W85889   0.539  17.780  11.738
19481W        W85890  17.809  43.242   1.215
19482W        W85891  14.663  42.735   2.748
19483W        W85892   5.573  18.145   3.686
19484W        W85893  24.082  26.733   3.067
19485W        W85894  23.503  39.782   3.691
19486W        W85895   8.103   2.678   3.725
19487W        W85896   9.115  31.177  11.191
19488W        W85897  13.253   1.416  13.573
19489W        W85898  21.999   5.226   1.713
19490W        W85899  25.815  37.095  12.501
19491W        W85900   9.923  31.471   1.306
19492W        W85901   2.746  28.396  12.481
19493W        W85902  15.278  25.556   4.588
19494W        W85903  43.790   5.924   1.397
19495W        W85904   9.598  35.529  14.390
19496W        W85905   9.263  21.112  14.597
19497W        W85906  30.428  22.125  10.998
19498W        W85907  34.393  19.818   4.638
19499W        W85908   5.886  13.516   2.659
19500W        W85909  37.016  33.805  14.798
19501W        W85910  34.788  22.696   5.016
19502W        W85911  41.894  17.577  13.606
19503W        W85912  11.536  19.006  11.057
19504W        W85913   9.856  24.610   3.836
19505W        W85914  22.058  37.579  10.560
19506W        W85915  36.154  10.423   1.798
19507W        W85916  25.109  36.877   4.492
19508W        W85917  21.939  41.985   3.805
19509W        W85918  29.394  41.920   0.573
19510W        W85919  30.041  14.306   1.199
19511W        W85920  10.088  34.527   3.246
19512W        W85921  36.237   5.690  14.742
19513W        W85922  14.246  28.974  12.475
19514W        W85923   3.045  12.827   4.627
19515W        W85924   2.771  39.077  14.291
19516W        W85925  10.244  30.193   0.910
19517W        W85926  36.672   0.327   0.868
19518W        W85927  33.605  19.541   1.781
19519W        W85928  41.477  31.013  13.639
19520W        W85929  39.186  42.560   3.829
19521W        W85930  12.241  13.753   2.102
19522W        W85931  26.416   4.821  14.564
19523W        W85932  36.101   6.369   0.975
19524W        W85933  32.938   0.429   1.871
19525W        W85934  14.917  32.207   5.266
19526W        W85935  35.264   6.854   4.648
19527W        W85936  17.726   9.730   0.478
19528W        W85937  13.832  34.808   3.522
19529W        W85938  17.679  40.917  11.685
19530W        W85939  28.994   7.891   4.064
19531W        W85940  25.171  22.072   5.103
19532W        W85941  22.668  33.324  11.634
19533W        W85942  10.813   7.914   4.004
19534W        W85943  39.488  42.907   4.604
19535W        W85944  10.389  33.875   0.441
19536W        W85945   8.941  41.825  11.599
19537W        W85946  26.920   6.914   4.049
19538W        W85947  18.324   6.922   4.513
19539W        W85948   4.704  20.014   4.072
19540W        W85949   3.250  39.577  11.602
19541W        W85950  16.890   9.885  10.226
19542W        W85951  13.191  41.653  13.826
19543W        W85952  19.723  11.548  14.492
19544W        W85953  32.956  16.219  14.631
19545W        W85954  17.093  29.541  14.458
19546W        W85955  42.792  24.919   0.309
19547W        W85956  44.441   9.142  12.680
19548W        W85957  30.316   1.323  14.456
19549W        W85958  37.491   6.694   4.119
19550W        W85959   1.412  41.004  14.479
19551W        W85960  31.935   8.821   4.170
19552W        W85961  30.694  24.704   0.993
19553W        W85962   9.640   5.758   4.161
19554W        W85963  28.623  33.167   2.329
19555W        W85964   5.434  41.663  12.068
19556W        W85965   6.991  20.045   3.315
19557W        W85966  37.881  41.500   4.313
19558W        W85967  40.834  35.349   4.650
19559W        W85968  20.067  30.419   5.088
19560W        W85969  14.540  23.921   4.633
19561W        W85970  28.382  11.262  13.893
19562W        W85971  38.489  23.151   2.261
19563W        W85972  26.186  11.347  11.317
19564W        W85973  21.753   5.065  12.145
19565W        W85974   9.735   8.750  12.534
19566W        W85975   9.730  14.157   4.412
19567W        W85976  32.890  26.904   1.655
19568W        W85977  16.772   0.893  14.400
19569W        W85978  25.967  42.639   2.820
19570W        W85979  35.079   3.171   0.452
19571W        W85980  39.493  27.587  12.916
19572W        W85981   7.645  39.478   0.687
19573W        W85982  23.014  16.180   3.045
19574W        W85983  14.369  24.138  12.902
19575W        W85984  25.636   9.884   4.552
19576W        W85985  31.957  14.577  10.582
19577W        W85986  44.930  12.628  11.941
19578W        W85987  14.325  17.874   2.768
19579W        W85988  21.086  30.167   0.411
19580W        W85989   6.107  20.982   0.817
19581W        W85990  28.717  35.370   0.440
19582W        W85991  25.972  12.934   3.130
19583W        W85992  21.232  43.260  11.019
19584W        W85993  16.492   0.301   4.404
19585W        W85994   9.216  12.102   1.359
19586W        W85995  23.711  41.417   0.706
19587W        W85996  15.925  42.836   2.283
19588W        W85997   1.413  18.263  12.871
19589W        W85998  34.266  13.451   1.846
19590W        W85999  35.587  39.034   2.250
19591W        W86000  37.964   8.645   0.858
19592W        W86001  23.592   3.274   3.747
19593W        W86002  22.434  20.716  13.483
19594W        W86003  20.824  16.215  11.632
19595W        W86004  39.614  24.255  11.616
19596W        W86005  41.977   0.280  11.109
19597W        W86006   2.309  32.812  13.814
19598W        W86007  36.000  17.412  11.463
19599W        W86008   7.644  33.006  12.472
19600W        W86009  25.053  11.358  14.888
19601W        W86010  14.181  16.031  12.848
19602W        W86011  12.399  44.240  11.718
19603W        W86012  19.314  32.056   2.315
19604W        W86013  13.280  22.843  13.481
19605W        W86014  28.861   3.340   4.447
19606W        W86015   3.475  25.635  11.062
19607W        W86016  10.149  40.871  11.188
19608W        W86017   9.737  33.042  12.070
19609W        W86018  21.106  36.083   2.889
19610W        W86019  18.617   0.527  10.714
19611W        W86020  13.000  25.241  11.901
19612W        W86021  44.875  31.433   4.573
19613W        W86022  32.035  38.988   2.442
19614W        W86023  24.710  11.540   2.663
19615W        W86024   9.734  35.900   0.331
19616W        W86025   1.738  28.613  13.790
19617W        W86026  18.205  42.498   3.366
19618W        W86027  39.155   5.225   1.352
19619W        W86028   2.245  22.587  11.504
19620W        W86029   6.805  41.845  12.051
19621W        W86030  16.227  18.652   5.009
19622W        W86031  27.096  25.719  10.702
19623W        W86032  34.973  23.637   4.607
19624W        W86033   6.135   5.981  10.901
19625W        W86034  28.416  32.131   0.200
19626W        W86035  42.553  32.023   0.925
19627W        W86036  12.785  42.730   0.945
19628W        W86037  11.424  38.929  14.834
19629W        W86038  25.663  15.295   4.114
19630W        W86039   8.634  10.086   2.977
19631W        W86040  20.227  43.961  12.956
19632W        W86041  39.831   6.805   2.471
19633W        W86042   8.564  21.480   0.702
19634W        W86043  18.690  33.843  14.073
19635W        W86044   1.641   2.701  12.967
19636W        W86045  41.326  13.738   3.317
19637W        W86046  13.788  44.987  13.960
19638W        W86047  12.852  21.588  12.843
19639W        W86048  24.136  44.691  10.994
19640W        W86049  30.118  42.628  12.855
19641W        W86050  26.526  36.747  10.755
19642W        W86051   9.344  25.570  10.950
19643W        W86052  40.847  40.422   3.247
19644W        W86053   9.758  25.024  12.904
19645W        W86054  40.276  23.469   1.365
19646W        W86055   2.451  17.967   3.168
19647W        W86056  34.259  19.544  11.811
19648W        W86057  37.544   4.434  14.008
19649W        W86058  13.438   0.481   2.613
19650W        W86059  41.175  25.700   0.313
19651W        W86060  36.630   9.052  13.466
19652W        W86061  13.534  24.192   0.201
19653W        W86062  43.522  35.870   4.054
19654W        W86063  38.942  42.789  14.427
19655W        W86064  32.643  37.735   2.827
19656W        W86065  32.743   6.524   0.376
19657W        W86066  32.532   8.289   3.754
19658W        W86067  10.817  12.977  13.071
19659W        W86068   7.381  43.242   0.807
19660W        W86069  36.368  32.577  12.824
19661W        W86070   1.037  12.321   4.572
19662W        W86071  17.256  36.599  12.363
19663W        W86072  10.255  42.436  12.395
19664W        W86073  23.974  22.359   0.786
19665W        W86074  21.659  10.202   0.701
19666W        W86075  41.948  34.455   1.239
19667W        W86076  18.736   5.138  12.556
19668W        W86077  21.006  38.873   1.361
19669W        W86078   1.443   2.281   3.599
19670W        W86079   5.128  28.660  13.527
19671W        W86080   3.748  25.586   2.720
19672W        W86081  13.994  42.315   0.243
19673W        W86082  31.608  18.690   0.090
19674W        W86083  40.400  32.114   0.420
19675W        W86084  32.910  12.342  12.971
19676W        W86085  34.387  31.413  14.327
19677W        W86086  44.756   7.873  12.587
19678W        W86087  26.408  32.466  14.440
19679W        W86088  34.388  34.614   0.494
19680W        W86089  41.241   9.983   3.664
19681W        W86090  14.848  31.738  12.544
19682W        W86091   2.927  32.843   0.509
19683W        W86092  16.120  30.664   2.878
19684W        W86093   7.288   4.791   1.105
19685W        W86094  30.915  13.240   3.337
19686W        W86095  30.025  13.777   4.626
19687W        W86096  34.295  44.470  11.158
19688W        W86097  15.598  30.485   1.474
19689W        W86098  44.030  11.653  11.878
19690W        W86099  42.549  11.466   2.243
19691W        W86100  19.064  44.182   0.832
19692W        W86101   7.744  43.455   3.886
19693W        W86102  10.159  36.520   2.378
19694W        W86103  14.775   0.581   0.238
19695W        W86104  29.388  23.031  10.724
19696W        W86105  30.569  36.698   2.237
19697W        W86106  17.275  30.572  13.248
19698W        W86107  32.187  14.700  13.778
19699W        W86108  28.184  26.152  10.642
19700W        W86109   8.162  19.872   2.361
19701W        W86110  39.178  33.459   1.103
19702W        W86111  38.452   0.257  10.633
19703W        W86112  12.730  32.663   3.649
19704W        W86113  23.368  19.183  11.914
19705W        W86114  29.365   0.852  11.157
19706W        W86115  32.088  38.070   2.955
19707W        W86116  15.837   8.088   0.750
19708W        W86117  27.744  34.487  12.150
19709W        W86118  13.225   0.499   0.774
19710W        W86119  42.842  39.888  12.085
19711W        W86120  28.860  43.804   4.023
19712W        W86121  21.760   2.736  11.200
19713W        W86122   6.628  36.107  10.669
19714W        W86123   5.620  29.624   2.702
19715W        W86124  39.054  30.326  11.139
19716W        W86125   2.286  30.082  10.576
19717W        W86126  37.673  16.124   4.953
19718W        W86127  20.593  20.736   0.878
19719W        W86128  27.624  29.546   4.537
19720W        W86129   5.529  38.023  13.760
19721W        W86130  34.193   8.264   1.929
19722W        W86131   9.428  21.475   3.316
19723W        W86132  20.766  41.259  11.578
19724W        W86133  42.843  37.974   4.089
19725W        W86134  29.721  44.934   4.045
19726W        W86135  31.601  36.391  12.778
19727W        W86136  18.063  18.573   1.687
19728W        W86137  15.897  16.825  11.874
19729W        W86138   2.396  37.973  12.246
19730W        W86139   2.931  25.950   2.635
19731W        W86140   3.278  28.002  13.519
19732W        W86141  38.006  10.698   3.328
19733W        W86142  25.641  36.887  11.115
19734W        W86143  25.953  32.515  12.900
19735W        W86144  18.085  43.756  12.954
19736W        W86145  29.495  40.934   0.364
19737W        W86146  28.568  14.559  14.329
19738W        W86147  15.779  26.183   0.728
19739W        W86148  25.526  39.576   2.458
19740W        W86149  20.599  39.405   0.796
19741W        W86150  15.656  23.692  12.960
19742W        W86151  35.188  24.130   4.653
19743W        W86152  27.520  10.282  13.530
19744W        W86153  35.390  21.980   3.695
19745W        W86154   3.937  16.555   0.828
19746W        W86155  33.195  38.114  12.578
19747W        W86156  14.195  12.335  10.848
19748W        W86157   3.893  11.579  14.363
19749W        W86158  43.026  25.943   3.521
19750W        W86159   5.751  15.727   4.859
19751W        W86160   0.735  11.925   3.216
19752W        W86161  40.523  19.354  12.816
19753W        W86162  25.347  39.816   3.336
19754W        W86163   0.354  29.493  14.840
19755W        W86164  14.149  38.807   2.123
19756W        W86165  43.405   1.519  13.202
19757W        W86166  19.863  17.931  13.006
19758W        W86167  17.821   1.759  12.018
19759W        W86168  37.098  35.518   4.264
19760W        W86169  39.797  38.425  11.213
19761W        W86170  39.206  20.655   1.232
19762W        W86171   7.931  38.527   3.040
19763W        W86172  11.114   7.616   2.225
19764W        W86173  27.613  29.380   1.746
19765W        W86174  41.166   5.362   4.643
19766W        W86175  13.849  18.211  11.261
19767W        W86176  37.050  38.924   0.395
19768W        W86177  26.574   2.048   1.242
19769W        W86178  16.566  20.237   2.156
19770W        W86179  41.030  20.014  13.980
19771W        W86180   4.714  19.128   1.537
19772W        W86181  18.050  11.893   2.750
19773W        W86182  23.732  17.061  14.744
19774W        W86183   5.701   8.279  14.496
19775W        W86184   1.256  42.799   4.198
19776W        W86185   4.339  15.982   1.987
19777W        W86186  37.793   9.380   4.553
19778W        W86187  13.611   0.074  13.469
19779W        W86188  10.382   6.182  11.568
19780W        W86189  21.422  28.129   3.173
19781W        W86190   7.405  15.630   1.541
19782W        W86191  28.237  39.174  11.947
19783W        W86192  20.331  24.671   1.907
19784W        W86193  36.071  35.306   2.309
19785W        W86194   9.021  32.953   3.573
19786W        W86195  23.164  21.515   1.416
19787W        W86196  27.524  43.985   2.201
19788W        W86197  38.861  19.129  11.494
19789W        W86198  23.635  35.107  14.635
19790W        W86199  17.716  36.835   1.236
19791W        W86200  31.488  15.527  13.631
19792W        W86201   7.817  12.242   0.858
19793W        W86202  13.876  23.672  13.377
19794W        W86203  44.072  34.093   4.105
19795W        W86204  40.315  42.851  13.030
19796W        W86205  39.030  20.737  10.381
19797W        W86206  35.914  29.385   3.337
19798W        W86207  20.827  28.160  12.954
19799W        W86208   7.770  17.745  13.389
19800W        W86209  36.458   0.829   3.400
19801W        W86210  30.384  29.963   1.153
19802W        W86211   0.431  37.980  10.601
19803W        W86212   6.246  11.283   1.862
19804W        W86213   7.811  22.027   1.787
19805W        W86214  14.219  35.062  10.351
19806W        W86215   4.913  30.407   4.570
19807W        W86216   9.936  20.888   0.712
19808W        W86217   6.604   6.734   4.627
19809W        W86218  32.524   7.484  12.139
19810W        W86219  19.213  28.650   0.265
19811W        W86220  35.260  14.115   0.423
19812W        W86221  13.279  39.300  11.609
19813W        W86222  27.047  19.842  13.376
19814W        W86223  12.651  37.885  13.881
19815W        W86224  11.418  13.031  14.072
19816W        W86225  21.442  33.868   4.079
19817W        W86226  22.470  19.721   3.222
19818W        W86227  11.188   7.415   3.127
19819W        W86228  21.842  16.298   2.199
19820W        W86229  23.072  38.589  12.858
19821W        W86230  41.172   2.927   2.723
19822W        W86231  40.995  42.878   0.195
19823W        W86232  12.056  24.251  11.267
19824W        W86233  44.194  18.700   3.050
19825W        W86234  27.484   3.971  14.390
19826W        W86235  35.070   7.302  12.003
19827W        W86236  38.207  43.077  11.622
19828W        W86237  38.641  29.015  13.805
19829W        W86238  44.771  26.699  14.444
19830W        W86239  35.614   9.778   3.910
19831W        W86240   8.622  11.864  11.885
19832W        W86241  23.374  35.429   2.468
19833W        W86242  41.482   2.298  12.382
19834W        W86243  36.029  29.876   3.111
19835W        W86244  12.855  24.126   2.938
19836W        W86245   9.643  15.220  11.547
19837W        W86246   5.951   4.162   2.858
19838W        W86247  35.888  20.660   1.498
19839W        W86248  17.567  41.078  13.573
19840W        W86249  22.157  13.781   2.473
19841W        W86250  24.161  18.352   4.061
19842W        W86251  13.678  40.901   1.573
19843W        W86252  30.715   6.048   0.521
19844W        W86253  29.224  26.221   2.818
19845W        W86254   0.205  26.614   1.835
19846W        W86255  17.771  36.616  11.556
19847W        W86256  10.612  12.969   3.420
19848W        W86257  42.328   1.822   1.296
19849W        W86258  33.993   6.826   3.702
19850W        W86259  22.751  36.991  13.945
19851W        W86260   7.646  18.256  12.606
19852W        W86261  16.110   1.696   0.326
19853W        W86262  21.294  16.956  13.342
19854W        W86263  18.081  39.074  14.476
19855W        W86264  44.733  20.237  12.862
19856W        W86265  42.305   3.152   3.785
19857W        W86266  29.349  21.894   0.269
19858W        W86267  18.735  28.102  11.776
19859W        W86268  31.923  24.955  14.443
19860W        W86269  25.222   1.989  11.125
19861W        W86270  18.230  16.096  12.917
19862W        W86271  20.253   1.294   2.202
19863W        W86272  42.952   9.419  13.216
19864W        W86273  41.886   0.975  14.292
19865W        W86274  23.711  33.399  13.421
19866W        W86275  20.979   6.417   4.224
19867W        W86276  38.227   9.671   2.178
19868W        W86277  42.638  30.413   3.204
19869W        W86278   1.804   3.206   2.688
19870W        W86279  13.855  12.607  13.795
19871W        W86280   7.070  23.960  11.605
19872W        W86281  37.908  23.621  13.406
19873W        W86282  44.469  39.987  14.485
19874W        W86283  30.790  35.218  12.125
19875W        W86284  12.868  15.188   4.248
19876W        W86285  40.443  15.726   4.098
19877W        W86286   0.927   1.481  11.642
19878W        W86287  26.881  35.396   4.466
19879W        W86288   9.252  33.996   2.247
19880W        W86289  27.389  30.882  13.513
19881W        W86290  25.300   6.367  13.518
19882W        W86291  17.071  12.194   1.315
19883W        W86292  37.834  28.713   2.286
19884W        W86293  17.066   8.361  14.984
19885W        W86294  26.160  43.793   2.881
19886W        W86295   6.564  32.124   1.201
19887W        W86296  24.927  26.021   1.325
19888W        W86297  39.369  23.951  12.943
19889W        W86298  21.327  38.081   1.358
19890W        W86299  28.078  43.126  13.104
19891W        W86300   7.987   6.859   4.143
19892W        W86301  43.043  31.218   3.268
19893W        W86302  36.037  36.360   3.722
19894W        W86303  16.588  27.668  14.782
19895W        W86304   6.461  35.437  11.416
19896W        W86305  14.804  12.827   4.091
19897W        W86306  29.385  21.116   1.855
19898W        W86307   3.709  39.451  14.555
19899W        W86308   4.170  24.872   5.482
19900W        W86309  20.357  24.349  12.512
19901W        W86310  31.340   1.036  13.071
19902W        W86311  15.575   4.326  14.882
19903W        W86312  37.985  32.147  14.715
19904W        W86313  41.063   6.112  14.826
19905W        W86314   2.230  28.502   3.723
19906W        W86315  13.252  20.525   3.901
19907W        W86316  31.060  32.525   3.725
19908W        W86317  15.208  44.355  14.654
19909W        W86318  14.087  10.271  12.845
19910W        W86319  20.314  11.766  10.548
19911W        W86320  32.544  14.932   3.357
19912W        W86321  14.056  13.333  10.677
19913W        W86322   7.560  31.691  12.953
19914W        W86323   7.738  25.672  14.569
19915W        W86324   9.146  34.327   0.943
19916W        W86325  24.022  11.835  14.984
19917W        W86326  22.616   6.229  12.028
19918W        W86327  24.260  38.940  10.986
19919W        W86328  41.556  18.167   4.054
19920W        W86329  39.474  23.488   4.130
19921W        W86330  23.450  39.802  11.698
19922W        W86331  27.147  38.507  11.578
19923W        W86332  37.822   4.817   2.654
19924W        W86333  18.643  11.778   0.536
19925W        W86334  14.012  44.327   3.969
19926W        W86335  42.680   3.819   2.383
19927W        W86336  13.179  15.688  11.383
19928W        W86337  20.083  41.100   0.426
19929W        W86338  28.717  40.302   2.298
19930W        W86339  32.959  41.077   3.372
19931W        W86340  17.628  26.136  14.966
19932W        W86341  24.480   2.416  11.107
19933W        W86342  26.624   2.017   5.068
19934W        W86343  30.424   8.146  11.905
19935W        W86344   3.279  16.637   0.433
19936W        W86345   6.639  26.684  12.900
19937W        W86346  18.194  11.170  12.081
19938W        W86347  13.491   1.144   3.195
19939W        W86348  16.209  31.956   2.320
19940W        W86349   9.589  11.823  12.203
19941W        W86350  16.403  12.779  12.249
19942W        W86351   8.896  43.835   2.714
19943W        W86352  27.195  20.457   0.926
19944W        W86353  23.328  10.124  13.225
19945W        W86354  33.882  28.048  13.267
19946W        W86355  13.920  42.365   4.507
19947W        W86356  29.008  36.460  14.154
19948W        W86357  31.177   8.013   0.916
19949W        W86358  43.193  29.615  11.231
19950W        W86359  36.951  37.846   0.023
19951W        W86360  22.584  18.233  11.327
19952W        W86361  32.910   7.770  13.497
19953W        W86362   4.701  20.089  11.377
19954W        W86363  22.163  21.792  12.196
19955W        W86364  41.543  28.699   4.941
19956W        W86365  36.805  12.213   3.166
19957W        W86366  20.563  17.077  13.978
19958W        W86367  28.147  42.928  14.963
19959W        W86368  27.526  18.807  14.562
19960W        W86369  27.304  36.273  14.901
19961W        W86370   5.512  43.401   1.280
19962W        W86371  31.924  19.801  13.795
19963W        W86372  18.572  13.529  10.802
19964W        W86373  33.855  30.680   4.560
19965W        W86374   0.844  34.635   0.884
19966W        W86375   5.982  39.253   1.962
19967W        W86376  23.080  10.430   1.736
19968W        W86377  24.278  29.850  13.401
19969W        W86378  44.892   1.112   4.748
19970W        W86379  25.584  38.156   0.770
19971W        W86380   9.243  33.131  14.763
19972W        W86381   0.283   4.758   3.405
19973W        W86382  33.991  34.565  12.074
19974W        W86383  38.105  20.800  14.843
19975W        W86384  13.273  16.637   4.437
19976W        W86385   1.815  19.103   4.435
19977W        W86386  27.051  25.878   2.245
19978W        W86387  20.754  28.666   1.597
19979W        W86388  40.360  32.553  14.645
19980W        W86389  20.163  35.836   0.855
19981W        W86390   2.905   1.897   2.824
19982W        W86391  18.274  30.908   0.220
19983W        W86392  28.503   6.306  10.407
19984W        W86393  29.262  12.893  13.942
19985W        W86394  40.552  21.260   2.258
19986W        W86395  38.612  40.399   0.939
19987W        W86396  43.611  17.718  12.095
19988W        W86397  44.496  36.462  12.961
19989W        W86398  26.221   1.016  11.435
19990W        W86399  27.049  42.352  14.410
19991W        W86400  17.241  14.226   3.138
19992W        W86401  39.969   8.836  14.445
19993W        W86402  43.383  34.428  13.392
19994W        W86403   8.939  37.369   2.391
19995W        W86404   7.415  30.850   2.321
19996W        W86405  12.313  26.956  11.999
19997W        W86406  29.938  26.493   1.251
19998W        W86407  21.504  14.041   2.626
19999W        W86408  21.235  17.160   2.651
20000W        W86409  30.197  32.147  11.239
20001W        W86410  25.471  27.852   2.457
20002W        W86411  39.322   8.436  11.580
20003W        W86412  39.373   5.710   2.697
20004W        W86413  34.061  35.811  12.789
20005W        W86414   2.974  15.865  12.010
20006W        W86415   5.669   1.593  14.007
20007W        W86416  24.512   8.509   9.488
20008W        W86417   3.318  19.334   4.429
20009W        W86418  20.617  44.081  14.431
20010W        W86419   3.630   8.214  12.024
20011W        W86420  18.033  31.201  13.415
20012W        W86421  12.599  14.071  14.449
20013W        W86422  19.519  29.374   0.767
20014W        W86423  21.702  41.326   2.867
20015W        W86424  35.259  40.370  14.953
20016W        W86425   2.709  27.953   4.098
20017W        W86426   3.528  14.801   5.021
20018W        W86427  16.769  27.214   2.447
20019W        W86428  13.644  29.553   4.610
20020W        W86429   5.660  25.034   0.618
20021W        W86430  14.868  10.620   0.216
20022W        W86431  20.676  34.370  12.398
20023W        W86432  21.309   7.504  11.611
20024W        W86433  33.523  35.896   0.039
20025W        W86434   2.493   6.271   0.816
20026W        W86435  29.377  40.316  14.553
20027W        W86436   7.343  24.679   2.131
20028W        W86437  41.585  12.690  12.101
20029W        W86438  16.111  42.544   3.141
20030W        W86439  13.183  28.165   3.678
20031W        W86440  40.950  19.658   3.763
20032W        W86441  41.331  12.230   3.647
20033W        W86442  36.575   9.819  11.213
20034W        W86443   2.749  19.199   0.424
20035W        W86444   4.218  36.933   2.637
20036W        W86445  34.540  37.127   4.602
20037W        W86446  34.430  32.551   4.269
20038W        W86447  33.885  38.785  12.446
20039W        W86448  28.544   2.598   2.775
20040W        W86449  25.524  14.191  12.821
20041W        W86450   5.877  38.314   0.687
20042W        W86451  39.150  27.194   1.165
20043W        W86452  14.581  17.556   4.840
20044W        W86453  35.545  22.473   2.781
20045W        W86454  12.266  22.900   2.293
20046W        W86455  26.981  24.186  12.898
20047W        W86456  19.886   1.180  12.361
20048W        W86457  43.259   6.864   4.507
20049W        W86458  13.217  14.780  11.773
20050W        W86459  21.230  26.668   2.701
20051W        W86460  14.070  29.099  11.135
20052W        W86461  11.336  39.900  14.424
20053W        W86462  36.657  44.040   1.153
20054W        W86463  43.192  27.846  12.387
20055W        W86464  13.560  35.075   4.365
20056W        W86465  32.867  35.330   0.847
20057W        W86466  11.249  29.940   1.412
20058W        W86467   4.110   3.053  14.153
20059W        W86468  28.637  35.381  12.524
20060W        W86469  20.644   6.258  12.881
20061W        W86470   5.317  14.106   5.052
20062W        W86471  13.663  43.105  11.242
20063W        W86472  18.284  24.659   0.366
20064W        W86473  39.515   3.729   1.803
20065W        W86474   3.962   6.631  13.962
20066W        W86475  25.032  35.289  10.725
20067W        W86476  10.920  29.578  13.350
20068W        W86477  13.045  11.293   3.043
20069W        W86478  26.379  31.435  11.170
20070W        W86479   1.358   0.505  12.638
20071W        W86480  21.491  42.141   3.627
20072W        W86481  13.200  29.633   1.988
20073W        W86482  27.181  18.779   1.880
20074W        W86483  27.470  24.171  11.637
20075W        W86484   1.167  17.305   3.002
20076W        W86485  27.687  11.764  11.433
20077W        W86486  11.040  42.595   4.800
20078W        W86487  22.614  24.636  14.068
20079W        W86488  20.328  42.300   4.694
20080W        W86489  21.198  41.512  10.358
20081W        W86490  17.723   2.158   0.357
20082W        W86491  23.994  34.384   4.545
20083W        W86492  15.866   8.701  13.611
20084W        W86493   6.337  26.327  13.494
20085W        W86494  30.520  11.041   0.223
20086W        W86495  13.167  33.915  14.177
20087W        W86496  39.248  11.530  11.559
20088W        W86497   1.506  13.734  11.895
20089W        W86498   2.694  32.059   3.181
20090W        W86499   8.947  25.228  12.641
20091W        W86500  37.331  42.050   0.482
20092W        W86501  33.511   9.581   0.348
20093W        W86502   7.517  16.743   4.877
20094W        W86503  12.665  26.635   2.136
20095W        W86504   5.260  32.926  11.025
20096W        W86505  26.543  12.265   1.470
20097W        W86506  42.073  29.117  11.258
20098W        W86507   6.332  32.136  14.271
20099W        W86508  27.663  25.997   0.804
20100W        W86509  33.365  24.268  12.039
20101W        W86510  28.772   2.404  11.998
20102W        W86511  32.122  30.926  11.586
20103W        W86512   4.352   7.890  13.025
20104W        W86513  41.482  13.565   1.448
20105W        W86514   2.937  42.944  14.492
20106W        W86515  15.418  29.544   3.281
20107W        W86516  28.416  11.181   3.333
20108W        W86517  24.541  31.411   2.604
20109W        W86518  32.562   3.119   2.625
20110W        W86519  25.045  26.968   1.397
20111W        W86520  10.702  25.238  12.661
20112W        W86521  36.387  18.481   5.047
20113W        W86522  21.652  18.624  12.506
20114W        W86523  36.067  10.872  10.676
20115W        W86524  35.466  13.893   1.428
20116W        W86525  37.993  36.769   2.229
20117W        W86526  24.934  26.160   0.270
20118W        W86527  24.968  37.468  12.139
20119W        W86528   3.992   3.353  10.820
20120W        W86529   1.541  30.856  13.113
20121W        W86530  44.927  25.167   1.539
20122W        W86531  19.322  15.275   1.611
20123W        W86532  38.370  17.652  12.209
20124W        W86533   8.919  39.843   4.221
20125W        W86534  15.876  35.799   4.213
20126W        W86535  41.238  26.220   3.786
20127W        W86536  36.330  43.735   0.292
20128W        W86537  41.545  18.664  13.400
20129W        W86538  24.611  42.497   4.241
20130W        W86539   6.894  18.310  14.844
20131W        W86540  18.773  29.096  12.663
20132W        W86541  31.188  33.018   3.794
20133W        W86542  43.419  22.407  14.938
20134W        W86543   8.844  12.236  13.410
20135W        W86544  40.983  29.161   1.457
20136W        W86545  43.536  15.519  13.217
20137W        W86546   4.818   0.849  12.412
20138W        W86547  41.293  17.720  14.475
20139W        W86548   5.391  18.819   3.163
20140W        W86549  39.423  40.585  14.451
20141W        W86550   7.407  33.415  14.686
20142W        W86551  20.133  32.131   4.890
20143W        W86552  33.472  40.522   2.420
20144W        W86553  12.826  26.125  12.596
20145W        W86554   9.227   3.063  13.802
20146W        W86555   1.907  17.582   2.736
20147W        W86556  41.046   3.371  14.672
20148W        W86557   2.251  32.061  11.277
20149W        W86558  32.414  27.934  11.003
20150W        W86559  41.937  40.570  12.103
20151W        W86560  30.809  22.643   0.924
20152W        W86561  26.917  41.549   4.098
20153W        W86562  22.482  42.853   2.770
20154W        W86563   1.598  18.518  11.582
20155W        W86564  36.380   0.770   1.962
20156W        W86565   7.321  44.410   0.405
20157W        W86566   5.676  39.800   1.784
20158W        W86567  26.448  22.574   0.660
20159W        W86568   5.329  34.169   0.479
20160W        W86569  32.872  20.809   4.886
20161W        W86570  28.400  42.025   3.181
20162W        W86571  16.345  32.772   3.415
20163W        W86572   3.503  19.934   4.722
20164W        W86573   2.198  21.354  11.092
20165W        W86574  34.212  29.636  12.430
20166W        W86575  30.743  38.950  11.548
20167W        W86576  15.027  24.658  11.305
20168W        W86577  38.558  38.581  10.917
20169W        W86578  34.087   5.822   3.058
20170W        W86579   4.681   8.281  12.112
20171W        W86580  33.152  30.419   3.168
20172W        W86581  29.830   1.001  10.968
20173W        W86582   4.516  12.736  13.531
20174W        W86583  41.455  35.061   1.424
20175W        W86584  42.730   8.849   1.733
20176W        W86585   8.465  44.289  12.503
20177W        W86586  22.162  24.571   1.378
20178W        W86587  14.613  35.375   1.922
20179W        W86588  25.960  27.861   3.367
20180W        W86589  34.353   4.514  14.858
20181W        W86590   8.904  26.574  10.748
20182W        W86591  32.651  42.594   2.538
20183W        W86592  37.065   6.970   4.172
20184W        W86593   6.849  11.541  11.724
20185W        W86594  42.235   4.917   3.284
20186W        W86595  42.435  37.603   4.242
20187W        W86596  39.631   0.421  12.468
20188W        W86597  11.032  10.382   0.912
20189W        W86598  39.100  19.428  14.507
20190W        W86599  12.411  30.594   1.279
20191W        W86600   9.259   1.977   1.799
20192W        W86601  15.060   7.782  14.460
20193W        W86602  41.906  17.758  10.921
20194W        W86603   2.501  38.044  14.322
20195W        W86604  24.501  42.367  10.830
20196W        W86605  20.586  19.491   3.426
20197W        W86606   4.025  18.068  10.985
20198W        W86607  39.768  27.895  11.087
20199W        W86608  31.424  17.439  12.805
20200W        W86609   1.703  16.723  13.382
20201W        W86610   4.657  14.779   2.026
20202W        W86611  27.280  31.156  14.366
20203W        W86612  19.999  33.745   4.158
20204W        W86613  42.375  11.441   3.116
20205W        W86614   0.868  31.097   0.907
20206W        W86615  29.626  16.616  13.337
20207W        W86616  22.570  17.819  13.456
20208W        W86617  14.250  40.181  12.618
20209W        W86618  16.196  30.103   1.804
20210W        W86619   7.431   8.222  10.959
20211W        W86620  26.720   2.003   3.322
20212W        W86621  44.860  18.036   1.185
20213W        W86622   9.294  27.260   4.132
20214W        W86623   9.201  33.150  13.616
20215W        W86624  11.104  39.916  10.552
20216W        W86625  32.094  10.126  14.850
20217W        W86626  39.455   3.730   2.703
20218W        W86627  16.128  17.217  14.532
20219W        W86628  13.737  21.283  11.919
20220W        W86629  42.892  16.256   0.289
20221W        W86630  30.611  33.182  12.036
20222W        W86631  19.144  35.107  11.103
20223W        W86632  17.966   2.916  11.523
20224W        W86633   9.380  11.677   0.165
20225W        W86634  14.699  28.446   2.516
20226W        W86635  44.210   6.630  12.332
20227W        W86636  37.856  38.917  14.833
20228W        W86637  16.728  29.193   3.701
20229W        W86638  19.493  20.891   2.809
20230W        W86639  28.494  40.202  12.000
20231W        W86640   8.730  41.615  13.250
20232W        W86641  37.499  43.612   4.095
20233W        W86642  29.119   7.943  14.565
20234W        W86643  23.282   5.998   1.675
20235W        W86644   0.530   8.400  12.383
20236W        W86645  32.761   6.333  14.416
20237W        W86646  26.924  15.014   3.628
20238W        W86647  22.615   7.709  11.713
20239W        W86648  14.839  44.554   2.341
20240W        W86649  16.216  10.065  13.689
20241W        W86650   6.215  29.456  10.732
20242W        W86651  17.524  33.074  11.130
20243W        W86652  19.618  40.451  14.481
20244W        W86653  44.966  20.301  11.655
20245W        W86654  22.242  18.020  14.544
20246W        W86655  41.998  12.676   1.359
20247W        W86656  18.149  43.705  11.716
20248W        W86657  22.058   3.728   2.197
20249W        W86658  19.246  14.649  13.294
20250W        W86659  17.222  40.586  12.878
20251W        W86660  36.685   6.045   4.077
20252W        W86661  15.897  22.479  13.367
20253W        W86662  21.064  26.772   2.215
20254W        W86663   0.518  36.439   1.940
20255W        W86664  16.913  10.178  12.428
20256W        W86665  25.520  10.291   3.815
20257W        W86666   1.566   5.223   2.256
20258W        W86667  18.192  35.143  13.814
20259W        W86668  21.170  37.186  10.851
20260W        W86669   4.906  38.495  13.377
20261W        W86670  15.567  34.016  14.796
20262W        W86671  31.276  42.819  13.238
20263W        W86672   1.960   2.781   0.906
20264W        W86673  42.788  35.536   1.510
20265W        W86674  38.479  21.719  14.572
20266W        W86675   5.366  31.406   2.393
20267W        W86676  27.672  40.593  11.205
20268W        W86677  26.661  42.275  12.264
20269W        W86678   4.659   0.885  11.593
20270W        W86679   1.427  44.017   4.194
20271W        W86680   8.695  40.257  12.897
20272W        W86681  32.104   1.224   4.885
20273W        W86682   8.596  22.078   0.218
20274W        W86683  40.902  32.598  11.251
20275W        W86684   0.867  44.044  10.821
20276W        W86685  31.887   5.252   2.549
20277W        W86686  32.363  42.274   3.283
20278W        W86687  40.463  26.253  12.115
20279W        W86688  15.043  39.938  10.665
20280W        W86689  33.127   5.892  11.953
20281W        W86690  14.564   1.414   1.126
20282W        W86691  11.811  30.124   0.657
20283W        W86692  36.105  43.489   2.406
20284W        W86693   8.381  44.405  13.925
20285W        W86694  24.946  19.590  12.382
20286W        W86695  42.189  28.452  14.053
20287W        W86696  22.053  24.779   3.160
20288W        W86697  24.771  26.947   2.224
20289W        W86698  37.158  31.193  11.742
20290W        W86699  12.629   4.585   0.344
20291W        W86700  42.428  36.571   0.889
20292W        W86701   4.220   6.360   2.559
20293W        W86702   9.862  34.585   2.427
20294W        W86703  27.565  37.402   1.870
20295W        W86704   6.168  44.773   0.648
20296W        W86705  27.568  33.508   1.618
20297W        W86706  39.999  14.331   3.786
20298W        W86707  10.113  34.325  11.617
20299W        W86708  42.399  40.793   0.888
20300W        W86709  10.658  26.637  12.493
20301W        W86710  23.376  29.772   4.087
20302W        W86711  24.073   4.232   2.802
20303W        W86712  26.128  10.679  12.047
20304W        W86713  35.187  14.196   2.194
20305W        W86714  27.742   2.403   1.731
20306W        W86715   0.312  17.395   0.736
20307W        W86716  23.861  33.077  12.574
20308W        W86717  11.468  31.113  12.440
20309W        W86718  41.082  37.972   3.669
20310W        W86719  35.106   5.404   2.724
20311W        W86720  11.184  22.052  12.038
20312W        W86721  33.422   6.306   0.119
20313W        W86722  23.598  26.549   4.814
20314W        W86723   9.441  15.471  13.859
20315W        W86724  42.927  31.509   1.286
20316W        W86725  18.615  32.999  14.090
20317W        W86726   1.802  31.597   2.631
20318W        W86727   8.684  41.806   1.450
20319W        W86728  26.659  31.765   0.638
20320W        W86729  27.523  18.802  11.096
20321W        W86730  31.526  40.778  12.973
20322W        W86731  25.922  25.092   3.227
20323W        W86732  39.586  24.111  13.403
20324W        W86733  20.269  21.177   0.379
20325W        W86734   2.958  33.841   0.411
20326W        W86735  41.430  19.028  14.116
20327W        W86736  33.048   2.371   2.201
20328W        W86737   9.936  25.608   3.311
20329W        W86738  13.699  23.203   2.848
20330W        W86739  29.077  38.377   1.379
20331W        W86740  18.134   5.929   4.616
20332W        W86741  27.226  25.681   0.454
20333W        W86742  10.803  37.406  12.117
20334W        W86743  12.283  10.588  14.728
20335W        W86744   8.457  31.369   4.074
20336W        W86745   0.552  16.474  11.618
20337W        W86746  16.311   2.706  10.517
20338W        W86747  16.825  27.296   3.439
20339W        W86748   5.716   9.701  14.919
20340W        W86749   1.825  39.554  10.775
20341W        W86750  16.743  30.075  10.983
20342W        W86751  18.808  10.242   3.755
20343W        W86752  14.983  26.525  12.021
20344W        W86753  41.567  16.813  12.927
20345W        W86754  12.586  29.887   0.242
20346W        W86755   7.244  32.552   3.196
20347W        W86756  11.645  14.613   0.364
20348W        W86757   7.995  23.138   4.097
20349W        W86758  31.054  41.947   4.471
20350W        W86759  14.151   7.928  14.508
20351W        W86760  28.898  30.837  13.789
20352W        W86761  21.496  39.657  10.580
20353W        W86762  13.237  21.973  12.455
20354W        W86763  42.713   7.713  11.105
20355W        W86764  40.600  29.187   0.368
20356W        W86765  20.322  34.423  14.484
20357W        W86766  11.551  41.455   0.933
20358W        W86767  42.929  11.944   3.774
20359W        W86768  42.503  18.559   4.511
20360W        W86769  27.608  38.928   1.826
20361W        W86770   5.497  12.922   3.571
20362W        W86771   4.799  15.113  14.833
20363W        W86772   1.710  13.977  11.488
20364W        W86773  30.001  11.366  11.537
20365W        W86774  28.346  30.598  10.514
20366W        W86775  14.816   0.004  14.964
20367W        W86776  39.536  28.418   3.716
20368W        W86777  14.809  34.751  12.171
20369W        W86778  34.038   5.010  12.996
20370W        W86779  18.800  39.119   1.016
20371W        W86780  40.566  43.483  10.742
20372W        W86781   5.300  10.258   1.513
20373W        W86782  21.944  18.030   3.879
20374W        W86783  21.268  20.339   4.075
20375W        W86784  40.079   8.185   4.297
20376W        W86785  44.605  37.116   3.298
20377W        W86786  30.310   2.402   3.178
20378W        W86787   5.781  35.355  13.434
20379W        W86788  29.884   3.692   0.338
20380W        W86789   1.013  10.209   4.712
20381W        W86790  22.756  25.448   1.492
20382W        W86791  31.827  17.759  14.507
20383W        W86792  25.586  34.123  10.492
20384W        W86793  20.713  28.889   0.453
20385W        W86794   5.815  28.036  12.948
20386W        W86795   8.116  14.032  11.677
20387W        W86796  13.110  25.128  11.116
20388W        W86797  12.335  37.086  11.855
20389W        W86798   7.825  22.791  14.987
20390W        W86799  12.286  26.565   1.782
20391W        W86800   6.610   3.088   3.452
20392W        W86801  10.286  30.405   4.532
20393W        W86802  37.927  13.114   1.018
20394W        W86803  30.636   2.221  10.281
20395W        W86804  43.929  29.892  14.015
20396W        W86805  43.761  41.381  13.389
20397W        W86806  22.465   3.398  12.385
20398W        W86807  30.024  17.857   3.391
20399W        W86808  18.496  39.547   1.897
20400W        W86809  41.000  15.385  10.709
20401W        W86810  15.068  39.537  14.602
20402W        W86811  26.722  36.629  11.977
20403W        W86812   1.218  17.077  11.462
20404W        W86813   2.896  25.085   2.414
20405W        W86814  25.129   4.846  10.218
20406W        W86815   4.926   5.323  10.360
20407W        W86816  38.105  14.300  14.898
20408W        W86817  20.732  41.058   2.467
20409W        W86818   1.717  38.759  14.811
20410W        W86819  28.114   6.259  11.451
20411W        W86820  42.999  39.474   1.876
20412W        W86821  36.407  37.633   2.199
20413W        W86822  38.381  31.975  11.819
20414W        W86823   6.009  10.770   2.698
20415W        W86824  37.612   1.585   2.867
20416W        W86825  44.723  38.025  13.833
20417W        W86826  37.052  23.939   1.945
20418W        W86827  26.030  28.488   0.482
20419W        W86828   6.528   2.802  14.011
20420W        W86829  42.873  11.291  10.809
20421W        W86830  40.033  36.066   4.216
20422W        W86831  17.156  11.395   0.789
20423W        W86832   1.745  27.413   0.837
20424W        W86833  43.859  28.625  10.573
20425W        W86834  19.934   4.475   1.293
20426W        W86835  35.949   3.942  11.851
20427W        W86836   8.302   0.164   5.107
20428W        W86837  41.471  13.267   0.946
20429W        W86838  29.663   4.957   1.339
20430W        W86839  44.411   0.300   3.872
20431W        W86840  31.127   1.808   2.199
20432W        W86841  36.435  11.196   0.175
20433W        W86842   4.772  44.579  12.992
20434W        W86843  41.109  26.183   3.161
20435W        W86844  23.924  15.720  10.662
20436W        W86845   1.743  38.244  14.701
20437W        W86846   2.111  13.834  14.755
20438W        W86847   3.692  42.915  11.432
20439W        W86848  21.133  13.589   0.648
20440W        W86849  34.178  30.883   1.420
20441W        W86850  16.302  19.874   0.866
20442W        W86851   9.375   1.397   2.372
20443W        W86852   5.663   8.714  14.808
20444W        W86853  38.781  37.779  13.921
20445W        W86854  30.496  30.114   4.849
20446W        W86855  44.372  27.653  14.044
20447W        W86856  16.601  26.214   0.446
20448W        W86857   2.507  30.956   3.680
20449W        W86858   3.986  32.092  12.631
20450W        W86859  40.413  29.693   0.389
20451W        W86860   0.200  25.740   4.141
20452W        W86861  17.993  12.688   3.580
20453W        W86862  41.494   5.211  12.971
20454W        W86863  35.003  28.140   3.774
20455W        W86864  16.306   5.830   1.210
20456W        W86865  30.032  28.646   3.412
20457W        W86866   0.746  37.818  14.858
20458W        W86867   2.391  31.023   1.879
20459W        W86868  24.503  23.257  14.613
20460W        W86869  10.310  23.980   1.524
20461W        W86870  29.139  27.960   4.865
20462W        W86871  17.596  31.442   0.953
20463W        W86872   9.314  28.619   0.278
20464W        W86873  34.961  22.707   1.767
20465W        W86874  41.554  38.790   3.275
20466W        W86875   5.216   7.722   2.734
20467W        W86876   9.926  21.002   4.105
20468W        W86877  42.785  30.106  12.602
20469W        W86878  42.505  11.442   4.091
20470W        W86879  13.225  44.323   2.250
20471W        W86880  10.996   3.340  11.908
20472W        W86881   7.373  11.167   3.138
20473W        W86882  10.556   1.010  14.813
20474W        W86883  35.583  15.178   0.332
20475W        W86884  15.614  24.380  12.425
20476W        W86885  30.378  36.613  11.316
20477W        W86886  13.768   9.686   4.588
20478W        W86887  30.408  25.631   2.229
20479W        W86888  31.405   0.758  12.618
20480W        W86889  10.366  25.355   1.247
20481W        W86890   7.833  44.774   3.155
20482W        W86891  41.832  37.920  13.058
20483W        W86892  14.905   1.342  12.323
20484W        W86893  21.540  34.832  14.801
20485W        W86894  32.813   4.708   2.794
20486W        W86895  18.677  21.427   2.817
20487W        W86896  33.011   1.072  10.776
20488W        W86897  13.289   4.488  12.390
20489W        W86898  29.704  23.782   4.596
20490W        W86899  42.018  32.830  14.056
20491W        W86900   7.773  20.984   0.512
20492W        W86901  42.957   2.734  12.942
20493W        W86902  37.043  24.678  13.420
20494W        W86903  44.436  20.242   1.350
20495W        W86904  22.186  40.624  11.776
20496W        W86905  40.919  18.665  11.597
20497W        W86906  36.581  44.439   1.527
20498W        W86907  18.685  18.713  11.172
20499W        W86908  27.670  44.923  11.840
20500W        W86909   4.338   0.845  14.891
20501W        W86910   3.918  26.119  10.551
20502W        W86911  24.293  17.019   0.644
20503W        W86912  12.562  20.147   2.309
20504W        W86913  42.223  26.576  11.852
20505W        W86914  25.199  16.215  13.826
20506W        W86915   7.134  25.868   1.905
20507W        W86916   0.512   3.311   4.602
20508W        W86917  24.579   4.722   3.838
20509W        W86918  33.648  19.262   3.024
20510W        W86919  18.770  29.491   2.624
20511W        W86920  10.723  19.756   2.756
20512W        W86921   7.215   8.294   4.432
20513W        W86922  35.032  22.650  14.407
20514W        W86923  30.853  42.239  10.953
20515W        W86924  28.612   4.751   2.978
20516W        W86925  39.071  19.227  10.514
20517W        W86926  39.091  39.579   3.713
20518W        W86927  43.620  20.716   0.780
20519W        W86928   2.535  19.776  12.018
20520W        W86929   2.086  37.901  13.007
20521W        W86930  34.915  26.156  10.584
20522W        W86931  11.914  44.188   1.405
20523W        W86932  11.722  44.260   5.036
20524W        W86933  12.208  20.258   0.292
20525W        W86934  43.841  21.622  14.421
20526W        W86935  33.508  37.942   4.143
20527W        W86936  41.553  37.369   4.858
20528W        W86937  33.703  22.769  13.377
20529W        W86938  24.705  44.331  14.952
20530W        W86939  39.209  28.494   3.315
20531W        W86940  15.309  25.638  12.060
20532W        W86941  15.635  20.701   0.490
20533W        W86942  12.201  23.326   4.040
20534W        W86943  23.937  20.162   0.321
20535W        W86944  39.412  15.773   1.845
20536W        W86945   4.230  30.488  12.001
20537W        W86946  37.514  22.324   1.456
20538W        W86947  36.067   3.169   1.812
20539W        W86948   0.979  12.531   5.057
20540W        W86949   8.311  43.887  13.338
20541W        W86950   6.389  29.450  11.694
20542W        W86951  12.329  18.610   4.728
20543W        W86952  12.822  31.966  10.561
20544W        W86953  33.715  24.061   4.516
20545W        W86954  40.363  31.384  11.620
20546W        W86955  21.080  38.849   4.618
20547W        W86956   3.731  27.396   0.362
20548W        W86957  29.126  38.211  13.552
20549W        W86958  37.091  21.292  11.708
20550W        W86959  34.823  30.942   0.549
20551W        W86960  28.594  24.233   0.081
20552W        W86961  31.635  24.519   2.467
20553W        W86962  18.159   5.352   2.426
20554W        W86963  16.197   4.173  13.486
20555W        W86964  41.879  40.431   4.357
20556W        W86965  11.317  35.941  14.410
20557W        W86966  11.314  22.797  11.514
20558W        W86967   1.388  29.247   3.223
20559W        W86968  36.510  35.590   2.681
20560W        W86969   3.304  34.625  12.481
20561W        W86970   1.932   4.778   3.657
20562W        W86971  43.709  32.156  14.416
20563W        W86972  28.424   5.799  10.539
20564W        W86973  19.842   8.172  12.068
20565W        W86974  16.242   1.194   0.300
20566W        W86975  29.945   8.324  12.312
20567W        W86976  14.069  15.237  10.966
20568W        W86977  44.876  41.304   4.152
20569W        W86978  18.117  37.854   0.153
20570W        W86979  36.854  20.753   2.751
20571W        W86980  19.691  18.258   2.293
20572W        W86981   5.683  35.865   3.958
20573W        W86982  34.182   5.906   4.094
20574W        W86983  26.242   7.793  11.956
20575W        W86984   0.143  18.609  13.917
20576W        W86985   2.970  14.191   4.184
20577W        W86986  44.273   3.289  11.544
20578W        W86987   2.310   4.392   3.367
20579W        W86988  40.294  14.845   4.618
20580W        W86989  17.105   5.776   1.765
20581W        W86990  12.150  21.746   4.754
20582W        W86991  23.987  12.291  14.025
20583W        W86992  26.640  14.370   3.049
20584W        W86993  16.282  18.020  14.957
20585W        W86994   9.403  13.825  10.695
20586W        W86995  18.130   9.207   2.842
20587W        W86996  12.998  37.932  10.014
20588W        W86997   9.276   3.203  12.898
20589W        W86998  44.011  38.149   4.653
20590W        W86999  33.690   1.180  10.608
20591W        W87000  33.583  15.840  14.455
20592W        W87001  43.878  16.162  12.900
20593W        W87002  30.961   8.953   5.048
20594W        W87003  41.551  11.932  14.312
20595W        W87004  30.915  13.457  12.268
20596W        W87005  34.606  39.760   3.723
20597W        W87006  33.475  32.854  10.698
20598W        W87007  22.120  24.236   2.356
20599W        W87008  31.726  23.960  12.631
20600W        W87009   5.202  39.108   3.345
20601W        W87010  18.430   5.339  11.001
20602W        W87011   9.066  14.836   2.687
20603W        W87012  27.096  11.097  10.340
20604W        W87013  24.665   0.009   1.409
20605W        W87014  20.132  23.464   0.336
20606W        W87015  33.081   6.106   4.654
20607W        W87016  15.823  31.057   4.513
20608W        W87017  39.861   9.334   0.794
20609W        W87018  41.890  40.721  13.414
20610W        W87019  12.455   0.853  14.239
20611W        W87020  24.581  18.546   2.183
20612W        W87021  14.833  30.254   0.409
20613W        W87022   0.770  10.662  11.560
20614W        W87023  27.631   0.509   1.989
20615W        W87024  32.630  28.035  13.919
20616W        W87025   3.459  17.644   4.504
20617W        W87026  32.207  40.850  14.372
20618W        W87027  12.017  17.984  12.500
20619W        W87028  20.706   2.258   2.749
20620W        W87029   3.406  32.468   1.577
20621W        W87030   8.879  38.789   1.718
20622W        W87031   6.234  36.949   1.640
20623W        W87032  30.953  32.604  10.906
20624W        W87033  31.553  26.161   0.222
20625W        W87034   0.593  22.053  13.444
20626W        W87035   9.284  23.604  11.428
20627W        W87036   4.429  43.265   0.802
20628W        W87037  42.353  40.316  11.910
20629W        W87038  36.880  21.093   3.254
20630W        W87039   6.536  18.715  11.714
20631W        W87040  24.637  41.556   1.886
20632W        W87041   9.426  39.883   2.437
20633W        W87042  43.803  26.856  12.852
20634W        W87043  10.809  25.970  14.898
20635W        W87044  41.793  31.347   2.335
20636W        W87045  38.875  13.913  10.280
20637W        W87046   8.957  28.986   3.799
20638W        W87047  43.031  35.537  12.886
20639W        W87048  15.706  30.255  14.745
20640W        W87049  22.298  17.699  13.874
20641W        W87050  10.697  25.017   0.848
20642W        W87051  19.877  13.349   0.349
20643W        W87052   0.360  26.333   1.380
20644W        W87053   1.826  25.630  10.437
20645W        W87054   2.790  14.314   0.198
20646W        W87055  15.679   6.729   3.979
20647W        W87056   3.842  43.921   2.673
20648W        W87057  26.683  29.440  10.722
20649W        W87058  22.696  36.104   3.560
20650W        W87059  17.131  22.848   1.277
20651W        W87060   4.733  33.535  11.331
20652W        W87061  22.944  36.043  12.021
20653W        W87062   2.363  23.568  11.634
20654W        W87063   6.822  18.132   0.331
20655W        W87064   4.456  37.552   0.385
20656W        W87065  16.734  22.510   2.620
20657W        W87066   2.912   0.778   4.526
20658W        W87067  18.237  27.176  13.228
20659W        W87068  41.609  41.468  13.636
20660W        W87069   8.893  19.035  14.232
20661W        W87070  18.532  28.682  14.574
20662W        W87071  13.641  36.600  13.910
20663W        W87072  38.776  27.008  13.078
20664W        W87073  24.650  18.232   4.092
20665W        W87074  11.905  11.952  11.189
20666W        W87075  36.858  34.394   3.160
20667W        W87076  21.727   8.427   0.110
20668W        W87077   8.037  15.268  12.079
20669W        W87078  22.311  32.561   4.672
20670W        W87079  12.656   9.855   2.164
20671W        W87080  25.190  16.686  14.689
20672W        W87081  16.529  12.223  14.380
20673W        W87082  10.060   1.765  10.728
20674W        W87083  41.365  22.089   1.792
20675W        W87084  39.373  21.901   0.484
20676W        W87085  18.346  18.112   1.668
20677W        W87086  42.291  43.598   2.378
20678W        W87087  16.685  35.474  10.466
20679W        W87088  36.018  33.176  14.684
20680W        W87089  38.641  30.442   9.881
20681W        W87090  25.228  40.560   5.260
20682W        W87091   2.321  43.781  14.305
20683W        W87092  10.611  23.728  14.440
20684W        W87093   0.192   4.845  11.151
20685W        W87094   7.357  19.675   0.101
20686W        W87095  37.908  35.262  14.318
20687W        W87096  37.322  13.647  12.031
20688W        W87097  25.701  23.723  12.855
20689W        W87098  40.020  17.003  13.845
20690W        W87099  21.239  13.657   2.844
20691W        W87100  39.938  27.022  14.008
20692W        W87101  13.573   8.870   0.841
20693W        W87102  17.157   5.837  13.026
20694W        W87103  28.357   0.993  12.839
20695W        W87104  26.209   7.384   4.590
20696W        W87105  44.557  11.065  14.884
20697W        W87106  40.777  15.643  13.966
20698W        W87107  20.308  15.125  14.437
20699W        W87108  39.329   2.883  14.069
20700W        W87109  24.971  39.847   2.751
20701W        W87110  37.986  21.275  14.021
20702W        W87111  14.742  30.415  12.082
20703W        W87112   6.354  27.928   2.664
20704W        W87113  29.498   3.740  14.979
20705W        W87114  28.109  18.753   0.165
20706W        W87115  43.779   9.653   3.734
20707W        W87116  34.372  32.607   1.249
20708W        W87117  24.691  37.191   2.277
20709W        W87118  19.479   9.887  12.061
20710W        W87119  32.139  16.313   1.746
20711W        W87120   4.325  40.353   3.688
20712W        W87121  34.885  13.856  14.548
20713W        W87122  12.412  18.677  14.791
20714W        W87123  28.555  22.508   3.594
20715W        W87124  31.396   1.186  14.600
20716W        W87125  28.418  18.828  13.316
20717W        W87126  37.076  19.970  13.903
20718W        W87127  21.611  34.924   4.229
20719W        W87128  33.629  34.633   2.835
20720W        W87129   3.056  43.959  14.775
20721W        W87130   3.015  25.664   4.482
20722W        W87131  35.521  17.556  14.837
20723W        W87132  43.901  28.879  13.829
20724W        W87133  30.879  22.094  13.086
20725W        W87134  25.054  42.337   1.053
20726W        W87135  40.363  23.425  13.378
20727W        W87136  16.763  35.391  13.145
20728W        W87137  28.718  28.952   4.216
20729W        W87138  23.734  28.494   2.205
20730W        W87139  24.611  20.570   9.696
20731W        W87140  39.790   3.815   0.957
20732W        W87141  43.657  42.426  11.150
20733W        W87142  39.035  33.479  12.917
20734W        W87143  43.296  18.257  11.166
20735W        W87144  19.162   9.740   0.419
20736W        W87145   6.471   6.394   2.246
20737W        W87146  19.188   8.178   0.378
20738W        W87147  40.720  33.792   0.224
20739W        W87148  19.611  40.104   3.592
20740W        W87149  44.388   8.725  12.369
20741W        W87150  13.787  24.657   2.327
20742W        W87151   3.346   9.805   3.752
20743W        W87152  20.515  23.079   0.318
20744W        W87153  35.420   2.647   1.283
20745W        W87154  14.410   3.956  13.040
20746W        W87155  40.945  10.528  12.380
20747W        W87156  37.483  12.080  11.883
20748W        W87157  10.540   7.426  13.550
20749W        W87158  42.429  14.179  14.840
20750W        W87159   2.416  34.163   2.850
20751W        W87160  13.878  27.470  11.136
20752W        W87161  31.854  32.126   2.842
20753W        W87162  37.377  13.547   2.239
20754W        W87163  37.618  20.747   0.737
20755W        W87164  10.221  24.751  11.024
20756W        W87165  29.412  18.736  11.676
20757W        W87166   0.990  15.888   3.260
20758W        W87167  26.693   7.888   9.774
20759W        W87168  42.072  13.589   4.632
20760W        W87169  30.564   7.918  12.364
20761W        W87170  23.107  10.750   0.404
20762W        W87171   3.339   9.644   4.628
20763W        W87172   7.826  26.168   4.511
20764W        W87173  36.235  33.678   2.780
20765W        W87174  20.106  41.586  13.871
20766W        W87175  28.595  29.465  14.182
20767W        W87176   2.708  12.230   4.073
20768W        W87177  37.558  29.873   4.038
20769W        W87178  19.078  33.966  11.112
20770W        W87179  10.337  29.546   1.065
20771W        W87180  18.662  28.920  10.633
20772W        W87181  44.512  14.042   1.737
20773W        W87182  39.907  17.720  12.141
20774W        W87183  20.770   3.427  11.567
20775W        W87184  30.889  44.573   4.550
20776W        W87185  17.702  34.331   0.912
20777W        W87186   3.265  32.389   1.090
20778W        W87187  42.009   8.106   3.339
20779W        W87188   4.328  25.394  12.616
20780W        W87189  30.985  30.474  12.513
20781W        W87190  29.637  33.360  13.003
20782W        W87191  24.904  39.714   0.804
20783W        W87192  20.778   1.751   3.747
20784W        W87193  23.123  10.134  12.419
20785W        W87194  18.323  32.458  12.038
20786W        W87195  23.254  42.497   2.402
20787W        W87196   6.400  21.768   4.837
20788W        W87197   2.727  41.598  13.431
20789W        W87198  35.444   3.193   2.536
20790W        W87199  33.307   6.495   1.655
20791W        W87200  30.793   8.246   2.294
20792W        W87201  25.305  37.419  13.545
20793W        W87202  13.133  28.228  10.671
20794W        W87203   5.145   8.638  13.461
20795W        W87204   9.050  31.044   1.185
20796W        W87205  37.523  33.058   2.991
20797W        W87206  16.348  10.733  11.992
20798W        W87207   5.840  10.684   0.074
20799W        W87208  44.517  36.927  10.721
20800W        W87209  34.562  22.042  13.038
20801W        W87210  24.412  28.026  13.337
20802W        W87211  42.888   7.231  11.761
20803W        W87212  24.502  33.068   4.696
20804W        W87213  35.833  38.481  10.712
20805W        W87214  38.279  34.672   4.796
20806W        W87215   3.454   2.319  10.683
20807W        W87216  14.823  26.081   0.341
20808W        W87217  19.631  25.691   0.788
20809W        W87218   5.109  12.251  13.903
20810W        W87219  19.920  38.304   0.961
20811W        W87220  29.237  24.829   0.384
20812W        W87221  16.648   5.750  11.172
20813W        W87222  39.637  42.696   3.606
20814W        W87223  33.441  21.668  10.937
20815W        W87224  14.717  16.793   0.479
20816W        W87225   6.426  27.888  13.446
20817W        W87226  20.068  15.340  14.829
20818W        W87227  13.450  18.522  11.447
20819W        W87228   4.554  42.431  11.158
20820W        W87229  10.255  43.996  12.913
20821W        W87230  29.480  14.236  12.766
20822W        W87231  12.957  37.933  14.872
20823W        W87232  30.172  34.419   2.254
20824W        W87233  19.094  36.798   2.751
20825W        W87234  17.081  18.785   2.769
20826W        W87235  37.998  41.943  12.208
20827W        W87236  16.956  21.243  13.489
20828W        W87237  19.828  39.565  13.530
20829W        W87238  36.565  22.653  10.449
20830W        W87239  34.235   0.489   4.945
20831W        W87240  15.496  43.574   3.781
20832W        W87241  26.158  11.552  12.188
20833W        W87242  39.604  37.430   4.624
20834W        W87243  19.650  32.698  12.846
20835W        W87244  14.368   0.969  10.203
20836W        W87245  25.672   5.125   2.843
20837W        W87246  38.722  27.968   1.711
20838W        W87247  42.810  20.509  14.569
20839W        W87248  21.255  22.550  13.796
20840W        W87249   5.171  40.374  11.573
20841W        W87250  31.355  17.953  12.968
20842W        W87251  19.316  39.254  11.581
20843W        W87252   0.964  17.170   1.333
20844W        W87253  28.471  21.272   0.849
20845W        W87254  19.458  16.139   4.699
20846W        W87255   9.814  10.803  13.738
20847W        W87256  15.640  37.523  11.695
20848W        W87257  42.031   6.466  12.649
20849W        W87258  37.187  43.956  11.177
20850W        W87259   1.413  32.894   3.661
20851W        W87260  32.148  43.806  14.940
20852W        W87261  30.203  34.972   4.352
20853W        W87262   5.275  42.829  12.455
20854W        W87263  32.785  14.845  12.151
20855W        W87264  32.342   6.001  14.398
20856W        W87265  24.569   8.118  12.590
20857W        W87266  16.576  19.463   3.324
20858W        W87267  13.029  38.334  12.841
20859W        W87268  42.296  41.424  13.748
20860W        W87269  23.570  21.302  13.559
20861W        W87270  35.405  35.438   4.660
20862W        W87271   5.906  35.107   1.153
20863W        W87272   5.199  17.246   2.857
20864W        W87273  29.590  17.803   3.679
20865W        W87274  24.975  15.570  11.888
20866W        W87275   5.112  35.805  12.226
20867W        W87276   0.984  23.213  12.538
20868W        W87277   5.735   0.423  11.469
20869W        W87278  37.631  39.460   4.088
20870W        W87279  34.019  37.048   2.886
20871W        W87280  40.510  36.975   4.294
20872W        W87281  41.992  17.657   1.109
20873W        W87282  15.959  29.251  14.898
20874W        W87283  40.928  29.009  14.607
20875W        W87284   7.911  12.041   2.389
20876W        W87285  29.223   7.507   1.269
20877W        W87286  30.928  15.778   3.573
20878W        W87287  43.128  30.442   1.208
20879W        W87288  21.815  31.165  11.643
20880W        W87289  43.804   6.350  13.908
20881W        W87290  18.551  34.510  12.886
20882W        W87291  37.460   7.979   1.926
20883W        W87292   4.992  12.195   1.892
20884W        W87293  14.571   1.396   5.388
20885W        W87294  34.777  39.227  12.564
20886W        W87295  21.709  30.914   0.543
20887W        W87296  34.630  29.871  11.539
20888W        W87297  33.025  23.810  10.895
20889W        W87298  42.589  31.117   2.959
20890W        W87299  19.560  42.840   1.747
20891W        W87300  36.264   6.835  10.615
20892W        W87301  14.365  30.722   3.474
20893W        W87302  44.481  39.281   3.727
20894W        W87303  27.411   2.235   2.116
20895W        W87304  16.058  19.467   3.137
20896W        W87305  24.053  19.933   1.840
20897W        W87306   9.209   6.429  12.798
20898W        W87307  20.498  18.266  12.413
20899W        W87308   4.170  24.070  11.160
20900W        W87309  34.418   0.460   2.751
20901W        W87310  27.772   4.354   4.190
20902W        W87311  43.400  32.495  12.975
20903W        W87312   5.992  11.616  14.905
20904W        W87313  18.592   6.567   3.569
20905W        W87314   0.348  14.090   4.668
20906W        W87315  10.649   5.036  14.088
20907W        W87316   4.706   6.398  12.884
20908W        W87317  10.802  31.902  12.848
20909W        W87318  35.160  42.752  14.382
20910W        W87319  24.613  12.184  11.972
20911W        W87320  29.404  25.071   0.861
20912W        W87321   5.385  39.789   1.284
20913W        W87322   8.823  34.800  13.774
20914W        W87323  37.120   3.885   2.237
20915W        W87324  28.241  42.447  14.806
20916W        W87325  31.403  29.691  10.777
20917W        W87326   9.196   5.835  10.703
20918W        W87327  10.187  34.637  13.256
20919W        W87328  18.624  26.321   2.851
20920W        W87329  12.369  27.071   1.929
20921W        W87330   5.632  37.112   3.847
20922W        W87331  20.770  35.669   4.342
20923W        W87332  34.639  22.037  10.718
20924W        W87333   3.688  28.031   2.738
20925W        W87334  29.588  30.967   0.728
20926W        W87335  27.526   0.968   1.697
20927W        W87336  18.591   5.322   0.708
20928W        W87337  22.920  21.021  10.687
20929W        W87338  23.775  34.886  14.049
20930W        W87339  24.256  20.673   3.798
20931W        W87340  40.787  42.691   0.990
20932W        W87341   5.524  19.099  12.562
20933W        W87342  34.389  23.160  14.675
20934W        W87343   8.307  30.257  12.700
20935W        W87344  38.390  32.229   1.338
20936W        W87345  31.421  33.175   2.954
20937W        W87346  21.987  10.203  10.828
20938W        W87347  34.881  30.915   4.176
20939W        W87348  20.140  42.432   3.667
20940W        W87349   8.619  27.515   1.408
20941W        W87350  30.892   6.244  13.386
20942W        W87351  13.853   9.692   2.119
20943W        W87352  42.978   7.781   3.187
20944W        W87353  31.447   1.951  12.145
20945W        W87354   2.790  36.085   0.897
20946W        W87355  11.695  33.083  13.442
20947W        W87356  20.082  24.898  11.683
20948W        W87357   5.772  37.928  12.088
20949W        W87358   6.235  42.382   4.167
20950W        W87359  10.255  12.678  14.348
20951W        W87360  32.909   3.907  14.507
20952W        W87361  36.953  11.173   4.087
20953W        W87362  30.113  43.084   3.194
20954W        W87363  26.064  41.055   0.421
20955W        W87364  29.164  44.219   4.062
20956W        W87365  34.391  30.348  14.801
20957W        W87366   9.622  37.330   0.843
20958W        W87367   1.121  42.597  14.075
20959W        W87368  32.512  14.135  11.642
20960W        W87369  13.847  24.436   4.530
20961W        W87370   9.214  44.664  11.485
20962W        W87371  36.396   1.390   0.227
20963W        W87372  17.112  44.500  14.897
20964W        W87373  35.525  22.074  11.689
20965W        W87374  43.944  26.517   4.066
20966W        W87375  43.034  13.851   3.395
20967W        W87376  17.120   8.880   0.025
20968W        W87377  21.396   7.164   2.161
20969W        W87378  17.158  10.764   2.628
20970W        W87379  34.931  23.049   4.534
20971W        W87380  22.677  11.719   4.363
20972W        W87381  27.222   5.134  10.966
20973W        W87382  23.452  38.400  12.084
20974W        W87383  44.653  30.891   0.393
20975W        W87384   4.791  28.504   3.649
20976W        W87385  14.197   7.850   2.277
20977W        W87386  33.870   4.942  14.269
20978W        W87387  13.244  31.959   5.073
20979W        W87388  12.206  26.491  14.373
20980W        W87389  37.520  41.772  14.397
20981W        W87390  15.583   5.026   0.219
20982W        W87391  23.457  14.718   0.661
20983W        W87392  14.436  14.689  13.459
20984W        W87393  39.845  40.956   1.183
20985W        W87394   9.731   8.539   2.225
20986W        W87395  39.589   4.820  12.393
20987W        W87396   1.301   3.727  13.480
20988W        W87397  24.782  19.590   2.917
20989W        W87398   3.497  16.143  11.139
20990W        W87399  43.408  38.781  10.981
20991W        W87400  32.590  13.320   3.266
20992W        W87401  44.482  14.699  11.510
20993W        W87402  30.638  15.646  10.943
20994W        W87403  30.734  11.816  13.888
20995W        W87404   9.360  40.859   1.276
20996W        W87405  31.068  36.606  12.956
20997W        W87406  23.639  10.217   4.692
20998W        W87407  22.483   3.533  10.999
20999W        W87408  27.068  41.192  13.283
21000W        W87409  42.078  18.288   4.150
21001W        W87410  29.191  21.239  11.670
21002W        W87411  23.012  21.065   5.018
21003W        W87412  27.009  10.589   0.870
21004W        W87413  14.839  36.280  10.668
21005W        W87414  16.361  23.792  13.589
21006W        W87415  39.968  36.844  12.442
21007W        W87416  34.483  33.747   0.014
21008W        W87417  24.936  32.682   4.179
21009W        W87418   5.386   3.486   2.783
21010W        W87419   0.798   2.166   0.780
21011W        W87420  23.142   6.045  10.534
21012W        W87421   0.084  18.018   4.089
21013W        W87422  22.273  35.448  12.960
21014W        W87423   5.396  34.883   4.061
21015W        W87424  20.283   2.357  14.321
21016W        W87425   7.228  33.086   4.151
21017W        W87426   1.377  39.593  14.397
21018W        W87427  32.473  43.778  11.682
21019W        W87428  13.656  12.883   0.768
21020W        W87429  41.040  25.960  13.102
21021W        W87430   3.997  11.726  12.095
21022W        W87431   7.847  15.086  10.718
21023W        W87432  40.295   3.897  11.625
21024W        W87433  22.739  26.755  11.758
21025W        W87434  19.696   4.895  14.673
21026W        W87435  42.349  40.860  14.339
21027W        W87436  18.699  38.060  12.230
21028W        W87437  27.955  16.662  14.352
21029W        W87438   4.698   8.490  14.309
21030W        W87439  26.804  23.321   4.842
21031W        W87440  31.470  27.027  10.615
21032W        W87441   9.995   8.400  12.810
21033W        W87442   9.185   1.381   1.316
21034W        W87443  43.738  43.736  12.856
21035W        W87444  25.106  24.515  12.033
21036W        W87445  33.900  32.209  12.866
21037W        W87446  22.705   1.892  12.524
21038W        W87447   4.953  22.127   2.369
21039W        W87448  40.409  44.525   4.292
21040W        W87449  17.748  12.362  13.917
21041W        W87450  29.624   6.637  10.523
21042W        W87451  11.701  44.327  11.868
21043W        W87452  31.685  16.954   4.496
21044W        W87453   2.301   2.506  14.490
21045W        W87454  27.743  43.015   4.322
21046W        W87455  23.124  41.064   3.194
21047W        W87456  22.726  28.896   3.266
21048W        W87457   5.160   0.513  10.744
21049W        W87458  41.494  14.461  11.561
21050W        W87459  35.084  14.051  14.066
21051W        W87460   5.866  33.778  12.615
21052W        W87461  34.330  16.641  12.173
21053W        W87462  13.126   4.737   3.185
21054W        W87463  14.601   6.382   3.393
21055W        W87464  27.149  16.813   1.650
21056W        W87465  31.910   3.397  13.877
21057W        W87466  44.778  42.919  12.099
21058W        W87467  22.622  36.486   4.348
21059W        W87468  23.977  43.298   1.539
21060W        W87469  42.471  28.901  14.069
21061W        W87470   4.700   4.825  11.068
21062W        W87471  21.545  40.801   4.979
21063W        W87472  12.821  15.108   1.390
21064W        W87473  37.917  36.791   4.498
21065W        W87474  24.071  20.668   0.317
21066W        W87475  42.561   7.697   5.353
21067W        W87476  37.805  29.141   0.245
21068W        W87477  44.974  23.648   2.254
21069W        W87478  44.965   4.502  13.652
21070W        W87479  10.104  27.562   1.233
21071W        W87480   3.284  14.589   4.047
21072W        W87481  23.701  14.054   0.762
21073W        W87482  18.170  29.974  14.957
21074W        W87483  31.874  14.626   3.664
21075W        W87484  10.916   9.132   0.579
21076W        W87485  23.919   6.809   1.382
21077W        W87486  16.330  11.148  13.847
21078W        W87487  23.075  36.162   4.222
21079W        W87488   3.637  44.191  14.638
21080W        W87489  20.854  42.025  13.582
21081W        W87490  30.594  23.096  14.501
21082W        W87491  10.403  11.046  13.536
21083W        W87492  37.982  16.929   1.296
21084W        W87493  24.436  30.369  12.238
21085W        W87494  35.566  27.469   1.178
21086W        W87495  11.325  29.898   2.430
21087W        W87496  21.304  24.567   2.715
21088W        W87497  15.269  19.901   3.716
21089W        W87498  20.510   7.456  12.521
21090W        W87499   5.462  30.086   0.505
21091W        W87500  26.397  37.643  12.854
21092W        W87501  28.757  14.622   1.431
21093W        W87502   2.422  40.917  14.497
21094W        W87503  20.146   0.220   1.278
21095W        W87504  34.884  35.949  12.919
21096W        W87505  13.666  43.763   0.382
21097W        W87506  37.617  44.948   3.064
21098W        W87507  10.190   6.377  11.122
21099W        W87508  11.597   6.239   0.230
21100W        W87509  40.704   4.397  10.815
21101W        W87510  26.529   7.638   2.848
21102W        W87511  41.479  21.810  14.273
21103W        W87512   0.291  37.619  11.470
21104W        W87513  37.438   4.003  13.754
21105W        W87514  20.556   8.190   1.240
21106W        W87515  42.613   0.685   0.957
21107W        W87516   0.728  12.593   2.426
21108W        W87517   2.901  29.160  12.929
21109W        W87518   0.124   8.801   2.259
21110W        W87519  43.404  10.239  10.771
21111W        W87520   1.488  38.745   0.357
21112W        W87521  40.486  22.649   4.571
21113W        W87522  19.479   9.299  10.751
21114W        W87523  35.580  10.357   4.547
21115W        W87524  44.849  24.939   3.389
21116W        W87525   2.976  35.732   3.121
21117W        W87526  33.506   5.192   0.857
21118W        W87527  38.934  27.985  11.692
21119W        W87528  35.323   8.940  11.454
21120W        W87529   7.455  34.531  14.867
21121W        W87530  43.670  32.896  11.642
21122W        W87531  17.671   3.649   1.935
21123W        W87532  39.268  36.773  11.954
21124W        W87533  42.112  42.091   1.208
21125W        W87534  37.352  39.438  11.647
21126W        W87535  27.540  42.538  10.789
21127W        W87536  26.103   0.233   0.352
21128W        W87537   2.315  43.008  10.141
21129W        W87538  14.833  25.476  14.677
21130W        W87539  21.528  42.485   4.592
21131W        W87540  39.545   6.714   4.249
21132W        W87541  19.097   2.134   0.721
21133W        W87542  24.259  41.491  13.870
21134W        W87543  26.868  28.497   4.201
21135W        W87544  40.997  43.976   2.778
21136W        W87545   5.637   0.066   4.526
21137W        W87546   0.901   3.262  13.089
21138W        W87547  12.500  37.964   1.816
21139W        W87548  19.741  29.452   3.874
21140W        W87549  11.759   3.521  10.699
21141W        W87550   1.388  14.708  13.340
21142W        W87551  28.078  18.142  14.465
21143W        W87552  32.043  35.476   4.672
21144W        W87553  26.466  16.011   3.335
21145W        W87554  28.152  39.044  11.198
21146W        W87555  32.914   1.232   1.751
21147W        W87556  35.358  26.999   2.924
21148W        W87557  21.058  12.046  11.498
21149W        W87558  19.203  32.389  12.651
21150W        W87559  16.670   3.671   3.767
21151W        W87560  38.380  31.087  11.643
21152W        W87561  24.059  28.412   0.699
21153W        W87562  11.084  23.834  11.386
21154W        W87563  38.090  29.416   1.524
21155W        W87564  36.541  35.317  14.301
21156W        W87565  25.910  13.693   1.641
21157W        W87566  34.440  44.425   3.269
21158W        W87567  25.727  37.190  14.793
21159W        W87568   1.764  39.646   1.285
21160W        W87569  27.265  39.951  13.874
21161W        W87570  12.608  22.685  13.385
21162W        W87571   0.401  17.210   2.181
21163W        W87572  23.592  43.287   0.267
21164W        W87573  14.351  34.376  12.944
21165W        W87574   1.396  25.613   0.918
21166W        W87575  13.560  17.270  11.125
21167W        W87576  33.394  18.499   1.880
21168W        W87577  34.720  17.520   2.344
21169W        W87578  12.679  37.655   9.728
21170W        W87579  33.873   8.879   1.668
21171W        W87580  27.948  37.338   0.363
21172W        W87581  23.884  11.399   3.293
21173W        W87582   3.876  23.900  12.444
21174W        W87583   7.850  42.821  14.729
21175W        W87584   3.829  43.921  11.788
21176W        W87585   5.994   3.266   3.651
21177W        W87586  32.418  29.117   0.911
21178W        W87587  13.679   4.373  13.076
21179W        W87588   1.726  23.038  11.961
21180W        W87589  25.725  31.609  10.388
21181W        W87590   0.631  21.906   2.193
21182W        W87591  35.685   0.060  12.829
21183W        W87592  30.862   9.889   5.666
21184W        W87593  11.215  17.524   4.749
21185W        W87594  32.367   4.457   1.833
21186W        W87595  39.969  11.198  14.512
21187W        W87596  15.734   0.739   3.581
21188W        W87597   9.976  22.391  15.000
21189W        W87598  30.484  23.321   4.547
21190W        W87599  39.713  21.192  13.886
21191W        W87600  21.734   1.272   4.484
21192W        W87601  20.688  27.248  14.124
21193W        W87602  26.685  13.856   2.276
21194W        W87603  27.219  14.667   3.919
21195W        W87604  39.843  15.103   1.386
21196W        W87605  31.150  13.610  12.967
21197W        W87606  15.767  29.518   4.194
21198W        W87607  30.416  20.541  14.432
21199W        W87608  11.401  22.430   2.344
21200W        W87609  39.052  24.988   3.243
21201W        W87610  31.617  41.505   0.525
21202W        W87611  39.845  12.176  13.315
21203W        W87612  10.986  44.053   2.279
21204W        W87613  10.805  44.840   0.458
21205W        W87614   2.445  26.776  12.101
21206W        W87615  16.648  44.753   3.720
21207W        W87616  27.102  14.143  11.608
21208W        W87617  38.160  31.021  14.423
21209W        W87618   8.837  44.456  12.872
21210W        W87619  36.001  32.473   0.222
21211W        W87620  19.288  26.017   3.452
21212W        W87621  23.324  37.254  12.483
21213W        W87622   8.812  41.568  12.047
21214W        W87623   1.907  23.418  11.098
21215W        W87624   1.448  29.162  14.380
21216W        W87625   7.144  40.627  12.777
21217W        W87626  26.673  40.965   3.408
21218W        W87627  30.075  12.530   1.531
21219W        W87628   2.862  12.351   2.719
21220W        W87629  18.032  32.339   0.108
21221W        W87630   4.689  17.296   4.095
21222W        W87631  12.912  13.842   1.477
21223W        W87632  36.582  13.594  11.461
21224W        W87633  28.826  28.949  12.915
21225W        W87634  24.534  24.732   4.045
21226W        W87635  44.670  36.126   0.963
21227W        W87636  30.886  43.472   2.653
21228W        W87637  41.278  36.072  12.980
21229W        W87638  19.860  23.624   2.237
21230W        W87639   0.947   4.914   1.286
21231W        W87640  11.800  40.536  13.055
21232W        W87641   7.678  16.749   4.391
21233W        W87642  13.850   1.958   3.549
21234W        W87643  20.485  15.226  12.525
21235W        W87644  18.740  17.644   4.415
21236W        W87645   8.789  17.641   1.934
21237W        W87646  14.392   5.895  14.072
21238W        W87647   4.873  14.382   2.867
21239W        W87648  11.854  17.557  14.041
21240W        W87649  31.148  35.549   3.608
21241W        W87650  21.453  33.571  11.509
21242W        W87651  36.994  37.337   2.913
21243W        W87652   4.473  23.561  14.705
21244W        W87653   6.229   2.789  14.426
21245W        W87654  24.273   6.407  11.696
21246W        W87655  42.913   3.270   4.559
21247W        W87656   1.026  16.810  12.898
21248W        W87657  36.586  29.964   1.728
21249W        W87658  36.911  40.733   4.288
21250W        W87659  34.422  43.985  12.331
21251W        W87660  28.944  28.234  11.511
21252W        W87661   3.535  12.918  11.542
21253W        W87662  16.475  21.474  14.748
21254W        W87663  27.241  31.390  10.507
21255W        W87664  20.056  35.894  11.999
21256W        W87665  10.507   3.968  10.311
21257W        W87666   2.906  26.007  13.557
21258W        W87667  18.622  39.228  10.033
21259W        W87668  36.067  23.178   4.332
21260W        W87669  13.624   0.250   1.339
21261W        W87670  26.430   9.493   3.126
21262W        W87671  20.980  23.735   4.948
21263W        W87672  29.654  24.257   1.395
21264W        W87673  37.781   1.850   1.512
21265W        W87674  34.832   2.757   2.273
21266W        W87675   6.278  31.349   3.719
21267W        W87676  29.168   7.326  11.124
21268W        W87677  32.222  44.982   2.126
21269W        W87678   4.110  28.001  14.008
21270W        W87679  11.104  11.465  11.885
21271W        W87680  25.945  25.953   2.674
21272W        W87681  27.082  11.233  10.825
21273W        W87682  20.004   3.326   3.292
21274W        W87683   2.343  35.343  13.886
21275W        W87684  42.984  23.781  12.477
21276W        W87685  10.585  26.610  13.983
21277W        W87686   2.713  36.571   2.713
21278W        W87687  27.038  29.363  11.107
21279W        W87688  26.914  31.791  13.869
21280W        W87689  31.652  42.366   0.449
21281W        W87690   8.797   0.565  11.541
21282W        W87691  40.003  10.405   3.326
21283W        W87692  40.075  38.873   2.376
21284W        W87693   8.814  21.978   0.694
21285W        W87694   0.451  25.298  13.320
21286W        W87695  15.401   3.131   2.141
21287W        W87696   1.892  35.603  13.917
21288W        W87697  43.021  36.175  11.028
21289W        W87698  18.190  13.120  12.228
21290W        W87699   2.516  31.764  10.311
21291W        W87700   9.119  31.006   9.591
21292W        W87701  27.054  21.791   1.352
21293W        W87702   9.017  39.343  14.585
21294W        W87703  20.202  26.470  11.591
21295W        W87704  28.081  22.005  11.629
21296W        W87705  10.194   7.791  14.017
21297W        W87706  26.437  38.710   1.383
21298W        W87707   9.750   5.775   1.457
21299W        W87708  17.159   5.880  14.417
21300W        W87709  32.403   4.295   0.758
21301W        W87710   3.720  27.030  14.972
21302W        W87711  36.804   5.947   2.365
21303W        W87712  33.052  19.117  12.785
21304W        W87713   2.085   0.293   4.117
21305W        W87714  27.929  16.291   1.255
21306W        W87715   2.912  20.717  11.712
21307W        W87716   9.831  28.049   1.373
21308W        W87717   6.161  33.150   0.208
21309W        W87718  28.937  13.214   3.624
21310W        W87719   4.316   4.474   4.564
21311W        W87720  13.218   6.871  12.927
21312W        W87721  20.145  42.713   3.057
21313W        W87722  40.548  25.030   2.447
21314W        W87723  18.688  42.995   5.133
21315W        W87724   2.741  26.293  14.475
21316W        W87725  25.595   4.302   3.855
21317W        W87726   2.127  13.186  12.540
21318W        W87727  28.991  36.097  12.123
21319W        W87728  18.199  26.284   3.845
21320W        W87729   6.209  24.951  11.881
21321W        W87730   5.505  30.961  11.091
21322W        W87731  24.691   8.840   5.213
21323W        W87732  19.892  25.036   4.440
21324W        W87733  23.702  38.745  14.571
21325W        W87734  18.507  33.848   2.850
21326W        W87735  43.583  13.067  11.536
21327W        W87736   1.060   3.435   2.386
21328W        W87737  29.291  18.718  14.571
21329W        W87738   0.675  11.108   0.821
21330W        W87739   9.935   5.663   0.746
21331W        W87740   0.725  22.475  10.707
21332W        W87741  22.906  16.394   1.657
21333W        W87742   0.224  28.981   3.690
21334W        W87743  42.324  37.355   1.790
21335W        W87744  10.825  23.733  12.532
21336W        W87745  23.360  17.283  12.119
21337W        W87746  11.236  37.860   4.551
21338W        W87747  32.053  28.622   2.609
21339W        W87748  21.546  29.494   1.742
21340W        W87749   8.082  35.795   3.776
21341W        W87750   1.250  15.539  10.330
21342W        W87751  36.554  18.250   3.328
21343W        W87752  30.386  18.408   1.770
21344W        W87753   6.501   2.306   2.411
21345W        W87754   1.255   8.198   5.360
21346W        W87755  21.556  40.190  10.673
21347W        W87756  42.532  16.520   1.502
21348W        W87757   5.985  42.331  12.123
21349W        W87758   2.441   6.803  13.842
21350W        W87759  17.365  27.227   1.213
21351W        W87760   1.558  18.514  13.333
21352W        W87761  15.633  31.113  13.507
21353W        W87762  20.171  10.285  13.458
21354W        W87763  41.329   6.683   1.520
21355W        W87764  43.467  30.539  11.621
21356W        W87765   3.926  43.195   1.977
21357W        W87766  29.537  30.448  14.793
21358W        W87767   7.350  44.600   2.496
21359W        W87768  39.325   8.820   3.848
21360W        W87769  44.072  22.030  13.335
21361W        W87770  44.911  17.482  12.527
21362W        W87771  11.842  34.036  12.897
21363W        W87772  19.741  33.502  12.168
21364W        W87773   3.300  12.775   0.961
21365W        W87774  41.493  40.608   2.785
21366W        W87775  31.982  13.594  10.801
21367W        W87776   5.202  14.520  14.100
21368W        W87777  39.240  30.494  13.698
21369W        W87778   3.419  25.829   2.364
21370W        W87779   7.386  18.437  11.671
21371W        W87780  23.141  44.939  14.579
21372W        W87781  41.075  33.597   2.722
21373W        W87782  14.983   1.480  11.513
21374W        W87783  43.814  15.878  11.011
21375W        W87784   7.419  37.391  12.280
21376W        W87785   6.485  19.673  11.152
21377W        W87786   8.937  24.072   1.792
21378W        W87787  35.236  42.898   4.421
21379W        W87788  25.978  26.178  12.937
21380W        W87789  13.107  43.927  12.153
21381W        W87790  28.079  28.067  12.445
21382W        W87791   0.091  41.486   0.405
21383W        W87792  35.285  44.876  14.149
21384W        W87793  43.211   4.945  11.407
21385W        W87794  12.858  32.146   1.762
21386W        W87795  20.600  36.149  13.084
21387W        W87796   6.600  26.263   4.968
21388W        W87797  33.426  11.690   2.359
21389W        W87798  25.228   3.193  10.564
21390W        W87799  26.211  10.037  11.179
21391W        W87800  36.862  40.011   1.101
21392W        W87801  13.781  26.063   0.024
21393W        W87802   2.954  35.371   1.765
21394W        W87803  44.429   1.560  10.443
21395W        W87804  33.515  39.452   1.187
21396W        W87805  24.432   9.171   5.519
21397W        W87806  17.585  38.397  12.859
21398W        W87807  14.679  24.748   4.736
21399W        W87808   9.606   8.726  13.038
21400W        W87809  34.961  18.219   4.590
21401W        W87810  20.011   5.284  14.038
21402W        W87811  17.075  23.290   4.095
21403W        W87812  41.278  29.846  12.095
21404W        W87813   8.205  22.099   4.625
21405W        W87814  19.237  35.083   2.404
21406W        W87815  22.705  20.241   0.716
21407W        W87816  14.591  12.524  12.042
21408W        W87817  10.287  30.373   5.052
21409W        W87818  29.148   1.932   3.157
21410W        W87819  37.982  27.908  12.465
21411W        W87820  27.137  43.349  14.540
21412W        W87821  18.118  38.697   2.000
21413W        W87822  27.758  18.478  13.522
21414W        W87823   4.515  31.432  11.962
21415W        W87824  26.423  20.445  11.021
21416W        W87825   1.777  18.989  11.237
21417W        W87826  19.441   1.448  11.066
21418W        W87827   4.126  41.969  10.555
21419W        W87828  19.339  44.874   2.856
21420W        W87829  21.001  37.885   3.194
21421W        W87830  36.874  38.826  12.555
21422W        W87831  13.753  16.668   1.509
21423W        W87832   2.738  34.718   3.125
21424W        W87833  27.173  14.746   2.281
21425W        W87834  18.278  29.680  12.582
21426W        W87835  12.111  29.937  13.829
21427W        W87836  23.053  29.593  10.822
21428W        W87837  13.851  32.671  11.319
21429W        W87838  36.441   2.340   3.121
21430W        W87839  43.681  12.609  13.408
21431W        W87840  26.925  27.163   0.490
21432W        W87841  42.944  28.466  14.721
21433W        W87842   3.198   8.687  10.270
21434W        W87843  13.185  10.106  13.008
21435W        W87844  27.543  33.176  14.324
21436W        W87845  42.981  40.878   4.820
21437W        W87846  39.792   6.271   4.312
21438W        W87847  17.033   9.171  13.333
21439W        W87848  11.282   4.029  10.670
21440W        W87849  41.574  37.337   0.340
21441W        W87850   4.241   9.702  14.877
21442W        W87851   5.136  36.967  12.709
21443W        W87852  11.343   0.849   3.133
21444W        W87853   4.771  37.942   2.411
21445W        W87854  10.751  14.136  13.857
21446W        W87855  40.011   0.436  11.565
21447W        W87856   4.690  39.027  14.964
21448W        W87857   2.063  16.132   4.033
21449W        W87858   2.737  12.150   1.290
21450W        W87859  39.517  10.132  14.542
21451W        W87860   6.774  44.530   3.675
21452W        W87861  28.386  13.119  10.772
21453W        W87862   3.706  42.876   1.157
21454W        W87863  44.006  22.463  14.051
21455W        W87864  15.864   3.734  14.609
21456W        W87865   1.017  12.268   1.976
21457W        W87866   4.809  37.055   4.140
21458W        W87867   0.123  12.027   1.623
21459W        W87868  19.247   1.733  14.851
21460W        W87869  17.729  26.320  11.042
21461W        W87870   6.879   8.097  11.982
21462W        W87871   9.283  22.633   0.204
21463W        W87872  13.752  39.020  12.454
21464W        W87873  40.841  25.752   1.195
21465W        W87874   1.277  25.309  13.003
21466W        W87875  43.317  18.099  11.657
21467W        W87876  24.938  13.734  14.471
21468W        W87877  18.307  41.541  14.327
21469W        W87878  39.751   0.386  13.356
21470W        W87879  33.327  43.889   4.529
21471W        W87880  36.305   5.194   3.254
21472W        W87881  25.522  11.219   0.067
21473W        W87882  37.567  12.855   4.903
21474W        W87883   4.419  25.461   2.356
21475W        W87884  11.473   3.169  11.921
21476W        W87885  18.508   3.411  12.867
21477W        W87886  40.359  33.293   2.782
21478W        W87887  10.775   9.644  12.791
21479W        W87888  14.610  44.761   0.876
21480W        W87889  41.995  14.612  13.376
21481W        W87890  19.528  22.665  11.182
21482W        W87891   5.427  23.443   1.335
21483W        W87892   5.806  16.368   4.319
21484W        W87893  44.240  14.769  12.935
21485W        W87894  15.652  37.045  14.386
21486W        W87895  44.948  21.559   4.113
21487W        W87896  24.692  23.843   1.452
21488W        W87897  10.361  21.431  10.613
21489W        W87898  37.424  32.975   1.569
21490W        W87899   5.766  20.598   3.398
21491W        W87900  36.646  38.163  12.004
21492W        W87901  10.210  38.921   4.229
21493W        W87902   0.721  34.567  13.270
21494W        W87903   2.379  19.788  13.073
21495W        W87904   3.641  10.227  12.607
21496W        W87905  15.076  32.541   2.940
21497W        W87906  32.453  28.197   0.338
21498W        W87907  19.864  29.603   5.228
21499W        W87908   5.344  33.603  14.336
21500W        W87909  32.090  29.176  14.989
21501W        W87910  42.229  41.953   4.672
21502W        W87911  16.131  36.521   3.790
21503W        W87912   6.936  17.018   1.069
21504W        W87913  30.232  15.610   3.223
21505W        W87914  37.376  19.078   3.695
21506W        W87915  27.390   4.818  12.590
21507W        W87916  32.939  40.468   2.287
21508W        W87917  21.521  35.913   4.129
21509W        W87918  36.311  23.609   0.690
21510W        W87919  41.518  17.027   9.893
21511W        W87920  13.824  35.941   5.444
21512W        W87921  15.543  42.836  11.129
21513W        W87922  35.394   1.730   1.104
21514W        W87923  41.440  44.673  14.400
21515W        W87924   5.749   3.585  12.238
21516W        W87925  24.023   8.954   3.612
21517W        W87926  40.217  14.126   1.490
21518W        W87927  27.942  21.501   2.382
21519W        W87928  19.587   9.433   3.684
21520W        W87929  20.264   1.961   1.378
21521W        W87930  30.106   7.916  10.610
21522W        W87931  16.101  31.494  13.948
21523W        W87932   3.416  30.094  11.400
21524W        W87933  26.944  34.552  13.459
21525W        W87934   6.735  39.756   2.711
21526W        W87935  13.085  28.983  12.933
21527W        W87936  19.248  31.568   2.589
21528W        W87937   4.525  16.117   4.246
21529W        W87938  21.432  17.609   4.344
21530W        W87939  26.796  18.301   3.639
21531W        W87940  44.759  32.934   4.959
21532W        W87941  42.955   8.122  13.417
21533W        W87942  29.568  14.733   2.221
21534W        W87943  25.533  16.465  11.014
21535W        W87944   8.074   7.614  12.990
21536W        W87945  40.871  19.826   1.206
21537W        W87946   9.642  25.694  13.279
21538W        W87947  17.689   7.490  12.505
21539W        W87948  44.490  37.563   0.472
21540W        W87949  28.593  29.649  14.667
21541W        W87950  41.540  26.670   0.502
21542W        W87951  16.068  40.079   3.185
21543W        W87952  41.837  23.550   1.319
21544W        W87953  42.990  42.727   4.655
21545W        W87954  15.016  31.441   3.634
21546W        W87955   2.400  33.190  12.093
21547W        W87956  42.034  16.677  10.691
21548W        W87957  19.114  28.109  10.998
21549W        W87958  18.178  28.704  12.085
21550W        W87959   8.120  39.410   2.155
21551W        W87960  11.534  28.880  12.936
21552W        W87961  26.724  33.032   4.072
21553W        W87962  13.660  27.628  12.524
21554W        W87963  10.815  15.748  11.950
21555W        W87964  44.359  24.093  11.026
21556W        W87965  39.112  40.548   0.945
21557W        W87966  38.333  10.806   4.464
21558W        W87967  11.970   4.737  13.005
21559W        W87968   9.074  42.407   0.356
21560W        W87969  40.090  17.123   3.151
21561W        W87970  25.837  19.980  14.254
21562W        W87971  36.086  21.422  10.527
21563W        W87972  34.832  13.584  14.133
21564W        W87973  42.891   3.779   3.270
21565W        W87974  43.923  40.078  10.855
21566W        W87975  12.058  22.239   1.546
21567W        W87976   8.536  28.064  12.159
21568W        W87977   6.747  25.862   3.121
21569W        W87978   3.999   1.288  13.514
21570W        W87979  35.542  15.312  14.062
21571W        W87980  30.664  44.063   1.210
21572W        W87981  36.995  43.459  13.591
21573W        W87982  12.706  22.116   1.793
21574W        W87983  16.547  41.534   1.931
21575W        W87984  36.947  35.586  14.437
21576W        W87985  44.762  27.395   1.712
21577W        W87986  39.937  19.194  14.488
21578W        W87987   9.533   1.923  10.058
21579W        W87988  41.691  11.603   2.492
21580W        W87989  38.302  14.648   0.439
21581W        W87990  19.661  23.460  14.467
21582W        W87991   5.290   3.210   0.916
21583W        W87992  13.953  33.333   0.325
21584W        W87993  10.162  36.077   3.727
21585W        W87994   4.807  40.276   4.642
21586W        W87995  44.961  27.858  10.691
21587W        W87996  13.837   8.267   4.890
21588W        W87997  26.218  25.641   4.024
21589W        W87998   1.393   4.640   1.341
21590W        W87999  44.846  22.319   4.444
21591W        W88000  20.326   9.235   0.741
21592W        W88001  35.600  21.510   3.746
21593W        W88002   8.359   7.907  12.668
21594W        W88003   0.437   6.553   0.343
21595W        W88004   6.596  33.537  11.340
21596W        W88005  38.056  30.032   1.040
21597W        W88006  26.107  30.941   0.391
21598W        W88007  41.809  36.593  12.217
21599W        W88008  27.476  42.510  13.507
21600W        W88009  43.102  39.890  10.559
21601W        W88010  25.319  25.047  14.315
21602W        W88011  29.095  29.389  12.835
21603W        W88012  40.524  22.201   2.345
21604W        W88013  24.624  41.113  14.414
21605W        W88014   1.488  31.856   2.313
21606W        W88015  17.683   9.953   4.208
21607W        W88016   4.004  39.498  12.011
21608W        W88017  41.888  23.867  11.820
21609W        W88018  33.871  12.723  13.098
21610W        W88019  44.956  39.475  10.330
21611W        W88020   3.267  28.743  14.028
21612W        W88021  39.205  30.031  10.723
21613W        W88022  18.657  15.813  12.107
21614W        W88023  38.126   3.266   3.913
21615W        W88024  20.727  39.803  12.417
21616W        W88025  44.146   5.343   4.729
21617W        W88026  42.972  25.216   2.935
21618W        W88027  25.124   2.843   2.190
21619W        W88028  25.101  16.379  11.264
21620W        W88029  10.817  19.518   3.251
21621W        W88030   9.237  10.002  12.947
21622W        W88031  40.655  23.251  13.797
21623W        W88032   3.731  17.032   3.129
21624W        W88033  10.327  42.720  14.972
21625W        W88034  28.077  32.812   1.115
21626W        W88035  22.609  12.398  13.923
21627W        W88036  43.702  22.470   4.135
21628W        W88037  27.234  27.127  12.990
21629W        W88038   2.929   0.502  12.843
21630W        W88039   8.146  42.614  14.340
21631W        W88040  36.910  40.571   3.787
21632W        W88041  17.455  18.369  14.473
21633W        W88042  13.686  38.082   0.421
21634W        W88043  19.550  30.345   4.121
21635W        W88044  11.329  41.431   0.463
21636W        W88045  33.110  43.894   0.200
21637W        W88046   7.303  30.122   2.890
21638W        W88047  10.362  28.563  13.784
21639W        W88048  25.442   8.389  11.205
21640W        W88049  16.830  36.918   0.032
21641W        W88050  29.121  26.507   3.726
21642W        W88051  15.344   8.351  12.999
21643W        W88052  34.311  44.457   2.330
21644W        W88053   4.052  38.591  12.136
21645W        W88054  23.170  40.391  14.869
21646W        W88055  24.600   8.789   1.811
21647W        W88056   7.801   3.991   0.024
21648W        W88057  36.635  32.401  10.429
21649W        W88058  33.506  44.822  10.887
21650W        W88059   5.352  18.799  12.152
21651W        W88060  30.539  14.145  13.448
21652W        W88061   9.843   3.565  11.194
21653W        W88062  21.762  35.469  12.971
21654W        W88063  36.749  40.584  11.292
21655W        W88064  10.441  30.974  12.497
21656W        W88065  38.838   1.092   4.931
21657W        W88066  18.588  24.513   4.110
21658W        W88067  20.258   0.294  11.947
21659W        W88068  27.093   9.748   1.345
21660W        W88069  39.602   4.505   3.100
21661W        W88070  27.930  30.922  11.193
21662W        W88071  16.757   5.166  10.369
21663W        W88072  22.677  18.297  13.586
21664W        W88073  16.564  38.503   2.222
21665W        W88074   5.887  35.480  10.738
21666W        W88075   0.443  22.635   3.207
21667W        W88076   6.757  33.145   4.388
21668W        W88077  18.183  21.008   4.532
21669W        W88078  18.513  15.518  12.498
21670W        W88079   4.858  21.642  10.727
21671W        W88080  25.810  19.429  10.655
21672W        W88081  12.270  10.620   4.567
21673W        W88082  42.011  27.985  13.949
21674W        W88083  33.093  10.206  12.546
21675W        W88084  36.032   8.532   3.626
21676W        W88085  15.311   5.964   2.680
21677W        W88086  40.430  21.971  13.923
21678W        W88087  16.810  43.271   1.282
21679W        W88088  20.284   1.228   3.623
21680W        W88089   2.393  14.241  13.142
21681W        W88090  12.215   8.186   4.557
21682W        W88091  11.250   5.556  10.960
21683W        W88092  33.508  36.556   0.830
21684W        W88093   4.867  42.912   2.587
21685W        W88094  25.732   2.228   4.172
21686W        W88095  12.280  24.765   1.447
21687W        W88096  29.782   7.218   4.112
21688W        W88097  17.698  30.590  14.763
21689W        W88098   8.696  42.816   2.291
21690W        W88099  38.263  11.632   4.028
21691W        W88100  16.719   3.948   4.665
21692W        W88101  10.969  37.849  11.062
21693W        W88102  26.478  29.335   4.974
21694W        W88103  11.267   9.793  14.947
21695W        W88104  39.120  26.492   0.918
21696W        W88105  39.091  43.746   2.865
21697W        W88106   0.566   4.821  11.532
21698W        W88107  19.272  28.434  10.401
21699W        W88108  31.244  25.107   4.274
21700W        W88109  32.013  40.747   3.800
21701W        W88110  42.742  42.437   2.024
21702W        W88111  40.403  13.809   3.313
21703W        W88112   6.651  12.211  14.859
21704W        W88113  34.645  28.712   4.975
21705W        W88114  36.429  23.752   4.628
21706W        W88115  10.366  28.685   4.686
21707W        W88116  14.524  14.014  11.154
21708W        W88117  23.142   4.149   4.215
21709W        W88118  44.823  12.836   1.870
21710W        W88119  14.303  40.388   1.317
21711W        W88120  27.777  15.211  11.183
21712W        W88121  41.049  22.554  11.054
21713W        W88122   0.688  35.039  14.760
21714W        W88123  34.365  13.465  13.893
21715W        W88124   1.056  26.982  12.450
21716W        W88125   9.389  31.439  10.293
21717W        W88126   2.119   1.297  12.095
21718W        W88127  22.926  15.209   0.702
21719W        W88128  32.567  42.027  11.559
21720W        W88129  36.024  16.025   4.679
21721W        W88130   6.591  16.663   1.216
21722W        W88131   6.417  10.391   1.841
21723W        W88132   5.207  22.166   4.470
21724W        W88133  32.566  42.400  11.917
21725W        W88134  30.123  19.191   0.925
21726W        W88135  40.793  32.569  13.105
21727W        W88136  23.094  15.379   3.668
21728W        W88137  35.635  27.671   3.170
21729W        W88138  41.596  42.041  12.991
21730W        W88139  16.615  35.507  14.410
21731W        W88140  30.358  42.924  14.385
21732W        W88141   6.740  35.140  10.730
21733W        W88142   0.163  11.957   4.749
21734W        W88143  19.677  44.460   2.738
21735W        W88144  37.869  13.532   3.080
21736W        W88145   4.985  14.278  13.019
21737W        W88146  16.007  16.767   4.324
21738W        W88147  19.907  25.995  13.456
21739W        W88148  23.373  19.087   0.904
21740W        W88149  13.689  26.301   2.755
21741W        W88150  39.307  14.638   9.864
21742W        W88151   3.446  21.349   5.128
21743W        W88152  31.777  34.436   3.152
21744W        W88153  37.985   0.215   0.515
21745W        W88154   3.040  43.742  13.856
21746W        W88155   7.227  39.311   0.019
21747W        W88156  25.239   5.498   4.150
21748W        W88157  42.520   0.889  10.671
21749W        W88158  28.555  37.456  10.680
21750W        W88159  20.079   3.395  10.498
21751W        W88160   9.095   4.283   1.950
21752W        W88161   5.670  14.605  11.584
21753W        W88162  38.449   3.912  13.848
21754W        W88163  13.244  13.590   4.159
21755W        W88164  16.200   5.226  11.651
21756W        W88165   5.238  34.574   0.170
21757W        W88166   3.234  10.129  13.920
21758W        W88167  39.549  34.614  11.153
21759W        W88168   2.773  43.048   3.140
21760W        W88169  15.441  32.960   3.680
21761W        W88170   2.982  32.455  13.035
21762W        W88171  35.293   0.302  11.135
21763W        W88172   8.200  31.700  13.423
21764W        W88173  11.930   7.249  14.529
21765W        W88174  23.882  33.088  14.843
21766W        W88175  29.731  24.072  11.115
21767W        W88176  29.067   8.193   1.732
21768W        W88177  15.325   2.046   1.344
21769W        W88178  41.532  15.062  11.248
21770W        W88179  15.386  36.494   1.833
21771W        W88180  41.043  36.759  13.335
21772W        W88181  16.042  33.849   2.098
21773W        W88182  10.828  25.654   3.316
21774W        W88183  40.443   8.620  11.173
21775W        W88184  36.513  30.581   2.407
21776W        W88185  17.320  17.817   2.266
21777W        W88186  11.106   8.837   0.137
21778W        W88187   9.834  23.499   2.131
21779W        W88188  34.483   5.789  11.443
21780W        W88189  36.740   8.136   4.211
21781W        W88190  10.703  34.895  13.928
21782W        W88191  11.348  18.789   3.300
21783W        W88192  24.491   4.921   0.768
21784W        W88193  34.041  35.925   0.247
21785W        W88194   4.731  18.578  14.460
21786W        W88195  43.097  38.603   2.408
21787W        W88196  43.914   6.926   3.211
21788W        W88197   1.157  14.386   0.205
21789W        W88198   3.318   4.343  11.680
21790W        W88199  18.663  21.635  11.229
21791W        W88200  16.111  13.584   4.012
21792W        W88201  39.476  36.960   3.295
21793W        W88202  24.008   0.770   1.012
21794W        W88203  15.513  30.552   0.967
21795W        W88204  26.497   4.150   2.523
21796W        W88205  25.222  28.400  13.542
21797W        W88206  15.107  26.472   1.834
21798W        W88207  28.214   2.162  10.351
21799W        W88208  31.518  23.232   1.822
21800W        W88209  33.452  11.637  12.876
21801W        W88210  41.031  16.324  11.229
21802W        W88211  44.444  42.247   1.806
21803W        W88212  12.552  24.311  11.137
21804W        W88213   2.449   7.756  12.330
21805W        W88214  30.456  33.250   0.007
21806W        W88215  26.539  41.746   1.274
21807W        W88216  25.459   8.643  14.808
21808W        W88217  36.190   1.380   1.919
21809W        W88218  28.934  35.603   2.797
21810W        W88219  23.049  10.654   4.000
21811W        W88220  20.272  39.565  12.856
21812W        W88221  37.582  40.329  11.670
21813W        W88222  13.650  30.468   4.850
21814W        W88223  28.850   1.782   3.620
21815W        W88224  22.810  29.435   2.364
21816W        W88225   4.614  17.760  11.843
21817W        W88226  36.912  44.888   1.830
21818W        W88227   6.440  33.085  11.117
21819W        W88228  15.474  22.148   0.399
21820W        W88229  27.960  11.386   4.164
21821W        W88230  14.325  26.973  12.431
21822W        W88231  39.503  27.219   2.899
21823W        W88232  16.277  44.952   0.533
21824W        W88233   1.710  34.790  13.529
21825W        W88234  15.952   0.381  14.385
21826W        W88235  40.126  37.501  14.311
21827W        W88236   6.420  11.418  13.928
21828W        W88237  20.126  33.162  10.550
21829W        W88238   5.796  10.821   1.409
21830W        W88239  26.688  31.016  11.999
21831W        W88240   6.592  33.144   4.885
21832W        W88241  23.694  39.094   3.300
21833W        W88242  21.722  19.556  11.032
21834W        W88243  43.877   8.920   3.141
21835W        W88244  37.464  30.797   1.883
21836W        W88245  42.484   2.325   2.349
21837W        W88246  31.079  33.313  12.709
21838W        W88247  27.980  36.046  12.682
21839W        W88248   3.493   4.751   3.725
21840W        W88249  19.571  41.398   3.283
21841W        W88250  21.007  21.635   1.940
21842W        W88251  33.056  41.040   0.358
21843W        W88252   3.796   4.145   0.381
21844W        W88253  18.698  41.766  11.895
21845W        W88254  24.705   7.364   3.374
21846W        W88255  16.380  12.377   0.679
21847W        W88256  12.714  35.245   1.301
21848W        W88257  17.578  30.109   0.626
21849W        W88258  19.030  34.092   3.599
21850W        W88259  42.692  26.030   4.328
21851W        W88260  14.924   5.797  12.901
21852W        W88261   4.720  33.667   2.682
21853W        W88262  44.485   2.267  13.617
21854W        W88263   1.655  20.752   0.728
21855W        W88264  15.288   1.414  13.991
21856W        W88265  43.772  25.557  12.522
21857W        W88266   2.353   5.783  14.515
21858W        W88267  37.470   2.288  11.577
21859W        W88268  13.784  42.019   2.352
21860W        W88269  44.098  21.610   4.725
21861W        W88270   5.287  11.285  10.412
21862W        W88271   9.265  41.621   1.994
21863W        W88272  34.153  14.317  13.875
21864W        W88273  36.497   3.397   0.910
21865W        W88274  32.931  27.332   0.298
21866W        W88275  35.717  32.922   1.417
21867W        W88276   3.172  14.404   1.722
21868W        W88277  38.533  11.582  10.388
21869W        W88278  10.218   8.418   4.549
21870W        W88279  20.308  25.175   2.981
21871W        W88280  31.100  19.332   0.731
21872W        W88281  33.354  24.794  12.053
21873W        W88282  37.155  11.721  14.409
21874W        W88283  25.535   5.763  11.683
21875W        W88284  19.544  35.895  11.076
21876W        W88285  23.925   8.351   3.231
21877W        W88286  34.327  29.892   2.399
21878W        W88287  15.200   3.472   1.174
21879W        W88288  34.915  19.946  14.519
21880W        W88289  28.728  24.323   1.624
21881W        W88290  43.052  40.044   4.432
21882W        W88291  40.427   2.595  12.132
21883W        W88292   2.246  12.737   0.745
21884W        W88293  22.062  36.072   2.749
21885W        W88294  35.978  26.813   2.578
21886W        W88295  37.265   1.296   0.913
21887W        W88296  32.369  25.975  13.431
21888W        W88297  23.678  13.704  10.693
21889W        W88298  22.224   4.429  13.784
21890W        W88299  26.932  16.286   3.246
21891W        W88300  32.540  17.753  11.581
21892W        W88301  28.824  30.735   1.432
21893W        W88302  26.435  11.644  13.039
21894W        W88303   1.915  39.064  11.601
21895W        W88304  41.660  30.441  11.450
21896W        W88305  10.375  24.812   4.161
21897W        W88306  38.922  17.237   0.197
21898W        W88307   4.767   5.676  10.724
21899W        W88308  39.236   7.678   4.287
21900W        W88309  44.070  20.646   1.037
21901W        W88310  26.142  14.643   1.453
21902W        W88311  18.687  21.265   3.298
21903W        W88312  42.571  43.010  13.487
21904W        W88313   3.207  32.386  11.674
21905W        W88314  21.532  28.701  13.082
21906W        W88315   9.742  34.221   2.030
21907W        W88316  12.232  22.628  14.625
21908W        W88317  33.052  34.560  11.582
21909W        W88318  33.113  16.760   3.303
21910W        W88319   2.155  30.655   2.638
21911W        W88320  15.243  27.780   0.916
21912W        W88321  25.688   3.480   1.848
21913W        W88322   4.751  28.580   4.641
21914W        W88323   4.314  34.058  11.656
21915W        W88324   6.706  40.218   4.622
21916W        W88325  32.152  17.950   3.837
21917W        W88326   2.749   8.094   2.343
21918W        W88327  22.526  16.852   5.007
21919W        W88328  22.307  26.073  11.854
21920W        W88329  20.656  33.608  13.759
21921W        W88330  15.723  15.848   0.438
21922W        W88331  33.661  32.728  11.529
21923W        W88332  43.207   9.021   1.259
21924W        W88333  22.278   7.209   0.121
21925W        W88334  13.519  30.487  13.274
21926W        W88335  21.213   8.476  11.602
21927W        W88336  12.099  13.786   2.619
21928W        W88337   4.438  22.583   1.377
21929W        W88338  33.396  15.591   1.807
21930W        W88339   2.388  24.742   0.461
21931W        W88340  13.323   5.705   1.736
21932W        W88341   4.011  12.898  12.646
21933W        W88342   2.711  21.303  11.126
21934W        W88343   1.192  40.007   2.743
21935W        W88344  43.525  23.781  14.346
21936W        W88345   7.918  13.800   1.617
21937W        W88346  23.756  42.995  10.476
21938W        W88347   1.309  16.847  10.566
21939W        W88348  37.634  21.701   4.147
21940W        W88349  40.224  16.678  14.999
21941W        W88350   0.818  15.834  14.096
21942W        W88351  15.039  23.784   4.636
21943W        W88352   9.460  10.611   2.328
21944W        W88353  20.263  42.839  10.393
21945W        W88354  33.044  10.304  13.051
21946W        W88355  40.893  23.120   1.460
21947W        W88356  17.645  16.130  13.567
21948W        W88357  33.487  44.350  11.506
21949W        W88358  38.649   5.413   4.589
21950W        W88359  27.162  24.523   2.510
21951W        W88360   9.345  15.290  13.371
21952W        W88361  22.269  37.050  12.266
21953W        W88362   6.552  22.178   3.083
21954W        W88363  20.645  32.833  11.540
21955W        W88364  22.378   9.030   5.125
21956W        W88365  25.638  19.282  14.556
21957W        W88366  41.436  23.876   1.802
21958W        W88367  13.531  43.340   3.091
21959W        W88368   9.832  40.336   0.688
21960W        W88369  11.184  31.413  13.142
21961W        W88370  27.421  25.134  11.351
21962W        W88371  16.551  12.611  10.788
21963W        W88372  35.909   7.131  13.357
21964W        W88373  37.280   4.666  14.388
21965W        W88374  18.268  29.974  14.454
21966W        W88375  31.089  17.979   4.444
21967W        W88376  41.934  35.072  12.443
21968W        W88377  27.186  41.104   4.094
21969W        W88378  28.011  32.744   2.902
21970W        W88379  28.236   7.393  14.003
21971W        W88380  36.632  22.136  10.600
21972W        W88381  36.969  30.263   3.715
21973W        W88382   8.440  14.790  14.302
21974W        W88383  19.566  24.060   3.645
21975W        W88384   6.202  39.853   1.876
21976W        W88385  36.597  24.471   3.856
21977W        W88386  41.819  40.640  11.138
21978W        W88387  39.918  10.841  11.565
21979W        W88388  42.647   1.319  11.229
21980W        W88389  12.901  24.766   2.338
21981W        W88390   2.293  16.312  13.484
21982W        W88391  25.825  16.329  11.458
21983W        W88392  17.145   7.006   0.518
21984W        W88393  30.696   3.492  12.030
21985W        W88394   5.105  19.065   1.199
21986W        W88395  24.753   2.595  11.560
21987W        W88396  14.615  10.693   2.739
21988W        W88397   1.386  16.839  12.474
21989W        W88398  23.996  31.749   0.778
21990W        W88399  17.698   6.706  12.046
21991W        W88400  15.714   4.000  12.292
21992W        W88401   6.799   5.840   0.931
21993W        W88402  19.025  14.146   2.647
21994W        W88403  22.684  32.498   3.220
21995W        W88404  23.902   1.758  14.680
21996W        W88405  42.532  34.144  14.105
21997W        W88406  28.978  20.032  11.111
21998W        W88407  33.734  31.969  10.236
21999W        W88408   5.800   6.943  14.012
22000W        W88409   6.456  13.353  13.363
22001W        W88410  26.000  36.902   2.643
22002W        W88411   3.737  24.649   4.044
22003W        W88412   6.942  16.849  13.480
22004W        W88413  30.854  23.482   1.424
22005W        W88414   0.001   0.449   0.453
22006W        W88415  22.482  12.720   0.761
22007W        W88416  32.050  32.178   3.917
22008W        W88417  22.531   9.031   1.727
22009W        W88418  26.683   7.294   4.795
22010W        W88419  28.053  20.038   1.968
22011W        W88420  24.073  32.111   0.427
22012W        W88421  34.398  26.157  12.334
22013W        W88422   2.189  27.533   4.663
22014W        W88423  33.980  21.654  14.035
22015W        W88424  32.764  13.687  13.960
22016W        W88425  32.144  32.514   0.881
22017W        W88426  19.868  27.017  14.328
22018W        W88427  23.194  18.584   3.122
22019W        W88428   9.708  43.808   2.366
22020W        W88429  34.136  16.783   1.987
22021W        W88430  40.747   1.056  12.004
22022W        W88431   3.395   1.360   0.963
22023W        W88432  24.123   1.513   0.302
22024W        W88433  41.048   2.152  12.616
22025W        W88434  14.392  11.980  10.495
22026W        W88435  18.300  31.988  14.847
22027W        W88436  34.104  22.908   1.216
22028W        W88437  41.170  11.638  10.673
22029W        W88438  35.055  44.438   9.705
22030W        W88439   7.425  41.779   4.035
22031W        W88440   2.395  14.377  11.918
22032W        W88441  11.859  31.316  12.087
22033W        W88442  34.698   8.759  11.720
22034W        W88443  11.292  40.214   3.205
22035W        W88444  26.711  24.885  10.527
22036W        W88445  30.087  27.493   1.468
22037W        W88446  41.493  11.346  12.605
22038W        W88447  20.966  22.094   4.708
22039W        W88448   8.875  37.297   3.775
22040W        W88449  42.516  37.589   3.279
22041W        W88450  17.817  31.056   4.264
22042W        W88451  43.041  23.157   4.130
22043W        W88452  30.957  10.792   1.050
22044W        W88453  17.360   9.717  11.625
22045W        W88454   5.807  36.112  11.020
22046W        W88455   0.074  14.983  13.993
22047W        W88456   5.003  17.107   1.995
22048W        W88457  28.565  32.894   4.141
22049W        W88458  33.042   9.350  11.110
22050W        W88459  13.858   3.298  12.033
22051W        W88460  37.959   3.541  12.977
22052W        W88461  22.987   5.663  10.823
22053W        W88462  10.429  19.293  14.954
22054W        W88463  15.102  35.576   3.838
22055W        W88464  35.321  29.448   1.934
22056W        W88465  43.571  35.552  11.988
22057W        W88466   4.155  42.920  13.048
22058W        W88467  15.897  33.533   3.191
22059W        W88468   1.440  23.200   4.575
22060W        W88469  14.764  35.899   5.395
22061W        W88470  17.963  25.120   2.700
22062W        W88471  17.015  13.163  14.454
22063W        W88472   4.183  42.791  11.038
22064W        W88473   3.370  40.424   1.999
22065W        W88474  24.253  38.110  12.693
22066W        W88475  13.769  41.534  11.150
22067W        W88476  26.451  18.973   3.222
22068W        W88477  10.156  12.917  12.562
22069W        W88478  23.027  26.592  12.414
22070W        W88479  39.279  26.241   1.971
22071W        W88480   5.469  28.768   5.123
22072W        W88481  16.798  10.155  11.513
22073W        W88482  38.816   6.431  11.663
22074W        W88483  29.666  39.023  11.576
22075W        W88484  22.043  21.491   0.324
22076W        W88485  17.604  18.525   1.328
22077W        W88486   4.131   2.785  11.623
22078W        W88487  28.108   0.878   2.626
22079W        W88488  44.642  23.597   1.806
22080W        W88489  24.115  42.875  14.141
22081W        W88490   6.585   2.186  10.572
22082W        W88491  13.750  25.791  14.545
22083W        W88492  30.244  44.722  14.965
22084W        W88493  37.146  24.348   1.627
22085W        W88494  14.682  39.952  13.987
22086W        W88495  28.008  12.838  12.565
22087W        W88496   2.740  33.090  13.883
22088W        W88497   9.565   8.856   0.893
22089W        W88498  21.575  16.544  12.022
22090W        W88499   7.101  26.532   2.410
22091W        W88500  29.728  39.552  14.445
22092W        W88501  26.629  44.481  14.955
22093W        W88502   3.483  38.610  11.100
22094W        W88503   7.716  17.222   4.654
22095W        W88504   0.289  17.063  11.175
22096W        W88505  35.486  16.606   3.610
22097W        W88506  38.416  13.700  12.501
22098W        W88507  27.700   1.086   4.831
22099W        W88508  42.332   8.896   3.259
22100W        W88509  17.219  40.847   4.778
22101W        W88510  11.647   0.364   1.857
22102W        W88511  40.764  17.481  12.956
22103W        W88512  24.108  31.627  13.834
22104W        W88513   9.753  37.255   2.704
22105W        W88514  40.193  35.108  14.381
22106W        W88515  24.707   2.962  14.816
22107W        W88516  24.596  20.109   1.166
22108W        W88517  27.166  19.863  10.712
22109W        W88518  21.986  43.748   2.745
22110W        W88519  27.571  33.187   2.883
22111W        W88520  24.463  32.583   1.283
22112W        W88521  20.625   6.898   1.751
22113W        W88522  44.455   2.978  14.294
22114W        W88523  38.250  23.033   0.886
22115W        W88524  38.453  14.275   2.822
22116W        W88525   9.404  27.450  12.897
22117W        W88526   2.725  28.468  11.959
22118W        W88527  27.339  37.613   0.406
22119W        W88528  33.958  27.201   4.215
22120W        W88529  21.024  11.222   1.842
22121W        W88530   6.450  33.062  13.067
22122W        W88531  19.708  34.909   4.543
22123W        W88532  32.852   9.359  13.359
22124W        W88533  32.137  15.242  14.475
22125W        W88534  14.791  34.149   2.828
22126W        W88535  28.281  32.791   2.430
22127W        W88536  24.437  24.432   4.490
22128W        W88537  20.431  29.184   4.578
22129W        W88538  36.055  40.668  14.760
22130W        W88539  24.653  14.280  13.924
22131W        W88540  27.105  31.095  11.711
22132W        W88541   3.555   2.466   4.172
22133W        W88542  36.018  32.326  12.459
22134W        W88543  15.903  21.165  12.411
22135W        W88544  41.813  14.564  12.061
22136W        W88545  37.577   5.477   1.527
22137W        W88546  22.185  13.191   3.628
22138W        W88547  12.109  43.205  11.769
22139W        W88548  27.449  41.026   3.629
22140W        W88549  10.254  40.798   2.180
22141W        W88550   0.827  20.688   4.556
22142W        W88551  42.013  30.652   1.880
22143W        W88552   3.937  30.395   1.839
22144W        W88553   8.304  23.174   0.798
22145W        W88554   6.623   0.043   3.652
22146W        W88555  28.717   4.147  11.029
22147W        W88556  43.541   1.410   3.698
22148W        W88557  10.607   9.694  10.743
22149W        W88558  22.473  21.193   3.884
22150W        W88559  20.203  31.506   2.288
22151W        W88560  12.793  37.149   9.754
22152W        W88561  15.254  25.803   5.073
22153W        W88562  36.074   4.004  10.356
22154W        W88563  10.721  36.222  10.233
22155W        W88564  16.848  44.384  12.645
22156W        W88565  14.287  43.001  12.933
22157W        W88566  22.929   6.855   1.262
22158W        W88567  25.401  30.057  14.331
22159W        W88568  20.707  14.182   1.712
22160W        W88569  43.869  38.845  11.179
22161W        W88570  26.659  24.713  11.963
22162W        W88571  28.609  30.816   0.427
22163W        W88572   4.556  15.688  10.249
22164W        W88573  29.168  28.964  12.487
22165W        W88574  38.135  20.381  11.258
22166W        W88575  25.045  34.338  12.555
22167W        W88576   3.357  15.726   2.035
22168W        W88577  37.481  12.892   0.683
22169W        W88578  42.373  27.551   1.520
22170W        W88579  29.360  19.126  14.269
22171W        W88580  38.185  37.765   4.965
22172W        W88581  35.323  43.733  10.800
22173W        W88582  41.422  29.436   4.940
22174W        W88583  18.264   5.825  12.979
22175W        W88584  42.018  27.450  10.804
22176W        W88585  14.902  26.102   0.890
22177W        W88586  41.786  39.210  11.562
22178W        W88587  40.566  38.914  12.594
22179W        W88588  10.132  13.451   4.508
22180W        W88589  19.493  42.941   4.066
22181W        W88590  35.167  33.523   3.861
22182W        W88591  10.383  27.982   1.155
22183W        W88592  11.625  24.493  11.089
22184W        W88593   9.394  17.537  10.969
22185W        W88594   1.439  32.079   4.800
22186W        W88595  40.077  29.530  14.937
22187W        W88596  19.719  28.480   1.401
22188W        W88597  17.106   7.418  10.669
22189W        W88598   9.957   5.744  12.466
22190W        W88599  29.212  13.766  13.735
22191W        W88600  14.138  27.435   0.350
22192W        W88601  27.000  22.994  11.482
22193W        W88602  17.579  40.069  11.712
22194W        W88603  15.643   2.291   1.908
22195W        W88604   9.678   6.310  11.179
22196W        W88605   3.137  41.555  14.531
22197W        W88606   5.128  33.006   0.220
22198W        W88607   7.892  27.572   3.276
22199W        W88608  43.966   7.492  12.921
22200W        W88609  16.648  35.004  12.082
22201W        W88610  26.389  17.101  14.468
22202W        W88611  10.867   6.213  12.975
22203W        W88612  38.873  32.455   0.875
22204W        W88613   6.366   1.928   1.770
22205W        W88614   9.401  41.573   2.506
22206W        W88615  40.414  25.907   4.429
22207W        W88616  17.405  43.747  14.588
22208W        W88617  44.266  34.930  14.873
22209W        W88618  29.922   5.186   9.875
22210W        W88619   3.734  32.800   2.697
22211W        W88620  12.618  41.521   2.655
22212W        W88621  10.799  26.219   2.086
22213W        W88622  29.241   0.410  10.908
22214W        W88623  38.555  38.053   2.772
22215W        W88624   2.289  37.598   0.964
22216W        W88625  26.142   3.659  14.429
22217W        W88626   2.749   1.428  12.790
22218W        W88627   5.546  29.912  13.886
22219W        W88628  42.379  36.393   2.881
22220W        W88629   4.372   9.846  14.387
22221W        W88630  44.733   0.294   0.894
22222W        W88631  19.745   4.355  14.817
22223W        W88632  25.373  26.916   2.183
22224W        W88633   6.845  31.930  12.983
22225W        W88634  13.867  36.278   1.406
22226W        W88635  31.310  25.559   1.472
22227W        W88636  20.130  33.674  13.480
22228W        W88637  24.674  10.181   2.340
22229W        W88638  37.861  40.502   4.230
22230W        W88639   2.675  23.236   1.936
22231W        W88640  37.378  28.992   4.929
22232W        W88641  10.274  37.006   3.694
22233W        W88642   7.603  29.212  13.273
22234W        W88643  20.603  11.330   3.137
22235W        W88644  11.798   4.770  12.499
22236W        W88645   1.424   6.173  10.588
22237W        W88646   9.862  13.704   4.890
22238W        W88647   7.395  35.094   4.959
22239W        W88648  30.021   3.827   4.831
22240W        W88649   8.357   6.743  12.867
22241W        W88650  44.835  10.846   0.962
22242W        W88651  33.910  43.773   0.739
22243W        W88652  28.076  42.443   4.042
22244W        W88653  36.964  28.515  10.654
22245W        W88654  43.005  16.764  12.997
22246W        W88655   2.804  43.037   2.194
22247W        W88656  44.285  43.242   2.212
22248W        W88657  43.601   2.505   1.279
22249W        W88658  43.783  42.213  14.851
22250W        W88659   1.241  29.131   2.713
22251W        W88660  35.601  22.638  12.403
22252W        W88661  39.238  14.738   0.326
22253W        W88662  35.731   7.216  14.718
22254W        W88663  35.417  42.334   1.381
22255W        W88664  41.373   1.265  12.639
22256W        W88665  29.883  15.370   1.374
22257W        W88666  35.513  23.264   2.306
22258W        W88667  25.665  29.696  13.587
22259W        W88668  42.005  20.743   1.886
22260W        W88669  37.632   8.326  10.958
22261W        W88670  39.993  42.892   2.266
22262W        W88671  36.953  30.124  10.949
22263W        W88672  30.600  10.332  11.121
22264W        W88673  25.687  17.225  11.463
22265W        W88674  22.294  28.803   4.485
22266W        W88675  33.157   5.428  14.842
22267W        W88676  17.316  36.051  14.237
22268W        W88677   5.650  20.563  11.766
22269W        W88678  15.666  18.553   1.862
22270W        W88679   3.265  41.844  11.056
22271W        W88680  13.797  30.659  13.817
22272W        W88681  43.384  30.930   5.263
22273W        W88682  13.274   0.839  12.974
22274W        W88683   7.834   3.764   4.357
22275W        W88684   9.628  37.663   1.782
22276W        W88685  31.039  29.393  14.017
22277W        W88686  31.365  32.923  12.523
22278W        W88687  27.971  33.312  13.304
22279W        W88688  36.626  36.068   0.374
22280W        W88689  11.666  43.728  10.254
22281W        W88690  37.612  23.023  14.200
22282W        W88691  31.163  16.213  11.598
22283W        W88692  38.866  11.767  12.155
22284W        W88693  38.087  40.562  14.539
22285W        W88694   5.087  13.677   4.889
22286W        W88695  40.341  37.609  13.865
22287W        W88696   3.015  31.691   2.936
22288W        W88697  19.521  34.064   3.744
22289W        W88698  37.582  36.074   0.299
22290W        W88699  39.072   3.907   1.974
22291W        W88700  36.370  18.405  10.794
22292W        W88701   4.267  14.354  14.598
22293W        W88702  43.966  14.708   3.074
22294W        W88703  14.234  40.004   3.812
22295W        W88704   0.784  13.573  14.959
22296W        W88705  18.484   4.739  10.818
22297W        W88706  36.007   3.454  14.404
22298W        W88707  27.921  26.613  10.670
22299W        W88708  14.611  39.038  12.806
22300W        W88709  18.835  12.757  11.179
22301W        W88710  25.071  13.327  11.547
22302W        W88711   8.741   2.893  11.867
22303W        W88712  25.756   4.385  12.264
22304W        W88713  35.549  38.610   1.383
22305W        W88714  16.732   6.971   0.817
22306W        W88715  16.865  35.299   2.576
22307W        W88716  37.438  21.002   4.911
22308W        W88717  33.111   1.526   0.821
22309W        W88718  12.381  43.903   4.748
22310W        W88719  30.089   2.043   1.376
22311W        W88720  20.561  25.593  11.484
22312W        W88721   8.122  18.564   0.351
22313W        W88722  17.831  14.835   0.842
22314W        W88723  26.248  37.690  10.995
22315W        W88724  42.868   4.238   0.353
22316W        W88725  28.189  10.906   4.151
22317W        W88726  19.512  42.341   0.791
22318W        W88727  18.005  28.992   4.107
22319W        W88728   7.704  40.416  11.158
22320W        W88729   8.664  25.499   2.831
22321W        W88730  16.097  37.457   0.917
22322W        W88731  10.323  12.787  12.084
22323W        W88732  16.000  21.559   1.763
22324W        W88733   6.689  33.655   3.610
22325W        W88734   6.231  43.433   0.205
22326W        W88735  11.755  11.467  12.123
22327W        W88736   0.820  36.892  14.724
22328W        W88737  29.534  29.092  12.881
22329W        W88738  34.524   9.310  11.925
22330W        W88739   0.932  29.100   2.232
22331W        W88740  37.278  12.826  13.085
22332W        W88741  30.936  26.008   3.184
22333W        W88742   3.022  12.252  12.400
22334W        W88743  43.446  14.946  12.543
22335W        W88744  37.939  27.210  13.124
22336W        W88745  10.111   7.688   4.158
22337W        W88746  39.796   3.271   3.293
22338W        W88747  21.047   2.898  13.787
22339W        W88748  33.357  24.760   0.850
22340W        W88749  21.612   5.997  13.422
22341W        W88750  35.674  41.309   2.911
22342W        W88751  41.522  26.466  11.628
22343W        W88752  22.746   8.978  13.416
22344W        W88753  32.050   0.306   4.663
22345W        W88754  28.009  33.332  11.928
22346W        W88755  42.013   0.717  12.068
22347W        W88756  34.662  44.100   2.101
22348W        W88757   0.994  12.008   5.179
22349W        W88758  40.408  13.943  12.948
22350W        W88759  36.334  37.890  13.929
22351W        W88760  43.698  22.095  11.465
22352W        W88761  37.341  12.691  10.927
22353W        W88762  10.640  19.832  13.735
22354W        W88763  35.442  43.434  13.408
22355W        W88764  30.730  18.777   0.210
22356W        W88765   7.201  17.122  13.872
22357W        W88766  18.406   0.904   0.322
22358W        W88767   5.798   3.450   0.507
22359W        W88768  14.882  24.027   1.606
22360W        W88769  12.100  18.573   1.692
22361W        W88770   7.393  42.580  14.875
22362W        W88771  26.105  35.443  12.876
22363W        W88772  23.502  28.013   2.230
22364W        W88773  27.448   3.436  12.436
22365W        W88774   2.390  41.387   3.645
22366W        W88775  16.786  14.325  14.726
22367W        W88776  15.954  32.917  14.838
22368W        W88777   0.092  10.382   3.088
22369W        W88778  12.428  36.036  12.626
22370W        W88779  32.959  21.753   2.178
22371W        W88780  24.080   3.870   4.597
22372W        W88781  26.299  25.140  10.310
22373W        W88782  29.801   9.343  13.150
22374W        W88783  17.738  40.227   2.828
22375W        W88784   4.879   2.291   3.588
22376W        W88785  14.316  33.664   3.433
22377W        W88786  10.100  35.308   4.105
22378W        W88787  35.497  39.772  10.636
22379W        W88788  18.617   8.319  13.612
22380W        W88789   3.250  27.763  13.043
22381W        W88790   1.273   2.346   1.927
22382W        W88791   1.364  36.803  13.928
22383W        W88792   7.902  21.109  14.102
22384W        W88793  13.612   7.311  11.699
22385W        W88794  14.698  32.980  14.026
22386W        W88795  26.648  41.076   3.929
22387W        W88796  35.093  37.590  10.228
22388W        W88797   3.549   7.508   4.000
22389W        W88798  12.665  28.386   4.601
22390W        W88799   4.698   6.184   0.906
22391W        W88800   4.605   3.692  12.469
22392W        W88801  25.676  44.794  12.425
22393W        W88802  27.436  30.067  11.618
22394W        W88803  36.363  41.579   0.216
22395W        W88804  12.899  41.966  12.142
22396W        W88805  15.115  10.339  14.337
22397W        W88806  16.048  30.511   1.181
22398W        W88807  34.087  12.096   4.711
22399W        W88808  34.653  30.391  12.991
22400W        W88809  32.962  21.993   0.819
22401W        W88810  13.314   9.005  11.080
22402W        W88811  17.783  29.205   3.673
22403W        W88812   0.796  23.766   0.799
22404W        W88813  25.738  10.686   2.618
22405W        W88814  13.970  39.040   4.238
22406W        W88815  42.748  37.142  10.765
22407W        W88816  28.474   5.486   3.613
22408W        W88817  36.604  36.340   1.224
22409W        W88818  10.226  19.272  13.122
22410W        W88819  27.684  38.944   4.420
22411W        W88820  27.714  14.579   1.315
22412W        W88821  31.253   6.906  11.696
22413W        W88822  24.691  25.127  10.882
22414W        W88823  14.630  10.351  12.461
22415W        W88824  37.370  23.633   4.057
22416W        W88825   6.803  24.952  11.214
22417W        W88826  22.696  10.235  14.772
22418W        W88827  19.310   2.546  13.600
22419W        W88828  42.087   7.332   0.977
22420W        W88829  18.139  14.666   3.799
22421W        W88830  26.107  37.007   1.137
22422W        W88831  26.629  40.073   0.959
22423W        W88832  15.197   8.364  14.987
22424W        W88833  32.102  37.656   3.752
22425W        W88834   9.659  22.971  10.281
22426W        W88835   5.208   6.733  11.495
22427W        W88836   0.329  43.544  14.452
22428W        W88837   5.745  19.767   3.379
22429W        W88838  33.315   5.512  12.814
22430W        W88839  44.862   1.672  14.006
22431W        W88840  32.071  24.756   2.581
22432W        W88841  20.817   4.935  11.571
22433W        W88842  42.829  30.851  13.113
22434W        W88843   3.477  29.521  10.826
22435W        W88844  26.979  32.892   1.897
22436W        W88845  35.159  24.046  14.718
22437W        W88846  21.263  32.491   4.563
22438W        W88847   4.779   0.344   2.794
22439W        W88848  26.732   3.214  11.208
22440W        W88849  30.026  14.275  13.472
22441W        W88850   0.865  27.822  10.597
22442W        W88851   9.922  30.382  10.579
22443W        W88852   2.005  36.123   4.084
22444W        W88853  30.110  15.221  13.756
22445W        W88854   9.883  24.754   1.859
22446W        W88855   6.788  39.046  14.977
22447W        W88856  13.159   0.747   3.489
22448W        W88857  39.530  14.399   4.494
22449W        W88858  21.036  41.833  14.070
22450W        W88859  23.586  11.612   2.396
22451W        W88860  27.754  24.137   1.040
22452W        W88861  16.686  34.604  14.424
22453W        W88862  11.612  38.433  14.024
22454W        W88863   9.140  34.552  13.431
22455W        W88864   1.756  38.002   4.318
22456W        W88865   0.836  38.518   2.869
22457W        W88866   2.841  38.659  13.314
22458W        W88867   0.878  28.690   4.894
22459W        W88868  31.875   1.117  13.052
22460W        W88869   8.782   1.273  10.885
22461W        W88870  14.128  26.543  14.312
22462W        W88871   7.799  35.344  13.892
22463W        W88872  22.272  38.701   1.505
22464W        W88873  43.888  15.787  14.466
22465W        W88874  25.844  24.938  14.387
22466W        W88875  21.058  20.082   0.526
22467W        W88876  16.558  37.757   3.074
22468W        W88877  41.308  17.142  11.418
22469W        W88878  37.091  18.955  13.979
22470W        W88879   1.791  11.602  12.534
22471W        W88880   6.488   0.842  14.961
22472W        W88881  26.972  22.600   2.093
22473W        W88882   4.741  17.539  14.490
22474W        W88883   4.259   2.519   4.555
22475W        W88884  31.591  29.913  12.117
22476W        W88885  28.902  35.847  11.673
22477W        W88886  34.467  26.073  14.488
22478W        W88887   7.099  31.709   5.080
22479W        W88888   7.260  41.511  12.988
22480W        W88889  30.039   0.505  13.998
22481W        W88890  24.444  25.644  10.259
22482W        W88891   8.590  16.666   2.614
22483W        W88892   7.534  43.078  12.568
22484W        W88893  25.072  17.232   2.472
22485W        W88894  38.067   6.722   1.450
22486W        W88895  26.497  25.208  10.866
22487W        W88896  24.247  30.644   2.802
22488W        W88897   3.840  16.042   0.852
22489W        W88898   6.407  38.795   0.227
22490W        W88899  32.081  17.518  12.409
22491W        W88900  44.864  30.004  11.248
22492W        W88901  21.511  15.107   4.503
22493W        W88902  35.455  38.625   1.918
22494W        W88903  25.658   2.251   3.670
22495W        W88904  38.507  20.179   1.475
22496W        W88905  31.932  33.920   2.129
22497W        W88906  26.096  32.908   1.828
22498W        W88907  27.510  29.139  11.562
22499W        W88908  24.031  10.107  10.800
22500W        W88909  44.374   1.659   0.882
22501W        W88910  20.672   7.469   4.006
22502W        W88911  42.546  36.770  13.324
22503W        W88912  41.418  30.987   3.178
22504W        W88913  36.992   6.231   4.494
22505W        W88914   6.669  10.698  13.457
22506W        W88915  34.622  34.839   2.972
22507W        W88916  43.443  44.056  14.990
22508W        W88917  37.522   9.695  11.266
22509W        W88918  18.677  12.735   3.053
22510W        W88919  25.751   5.835   0.411
22511W        W88920   1.766  43.443   3.324
22512W        W88921  30.446   6.717   2.610
22513W        W88922  22.076  10.603   1.925
22514W        W88923   3.451  41.947  14.708
22515W        W88924   2.444  24.046  11.470
22516W        W88925  24.357   9.358   3.548
22517W        W88926  28.564   1.433  14.243
22518W        W88927   2.329  22.783   5.189
22519W        W88928  34.110  20.226  10.752
22520W        W88929   7.761  17.322  10.695
22521W        W88930  39.068  38.308   4.099
22522W        W88931  23.636   3.178  14.443
22523W        W88932   8.291   5.208   3.686
22524W        W88933   7.456  11.114  12.563
22525W        W88934  17.070  25.166   2.742
22526W        W88935  24.010  35.933   2.792
22527W        W88936  43.800  37.280   3.257
22528W        W88937  35.340   3.773  14.418
22529W        W88938  15.201  18.095   4.836
22530W        W88939  39.645  20.257  12.448
22531W        W88940  37.896   9.853  10.440
22532W        W88941  17.446   6.445   5.111
22533W        W88942  20.048   5.620   0.994
22534W        W88943  19.205  26.100   4.735
22535W        W88944  39.055  41.332   0.318
22536W        W88945  35.422   5.271   3.181
22537W        W88946  44.322  19.624  13.376
22538W        W88947   1.309   5.326  10.773
22539W        W88948  39.460  30.331   1.166
22540W        W88949   4.448  19.286   0.093
22541W        W88950   8.831  12.293   0.208
22542W        W88951  38.693  11.626  13.501
22543W        W88952   2.845  41.230   2.605
22544W        W88953   0.580  32.504   3.919
22545W        W88954  34.093   0.478   2.343
22546W        W88955  23.484  13.873   1.846
22547W        W88956  13.174   6.940  11.118
22548W        W88957   7.216   9.442  11.513
22549W        W88958  41.574  37.849  13.533
22550W        W88959  40.318  44.905  12.507
22551W        W88960  33.650  16.055  11.550
22552W        W88961  28.992  34.924   0.400
22553W        W88962   7.976  12.643   0.009
22554W        W88963  24.559  31.373  12.564
22555W        W88964  10.659  19.558  12.419
22556W        W88965  13.853  41.909   4.266
22557W        W88966  19.245  27.700  14.339
22558W        W88967  43.233  41.755   4.674
22559W        W88968  12.567   1.788  12.748
22560W        W88969  15.364   6.905  11.712
22561W        W88970  13.393  29.015   2.724
22562W        W88971  22.982  28.521  14.869
22563W        W88972  36.029  15.652   2.436
22564W        W88973  12.275  12.632  13.852
22565W        W88974  31.047  31.438  11.618
22566W        W88975  41.021  17.061   1.941
22567W        W88976  35.717  13.723  13.015
22568W        W88977  26.989  18.635   1.424
22569W        W88978  14.016  40.166  13.091
22570W        W88979   9.901  26.195   2.586
22571W        W88980   1.694  20.346  11.066
22572W        W88981  44.437  35.405   4.168
22573W        W88982  40.341  39.351  13.811
22574W        W88983  11.895  30.608  11.577
22575W        W88984   1.183  15.060   3.633
22576W        W88985  34.335  17.065  11.272
22577W        W88986  28.247  31.435   3.654
22578W        W88987  18.647  13.163   4.849
22579W        W88988  41.755  27.873  13.486
22580W        W88989  35.065  33.933  13.932
22581W        W88990  34.752   8.130   4.281
22582W        W88991  30.404  33.952  14.348
22583W        W88992  18.171  20.059  11.122
22584W        W88993  35.888  33.539   0.115
22585W        W88994  11.378  43.141  14.481
22586W        W88995  22.983  19.231  10.630
22587W        W88996  23.050  23.350  12.565
22588W        W88997  42.424  16.236   0.102
22589W        W88998   7.710  23.055   4.517
22590W        W88999  39.765  44.537  13.476
22591W        W89000  27.995  22.089  11.122
22592W        W89001  18.248   1.424   4.028
22593W        W89002  35.357  19.260  10.184
22594W        W89003  33.184   2.285  12.528
22595W        W89004  22.789  28.901   0.861
22596W        W89005  41.333  10.843  12.539
22597W        W89006  10.231  36.282   4.194
22598W        W89007   6.367   9.721  11.563
22599W        W89008  13.445  15.421   5.102
22600W        W89009   2.746  29.013   1.243
22601W        W89010  14.651  19.819   4.497
22602W        W89011  32.834  15.230  13.221
22603W        W89012   0.339  19.158   1.428
22604W        W89013  20.145   2.237   4.463
22605W        W89014  38.356  12.794  14.019
22606W        W89015   8.931  36.209  11.604
22607W        W89016  30.572  37.621   1.718
22608W        W89017  20.828  40.006   4.279
22609W        W89018  12.884  19.057   4.162
22610W        W89019  37.483   3.487  14.065
22611W        W89020  12.132  17.131  14.112
22612W        W89021  30.434  29.119   4.191
22613W        W89022  15.685   2.767   2.616
22614W        W89023   6.872  30.406   3.753
22615W        W89024  25.587  16.086   3.229
22616W        W89025  30.404  30.878  11.954
22617W        W89026  24.634  38.557  10.826
22618W        W89027  24.446   1.577  14.730
22619W        W89028  10.257  33.604   1.392
22620W        W89029  13.618   2.255   0.773
22621W        W89030  27.100  18.113  14.735
22622W        W89031  26.151  26.774   2.343
22623W        W89032  24.300  40.627   0.806
22624W        W89033   2.266   2.056  14.783
22625W        W89034  10.172   9.757   4.473
22626W        W89035   1.742  36.984   0.637
22627W        W89036  17.261  10.829  13.097
22628W        W89037  20.000  25.268   0.685
22629W        W89038  31.736   6.657  13.336
22630W        W89039  32.893  38.893   2.350
22631W        W89040   1.346   7.681  10.548
22632W        W89041  35.293   4.163   3.993
22633W        W89042  27.457  30.095  12.704
22634W        W89043  25.409  37.498  11.013
22635W        W89044   3.177  13.747  12.483
22636W        W89045  36.172  35.920   4.474
22637W        W89046  40.001  42.804  13.449
22638W        W89047  23.158   9.135   3.625
22639W        W89048  31.058  29.755  14.409
22640W        W89049  35.088  34.810   1.823
22641W        W89050  10.396  27.500   2.187
22642W        W89051  44.268  14.480   4.737
22643W        W89052  20.252   1.443  12.625
22644W        W89053  24.668   9.764   3.611
22645W        W89054   5.445   8.719   4.297
22646W        W89055  24.492  13.020   1.353
22647W        W89056  35.943   9.751   3.245
22648W        W89057   1.290   7.964   2.268
22649W        W89058  12.647  22.915  12.469
22650W        W89059  12.024  25.611   4.294
22651W        W89060  39.906  31.997  10.766
22652W        W89061  11.309  27.723  11.193
22653W        W89062  36.617   9.576   1.442
22654W        W89063  15.193  22.173   4.041
22655W        W89064  17.581  40.706  10.176
22656W        W89065  25.939  22.944   2.739
22657W        W89066  21.093   4.390  10.697
22658W        W89067  20.814  10.270   3.607
22659W        W89068  40.368   8.835  10.270
22660W        W89069   8.245  19.743  14.639
22661W        W89070  41.503   5.443  12.502
22662W        W89071  41.382  29.018  13.286
22663W        W89072   0.969  36.498  13.853
22664W        W89073  27.089  27.872   2.514
22665W        W89074  19.023  24.601   1.332
22666W        W89075  39.387  36.521   3.574
22667W        W89076  43.045  42.090  13.091
22668W        W89077  24.746   4.965   4.842
22669W        W89078  25.185  21.744   0.806
22670W        W89079   8.828  14.601  12.429
22671W        W89080  24.466   4.646  12.715
22672W        W89081  24.663   5.303   1.829
22673W        W89082  34.070  44.323  14.459
22674W        W89083   8.257  17.518  13.378
22675W        W89084  17.248  43.931   0.851
22676W        W89085  39.170  31.637  12.378
22677W        W89086  18.384  40.639   5.027
22678W        W89087  17.023  33.370  10.664
22679W        W89088  34.479   5.986   4.515
22680W        W89089  12.543   4.464  10.076
22681W        W89090  23.185  29.689  14.031
22682W        W89091  35.879  30.886  12.145
22683W        W89092  17.361  18.467  12.633
22684W        W89093  36.409  29.959  12.890
22685W        W89094  14.679  24.494  10.466
22686W        W89095  15.332  39.528  10.813
22687W        W89096  35.146  19.160  12.928
22688W        W89097  31.635  24.517  12.402
22689W        W89098   1.420  19.510  14.382
22690W        W89099  30.962  20.636   1.322
22691W        W89100  41.523  39.393  14.548
22692W        W89101   9.018   2.035  12.862
22693W        W89102   3.783  17.168   4.450
22694W        W89103  44.085   0.336   2.292
22695W        W89104  40.438  19.306   4.197
22696W        W89105   3.201  20.669  10.985
22697W        W89106  30.122   5.448   3.656
22698W        W89107   2.770  29.953   1.377
22699W        W89108   5.933  25.193   2.712
22700W        W89109  25.883  10.116   4.151
22701W        W89110   2.375  23.878  14.350
22702W        W89111  16.198  38.201  13.993
22703W        W89112  27.255  31.385  13.885
22704W        W89113  30.104  33.937   0.675
22705W        W89114  33.627   8.534  10.328
22706W        W89115   6.806  33.986  11.136
22707W        W89116   9.197  22.991   4.656
22708W        W89117  43.558   6.675  11.985
22709W        W89118  42.430  21.252  11.204
22710W        W89119  28.422  28.201  10.701
22711W        W89120   5.526   6.925  14.891
22712W        W89121   0.771  29.115  13.967
22713W        W89122  22.070  21.991   2.602
22714W        W89123  25.236   6.177  14.032
22715W        W89124  42.721  32.568  13.577
22716W        W89125   3.806  35.329   2.781
22717W        W89126  15.312  38.040  12.574
22718W        W89127  14.582  42.823  11.428
22719W        W89128   9.435  11.092   2.534
22720W        W89129  29.898  37.906  14.318
22721W        W89130  43.262  13.774  13.059
22722W        W89131  21.496  11.819  11.729
22723W        W89132  28.861  41.389   3.632
22724W        W89133   9.887  16.030   4.119
22725W        W89134  36.059  15.365  12.079
22726W        W89135  22.460  20.690   0.958
22727W        W89136   8.151  13.953   3.260
22728W        W89137   2.502  18.852   1.741
22729W        W89138  35.914  40.092   3.212
22730W        W89139  18.138  31.962   4.642
22731W        W89140  19.642  32.737  13.386
22732W        W89141   1.579  14.161   3.666
22733W        W89142  24.893   7.272  13.623
22734W        W89143  35.038   8.932   3.628
22735W        W89144  21.720  19.794  11.515
22736W        W89145  22.649  13.564  13.049
22737W        W89146  22.660  28.570  12.601
22738W        W89147  10.164  37.368   0.731
22739W        W89148   5.718  42.674  10.528
22740W        W89149  28.985  32.943   1.099
22741W        W89150   9.971  12.711   0.753
22742W        W89151  31.037  19.546   2.306
22743W        W89152  17.751  33.017   1.236
22744W        W89153  16.083  42.769   0.294
22745W        W89154  18.179  42.785  11.401
22746W        W89155   5.858  19.613   2.885
22747W        W89156  39.104  29.712  12.410
22748W        W89157   0.991  41.519   2.719
22749W        W89158  12.414  36.344  10.717
22750W        W89159  44.936  17.047   4.140
22751W        W89160  38.070  31.950   0.805
22752W        W89161  18.402  20.409  14.797
22753W        W89162  36.462  30.431  11.600
22754W        W89163  14.601  16.970   2.882
22755W        W89164   2.777  42.086   1.251
22756W        W89165  35.279  43.790  14.944
22757W        W89166  11.538  19.792  14.012
22758W        W89167  40.948  27.740   3.644
22759W        W89168  12.201  43.537  12.183
22760W        W89169  16.736  31.470  12.451
22761W        W89170  21.304  21.141  14.345
22762W        W89171  20.277  35.043   3.830
22763W        W89172   6.618  36.618  13.295
22764W        W89173   0.454  11.208   3.562
22765W        W89174   7.179   2.782  14.504
22766W        W89175   8.584  23.739  12.907
22767W        W89176  43.969  17.271   0.220
22768W        W89177  11.228  20.539   0.456
22769W        W89178  24.749   3.220   5.050
22770W        W89179  10.279  15.869   4.887
22771W        W89180  11.744  34.602   2.796
22772W        W89181  24.059  43.382   1.034
22773W        W89182   7.268  22.702  10.645
22774W        W89183   3.426  20.059   3.389
22775W        W89184  26.467   8.909  13.227
22776W        W89185  19.047  13.697  10.696
22777W        W89186   8.177  21.687   3.815
22778W        W89187   6.563  17.678  13.593
22779W        W89188  42.585  23.963  12.022
22780W        W89189  19.593  24.262  12.123
22781W        W89190   1.824   4.514   4.087
22782W        W89191  26.075  29.729   1.727
22783W        W89192   1.385  42.216   2.196
22784W        W89193   0.871   7.967   3.589
22785W        W89194   4.661  10.606   0.675
22786W        W89195  24.025   8.316   4.168
22787W        W89196  11.348  34.186  13.012
22788W        W89197  24.693  33.746  14.150
22789W        W89198  34.873  27.474  12.025
22790W        W89199  25.215  44.338  11.512
22791W        W89200  25.406  26.929  10.617
22792W        W89201  36.324  39.522   4.606
22793W        W89202  21.836   0.988   3.190
22794W        W89203  30.582  39.803   2.368
22795W        W89204  11.702  27.026   1.868
22796W        W89205  32.435   7.813   0.943
22797W        W89206  41.897  20.411  14.026
22798W        W89207   9.157  39.122  11.588
22799W        W89208   7.454   3.890  10.755
22800W        W89209  12.950  18.519  11.129
22801W        W89210  16.751   1.364   2.095
22802W        W89211  20.067  25.463  11.372
22803W        W89212  44.414  34.006   0.020
22804W        W89213  19.538  39.450  12.046
22805W        W89214  42.859   9.292   0.912
22806W        W89215  30.961  30.855   1.739
22807W        W89216   9.442   0.002  14.862
22808W        W89217   7.399  16.094   1.843
22809W        W89218  11.430  32.412   1.939
22810W        W89219  42.491  39.306   0.014
22811W        W89220  41.224   9.094  14.184
22812W        W89221  24.043  12.566  12.844
22813W        W89222  10.857  11.315  11.018
22814W        W89223  37.665  21.620   0.687
22815W        W89224   9.821  19.996  13.279
22816W        W89225  15.633  44.441  12.516
22817W        W89226  42.011   9.172   0.341
22818W        W89227  43.017  14.723  12.397
22819W        W89228  20.769  30.489  13.216
22820W        W89229   5.166   6.605   2.157
22821W        W89230  27.195  38.478   3.679
22822W        W89231  30.403   6.936  10.797
22823W        W89232  26.362  14.171  10.264
22824W        W89233  28.139   6.931   4.401
22825W        W89234  32.007  44.547   1.768
22826W        W89235   2.201  43.308  13.433
22827W        W89236   6.756  29.139  11.488
22828W        W89237  39.994  29.652   4.296
22829W        W89238  27.645  41.004  11.578
22830W        W89239  23.667  12.498   1.301
22831W        W89240  30.962  33.467   3.664
22832W        W89241  19.848  23.716  14.900
22833W        W89242  32.857  34.065  14.580
22834W        W89243  33.365  14.761   4.810
22835W        W89244  41.252   7.902  11.583
22836W        W89245   3.179  41.040  10.482
22837W        W89246   1.584  12.396  14.954
22838W        W89247  13.168  35.152   4.717
22839W        W89248  38.769  24.558   2.348
22840W        W89249  36.708  25.506   2.760
22841W        W89250  29.384  25.147   9.809
22842W        W89251  17.432   3.214   1.709
22843W        W89252  16.003  23.128  10.140
22844W        W89253  43.241  14.234   4.569
22845W        W89254  24.574  34.016   0.921
22846W        W89255  36.930  16.240  12.230
22847W        W89256   5.391  41.333   1.273
22848W        W89257  40.841  39.703  12.600
22849W        W89258  22.628  19.626  12.148
22850W        W89259  13.638   3.745   0.237
22851W        W89260   9.357  30.603  14.914
22852W        W89261  16.569  31.520  14.902
22853W        W89262  33.605  28.284   4.577
22854W        W89263   4.743   3.850   3.271
22855W        W89264   4.892  16.082   1.233
22856W        W89265   2.167   7.790  10.952
22857W        W89266  29.938  28.700   1.271
22858W        W89267  24.021   2.687   4.520
22859W        W89268  30.226   0.862   0.773
22860W        W89269  41.324  32.608   3.298
22861W        W89270   7.140  39.933   4.595
22862W        W89271  43.867   2.836   3.115
22863W        W89272  10.649  19.645   4.213
22864W        W89273  40.337   9.449  13.972
22865W        W89274  41.372  17.888  11.602
22866W        W89275  44.453   6.237   4.374
22867W        W89276  39.356  31.546   2.388
22868W        W89277  28.250  23.184   5.008
22869W        W89278  40.878  23.689  13.623
22870W        W89279  31.306   4.366   1.007
22871W        W89280  31.556   7.275  11.860
22872W        W89281  31.522  14.181  14.699
22873W        W89282  39.981   1.125  10.668
22874W        W89283  27.406  30.688   2.553
22875W        W89284  13.766  18.836   2.223
22876W        W89285  25.001  36.500   3.279
22877W        W89286  22.133   2.402   3.678
22878W        W89287  44.763   2.446   0.419
22879W        W89288  29.595  24.564  10.955
22880W        W89289  15.346  23.936  13.863
22881W        W89290   4.871   2.260  12.512
22882W        W89291   0.657  11.425  12.623
22883W        W89292  13.594  28.059  10.876
22884W        W89293  31.039   5.980  14.838
22885W        W89294  39.578  16.094   3.610
22886W        W89295  34.829  11.873   2.258
22887W        W89296  43.022  34.591   2.779
22888W        W89297  26.814  24.259   2.761
22889W        W89298  37.066   7.634   3.106
22890W        W89299  12.186  24.998  13.436
22891W        W89300  44.932  36.275  11.583
22892W        W89301  40.792  33.396   3.121
22893W        W89302  32.502  39.081  11.512
22894W        W89303  35.969  38.894   1.902
22895W        W89304   6.904  37.541  10.678
22896W        W89305  28.091   8.745  11.459
22897W        W89306   5.015  37.298   4.581
22898W        W89307  33.190  13.886   0.909
22899W        W89308  36.870  40.828   0.504
22900W        W89309  14.739  15.396  14.401
22901W        W89310  42.363  13.143   4.708
22902W        W89311  22.584  41.556  10.801
22903W        W89312  28.365  23.563   0.694
22904W        W89313  38.091   2.223  11.016
22905W        W89314  24.036   5.096  11.980
22906W        W89315  18.251  27.775   1.407
22907W        W89316  14.521  17.577  13.098
22908W        W89317  39.425  15.663   2.742
22909W        W89318  38.913  31.197  12.472
22910W        W89319  22.689  40.587  13.021
22911W        W89320  29.991   1.402  10.190
22912W        W89321  24.487  29.351   3.335
22913W        W89322   1.818  29.199   0.222
22914W        W89323   1.047  34.422   0.263
22915W        W89324  11.681  37.212  10.160
22916W        W89325  17.097  26.608   2.344
22917W        W89326  17.108  29.939   2.696
22918W        W89327  17.844  26.046  14.117
22919W        W89328  32.045  35.711   2.732
22920W        W89329  29.951  18.024  12.900
22921W        W89330  25.999   2.189  13.430
22922W        W89331  37.645  28.477  13.417
22923W        W89332  28.173  42.540  11.257
22924W        W89333   6.336  34.196   4.954
22925W        W89334  38.780  19.270   0.865
22926W        W89335  36.085   4.734   0.719
22927W        W89336  19.550  43.886   4.097
22928W        W89337  35.611  17.674  10.545
22929W        W89338  28.856  34.007  11.835
22930W        W89339  18.188  44.588  13.648
22931W        W89340  39.456  34.948   1.878
22932W        W89341  38.910  30.937  13.766
22933W        W89342   8.644  33.525   2.711
22934W        W89343   7.493   8.850  10.264
22935W        W89344  40.515  27.995  11.480
22936W        W89345  29.419  35.379   1.053
22937W        W89346   0.104  21.420  14.012
22938W        W89347   2.516  37.722  11.765
22939W        W89348  12.176  41.481   4.622
22940W        W89349  42.465  11.112   0.750
22941W        W89350  25.734  25.202   0.557
22942W        W89351  34.893  26.242  14.751
22943W        W89352  36.772  30.612  11.229
22944W        W89353  40.297  19.159  14.116
22945W        W89354  16.605   3.703  12.474
22946W        W89355  41.852  30.238   1.634
22947W        W89356  33.959  13.180  12.847
22948W        W89357  40.472   1.725  13.327
22949W        W89358  17.679  19.358   0.889
22950W        W89359  10.261  40.434  11.462
22951W        W89360  17.136   7.843  10.935
22952W        W89361  38.259  29.991  10.791
22953W        W89362  14.352  23.745  13.236
22954W        W89363  16.877  41.042   1.571
22955W        W89364  30.395  40.989  10.681
22956W        W89365  44.701  40.445   5.021
22957W        W89366  43.887  41.232   2.265
22958W        W89367  33.317   1.484  10.777
22959W        W89368  10.620  19.086   2.125
22960W        W89369  43.536  13.486  11.254
22961W        W89370  35.442  31.008  13.022
22962W        W89371   8.596  13.175  11.066
22963W        W89372   2.520  24.882   3.239
22964W        W89373  10.331  16.848  11.165
22965W        W89374   3.692  12.288   4.184
22966W        W89375  18.134   3.590  14.803
22967W        W89376   6.982  33.095  13.001
22968W        W89377   3.773  35.689  12.068
22969W        W89378  13.042  38.454  12.012
22970W        W89379  38.420   2.913  13.040
22971W        W89380   1.590   3.914   1.774
22972W        W89381  20.632  26.640  11.378
22973W        W89382  12.660   2.954   0.299
22974W        W89383  41.587   5.902   5.022
22975W        W89384   7.851  29.664   2.153
22976W        W89385  24.512   7.090   3.853
22977W        W89386  24.280  18.161  12.403
22978W        W89387   6.388  13.173   0.888
22979W        W89388   5.952  24.045   3.668
22980W        W89389  11.900  34.202   5.019
22981W        W89390  38.746  27.068   0.261
22982W        W89391  25.385   1.548  13.016
22983W        W89392  36.426   9.677   0.926
22984W        W89393  37.602  23.849  13.822
22985W        W89394  13.437  30.617  14.216
22986W        W89395  23.225  10.240  14.660
22987W        W89396   8.896  17.815   4.136
22988W        W89397   2.314  25.347   3.313
22989W        W89398  23.100  33.604  11.569
22990W        W89399   1.639   1.314   2.873
22991W        W89400  22.290  18.055  11.710
22992W        W89401  36.952  20.842  13.448
22993W        W89402  22.773  35.510   1.411
22994W        W89403  30.343  41.332   1.729
22995W        W89404  12.904  27.954   4.213
22996W        W89405   3.218  34.907   1.783
22997W        W89406  15.722  38.976  14.195
22998W        W89407  44.941  36.870  12.342
22999W        W89408  17.637  25.561   3.279
23000W        W89409   5.702  16.552  10.699
23001W        W89410  13.755  39.602   2.204
23002W        W89411  43.957   1.779  11.585
23003W        W89412  25.466  19.603  14.187
23004W        W89413  11.215  32.867  13.402
23005W        W89414  32.113  30.618   1.842
23006W        W89415  17.166  17.105   1.062
23007W        W89416  38.635  27.117   1.117
23008W        W89417  41.305  31.589  11.972
23009W        W89418   8.288   2.013   2.181
23010W        W89419  18.178  37.099  12.102
23011W        W89420  17.728   0.029  11.626
23012W        W89421  21.042   4.833   3.149
23013W        W89422  15.532  13.873  14.698
23014W        W89423  19.801  25.656  12.925
23015W        W89424  41.758  28.936  11.675
23016W        W89425  36.881   9.918   2.309
23017W        W89426   7.602  33.879  14.764
23018W        W89427   9.782  34.322  14.006
23019W        W89428   2.214   3.462   0.952
23020W        W89429  41.766  15.887  13.851
23021W        W89430  33.438  38.438  13.148
23022W        W89431  24.641  40.030  11.081
23023W        W89432   8.659  26.638  14.799
23024W        W89433   3.722   7.822   1.783
23025W        W89434  18.641  10.491  11.766
23026W        W89435  15.209   5.153   2.298
23027W        W89436  15.742   8.412  14.397
23028W        W89437  23.259   1.933  12.318
23029W        W89438  11.461  15.232  14.819
23030W        W89439   1.906  10.713   1.525
23031W        W89440  15.508  22.485  12.987
23032W        W89441  43.787  25.554   2.614
23033W        W89442   7.446  14.098   4.666
23034W        W89443   1.890  21.249   0.798
23035W        W89444  29.502  22.795   2.813
23036W        W89445  25.464   4.728  12.580
23037W        W89446  16.250   6.684  13.984
23038W        W89447  26.512  17.129   1.210
23039W        W89448  32.149  21.722   1.234
23040W        W89449  41.317  31.777   3.701
23041W        W89450  22.806  25.590  12.428
23042W        W89451  16.435  36.464  12.941
23043W        W89452  15.493  32.472  12.054
23044W        W89453  38.465  38.773  14.083
23045W        W89454   7.751  21.752  13.779
23046W        W89455  14.712  33.869   1.814
23047W        W89456   2.158  28.440   4.588
23048W        W89457  38.475   3.173  14.959
23049W        W89458  14.067  15.750  12.151
23050W        W89459  17.751  20.145   1.690
23051W        W89460  34.807  38.378   2.390
23052W        W89461  41.446  16.781   2.065
23053W        W89462  29.826   8.249  10.139
23054W        W89463  17.963   7.694  13.089
23055W        W89464  28.461  23.601   4.188
23056W        W89465  39.572  35.367  14.817
23057W        W89466  29.188  16.262  13.058
23058W        W89467   8.926  44.743   0.271
23059W        W89468  26.408  18.162  10.632
23060W        W89469  38.031  15.969  12.124
23061W        W89470   6.065  10.419  12.844
23062W        W89471  42.486   8.202   4.522
23063W        W89472   7.377  18.243  13.573
23064W        W89473   8.954  21.087   1.539
23065W        W89474  10.129  37.810   4.143
23066W        W89475  43.502   2.373   2.637
23067W        W89476   1.285  29.579  11.096
23068W        W89477  37.319  44.691   2.660
23069W        W89478   5.343  19.284  14.337
23070W        W89479   8.385  18.707  12.068
23071W        W89480  40.795  15.618   4.456
23072W        W89481   2.520  41.617   4.098
23073W        W89482   7.442   6.156   1.287
23074W        W89483  14.853   3.574   4.655
23075W        W89484  23.974   4.926   0.833
23076W        W89485   7.924   5.756  14.814
23077W        W89486   7.827  37.295   4.884
23078W        W89487  18.166  22.162  10.261
23079W        W89488   9.453   7.999  10.618
23080W        W89489  23.442  23.111   4.970
23081W        W89490  35.854  29.655   1.307
23082W        W89491  24.108   2.319   2.822
23083W        W89492  10.630  27.854   2.489
23084W        W89493  33.873  28.528  14.894
23085W        W89494  15.367  13.312  13.509
23086W        W89495  44.496  18.939  11.733
23087W        W89496  42.412  12.624  14.885
23088W        W89497   9.504  36.930   4.937
23089W        W89498  40.336  27.491  12.874
23090W        W89499  28.071   3.070   4.188
23091W        W89500  24.142  19.531   1.526
23092W        W89501  26.166  28.667  11.676
23093W        W89502  15.315  31.727   1.061
23094W        W89503   8.142   5.578   2.459
23095W        W89504  27.604  23.075  10.185
23096W        W89505  10.381  43.018   3.069
23097W        W89506  37.990  13.414   0.086
23098W        W89507  43.109  25.527  13.622
23099W        W89508  25.062  35.425   2.657
23100W        W89509  23.678   7.293   1.249
23101W        W89510   2.690  28.888   0.431
23102W        W89511  16.043  18.215   3.808
23103W        W89512  10.107  13.848  11.374
23104W        W89513   7.780  23.827  14.908
23105W        W89514  18.240   1.246  12.446
23106W        W89515  16.222  10.710   4.687
23107W        W89516  39.551  21.744  10.063
23108W        W89517   7.075  40.974  13.623
23109W        W89518  40.112   2.382   3.690
23110W        W89519  17.332  40.643  13.402
23111W        W89520  42.171  44.233  10.268
23112W        W89521  39.882  17.255   2.693
23113W        W89522  39.967   5.277   3.152
23114W        W89523  20.789  21.742  14.824
23115W        W89524  39.761  27.388  14.366
23116W        W89525   1.407  22.946   0.414
23117W        W89526  16.220  28.545   2.750
23118W        W89527  28.018   1.330   2.836
23119W        W89528  42.019  16.829   9.830
23120W        W89529   7.729  27.079  13.025
23121W        W89530  25.489   1.071   0.472
23122W        W89531  27.681   4.862  10.996
23123W        W89532   1.674  33.723   3.616
23124W        W89533  29.632   2.763   0.057
23125W        W89534  21.822  43.047  10.295
23126W        W89535  22.298   1.657   1.264
23127W        W89536  11.826  16.580   2.235
23128W        W89537   0.522  37.196   4.078
23129W        W89538  34.362  30.531   1.757
23130W        W89539  22.781  19.769   2.821
23131W        W89540  14.532  25.026  12.895
23132W        W89541  43.586  22.542  11.766
23133W        W89542   6.952   3.458   2.736
23134W        W89543  34.568  28.380  10.786
23135W        W89544  36.364  23.092  11.874
23136W        W89545   8.024  42.982  12.447
23137W        W89546  36.849  16.748   1.252
23138W        W89547  16.673  41.859  13.063
23139W        W89548   8.828  12.043   4.204
23140W        W89549  20.944   1.396  12.004
23141W        W89550  19.054  14.396  11.702
23142W        W89551  42.364  18.511  11.185
23143W        W89552  19.675  31.626  10.384
23144W        W89553  40.883  34.062   4.287
23145W        W89554  39.849   2.445   4.124
23146W        W89555  18.541  35.076  11.111
23147W        W89556  30.968  12.091  11.180
23148W        W89557  12.218  39.435  14.857
23149W        W89558  32.588   5.988   4.594
23150W        W89559  23.093  24.623   1.797
23151W        W89560  14.390   6.245   2.181
23152W        W89561   1.969  40.694   2.766
23153W        W89562  14.861  20.542   4.138
23154W        W89563  19.445   6.306  14.876
23155W        W89564  40.788  32.563  14.937
23156W        W89565  26.276  29.221  10.978
23157W        W89566   6.806  21.278  12.175
23158W        W89567  23.160  19.796  14.786
23159W        W89568  40.291  15.380  14.806
23160W        W89569  16.714  26.783  12.882
23161W        W89570  39.341  20.015  10.739
23162W        W89571  14.399  28.067  14.373
23163W        W89572  18.592  13.124  14.477
23164W        W89573   2.282   0.668  12.532
23165W        W89574   9.152   0.954   3.724
23166W        W89575  27.479  17.763  14.549
23167W        W89576  23.758  39.057  11.063
23168W        W89577  36.594  21.313   3.650
23169W        W89578  36.557  43.315  13.832
23170W        W89579   8.773  44.246   1.370
23171W        W89580  23.567  35.966  13.080
23172W        W89581  12.991  38.899   4.118
23173W        W89582  23.589  22.178  14.406
23174W        W89583  18.728   5.854   3.828
23175W        W89584  10.101  21.980   3.159
23176W        W89585   9.334  42.168   3.126
23177W        W89586  26.975  40.879  10.896
23178W        W89587  11.100   9.071  11.706
23179W        W89588  41.322  16.124   3.760
23180W        W89589   1.878   8.993   0.814
23181W        W89590  12.487  15.749   3.217
23182W        W89591   2.046  44.834  10.463
23183W        W89592  21.035  31.044  10.627
23184W        W89593  14.798  30.008   1.418
23185W        W89594  39.091  28.345   1.758
23186W        W89595   6.667   1.004  14.476
23187W        W89596   0.943   7.988  12.358
23188W        W89597   3.022  17.121  14.737
23189W        W89598  40.435  38.338   3.908
23190W        W89599  44.742  27.965   0.758
23191W        W89600  17.329  16.267  12.036
23192W        W89601  24.635  34.166  11.003
23193W        W89602  23.823  39.585   3.352
23194W        W89603  10.995  35.313  14.861
23195W        W89604  19.702  33.098   0.060
23196W        W89605  41.224  18.047  13.808
23197W        W89606  27.650  16.116   2.323
23198W        W89607   1.498   8.393  11.153
23199W        W89608   8.849  14.586  11.523
23200W        W89609  29.321  17.445   4.130
23201W        W89610  41.822   6.982  13.424
23202W        W89611  35.763   4.276   4.137
23203W        W89612  31.117  37.299  13.298
23204W        W89613  22.484  21.030  12.537
23205W        W89614  44.492  37.660  12.466
23206W        W89615   4.610  32.631  14.741
23207W        W89616   0.263  44.400  13.263
23208W        W89617  40.372  10.420  10.463
23209W        W89618  27.872   0.021   3.197
23210W        W89619  18.781  39.878   1.457
23211W        W89620   5.757   3.056   4.531
23212W        W89621  36.700  19.283   4.100
23213W        W89622   6.408   5.394  11.017
23214W        W89623  40.980   5.415  12.449
23215W        W89624  41.531  33.362  11.518
23216W        W89625  18.155  44.032  12.106
23217W        W89626  32.920  15.016   2.726
23218W        W89627  34.119  41.068  14.554
23219W        W89628  14.276  17.960  11.082
23220W        W89629  10.202  31.580  12.596
23221W        W89630  11.399  44.405   2.243
23222W        W89631   4.391  14.021   3.677
23223W        W89632   2.100  26.904  12.513
23224W        W89633  24.036  43.968   4.675
23225W        W89634  32.297  13.846  14.279
23226W        W89635  38.070  35.026  11.647
23227W        W89636  18.648   9.360   1.353
23228W        W89637  17.801   0.961  10.533
23229W        W89638  28.134  37.837   0.485
23230W        W89639  39.926  41.759   2.626
23231W        W89640  14.424   9.778  10.660
23232W        W89641  18.051  40.888  10.917
23233W        W89642  13.533  28.013  13.598
23234W        W89643   4.903   0.060   2.317
23235W        W89644  31.024  10.150  14.332
23236W        W89645   1.546  32.378   3.664
23237W        W89646  36.630  44.846  14.289
23238W        W89647  17.663  30.570   1.406
23239W        W89648  13.008   7.790  11.513
23240W        W89649  27.502  32.702  12.532
23241W        W89650  42.436  35.982  13.606
23242W        W89651   5.763   3.913   4.689
23243W        W89652  21.848   0.468   4.541
23244W        W89653  25.694  16.550  14.437
23245W        W89654  43.833  20.922  12.551
23246W        W89655   8.799   3.767   3.320
23247W        W89656  33.045  29.456  11.871
23248W        W89657  24.675  43.003   4.525
23249W        W89658   1.263  11.390  11.981
23250W        W89659  41.106  40.870   3.246
23251W        W89660  25.923  22.715  13.937
23252W        W89661  20.906  20.212  14.416
23253W        W89662  13.007  12.265  12.639
23254W        W89663   5.132  27.613  12.901
23255W        W89664  25.434  21.296   2.635
23256W        W89665  39.368  27.253  11.083
23257W        W89666  13.202  31.682   0.525
23258W        W89667  20.818  29.033   3.696
23259W        W89668  37.462  16.886   2.794
23260W        W89669  35.551   2.688  12.486
23261W        W89670  43.021  18.107  10.772
23262W        W89671   1.514  16.621  12.920
23263W        W89672  14.164  24.859   4.543
23264W        W89673  32.511   0.592  13.412
23265W        W89674  41.833   0.153  13.939
23266W        W89675   0.202  14.538   4.429
23267W        W89676  20.453  40.272  14.761
23268W        W89677   3.672  32.048  11.226
23269W        W89678   4.758  25.193  12.429
23270W        W89679   5.929   5.719   3.689
23271W        W89680  38.042  16.670  11.403
23272W        W89681   3.361  22.592   2.986
23273W        W89682  22.565  33.744   1.126
23274W        W89683  28.663  15.681  13.836
23275W        W89684   9.867  25.625   5.050
23276W        W89685  31.021  42.944  11.707
23277W        W89686   4.840  35.838   2.139
23278W        W89687  27.583  44.425  11.843
23279W        W89688   2.981   4.893   1.620
23280W        W89689  33.743  43.323   0.942
23281W        W89690  10.283  42.299   4.148
23282W        W89691  43.780  28.950  14.958
23283W        W89692   1.782  24.016   2.855
23284W        W89693   6.787  36.976   0.832
23285W        W89694  34.764   8.802   2.378
23286W        W89695  38.165  27.622   4.178
23287W        W89696  36.396   1.784  14.885
23288W        W89697   7.191  17.995   2.095
23289W        W89698   5.887  40.791  11.338
23290W        W89699  24.190  43.802   4.199
23291W        W89700  40.855  37.422  14.775
23292W        W89701   2.949   3.245   4.525
23293W        W89702   8.435  16.615  11.249
23294W        W89703   4.250  35.861   0.360
23295W        W89704  38.787  10.871  13.027
23296W        W89705  13.385   7.773  11.865
23297W        W89706  32.146   1.774  13.830
23298W        W89707  30.017  41.545  13.782
23299W        W89708  28.854   8.262  14.263
23300W        W89709   5.886   8.823  12.933
23301W        W89710  11.936  37.875   2.226
23302W        W89711   0.213  39.425   2.990
23303W        W89712  38.510   0.904  14.682
23304W        W89713  11.117  44.526  14.467
23305W        W89714  11.160  24.938   3.182
23306W        W89715  23.411  14.641   2.876
23307W        W89716   6.569  18.651  13.398
23308W        W89717  11.371  29.537  12.587
23309W        W89718  43.267   5.047   4.148
23310W        W89719  12.413  28.534   1.950
23311W        W89720  28.963   3.910  13.116
23312W        W89721  21.574  21.368   2.032
23313W        W89722  12.671  31.390   4.043
23314W        W89723  36.480  34.190   0.522
23315W        W89724   5.024   4.891  13.582
23316W        W89725  33.581   6.844  11.805
23317W        W89726  44.728  11.357  13.397
23318W        W89727  16.685  24.462  11.611
23319W        W89728   2.540   2.315  13.025
23320W        W89729  37.598  14.833  11.634
23321W        W89730   0.367  15.757  10.952
23322W        W89731  29.081  41.970  13.804
23323W        W89732  21.681  26.103   1.496
23324W        W89733  26.213  38.938   2.830
23325W        W89734  19.282  38.973   0.951
23326W        W89735  39.406  38.420   0.425
23327W        W89736  16.536  39.670   3.986
23328W        W89737  25.988   5.635   1.818
23329W        W89738  30.438   4.399  12.816
23330W        W89739   5.040  11.423  14.129
23331W        W89740   5.738  22.227   1.847
23332W        W89741  13.716   2.744  14.495
23333W        W89742  25.621   5.011   0.822
23334W        W89743  22.663  23.980   3.167
23335W        W89744  20.663  32.492   1.036
23336W        W89745  45.000   5.234   0.783
23337W        W89746  34.051  40.660  11.110
23338W        W89747  40.904  44.367  13.059
23339W        W89748  36.573  32.541  14.367
23340W        W89749   2.519  22.509  14.916
23341W        W89750  22.090  13.618  14.601
23342W        W89751  32.614  30.400   0.847
23343W        W89752  44.704  11.331   0.849
23344W        W89753  33.178  12.649   0.237
23345W        W89754  18.637  24.031   0.541
23346W        W89755  29.950  18.652   3.160
23347W        W89756   1.788   7.476   2.380
23348W        W89757  41.965  16.155   1.936
23349W        W89758  31.862  42.510  14.980
23350W        W89759  25.930  19.217   0.780
23351W        W89760  20.613  25.909  14.354
23352W        W89761  31.918  19.255   1.323
23353W        W89762  39.094  35.737  11.428
23354W        W89763  40.254  43.218   5.136
23355W        W89764   3.324  23.013   2.697
23356W        W89765  34.490  40.921  10.691
23357W        W89766  12.528  20.771  14.009
23358W        W89767  27.653  14.930   0.935
23359W        W89768  19.015  13.633   3.529
23360W        W89769  24.459  18.718  12.963
23361W        W89770   3.438  36.255   3.133
23362W        W89771   2.900  40.280   2.193
23363W        W89772  23.047  11.694  12.514
23364W        W89773  32.617  24.267  14.463
23365W        W89774   3.825  34.581  13.065
23366W        W89775  25.714  16.241   3.839
23367W        W89776   4.740  14.398   3.727
23368W        W89777  40.354  41.498   1.813
23369W        W89778  18.179   0.220  11.408
23370W        W89779  40.315  33.076  10.761
23371W        W89780  11.040   1.414   3.143
23372W        W89781  13.410  36.165  14.139
23373W        W89782  42.842   9.357   1.923
23374W        W89783  20.444  18.227   0.848
23375W        W89784  44.699  42.297  14.973
23376W        W89785  18.021  25.401  13.552
23377W        W89786  15.791  14.127  12.060
23378W        W89787  39.305  17.656   2.826
23379W        W89788  20.149  26.217   1.278
23380W        W89789  43.802  32.479   2.001
23381W        W89790  22.192  17.234   0.275
23382W        W89791   9.709  16.320  11.476
23383W        W89792  11.848   3.713  14.885
23384W        W89793  27.162  29.658  11.895
23385W        W89794   3.075  14.613  12.348
23386W        W89795  25.682  40.741   3.671
23387W        W89796   6.155  35.796   4.162
23388W        W89797  40.625   5.673   0.429
23389W        W89798  26.365   0.387  13.965
23390W        W89799   2.338  32.235  14.817
23391W        W89800   5.206  37.079  10.598
23392W        W89801  37.489  28.958   1.981
23393W        W89802  37.945   8.921  12.513
23394W        W89803   4.069  26.609   0.020
23395W        W89804   3.701  20.613  10.831
23396W        W89805   7.118  25.622   5.415
23397W        W89806   9.398  28.263   4.177
23398W        W89807  38.090  28.107   0.737
23399W        W89808  20.521  21.827  11.073
23400W        W89809  22.201  15.597  12.073
23401W        W89810  42.472  15.718  14.844
23402W        W89811  40.622  16.834   1.711
23403W        W89812  25.016   3.697   1.236
23404W        W89813  33.359  23.717  14.511
23405W        W89814  40.517  19.475   0.525
23406W        W89815  24.691  38.074  14.784
23407W        W89816  30.983  43.863  12.546
23408W        W89817  33.334  33.863   2.475
23409W        W89818  20.248  22.514   0.310
23410W        W89819   1.279  42.237   4.134
23411W        W89820  26.393  29.398  12.617
23412W        W89821   2.775  42.759   3.618
23413W        W89822  28.115  42.917   9.627
23414W        W89823  39.558  15.575   3.734
23415W        W89824  28.149  34.020   2.663
23416W        W89825  14.711  44.900  10.695
23417W        W89826  31.612   7.505   0.384
23418W        W89827   5.511  26.185   0.785
23419W        W89828  20.668   1.026   4.354
23420W        W89829  18.941  35.937  11.401
23421W        W89830  18.560  39.000   1.976
23422W        W89831   8.456   0.415   0.731
23423W        W89832  16.273  44.864  13.296
23424W        W89833  27.923  43.860   4.001
23425W        W89834  39.163  17.858  10.771
23426W        W89835   2.398  24.389  14.269
23427W        W89836  31.178  30.267  14.297
23428W        W89837  16.373  44.739   1.518
23429W        W89838  42.896  29.474   4.207
23430W        W89839  40.264   1.897   5.059
23431W        W89840   9.216  26.556  11.155
23432W        W89841  30.108  25.538   2.725
23433W        W89842  37.845  10.623   2.818
23434W        W89843  11.344  44.986   5.039
23435W        W89844  11.217  12.508   1.951
23436W        W89845  17.987  24.546   1.327
23437W        W89846  31.488   1.440  11.706
23438W        W89847   9.872  35.969  14.393
23439W        W89848  26.128   8.138   0.329
23440W        W89849   2.334  35.624  14.339
23441W        W89850   8.708   2.226   2.387
23442W        W89851  24.972  32.013  10.689
23443W        W89852  12.400   9.838   4.179
23444W        W89853   0.094  10.768   1.441
23445W        W89854   0.388  43.241   1.685
23446W        W89855  20.581  23.433  10.918
23447W        W89856  10.589  38.371  14.947
23448W        W89857  14.279  15.175  13.268
23449W        W89858   8.144  10.677   1.840
23450W        W89859  20.831  25.204  13.312
23451W        W89860  35.399  26.324  10.740
23452W        W89861  13.217   4.226  10.611
23453W        W89862  25.944  35.388  10.678
23454W        W89863  38.182  22.061   2.886
23455W        W89864  32.346  41.412  13.358
23456W        W89865  40.012  23.123  11.184
23457W        W89866  11.762  38.374   2.346
23458W        W89867   8.198  21.050  11.362
23459W        W89868  37.434  32.407  13.582
23460W        W89869   4.291   1.258   4.018
23461W        W89870  34.593   2.713  14.397
23462W        W89871  28.147  12.150   1.347
23463W        W89872   3.217   0.916   3.205
23464W        W89873  26.473  42.160  11.784
23465W        W89874  36.038  37.000   1.397
23466W        W89875  29.066  37.506  14.099
23467W        W89876  18.663  14.288  13.838
23468W        W89877  33.401  37.501  10.765
23469W        W89878  20.187  43.818  14.919
23470W        W89879  32.460  34.631  11.419
23471W        W89880  37.605   8.634   2.961
23472W        W89881   9.675  27.606   0.003
23473W        W89882  29.983  20.725  14.611
23474W        W89883   9.399  20.039   3.698
23475W        W89884  18.780   4.995  11.148
23476W        W89885  15.790   4.672  14.145
23477W        W89886  20.436  32.612  11.962
23478W        W89887  25.708  19.194  10.195
23479W        W89888  17.120  37.927  13.575
23480W        W89889  16.981  44.478  10.062
23481W        W89890   9.306  22.160   0.745
23482W        W89891  19.573  12.809  12.127
23483W        W89892   5.517   8.216  14.002
23484W        W89893  35.285   9.170  10.981
23485W        W89894  36.439  28.237  10.460
23486W        W89895  23.128  29.617   1.874
23487W        W89896  41.771  33.509  10.804
23488W        W89897   0.378   9.337   3.636
23489W        W89898  20.073  38.033   4.213
23490W        W89899   5.257  41.090   4.838
23491W        W89900  25.660  33.549  14.185
23492W        W89901  42.363  14.576  10.544
23493W        W89902  19.668  39.298  12.558
23494W        W89903  41.951   5.962   4.662
23495W        W89904   5.451  29.697   0.168
23496W        W89905  12.776   3.671   0.822
23497W        W89906  42.566  23.298  12.885
23498W        W89907  28.440  39.501   2.654
23499W        W89908  24.134  19.159  12.487
23500W        W89909  24.419  29.250  10.322
23501W        W89910  36.222  41.835   1.396
23502W        W89911  25.607  29.205  10.460
23503W        W89912  35.305  21.620  11.558
23504W        W89913  16.721  20.112  12.079
23505W        W89914   6.191  17.818   0.851
23506W        W89915  44.993   1.757   3.185
23507W        W89916  36.950   6.229  13.335
23508W        W89917  27.212  32.099  12.488
23509W        W89918  28.176  43.861  11.539
23510W        W89919  21.740  26.968   3.567
23511W        W89920   2.428  12.774   2.961
23512W        W89921   9.710   2.333   4.103
23513W        W89922  29.741  24.114  10.245
23514W        W89923  43.625  23.859   1.993
23515W        W89924  39.317  38.464  12.465
23516W        W89925  11.396   9.719   4.208
23517W        W89926  23.331  41.744   0.935
23518W        W89927  22.065  26.778  12.369
23519W        W89928  13.991  43.339   0.400
23520W        W89929  22.893  21.840   4.568
23521W        W89930  43.782  17.620   2.240
23522W        W89931   8.410   7.983   4.776
23523W        W89932  30.159  43.185   4.128
23524W        W89933  41.965   5.350   2.585
23525W        W89934  22.004   5.876   2.225
23526W        W89935   2.913  11.502  13.561
23527W        W89936  36.422   9.459   4.297
23528W        W89937  42.504  15.291   3.854
23529W        W89938  29.545  41.366  13.893
23530W        W89939   7.217  31.057  13.466
23531W        W89940   8.266  30.937   0.201
23532W        W89941   8.278   3.130  11.822
23533W        W89942  23.201  26.380   5.130
23534W        W89943   7.824  19.999  11.661
23535W        W89944   6.305  37.538  13.444
23536W        W89945  11.710  24.252  13.450
23537W        W89946   7.107  44.397  13.055
23538W        W89947  39.097  36.264  14.847
23539W        W89948  34.063  19.198  12.963
23540W        W89949  29.950  37.730   1.376
23541W        W89950  44.759  31.704   3.597
23542W        W89951  17.192   3.596   0.926
23543W        W89952   4.662  23.270  12.961
23544W        W89953  23.618  32.922   3.825
23545W        W89954  44.477   5.909  13.471
23546W        W89955  40.244  27.201  13.303
23547W        W89956   2.251  38.624   2.243
23548W        W89957  42.706   8.319  13.818
23549W        W89958   1.117  31.594   0.192
23550W        W89959  44.863  34.947   2.930
23551W        W89960  11.739  12.410   9.997
23552W        W89961  31.301  32.886  14.873
23553W        W89962  39.975  12.262  12.502
23554W        W89963   3.385  24.720  13.348
23555W        W89964   6.667  29.031  13.354
23556W        W89965  36.526  35.081   0.243
23557W        W89966  10.585   7.970   0.926
23558W        W89967  40.797  17.650   2.645
23559W        W89968  17.254  33.306  13.405
23560W        W89969  21.276  38.955  11.084
23561W        W89970   4.022  39.912   3.742
23562W        W89971  19.138  37.175   0.765
23563W        W89972  41.421   9.759  12.218
23564W        W89973  40.231   2.410  11.696
23565W        W89974  38.885  24.758  13.478
23566W        W89975  38.072  12.073   1.985
23567W        W89976  21.696  30.039  13.914
23568W        W89977  40.182  18.139  12.381
23569W        W89978  38.502   8.360  11.623
23570W        W89979  23.021  35.818   2.587
23571W        W89980   0.822   1.357   2.285
23572W        W89981  26.733  27.764  11.671
23573W        W89982  29.888  25.026  13.581
23574W        W89983  41.307  32.442  13.376
23575W        W89984  42.671  16.051  12.369
23576W        W89985  28.503  40.380   4.222
23577W        W89986  18.671  33.716   1.837
23578W        W89987   6.007  35.604   4.702
23579W        W89988  31.087  26.495   2.376
23580W        W89989  23.708   1.479   2.928
23581W        W89990  41.101  15.911  10.751
23582W        W89991  13.210  16.178  11.608
23583W        W89992  16.616  40.869  13.350
23584W        W89993  39.018  44.513   2.417
23585W        W89994  12.503  13.658   1.126
23586W        W89995  42.287  21.459   3.302
23587W        W89996  23.042  37.977  10.839
23588W        W89997  30.879  19.157  12.751
23589W        W89998  35.061  31.754   0.867
23590W        W89999  20.002  44.334   0.029
23591W        W90000  21.125  30.501   3.563
23592W        W90001   7.737  15.607  12.526
23593W        W90002  41.115   2.253   4.670
23594W        W90003   9.626  26.241  11.223
23595W        W90004  32.448  29.953   3.824
23596W        W90005   7.696   5.585   0.672
23597W        W90006  10.687  22.077  11.107
23598W        W90007  10.546  23.778  12.006
23599W        W90008  43.980  22.106  12.399
23600W        W90009   9.945  44.280   2.400
23601W        W90010  37.797  33.796   4.221
23602W        W90011  12.557  34.200  11.972
23603W        W90012   7.467  13.720   1.873
23604W        W90013  28.535  20.203  10.882
23605W        W90014  39.892   4.291   0.346
23606W        W90015  41.235  32.385   4.594
23607W        W90016  31.195  20.787  14.294
23608W        W90017  34.166  14.849  12.255
23609W        W90018  31.452  22.012   2.295
23610W        W90019  13.815   9.839  13.421
23611W        W90020  34.179  27.723   4.193
23612W        W90021  10.310  28.003   1.641
23613W        W90022   4.398  23.173   0.020
23614W        W90023  36.446  21.102   1.949
23615W        W90024  43.915  24.224   1.749
23616W        W90025  35.095  34.933   3.161
23617W        W90026  20.770  39.933  14.488
23618W        W90027  27.272  21.133  12.164
23619W        W90028  23.510   8.722  14.321
23620W        W90029  13.158   7.643   2.345
23621W        W90030  23.200  40.917   4.217
23622W        W90031   5.863  11.202  13.414
23623W        W90032   5.777  40.567   2.398
23624W        W90033  42.777  33.421  10.360
23625W        W90034  33.115  13.329   3.202
23626W        W90035  30.469  40.093  12.168
23627W        W90036  14.585  11.411   0.553
23628W        W90037   3.264  21.767  13.151
23629W        W90038   0.794   8.777   4.096
23630W        W90039  44.797  32.473   4.652
23631W        W90040  10.726  13.397   4.013
23632W        W90041  34.349   8.949   3.238
23633W        W90042  30.993   1.223   0.498
23634W        W90043  13.230  25.180   1.776
23635W        W90044   5.899  39.848   1.324
23636W        W90045  10.782  30.619   9.662
23637W        W90046  19.598  39.921   4.772
23638W        W90047  18.730   7.170   4.276
23639W        W90048  28.470  22.910   4.553
23640W        W90049  11.472  21.934   2.221
23641W        W90050  34.887  25.467   3.319
23642W        W90051  44.571   7.789   2.135
23643W        W90052  26.125  39.041   1.170
23644W        W90053  12.736   9.885  14.344
23645W        W90054  20.062   5.653  11.677
23646W        W90055  15.833  27.974  12.496
23647W        W90056  44.180   6.946   0.071
23648W        W90057  17.022   2.740  13.484
23649W        W90058  14.592  40.028  14.928
23650W        W90059  36.572  25.975  12.451
23651W        W90060   9.262   1.377   2.970
23652W        W90061  37.841  26.253  11.012
23653W        W90062  38.780  14.886   0.522
23654W        W90063  25.500  20.210  14.986
23655W        W90064  30.430  33.007  14.506
23656W        W90065  35.605   3.502  14.051
23657W        W90066  30.001  22.933   3.656
23658W        W90067  31.856  34.713  14.402
23659W        W90068  12.283   3.811   0.733
23660W        W90069  11.207   4.634   0.279
23661W        W90070  17.310  34.213  12.179
23662W        W90071  39.165  23.761   4.465
23663W        W90072  10.622   4.193   3.012
23664W        W90073   4.239   8.474   0.466
23665W        W90074   5.823   3.329  14.986
23666W        W90075  14.433  23.660   2.951
23667W        W90076  41.521  25.980   2.883
23668W        W90077  20.527   5.867   4.140
23669W        W90078   7.078  31.874   3.710
23670W        W90079  19.677  42.352  10.842
23671W        W90080  35.745  22.118   4.061
23672W        W90081  37.089  15.098   0.805
23673W        W90082   2.815   4.380  11.618
23674W        W90083  40.746  21.630   4.122
23675W        W90084  39.883  14.580   3.341
23676W        W90085  14.770  40.813  11.642
23677W        W90086   9.348  12.162  13.462
23678W        W90087   5.184  43.251  14.720
23679W        W90088  19.732  22.694  14.806
23680W        W90089  43.181  34.151  11.844
23681W        W90090  25.968  25.608   5.427
23682W        W90091  18.375  25.287  14.396
23683W        W90092  37.792  15.355  10.760
23684W        W90093  33.842  37.809  11.130
23685W        W90094  19.091  21.239  14.947
23686W        W90095  37.420  27.033  10.784
23687W        W90096   8.893  43.528  12.295
23688W        W90097  41.325   6.989   3.492
23689W        W90098   6.462   3.413  12.799
23690W        W90099   1.272  11.894  11.932
23691W        W90100  39.378  11.349   0.766
23692W        W90101  11.705   3.961  13.436
23693W        W90102  35.329  42.444  14.850
23694W        W90103  11.280  28.486  12.038
23695W        W90104  15.079  17.031  12.317
23696W        W90105  26.640  21.606   0.897
23697W        W90106  10.372  41.975  14.344
23698W        W90107  44.830  12.840   4.986
23699W        W90108  41.451  25.250   1.429
23700W        W90109  13.648   3.170   0.885
23701W        W90110  32.411  13.800  10.559
23702W        W90111  41.509  18.640  14.447
23703W        W90112  26.598  33.565  14.654
23704W        W90113  16.805   1.649   1.694
23705W        W90114   1.415  43.377  12.327
23706W        W90115  34.638  37.127  14.822
23707W        W90116  11.139  26.061  10.706
23708W        W90117   1.780   1.726  13.047
23709W        W90118  39.725  15.987  11.923
23710W        W90119  43.572  42.112  13.923
23711W        W90120  40.470  42.008   1.945
23712W        W90121   2.213  11.397   3.258
23713W        W90122  23.136  29.997   0.523
23714W        W90123   9.671  14.109  12.966
23715W        W90124  19.707  19.696   3.543
23716W        W90125  36.703  29.054   4.306
23717W        W90126  21.187   0.533   3.837
23718W        W90127  17.702  37.556   0.029
23719W        W90128  18.534  42.978   4.308
23720W        W90129  35.662  11.388  11.952
23721W        W90130  15.436  43.442  14.477
23722W        W90131  12.280  29.525  11.171
23723W        W90132   7.593  33.516   0.190
23724W        W90133  31.539  26.208  12.085
23725W        W90134  25.992  15.757  14.030
23726W        W90135  10.202  11.544   4.476
23727W        W90136  32.508  29.044  10.626
23728W        W90137   3.575  23.119   3.744
23729W        W90138  35.434   0.889  11.587
23730W        W90139  21.757  18.704   1.907
23731W        W90140  33.574   2.259   0.973
23732W        W90141  22.039  36.030   4.108
23733W        W90142  17.148   1.870  11.245
23734W        W90143  41.223  18.206  10.391
23735W        W90144   7.584  15.348   1.941
23736W        W90145  25.307  10.877  10.605
23737W        W90146  25.306   7.206  14.001
23738W        W90147   0.946  44.436   1.868
23739W        W90148  18.538  42.626  12.899
23740W        W90149  32.673   9.770  11.970
23741W        W90150   0.472   4.695   4.297
23742W        W90151  26.961  13.391   2.330
23743W        W90152  42.099  36.226  14.042
23744W        W90153  33.101   0.172  12.856
23745W        W90154  28.447   7.300  10.622
23746W        W90155   3.376  29.051  12.361
23747W        W90156  39.021  31.114   2.712
23748W        W90157  24.530  10.343   4.301
23749W        W90158  21.065  24.933   3.709
23750W        W90159  16.589  14.599  13.707
23751W        W90160  13.075  36.890  13.049
23752W        W90161   5.308  20.222   0.423
23753W        W90162  39.826  30.849   3.880
23754W        W90163   2.861  17.170  10.646
23755W        W90164  25.138  26.049  14.794
23756W        W90165  34.124  24.665  11.207
23757W        W90166  33.247   1.091  11.223
23758W        W90167  38.467  34.174  12.567
23759W        W90168   6.761  38.196   4.827
23760W        W90169  26.205  43.237   0.270
23761W        W90170  15.714  17.745  13.803
23762W        W90171  25.325   6.264  12.500
23763W        W90172  12.686   8.194   4.346
23764W        W90173  32.025  27.989  14.050
23765W        W90174  13.341  33.552   5.082
23766W        W90175  34.628  23.395  10.821
23767W        W90176   4.192   2.996   3.808
23768W        W90177  40.478  23.213  14.759
23769W        W90178  22.490  16.626   0.878
23770W        W90179  42.829   0.920  14.784
23771W        W90180  34.118  11.827   0.300
23772W        W90181  27.656  14.608   0.091
23773W        W90182  25.403  12.086  14.315
23774W        W90183   6.213   9.987  11.995
23775W        W90184   2.485  37.508  13.655
23776W        W90185  21.171  31.157   2.205
23777W        W90186  26.800  22.533  11.609
23778W        W90187  44.495   1.909   2.047
23779W        W90188  43.104  17.804  12.031
23780W        W90189  40.128  32.817   5.061
23781W        W90190  29.294   2.462   3.224
23782W        W90191  12.013  10.123   4.687
23783W        W90192  20.601   1.757   1.953
23784W        W90193  25.070  13.681   1.436
23785W        W90194   5.435  13.822  12.166
23786W        W90195   8.718  21.290  11.434
23787W        W90196  14.272  27.611   4.816
23788W        W90197  30.925  13.634   4.406
23789W        W90198  25.956  19.710   0.555
23790W        W90199  14.364  42.273   1.088
23791W        W90200  16.100  10.437   0.938
23792W        W90201   1.873  27.671   0.275
23793W        W90202  33.821  42.078  13.280
23794W        W90203  27.540  19.315  11.050
23795W        W90204   7.482  38.388  10.501
23796W        W90205  35.209  40.769   3.251
23797W        W90206  42.967  31.592   4.150
23798W        W90207   3.954  13.602   4.400
23799W        W90208  41.481  29.691  14.746
23800W        W90209   2.527  34.129   0.386
23801W        W90210  25.701   1.233  14.539
23802W        W90211   5.126  23.229   1.980
23803W        W90212  16.509   2.059  14.394
23804W        W90213  15.771  35.270  13.533
23805W        W90214  14.261  41.078  11.521
23806W        W90215  34.566  33.461  13.362
23807W        W90216  43.807  13.738  14.028
23808W        W90217   3.823  37.275   2.677
23809W        W90218  25.570  35.139   1.692
23810W        W90219  20.124  42.532   2.539
23811W        W90220  22.388  25.475  13.965
23812W        W90221  29.890   7.918   1.388
23813W        W90222  25.654   6.147   4.613
23814W        W90223  12.412  41.376  10.612
23815W        W90224  32.038   4.570   4.143
23816W        W90225  18.315  34.610  11.024
23817W        W90226   9.460  38.432   0.355
23818W        W90227   3.270  44.073   3.685
23819W        W90228  23.280  11.229  12.887
23820W        W90229  21.339  24.475   3.679
23821W        W90230  24.014  41.842   2.447
23822W        W90231  15.102  30.470   4.685
23823W        W90232  32.682  41.820   1.983
23824W        W90233  26.102  24.142  12.529
23825W        W90234   7.389  11.194  13.489
23826W        W90235   2.010  21.190   3.736
23827W        W90236  33.808   9.893   0.056
23828W        W90237   8.995  10.839   2.410
23829W        W90238  29.043  43.686   3.156
23830W        W90239  25.463  25.059  11.494
23831W        W90240  27.322  29.342   2.173
23832W        W90241  37.357  32.088  12.610
23833W        W90242   7.608  23.567   3.827
23834W        W90243   3.326  23.426   4.481
23835W        W90244  31.625  24.324   5.047
23836W        W90245  32.581  34.882  14.982
23837W        W90246   5.799   9.406   1.421
23838W        W90247  24.970   0.868   3.108
23839W        W90248  32.859  34.849  11.202
23840W        W90249  32.608   8.510  12.019
23841W        W90250  33.536  26.166   4.850
23842W        W90251   5.237  17.223   0.501
23843W        W90252  31.580  15.221   4.780
23844W        W90253  16.795  41.110   2.077
23845W        W90254   8.915  15.430   0.038
23846W        W90255   2.723  33.662  11.220
23847W        W90256  29.827  36.724  12.158
23848W        W90257   3.471  40.283  12.249
23849W        W90258  40.803   1.512   2.758
23850W        W90259  10.032  39.281   4.690
23851W        W90260  38.253  14.173   3.301
23852W        W90261  18.971  42.367   5.013
23853W        W90262  22.597  25.993  14.818
23854W        W90263  23.295  28.204  11.057
23855W        W90264   5.213  21.664  13.639
23856W        W90265  38.239  12.269   2.432
23857W        W90266  15.047  14.824   4.110
23858W        W90267   4.910  26.325  12.520
23859W        W90268   4.887  20.177   2.363
23860W        W90269  38.255  15.621  12.412
23861W        W90270  42.553   5.169   4.716
23862W        W90271  33.319   3.699  13.390
23863W        W90272  41.933  24.345  11.602
23864W        W90273   0.812  28.531  13.327
23865W        W90274  36.037  22.040   1.273
23866W        W90275  15.229  16.312  10.602
23867W        W90276  10.385   9.779   2.716
23868W        W90277  40.083  32.739   1.939
23869W        W90278  16.051  39.817   4.020
23870W        W90279  21.441  14.079  12.595
23871W        W90280  30.646   0.470   1.965
23872W        W90281   9.809  14.296   0.024
23873W        W90282  36.977  10.846   1.235
23874W        W90283  17.278   1.688   1.165
23875W        W90284  23.538  15.169   0.930
23876W        W90285   9.597  16.856   1.195
23877W        W90286   6.848  31.689   1.396
23878W        W90287  15.404  14.949  12.804
23879W        W90288  35.967   2.062  11.207
23880W        W90289  44.946  25.705  11.649
23881W        W90290  29.141  41.161   4.011
23882W        W90291  11.276  24.013   0.771
23883W        W90292  36.852  38.578   0.764
23884W        W90293   0.529   4.267  12.031
23885W        W90294  33.080  11.525  13.354
23886W        W90295  11.840   6.277  10.671
23887W        W90296  15.152  31.727   4.040
23888W        W90297  15.219  42.253  10.640
23889W        W90298  11.333   8.832  12.572
23890W        W90299  25.240  37.843   3.830
23891W        W90300  43.946   5.060  10.294
23892W        W90301  26.171  15.577   1.988
23893W        W90302  15.839  35.488  11.969
23894W        W90303  44.927   2.773  12.627
23895W        W90304  37.381   1.901   0.247
23896W        W90305  10.659  15.717   0.739
23897W        W90306  18.725  37.359  10.661
23898W        W90307   3.784   3.745   4.139
23899W        W90308  42.252  43.257  14.821
23900W        W90309   4.789  37.106  11.922
23901W        W90310  18.999  22.544  12.099
23902W        W90311  25.368  35.777  13.922
23903W        W90312  11.100   1.241   1.827
23904W        W90313  13.757   4.641   2.679
23905W        W90314  20.103  23.125  12.499
23906W        W90315  19.643  13.255   0.844
23907W        W90316  36.572  28.723  14.491
23908W        W90317  18.630  39.486  13.622
23909W        W90318  38.611  32.286  12.950
23910W        W90319  40.046  41.773  11.163
23911W        W90320  25.985  21.870   0.350
23912W        W90321  44.360  43.336  11.082
23913W        W90322  44.646  34.601  15.000
23914W        W90323  14.479  14.165  11.632
23915W        W90324  41.309  24.616  13.195
23916W        W90325   1.808   1.803  10.554
23917W        W90326   6.995  28.584  11.433
23918W        W90327   5.270  36.197  14.029
23919W        W90328  30.209  10.592   0.247
23920W        W90329  17.202  18.837  14.708
23921W        W90330   8.690  11.619  12.323
23922W        W90331  34.975  19.183   1.334
23923W        W90332  26.517  23.058  11.669
23924W        W90333  28.150  11.270   0.677
23925W        W90334  26.088  44.568   2.461
23926W        W90335  31.967  41.511   2.288
23927W        W90336   1.937  34.574  12.614
23928W        W90337  25.185  36.409  13.475
23929W        W90338  25.884   1.386  12.882
23930W        W90339  27.485  24.930  13.342
23931W        W90340   7.700  34.612   1.284
23932W        W90341  11.771  30.094  11.531
23933W        W90342  33.927  10.979  13.419
23934W        W90343  29.704  20.935   4.100
23935W        W90344  36.881  38.895   4.288
23936W        W90345  33.728  32.940   0.424
23937W        W90346  14.345  42.406  13.634
23938W        W90347  14.202  19.044  12.042
23939W        W90348   8.933  39.597   3.301
23940W        W90349  19.889  12.729  12.545
23941W        W90350  40.476  38.793  12.075
23942W        W90351  33.451  22.495  10.761
23943W        W90352  26.797   8.697  11.519
23944W        W90353  27.393   2.162  11.614
23945W        W90354  32.534   4.496  10.796
23946W        W90355  37.309  18.752  13.559
23947W        W90356  34.570  13.084  11.467
23948W        W90357  41.855  22.139   2.685
23949W        W90358  24.210  40.659  14.882
23950W        W90359  25.202  28.736   1.312
23951W        W90360  15.088  25.989  13.258
23952W        W90361  44.039  12.278  13.566
23953W        W90362  28.073   2.368  12.959
23954W        W90363  10.530  39.598   0.326
23955W        W90364  15.307   1.718   4.409
23956W        W90365   8.858   6.943  14.832
23957W        W90366  15.214   6.121  12.033
23958W        W90367  27.413  31.041  14.848
23959W        W90368   9.339  12.204   0.341
23960W        W90369   8.365  22.197   3.024
23961W        W90370   7.357   9.112  11.954
23962W        W90371   6.358   8.704   1.036
23963W        W90372  27.534  25.620   1.775
23964W        W90373  17.486  24.561  11.027
23965W        W90374  43.288  39.785  14.867
23966W        W90375   1.561   5.693   2.518
23967W        W90376  29.449  39.788   1.325
23968W        W90377  28.310  36.310  13.588
23969W        W90378  29.811   1.150   4.894
23970W        W90379  36.829  37.816  14.054
23971W        W90380  26.968  41.413  11.670
23972W        W90381  17.470   0.677  12.813
23973W        W90382  44.736  36.661   2.285
23974W        W90383  11.839  19.974  10.417
23975W        W90384  18.512  30.240   2.184
23976W        W90385   2.815  17.810  14.082
23977W        W90386   7.882  37.997  11.460
23978W        W90387  16.725  25.039  11.614
23979W        W90388   8.758  30.580   1.401
23980W        W90389  43.957  26.614   0.973
23981W        W90390  35.556  31.520  12.642
23982W        W90391  24.577  30.163  14.831
23983W        W90392   4.439  28.421  12.820
23984W        W90393  43.543   8.226  12.300
23985W        W90394  44.023   4.901   0.781
23986W        W90395  15.560   6.768   1.736
23987W        W90396  44.746  34.391   0.465
23988W        W90397  34.996  19.827   2.105
23989W        W90398   6.735  20.567   2.495
23990W        W90399  28.936   5.249   4.597
23991W        W90400  42.445  41.513   2.727
23992W        W90401  28.946  11.657   0.886
23993W        W90402  23.254   2.989   4.035
23994W        W90403  19.087  22.750   2.684
23995W        W90404  18.190  18.507   3.358
23996W        W90405   0.110  22.964  13.500
23997W        W90406  22.093  43.845   0.267
23998W        W90407  11.138  20.373  12.056
23999W        W90408  27.883  24.425  12.490
24000W        W90409  28.998  10.859  11.170
24001W        W90410  37.045  30.557   2.471
24002W        W90411  41.100  44.909   1.439
24003W        W90412  18.855   8.604   2.932
24004W        W90413  17.895  26.505  11.533
24005W        W90414  37.966  44.958   4.294
24006W        W90415   3.709  17.476  13.059
24007W        W90416  34.904  23.568   1.124
24008W        W90417   0.470  40.249   0.454
24009W        W90418   5.691  36.166   3.012
24010W        W90419  41.406  43.849  11.246
24011W        W90420  21.987  20.219   2.552
24012W        W90421  24.000  11.778   0.850
24013W        W90422  39.526  36.927   2.303
24014W        W90423  24.047   7.510  14.880
24015W        W90424  41.977   6.820  11.571
24016W        W90425  11.501  34.569   1.256
24017W        W90426  23.175   3.867  11.200
24018W        W90427  14.398  35.697   4.116
24019W        W90428  42.828  17.294   1.379
24020W        W90429  39.059  42.104   4.278
24021W        W90430  29.998  29.032   2.496
24022W        W90431   2.778   0.735   0.934
24023W        W90432  31.639  11.369  11.046
24024W        W90433  41.898  13.125  14.404
24025W        W90434  32.047   1.423   0.752
24026W        W90435  24.052  36.726   3.619
24027W        W90436  36.558  36.465  13.357
24028W        W90437  37.846   8.709  12.975
24029W        W90438   5.062  32.137  11.554
24030W        W90439  42.793  19.851   1.260
24031W        W90440  24.117  11.612  14.521
24032W        W90441  11.309  33.095   2.848
24033W        W90442  33.157   1.309  13.374
24034W        W90443  28.689  27.970  10.242
24035W        W90444  35.443  16.723  10.691
24036W        W90445   5.029  37.896  13.833
24037W        W90446  25.499  34.469   4.119
24038W        W90447  35.827  23.024  11.882
24039W        W90448  42.531  37.275  13.438
24040W        W90449  34.015   6.544  10.464
24041W        W90450  19.567  38.750   4.339
24042W        W90451   9.729   4.758   0.676
24043W        W90452   1.700  20.307  12.431
24044W        W90453   1.699   8.867   4.082
24045W        W90454   9.590  24.743   0.915
24046W        W90455  30.854   4.307   0.739
24047W        W90456  33.934  23.974   2.800
24048W        W90457  38.962  26.753   1.348
24049W        W90458  32.571   0.096  13.479
24050W        W90459  44.613  43.845   4.444
24051W        W90460  24.503  34.344  14.222
24052W        W90461  18.985   9.673  12.108
24053W        W90462  34.169  41.961   1.897
24054W        W90463   9.308  22.179  12.139
24055W        W90464  25.936   2.429   3.261
24056W        W90465   4.782  38.846  14.463
24057W        W90466  15.185  10.425  10.818
24058W        W90467  35.265  14.835   3.703
24059W        W90468  41.535  32.524  14.230
24060W        W90469  14.759  13.792  10.733
24061W        W90470   7.321  18.660   4.853
24062W        W90471   2.840  17.570  13.290
24063W        W90472   8.750  36.453   1.196
24064W        W90473   6.720  38.017  10.516
24065W        W90474   1.508  24.521  12.666
24066W        W90475  12.494  34.539  10.703
24067W        W90476  21.038  40.111  10.587
24068W        W90477  18.321  10.346   2.343
24069W        W90478  43.382  19.306   2.210
24070W        W90479   6.421  29.844  13.582
24071W        W90480   6.160  12.079  14.752
24072W        W90481  35.224  13.162   4.713
24073W        W90482  31.850   4.934  12.838
24074W        W90483  14.790  37.209  12.222
24075W        W90484  24.583  37.583   2.626
24076W        W90485   3.397  32.670  14.365
24077W        W90486  33.643  37.855  12.579
24078W        W90487   6.131  44.375  14.063
24079W        W90488  37.524  25.521   0.858
24080W        W90489  32.699  34.192  11.503
24081W        W90490  18.172  30.938  11.449
24082W        W90491  33.564  34.417   3.723
24083W        W90492  14.124  26.543   0.221
24084W        W90493  14.577  20.460   1.157
24085W        W90494  25.055  34.367  14.025
24086W        W90495  25.763   6.885   2.074
24087W        W90496  14.244  19.287   0.895
24088W        W90497  39.779  15.194  11.506
24089W        W90498  17.776  28.719   1.508
24090W        W90499  32.417  32.060  14.748
24091W        W90500  43.293  17.843   1.701
24092W        W90501  16.119  11.708  10.585
24093W        W90502  44.211   3.709   2.291
24094W        W90503  37.946  40.666   0.420
24095W        W90504  27.066  37.138   1.945
24096W        W90505  24.095  24.789   1.843
24097W        W90506  31.866  29.420   5.275
24098W        W90507  34.840  36.055  11.046
24099W        W90508  39.983  28.743  10.500
24100W        W90509  15.752   8.626  10.923
24101W        W90510  26.594  33.513   3.235
24102W        W90511  35.289  41.934  12.530
24103W        W90512  34.542  42.009  14.505
24104W        W90513  14.093  28.476  11.606
24105W        W90514   6.835  39.914   4.168
24106W        W90515  34.867  25.563  12.620
24107W        W90516  28.696   1.887   2.347
24108W        W90517  19.807  35.026   4.052
24109W        W90518  11.211  39.045  10.759
24110W        W90519  33.859  26.694  11.901
24111W        W90520  15.819   1.989   1.535
24112W        W90521  37.936  17.090   2.454
24113W        W90522  31.325  21.207  10.671
24114W        W90523   5.178  27.996  11.612
24115W        W90524  38.787  33.513   2.734
24116W        W90525  43.397   0.388  12.813
24117W        W90526  38.676   0.263   2.821
24118W        W90527  19.687  40.871  14.862
24119W        W90528  21.491  41.393  14.789
24120W        W90529  14.317  41.013  13.352
24121W        W90530  25.452  41.679  14.718
24122W        W90531  23.767   9.658  11.643
24123W        W90532  36.617  19.480  14.754
24124W        W90533  39.283  44.467  14.783
24125W        W90534  14.856   6.811  11.642
24126W        W90535  16.486  22.143  12.898
24127W        W90536   8.275   6.243   1.011
24128W        W90537  16.992  17.707  11.692
24129W        W90538  36.818  32.476   3.109
24130W        W90539   6.249   1.877   3.201
24131W        W90540  20.766  31.552  12.884
24132W        W90541   8.988  17.530   0.730
24133W        W90542  23.127  10.423   4.705
24134W        W90543  21.176  36.700  10.999
24135W        W90544   8.154   1.190   4.998
24136W        W90545  38.488  19.455  12.401
24137W        W90546  39.519   6.686   0.331
24138W        W90547  34.125  33.229   4.686
24139W        W90548   6.193   5.858  14.411
24140W        W90549  13.427   3.059   2.240
24141W        W90550  18.146  35.652  11.041
24142W        W90551   5.233  38.146   2.423
24143W        W90552  26.995  17.768   1.929
24144W        W90553  29.261   4.821  11.505
24145W        W90554   8.245  15.833   3.871
24146W        W90555  43.773  34.433  10.621
24147W        W90556  12.067  26.011  11.002
24148W        W90557  23.473   5.877  10.899
24149W        W90558   9.409   8.281   0.334
24150W        W90559  12.414  10.822   3.233
24151W        W90560  31.180  24.194   2.283
24152W        W90561  29.207  17.187  12.873
24153W        W90562  26.532  10.279   3.534
24154W        W90563   9.469  11.581  11.163
24155W        W90564   2.741   3.304  10.448
24156W        W90565  10.440  20.924   4.117
24157W        W90566   1.243  27.220   0.799
24158W        W90567  14.117   1.239  13.509
24159W        W90568  34.446  19.122   2.313
24160W        W90569   7.703  41.276  14.797
24161W        W90570  24.060   6.232  10.363
24162W        W90571   9.466   6.763  11.216
24163W        W90572  41.342   4.976   2.328
24164W        W90573  27.181  10.176  13.147
24165W        W90574  29.007  22.190   3.923
24166W        W90575   2.205   7.229   4.549
24167W        W90576  44.335  41.252   3.832
24168W        W90577  10.757  31.371   0.233
24169W        W90578  20.510  35.425  13.468
24170W        W90579  16.799  26.459  10.750
24171W        W90580  35.743  38.816  11.095
24172W        W90581  34.727  41.184  14.931
24173W        W90582   9.856  30.395  11.649
24174W        W90583  40.033  39.344  13.403
24175W        W90584  42.830  14.414  13.791
24176W        W90585   0.864   1.312  13.575
24177W        W90586   3.396  31.447  12.935
24178W        W90587  23.136  42.387   2.941
24179W        W90588  10.186  26.518   2.284
24180W        W90589   5.748  28.640   5.528
24181W        W90590  30.540   4.753  11.594
24182W        W90591  18.119  28.978   0.910
24183W        W90592  30.029   6.924  12.057
24184W        W90593  30.976   2.167  12.056
24185W        W90594  18.055  37.334   4.458
24186W        W90595  42.420  35.885  12.202
24187W        W90596  23.245  43.574  13.430
24188W        W90597  14.239  24.623  13.009
24189W        W90598  42.854   3.101   1.637
24190W        W90599   7.179  35.052  10.517
24191W        W90600   2.659  30.964  11.468
24192W        W90601   9.433  15.985  13.937
24193W        W90602   3.407  23.969   2.857
24194W        W90603  24.689  16.162  12.469
24195W        W90604  23.145  20.747  11.401
24196W        W90605  11.828  24.669   0.691
24197W        W90606  36.138  14.038  13.976
24198W        W90607  31.574   0.442   4.524
24199W        W90608  38.465  30.213   4.962
24200W        W90609  24.924  43.494   4.606
24201W        W90610   0.674  19.026  11.986
24202W        W90611  33.762  38.871  13.846
24203W        W90612  40.425  18.329  11.405
24204W        W90613  29.363   6.270   0.048
24205W        W90614  23.941  10.187   2.824
24206W        W90615   3.740   8.682  12.894
24207W        W90616  15.304  32.559  12.521
24208W        W90617  25.754  36.462   3.826
24209W        W90618  13.564   8.854  13.557
24210W        W90619   7.479  38.346  14.007
24211W        W90620  42.016  18.728   4.488
24212W        W90621   4.698  25.010   3.696
24213W        W90622  32.999  34.866  11.968
24214W        W90623  11.449  29.380   2.357
24215W        W90624  18.379  21.660   3.714
24216W        W90625  11.069  36.168  14.008
24217W        W90626  19.676  39.739   2.656
24218W        W90627  13.435   8.640   1.361
24219W        W90628  39.497  41.748   2.312
24220W        W90629  10.321  27.082   1.238
24221W        W90630  24.705  42.768   1.032
24222W        W90631  25.610  11.855  10.489
24223W        W90632  20.690  37.493   5.294
24224W        W90633  17.627  28.588  11.312
24225W        W90634   9.684   2.861  13.594
24226W        W90635   1.256  26.317  12.966
24227W        W90636  17.660   0.618   3.183
24228W        W90637  27.150  10.868   4.968
24229W        W90638  38.865   0.887   1.291
24230W        W90639  35.958   5.772   2.159
24231W        W90640   6.242  10.382  12.339
24232W        W90641   4.959  23.019  14.198
24233W        W90642  38.290  13.782   1.948
24234W        W90643  34.392  40.758   2.333
24235W        W90644  43.883   9.662  14.014
24236W        W90645  40.923   2.470  12.220
24237W        W90646   6.244  10.633  14.736
24238W        W90647  14.755  12.583  12.895
24239W        W90648   1.885  37.764  14.797
24240W        W90649  16.493  31.218  11.126
24241W        W90650  24.157  20.003  11.846
24242W        W90651   3.248   0.122  14.573
24243W        W90652  25.065  23.766   0.782
24244W        W90653   4.855  18.728  13.930
24245W        W90654  37.679  12.851   2.475
24246W        W90655  39.556  38.328   4.557
24247W        W90656   3.632  41.658  13.515
24248W        W90657   7.343  33.622   2.264
24249W        W90658   7.887  19.353  14.663
24250W        W90659  37.569  40.928   1.702
24251W        W90660   5.331  35.190   4.464
24252W        W90661  12.721   7.772  11.083
24253W        W90662  32.408   5.697   1.901
24254W        W90663  20.053  36.411   3.145
24255W        W90664   2.743  31.971  11.157
24256W        W90665  25.971  13.831   0.326
24257W        W90666  27.355  13.579   1.222
24258W        W90667  36.447  35.980   2.230
24259W        W90668   9.482  20.575   1.028
24260W        W90669  17.053  23.537   3.245
24261W        W90670  29.369  10.186   4.929
24262W        W90671  28.717   8.922   1.410
24263W        W90672  30.637  31.952  11.501
24264W        W90673  19.597  16.566   4.399
24265W        W90674  18.576  27.064   0.617
24266W        W90675  14.332  23.489   4.460
24267W        W90676  13.650  30.621  14.691
24268W        W90677   0.892  12.216  13.836
24269W        W90678  22.733   4.703   0.849
24270W        W90679  44.007  33.771  10.444
24271W        W90680  29.213  10.737  12.666
24272W        W90681   2.446  41.317   1.752
24273W        W90682  38.209   3.743   3.658
24274W        W90683  41.674  25.529  12.603
24275W        W90684  29.946  20.453   2.779
24276W        W90685  33.183  32.863  12.090
24277W        W90686  21.320   3.438   1.526
24278W        W90687  17.787  28.042   4.812
24279W        W90688   8.944  20.701   3.286
24280W        W90689  42.017  11.263  14.076
24281W        W90690   8.706  12.774  14.344
24282W        W90691  38.851  25.943   3.094
24283W        W90692  27.588  10.391   5.490
24284W        W90693  38.623  10.978  11.896
24285W        W90694  11.246  28.743  11.188
24286W        W90695  33.386  29.238   1.756
24287W        W90696  13.096  34.788  14.175
24288W        W90697  44.384  36.225   0.537
24289W        W90698  37.366   3.069  13.741
24290W        W90699  35.483  33.118   0.970
24291W        W90700   0.954  10.579  14.465
24292W        W90701  35.160  24.584   2.734
24293W        W90702  22.676  11.934  10.720
24294W        W90703  43.131  23.065   0.939
24295W        W90704  21.948  33.327  10.328
24296W        W90705  39.585  38.013  11.026
24297W        W90706  28.447  35.015  14.459
24298W        W90707  37.412  18.021  12.185
24299W        W90708  39.929  10.137  13.087
24300W        W90709  32.276  14.825  14.782
24301W        W90710  11.774   6.819   2.003
24302W        W90711  25.597   2.804  11.266
24303W        W90712  40.042  11.525  12.849
24304W        W90713   1.829  44.456  10.776
24305W        W90714  17.657   6.274   0.468
24306W        W90715  30.922  30.118   4.585
24307W        W90716  44.475  40.225  13.105
24308W        W90717  18.159  38.546  11.600
24309W        W90718  36.390  25.672   3.914
24310W        W90719  40.251  15.073   0.218
24311W        W90720  13.431  40.260  10.629
24312W        W90721  43.527  11.755   4.149
24313W        W90722  38.928  18.600   3.131
24314W        W90723  43.967  30.615  13.414
24315W        W90724  23.073  14.300  13.413
24316W        W90725  33.094  21.191   5.207
24317W        W90726   3.798   8.416  14.670
24318W        W90727   8.431  31.847   3.232
24319W        W90728  33.421   5.153  11.611
24320W        W90729  39.613  20.828  11.053
24321W        W90730  32.035  38.514   2.664
24322W        W90731  33.188  35.979   0.419
24323W        W90732   3.290  31.679   4.366
24324W        W90733  10.705  10.353   4.080
24325W        W90734  19.325  42.626   4.687
24326W        W90735   8.494   4.438   0.917
24327W        W90736  40.991  22.024  10.457
24328W        W90737   0.503   4.656   1.353
24329W        W90738  40.261   4.412   4.646
24330W        W90739  13.400  15.265  11.578
24331W        W90740  44.055   7.062   4.802
24332W        W90741  13.359  16.068   2.288
24333W        W90742  12.124  14.812  11.577
24334W        W90743  27.752  28.249  11.111
24335W        W90744   2.697   9.019   3.777
24336W        W90745  39.330  30.609   4.505
24337W        W90746   6.223  31.396   0.643
24338W        W90747   0.903  17.192   3.787
24339W        W90748  43.371  26.057   1.670
24340W        W90749   4.824  18.801   0.805
24341W        W90750  40.376  39.967   4.013
24342W        W90751  27.996  23.425   2.879
24343W        W90752  10.279  41.884   0.691
24344W        W90753  25.950  10.252   2.850
24345W        W90754  39.109   5.729  10.426
24346W        W90755  28.171  28.393  12.853
24347W        W90756  43.126   3.983  13.989
24348W        W90757  16.821  35.898   3.147
24349W        W90758  28.017  21.222  10.257
24350W        W90759  43.607  26.651   0.157
24351W        W90760  28.684  16.682  14.042
24352W        W90761  38.458  26.202   1.772
24353W        W90762   2.023  23.056  13.866
24354W        W90763  34.853  14.838  12.608
24355W        W90764   8.425  19.899   4.552
24356W        W90765   3.713  20.208   3.800
24357W        W90766   0.826  14.604  11.077
24358W        W90767  24.095   9.200   4.525
24359W        W90768  20.686  21.859   2.717
24360W        W90769  22.075  13.231  12.996
24361W        W90770  24.009  41.000  13.900
24362W        W90771   5.174  40.904  11.551
24363W        W90772  24.242  35.814  12.571
24364W        W90773  15.798  44.260  12.065
24365W        W90774  33.134   5.715  13.255
24366W        W90775   2.209  25.139  14.201
24367W        W90776  22.681  28.944  14.834
24368W        W90777  44.989  29.182   2.354
24369W        W90778  18.057  12.738  12.814
24370W        W90779  30.631  31.942  13.847
24371W        W90780  20.807   1.063  12.893
24372W        W90781  42.847  11.327   0.006
24373W        W90782  32.338  19.174  12.221
24374W        W90783  39.104  39.078  14.231
24375W        W90784  34.452   2.323   5.057
24376W        W90785  42.824   0.694   0.252
24377W        W90786   3.751  36.737   2.819
24378W        W90787  25.233   7.666  10.236
24379W        W90788  21.175  13.490  10.577
24380W        W90789   1.416   0.604   1.867
24381W        W90790  33.359  40.750  13.947
24382W        W90791  24.376  25.007   3.216
24383W        W90792  31.050  12.457  12.055
24384W        W90793  32.250  12.196  10.767
24385W        W90794  26.311  32.012  13.352
24386W        W90795  41.482  20.316   0.014
24387W        W90796  39.888  20.236  13.566
24388W        W90797  33.492  20.335  14.697
24389W        W90798  12.221  35.920   3.212
24390W        W90799   6.612  40.184   1.887
24391W        W90800  32.961  44.343   2.446
24392W        W90801  12.831  33.686  12.781
24393W        W90802  43.714  40.388   0.802
24394W        W90803  43.512  36.969  14.301
24395W        W90804  23.962  14.573  12.956
24396W        W90805   1.381  43.857   0.906
24397W        W90806   2.316  25.748  13.768
24398W        W90807  30.155   4.249  13.514
24399W        W90808  36.936  30.713   1.991
24400W        W90809  40.123  20.845   4.561
24401W        W90810  11.195  34.190   1.440
24402W        W90811  41.728   1.930  14.820
24403W        W90812  14.878   2.788  13.289
24404W        W90813   7.694   9.572   3.694
24405W        W90814  44.290  15.756  11.193
24406W        W90815   3.494  28.544  11.195
24407W        W90816  40.037  37.403   9.883
24408W        W90817  12.608  44.321   4.549
24409W        W90818  39.904  42.625   4.055
24410W        W90819   0.700  27.903   1.627
24411W        W90820  12.950  43.669  14.992
24412W        W90821  29.274  43.453   3.832
24413W        W90822  12.413   1.251  12.594
24414W        W90823  17.807   8.224  14.796
24415W        W90824   6.976   0.451  12.892
24416W        W90825  30.116  34.135   3.725
24417W        W90826  28.752  12.838  13.924
24418W        W90827  21.189  13.970   1.588
24419W        W90828  37.316  44.925   0.425
24420W        W90829   0.830  29.890   1.744
24421W        W90830  37.470   2.459   2.097
24422W        W90831  41.362  21.567   1.768
24423W        W90832   4.007  31.994   0.452
24424W        W90833  14.358  29.006   4.663
24425W        W90834  21.455  16.549   0.714
24426W        W90835   6.408   4.391   2.822
24427W        W90836   8.646  26.228  14.457
24428W        W90837  39.940  43.927   2.424
24429W        W90838  33.950  28.977  11.938
24430W        W90839  19.826  40.819  12.962
24431W        W90840   0.377  16.938   2.635
24432W        W90841   6.481  22.717  12.126
24433W        W90842  27.721   4.765  14.839
24434W        W90843  31.233  10.550   0.055
24435W        W90844  44.866  31.393  12.465
24436W        W90845  38.864   1.760   2.261
24437W        W90846  10.786  14.553  13.160
24438W        W90847  44.922  13.207   3.604
24439W        W90848  26.493  12.710   3.228
24440W        W90849  12.857  22.009   3.223
24441W        W90850  17.587   5.877   0.793
24442W        W90851  36.146  20.194  13.315
24443W        W90852  14.034  26.908  13.939
24444W        W90853  34.128   1.855   4.277
24445W        W90854  38.410  38.880  13.131
24446W        W90855  15.733  38.803   1.894
24447W        W90856   2.035  14.575   0.903
24448W        W90857   5.277  40.578  13.285
24449W        W90858  27.494  37.678   2.305
24450W        W90859  38.075   2.400  12.317
24451W        W90860   7.623   3.468   0.960
24452W        W90861  37.610  24.885  11.509
24453W        W90862  17.349  25.113   3.181
24454W        W90863  29.768   9.369   4.806
24455W        W90864   1.498  30.952  10.963
24456W        W90865  20.711   0.755   3.819
24457W        W90866  32.044  31.672  12.063
24458W        W90867   2.742   9.605  14.501
24459W        W90868  20.140  24.564  14.333
24460W        W90869   2.250  14.346  14.555
24461W        W90870  30.128  36.004  13.835
24462W        W90871   5.655  20.654   3.885
24463W        W90872  11.646  33.764   0.274
24464W        W90873  23.809  39.601  10.603
24465W        W90874   3.757   8.459   0.686
24466W        W90875  25.937  18.271  10.468
24467W        W90876  13.409  31.979   9.746
24468W        W90877  36.421  24.630  12.888
24469W        W90878   6.724   3.939   2.864
24470W        W90879  44.036   6.125   5.338
24471W        W90880  22.014  17.967   1.417
24472W        W90881  43.780  30.691  10.692
24473W        W90882  22.115  30.049  13.035
24474W        W90883  29.077  43.776  13.243
24475W        W90884  22.904   4.273  13.458
24476W        W90885  24.192  43.742  10.898
24477W        W90886  37.659  15.534  13.792
24478W        W90887  22.275  15.520   3.969
24479W        W90888  19.753  23.170  12.065
24480W        W90889   0.847  17.578  10.777
24481W        W90890  36.638   1.423   2.208
24482W        W90891   3.895  26.925  14.071
24483W        W90892  13.554  43.033   3.777
24484W        W90893   8.592  18.821   3.215
24485W        W90894   3.015  16.850   3.285
24486W        W90895   9.963   6.269  10.681
24487W        W90896  24.566   5.604  13.008
24488W        W90897  26.519   8.413  13.292
24489W        W90898  44.412  37.425   2.625
24490W        W90899  31.638  43.934   2.359
24491W        W90900  27.409  38.167   4.799
24492W        W90901   2.777  13.793   2.311
24493W        W90902  24.593   5.344   4.457
24494W        W90903  15.637  25.040   2.777
24495W        W90904  10.257   2.785  11.924
24496W        W90905   0.307  25.774  12.037
24497W        W90906  22.678  35.881  12.444
24498W        W90907  32.609  34.383   2.239
24499W        W90908  16.191  33.482  12.540
24500W        W90909  15.186   3.334   4.324
24501W        W90910  21.922  20.884  12.639
24502W        W90911  40.514  42.908   2.341
24503W        W90912  12.985   7.662   4.920
24504W        W90913  42.996  28.465  14.210
24505W        W90914  22.187  15.607  14.496
24506W        W90915  28.979  42.760   4.995
24507W        W90916  10.945  21.629  11.223
24508W        W90917  34.998  21.821  14.360
24509W        W90918  11.459  19.452  12.673
24510W        W90919   0.438   4.016  10.799
24511W        W90920   7.716  26.437   3.333
24512W        W90921  24.611   6.369   4.523
24513W        W90922  41.319  24.828  14.074
24514W        W90923  34.722  44.439   0.034
24515W        W90924  10.722  36.115   2.909
24516W        W90925  17.588  20.730   0.756
24517W        W90926  32.337  16.766  12.730
24518W        W90927  38.798  24.240  12.031
24519W        W90928  30.579  21.164   1.745
24520W        W90929  21.822  29.492   2.176
24521W        W90930  43.267  24.436   4.939
24522W        W90931  41.913  26.154   2.188
24523W        W90932   8.279  23.495   1.231
24524W        W90933  12.920  25.268   2.216
24525W        W90934  41.590   5.319   4.333
24526W        W90935   7.102  33.979   4.750
24527W        W90936   3.001   5.554   2.221
24528W        W90937  25.224  32.789   3.747
24529W        W90938  42.795   1.773   3.647
24530W        W90939  17.245  22.587   2.843
24531W        W90940  40.806   6.302   0.231
24532W        W90941  18.512  16.879  11.417
24533W        W90942  36.583  15.500  12.165
24534W        W90943  35.403   0.183   1.284
24535W        W90944  17.939  36.980  10.732
24536W        W90945  40.852   6.247  10.380
24537W        W90946  13.130  15.245  11.145
24538W        W90947  18.976   0.953   1.356
24539W        W90948  14.676  32.929   3.961
24540W        W90949   3.285  13.053   1.406
24541W        W90950  43.210  39.100  14.079
24542W        W90951   6.823  36.077  13.380
24543W        W90952  21.161  27.236   1.276
24544W        W90953  35.423   3.289   3.557
24545W        W90954  32.514  17.184  14.559
24546W        W90955  25.013  14.179  14.746
24547W        W90956  43.438  43.961   4.354
24548W        W90957  13.305  14.846  14.055
24549W        W90958   3.179  20.259   1.250
24550W        W90959  13.807  23.252  10.690
24551W        W90960  28.008  38.570   1.434
24552W        W90961  13.151   6.761   0.784
24553W        W90962  12.899  29.225  14.434
24554W        W90963   7.368   3.885   1.281
24555W        W90964  24.674  43.895   2.319
24556W        W90965   9.690  39.480  14.822
24557W        W90966  31.149   6.957  14.475
24558W        W90967   8.777  27.685  14.449
24559W        W90968   0.744  38.418  11.463
24560W        W90969  27.991   5.384  12.685
24561W        W90970  42.793  27.871   3.688
24562W        W90971  24.098  17.483   0.755
24563W        W90972  20.848  44.526  11.169
24564W        W90973  15.086  21.282   4.011
24565W        W90974  25.418  16.951  14.254
24566W        W90975  43.033  25.313  14.373
24567W        W90976  20.605  36.480   2.725
24568W        W90977  27.074   6.694   1.709
24569W        W90978  37.802   0.722  14.514
24570W        W90979  17.811  29.903  12.298
24571W        W90980  43.764  29.415   2.654
24572W        W90981   2.007  36.950   2.630
24573W        W90982  12.103  38.552  10.843
24574W        W90983   9.145  29.519   0.466
24575W        W90984  13.803   9.819   2.623
24576W        W90985  39.882   2.999  12.376
24577W        W90986   0.305  42.914  13.878
24578W        W90987  44.694  25.715  11.217
24579W        W90988  29.499  10.183   0.203
24580W        W90989  13.180   9.173   1.768
24581W        W90990  13.684  31.006  13.334
24582W        W90991  43.794  11.414   3.756
24583W        W90992  22.399  20.140  14.331
24584W        W90993  31.891  12.116   0.330
24585W        W90994  23.961  22.659   1.235
24586W        W90995  36.863  38.240  14.347
24587W        W90996  35.841  34.651   2.882
24588W        W90997  44.483  27.457  13.571
24589W        W90998  23.919  33.573  13.872
24590W        W90999   7.737   8.798   0.283
24591W        W91000  19.175  42.377  14.835
24592W        W91001  40.051  44.939  13.299
24593W        W91002  34.310  10.566  12.481
24594W        W91003  21.250  36.467  12.796
24595W        W91004  21.612   7.423   0.009
24596W        W91005  38.377  21.442   0.577
24597W        W91006  38.623  35.690   2.669
24598W        W91007  11.474  22.266  10.450
24599W        W91008  24.216  18.724   0.027
24600W        W91009  34.843  32.579   2.380
24601W        W91010  27.121  11.210  11.319
24602W        W91011  22.908  24.034   0.130
24603W        W91012  33.182  20.080  14.354
24604W        W91013  37.980  29.488   1.025
24605W        W91014  42.377  28.017   3.386
24606W        W91015  25.624  14.026  12.337
24607W        W91016  38.411  29.612  14.505
24608W        W91017  37.821  31.798   2.743
24609W        W91018  44.317  14.138  12.406
24610W        W91019  42.360  38.406  14.237
24611W        W91020  30.192  34.010  13.845
24612W        W91021  42.884   7.858   4.967
24613W        W91022  22.995  19.854  13.069
24614W        W91023  43.424   4.831   1.704
24615W        W91024  40.781   2.007   0.315
24616W        W91025  11.509  44.436  12.684
24617W        W91026  20.957  29.120   3.205
24618W        W91027  13.982  24.332   1.948
24619W        W91028  10.466  22.665  12.983
24620W        W91029   6.711  11.663  13.583
24621W        W91030  31.964  16.557   0.316
24622W        W91031  11.751   9.217   1.909
24623W        W91032   3.436  21.032  10.677
24624W        W91033  29.212   5.862   0.430
24625W        W91034  15.364  21.159  12.410
24626W        W91035  18.486   6.300  13.003
24627W        W91036   0.566  12.311   4.816
24628W        W91037  16.261   7.414  11.191
24629W        W91038  41.382  38.806  12.025
24630W        W91039   3.298  13.800   4.794
24631W        W91040  28.459  15.704   1.313
24632W        W91041  38.861  19.577   0.425
24633W        W91042  13.294  34.363   1.445
24634W        W91043  23.069  21.723   5.499
24635W        W91044  28.790  36.196  13.772
24636W        W91045  32.447   4.337  11.692
24637W        W91046  20.827  16.227   4.348
24638W        W91047  40.495  35.486  10.581
24639W        W91048  27.572  21.650   3.731
24640W        W91049  42.088   9.910   0.977
24641W        W91050  26.967  36.472  12.714
24642W        W91051  35.559  25.031   1.301
24643W        W91052   2.463  16.045   1.234
24644W        W91053  34.068  29.936   0.442
24645W        W91054  42.302  38.057   2.437
24646W        W91055  13.089  32.196  12.895
24647W        W91056  22.253  24.738  14.454
24648W        W91057   0.921  10.428   1.420
24649W        W91058  25.263  38.155   1.245
24650W        W91059  27.673  28.124   3.156
24651W        W91060  34.814   1.284   0.370
24652W        W91061  13.882  28.381   4.256
24653W        W91062  21.188  30.604   3.065
24654W        W91063  26.299   7.542   1.179
24655W        W91064  37.483  11.855   3.703
24656W        W91065   2.504  22.488   2.355
24657W        W91066  23.520   1.370  13.006
24658W        W91067   8.735   1.276   0.175
24659W        W91068  11.707  38.606  12.478
24660W        W91069  25.252  43.082   3.680
24661W        W91070  34.202  28.637   0.252
24662W        W91071  44.414  20.149   3.830
24663W        W91072   6.799  23.303  13.489
24664W        W91073  44.986  12.385  11.081
24665W        W91074  34.035   3.308   2.776
24666W        W91075  22.711  33.247  13.526
24667W        W91076   1.565  28.216  12.369
24668W        W91077  18.693  16.077  12.553
24669W        W91078  41.171   9.270  11.487
24670W        W91079  17.883  14.708  13.366
24671W        W91080  13.406  22.087   1.440
24672W        W91081  35.571  33.629   0.918
24673W        W91082  35.540   8.342  13.417
24674W        W91083  12.146  23.915   1.872
24675W        W91084  23.170   3.361  13.073
24676W        W91085   7.404  22.119  13.830
24677W        W91086  42.684  15.770  11.148
24678W        W91087  16.166  15.552  11.656
24679W        W91088  16.572  23.071   0.333
24680W        W91089   7.759  10.257  12.655
24681W        W91090  24.566  12.040   1.426
24682W        W91091  33.322  18.286  12.981
24683W        W91092  14.755  22.194   1.701
24684W        W91093  13.506  22.567  13.855
24685W        W91094   0.946  18.036  11.969
24686W        W91095  41.192  26.186  13.573
24687W        W91096   4.754  16.764  13.136
24688W        W91097  25.255  44.572  11.068
24689W        W91098  20.049  32.194   1.843
24690W        W91099   6.708   8.431   4.466
24691W        W91100  15.222  10.312   4.368
24692W        W91101  22.498  34.554  12.083
24693W        W91102  14.527  10.337   3.119
24694W        W91103  44.998  15.736   2.161
24695W        W91104  19.092  31.166  14.556
24696W        W91105  15.671  35.607   2.253
24697W        W91106  16.770  22.118  12.043
24698W        W91107  42.743  25.100  12.890
24699W        W91108   3.004  19.144  14.948
24700W        W91109  22.373  18.253  12.660
24701W        W91110  34.694   2.439   3.811
24702W        W91111  31.760   4.767  10.374
24703W        W91112   4.531  33.539  13.399
24704W        W91113   8.279  11.219   0.686
24705W        W91114  39.486  19.147   2.784
24706W        W91115  16.557  14.236  10.724
24707W        W91116   8.628  26.774   2.527
24708W        W91117  32.698   6.980   1.432
24709W        W91118  27.733  27.323   0.044
24710W        W91119  39.739  16.149   1.924
24711W        W91120   0.939   8.781   0.078
24712W        W91121   5.222   4.703   3.188
24713W        W91122  10.343  44.045   1.446
24714W        W91123  13.291  41.255  14.164
24715W        W91124  23.607  38.023  13.474
24716W        W91125   7.260  15.378  12.425
24717W        W91126  39.189  13.113   1.284
24718W        W91127  19.022   9.932   0.894
24719W        W91128  40.794  35.101   2.718
24720W        W91129  17.303   3.401  13.747
24721W        W91130   3.686  33.326   2.728
24722W        W91131  39.773  31.585   3.346
24723W        W91132   3.452  24.037  14.107
24724W        W91133  39.066  11.158   4.289
24725W        W91134  33.971  14.393  12.157
24726W        W91135  13.239  25.602  13.396
24727W        W91136  28.627   8.742  12.125
24728W        W91137  39.890  12.195  14.268
24729W        W91138  27.564  23.101   2.775
24730W        W91139  12.941  17.122   1.449
24731W        W91140   8.709  26.812   2.009
24732W        W91141  39.521   0.414  13.834
24733W        W91142  31.790  23.280   0.067
24734W        W91143   1.885  22.679   2.929
24735W        W91144  25.578  18.169  13.569
24736W        W91145   9.184  20.005  13.636
24737W        W91146  34.564  26.947   3.808
24738W        W91147  30.012  14.303  11.661
24739W        W91148   5.685  34.495   4.792
24740W        W91149  11.670  14.344  13.178
24741W        W91150  17.492  35.978  10.820
24742W        W91151   5.282  32.833  13.263
24743W        W91152  16.036   9.363   0.392
24744W        W91153  21.682   3.148   1.240
24745W        W91154  26.926   0.704  11.880
24746W        W91155  25.137  16.961   3.334
24747W        W91156   6.215   2.415  14.823
24748W        W91157  15.987  40.490   2.142
24749W        W91158  12.755  35.962  10.089
24750W        W91159  20.962  21.737  13.411
24751W        W91160  41.014  40.017  12.960
24752W        W91161  13.907  28.152  14.462
24753W        W91162   5.843  34.595  13.867
24754W        W91163  41.763   3.433   0.504
24755W        W91164  28.106  10.104   3.158
24756W        W91165  15.565  11.407   3.394
24757W        W91166  27.986   9.314  10.209
24758W        W91167   3.229  14.958  11.979
24759W        W91168  19.831  19.279  13.921
24760W        W91169  25.758  20.665  14.782
24761W        W91170  19.925   6.431  14.738
24762W        W91171  15.033  17.676  14.787
24763W        W91172  34.368  31.021  11.982
24764W        W91173  29.949  31.956  12.983
24765W        W91174  44.583  14.208  13.956
24766W        W91175  27.463  14.434  10.693
24767W        W91176  19.024  20.102  14.254
24768W        W91177  43.366   1.867   2.918
24769W        W91178  41.930   7.868   1.778
24770W        W91179  22.715  11.830   3.352
24771W        W91180  10.146  37.143  11.211
24772W        W91181  37.119  13.200  14.772
24773W        W91182   9.180  10.870   4.572
24774W        W91183  30.722   8.294  11.355
24775W        W91184  26.403  43.605  14.930
24776W        W91185   4.938  15.295  12.046
24777W        W91186  38.576  10.134   1.336
24778W        W91187  29.600  11.334  14.442
24779W        W91188  41.134  28.555  12.976
24780W        W91189  43.568   6.925   4.940
24781W        W91190  40.375  24.504   4.576
24782W        W91191  35.640  38.489  12.044
24783W        W91192  12.767  23.234   3.288
24784W        W91193  38.214  27.473   2.279
24785W        W91194  21.059  27.916   4.176
24786W        W91195  28.332  12.197   5.489
24787W        W91196  10.382  13.286   2.631
24788W        W91197  23.341  34.186   0.352
24789W        W91198  11.098  19.855   4.089
24790W        W91199  11.755  26.046   3.110
24791W        W91200  17.459  35.605  12.484
24792W        W91201  27.394   8.705   0.063
24793W        W91202  27.421   7.015   2.688
24794W        W91203  33.033  31.915   4.630
24795W        W91204  27.950   3.998   2.846
24796W        W91205  33.382  12.798  12.468
24797W        W91206  25.526  42.497  11.590
24798W        W91207  20.644  20.469   2.214
24799W        W91208  17.584   5.945   4.952
24800W        W91209  14.080  39.747  10.959
24801W        W91210  19.164  26.228  12.604
24802W        W91211  38.894  32.342   3.895
24803W        W91212  37.886  25.301   4.184
24804W        W91213  36.552  11.849  10.553
24805W        W91214   3.202  26.718   0.325
24806W        W91215  26.078   4.977   4.374
24807W        W91216   3.836  22.909  10.716
24808W        W91217  10.564  42.820  13.283
24809W        W91218  38.925   7.141   2.864
24810W        W91219  20.129  14.797   2.073
24811W        W91220  20.304   5.775  13.597
24812W        W91221   6.103  23.176  14.512
24813W        W91222  17.376  11.469  12.428
24814W        W91223   4.458  30.348   1.797
24815W        W91224  12.206   0.736  13.808
24816W        W91225  35.824  40.036   4.020
24817W        W91226  43.714  34.571  14.079
24818W        W91227  26.110  21.982  14.448
24819W        W91228  21.276   4.926   4.514
24820W        W91229   4.179  11.245   1.749
24821W        W91230  44.804   1.153  13.971
24822W        W91231  34.627  42.440  10.999
24823W        W91232  13.052  12.945   1.500
24824W        W91233   8.164  36.504  11.895
24825W        W91234  13.707  42.049  12.497
24826W        W91235   6.814  27.043   2.413
24827W        W91236  17.301  44.698  13.498
24828W        W91237  18.654   8.746  14.414
24829W        W91238  24.748   5.234  14.613
24830W        W91239  26.879  22.094  14.896
24831W        W91240  43.076  16.357   2.917
24832W        W91241  10.056  39.087   2.506
24833W        W91242   8.286  27.097   2.335
24834W        W91243  33.488  16.454   2.418
24835W        W91244  19.768  37.580  13.507
24836W        W91245  38.298  17.568   2.221
24837W        W91246  41.910  26.180  11.930
24838W        W91247  16.204  41.934   1.877
24839W        W91248  26.285  34.523   9.827
24840W        W91249  20.138  37.330   3.549
24841W        W91250  23.165  13.926  11.284
24842W        W91251  31.139  15.205  14.563
24843W        W91252   0.044   6.423   1.149
24844W        W91253  16.124  20.205   2.394
24845W        W91254  34.847  24.085   1.201
24846W        W91255  34.797  37.022   0.723
24847W        W91256  22.909  16.989  12.540
24848W        W91257  20.456  10.053   2.398
24849W        W91258   3.110  28.197  12.157
24850W        W91259  32.564  16.115   0.456
24851W        W91260   5.508  44.144   4.053
24852W        W91261  21.068  21.219  13.502
24853W        W91262  14.243  18.194  12.453
24854W        W91263   9.226  31.057  10.623
24855W        W91264  13.638  13.816  13.439
24856W        W91265  33.014  26.377   3.057
24857W        W91266  39.486   6.893   1.419
24858W        W91267  32.619  36.694  14.853
24859W        W91268  44.934  24.070   1.961
24860W        W91269  35.050  25.198   3.731
24861W        W91270  22.283  17.027  13.377
24862W        W91271   8.401  30.885   3.176
24863W        W91272   4.188  31.527   0.289
24864W        W91273  11.717   3.445  12.643
24865W        W91274   8.920   3.258  14.787
24866W        W91275  11.295  26.192   1.888
24867W        W91276  41.929  19.592   1.967
24868W        W91277   4.242   7.776   4.277
24869W        W91278  27.090   3.394   2.927
24870W        W91279  25.298  27.746  14.540
24871W        W91280  32.598  11.795  13.967
24872W        W91281   6.159  22.589   5.076
24873W        W91282  20.167  43.433   2.863
24874W        W91283   5.670   1.394   1.271
24875W        W91284  36.281  12.811   4.943
24876W        W91285  32.576  23.133   4.556
24877W        W91286  18.530  31.868   0.325
24878W        W91287  30.487  35.614  13.828
24879W        W91288   5.385   7.117  13.224
24880W        W91289  23.493  36.320  12.637
24881W        W91290  13.289  35.336  12.009
24882W        W91291   9.979  22.362   2.073
24883W        W91292  18.772  29.434   4.174
24884W        W91293  40.522  44.888   3.354
24885W        W91294  40.635  30.248   4.433
24886W        W91295  30.576  38.552   4.291
24887W        W91296  37.112  13.420   2.828
24888W        W91297   6.614   9.237   0.888
24889W        W91298  32.723  10.751  14.675
24890W        W91299  30.628   1.729  14.452
24891W        W91300   4.204  31.854  12.051
24892W        W91301  41.587   3.222   1.803
24893W        W91302  24.702  38.357   3.421
24894W        W91303  31.758  35.026   4.666
24895W        W91304  39.337   2.282   2.506
24896W        W91305  43.444  22.072   1.873
24897W        W91306  31.771  44.848   2.352
24898W        W91307  42.819  41.826  13.519
24899W        W91308   2.336  42.856  11.173
24900W        W91309  40.659  10.389  11.948
24901W        W91310  22.104  29.135   0.476
24902W        W91311  11.982   8.773  11.602
24903W        W91312  36.018  38.095  13.055
24904W        W91313  27.107  28.199  14.778
24905W        W91314   2.849  31.674  10.733
24906W        W91315  16.044   4.187   3.056
24907W        W91316  36.704  30.916  11.680
24908W        W91317   9.190  35.132   1.328
24909W        W91318  20.107  19.292   2.073
24910W        W91319  43.245  14.584  12.884
24911W        W91320  38.618  20.636   1.744
24912W        W91321  41.469  29.103  13.787
24913W        W91322  38.422  17.060   2.242
24914W        W91323  12.571  15.214   3.808
24915W        W91324  22.900  36.574  12.911
24916W        W91325   3.816   5.333  10.494
24917W        W91326   2.265  18.569   0.358
24918W        W91327  43.907  36.602   2.847
24919W        W91328   1.854  30.538  13.923
24920W        W91329  20.850  34.033   3.188
24921W        W91330   0.814   8.171   2.366
24922W        W91331   7.388  26.063   4.768
24923W        W91332  40.937  10.275  12.830
24924W        W91333  20.191  38.719  11.678
24925W        W91334  15.869  13.755  12.915
24926W        W91335   8.872  25.996   4.119
24927W        W91336  43.394  11.466   4.574
24928W        W91337  30.112  16.597  14.059
24929W        W91338  37.805  39.885  11.359
24930W        W91339  27.093  30.863   1.402
24931W        W91340  28.589  12.794   1.796
24932W        W91341  31.633  11.731  13.532
24933W        W91342  19.713  43.474  11.414
24934W        W91343   1.898   7.131   3.267
24935W        W91344  18.126  21.336   1.134
24936W        W91345  29.807   9.131  14.306
24937W        W91346  29.053  10.534   4.509
24938W        W91347  19.711   0.741  12.571
24939W        W91348  44.919   7.296  14.823
24940W        W91349  42.550   9.462   3.498
24941W        W91350  41.614  22.172   2.235
24942W        W91351  17.571  24.587   4.357
24943W        W91352  12.276  11.447  12.527
24944W        W91353  37.024  41.346  14.459
24945W        W91354   1.194  44.255   4.593
24946W        W91355   3.407  32.582   3.036
24947W        W91356  37.099  19.889   3.699
24948W        W91357  16.522   8.662   4.094
24949W        W91358   1.786  17.601   1.827
24950W        W91359   0.685   9.554  14.365
24951W        W91360  34.461  16.087  14.698
24952W        W91361  34.131   4.430   0.391
24953W        W91362  42.507  26.226   3.386
24954W        W91363  33.480  13.090  10.439
24955W        W91364   8.389  37.984  11.559
24956W        W91365  43.908  20.449   1.485
24957W        W91366  41.006  36.996   2.336
24958W        W91367   8.916  28.186  12.512
24959W        W91368  25.139  41.370  12.610
24960W        W91369  11.297  20.612  10.724
24961W        W91370  40.452  20.906   3.268
24962W        W91371  38.853  30.888   4.586
24963W        W91372  10.899  21.754  12.905
24964W        W91373  29.567  28.601   1.662
24965W        W91374  39.902  12.396  13.768
24966W        W91375  36.241  43.714   4.400
24967W        W91376  16.768  44.321  13.971
24968W        W91377  20.209  13.549   2.749
24969W        W91378   3.944  23.973   1.422
24970W        W91379  16.837  18.334   0.890
24971W        W91380  33.043  10.007   1.918
24972W        W91381  40.918  35.841  14.823
24973W        W91382   4.004   6.658   4.818
24974W        W91383  12.734   8.147   0.574
24975W        W91384  19.202  34.350   4.079
24976W        W91385   1.215  14.281   4.612
24977W        W91386   6.260  21.701   2.945
24978W        W91387  17.064  33.855   0.690
24979W        W91388  39.975  28.768  11.504
24980W        W91389  40.489  36.547   3.077
24981W        W91390  27.083  12.264  12.611
24982W        W91391  34.954  24.492   1.959
24983W        W91392   7.887  37.603   3.781
24984W        W91393   5.725  22.329   2.770
24985W        W91394  21.228  40.859   1.319
24986W        W91395  29.410  14.944   1.699
24987W        W91396  42.386  21.493   0.864
24988W        W91397   6.701  29.660  13.987
24989W        W91398  10.493  37.970  11.104
24990W        W91399  28.714   2.683  11.517
24991W        W91400  24.758   4.294  13.832
24992W        W91401  15.388  14.101   3.928
24993W        W91402  17.545  35.498   2.184
24994W        W91403  32.741   1.782  11.855
24995W        W91404  24.784   8.410  11.855
24996W        W91405   9.870  31.515   0.346
24997W        W91406  25.541  39.017   0.669
24998W        W91407  23.475  24.955   3.195
24999W        W91408  22.082  34.525   3.572
25000W        W91409  30.462  39.092  11.989
25001W        W91410  17.769  18.850   4.508
25002W        W91411  44.300  12.090  12.720
25003W        W91412  34.993   2.331   5.019
25004W        W91413  29.473  11.729   1.103
25005W        W91414  35.955  39.095  13.091
25006W        W91415  25.531  11.852  13.875
25007W        W91416   9.616  32.824  12.519
25008W        W91417  27.516  11.290   2.004
25009W        W91418  34.482  25.878   2.134
25010W        W91419  40.471  32.977  14.913
25011W        W91420   7.769  30.174   0.417
25012W        W91421  28.388  30.926  10.922
25013W        W91422  39.561  44.110   2.860
25014W        W91423  21.921  20.764  13.308
25015W        W91424  44.681  28.725  13.353
25016W        W91425   5.442  38.354   0.337
25017W        W91426  37.405  32.301   0.345
25018W        W91427  17.065  39.296  11.166
25019W        W91428  11.941   2.917  14.304
25020W        W91429  15.852  36.311  12.102
25021W        W91430  33.468  10.814   1.933
25022W        W91431  15.661  24.126   1.274
25023W        W91432   2.390  27.894   1.452
25024W        W91433  30.249  33.786  11.641
25025W        W91434   8.605  37.574   2.057
25026W        W91435   3.374  10.788   3.528
25027W        W91436  19.575  40.976   2.005
25028W        W91437  20.638  18.619   1.697
25029W        W91438  21.476  14.810   2.483
25030W        W91439  34.779   3.551   4.070
25031W        W91440  35.895  34.453   3.386
25032W        W91441   3.039  22.116   3.768
25033W        W91442  44.629   8.869  13.083
25034W        W91443  16.005  34.670   3.197
25035W        W91444  43.401  26.516  12.064
25036W        W91445  43.283  42.301   3.801
25037W        W91446  10.059   1.531   1.524
25038W        W91447  26.177  32.548  12.029
25039W        W91448  21.153  15.194  14.977
25040W        W91449   8.429   8.910   3.328
25041W        W91450  21.525  30.546  12.415
25042W        W91451  25.500  22.750  13.515
25043W        W91452  25.487   9.837  14.972
25044W        W91453  40.927  29.630   0.346
25045W        W91454  19.965  28.981   4.565
25046W        W91455  21.569  27.941   2.328
25047W        W91456  40.033  23.089   2.182
25048W        W91457  27.873  44.875  10.210
25049W        W91458   0.500  19.070   2.362
25050W        W91459  42.542  37.017  11.656
25051W        W91460   6.874  34.319  10.308
25052W        W91461  43.025   5.734  10.746
25053W        W91462  26.140  33.426   0.993
25054W        W91463  11.142  37.111   0.256
25055W        W91464  32.209   6.950   2.428
25056W        W91465   1.624  44.314   1.026
25057W        W91466  29.505  12.487  10.177
25058W        W91467  38.465  40.262  13.810
25059W        W91468  16.760   0.912  12.449
25060W        W91469  25.568  38.469   4.928
25061W        W91470  24.116  21.804  14.042
25062W        W91471  41.417  35.700   3.667
25063W        W91472  30.093  35.850   3.777
25064W        W91473   4.300   5.802  11.163
25065W        W91474  37.009  34.814  12.989
25066W        W91475  14.620  42.771   1.842
25067W        W91476  24.810  42.776  10.695
25068W        W91477   4.011   9.441  13.595
25069W        W91478  43.815  32.919  10.646
25070W        W91479  18.213  25.626  10.971
25071W        W91480  37.318  16.379   2.710
25072W        W91481   3.477  29.259   1.309
25073W        W91482  24.961  30.048  11.555
25074W        W91483   3.145   4.467   0.931
25075W        W91484   6.772   1.253   4.663
25076W        W91485  34.504   1.041   1.133
25077W        W91486  11.376  31.245  11.468
25078W        W91487   5.384  11.435   1.692
25079W        W91488  10.306  10.879   0.085
25080W        W91489  41.981  20.988   4.060
25081W        W91490   2.948   3.396  14.903
25082W        W91491  42.916  31.314  14.018
25083W        W91492  31.791   2.751   3.797
25084W        W91493  43.892  36.099  14.323
25085W        W91494   8.764   2.343   1.203
25086W        W91495  44.259  27.120   4.555
25087W        W91496   4.150  26.085   3.791
25088W        W91497  33.668  28.910   4.036
25089W        W91498  41.911  14.896  14.694
25090W        W91499  37.939  30.044   0.542
25091W        W91500  30.228  14.713   4.593
25092W        W91501  32.626  23.027  10.979
25093W        W91502   2.308   6.169   0.325
25094W        W91503   6.594   5.495   3.999
25095W        W91504  38.394  40.433   4.207
25096W        W91505  30.343  29.837   0.039
25097W        W91506  11.094  26.577   1.162
25098W        W91507  44.535   1.957  12.460
25099W        W91508  43.540  15.556   0.352
25100W        W91509  18.917  18.250   2.843
25101W        W91510   2.797   4.920   9.771
25102W        W91511  17.187   0.108   4.529
25103W        W91512  37.171  32.994   4.933
25104W        W91513  10.790  36.428   1.605
25105W        W91514  27.835  34.195  13.437
25106W        W91515  33.401  19.685   2.820
25107W        W91516  43.354  28.685  14.947
25108W        W91517   1.379  14.351  14.740
25109W        W91518   1.868   5.881   0.433
25110W        W91519   4.308  39.527   1.961
25111W        W91520  22.056   6.834  11.222
25112W        W91521  28.545  24.747   1.967
25113W        W91522  25.069   8.771   4.866
25114W        W91523  20.484  14.775   3.302
25115W        W91524  36.949  37.588   1.429
25116W        W91525   6.508  42.882   4.972
25117W        W91526  40.061   7.208   2.694
25118W        W91527  31.187  44.084  13.402
25119W        W91528  17.737   8.400   1.159
25120W        W91529   9.160  42.831   3.181
25121W        W91530   9.384   8.078  12.055
25122W        W91531  10.133   9.746  12.970
25123W        W91532  31.588   9.716   0.434
25124W        W91533  35.349  17.291  11.212
25125W        W91534  17.499  33.494   4.804
25126W        W91535  24.048  12.068  13.554
25127W        W91536  14.440  25.597   4.123
25128W        W91537  19.618   4.449  11.959
25129W        W91538   9.804  44.586  14.108
25130W        W91539  17.108  26.695  12.169
25131W        W91540   7.940  20.309   2.571
25132W        W91541   3.486  30.499   4.498
25133W        W91542  33.126  26.728  12.544
25134W        W91543  17.109  38.515  10.746
25135W        W91544  36.342  38.628   1.645
25136W        W91545  27.079  43.758   0.358
25137W        W91546  18.604  19.544   4.422
25138W        W91547  27.718  16.279  11.159
25139W        W91548  34.066  12.437  11.804
25140W        W91549  31.184  32.628   2.265
25141W        W91550  33.037  27.878   1.856
25142W        W91551  29.078  44.677   1.440
25143W        W91552  23.176  32.500  10.714
25144W        W91553  24.708   3.433   0.616
25145W        W91554  24.001  19.696  10.257
25146W        W91555   7.631  30.874  13.199
25147W        W91556  14.049  11.864   4.669
25148W        W91557  44.223   2.782  11.939
25149W        W91558  23.034  32.923  12.035
25150W        W91559   3.248   7.908  14.364
25151W        W91560   2.470  26.622  11.569
25152W        W91561  40.952  12.697   0.017
25153W        W91562   6.965  22.829   2.639
25154W        W91563  41.535  21.979   4.173
25155W        W91564  14.855   2.178   2.837
25156W        W91565  20.088  34.386  14.963
25157W        W91566   5.900   8.064  11.921
25158W        W91567  27.406   1.933   2.772
25159W        W91568  33.693  37.051   4.238
25160W        W91569  18.759   6.200  11.492
25161W        W91570  21.257  36.143  11.582
25162W        W91571  17.097  44.504   3.696
25163W        W91572  23.648   2.658  12.089
25164W        W91573  22.485  20.145   0.252
25165W        W91574  35.180   3.779   4.300
25166W        W91575  26.889  18.812  11.576
25167W        W91576  30.787  28.186   2.790
25168W        W91577  24.440  43.387   4.821
25169W        W91578  29.971  34.464  12.089
25170W        W91579  11.815   8.142   3.244
25171W        W91580  35.523  16.577   1.753
25172W        W91581  38.882  21.616  10.660
25173W        W91582  39.308  41.034   1.698
25174W        W91583  23.645  10.391  10.940
25175W        W91584  17.828  26.437   0.532
25176W        W91585  32.563  22.585   2.505
25177W        W91586  17.593  15.332  14.979
25178W        W91587  32.441  40.512   1.679
25179W        W91588  39.322  18.576  14.578
25180W        W91589  34.515  43.973   3.014
25181W        W91590  38.113  10.402  12.346
25182W        W91591  16.620  14.248   0.962
25183W        W91592   7.480  43.057   0.075
25184W        W91593  32.390  13.288   3.755
25185W        W91594  39.206  12.817  13.744
25186W        W91595  12.109   7.319  11.935
25187W        W91596  31.165   3.283  13.444
25188W        W91597  33.137   1.431  12.540
25189W        W91598   3.931  43.678   2.223
25190W        W91599  42.462   5.075   0.444
25191W        W91600  28.804  27.632   2.634
25192W        W91601   5.708  24.077  12.000
25193W        W91602  31.325  10.188   3.028
25194W        W91603   9.246  43.546  14.846
25195W        W91604  19.221  42.496   3.336
25196W        W91605  26.929  22.660   1.576
25197W        W91606  10.615  25.407   1.749
25198W        W91607  34.937  25.807  14.504
25199W        W91608  22.179   7.127  14.618
25200W        W91609   2.898  24.541  13.452
25201W        W91610  22.522   1.182   3.686
25202W        W91611  35.543   9.405  11.566
25203W        W91612  27.000   4.710  12.215
25204W        W91613  10.574   3.929  11.663
25205W        W91614  15.930  30.785  11.697
25206W        W91615   6.237  30.699  13.343
25207W        W91616  19.262   6.227   4.804
25208W        W91617  20.757  11.817   0.395
25209W        W91618  33.452  22.132  11.554
25210W        W91619  33.500   8.212  10.715
25211W        W91620   8.318   7.407  12.570
25212W        W91621  22.246  14.636  13.497
25213W        W91622  11.544  20.666   4.082
25214W        W91623  13.650  37.952  14.056
25215W        W91624  30.136   5.199  14.522
25216W        W91625  20.250   1.738   3.701
25217W        W91626  22.871  39.752   0.427
25218W        W91627  21.598   6.702   0.723
25219W        W91628  10.746   2.797   1.959
25220W        W91629  31.840  43.729   3.383
25221W        W91630  44.450  10.807   4.562
25222W        W91631  20.894   2.906  12.899
25223W        W91632   2.874  13.627   0.720
25224W        W91633  37.541  26.668   5.102
25225W        W91634  30.450   1.357   0.412
25226W        W91635   5.945  32.135  10.499
25227W        W91636  10.680   4.966  10.919
25228W        W91637   7.480   1.806   3.714
25229W        W91638  17.828  27.061  14.955
25230W        W91639  31.704  19.960   0.479
25231W        W91640  18.982   2.745   2.820
25232W        W91641   1.917  24.003  12.169
25233W        W91642   6.236  12.158   2.454
25234W        W91643  21.616  34.010   0.182
25235W        W91644  30.160  33.346  10.731
25236W        W91645   6.383  30.471   3.544
25237W        W91646  23.605  34.370   0.910
25238W        W91647  29.513  11.357   3.139
25239W        W91648  40.482   5.477  14.075
25240W        W91649  37.930   2.731   2.002
25241W        W91650  21.229  42.278  13.292
25242W        W91651  42.582  42.021   0.346
25243W        W91652  36.957  26.450  13.028
25244W        W91653  25.887  44.320   3.347
25245W        W91654  27.375  10.205   2.764
25246W        W91655  26.168  12.276   0.411
25247W        W91656  37.052  34.117   4.641
25248W        W91657  11.359   4.629   3.679
25249W        W91658   3.295   5.298  13.157
25250W        W91659  35.290  15.537  14.937
25251W        W91660  15.381   4.862   1.884
25252W        W91661  37.836  15.280  11.610
25253W        W91662  31.345  23.564  13.798
25254W        W91663   6.859  18.737  10.758
25255W        W91664  24.943   7.859   3.861
25256W        W91665   8.784  30.577  14.944
25257W        W91666  23.663  20.640   1.809
25258W        W91667   8.838  39.080  11.202
25259W        W91668  25.521  16.620   4.742
25260W        W91669  32.142  16.597  11.100
25261W        W91670   1.421  33.578  13.483
25262W        W91671  26.874   4.347  14.957
25263W        W91672  24.917  23.745  11.100
25264W        W91673   0.716  32.077   3.662
25265W        W91674   5.444  30.995   2.088
25266W        W91675  43.680  11.765   0.085
25267W        W91676  10.103  12.040   4.373
25268W        W91677  37.063  15.257  11.174
25269W        W91678  16.146  24.951   0.523
25270W        W91679  41.300  23.028   0.675
25271W        W91680  29.726  10.409  14.390
25272W        W91681  31.418  44.421  10.961
25273W        W91682  35.903  35.370   1.820
25274W        W91683  27.731  20.573  14.935
25275W        W91684  17.818  27.728   2.293
25276W        W91685  32.481   5.914  10.194
25277W        W91686  15.724   6.403  13.646
25278W        W91687  14.225  19.284   5.097
25279W        W91688  41.444  37.862  12.365
25280W        W91689  22.299   3.539  11.502
25281W        W91690  31.826   6.086   4.900
25282W        W91691  34.129   7.455   0.495
25283W        W91692  44.001  18.792  12.006
25284W        W91693  14.772  19.674   2.722
25285W        W91694  32.583   9.499  10.580
25286W        W91695   7.867  36.663   2.837
25287W        W91696   5.325  33.666   0.818
25288W        W91697   3.828  36.378  10.646
25289W        W91698  33.876   5.478   0.618
25290W        W91699   6.465  11.193  14.404
25291W        W91700  44.177  31.761  13.063
25292W        W91701   4.739  12.135  12.074
25293W        W91702   7.332  37.026  13.436
25294W        W91703  27.192  44.070   0.809
25295W        W91704  14.256  30.422   4.410
25296W        W91705   1.149   8.634  12.020
25297W        W91706  32.700  34.374  11.029
25298W        W91707  13.686   2.300  11.975
25299W        W91708  13.840  15.265   3.634
25300W        W91709  32.956  23.874  14.854
25301W        W91710   1.399   0.242  12.219
25302W        W91711  19.630  36.296   2.874
25303W        W91712   4.212   1.902   3.185
25304W        W91713  25.361  36.349   0.890
25305W        W91714  23.455  20.891  14.925
25306W        W91715  16.644  33.650   3.605
25307W        W91716  17.857  38.301   4.483
25308W        W91717   8.241   6.497   1.874
25309W        W91718  32.404  40.674   2.282
25310W        W91719   1.510  36.070   1.269
25311W        W91720  16.446  43.499   4.181
25312W        W91721   4.850  35.552  10.988
25313W        W91722  11.277   5.931  10.556
25314W        W91723  15.557  23.206   9.853
25315W        W91724  20.518  23.053   3.198
25316W        W91725  35.397  10.412  11.974
25317W        W91726   4.305  33.775  11.221
25318W        W91727  20.559   9.832  14.009
25319W        W91728  27.731  14.552  12.583
25320W        W91729  14.826   2.976   4.359
25321W        W91730  14.816  41.430  13.452
25322W        W91731  17.518  17.680  13.379
25323W        W91732  14.229  28.656   2.423
25324W        W91733   3.644   8.329   1.647
25325W        W91734  10.928   7.764  11.775
25326W        W91735   1.370  37.795  10.613
25327W        W91736   7.570   5.885  11.878
25328W        W91737  25.318   4.232   2.474
25329W        W91738  11.406  34.981   0.092
25330W        W91739  11.408  10.770   3.415
25331W        W91740  43.405  22.992  12.445
25332W        W91741  39.493  28.195   4.197
25333W        W91742  16.086  39.449  12.560
25334W        W91743  25.720   5.421  12.974
25335W        W91744  11.343  11.337   0.842
25336W        W91745  41.024  36.517   3.131
25337W        W91746  25.710   4.744   4.100
25338W        W91747  17.039  12.285   2.197
25339W        W91748  32.767  18.192  12.889
25340W        W91749  16.542  26.953  10.718
25341W        W91750  43.726  16.760  14.309
25342W        W91751   0.339  18.779  11.659
25343W        W91752  41.458   5.782   4.556
25344W        W91753  43.044  41.035   4.258
25345W        W91754  33.406  18.212   1.437
25346W        W91755  21.992  41.955   4.326
25347W        W91756  30.951  42.913   4.672
25348W        W91757  41.504  14.163  12.050
25349W        W91758  27.947  21.191   5.152
25350W        W91759   7.814   5.218   2.975
25351W        W91760   3.287   7.981  11.053
25352W        W91761  40.494  30.052  12.708
25353W        W91762  34.524   6.432  10.619
25354W        W91763  41.517  34.635  13.949
25355W        W91764  12.482  12.422  12.685
25356W        W91765  40.330  38.093   3.276
25357W        W91766  44.243   0.176   1.532
25358W        W91767  29.438  36.047   2.703
25359W        W91768   2.181  42.824   4.170
25360W        W91769   2.299  14.051  10.726
25361W        W91770  33.524  28.735  12.060
25362W        W91771  12.201  30.347  10.254
25363W        W91772  32.543  10.163   4.802
25364W        W91773   9.656  31.494   3.297
25365W        W91774   1.656   5.254   4.777
25366W        W91775   8.482  36.667   1.960
25367W        W91776  35.073   5.215  12.956
25368W        W91777   3.203  33.302   1.547
25369W        W91778  44.644  24.610   2.454
25370W        W91779  25.809  28.047  11.043
25371W        W91780   4.858  37.862  14.856
25372W        W91781  22.734  23.672  13.919
25373W        W91782   6.672  15.235   1.450
25374W        W91783  23.578  18.160   3.937
25375W        W91784  30.587  43.876  11.880
25376W        W91785   0.954  36.037  14.072
25377W        W91786  29.592  19.994   3.109
25378W        W91787  23.107  31.713   2.604
25379W        W91788  44.630   5.840   2.560
25380W        W91789  27.592  13.369   1.640
25381W        W91790   0.269   8.326   1.204
25382W        W91791   9.607  33.877  12.725
25383W        W91792   2.486   2.224  10.799
25384W        W91793  10.268  24.002   2.421
25385W        W91794   6.946  14.248  12.034
25386W        W91795  17.274  41.916   4.124
25387W        W91796  26.186  11.763   0.346
25388W        W91797  24.313  29.968   0.233
25389W        W91798   7.922  28.507  11.053
25390W        W91799   1.320   6.825   3.063
25391W        W91800   5.100  13.124  14.716
25392W        W91801   4.773   2.862  13.355
25393W        W91802  11.290   5.063  14.413
25394W        W91803  31.784  28.087   5.070
25395W        W91804  22.159   0.977   4.575
25396W        W91805  15.343  34.322   5.119
25397W        W91806  29.495   0.296   2.668
25398W        W91807  39.034  42.398  10.770
25399W        W91808  43.887   8.637   0.463
25400W        W91809   2.009  15.799  13.522
25401W        W91810  11.806  42.609  11.651
25402W        W91811  41.531  38.086   1.745
25403W        W91812  33.252   4.676  11.623
25404W        W91813  11.240  14.707   1.308
25405W        W91814  26.012   1.453   0.850
25406W        W91815  35.631  23.705  13.521
25407W        W91816  27.380  38.972  10.629
25408W        W91817   8.872  36.755   2.888
25409W        W91818  32.296  29.556   4.141
25410W        W91819   0.997  34.305   4.141
25411W        W91820  38.441  30.757   4.283
25412W        W91821   5.262  31.568  12.386
25413W        W91822   6.916  35.630  11.593
25414W        W91823  22.041  40.274  10.797
25415W        W91824  34.001  13.770   0.119
25416W        W91825  12.264  11.852   1.471
25417W        W91826  31.333  32.468  13.849
25418W        W91827  42.282  37.413  14.251
25419W        W91828  33.998   2.899  13.407
25420W        W91829  20.070  34.964  13.025
25421W        W91830  22.557   0.500  10.692
25422W        W91831  19.648  24.050   4.173
25423W        W91832  32.875  20.414  10.892
25424W        W91833  14.074  15.780   4.120
25425W        W91834  10.688   7.798  13.858
25426W        W91835  37.304  18.730   4.561
25427W        W91836  15.700   2.047  12.450
25428W        W91837  26.248   8.775  14.372
25429W        W91838  24.712   7.722  12.904
25430W        W91839  23.634  23.224   0.804
25431W        W91840  34.025  18.042   4.842
25432W        W91841  15.295  19.235  10.078
25433W        W91842  19.578  40.297   0.525
25434W        W91843  44.970  30.536  10.544
25435W        W91844  42.483  22.537   1.374
25436W        W91845  11.646  37.852   0.273
25437W        W91846  13.218  33.429  13.959
25438W        W91847  43.448  38.668  13.939
25439W        W91848  27.510  32.053   3.712
25440W        W91849  29.816  34.110  10.615
25441W        W91850   3.770  34.898   0.913
25442W        W91851  12.280  40.115   3.473
25443W        W91852  26.723  30.724   4.573
25444W        W91853  43.031   3.182  10.687
25445W        W91854  16.760  20.486   0.395
25446W        W91855   5.412  11.860  13.981
25447W        W91856  39.931  43.092  13.871
25448W        W91857  42.213  10.683  10.695
25449W        W91858   3.248  24.100   3.348
25450W        W91859  41.621   9.132  13.870
25451W        W91860  22.499   1.875   4.152
25452W        W91861  23.649  22.845  13.399
25453W        W91862  21.641   4.344   1.980
25454W        W91863  25.031  16.466   3.231
25455W        W91864  25.680  22.766  14.414
25456W        W91865  36.463  32.051  14.040
25457W        W91866  16.563   9.880  11.130
25458W        W91867  42.590  37.003  14.361
25459W        W91868  23.126   9.923   1.797
25460W        W91869  10.982  16.286   0.100
25461W        W91870  28.706  18.335   4.197
25462W        W91871  17.220  19.830   0.217
25463W        W91872  38.497  15.154  12.446
25464W        W91873  34.679  43.010   1.145
25465W        W91874  33.524  36.500   3.112
25466W        W91875  44.221   7.930  11.092
25467W        W91876  28.389  43.682   3.829
25468W        W91877  40.148   4.744   0.325
25469W        W91878  26.408  17.125   0.476
25470W        W91879  17.275  15.255  13.120
25471W        W91880  34.765   6.762   4.679
25472W        W91881  12.271  19.959  11.995
25473W        W91882  23.257  17.827  12.974
25474W        W91883   9.844  13.639   3.639
25475W        W91884  28.186  13.556   3.599
25476W        W91885  40.080  28.081   2.415
25477W        W91886  43.000  34.678   3.616
25478W        W91887  30.242   5.855   0.406
25479W        W91888  31.551  30.664   3.187
25480W        W91889   2.945  20.462   2.663
25481W        W91890  41.273  41.760  14.424
25482W        W91891  43.277   0.655  14.990
25483W        W91892  31.997  43.064   1.956
25484W        W91893  34.910   9.786   1.702
25485W        W91894  12.914  16.790  11.539
25486W        W91895   9.847  43.892  11.533
25487W        W91896   2.582  22.218   1.825
25488W        W91897  10.287  14.779   1.786
25489W        W91898   0.318  30.428   1.205
25490W        W91899  43.984  37.347  13.175
25491W        W91900  19.374   5.670  12.189
25492W        W91901  35.079  18.309  13.355
25493W        W91902  24.433  34.122   1.857
25494W        W91903  39.873  11.092   1.903
25495W        W91904  32.342  30.001  11.195
25496W        W91905  40.043  29.588  10.641
25497W        W91906   0.184  31.387  14.863
25498W        W91907  20.492  18.243  10.761
25499W        W91908  35.118  24.719  12.593
25500W        W91909  16.713  17.316  11.559
25501W        W91910  12.296  13.214   3.813
25502W        W91911   8.272  38.721  12.917
25503W        W91912  30.048  16.294   4.466
25504W        W91913  13.223  17.212   2.750
25505W        W91914  26.544  35.678  13.081
25506W        W91915   8.587   7.958   4.209
25507W        W91916  16.700  34.897  13.081
25508W        W91917   5.422  29.494   4.662
25509W        W91918  32.942   0.270   0.222
25510W        W91919  32.672  21.689  14.806
25511W        W91920  37.076  36.979   0.421
25512W        W91921  44.693  33.801  13.519
25513W        W91922   8.831  36.945   4.159
25514W        W91923  12.612  16.335  14.987
25515W        W91924  29.023  39.106   0.867
25516W        W91925  12.759  44.502   0.317
25517W        W91926  12.200   9.651   2.438
25518W        W91927   8.632   4.246   3.328
25519W        W91928  44.814   4.840   3.181
25520W        W91929  23.715  22.988  11.848
25521W        W91930  21.337  16.619  12.491
25522W        W91931  19.032   3.017   1.981
25523W        W91932  41.772  15.405  11.806
25524W        W91933   4.236  20.272  13.916
25525W        W91934   2.427  30.266   0.087
25526W        W91935  13.601  27.988   1.281
25527W        W91936  30.150  37.901   4.587
25528W        W91937  29.380   9.432  12.847
25529W        W91938  22.475  42.409   1.657
25530W        W91939   5.348  23.308   3.231
25531W        W91940  36.930   3.711   0.025
25532W        W91941  42.038  27.264   0.645
25533W        W91942  19.531  29.690  12.908
25534W        W91943  38.796  23.078  13.429
25535W        W91944  39.940  20.652  13.271
25536W        W91945  29.970  13.677  11.121
25537W        W91946   8.083   9.218  11.502
25538W        W91947  24.176  41.837  12.129
25539W        W91948  17.299  14.136   3.634
25540W        W91949  30.477   6.668   3.117
25541W        W91950  42.790  30.612   0.382
25542W        W91951  38.347   4.346  12.192
25543W        W91952   1.971  22.573  11.941
25544W        W91953   5.486  36.937   3.337
25545W        W91954  12.367   8.036   3.258
25546W        W91955  27.701   1.360  12.495
25547W        W91956  21.333   2.717  12.041
25548W        W91957  38.363  41.255   2.405
25549W        W91958  18.724  21.598   4.097
25550W        W91959  19.964   5.053   1.903
25551W        W91960   3.407  11.037   4.854
25552W        W91961  13.876  20.319   1.772
25553W        W91962  20.741  11.698   2.762
25554W        W91963   1.913  43.302  12.987
25555W        W91964   8.124  10.898  12.107
25556W        W91965  14.715  19.938  12.883
25557W        W91966  42.884  24.796   4.805
25558W        W91967  28.223  34.370  13.091
25559W        W91968  26.027  29.419  14.887
25560W        W91969  27.126   1.882   0.341
25561W        W91970   2.044   4.895   2.698
25562W        W91971   4.659  44.707   0.366
25563W        W91972  18.367  20.764  10.643
25564W        W91973  22.575  15.528  11.030
25565W        W91974  10.388  10.667   2.287
25566W        W91975  18.695  29.576   4.690
25567W        W91976  23.519  18.258  14.904
25568W        W91977  41.723   6.960  12.401
25569W        W91978  14.722   3.053   1.671
25570W        W91979  31.772  26.514   4.462
25571W        W91980   7.299  25.734   0.514
25572W        W91981   0.879  12.327  10.179
25573W        W91982  39.393  44.312  10.642
25574W        W91983  16.586  36.492   0.195
25575W        W91984  15.181   1.864   4.885
25576W        W91985  25.275   0.759  14.217
25577W        W91986  44.839  21.265   3.627
25578W        W91987  14.534  43.477   2.208
25579W        W91988  30.226  20.746   0.835
25580W        W91989   0.162  30.959   3.765
25581W        W91990   5.270  16.993   4.200
25582W        W91991  23.050  14.707  10.610
25583W        W91992  32.881  38.072  12.980
25584W        W91993  13.594   9.712  12.968
25585W        W91994  26.875   7.976  11.354
25586W        W91995  38.578  29.802  13.371
25587W        W91996  26.867  14.431   0.309
25588W        W91997   7.043   1.295   4.198
25589W        W91998  19.097  11.681   4.551
25590W        W91999   4.498  16.532   3.728
25591W        W92000   4.565  20.717  11.199
25592W        W92001  23.457   6.900  11.746
25593W        W92002   0.059  14.796   1.299
25594W        W92003  20.913  34.615  10.342
25595W        W92004  44.712  22.775  14.448
25596W        W92005   2.407   8.171   1.942
25597W        W92006  38.544  23.063  12.973
25598W        W92007  22.838  24.529   1.356
25599W        W92008  34.283  23.568  14.340
25600W        W92009  29.526  12.703   4.150
25601W        W92010  32.959  40.554   3.339
25602W        W92011  31.112   9.218  11.404
25603W        W92012  35.697  17.228   0.717
25604W        W92013  44.922   9.071  11.423
25605W        W92014  32.920  39.932  10.701
25606W        W92015  20.615  20.655   4.121
25607W        W92016  39.096  40.538   3.753
25608W        W92017  23.167  35.599  11.874
25609W        W92018   2.474  32.874  14.311
25610W        W92019   7.804  13.098  14.819
25611W        W92020  40.343  18.340  12.859
25612W        W92021   9.945  33.834  13.105
25613W        W92022  22.068  22.653  11.036
25614W        W92023  17.419  35.894   3.667
25615W        W92024  20.643  38.910  13.783
25616W        W92025  42.036  20.514   0.012
25617W        W92026  31.992  36.409   5.063
25618W        W92027  18.748  27.222   0.150
25619W        W92028  44.273  29.126   0.115
25620W        W92029  35.518  17.779  14.002
25621W        W92030   2.254  19.944   4.880
25622W        W92031  10.839  31.955  14.429
25623W        W92032  22.541  44.920  11.828
25624W        W92033   3.642  33.877   4.605
25625W        W92034  34.574  27.858   3.872
25626W        W92035   9.110  18.571   1.801
25627W        W92036  19.519  16.498   2.849
25628W        W92037   4.191  21.585   1.310
25629W        W92038   7.912  34.809  14.782
25630W        W92039   8.641   5.194   3.258
25631W        W92040  41.263  21.765  13.365
25632W        W92041  11.257  21.761   4.820
25633W        W92042  34.110  26.944   4.702
25634W        W92043  11.389   2.485  14.905
25635W        W92044  28.950  39.801   2.289
25636W        W92045  26.930   8.717  13.432
25637W        W92046  28.960  44.530   2.277
25638W        W92047  35.704  30.007   2.708
25639W        W92048  23.720   8.313   3.751
25640W        W92049  33.384  11.976   0.029
25641W        W92050  26.978  12.215  14.090
25642W        W92051  20.020  38.364  13.161
25643W        W92052  10.737   3.056  12.698
25644W        W92053  44.892  29.082  14.405
25645W        W92054  43.653  39.550  14.050
25646W        W92055  22.952  20.538   3.319
25647W        W92056  35.540  44.832   0.711
25648W        W92057  44.682  19.994  11.989
25649W        W92058  36.612   9.451  12.575
25650W        W92059   6.725  20.058  11.764
25651W        W92060  10.827  11.566  14.837
25652W        W92061  17.092  35.067  12.795
25653W        W92062  40.419   6.799   4.551
25654W        W92063  24.681  23.460   0.623
25655W        W92064  23.494  34.867   1.100
25656W        W92065  13.831  41.506   3.290
25657W        W92066  26.795  14.312  11.240
25658W        W92067  32.632  26.810  11.135
25659W        W92068  40.914  24.025  12.355
25660W        W92069  13.541  30.402   3.784
25661W        W92070  32.995   1.506   0.262
25662W        W92071  26.796  34.600   4.625
25663W        W92072  33.449  16.488   3.004
25664W        W92073   5.851  13.510   3.834
25665W        W92074  34.992  11.002  10.167
25666W        W92075  23.274  16.844   1.268
25667W        W92076  37.340  23.325   0.041
25668W        W92077   4.181  26.078  13.901
25669W        W92078  14.615  35.458   5.131
25670W        W92079  14.265  11.828  14.903
25671W        W92080   1.289  32.974  12.374
25672W        W92081   8.898  19.053   1.634
25673W        W92082  29.587   7.647   1.740
25674W        W92083  34.033  42.054   0.301
25675W        W92084  40.886  44.727   0.459
25676W        W92085   9.139  28.680   2.122
25677W        W92086  29.002  34.769   4.137
25678W        W92087  19.483  23.775   0.728
25679W        W92088  38.842  30.617   5.060
25680W        W92089  35.082  41.521   4.185
25681W        W92090   6.309   9.170   2.434
25682W        W92091  19.292  24.616   0.468
25683W        W92092  34.075  43.990   3.279
25684W        W92093  17.777  41.711   3.337
25685W        W92094  32.673  13.024   2.331
25686W        W92095  38.858  20.961  14.559
25687W        W92096  37.122  11.345   0.340
25688W        W92097  17.055   1.874  13.564
25689W        W92098   5.841  23.414  14.112
25690W        W92099  25.512  10.804  14.743
25691W        W92100   1.974  14.602  12.613
25692W        W92101  28.611  37.068   1.375
25693W        W92102   6.872  11.631  14.078
25694W        W92103  35.840  34.587   1.220
25695W        W92104  23.262  25.301   0.166
25696W        W92105  11.852  17.597  11.569
25697W        W92106  22.657   0.451   0.863
25698W        W92107  30.425   5.325  12.812
25699W        W92108  17.402  21.204   0.703
25700W        W92109  34.098  41.770   2.746
25701W        W92110  10.175  28.886   5.342
25702W        W92111  27.964  13.172   2.676
25703W        W92112  44.813  42.331  13.334
25704W        W92113  39.891  12.595   2.917
25705W        W92114  15.600  19.170   5.063
25706W        W92115  24.565   4.843   3.257
25707W        W92116  31.431  42.368   1.797
25708W        W92117  29.168  29.501  14.053
25709W        W92118  21.030  30.391   4.066
25710W        W92119  12.612  30.524   0.812
25711W        W92120  41.819  36.365  13.570
25712W        W92121  18.096  28.716  11.123
25713W        W92122  28.711   7.655   3.710
25714W        W92123  29.497  16.729   1.200
25715W        W92124   6.930  36.910  11.151
25716W        W92125   9.729   9.113  11.988
25717W        W92126  40.944   0.342   1.734
25718W        W92127  31.965  28.433   4.126
25719W        W92128  36.290  11.989  12.533
25720W        W92129  31.988  16.661  13.872
25721W        W92130  40.410  24.739  12.423
25722W        W92131  28.484  12.811   4.206
25723W        W92132   7.425   8.893   0.904
25724W        W92133  24.436   3.427  12.534
25725W        W92134  42.567   4.152   2.847
25726W        W92135  14.276   0.962  14.013
25727W        W92136   2.585   7.640   3.326
25728W        W92137   4.672  12.098   1.487
25729W        W92138  18.484   0.168   0.497
25730W        W92139  35.543  24.274  14.948
25731W        W92140  39.109  16.733  12.307
25732W        W92141   1.201  36.813   2.816
25733W        W92142  35.454  37.322   3.369
25734W        W92143  21.622  15.855  13.378
25735W        W92144  36.845  42.272   0.716
25736W        W92145  11.655  16.191  14.636
25737W        W92146  37.909   6.184   0.841
25738W        W92147  24.547  16.710   4.445
25739W        W92148  14.190  29.150   2.278
25740W        W92149  12.639   1.320  14.376
25741W        W92150  20.458  40.049  12.828
25742W        W92151  29.735   0.509  11.085
25743W        W92152  10.310  27.302  12.005
25744W        W92153  21.872   0.764   1.219
25745W        W92154  38.687  21.939   4.024
25746W        W92155   2.505  40.584   0.307
25747W        W92156  39.692  40.974   2.028
25748W        W92157   0.793  43.319   0.745
25749W        W92158  13.146  32.873   2.866
25750W        W92159  27.514  14.121  12.823
25751W        W92160  36.545   0.385  14.279
25752W        W92161  32.033  31.548   4.637
25753W        W92162  26.423  39.374  10.788
25754W        W92163  23.801  17.597  14.817
25755W        W92164   3.011  21.694  10.991
25756W        W92165  39.859  10.506  14.538
25757W        W92166  10.370   3.322   0.287
25758W        W92167  21.123  32.686  13.555
25759W        W92168  32.195   0.238  13.097
25760W        W92169  44.250  27.961  11.487
25761W        W92170   1.260   1.405   2.524
25762W        W92171  26.162  18.962  12.722
25763W        W92172  11.334  21.123   1.195
25764W        W92173  23.204  21.618  12.047
25765W        W92174   0.750   4.465  10.703
25766W        W92175  39.990  34.957  12.619
25767W        W92176  26.530  43.334   3.906
25768W        W92177  15.142  16.715   0.770
25769W        W92178   2.842   1.873  12.387
25770W        W92179  37.533   7.596   2.820
25771W        W92180  24.496  32.071   0.119
25772W        W92181  21.818  35.037  11.594
25773W        W92182   5.346  31.366   3.759
25774W        W92183  30.517  28.073  11.569
25775W        W92184  15.305  43.379  14.997
25776W        W92185   8.833   9.766  11.447
25777W        W92186  40.181  40.261  12.370
25778W        W92187   7.384   7.460   2.076
25779W        W92188  34.995  41.742   0.376
25780W        W92189  25.002   3.939   3.600
25781W        W92190  10.924  23.305   2.695
25782W        W92191  12.378  32.591   4.088
25783W        W92192  19.890   3.481   1.297
25784W        W92193  20.622  22.998  12.500
25785W        W92194   3.446  21.719  11.881
25786W        W92195  28.120  24.634   3.238
25787W        W92196  43.069  34.451   4.084
25788W        W92197   1.914   5.961   2.234
25789W        W92198  26.680  11.659  11.514
25790W        W92199   4.963  28.483  11.664
25791W        W92200  22.290  27.927  11.069
25792W        W92201  11.210   1.550   1.407
25793W        W92202  22.718   8.434   4.519
25794W        W92203  33.892  14.609   4.777
25795W        W92204   2.864  16.941   4.716
25796W        W92205  22.308   9.282  11.973
25797W        W92206  30.004  27.950  11.574
25798W        W92207  40.647  40.939  12.849
25799W        W92208  12.335  29.009   3.708
25800W        W92209   9.761  36.201   1.677
25801W        W92210  23.551  33.027   0.253
25802W        W92211  35.475  25.262   3.170
25803W        W92212  34.507  40.107  12.942
25804W        W92213  28.891  33.350  12.452
25805W        W92214  17.986  42.285  10.757
25806W        W92215  12.743  16.376  11.784
25807W        W92216  30.819  26.515  12.000
25808W        W92217   5.374  32.869  13.764
25809W        W92218  33.909  24.060  10.761
25810W        W92219  23.484  21.600  11.593
25811W        W92220  13.960  17.769  11.519
25812W        W92221  39.815  14.307  14.260
25813W        W92222  38.355  42.866  13.980
25814W        W92223  28.106  15.988   3.686
25815W        W92224  28.675  17.811   2.294
25816W        W92225  24.242  40.014   4.092
25817W        W92226   0.191  43.542   1.249
25818W        W92227  26.638   3.337   9.845
25819W        W92228  23.799  11.272  11.523
25820W        W92229  33.895   2.262   3.634
25821W        W92230  36.817  42.859   4.586
25822W        W92231  40.984  21.918  14.126
25823W        W92232  12.236  16.010  13.467
25824W        W92233   5.162  10.098  12.560
25825W        W92234  16.342  40.946   3.355
25826W        W92235  11.579   2.456   1.184
25827W        W92236  14.763   2.574   1.448
25828W        W92237  28.151   4.715  13.429
25829W        W92238   4.015  37.336  13.446
25830W        W92239  27.547  17.019   0.137
25831W        W92240  33.965  33.329   2.384
25832W        W92241  17.290  21.795   1.878
25833W        W92242   3.260  40.820  10.940
25834W        W92243  24.894  43.421  12.438
25835W        W92244  10.287  11.750  10.553
25836W        W92245  33.041  43.805  14.679
25837W        W92246  41.634  12.631   3.838
25838W        W92247  25.817  43.461   2.667
25839W        W92248  29.928   3.233   9.656
25840W        W92249  30.880  23.276  12.406
25841W        W92250  13.776  42.493  13.474
25842W        W92251  17.627  26.056  11.505
25843W        W92252  21.790  28.763   0.714
25844W        W92253  18.441  43.292   0.472
25845W        W92254  21.866  33.000   4.154
25846W        W92255  17.513  37.040   2.668
25847W        W92256  26.437  23.534  14.922
25848W        W92257   6.526  25.388  11.370
25849W        W92258  18.231  38.090   1.215
25850W        W92259   4.321  36.858   4.134
25851W        W92260  28.451  20.627   0.391
25852W        W92261  25.737  33.685  12.201
25853W        W92262  28.378  43.420   3.353
25854W        W92263   3.967  42.258  14.082
25855W        W92264  30.013   2.090   2.884
25856W        W92265   5.409  41.537   4.628
25857W        W92266  30.829   7.895   1.890
25858W        W92267   2.300  14.372  10.255
25859W        W92268   9.175   0.393   3.083
25860W        W92269  36.816   3.914   1.356
25861W        W92270  32.680   3.478   3.065
25862W        W92271  30.183  41.383   0.786
25863W        W92272   5.840   3.956  13.830
25864W        W92273  15.205  39.535   0.412
25865W        W92274   5.082  38.782  14.035
25866W        W92275   2.852  20.946   4.987
25867W        W92276  27.622  37.674  11.138
25868W        W92277  23.197  34.021  13.949
25869W        W92278  12.215  42.455  14.857
25870W        W92279  30.546  28.708   4.467
25871W        W92280   8.311   4.604  13.590
25872W        W92281  34.220  38.899  12.055
25873W        W92282   8.491  12.313  12.128
25874W        W92283   6.120  11.794   1.175
25875W        W92284  21.042  30.892   3.897
25876W        W92285  26.990  32.925   0.549
25877W        W92286  18.628  33.809   4.690
25878W        W92287  44.060   4.743  12.393
25879W        W92288  32.263  26.400   4.559
25880W        W92289  19.505  22.946   1.055
25881W        W92290   7.613   7.908  12.862
25882W        W92291  16.303  40.989  10.273
25883W        W92292  44.292  11.214   1.183
25884W        W92293  13.292  25.487   0.370
25885W        W92294   0.947  10.813  14.003
25886W        W92295  13.190  34.482   4.103
25887W        W92296  20.207  21.340   3.199
25888W        W92297  38.612  43.753  13.452
25889W        W92298  21.091  16.642  12.944
25890W        W92299  16.850  43.291  12.892
25891W        W92300  20.044   3.510  14.891
25892W        W92301  22.064  19.600   2.272
25893W        W92302   3.394   2.418  12.439
25894W        W92303  40.969   7.340  10.567
25895W        W92304  22.036  27.976  11.533
25896W        W92305  17.654  42.997   1.635
25897W        W92306   6.735   2.327   4.447
25898W        W92307  15.655  15.533  11.603
25899W        W92308   6.182   6.781   1.444
25900W        W92309  12.073  16.272  10.977
25901W        W92310  22.015  41.365  12.475
25902W        W92311   7.723  24.746   2.517
25903W        W92312  12.291  23.285   0.413
25904W        W92313  18.188  41.584   4.982
25905W        W92314   9.362  44.041  14.796
25906W        W92315   0.520  33.150  12.513
25907W        W92316  28.190  43.196   1.287
25908W        W92317   0.044   7.354   4.559
25909W        W92318  42.411  42.546   4.251
25910W        W92319  44.929   9.603   2.977
25911W        W92320  11.399   7.788  12.638
25912W        W92321   1.427  12.179   4.916
25913W        W92322  23.650  33.500   1.963
25914W        W92323  26.085   2.412  14.931
25915W        W92324  28.224  35.383   0.343
25916W        W92325  13.833  41.781  12.036
25917W        W92326  34.103  24.237   4.181
25918W        W92327  16.802  41.545  13.474
25919W        W92328  15.637  33.013   4.612
25920W        W92329  21.461   2.346   0.819
25921W        W92330  34.740   5.900  14.838
25922W        W92331  28.508  24.577  11.572
25923W        W92332  34.791  20.765  10.522
25924W        W92333  43.705  39.110  13.748
25925W        W92334  18.309  43.857   3.101
25926W        W92335  34.533  19.262  10.701
25927W        W92336  33.896  39.298  14.077
25928W        W92337  20.364  26.918  14.370
25929W        W92338  40.497  24.747  11.881
25930W        W92339  41.365  27.206   4.135
25931W        W92340  11.239   0.381  13.872
25932W        W92341  16.880  19.188   0.301
25933W        W92342  36.969  34.651   4.783
25934W        W92343   6.873  12.909   2.366
25935W        W92344  22.973  13.885   1.797
25936W        W92345   7.621  25.117  14.777
25937W        W92346  31.375  26.254   4.652
25938W        W92347  32.665  13.028   4.125
25939W        W92348  39.077  37.453   4.490
25940W        W92349  33.805  20.242   3.760
25941W        W92350  36.395  24.219   1.204
25942W        W92351   3.842  36.597  12.451
25943W        W92352  27.972  12.647  11.316
25944W        W92353  15.346  10.698  12.043
25945W        W92354  12.716  31.554  11.917
25946W        W92355  17.961   6.612  11.117
25947W        W92356  17.255   3.826   2.192
25948W        W92357  29.987  10.697   3.615
25949W        W92358   1.507   8.344  10.282
25950W        W92359  24.707  15.051  11.435
25951W        W92360  30.874  38.983  12.975
25952W        W92361   2.445   8.667  14.339
25953W        W92362  32.493   7.713  12.593
25954W        W92363  25.363  39.461   0.886
25955W        W92364  43.385  24.161   2.790
25956W        W92365  19.042  37.465  11.618
25957W        W92366  13.787   4.919  12.985
25958W        W92367  17.311  37.792  14.029
25959W        W92368  13.149  17.842  13.447
25960W        W92369  36.094  26.701  10.986
25961W        W92370  25.508  17.023   2.949
25962W        W92371  25.257  22.650  10.844
25963W        W92372   8.225  11.003  13.564
25964W        W92373  28.609  32.073   2.717
25965W        W92374  25.453   2.826  13.028
25966W        W92375  30.665  31.518  14.104
25967W        W92376  34.396   2.442   2.735
25968W        W92377  34.399  31.723   1.162
25969W        W92378  18.571  28.022   0.744
25970W        W92379  35.637  42.375   0.282
25971W        W92380  36.918  20.828  10.184
25972W        W92381  40.652  21.050   3.724
25973W        W92382  43.573  36.817  10.475
25974W        W92383  37.041  44.590  14.568
25975W        W92384   8.760  15.517   4.641
25976W        W92385  36.874  21.709  13.955
25977W        W92386  39.427  33.456   4.248
25978W        W92387  17.687  22.587  11.689
25979W        W92388   8.303  32.624   1.041
25980W        W92389  40.766  23.696   3.316
25981W        W92390  31.000  18.479   4.541
25982W        W92391  20.649  43.148  12.103
25983W        W92392  25.435  34.527   0.921
25984W        W92393  33.145  27.545   1.479
25985W        W92394   2.453  23.059  12.292
25986W        W92395  24.197  12.699  14.286
25987W        W92396  30.413   6.383   2.232
25988W        W92397  39.898   8.948   3.202
25989W        W92398  24.548  19.223   1.774
25990W        W92399  24.497  11.920  14.675
25991W        W92400   5.363  27.115  11.508
25992W        W92401   5.994  22.633  11.150
25993W        W92402  44.366  26.251   3.497
25994W        W92403  11.932  41.800  11.149
25995W        W92404   0.494  39.093   1.312
25996W        W92405   6.171  33.914  14.974
25997W        W92406  43.383  39.467  13.191
25998W        W92407  35.845  40.260   1.676
25999W        W92408  21.152  32.557   4.045
26000W        W92409  33.025  23.683   2.728
26001W        W92410   5.895  42.462  14.864
26002W        W92411   4.761  22.522  11.964
26003W        W92412  42.028  27.296  12.506
26004W        W92413   9.149  10.208   1.447
26005W        W92414   5.712  36.557   4.714
26006W        W92415  32.618  25.471  10.972
26007W        W92416  27.918  29.564  11.069
26008W        W92417  30.065  40.880   3.547
26009W        W92418  34.637  22.825   3.829
26010W        W92419  31.911   8.825  11.246
26011W        W92420  13.172  18.791   3.156
26012W        W92421  15.301  38.102  13.494
26013W        W92422  23.006  42.840   2.715
26014W        W92423   8.836  27.530  10.654
26015W        W92424  34.689   3.133  12.145
26016W        W92425  27.962  44.846   2.703
26017W        W92426  21.558  41.770   4.596
26018W        W92427  33.710  20.184  13.788
26019W        W92428  33.278  27.611  11.955
26020W        W92429  42.388  42.671   3.223
26021W        W92430  17.661  38.505  13.359
26022W        W92431  19.579  24.647  11.591
26023W        W92432  39.568   1.748   1.738
26024W        W92433   8.789  18.348   2.147
26025W        W92434  26.414  31.888  10.853
26026W        W92435  29.227  37.561  11.440
26027W        W92436   6.254  25.715  12.621
26028W        W92437  24.984  19.759   4.516
26029W        W92438  21.067  28.979  11.721
26030W        W92439  27.494   5.659  12.517
26031W        W92440  26.949  41.795  11.334
26032W        W92441  30.656  19.500  11.122
26033W        W92442  41.060  32.345   0.847
26034W        W92443  11.087  20.648  11.197
26035W        W92444  11.764   9.155   0.046
26036W        W92445   8.260  22.585  14.031
26037W        W92446  20.841  22.637  11.457
26038W        W92447   2.958   5.937   0.917
26039W        W92448  34.536  31.983  11.420
26040W        W92449   7.806  35.399  10.714
26041W        W92450  44.276  20.906  14.687
26042W        W92451   2.800  14.680   1.451
26043W        W92452  27.598  32.750   0.272
26044W        W92453  40.810  10.746  13.005
26045W        W92454  18.976  21.022   0.923
26046W        W92455  24.187  39.148   1.210
26047W        W92456   3.900  35.691  11.171
26048W        W92457  20.807  37.532   0.558
26049W        W92458  29.862  23.060   0.675
26050W        W92459  35.940  38.785  11.588
26051W        W92460   6.623  10.652  14.347
26052W        W92461   5.011  20.048   1.846
26053W        W92462   2.992  37.686   3.679
26054W        W92463  29.233   6.789  11.733
26055W        W92464  21.263  33.370   2.722
26056W        W92465   0.483  35.900   1.338
26057W        W92466  23.235  43.034  10.674
26058W        W92467  34.875  35.082  11.189
26059W        W92468  39.812   5.941   2.504
26060W        W92469  39.323  10.858  12.136
26061W        W92470   0.878   1.154   1.272
26062W        W92471  41.248  27.926   1.768
26063W        W92472  20.001  32.073  12.582
26064W        W92473  22.416  17.676   1.579
26065W        W92474  30.584   8.677  10.590
26066W        W92475  29.339   1.535  14.681
26067W        W92476  14.273  11.076   0.887
26068W        W92477  35.303  43.264  14.383
26069W        W92478   3.882  38.068  12.784
26070W        W92479  22.300  18.242   0.457
26071W        W92480  32.113  39.549  11.128
26072W        W92481  38.597  38.960  10.549
26073W        W92482   7.414  11.357  12.112
26074W        W92483   4.799  29.998  14.391
26075W        W92484  36.562  30.171  14.527
26076W        W92485   6.437  37.275   3.727
26077W        W92486  23.623  27.755   4.167
26078W        W92487   5.233  41.257  12.569
26079W        W92488  18.085  12.235  13.539
26080W        W92489  16.376  24.514   3.651
26081W        W92490  30.450   3.377  14.694
26082W        W92491  14.738   4.569   2.851
26083W        W92492  19.026  22.218   4.678
26084W        W92493  16.262  13.885  11.555
26085W        W92494  44.721  25.516  14.943
26086W        W92495   1.874  31.501  12.587
26087W        W92496   1.142   2.759   1.167
26088W        W92497  26.644  31.437  10.725
26089W        W92498  15.881  10.265   3.691
26090W        W92499  12.187  17.984  14.255
26091W        W92500   1.674   5.783  12.397
26092W        W92501  10.656  13.126  10.421
26093W        W92502  14.549   1.774  12.197
26094W        W92503  15.614  36.060   1.269
26095W        W92504  24.072   2.466   0.388
26096W        W92505  21.573  35.936  12.582
26097W        W92506  31.578  34.693   2.710
26098W        W92507   2.753  44.951   1.423
26099W        W92508   9.847  27.181  13.604
26100W        W92509  23.528  13.669   0.389
26101W        W92510  18.577  26.410  14.426
26102W        W92511  27.773  21.607  10.492
26103W        W92512  18.813  38.429   3.678
26104W        W92513  17.766  15.809   2.650
26105W        W92514   2.720  29.459   4.385
26106W        W92515   7.132   5.410   4.701
26107W        W92516  13.771  41.505   2.345
26108W        W92517  25.258   9.269  13.716
26109W        W92518  29.961  33.583   3.736
26110W        W92519  14.154   7.428  12.455
26111W        W92520  43.985  44.327  12.476
26112W        W92521  22.182   8.483   0.340
26113W        W92522  27.673  38.755  14.519
26114W        W92523  29.908  16.561   2.389
26115W        W92524  26.461  13.382   2.195
26116W        W92525  19.537   2.349   2.182
26117W        W92526  17.284   1.855  12.520
26118W        W92527  35.340  10.189   4.106
26119W        W92528  40.932  42.710  14.718
26120W        W92529   5.383  17.694  11.759
26121W        W92530   8.688  35.814   2.427
26122W        W92531  39.205  23.592   3.257
26123W        W92532  38.370  16.061  14.217
26124W        W92533  25.570  32.066  14.037
26125W        W92534  40.945  38.044   2.229
26126W        W92535   0.157  31.850   4.546
26127W        W92536  22.469  23.869  13.351
26128W        W92537  22.200   8.174   1.835
26129W        W92538  18.658  24.614  10.564
26130W        W92539  31.565  43.235  14.406
26131W        W92540  22.660  30.874   4.265
26132W        W92541  28.197   9.264  11.571
26133W        W92542  21.075  10.580  13.862
26134W        W92543   4.349   9.422   4.144
26135W        W92544  44.990  13.898  13.758
26136W        W92545   0.919   8.445  10.632
26137W        W92546  23.574   2.325  12.489
26138W        W92547   4.643   9.573  13.506
26139W        W92548   7.116   7.134  12.940
26140W        W92549   8.795   3.508  13.479
26141W        W92550  13.281   3.444  13.324
26142W        W92551  28.384  12.680  14.969
26143W        W92552  12.848  24.947  11.518
26144W        W92553  10.343  40.492  10.507
26145W        W92554  12.250   9.964  13.492
26146W        W92555  27.069  22.092  11.556
26147W        W92556   6.375  10.493   3.869
26148W        W92557  31.072  43.674  13.029
26149W        W92558  22.854  14.537   4.707
26150W        W92559   6.497   4.526  14.260
26151W        W92560  12.805  33.631  14.908
26152W        W92561  44.409  30.149   2.662
26153W        W92562  13.029  43.405   1.416
26154W        W92563  23.993  33.369  12.176
26155W        W92564  19.048   8.463   4.089
26156W        W92565   2.052   5.705  11.117
26157W        W92566   9.898   8.058   2.324
26158W        W92567  32.366   1.215   3.789
26159W        W92568  31.523  20.197   2.830
26160W        W92569   3.219  16.407  11.471
26161W        W92570   1.853  17.025  13.807
26162W        W92571   5.291   9.435  10.387
26163W        W92572   8.240   6.921  10.651
26164W        W92573   3.509  31.437  14.047
26165W        W92574  18.231  14.308  13.356
26166W        W92575  15.469  26.744   4.112
26167W        W92576  21.084  20.077   1.329
26168W        W92577  25.965  18.789   4.571
26169W        W92578   5.091  30.703  12.501
26170W        W92579  26.243   7.799   4.163
26171W        W92580  32.654  26.474  13.551
26172W        W92581  39.903   1.170  11.169
26173W        W92582  21.078   5.379  11.666
26174W        W92583  32.177  23.179  11.211
26175W        W92584  34.551  40.273  14.792
26176W        W92585   5.833   0.562  13.073
26177W        W92586  37.130  21.726   4.032
26178W        W92587  20.981  24.000  11.325
26179W        W92588  22.653  30.002   2.546
26180W        W92589   0.856  16.956   4.226
26181W        W92590  38.906  35.584  11.933
26182W        W92591  41.326  32.916  12.463
26183W        W92592  25.473  28.872  12.487
26184W        W92593   6.205  34.124   2.826
26185W        W92594  22.057  25.919   1.108
26186W        W92595  15.579   2.545   4.245
26187W        W92596  28.506  33.679   2.338
26188W        W92597  20.604  23.801   2.741
26189W        W92598  42.052  21.167   2.224
26190W        W92599   6.152  31.044  14.792
26191W        W92600  12.389  39.947   1.356
26192W        W92601  38.897  22.256   0.743
26193W        W92602  23.026  13.879  13.749
26194W        W92603  28.474  33.123  11.694
26195W        W92604  24.193  30.878  11.115
26196W        W92605  25.360  31.859  14.936
26197W        W92606   4.699   9.205   4.663
26198W        W92607  36.189  22.523  11.235
26199W        W92608  40.825   8.249  10.712
26200W        W92609   1.270  35.056  13.445
26201W        W92610  41.301  24.201   4.871
26202W        W92611  29.196   5.403   1.626
26203W        W92612  18.903  31.074   1.933
26204W        W92613  38.893   2.530  10.649
26205W        W92614  12.755  44.509   2.038
26206W        W92615  43.987  17.745  14.482
26207W        W92616  18.889  13.245   3.858
26208W        W92617  18.096  13.813   2.284
26209W        W92618  19.143  10.098  13.346
26210W        W92619   7.963  34.686   3.264
26211W        W92620  11.439   4.044  14.953
26212W        W92621  43.021   5.844  14.698
26213W        W92622  31.437  41.263  11.149
26214W        W92623  29.427   4.595   3.250
26215W        W92624  11.969  35.734   3.882
26216W        W92625  16.726  41.124  12.101
26217W        W92626   5.642  19.291   3.220
26218W        W92627  15.101   6.610  12.076
26219W        W92628  40.431   0.779  12.566
26220W        W92629  18.253   0.236   2.341
26221W        W92630  13.837  25.238  10.613
26222W        W92631  34.477  33.964   4.628
26223W        W92632  33.152  19.415  13.760
26224W        W92633  32.418  25.423  13.021
26225W        W92634  41.514  30.064   4.002
26226W        W92635  16.832  14.841  12.482
26227W        W92636  44.324   6.188   4.902
26228W        W92637  28.306  26.060   1.740
26229W        W92638  16.616   0.846   0.889
26230W        W92639  16.794  13.967   4.219
26231W        W92640  41.598  24.247  12.094
26232W        W92641  22.172  25.788   2.266
26233W        W92642  11.647  28.937  14.943
26234W        W92643  33.072  23.021   1.742
26235W        W92644  39.990  24.473  12.560
26236W        W92645  39.908   1.625  10.713
26237W        W92646  21.666   7.375  11.996
26238W        W92647  24.107  19.016   1.541
26239W        W92648  10.843  19.081  12.502
26240W        W92649  35.018  21.640   1.771
26241W        W92650  23.735  23.767  13.651
26242W        W92651  20.998   9.063   3.686
26243W        W92652  39.578   5.910  14.810
26244W        W92653   4.314   9.286  11.869
26245W        W92654  15.255  26.028  14.185
26246W        W92655   5.838  41.487   4.360
26247W        W92656  15.333  16.697   3.800
26248W        W92657  42.906  14.600  13.298
26249W        W92658  29.276  30.973   1.185
26250W        W92659  42.438  38.149  13.789
26251W        W92660   7.666  37.571   4.328
26252W        W92661  34.739  15.599  11.933
26253W        W92662   7.318  44.698  14.378
26254W        W92663   4.718  20.614  12.664
26255W        W92664  35.563  36.887   4.286
26256W        W92665  22.770  35.383  11.602
26257W        W92666  39.786  23.235  14.311
26258W        W92667  43.738   9.830  11.678
26259W        W92668  32.599  37.362  11.139
26260W        W92669   7.799  19.084  13.615
26261W        W92670  18.430  17.122  13.592
26262W        W92671  13.326   4.011  11.816
26263W        W92672  12.244  27.540   2.782
26264W        W92673  18.018  44.331   0.958
26265W        W92674  11.945  43.442  13.519
26266W        W92675  28.171  26.512  14.302
26267W        W92676   2.211   6.401   2.801
26268W        W92677  11.990  13.207   4.725
26269W        W92678  42.741   6.492  12.408
26270W        W92679   0.736  43.274  13.534
26271W        W92680  19.743  24.072  13.450
26272W        W92681   0.406   0.336   2.856
26273W        W92682  40.043  39.250   3.822
26274W        W92683   1.888  26.657   2.643
26275W        W92684  22.720   7.189  13.001
26276W        W92685   6.651  24.075   1.133
26277W        W92686  40.078   6.264  10.769
26278W        W92687  32.304  43.883  14.122
26279W        W92688  29.342  16.891  10.745
26280W        W92689  35.338   6.697  13.970
26281W        W92690  37.952  37.536  11.577
26282W        W92691  41.455   3.803   1.764
26283W        W92692  26.476  42.046  11.268
26284W        W92693  28.590  28.284   2.192
26285W        W92694  13.661  37.324   0.638
26286W        W92695  33.440   9.844   1.632
26287W        W92696  30.435  30.100   1.639
26288W        W92697  17.297   9.709   4.874
26289W        W92698   3.304  22.382  10.194
26290W        W92699  15.602   0.613   2.723
26291W        W92700  42.400  34.216   1.001
26292W        W92701   0.454  12.705   2.861
26293W        W92702  27.247   6.918  13.178
26294W        W92703  21.770  32.282   3.690
26295W        W92704  28.088   8.413   2.653
26296W        W92705  27.081  36.820   0.555
26297W        W92706  22.581  10.722  12.894
26298W        W92707   5.865  44.424  14.513
26299W        W92708  22.959   5.030  12.466
26300W        W92709   1.237  22.569   2.729
26301W        W92710  22.043  15.515  13.564
26302W        W92711  32.897  24.049   1.711
26303W        W92712  30.481  18.564  13.720
26304W        W92713  26.695  35.805   4.166
26305W        W92714  19.730   6.616   2.594
26306W        W92715  44.347  13.080   4.615
26307W        W92716  29.166  15.650  13.128
26308W        W92717  34.813   3.256   2.405
26309W        W92718  13.259  13.821  13.028
26310W        W92719   1.310  27.220   3.472
26311W        W92720   7.415  10.648  10.877
26312W        W92721  33.189  25.701   1.231
26313W        W92722  11.320  10.409   1.733
26314W        W92723  32.670  10.875   1.395
26315W        W92724  43.137  39.659   0.413
26316W        W92725  43.196  44.500  13.105
26317W        W92726  26.670  19.231   3.622
26318W        W92727  22.187  36.655  11.102
26319W        W92728  43.464  30.467  14.443
26320W        W92729  27.923  43.666  11.965
26321W        W92730  28.888  42.854  10.741
26322W        W92731  14.238  26.676   2.449
26323W        W92732  23.457   3.302  12.605
26324W        W92733  37.440  26.493   0.518
26325W        W92734  25.900   3.578   3.722
26326W        W92735  18.294  43.414  10.654
26327W        W92736   0.218  10.160  12.051
26328W        W92737  34.189   4.825   2.813
26329W        W92738  16.286  30.939   0.408
26330W        W92739  33.466   5.236   3.852
26331W        W92740  35.541  44.528   3.398
26332W        W92741  39.902  17.879  13.624
26333W        W92742  19.732  35.285  14.707
26334W        W92743   8.270  21.531  11.591
26335W        W92744  22.701  15.224   3.959
26336W        W92745   9.509   3.305  12.070
26337W        W92746  29.230  15.579  14.894
26338W        W92747  29.253  39.732   3.167
26339W        W92748   0.611  42.476  14.015
26340W        W92749  19.806  26.872  10.769
26341W        W92750   1.761  20.862   1.732
26342W        W92751   1.225  38.967   4.609
26343W        W92752  18.128  35.000   0.244
26344W        W92753  42.024  40.532  14.930
26345W        W92754  10.240  43.779   0.010
26346W        W92755   3.407   5.539   2.810
26347W        W92756  32.035  27.546  11.005
26348W        W92757  30.426  23.912  14.916
26349W        W92758  20.131  11.700   3.625
26350W        W92759  34.901  42.294   1.463
26351W        W92760  30.934  19.069   1.202
26352W        W92761  28.114  42.829   1.934
26353W        W92762  20.041   8.122  13.905
26354W        W92763  39.558  32.100   2.286
26355W        W92764   4.589  35.041   3.742
26356W        W92765  35.500  42.361  11.872
26357W        W92766  42.193  24.005   3.749
26358W        W92767   6.272   8.824   4.992
26359W        W92768  25.132   5.502  13.186
26360W        W92769   9.707  11.719   4.552
26361W        W92770  23.572   5.977   0.575
26362W        W92771  36.491  22.214  12.642
26363W        W92772  35.342  34.987  13.758
26364W        W92773  41.423  23.773  10.633
26365W        W92774  38.298   2.850   4.159
26366W        W92775  33.958  12.552  11.258
26367W        W92776  34.912  25.232  13.818
26368W        W92777  30.470  34.050  12.919
26369W        W92778  29.889  41.285   1.272
26370W        W92779  10.154  12.121  11.607
26371W        W92780  16.659  44.832  11.917
26372W        W92781   2.893  10.964   3.609
26373W        W92782  33.724  16.543   1.790
26374W        W92783  18.033  38.179  14.246
26375W        W92784  39.390  16.832   2.227
26376W        W92785  10.705   2.270   0.877
26377W        W92786  42.644  28.389  13.833
26378W        W92787  37.919  38.952  11.899
26379W        W92788   5.180  22.625   4.108
26380W        W92789   5.017   0.394  14.168
26381W        W92790  34.472   0.274  12.411
26382W        W92791   1.421  11.054  13.276
26383W        W92792  17.327  37.549   2.721
26384W        W92793   0.505   5.660   0.194
26385W        W92794  39.111   9.248  12.558
26386W        W92795  22.172  36.616   1.558
26387W        W92796  13.952  33.662  14.281
26388W        W92797   3.824  27.463  10.433
26389W        W92798  19.702  21.875  13.865
26390W        W92799  41.391  27.967  11.432
26391W        W92800  36.509   2.774  12.073
26392W        W92801  33.267  16.709  12.273
26393W        W92802  16.206  43.012   3.339
26394W        W92803  43.816  25.528   3.118
26395W        W92804  30.143  37.285   2.772
26396W        W92805  37.974  16.259   4.507
26397W        W92806  17.088  21.793   1.036
26398W        W92807   8.341  41.760   0.528
26399W        W92808  20.304  16.804  14.812
26400W        W92809  13.316  30.612   0.487
26401W        W92810   8.740   4.021  14.544
26402W        W92811  41.244  40.064   0.290
26403W        W92812  15.176   0.016  14.051
26404W        W92813  41.944  13.519   0.773
26405W        W92814   6.245  15.569   4.143
26406W        W92815  27.933   7.072   4.843
26407W        W92816  39.738  18.113   3.165
26408W        W92817  36.037  27.468   1.918
26409W        W92818  31.453  16.595   0.348
26410W        W92819   5.893  20.633  14.789
26411W        W92820  37.945  14.589  12.634
26412W        W92821  43.486  41.451  10.660
26413W        W92822   1.914  41.486  12.848
26414W        W92823  11.275   9.636   1.301
26415W        W92824   3.795   8.522   0.178
26416W        W92825   1.930  17.251  11.909
26417W        W92826  38.979  16.002  13.369
26418W        W92827  21.153   0.774   2.600
26419W        W92828  29.614  19.021  13.386
26420W        W92829  25.150   3.656  13.191
26421W        W92830  13.722  23.660  12.326
26422W        W92831  18.973  27.124   1.846
26423W        W92832  37.478  30.359   3.863
26424W        W92833  35.911  34.457  10.735
26425W        W92834  31.087  43.516  10.655
26426W        W92835  25.986  23.296   0.205
26427W        W92836  20.932  13.288  11.470
26428W        W92837  19.018  32.805   3.980
26429W        W92838   8.886   0.164   0.896
26430W        W92839   9.683  36.749   2.711
26431W        W92840  21.203  14.009  11.318
26432W        W92841   7.367  24.711   3.555
26433W        W92842   9.137   9.478   1.673
26434W        W92843   3.597  32.705   0.852
26435W        W92844  28.232  25.943   2.703
26436W        W92845  20.265   0.529   3.083
26437W        W92846  30.413  42.754   2.825
26438W        W92847  29.692  19.338  10.349
26439W        W92848  18.294  36.027  10.710
26440W        W92849   5.682  27.211  14.478
26441W        W92850  15.189  36.118   4.526
26442W        W92851   5.782  22.031  10.563
26443W        W92852   6.689  28.107   3.538
26444W        W92853  25.212  17.588  14.868
26445W        W92854  39.700  20.301  10.247
26446W        W92855   7.841  14.971   3.619
26447W        W92856  44.418  37.043  14.357
26448W        W92857   4.001  43.569   0.816
26449W        W92858  10.372  22.685   2.146
26450W        W92859  29.210   5.124  10.588
26451W        W92860   8.360   2.082   5.187
26452W        W92861   9.663  25.465  10.541
26453W        W92862  15.793  33.294   0.407
26454W        W92863  40.279  27.011  10.651
26455W        W92864  10.672   6.810   3.565
26456W        W92865  17.889  20.372  14.854
26457W        W92866   1.908  44.963  10.935
26458W        W92867  21.496  12.291  11.503
26459W        W92868  19.017  20.083  12.483
26460W        W92869  13.622  29.488  14.067
26461W        W92870  31.277  18.627   3.627
26462W        W92871  14.229  23.986   3.277
26463W        W92872   1.514   4.610   0.427
26464W        W92873  16.603   8.215  13.323
26465W        W92874  30.627  22.879   1.363
26466W        W92875  16.738   5.824   3.718
26467W        W92876  15.499   5.691   9.897
26468W        W92877   5.163  43.816  11.131
26469W        W92878  29.516   5.515   0.194
26470W        W92879   0.973  25.475  12.586
26471W        W92880  24.253   6.728   4.170
26472W        W92881  41.920  22.619  10.553
26473W        W92882  27.136  23.095  12.440
26474W        W92883  12.385   6.580   3.769
26475W        W92884  25.218   7.925   4.282
26476W        W92885   3.217  41.610   4.110
26477W        W92886  14.775  38.335   0.790
26478W        W92887  34.510  38.452  11.940
26479W        W92888  41.781  24.644  12.936
26480W        W92889  28.395   0.147   2.783
26481W        W92890   8.571  42.783  12.465
26482W        W92891  29.266  42.545   4.104
26483W        W92892   3.703  40.026  12.962
26484W        W92893   9.741  27.595   2.766
26485W        W92894  32.321  32.968  14.846
26486W        W92895  27.404  28.521  12.071
26487W        W92896   6.794  35.341   3.223
26488W        W92897  38.089  21.367   9.996
26489W        W92898  40.771  34.721  11.533
26490W        W92899   2.690  34.046  12.443
26491W        W92900  32.311  37.859  11.052
26492W        W92901  25.668   6.660   4.582
26493W        W92902  20.771  12.114  11.961
26494W        W92903  37.619  36.352  13.502
26495W        W92904  38.741  20.124   2.433
26496W        W92905  16.696  27.344   0.208
26497W        W92906  27.627   6.132  11.523
26498W        W92907  11.804  27.791  10.666
26499W        W92908   0.006  38.856   2.688
26500W        W92909  24.640  36.912   4.216
26501W        W92910  16.463  19.832   4.225
26502W        W92911  25.135  25.060  13.813
26503W        W92912  17.800  17.840   3.073
26504W        W92913  19.185   9.652  13.032
26505W        W92914  13.810  42.981   2.317
26506W        W92915  39.726  42.973   2.719
26507W        W92916  25.291   6.879  13.149
26508W        W92917  22.503  27.884  13.706
26509W        W92918  33.079  29.014  12.137
26510W        W92919  30.935  41.336  13.294
26511W        W92920  43.358  11.169   0.775
26512W        W92921  43.219  44.439   4.259
26513W        W92922  35.995   4.440   1.146
26514W        W92923  38.998  14.493   1.424
26515W        W92924  35.035  44.728   3.769
26516W        W92925   5.171  37.512  12.984
26517W        W92926  19.511  22.067  13.421
26518W        W92927  27.261   2.580   4.435
26519W        W92928  21.476  39.106   1.397
26520W        W92929  25.195  20.603   5.557
26521W        W92930   5.080  35.146  13.487
26522W        W92931  23.687  11.852   4.797
26523W        W92932  28.623  37.047  10.379
26524W        W92933  38.789  26.581   0.427
26525W        W92934  33.940  26.013  12.504
26526W        W92935  11.124  25.777  14.535
26527W        W92936  20.058  35.487   2.777
26528W        W92937  39.831  11.284  14.997
26529W        W92938   3.897   2.577  14.044
26530W        W92939  29.483   8.890   2.273
26531W        W92940  43.999  12.246  11.120
26532W        W92941   2.264  42.525   3.725
26533W        W92942   7.879  44.303   4.640
26534W        W92943   9.717  31.532  14.852
26535W        W92944  18.980  17.578  11.661
26536W        W92945  21.055  41.105  14.730
26537W        W92946  29.248  11.714   2.756
26538W        W92947   9.401  35.445   4.668
26539W        W92948  29.911  34.267   0.266
26540W        W92949  26.861  21.444   4.679
26541W        W92950   7.902  38.766   3.501
26542W        W92951  21.106  24.192  13.402
26543W        W92952  22.635  27.453   0.833
26544W        W92953   0.165  30.062  10.556
26545W        W92954   4.349   2.040  14.291
26546W        W92955  15.721  11.364  11.648
26547W        W92956  41.607   8.723   2.746
26548W        W92957   1.279  11.786   2.855
26549W        W92958  41.902   8.649   5.461
26550W        W92959   6.256  16.148   2.432
26551W        W92960  30.536  24.982   1.429
26552W        W92961  28.615  33.881  11.320
26553W        W92962  22.003   5.820   3.220
26554W        W92963  36.456  36.056   3.521
26555W        W92964   1.168  31.175  14.383
26556W        W92965  35.151  28.738  11.616
26557W        W92966  35.583   5.900  14.429
26558W        W92967   2.802  16.514   4.429
26559W        W92968  27.958  36.809   0.288
26560W        W92969  34.884  35.853  12.422
26561W        W92970  26.698  15.239   4.876
26562W        W92971  43.386  34.847   4.233
26563W        W92972  39.947  19.480   4.073
26564W        W92973  20.284  38.803  13.230
26565W        W92974   8.972  12.894  12.991
26566W        W92975  25.053  30.875   4.086
26567W        W92976  25.174  28.922  12.055
26568W        W92977  12.887   6.868  11.990
26569W        W92978  26.928   5.261   4.343
26570W        W92979  12.206  44.664   3.717
26571W        W92980   9.361  37.017  12.861
26572W        W92981  27.131   6.144   3.698
26573W        W92982  37.407  32.544  11.010
26574W        W92983  42.431  16.513  11.158
26575W        W92984  12.301  24.180  10.663
26576W        W92985  43.148  20.956  10.731
26577W        W92986   8.708  20.674  13.789
26578W        W92987  30.129  26.733   2.242
26579W        W92988   9.763   9.751   0.721
26580W        W92989  44.286  43.826   0.045
26581W        W92990   3.399   5.484  11.707
26582W        W92991  24.582  22.389  12.597
26583W        W92992   1.181  33.394  12.091
26584W        W92993  13.309   5.390   0.069
26585W        W92994   5.424  25.643  10.640
26586W        W92995  27.036   2.321   1.082
26587W        W92996   5.802   1.426  11.770
26588W        W92997  10.891   4.813  13.111
26589W        W92998   3.992  35.053  12.904
26590W        W92999   7.711  23.068   3.659
26591W        W93000  22.018  40.949  14.333
26592W        W93001  42.252  41.322   3.581
26593W        W93002   4.946  42.577   0.961
26594W        W93003  27.429  23.153   1.205
26595W        W93004   3.995  39.843   4.440
26596W        W93005  35.621  12.131   2.462
26597W        W93006  29.484  20.659  11.545
26598W        W93007  35.575  40.468   0.392
26599W        W93008  28.253  19.331  11.605
26600W        W93009  43.428  36.310   3.201
26601W        W93010  43.993  31.560   1.835
26602W        W93011  20.464  38.328   2.643
26603W        W93012  35.855   0.813  14.832
26604W        W93013  34.201  25.599  14.439
26605W        W93014   0.372  13.793   1.241
26606W        W93015  26.068  33.840  14.007
26607W        W93016  14.892  10.870   3.293
26608W        W93017  18.958  38.349  10.509
26609W        W93018  20.839  13.082  10.537
26610W        W93019  15.622  30.367  11.669
26611W        W93020  14.553   4.582  12.082
26612W        W93021  24.144  18.627   2.472
26613W        W93022   9.395  17.556   5.075
26614W        W93023  32.749  21.581   4.911
26615W        W93024  15.338  17.769  13.408
26616W        W93025  30.886  43.563   0.014
26617W        W93026  42.103  42.698  12.926
26618W        W93027  16.729  30.220   0.454
26619W        W93028  10.788  34.188   4.777
26620W        W93029  17.601   6.736   3.754
26621W        W93030   4.937   0.903  13.490
26622W        W93031  28.709  18.809   2.417
26623W        W93032  16.711  41.272   2.918
26624W        W93033  13.642  30.513  10.600
26625W        W93034   3.811  38.483   4.320
26626W        W93035   8.216  41.043  11.691
26627W        W93036   4.284  19.372  10.983
26628W        W93037   4.300  35.555   3.694
26629W        W93038  16.843  22.518  13.818
26630W        W93039  16.375  26.997  13.862
26631W        W93040  27.413  43.562  14.969
26632W        W93041  31.387  38.917  12.999
26633W        W93042  11.803  18.236  12.057
26634W        W93043  22.495   5.428  14.736
26635W        W93044  39.839   8.644  10.587
26636W        W93045   4.942  17.472   2.399
26637W        W93046   3.216  42.747   2.382
26638W        W93047  32.940  15.782   0.891
26639W        W93048  12.899  31.885  14.296
26640W        W93049  29.810  12.797  12.558
26641W        W93050   1.880  20.677  13.321
26642W        W93051  27.553  21.977   4.775
26643W        W93052  37.022  13.052   0.831
26644W        W93053  33.870  13.093   1.750
26645W        W93054   7.327  18.280  14.476
26646W        W93055  41.526  33.356   2.759
26647W        W93056  28.913  12.356  12.547
26648W        W93057  14.562   8.328   2.920
26649W        W93058  19.558   1.742  12.171
26650W        W93059  20.127  40.527  14.446
26651W        W93060   7.298  29.615  10.836
26652W        W93061  16.095  39.389  11.221
26653W        W93062   2.445  26.688   2.841
26654W        W93063   8.918  21.752  10.528
26655W        W93064   5.188  28.439   4.857
26656W        W93065  36.782  44.364   0.728
26657W        W93066   9.890  16.830   2.208
26658W        W93067   9.807  37.859   1.311
26659W        W93068  33.135  36.303  11.968
26660W        W93069  23.094  33.033   0.531
26661W        W93070   1.285  40.909   4.525
26662W        W93071  39.802   1.556   0.915
26663W        W93072  32.833   3.004  12.965
26664W        W93073  41.451   0.213   0.367
26665W        W93074  27.034  16.098  11.978
26666W        W93075  27.412   7.357  13.363
26667W        W93076  37.391  14.718  11.182
26668W        W93077  26.512   5.105   4.095
26669W        W93078  12.772  22.063  10.588
26670W        W93079  40.787  28.962  12.078
26671W        W93080  33.597  32.965   2.331
26672W        W93081   3.849  17.889   0.488
26673W        W93082   7.710  17.877   4.610
26674W        W93083  10.161  21.096   2.785
26675W        W93084   5.938  12.801  12.491
26676W        W93085   3.796  28.456   2.130
26677W        W93086  19.784  36.019   0.537
26678W        W93087  41.868  27.339   4.046
26679W        W93088  35.139   9.275   3.243
26680W        W93089  24.774   8.024  14.896
26681W        W93090  39.302  36.428  13.952
26682W        W93091  18.715  10.343  10.564
26683W        W93092  42.027  34.785  11.217
26684W        W93093  33.951  37.781   5.034
26685W        W93094  13.308  38.266  12.420
26686W        W93095   1.142  16.160   3.667
26687W        W93096   2.454  32.624  13.268
26688W        W93097   0.821  13.892  12.473
26689W        W93098  41.438  33.610  13.960
26690W        W93099  24.179  19.533  11.122
26691W        W93100  30.596   1.345   1.856
26692W        W93101  30.934   7.223   0.828
26693W        W93102  11.359  17.255  13.861
26694W        W93103  14.793   2.309  12.511
26695W        W93104  36.603   0.159  12.824
26696W        W93105  10.202  36.595   3.330
26697W        W93106  29.499  13.794  14.559
26698W        W93107   5.801   6.359  10.464
26699W        W93108  23.423  21.306  12.894
26700W        W93109   0.844  20.946  10.071
26701W        W93110  28.465  42.546  10.799
26702W        W93111   8.387   2.823   4.153
26703W        W93112  22.517  18.424  10.863
26704W        W93113  24.492  14.170  10.991
26705W        W93114  41.522  15.307   4.835
26706W        W93115   6.973   7.990  11.076
26707W        W93116  35.856   1.614  12.016
26708W        W93117  42.964  15.034   4.309
26709W        W93118  29.227   7.383  13.841
26710W        W93119  15.026  44.495   4.135
26711W        W93120  13.115  19.655  10.699
26712W        W93121  33.688  41.804   4.178
26713W        W93122  18.463  26.506   5.016
26714W        W93123  23.591  12.325  13.694
26715W        W93124  10.140  32.453  11.551
26716W        W93125   5.949   1.481   3.349
26717W        W93126   0.912  41.921   1.928
26718W        W93127   7.273  40.849  12.334
26719W        W93128  14.905  23.275  12.994
26720W        W93129  26.111  16.112   2.956
26721W        W93130  36.844  28.008  14.843
26722W        W93131  34.978  11.314  14.264
26723W        W93132  13.359  23.025   2.507
26724W        W93133   2.797  42.872  11.946
26725W        W93134  17.640  18.061  12.439
26726W        W93135   6.925  30.534  13.853
26727W        W93136   8.120  44.433   5.261
26728W        W93137  38.152  41.919  14.042
26729W        W93138   9.372   0.421   1.370
26730W        W93139  24.815  34.115   1.501
26731W        W93140  14.990  40.843   1.904
26732W        W93141  15.681   7.990   1.245
26733W        W93142  44.454  16.295  14.008
26734W        W93143  27.143   0.961   0.870
26735W        W93144  42.749  23.901   1.209
26736W        W93145  40.743  35.290   3.843
26737W        W93146  32.105  29.309   1.457
26738W        W93147  11.154  15.535  14.192
26739W        W93148  32.559  39.987   4.850
26740W        W93149  38.909  32.595  14.813
26741W        W93150  42.848   4.253  14.337
26742W        W93151  32.589  18.382  13.346
26743W        W93152  41.623  25.727  14.367
26744W        W93153   4.777  31.603  14.774
26745W        W93154   0.481  28.669  11.301
26746W        W93155   3.375  18.025   0.285
26747W        W93156  30.615  31.943  13.333
26748W        W93157  10.852  40.358   1.725
26749W        W93158  13.760  20.679   9.931
26750W        W93159  38.803   0.350  10.255
26751W        W93160   4.850  23.905  14.697
26752W        W93161   4.401  25.943  10.834
26753W        W93162   4.915   3.022  11.025
26754W        W93163  16.807  19.981   0.499
26755W        W93164  21.313  38.789   0.059
26756W        W93165   5.763  16.576  12.451
26757W        W93166  33.070  38.733  11.447
26758W        W93167  21.239  44.199   1.182
26759W        W93168  17.131   9.606  14.555
26760W        W93169  13.863  42.701  14.366
26761W        W93170  34.960  40.408  14.486
26762W        W93171  15.285  40.823   2.311
26763W        W93172  44.034  37.682   4.855
26764W        W93173  38.784   7.231   0.845
26765W        W93174   4.665  13.214  11.075
26766W        W93175  13.441   0.637   3.093
26767W        W93176  38.904   4.456  10.438
26768W        W93177  14.576  23.050  11.550
26769W        W93178  20.189  42.805   4.535
26770W        W93179  26.507  32.946   2.698
26771W        W93180  23.049  39.816  12.505
26772W        W93181   3.330  36.776   3.255
26773W        W93182  33.625   4.436   0.430
26774W        W93183  17.146  12.585  13.477
26775W        W93184  20.959  38.045  12.869
26776W        W93185  21.433  15.029   0.822
26777W        W93186  15.122   0.873   1.815
26778W        W93187  18.510  33.432  11.553
26779W        W93188  14.320  20.000  11.121
26780W        W93189  26.906  42.272  11.518
26781W        W93190   9.195  22.593   2.332
26782W        W93191  36.568   4.389  10.745
26783W        W93192  32.114  12.882  11.998
26784W        W93193  30.723  34.694   3.949
26785W        W93194  22.975  42.388   4.367
26786W        W93195  23.679  20.672  12.598
26787W        W93196  37.470  30.911   4.619
26788W        W93197   4.322  17.293  11.089
26789W        W93198   5.196  41.005  14.959
26790W        W93199  10.409  32.832  11.311
26791W        W93200  35.150  36.436   2.222
26792W        W93201  25.016  25.563  13.421
26793W        W93202   4.799  19.029   0.349
26794W        W93203  18.495  29.237  13.963
26795W        W93204  27.911   0.759  13.011
26796W        W93205  38.615   1.274  10.485
26797W        W93206  33.918  14.809  13.410
26798W        W93207  30.524  22.429   0.026
26799W        W93208  43.719   9.715   1.311
26800W        W93209  36.269  26.516  13.657
26801W        W93210  18.702   3.473   1.783
26802W        W93211  13.067  33.593   4.591
26803W        W93212  10.203   2.261  10.775
26804W        W93213  41.594  32.752   3.724
26805W        W93214  28.246   7.389   2.868
26806W        W93215  11.882  33.856  11.624
26807W        W93216   1.467  37.819   2.653
26808W        W93217  44.670  24.431   0.057
26809W        W93218  32.880  43.323  14.774
26810W        W93219   2.334  26.889   1.362
26811W        W93220  29.077  21.542   2.792
26812W        W93221  31.188  14.603   1.292
26813W        W93222  29.761  20.176  13.523
26814W        W93223  31.655   7.249   4.134
26815W        W93224  34.072   5.816  11.040
26816W        W93225  20.600  31.033   3.650
26817W        W93226  38.434  13.228   4.223
26818W        W93227  32.173  31.878   1.408
26819W        W93228  11.583  19.772  12.281
26820W        W93229  28.987  25.591  12.018
26821W        W93230  15.366  34.901  13.405
26822W        W93231  40.088  33.307  12.055
26823W        W93232   6.275  22.172  10.340
26824W        W93233  37.302  38.083   4.536
26825W        W93234  24.457  42.228  12.997
26826W        W93235  43.568  15.564  12.712
26827W        W93236   6.658  38.026   0.782
26828W        W93237  35.545  32.094  12.578
26829W        W93238  38.427  30.914  13.933
26830W        W93239  38.533  16.331   4.610
26831W        W93240  19.037  22.166  14.787
26832W        W93241  33.099  37.444  12.045
26833W        W93242  18.711  34.935  12.533
26834W        W93243  21.798  16.764  10.645
26835W        W93244  11.239  20.667   0.961
26836W        W93245  44.912  42.917   4.039
26837W        W93246  14.693  12.253  13.742
26838W        W93247  15.131  30.257   4.006
26839W        W93248  23.943  32.510   1.314
26840W        W93249  29.962  43.965  14.112
26841W        W93250  24.998  11.834   2.328
26842W        W93251  19.197   0.869   3.148
26843W        W93252  39.388  18.679   5.417
26844W        W93253  18.831   2.314  13.896
26845W        W93254  41.046  39.078  13.288
26846W        W93255  21.288  21.565   1.298
26847W        W93256  41.633   8.188  10.261
26848W        W93257  22.304   2.370   4.177
26849W        W93258  35.514  27.009  13.443
26850W        W93259  43.078   5.879   3.581
26851W        W93260  22.548   5.401  10.752
26852W        W93261  12.192  40.022   1.866
26853W        W93262  18.184   5.332   1.929
26854W        W93263  36.152  23.785   1.428
26855W        W93264  15.583   3.544  11.353
26856W        W93265  18.757  16.797   1.891
26857W        W93266  32.394  10.235   0.368
26858W        W93267  29.268  29.480   0.914
26859W        W93268  41.993  13.901  14.822
26860W        W93269  36.907  37.888  12.933
26861W        W93270  36.441  25.199   5.238
26862W        W93271  33.364  36.927  11.228
26863W        W93272  42.729   3.664  13.028
26864W        W93273   3.172  43.854   1.924
26865W        W93274   8.330   3.618   3.639
26866W        W93275  22.387   1.748  12.115
26867W        W93276  12.192  22.036   0.809
26868W        W93277  26.158  40.581  13.485
26869W        W93278   7.744  30.641   3.187
26870W        W93279  39.710  41.396   1.440
26871W        W93280  39.019  28.166   0.891
26872W        W93281  39.376  32.729  13.394
26873W        W93282   8.231   4.428  14.171
26874W        W93283  17.380   6.447   2.755
26875W        W93284   0.243  40.116   4.193
26876W        W93285   1.246  37.892   4.036
26877W        W93286  40.752  14.121   1.366
26878W        W93287  24.519   1.240   0.128
26879W        W93288  39.406  14.715  12.673
26880W        W93289  42.323  25.267  13.104
26881W        W93290   5.923  36.351   3.902
26882W        W93291  39.912   1.493   0.424
26883W        W93292   7.593  43.521   4.362
26884W        W93293  23.662  16.087  11.598
26885W        W93294  42.821   7.766   0.989
26886W        W93295  14.640   2.738  12.276
26887W        W93296  20.210  14.656   3.738
26888W        W93297  14.330  36.785  13.977
26889W        W93298   7.072   7.022  11.123
26890W        W93299   1.053  43.580  12.956
26891W        W93300  17.240  21.294   1.191
26892W        W93301   5.851  14.324   2.098
26893W        W93302  20.249   7.231  12.076
26894W        W93303   3.782  20.016  11.977
26895W        W93304  30.979  24.104  11.565
26896W        W93305  25.577  12.372  13.879
26897W        W93306  41.184  10.430   4.065
26898W        W93307  19.530   0.366  10.641
26899W        W93308  39.581  37.145  11.046
26900W        W93309  21.842  38.127   4.605
26901W        W93310  27.554  17.998  11.556
26902W        W93311  41.491  18.673   4.650
26903W        W93312   1.207  14.829  12.485
26904W        W93313  17.159  23.912  11.176
26905W        W93314   8.286  30.520   1.167
26906W        W93315  20.487  14.742   1.331
26907W        W93316  20.569  23.080   4.632
26908W        W93317  21.902  21.888   4.260
26909W        W93318   1.790  36.480   4.402
26910W        W93319  39.487  29.550  10.629
26911W        W93320  28.495  18.759   1.296
26912W        W93321  42.447  35.032  12.576
26913W        W93322  16.664  41.484   0.475
26914W        W93323   2.143  13.762  12.981
26915W        W93324   9.826  16.128   5.022
26916W        W93325  43.987  31.921   0.765
26917W        W93326   0.468   2.299   2.194
26918W        W93327  20.719  28.989  14.032
26919W        W93328  33.301  40.395   0.246
26920W        W93329  15.885  34.811  13.362
26921W        W93330   4.736  37.155  12.437
26922W        W93331  31.704  23.024  12.179
26923W        W93332  42.865  25.943   2.574
26924W        W93333   6.160   5.979  13.885
26925W        W93334  22.521   2.870   1.804
26926W        W93335  19.027  29.896   4.990
26927W        W93336  28.952  16.533  10.696
26928W        W93337  28.458  28.731  12.005
26929W        W93338   5.880  16.336   3.193
26930W        W93339  38.626  21.825   0.865
26931W        W93340   2.171  14.613   2.128
26932W        W93341  28.313   3.626   0.958
26933W        W93342  17.374  30.610   4.962
26934W        W93343   0.047   6.728  13.931
26935W        W93344  41.787  23.717   4.258
26936W        W93345   3.498  35.043   1.328
26937W        W93346   2.487  28.431   4.162
26938W        W93347  31.512   1.207   4.097
26939W        W93348   8.140  27.459   2.798
26940W        W93349  37.054  43.308   4.436
26941W        W93350  39.625  39.551   2.955
26942W        W93351  16.167  12.743   4.656
26943W        W93352  18.505  20.868   1.741
26944W        W93353  33.596  34.667   0.776
26945W        W93354  31.024   4.265  13.497
26946W        W93355  16.632  24.886   1.925
26947W        W93356  27.239  24.503   3.008
26948W        W93357   0.406   5.289  13.965
26949W        W93358  26.705  26.197  13.914
26950W        W93359  32.100  33.401  12.545
26951W        W93360   7.723  19.514  12.834
26952W        W93361   5.960  35.159  13.006
26953W        W93362  25.780  19.991  12.428
26954W        W93363  41.105  25.194  13.377
26955W        W93364   2.327  44.379   5.033
26956W        W93365   9.581   6.774   2.072
26957W        W93366  30.659   2.829   3.157
26958W        W93367  36.525  42.817  12.565
26959W        W93368  25.028   4.272   2.922
26960W        W93369   2.049  20.194  13.310
26961W        W93370  12.624  33.337  13.510
26962W        W93371  30.642  32.604   0.334
26963W        W93372  12.767   9.609   0.075
26964W        W93373  30.611  19.233   0.819
26965W        W93374   6.707  42.795  12.795
26966W        W93375  26.725  24.188   2.240
26967W        W93376   7.367  32.758  10.076
26968W        W93377  10.163  17.130   1.898
26969W        W93378  18.050   9.378  13.436
26970W        W93379  37.346  40.261  14.434
26971W        W93380  37.515  40.960   5.097
26972W        W93381   2.772  27.201  11.282
26973W        W93382  30.862  21.099  14.906
26974W        W93383  19.028  18.657   0.672
26975W        W93384  13.140   1.769  12.747
26976W        W93385  19.005  29.543   3.630
26977W        W93386  37.891  18.111  13.892
26978W        W93387  32.677  29.157   4.199
26979W        W93388  15.696  41.895   0.527
26980W        W93389  38.986  34.518   0.394
26981W        W93390   1.411  17.107  13.551
26982W        W93391  20.493   6.952  11.190
26983W        W93392  39.775  40.100   0.394
26984W        W93393  30.472  41.538  13.453
26985W        W93394  39.555   7.395  14.957
26986W        W93395  36.429  16.116  12.398
26987W        W93396   2.184  27.006   1.843
26988W        W93397  10.012  41.046  11.990
26989W        W93398  21.281  15.436   4.174
26990W        W93399  28.149  22.028   1.845
26991W        W93400   9.361  15.140  11.121
26992W        W93401  22.546   5.241   4.074
26993W        W93402   3.498   5.730   2.246
26994W        W93403  33.313  20.433  13.985
26995W        W93404   3.746  11.281   2.164
26996W        W93405  19.584  10.658  14.156
26997W        W93406  26.120  19.767  13.878
26998W        W93407  42.293  21.766   4.418
26999W        W93408  40.025  41.351  12.434
27000W        W93409   3.907  38.997   4.225
27001W        W93410  41.789  19.983  10.227
27002W        W93411  23.622  13.314   3.254
27003W        W93412  11.888  26.115  11.510
27004W        W93413   1.910  23.233   2.216
27005W        W93414   5.109  42.814   4.818
27006W        W93415   6.583  20.540  11.580
27007W        W93416  39.740   2.967   0.530
27008W        W93417  17.681  44.045   4.169
27009W        W93418  42.711  13.209   1.183
27010W        W93419  36.545   5.641   3.277
27011W        W93420   1.902  15.552  14.735
27012W        W93421  27.970  32.538  14.364
27013W        W93422   3.095  12.050  13.573
27014W        W93423   3.458  32.103  12.600
27015W        W93424  23.776  17.201   4.328
27016W        W93425   4.826  37.907   3.358
27017W        W93426  14.082  27.663   3.826
27018W        W93427   1.478  28.346  14.153
27019W        W93428   2.858   9.875   4.656
27020W        W93429  16.967  31.836  11.256
27021W        W93430  37.987   4.385  10.670
27022W        W93431   6.407  33.880  11.951
27023W        W93432  30.945  29.709   2.213
27024W        W93433   8.169  42.893   4.133
27025W        W93434  11.165  31.133   0.477
27026W        W93435  28.507  18.376  12.461
27027W        W93436  42.337  11.893  11.246
27028W        W93437  33.905  44.182  12.885
27029W        W93438  32.414  22.599  11.154
27030W        W93439  34.305  20.518   0.028
27031W        W93440  43.399   8.617  12.606
27032W        W93441  15.827  41.374  13.504
27033W        W93442  16.723  12.068   0.938
27034W        W93443  30.155  39.533   3.174
27035W        W93444   5.294  40.288  12.427
27036W        W93445  17.960   9.310   0.246
27037W        W93446   0.852  35.404  12.926
27038W        W93447   6.616  29.991  13.143
27039W        W93448  32.470  31.623   1.063
27040W        W93449  41.130  18.385  11.994
27041W        W93450   1.255   6.197  14.010
27042W        W93451  10.648   5.732  13.565
27043W        W93452  37.817  37.857   1.441
27044W        W93453  15.270  29.476   4.412
27045W        W93454  15.132  29.183  14.699
27046W        W93455  33.352  32.295  12.972
27047W        W93456  29.443  10.211   2.538
27048W        W93457  11.293  25.142  10.769
27049W        W93458  26.921  24.026  10.754
27050W        W93459  44.877  31.667   2.189
27051W        W93460  33.923   3.447   1.452
27052W        W93461  38.237   8.196   3.265
27053W        W93462  20.473   1.210  11.093
27054W        W93463  41.302  32.902  11.473
27055W        W93464  25.462  34.721   3.633
27056W        W93465  16.797  24.058   2.013
27057W        W93466  21.678   6.734   1.856
27058W        W93467  31.202  25.832  12.082
27059W        W93468  22.711  22.454   5.179
27060W        W93469   4.283   8.075   3.861
27061W        W93470  25.052  10.108   3.698
27062W        W93471  26.493   8.991   1.452
27063W        W93472  22.516  32.101   4.089
27064W        W93473   2.447  41.027  13.097
27065W        W93474  29.651  40.906  11.430
27066W        W93475  30.725  26.005  11.950
27067W        W93476  18.057  12.216   2.329
27068W        W93477   9.216  42.330  12.132
27069W        W93478  10.780  42.852   0.197
27070W        W93479   7.911  26.318   4.019
27071W        W93480  18.122  14.271   2.571
27072W        W93481   2.833  16.331   0.327
27073W        W93482  26.441  39.903  10.807
27074W        W93483  11.847  40.554   0.935
27075W        W93484  17.593  25.704   0.884
27076W        W93485   5.017  17.068   3.748
27077W        W93486   8.263   0.358  14.833
27078W        W93487  16.657  26.469  11.615
27079W        W93488  13.096  29.860   0.645
27080W        W93489  40.076   4.851  11.194
27081W        W93490  42.178  17.406   2.665
27082W        W93491  10.873  37.008  13.457
27083W        W93492  18.501  11.946  12.171
27084W        W93493  37.329  21.433  14.020
27085W        W93494  26.504   6.908   3.735
27086W        W93495   7.127   6.429  11.708
27087W        W93496  30.911  36.075   1.742
27088W        W93497  31.197   1.018  13.594
27089W        W93498  34.303   5.688   1.809
27090W        W93499  24.083  32.046   1.928
27091W        W93500  36.287  15.092  14.761
27092W        W93501  32.574   2.779  11.637
27093W        W93502  31.132   2.943  13.856
27094W        W93503   3.794  25.559  10.528
27095W        W93504  32.183  21.792  14.924
27096W        W93505  41.919  34.420  14.191
27097W        W93506  32.575  14.515  14.505
27098W        W93507  18.411  21.083   0.726
27099W        W93508  41.302  22.125   2.637
27100W        W93509  18.029   3.810   1.597
27101W        W93510  11.668  11.931   0.349
27102W        W93511  42.929  11.834   2.342
27103W        W93512  19.877  22.450  10.236
27104W        W93513   8.835   2.736   2.399
27105W        W93514  44.208   7.720   1.713
27106W        W93515  29.052  41.596   2.326
27107W        W93516  20.124  17.546  10.750
27108W        W93517  17.739  24.017   1.444
27109W        W93518   8.365  26.554  12.372
27110W        W93519  36.397  10.177  12.847
27111W        W93520  44.837  30.497  13.433
27112W        W93521  18.980  28.130   1.103
27113W        W93522  40.905  28.859   1.864
27114W        W93523  26.741  23.685  14.528
27115W        W93524  30.073  42.040  11.948
27116W        W93525  24.050  23.374  13.830
27117W        W93526  31.821   8.158   0.297
27118W        W93527  30.204   7.424  10.734
27119W        W93528  13.749  30.015   2.204
27120W        W93529  12.366  26.405  14.856
27121W        W93530  35.295  31.992  14.483
27122W        W93531  43.227  19.573   2.630
27123W        W93532  26.983  21.205  13.137
27124W        W93533  34.790  32.869  11.885
27125W        W93534  42.526  15.240  11.122
27126W        W93535  40.471  28.412   2.348
27127W        W93536  16.430  38.997   3.629
27128W        W93537  33.860  18.276  14.867
27129W        W93538  37.798  10.963   3.736
27130W        W93539  21.452   9.851  11.581
27131W        W93540  14.418  24.621  12.011
27132W        W93541  38.839  43.304  13.323
27133W        W93542  16.613  11.279   4.263
27134W        W93543  11.326  28.573   2.995
27135W        W93544  28.064  20.691  12.896
27136W        W93545   9.753  13.602   1.251
27137W        W93546   6.410   5.811  11.311
27138W        W93547  25.120  44.241  10.695
27139W        W93548  24.910  25.259  11.685
27140W        W93549   2.727   4.169   4.132
27141W        W93550  18.748  38.798   4.569
27142W        W93551   8.405  25.566   4.159
27143W        W93552  22.966  22.125   0.965
27144W        W93553   4.482  19.501  11.564
27145W        W93554  12.577   6.940   1.381
27146W        W93555  14.645  27.522   2.467
27147W        W93556  36.961  14.583  14.801
27148W        W93557  32.699  26.724   3.234
27149W        W93558  13.291  44.478  10.714
27150W        W93559  40.143  18.336  13.469
27151W        W93560  25.467  33.545   4.119
27152W        W93561  40.603  44.998   2.028
27153W        W93562  44.248  21.551  11.212
27154W        W93563  15.296   2.718  12.990
27155W        W93564  18.643   3.681  11.636
27156W        W93565   2.879  34.308   4.039
27157W        W93566  34.959  44.761  14.609
27158W        W93567  30.627  10.829  11.055
27159W        W93568  15.779  41.934   0.023
27160W        W93569  32.038  37.606  10.294
27161W        W93570  37.793  26.646  13.475
27162W        W93571  27.973  15.640  11.598
27163W        W93572   8.005  39.335   4.538
27164W        W93573  18.733  29.988  12.561
27165W        W93574   2.006  39.417   0.416
27166W        W93575   4.491  42.431   2.306
27167W        W93576  42.605  25.501  13.505
27168W        W93577  12.347  36.913  13.696
27169W        W93578  10.069  11.854   3.150
27170W        W93579   3.210  27.798  10.798
27171W        W93580  13.082  39.489  11.177
27172W        W93581  37.354  43.774  11.653
27173W        W93582  27.682  22.984  11.117
27174W        W93583  37.545   6.328   4.498
27175W        W93584  31.012   7.202   4.947
27176W        W93585  18.144  21.098  13.447
27177W        W93586   8.225  42.087  14.436
27178W        W93587  30.026  10.066   4.354
27179W        W93588   7.860  26.023  14.934
27180W        W93589   2.384  32.347  14.065
27181W        W93590  31.885   5.131  12.240
27182W        W93591  26.388  20.034   4.080
27183W        W93592  19.690  34.143   0.914
27184W        W93593  42.209   3.686  11.174
27185W        W93594  20.805  34.950  13.468
27186W        W93595  14.728  13.170   3.173
27187W        W93596   1.621  12.117  14.519
27188W        W93597  35.770  14.714   4.527
27189W        W93598  44.482  18.572   5.030
27190W        W93599  36.533  33.544  10.914
27191W        W93600  32.548  31.156  10.697
27192W        W93601  39.699   1.224   5.019
27193W        W93602  16.363  33.003  12.538
27194W        W93603  41.243  25.990  11.692
27195W        W93604  28.434   1.514  12.871
27196W        W93605  14.808  36.840   0.444
27197W        W93606  22.733  31.509  10.717
27198W        W93607  13.692  32.500   1.448
27199W        W93608  34.087  37.900   3.035
27200W        W93609  15.649  29.489  11.686
27201W        W93610  27.082  25.466  11.678
27202W        W93611  38.825  28.181   2.929
27203W        W93612  16.762  39.101  14.893
27204W        W93613  33.171  24.549  11.595
27205W        W93614   3.099   3.890  11.620
27206W        W93615  33.050  39.430  10.682
27207W        W93616   3.274   1.515   4.358
27208W        W93617   1.343  19.734  14.864
27209W        W93618  24.989  25.538   4.912
27210W        W93619  32.941  15.512   2.891
27211W        W93620  38.781  38.398  12.417
27212W        W93621  34.064  19.659  14.734
27213W        W93622  15.852  39.556  10.797
27214W        W93623  44.921  26.038  14.804
27215W        W93624  24.628  20.611  10.685
27216W        W93625  21.097  13.072   2.112
27217W        W93626  41.462  33.012   1.668
27218W        W93627  16.121  33.578  11.515
27219W        W93628  12.762  18.195  13.225
27220W        W93629  42.962  32.142  12.674
27221W        W93630  35.914   1.304  13.914
27222W        W93631  31.568   2.138   1.261
27223W        W93632  17.229   3.097   0.782
27224W        W93633  38.197  23.761  12.955
27225W        W93634   4.410  26.722   2.677
27226W        W93635  38.705   4.395  11.217
27227W        W93636  17.208  41.346   1.284
27228W        W93637  35.040   3.908  11.843
27229W        W93638  12.429  41.925   4.411
27230W        W93639  14.463  13.281  11.574
27231W        W93640   8.718   8.687   0.729
27232W        W93641   5.853  17.412   2.293
27233W        W93642  35.979  19.808  11.613
27234W        W93643  44.676  44.608   4.629
27235W        W93644  34.561  29.281   0.922
27236W        W93645  41.817   1.010   1.366
27237W        W93646  15.733  37.550   1.303
27238W        W93647  30.116  19.590   2.481
27239W        W93648  38.500  19.944  13.916
27240W        W93649  15.143  37.061   0.760
27241W        W93650  44.245   0.596   0.600
27242W        W93651  13.392  34.462   5.041
27243W        W93652  21.332  23.143  11.429
27244W        W93653  11.778  31.391   1.349
27245W        W93654  35.691   3.825   4.611
27246W        W93655  34.942   1.917  14.885
27247W        W93656  20.509   3.252   1.286
27248W        W93657  21.623   6.343  13.009
27249W        W93658  36.603   8.619  10.643
27250W        W93659   6.784  28.599   0.272
27251W        W93660  39.739  31.417   1.200
27252W        W93661  16.118  16.489   4.756
27253W        W93662  24.590   1.935   0.732
27254W        W93663   9.904   7.590   2.943
27255W        W93664   1.198  20.788   3.248
27256W        W93665  43.247   7.827  12.446
27257W        W93666  24.301  32.562  13.505
27258W        W93667  44.030  44.281  13.481
27259W        W93668   6.253  11.702   2.158
27260W        W93669  33.474  25.471   3.835
27261W        W93670   1.761  20.090   3.201
27262W        W93671  32.872  33.322  11.503
27263W        W93672  32.609   7.689   2.263
27264W        W93673   4.549   2.401   1.326
27265W        W93674  29.880  29.814   0.316
27266W        W93675  36.918  25.254  13.988
27267W        W93676  41.924   0.439   0.493
27268W        W93677   4.957  23.307   5.204
27269W        W93678  15.174  31.094  13.182
27270W        W93679  32.729  32.646   3.780
27271W        W93680  43.803  15.723   5.276
27272W        W93681   2.171  26.386  12.405
27273W        W93682   1.613  27.748  12.971
27274W        W93683  13.707  44.167   4.349
27275W        W93684  28.643  20.253   3.106
27276W        W93685  44.768  10.409  13.373
27277W        W93686   9.513  30.595  13.073
27278W        W93687  16.226  41.453   1.518
27279W        W93688  27.869  19.663  14.339
27280W        W93689  26.126  32.962   0.754
27281W        W93690  28.458  39.324   4.555
27282W        W93691  20.004  20.942  10.249
27283W        W93692  17.187   3.769  10.058
27284W        W93693  10.031  38.978   9.934
27285W        W93694  32.564  20.287   0.004
27286W        W93695  18.306  33.298  11.098
27287W        W93696  31.321  42.760  14.604
27288W        W93697  21.682   5.152   4.269
27289W        W93698   9.130  13.148   3.845
27290W        W93699  20.470  25.568  13.336
27291W        W93700  32.793  41.097   3.864
27292W        W93701  40.384   9.680   4.054
27293W        W93702  24.846  10.628   1.175
27294W        W93703  34.510  23.498  12.595
27295W        W93704  25.975   6.797   3.755
27296W        W93705  26.454  38.529   0.893
27297W        W93706  40.553  44.834  13.026
27298W        W93707  13.911  17.984  14.922
27299W        W93708   8.793  11.324   0.765
27300W        W93709  21.728  19.034   4.543
27301W        W93710   3.195  33.374  13.023
27302W        W93711  22.997  10.890  10.578
27303W        W93712  17.039   3.895  11.598
27304W        W93713  28.439  36.578  14.024
27305W        W93714  10.724  25.738   0.355
27306W        W93715  15.341  28.918   2.646
27307W        W93716  43.521  16.097  14.000
27308W        W93717  32.071  17.160   3.694
27309W        W93718  32.926  13.674   0.481
27310W        W93719   6.780  15.776  13.677
27311W        W93720  38.975  24.084  14.686
27312W        W93721   4.348  22.364  11.568
27313W        W93722  31.106   1.958   2.743
27314W        W93723  11.866  29.168  14.191
27315W        W93724   4.038  36.318   2.948
27316W        W93725   9.479  29.164   0.214
27317W        W93726   0.770  44.417  13.119
27318W        W93727   3.181  18.664   4.546
27319W        W93728  39.296  14.442   1.911
27320W        W93729  26.596  33.153   0.932
27321W        W93730  29.164  11.672  13.565
27322W        W93731  44.919  15.420  13.788
27323W        W93732   6.817   4.384   3.127
27324W        W93733  16.280   7.898   3.878
27325W        W93734  27.667   2.397   4.703
27326W        W93735  33.845  36.334   1.968
27327W        W93736  36.398  40.321   3.196
27328W        W93737  24.258  42.779  11.730
27329W        W93738  34.445   7.675  13.397
27330W        W93739  23.142  27.518   4.282
27331W        W93740  10.931  15.135   1.268
27332W        W93741  20.885  18.125  12.705
27333W        W93742  21.641  17.840  12.088
27334W        W93743  10.693  16.542   4.043
27335W        W93744  34.553  23.214  12.154
27336W        W93745  10.721  16.563   3.246
27337W        W93746  35.109  22.607  11.189
27338W        W93747  44.891  10.484  12.878
27339W        W93748  23.043  31.046  12.990
27340W        W93749  10.227  42.441   2.306
27341W        W93750  39.894  12.072   4.631
27342W        W93751  22.225  44.562  11.641
27343W        W93752  30.283  11.148   3.686
27344W        W93753  24.442  11.327  13.630
27345W        W93754  27.538  30.711   1.152
27346W        W93755  10.234  36.782   4.182
27347W        W93756  15.044  15.245  13.971
27348W        W93757  44.671   5.774  11.399
27349W        W93758  19.629  36.884   4.202
27350W        W93759  21.181  27.175  13.998
27351W        W93760  40.893  29.866  12.430
27352W        W93761  13.396  29.453  11.721
27353W        W93762  11.547   8.626   1.298
27354W        W93763  38.456  34.163   4.868
27355W        W93764  44.249  36.740   2.466
27356W        W93765  41.833  28.263   0.841
27357W        W93766  42.615  36.111  14.080
27358W        W93767  40.834  20.316  13.610
27359W        W93768  12.391  11.749  14.372
27360W        W93769   2.355  35.873  13.889
27361W        W93770  21.416  39.713   0.836
27362W        W93771  15.766  10.434   2.303
27363W        W93772  28.207  28.024   3.149
27364W        W93773  14.219  20.055   1.187
27365W        W93774  30.508  43.027   0.946
27366W        W93775  17.618  35.425  13.926
27367W        W93776   5.284  24.081  13.548
27368W        W93777  13.804  37.861  14.544
27369W        W93778  10.253   7.850  13.470
27370W        W93779  41.393   3.978   2.271
27371W        W93780  37.266  22.090   3.681
27372W        W93781  28.519   5.773  11.943
27373W        W93782  10.676  28.953  12.915
27374W        W93783  40.881  20.584  11.564
27375W        W93784  41.520  24.776  10.899
27376W        W93785  21.457  37.874   4.829
27377W        W93786  38.899   2.576   0.380
27378W        W93787  26.884  38.880   3.837
27379W        W93788  14.291  23.035   1.704
27380W        W93789   0.047  35.642  10.768
27381W        W93790  24.143  21.281  14.014
27382W        W93791  24.715  30.127   4.052
27383W        W93792  28.737  26.004   4.154
27384W        W93793  19.663   6.429  11.635
27385W        W93794  25.901  26.089   1.427
27386W        W93795   5.405  36.347   0.186
27387W        W93796  36.348  35.505  10.830
27388W        W93797  37.863  18.551   1.509
27389W        W93798  41.703   1.170  10.764
27390W        W93799  30.466   4.264   3.755
27391W        W93800  22.900  42.537  11.596
27392W        W93801  41.285   1.983  13.085
27393W        W93802   6.223  16.024   0.747
27394W        W93803  10.617  37.473  13.375
27395W        W93804  23.364  35.001   3.539
27396W        W93805   2.177  38.080   3.578
27397W        W93806  13.104  30.353   0.897
27398W        W93807  34.062   1.201   1.811
27399W        W93808   6.172  44.936   1.754
27400W        W93809   2.507   9.876   1.260
27401W        W93810  34.612  27.882  13.938
27402W        W93811  38.457  38.774   3.886
27403W        W93812  32.001  17.338   2.703
27404W        W93813  31.114  18.009   0.345
27405W        W93814   1.053  35.848   4.275
27406W        W93815  38.412  10.929   0.969
27407W        W93816   0.886  15.783  11.073
27408W        W93817  13.323  10.107  13.995
27409W        W93818  24.609  39.749  12.475
27410W        W93819  42.366   4.825  14.039
27411W        W93820   5.023   6.913  10.144
27412W        W93821  14.712  42.293  10.509
27413W        W93822  44.511  31.520  12.076
27414W        W93823   6.218  19.369  10.814
27415W        W93824  21.512  20.244  11.586
27416W        W93825   5.047  13.000  12.552
27417W        W93826   6.286  15.078   3.300
27418W        W93827  34.954  22.072  11.873
27419W        W93828  22.206  42.990   1.409
27420W        W93829  15.057  35.466  10.287
27421W        W93830  44.772  15.037   0.039
27422W        W93831  10.315   6.824   2.734
27423W        W93832  30.282  37.252  12.959
27424W        W93833  26.928  31.378   2.144
27425W        W93834  15.770  41.886  14.503
27426W        W93835  28.972  21.821  14.900
27427W        W93836  25.995  36.452   4.891
27428W        W93837  22.240  24.291  13.134
27429W        W93838  37.493  14.075   3.876
27430W        W93839   9.618  19.549   4.197
27431W        W93840   4.490  10.199  14.878
27432W        W93841  24.349  32.479  14.189
27433W        W93842  23.606  33.405  12.907
27434W        W93843   2.227  20.242  12.478
27435W        W93844  26.665   6.409   3.689
27436W        W93845  27.346  42.891   1.325
27437W        W93846  10.700   2.961   2.967
27438W        W93847  22.602  21.697  11.943
27439W        W93848   3.509  39.714   3.759
27440W        W93849  36.505  22.247  13.954
27441W        W93850  17.428  16.503   0.389
27442W        W93851  28.924  35.653   0.976
27443W        W93852   7.427  24.657  13.325
27444W        W93853   7.757  10.778   4.384
27445W        W93854  29.414  36.441   3.075
27446W        W93855  18.596  28.894  13.603
27447W        W93856  23.703  10.376  14.926
27448W        W93857  42.423  29.652   4.931
27449W        W93858   6.344  12.843  13.631
27450W        W93859  16.521   6.501   0.837
27451W        W93860   9.699   7.931  11.236
27452W        W93861  23.503  10.372  11.941
27453W        W93862  23.196  15.448  13.937
27454W        W93863   3.227  28.762   1.315
27455W        W93864  35.897   4.326   4.652
27456W        W93865  44.708   8.676   9.952
27457W        W93866  31.680   8.256  14.795
27458W        W93867   1.247  11.683   4.858
27459W        W93868  36.450  12.334  12.145
27460W        W93869  23.784  35.342  13.386
27461W        W93870  42.747   2.922   4.174
27462W        W93871  17.019  27.929   0.841
27463W        W93872  15.113   7.772  12.916
27464W        W93873  28.962  33.332  14.503
27465W        W93874  31.734  13.963   1.015
27466W        W93875  32.136  11.321  11.225
27467W        W93876  38.874  24.204   4.948
27468W        W93877   3.180  13.115  10.725
27469W        W93878  40.829   9.970   4.147
27470W        W93879  18.763  32.694   2.223
27471W        W93880  21.486  25.076  12.568
27472W        W93881  23.047  27.127  12.923
27473W        W93882   1.423  21.750  10.883
27474W        W93883  34.686   4.170   3.420
27475W        W93884  12.953   6.467  13.112
27476W        W93885  13.873  19.467   4.063
27477W        W93886   5.570  42.027  12.977
27478W        W93887  38.100  24.912  14.927
27479W        W93888  13.062   6.148  11.556
27480W        W93889  43.489  29.660   1.272
27481W        W93890   4.691  33.340   1.811
27482W        W93891   8.110   2.459   1.228
27483W        W93892   3.734  32.033  12.167
27484W        W93893  26.302  14.165  11.258
27485W        W93894  26.874  29.362  12.274
27486W        W93895  35.462  24.535   1.197
27487W        W93896   6.359  28.946  12.537
27488W        W93897   5.408  11.904   1.895
27489W        W93898  27.632   5.199  12.335
27490W        W93899  25.685  38.077   3.651
27491W        W93900  40.065  16.182  14.867
27492W        W93901  34.201  22.962  13.435
27493W        W93902  24.525  34.658  11.130
27494W        W93903   7.212  11.187  10.745
27495W        W93904  10.216  44.318   2.881
27496W        W93905  22.566  44.271   3.232
27497W        W93906  41.039  40.413   2.577
27498W        W93907  39.748  44.146   3.335
27499W        W93908  19.519   9.241  13.157
27500W        W93909  10.105  31.538   1.808
27501W        W93910  18.371   7.658   2.196
27502W        W93911   0.020   2.146   1.462
27503W        W93912  20.018  43.683   3.389
27504W        W93913  16.012  40.985   1.355
27505W        W93914   8.987  25.568   1.207
27506W        W93915   3.710  26.333  12.107
27507W        W93916  12.621  17.379  10.992
27508W        W93917   5.217  39.300   1.212
27509W        W93918   0.573   3.363   2.269
27510W        W93919  41.499  33.193  12.888
27511W        W93920  13.294  40.338  13.779
27512W        W93921  44.567  32.563   2.665
27513W        W93922  15.447   3.488   3.105
27514W        W93923  12.854  13.500   2.845
27515W        W93924   4.734  16.562   1.192
27516W        W93925  17.588  33.241  14.413
27517W        W93926  19.033  39.315  12.001
27518W        W93927   6.492  24.999  13.415
27519W        W93928  28.261  29.969  11.208
27520W        W93929  24.958  23.034   0.400
27521W        W93930  40.344  21.131  10.120
27522W        W93931  19.009  18.024  14.552
27523W        W93932  19.118  24.387  10.651
27524W        W93933  30.831  38.237  12.001
27525W        W93934  40.782  15.058   3.177
27526W        W93935  42.075   7.632  14.833
27527W        W93936  34.951   1.520  12.237
27528W        W93937  24.523  30.567   4.219
27529W        W93938  14.253  32.040  10.869
27530W        W93939   0.378  29.168  11.305
27531W        W93940  35.764  27.021   1.710
27532W        W93941   1.308  33.376   3.852
27533W        W93942  22.208  10.037  12.503
27534W        W93943  31.013  10.753  12.663
27535W        W93944  35.325  34.931  11.961
27536W        W93945  24.151  31.054  12.519
27537W        W93946  35.981  17.320  14.821
27538W        W93947  29.626   1.766  14.085
27539W        W93948  40.799  40.482  11.584
27540W        W93949  20.432  42.797  12.473
27541W        W93950   1.401  31.377  14.802
27542W        W93951  16.354  42.613   3.619
27543W        W93952  23.522  35.521   3.696
27544W        W93953   2.241  22.431   3.783
27545W        W93954   2.152  29.235   2.730
27546W        W93955  10.119  30.426  14.434
27547W        W93956  22.062  37.387   2.969
27548W        W93957  38.465  42.031  12.469
27549W        W93958  22.392  39.559   0.440
27550W        W93959  41.325  43.174   1.727
27551W        W93960  18.173  36.598   0.490
27552W        W93961  14.113  42.977  11.376
27553W        W93962   5.362  42.891  11.253
27554W        W93963  27.171  43.395  10.687
27555W        W93964  43.211  30.022  14.357
27556W        W93965  14.247  17.344   2.812
27557W        W93966  36.313   2.292   1.831
27558W        W93967  17.265  29.069  14.363
27559W        W93968  35.993  21.169   1.682
27560W        W93969   3.595   8.167   2.182
27561W        W93970  24.542   8.489  10.846
27562W        W93971  23.108  42.255  14.240
27563W        W93972   2.851  44.207  11.613
27564W        W93973  20.233   4.191   1.600
27565W        W93974  30.126  12.064   3.165
27566W        W93975  13.570   9.330  13.370
27567W        W93976  31.432  17.842   4.822
27568W        W93977  15.067  25.418  11.156
27569W        W93978  30.539   2.595   4.906
27570W        W93979  40.147  28.485   4.562
27571W        W93980  26.898  15.808  13.935
27572W        W93981   3.241  17.667   1.712
27573W        W93982   8.371  24.940   0.195
27574W        W93983  11.241  42.367  14.027
27575W        W93984   6.955  17.234  14.335
27576W        W93985  33.142   3.125  14.456
27577W        W93986  29.387  31.393  13.439
27578W        W93987   6.465  27.377  13.338
27579W        W93988  22.969  18.375   2.647
27580W        W93989  13.497  31.888  11.103
27581W        W93990  33.827  35.671   0.862
27582W        W93991  25.030  34.507  13.106
27583W        W93992  32.991   9.886   4.862
27584W        W93993  14.005  42.725  13.872
27585W        W93994   0.383   7.374   0.530
27586W        W93995  16.626   9.163  12.489
27587W        W93996  11.151  22.572  12.029
27588W        W93997  30.536  40.467   5.002
27589W        W93998  16.880  24.672  14.438
27590W        W93999  12.676  28.120   1.738
27591W        W94000   4.477  10.687  12.886
27592W        W94001  20.807   4.750   1.813
27593W        W94002  23.372  21.785   2.741
27594W        W94003  19.120  12.079  11.535
27595W        W94004  20.584   3.387  10.724
27596W        W94005   3.854  33.965   4.138
27597W        W94006  16.657   2.999   1.392
27598W        W94007  36.460   7.787  14.325
27599W        W94008   6.660  23.705   4.126
27600W        W94009  36.386  10.252   4.912
27601W        W94010  16.218  33.597  13.053
27602W        W94011   0.723  41.948   0.014
27603W        W94012  23.178   7.051   4.997
27604W        W94013   3.510   9.553   2.675
27605W        W94014   0.780  26.998  11.574
27606W        W94015  37.519  13.809   2.714
27607W        W94016  18.532  37.524  11.513
27608W        W94017  15.740  19.613  14.330
27609W        W94018  34.376  18.019   1.828
27610W        W94019  28.695   9.816  14.931
27611W        W94020  14.827  35.292   4.197
27612W        W94021  25.996  38.807  14.819
27613W        W94022  34.191  34.393   3.680
27614W        W94023  44.087  25.150  12.397
27615W        W94024  16.311  37.525   2.687
27616W        W94025  29.816  44.862  13.831
27617W        W94026  24.828   6.564   1.172
27618W        W94027  21.519  41.874   4.080
27619W        W94028  41.056  33.030  11.035
27620W        W94029  29.062  15.662   3.623
27621W        W94030  33.914  18.854  13.329
27622W        W94031  20.753   4.104  14.169
27623W        W94032   9.846  25.515   4.219
27624W        W94033  15.501  25.193  12.924
27625W        W94034  24.523  21.130  10.536
27626W        W94035   6.401  32.548   2.698
27627W        W94036  42.486  23.725   0.779
27628W        W94037  18.101   9.171  11.952
27629W        W94038  15.089  36.890   4.044
27630W        W94039  29.439  27.150  10.800
27631W        W94040  39.042  31.971   0.804
27632W        W94041  35.092  36.502   4.131
27633W        W94042  16.234  36.479   2.852
27634W        W94043  36.889  10.206   4.079
27635W        W94044  17.660   5.766  10.660
27636W        W94045  33.460  43.531   2.864
27637W        W94046   0.197  23.043   4.638
27638W        W94047  25.162  25.517  14.876
27639W        W94048  14.557  28.984  12.034
27640W        W94049  32.411   6.159   2.151
27641W        W94050   9.915  20.548   2.382
27642W        W94051   4.681  20.156   0.935
27643W        W94052  13.116  30.568  14.673
27644W        W94053  24.826  31.503   0.465
27645W        W94054  43.585  22.074  13.537
27646W        W94055  27.079  17.763  11.532
27647W        W94056   2.412  10.736  11.576
27648W        W94057   0.270  34.794  11.184
27649W        W94058   4.442  26.238  13.473
27650W        W94059  25.640  28.612   4.383
27651W        W94060  43.886  24.859  10.685
27652W        W94061  41.466  20.184   1.427
27653W        W94062   4.048  40.752  13.848
27654W        W94063  12.776  27.447  13.106
27655W        W94064   8.820  35.101   3.516
27656W        W94065  39.337  22.498  13.055
27657W        W94066  41.043  31.013  13.321
27658W        W94067  36.258  26.737  10.496
27659W        W94068  33.423  39.011   1.474
27660W        W94069  31.310   2.020   1.741
27661W        W94070  15.385  30.071  12.888
27662W        W94071  36.971  14.341  14.334
27663W        W94072  37.030  35.821  10.770
27664W        W94073  42.938  34.889   2.224
27665W        W94074  19.582  36.995  12.005
27666W        W94075  18.490  44.446   2.707
27667W        W94076  39.514  36.360   3.083
27668W        W94077   5.764  25.195  13.923
27669W        W94078  32.934  40.603   3.843
27670W        W94079  22.479  40.487  14.956
27671W        W94080  31.056  39.826   0.378
27672W        W94081  43.666  13.231   2.412
27673W        W94082  23.472  19.536   4.577
27674W        W94083  13.258  24.602  13.942
27675W        W94084  33.288  37.454  14.895
27676W        W94085  17.803  12.308   1.869
27677W        W94086  10.793  34.567  14.354
27678W        W94087  11.429   3.413   1.225
27679W        W94088  41.484  24.080  11.601
27680W        W94089   7.126   2.084   1.303
27681W        W94090  21.194   3.938   4.124
27682W        W94091  18.780  13.190   2.365
27683W        W94092  13.622  34.616   1.765
27684W        W94093  38.730   7.575   4.281
27685W        W94094   3.283  40.308   5.000
27686W        W94095  36.808  30.442  14.144
27687W        W94096   3.771   9.833   0.815
27688W        W94097   5.069  19.353  13.456
27689W        W94098   1.918  12.744   3.119
27690W        W94099  28.698  40.539   3.391
27691W        W94100  22.811  43.435   3.599
27692W        W94101  37.069  20.317  13.524
27693W        W94102   5.346  16.797   2.649
27694W        W94103  24.500  10.876  13.376
27695W        W94104  13.005  33.600  11.067
27696W        W94105  11.092   0.678   2.681
27697W        W94106  37.998   7.270   4.612
27698W        W94107  28.866   6.744   1.379
27699W        W94108   6.134  28.077   2.191
27700W        W94109   7.787   1.213   4.604
27701W        W94110  41.434  23.164   2.192
27702W        W94111  33.330  21.716  12.931
27703W        W94112  21.004  29.249  12.586
27704W        W94113  13.087   8.268   1.448
27705W        W94114  14.724  15.844  13.542
27706W        W94115  27.963   1.406  13.791
27707W        W94116  16.773   8.397   0.834
27708W        W94117   3.515  11.522   2.969
27709W        W94118  34.856   5.690   0.778
27710W        W94119  33.535  42.372   3.376
27711W        W94120  20.243  11.734  12.417
27712W        W94121   4.722   8.980  11.051
27713W        W94122  33.117  38.987   1.895
27714W        W94123   9.715   6.449  13.937
27715W        W94124  20.213  26.186   0.305
27716W        W94125  30.163  41.755   3.422
27717W        W94126  18.248   7.666   3.707
27718W        W94127  11.683   6.869   0.960
27719W        W94128  17.273   2.416   3.628
27720W        W94129  16.743  29.195   0.262
27721W        W94130   3.143  37.335   4.005
27722W        W94131  41.950  21.633  12.690
27723W        W94132  39.130   4.932   0.057
27724W        W94133   6.308  28.828  14.546
27725W        W94134  37.369  20.416   0.403
27726W        W94135  34.113   7.858   1.222
27727W        W94136  44.902  16.812  14.413
27728W        W94137   3.450  34.435   1.963
27729W        W94138  39.172   5.333  12.991
27730W        W94139  36.154  35.049   4.134
27731W        W94140  36.280  11.488  14.784
27732W        W94141  43.834  27.922  14.757
27733W        W94142   4.773  29.719   2.444
27734W        W94143  28.873  14.855  11.216
27735W        W94144  16.478   4.689  13.501
27736W        W94145  29.966  34.190  12.892
27737W        W94146   9.688  43.882  12.498
27738W        W94147  11.940  31.860   5.051
27739W        W94148  39.086  39.779   4.181
27740W        W94149  14.324  13.182  13.538
27741W        W94150   8.298   9.317   3.007
27742W        W94151   4.849  26.992   2.464
27743W        W94152   1.450  26.548   1.755
27744W        W94153   6.377  28.896   0.119
27745W        W94154  22.735  30.672  10.409
27746W        W94155   9.765  16.317   3.583
27747W        W94156   8.800  31.112   0.194
27748W        W94157  35.654  33.542  11.243
27749W        W94158   6.743  21.043   3.783
27750W        W94159   4.663  33.189  13.968
27751W        W94160  37.467  28.490   3.734
27752W        W94161  37.297   2.964   3.210
27753W        W94162  26.489  15.227  11.611
27754W        W94163  19.037  19.082   1.051
27755W        W94164  14.079  29.950  14.469
27756W        W94165  25.614   3.144   3.826
27757W        W94166  40.346  36.141   3.782
27758W        W94167  42.484  11.592  12.863
27759W        W94168  33.281  34.931  14.384
27760W        W94169  37.423  16.654   2.268
27761W        W94170  34.246  15.699   4.667
27762W        W94171  13.661   8.729   3.151
27763W        W94172  36.533  10.757   4.742
27764W        W94173   5.753  16.869  13.071
27765W        W94174  10.370  15.899  13.968
27766W        W94175  19.782  44.443  11.108
27767W        W94176   5.420  14.420   2.358
27768W        W94177  13.639  19.493  14.853
27769W        W94178  17.092  16.349   3.675
27770W        W94179   8.877  14.362  11.973
27771W        W94180  18.790  13.905  11.110
27772W        W94181  23.025   1.431   3.638
27773W        W94182  25.619  44.064  14.060
27774W        W94183  22.534  14.791  13.906
27775W        W94184  44.101  17.041  12.507
27776W        W94185  36.999  44.203  11.609
27777W        W94186   8.906   3.207  12.494
27778W        W94187  30.921  42.844   0.287
27779W        W94188   5.790  28.102  14.835
27780W        W94189  10.326  31.810  11.371
27781W        W94190  36.069  16.457   1.740
27782W        W94191  20.774  19.010   2.934
27783W        W94192  15.708  35.734  12.645
27784W        W94193  23.745  16.579   0.037
27785W        W94194  33.395  21.056  10.634
27786W        W94195  22.646  32.805  11.630
27787W        W94196  10.076   7.454  10.398
27788W        W94197   3.871  24.466  10.659
27789W        W94198  30.571   4.234   1.312
27790W        W94199  43.392  20.320  11.676
27791W        W94200   8.642  39.452  14.964
27792W        W94201   1.022  40.519   2.760
27793W        W94202  22.725  39.988   2.155
27794W        W94203  21.191   7.775  10.513
27795W        W94204  42.772  29.061   4.537
27796W        W94205  24.818  41.346  10.725
27797W        W94206  36.345   2.771  12.974
27798W        W94207  29.011  21.317   0.891
27799W        W94208  11.920  25.056   5.044
27800W        W94209   2.620  28.660  11.507
27801W        W94210  31.398   8.779  11.060
27802W        W94211  36.955  13.231  12.959
27803W        W94212   3.827  24.699   2.995
27804W        W94213  26.802  29.575   1.297
27805W        W94214  30.145  24.852  12.108
27806W        W94215  21.706  21.964  12.035
27807W        W94216   7.705  31.975  10.586
27808W        W94217  28.565  42.771   4.683
27809W        W94218  17.519  34.537   2.309
27810W        W94219  11.438  23.438   2.270
27811W        W94220   2.293   8.684   1.008
27812W        W94221  17.725   0.827   4.894
27813W        W94222  23.120  15.822   4.450
27814W        W94223   8.141  15.481   4.232
27815W        W94224  33.034  38.550  12.834
27816W        W94225   8.259  35.375  12.424
27817W        W94226  15.598  33.634   1.889
27818W        W94227  27.533  26.483  11.412
27819W        W94228  42.151  30.532  12.054
27820W        W94229  32.950  23.078   3.922
27821W        W94230   9.736   8.847   3.093
27822W        W94231  11.935  22.088   2.036
27823W        W94232   4.308  11.671   0.805
27824W        W94233   0.966  41.319   4.593
27825W        W94234   3.428   4.072  12.566
27826W        W94235  11.890  44.227   5.524
27827W        W94236  23.583  18.295   0.498
27828W        W94237  37.387   6.223  11.603
27829W        W94238  17.110  33.201  12.063
27830W        W94239  20.220  41.819   4.848
27831W        W94240  20.582  30.391   0.335
27832W        W94241  18.882  29.794   2.074
27833W        W94242  32.479   0.101  14.458
27834W        W94243   7.189  38.766  13.812
27835W        W94244  32.844   4.971   5.389
27836W        W94245  22.228   6.632  12.127
27837W        W94246  16.268  40.999   0.877
27838W        W94247  16.045  15.671  13.120
27839W        W94248  30.115  21.184   1.516
27840W        W94249  30.351  10.322   4.675
27841W        W94250   7.239  32.081  10.806
27842W        W94251  30.231   9.159   5.540
27843W        W94252  20.809  35.565  13.898
27844W        W94253  22.469  15.965  12.339
27845W        W94254   0.783  10.578   0.762
27846W        W94255  14.169  12.299  13.469
27847W        W94256  11.061  28.015   2.316
27848W        W94257   0.450   7.404   1.932
27849W        W94258  24.740   7.104  11.830
27850W        W94259  29.482  28.257   4.580
27851W        W94260  15.231  19.495  10.990
27852W        W94261   0.983  36.441  14.914
27853W        W94262   8.402  39.011   1.981
27854W        W94263  44.443  37.098  11.596
27855W        W94264  30.982  31.111  13.311
27856W        W94265  19.061  21.117   2.980
27857W        W94266  29.262  35.727  11.286
27858W        W94267   3.926  35.530   3.261
27859W        W94268  26.599   8.386  14.312
27860W        W94269  20.845  21.111  14.073
27861W        W94270  22.103  37.769  13.006
27862W        W94271   3.193  25.542  14.864
27863W        W94272  43.005  32.138   3.420
27864W        W94273   8.306  24.732   1.809
27865W        W94274  43.744  40.949  14.055
27866W        W94275  19.134  43.445  12.197
27867W        W94276  17.781   6.860   1.118
27868W        W94277  15.141  27.923   2.398
27869W        W94278  37.690  23.005  12.461
27870W        W94279  20.727  28.661   3.347
27871W        W94280  35.206  31.493  12.232
27872W        W94281  43.915  33.525   1.748
27873W        W94282  13.105   0.057  13.397
27874W        W94283   1.853  31.399  10.731
27875W        W94284  12.996  20.383  13.276
27876W        W94285  42.345   8.399   3.084
27877W        W94286  10.275  16.452   3.591
27878W        W94287  39.348  22.943   1.507
27879W        W94288   9.895  39.804   4.000
27880W        W94289   0.458  40.391   3.800
27881W        W94290  20.687  42.273   1.398
27882W        W94291  21.069  27.386   4.643
27883W        W94292  26.714  13.832  11.035
27884W        W94293   2.509  27.443   3.668
27885W        W94294  33.763   9.354  13.445
27886W        W94295  19.411  40.076   1.769
27887W        W94296  12.332  12.347   1.655
27888W        W94297  28.186   4.169  12.056
27889W        W94298  13.940  41.771   2.805
27890W        W94299   5.447  40.831   0.390
27891W        W94300  10.352  31.416   0.552
27892W        W94301  13.361   9.887   0.820
27893W        W94302  43.359   6.961  11.615
27894W        W94303  34.091   9.838   0.487
27895W        W94304  27.507  39.610  11.408
27896W        W94305  15.803  20.538  12.985
27897W        W94306  31.579  16.289   0.859
27898W        W94307  39.032  14.630   0.919
27899W        W94308  34.904   4.031   0.214
27900W        W94309   4.516  42.275   0.911
27901W        W94310  11.800  22.141   2.560
27902W        W94311  18.157   2.830  12.413
27903W        W94312  14.893  35.449   2.922
27904W        W94313  32.853  13.785   1.298
27905W        W94314   4.246   6.278   4.520
27906W        W94315  25.243  27.887  11.959
27907W        W94316   4.774  34.925   1.803
27908W        W94317  18.585  35.601  14.027
27909W        W94318  43.974  30.373  13.873
27910W        W94319  11.728  33.067   1.173
27911W        W94320   8.818  23.267  13.957
27912W        W94321   4.858  17.561  11.050
27913W        W94322  37.990  34.874  12.359
27914W        W94323  25.520  31.400   2.879
27915W        W94324  27.909  24.928  12.526
27916W        W94325  14.679  33.948  11.676
27917W        W94326  30.534  21.707  13.281
27918W        W94327   3.278  31.097   0.732
27919W        W94328  26.993  24.978  12.576
27920W        W94329  26.806  16.033  11.212
27921W        W94330  30.180  24.354  12.021
27922W        W94331  24.213   7.215   1.217
27923W        W94332  28.305  22.813  13.032
27924W        W94333  36.057  21.315   2.744
27925W        W94334   7.992  38.459  14.071
27926W        W94335   8.274  36.666  13.821
27927W        W94336  31.722  22.970   2.279
27928W        W94337   6.587  29.862  11.987
27929W        W94338  18.605  22.257  13.059
27930W        W94339  40.919   3.797  12.546
27931W        W94340   1.509  31.159  12.339
27932W        W94341  16.108  41.870  10.535
27933W        W94342  23.480  23.338   1.794
27934W        W94343  26.740   8.254   0.833
27935W        W94344  35.553  14.361  11.181
27936W        W94345  21.111  36.409   2.137
27937W        W94346   8.764  10.421   4.522
27938W        W94347   1.327  10.200  14.378
27939W        W94348   4.899  33.633  11.834
27940W        W94349   4.351  17.381  14.830
27941W        W94350  10.293  19.914   1.824
27942W        W94351  37.754  33.508   2.861
27943W        W94352  33.602  20.088  11.596
27944W        W94353  39.694  13.260   1.282
27945W        W94354  17.036  11.232   3.300
27946W        W94355  10.753  23.157   3.168
27947W        W94356  28.693  32.172  14.776
27948W        W94357  19.032  29.696  14.571
27949W        W94358  39.799  23.124  12.505
27950W        W94359  16.328  11.213   1.032
27951W        W94360  17.930   0.763   1.697
27952W        W94361  21.475  25.645   3.150
27953W        W94362  37.102  12.582   3.376
27954W        W94363  41.313   9.074  12.971
27955W        W94364  18.154   1.141  14.924
27956W        W94365  29.396  33.401  12.554
27957W        W94366  16.221  25.622   0.850
27958W        W94367  16.686  39.449   2.187
27959W        W94368  40.321  19.238  13.287
27960W        W94369  19.563  12.750   1.811
27961W        W94370  35.023  13.292   2.474
27962W        W94371  43.835  26.968   4.296
27963W        W94372  35.179  35.088  14.702
27964W        W94373  21.209  24.860  13.925
27965W        W94374  20.217  13.373   4.232
27966W        W94375  39.944   2.467   0.667
27967W        W94376  39.992  35.498   3.388
27968W        W94377  24.674  44.956   3.415
27969W        W94378   8.295  17.820   2.126
27970W        W94379  29.973   7.031  14.052
27971W        W94380   1.398  29.644  14.547
27972W        W94381   9.360  39.071  14.884
27973W        W94382  36.957   5.190   0.940
27974W        W94383   1.822  20.143   4.624
27975W        W94384  33.892  37.680  13.731
27976W        W94385  23.682  18.774  11.969
27977W        W94386  20.677  42.598   0.952
27978W        W94387  11.169  26.700  12.577
27979W        W94388   6.203  15.860  11.636
27980W        W94389  16.826  13.252   3.977
27981W        W94390  32.193   2.371  12.533
27982W        W94391  15.235  29.176  10.641
27983W        W94392  38.419  21.114  13.796
27984W        W94393   4.969  40.994   4.087
27985W        W94394  15.634   6.011  13.320
27986W        W94395  14.671  22.816  12.875
27987W        W94396  44.914  40.512   1.324
27988W        W94397  19.265  21.557  13.931
27989W        W94398  28.613  35.177  11.182
27990W        W94399  37.127  19.976   2.338
27991W        W94400  30.914  27.723  13.030
27992W        W94401  38.555  23.178  10.770
27993W        W94402   6.162  42.870  12.834
27994W        W94403  11.354  29.874  14.795
27995W        W94404  13.115   3.394   4.510
27996W        W94405  39.610   8.781  11.881
27997W        W94406  28.538  22.749  13.503
27998W        W94407  26.897  43.529  14.944
27999W        W94408  21.295  10.310  14.286
28000W        W94409  24.228  19.592  14.582
28001W        W94410   4.460   5.403  11.534
28002W        W94411  34.290  12.752   4.940
28003W        W94412  25.109  17.659  13.338
28004W        W94413  41.071  11.580  12.845
28005W        W94414  17.947  40.065   0.878
28006W        W94415   6.772  16.240   0.028
28007W        W94416  16.399  35.036   1.659
28008W        W94417  43.902  41.043   3.653
28009W        W94418  25.631  19.969   0.939
28010W        W94419  10.456  19.731   0.342
28011W        W94420  30.218  35.247   3.163
28012W        W94421  38.836   2.444  14.450
28013W        W94422   9.877  10.852   3.268
28014W        W94423  20.226   3.126   5.409
28015W        W94424   3.438  29.611  12.164
28016W        W94425  25.968  19.073  11.716
28017W        W94426  35.945  14.876  12.147
28018W        W94427  37.381   1.674   3.678
28019W        W94428  21.603  13.224  12.056
28020W        W94429  30.701  26.888  11.094
28021W        W94430   5.302  16.309   1.503
28022W        W94431   2.380   5.345  10.846
28023W        W94432   5.840  37.839   4.163
28024W        W94433  19.903   7.648  12.053
28025W        W94434   0.375  36.762   2.777
28026W        W94435  34.367   6.719  13.609
28027W        W94436   8.404  18.774  11.552
28028W        W94437  13.958  35.593  13.650
28029W        W94438   0.055  10.580  13.764
28030W        W94439  25.448  20.902   0.699
28031W        W94440  24.141   2.243   3.736
28032W        W94441  10.138  10.802  12.074
28033W        W94442  24.769   6.856  13.018
28034W        W94443   7.874  41.581  13.433
28035W        W94444   3.907  39.450   3.943
28036W        W94445  43.842  15.127   0.320
28037W        W94446  41.107  37.539  11.492
28038W        W94447  19.132   3.705  14.572
28039W        W94448  42.628  22.033   1.436
28040W        W94449  23.582  34.521   1.457
28041W        W94450  28.823  16.870   0.076
28042W        W94451  38.012  31.837  14.263
28043W        W94452  42.642  42.051   1.272
28044W        W94453  22.355  16.149  13.020
28045W        W94454   7.065  44.458  12.156
28046W        W94455  15.328  40.014  11.079
28047W        W94456  19.799  20.140   2.025
28048W        W94457  16.303   6.911   0.522
28049W        W94458  15.448  29.940  14.396
28050W        W94459  27.178  27.456  11.601
28051W        W94460   2.280  40.586  12.930
28052W        W94461   2.232   9.690   0.220
28053W        W94462  13.408   5.985   2.577
28054W        W94463   7.257  29.094  14.946
28055W        W94464  26.960  29.052   1.026
28056W        W94465  34.097  15.203  10.975
28057W        W94466  18.520   8.473  14.839
28058W        W94467  42.984  43.872   0.194
28059W        W94468  25.959  24.741  10.247
28060W        W94469  24.015   0.331   0.760
28061W        W94470   4.299   7.723  13.503
28062W        W94471  11.545  16.148  11.525
28063W        W94472  24.057   3.660  11.124
28064W        W94473   3.901  26.554   3.683
28065W        W94474  29.413  41.646   4.911
28066W        W94475  20.693  38.014   0.350
28067W        W94476   9.681   9.147  14.478
28068W        W94477  31.978  12.287   2.166
28069W        W94478   1.491  23.519   3.153
28070W        W94479  16.488  42.869   1.190
28071W        W94480  30.627  29.520   0.935
28072W        W94481  33.911   3.807  14.582
28073W        W94482  15.009  17.765   1.669
28074W        W94483  43.744  20.242   1.936
28075W        W94484  36.978  42.756   2.098
28076W        W94485  44.005   9.985   0.786
28077W        W94486  39.082  43.758  12.902
28078W        W94487  35.142  38.419   4.289
28079W        W94488   1.333  37.496  12.608
28080W        W94489  41.833  15.656   3.341
28081W        W94490  41.450  17.715  10.686
28082W        W94491  10.142  20.219   1.439
28083W        W94492  18.194  39.435  12.618
28084W        W94493   4.247  18.827   2.207
28085W        W94494   9.144  11.178  11.107
28086W        W94495  41.306   5.326   1.441
28087W        W94496  38.322  17.499  11.730
28088W        W94497  12.192  10.353   1.218
28089W        W94498  26.920  31.904   3.385
28090W        W94499  21.750  43.786   4.093
28091W        W94500   2.406  32.587  11.936
28092W        W94501   6.192   4.470  11.649
28093W        W94502  28.578   0.485   1.398
28094W        W94503  35.033  21.136  11.644
28095W        W94504  24.989  12.845  11.668
28096W        W94505  31.987   4.519  10.778
28097W        W94506  16.443  20.431   4.901
28098W        W94507  43.323  11.610   3.690
28099W        W94508  10.396   1.492  11.717
28100W        W94509  14.179  15.185   5.029
28101W        W94510  13.234  24.438   3.709
28102W        W94511  36.810  20.849  11.614
28103W        W94512  33.568   4.066   3.667
28104W        W94513  35.553  10.237   0.042
28105W        W94514  11.361  22.580   4.130
28106W        W94515  12.520  21.049   2.355
28107W        W94516  35.527  22.849  14.860
28108W        W94517  33.000  17.855  11.995
28109W        W94518  30.385   9.271  12.046
28110W        W94519  17.015  43.066  10.440
28111W        W94520   2.484  24.542  11.547
28112W        W94521  22.243  27.937  10.153
28113W        W94522  35.623   9.923  11.530
28114W        W94523  29.668  32.610   4.997
28115W        W94524   6.356   6.132  13.440
28116W        W94525  26.368  28.554   3.063
28117W        W94526   7.697  33.843   2.645
28118W        W94527  44.888  39.796  10.722
28119W        W94528   1.265   7.144   3.743
28120W        W94529  12.203  17.495  12.233
28121W        W94530  34.645  12.479   2.065
28122W        W94531  34.447  26.377   2.280
28123W        W94532  27.182  16.347   0.257
28124W        W94533  16.781   1.030   0.413
28125W        W94534  16.542  42.919  13.492
28126W        W94535  41.044  27.459  10.649
28127W        W94536  29.428  35.405  13.084
28128W        W94537  20.281   3.755   3.663
28129W        W94538  21.678  11.910   3.619
28130W        W94539  15.144  33.043  12.651
28131W        W94540  32.684  32.861  12.912
28132W        W94541  37.605  19.724  12.511
28133W        W94542  23.247  19.231  14.966
28134W        W94543  26.546  15.643   5.130
28135W        W94544  37.469  42.626  11.123
28136W        W94545  26.762   9.290   1.792
28137W        W94546  31.942  27.957   1.426
28138W        W94547   3.837  25.053   0.267
28139W        W94548  44.253  16.274   4.000
28140W        W94549  26.642  28.028   4.174
28141W        W94550  21.964  14.168   5.259
28142W        W94551  44.420  41.355   0.964
28143W        W94552  32.338   7.710   1.837
28144W        W94553  41.963  38.795  13.562
28145W        W94554  26.704   6.858   4.525
28146W        W94555  26.170   2.833   3.480
28147W        W94556  40.132  37.357  13.459
28148W        W94557  10.415  30.375   2.291
28149W        W94558  27.469  17.145   3.216
28150W        W94559  19.241  14.179  11.125
28151W        W94560  20.067  24.099  10.962
28152W        W94561  44.210   0.651   3.042
28153W        W94562  39.357  39.017  11.719
28154W        W94563  22.256  21.571  10.251
28155W        W94564  11.369  22.508  12.511
28156W        W94565  26.205  11.132   1.826
28157W        W94566  10.041  15.299   1.342
28158W        W94567   0.446  13.628   4.406
28159W        W94568  34.003   9.433   0.156
28160W        W94569  43.932  31.671  10.332
28161W        W94570   6.514   6.229   1.324
28162W        W94571   7.914   4.340  12.897
28163W        W94572  35.890  34.546  12.741
28164W        W94573  20.650   8.810   4.049
28165W        W94574  11.501  39.888   0.480
28166W        W94575  23.254  31.718  14.082
28167W        W94576  12.429  21.144  13.639
28168W        W94577  35.028  44.690  10.606
28169W        W94578  16.859  42.371   1.451
28170W        W94579  25.296   8.316  11.974
28171W        W94580  21.505  14.268   4.416
28172W        W94581  30.640  21.212  11.564
28173W        W94582  30.075  24.470  11.169
28174W        W94583  29.171  39.203   4.245
28175W        W94584  43.245   2.906   4.353
28176W        W94585   8.747  31.669   2.869
28177W        W94586  32.234  22.397  13.410
28178W        W94587   1.174  18.124  12.427
28179W        W94588  34.383   6.953  14.912
28180W        W94589  29.112  15.526  10.336
28181W        W94590  11.340  12.585   3.223
28182W        W94591   3.791  38.340  14.930
28183W        W94592  40.273  23.221   0.750
28184W        W94593  30.466   6.052   4.444
28185W        W94594  10.338  12.595   4.179
28186W        W94595  15.718  35.782  14.373
28187W        W94596  30.165  11.161  14.432
28188W        W94597  18.675  22.625   0.274
28189W        W94598  36.550  26.157   3.113
28190W        W94599   4.365   0.725  13.902
28191W        W94600  23.729  24.957   3.650
28192W        W94601  27.754  19.284  13.316
28193W        W94602  44.308  10.677  13.379
28194W        W94603  16.802  13.832   2.731
28195W        W94604  23.221  30.910  11.128
28196W        W94605  36.918   0.363  13.519
28197W        W94606   5.142  16.556   4.477
28198W        W94607  25.430  10.292   4.329
28199W        W94608  12.073  38.803   4.290
28200W        W94609   2.177  10.846   3.278
28201W        W94610  30.298  25.959  13.561
28202W        W94611   7.867   2.954  13.427
28203W        W94612  42.326  19.847   1.780
28204W        W94613  15.612  10.642   1.815
28205W        W94614  11.938  18.312   2.116
28206W        W94615  36.839   0.421   1.340
28207W        W94616  37.586  34.887  10.768
28208W        W94617  13.672  32.753  10.799
28209W        W94618  18.471  40.556  10.219
28210W        W94619  24.045  44.873   1.047
28211W        W94620  38.617  14.619   4.127
28212W        W94621  28.778   3.422  11.946
28213W        W94622  42.068  22.658   1.666
28214W        W94623  39.272  33.618  12.293
28215W        W94624   6.343  42.917  10.196
28216W        W94625  38.396  28.772   3.786
28217W        W94626  13.250  32.491   5.088
28218W        W94627   5.276  27.487  11.840
28219W        W94628  42.364  13.559  10.702
28220W        W94629  11.226  19.881  11.924
28221W        W94630  39.142  44.821  12.100
28222W        W94631  27.074  37.038   2.944
28223W        W94632  20.303   2.693  11.210
28224W        W94633   5.899  26.526  14.894
28225W        W94634  32.707  18.956   3.160
28226W        W94635  30.841   3.468   3.654
28227W        W94636  25.197  41.850   3.253
28228W        W94637  39.774  16.021  11.109
28229W        W94638  14.139   0.645   4.174
28230W        W94639  10.869   3.840  12.064
28231W        W94640  44.030  20.301   4.145
28232W        W94641   4.006  35.451  10.734
28233W        W94642  30.721  13.807   3.892
28234W        W94643   2.406  39.404   0.738
28235W        W94644  19.400   0.845   0.444
28236W        W94645  34.480  40.277  14.272
28237W        W94646  25.166  27.462   3.367
28238W        W94647   3.013  28.022   0.247
28239W        W94648  41.844  26.288   0.354
28240W        W94649  44.488  33.388   3.004
28241W        W94650  41.582  40.455  14.058
28242W        W94651  18.265  30.194  13.462
28243W        W94652  24.603  38.889  10.143
28244W        W94653  39.468   4.015   3.158
28245W        W94654  35.286  31.167  14.294
28246W        W94655  43.924  44.710  13.113
28247W        W94656  34.104  21.625   4.119
28248W        W94657  30.956  21.730  14.303
28249W        W94658   8.865   6.448   0.532
28250W        W94659  38.137  29.108  13.908
28251W        W94660  21.564  44.845   4.052
28252W        W94661   0.676   5.833  14.707
28253W        W94662  28.930  14.872  14.487
28254W        W94663  24.095  18.822   3.810
28255W        W94664   0.292  21.992   2.606
28256W        W94665  15.989  26.596   0.961
28257W        W94666  38.594  33.846  12.935
28258W        W94667   4.514  31.237  14.479
28259W        W94668  36.017  30.523  12.488
28260W        W94669  20.042  37.000   4.908
28261W        W94670  26.016  28.071  11.534
28262W        W94671  30.157  19.576  12.378
28263W        W94672  40.990  36.128  12.577
28264W        W94673  19.774  25.537  14.805
28265W        W94674  18.760  30.618   2.474
28266W        W94675   4.992  43.391   1.377
28267W        W94676  17.692  14.990   3.813
28268W        W94677  18.717  16.427  11.225
28269W        W94678  32.000  30.698  12.154
28270W        W94679  40.054  30.813   5.095
28271W        W94680  23.705  20.994  13.994
28272W        W94681  26.898  38.362   4.728
28273W        W94682  18.628   6.267   4.206
28274W        W94683  34.993  38.979  14.088
28275W        W94684  19.202   9.314   2.224
28276W        W94685  43.620  19.459   3.033
28277W        W94686   2.766  12.204  12.846
28278W        W94687   2.268  40.812   3.171
28279W        W94688   7.446  34.189   3.478
28280W        W94689  41.731  18.196  10.291
28281W        W94690  41.830  12.328   1.747
28282W        W94691  32.540  23.008   1.727
28283W        W94692  22.131  22.994   4.803
28284W        W94693  22.108   7.679  10.958
28285W        W94694  37.289  16.580  12.020
28286W        W94695   8.091   6.762  11.908
28287W        W94696  36.971  15.830  10.934
28288W        W94697  24.713   5.367  13.470
28289W        W94698  16.132  36.927   0.835
28290W        W94699  18.773  14.842   0.453
28291W        W94700  19.166  23.230   2.397
28292W        W94701  29.161  19.144  11.849
28293W        W94702  37.571   7.306  14.909
28294W        W94703  14.842  35.947  13.919
28295W        W94704  38.293  44.274  14.896
28296W        W94705  22.470  19.675   4.033
28297W        W94706  10.837  21.632  10.726
28298W        W94707  14.034  15.525  12.959
28299W        W94708  39.409  21.639  12.384
28300W        W94709  33.336  16.539   0.387
28301W        W94710  24.293   6.415  12.543
28302W        W94711  13.315  38.299  13.672
28303W        W94712  36.939   9.776   0.856
28304W        W94713  13.118  39.276   2.346
28305W        W94714  13.827  23.534  11.792
28306W        W94715   8.955  20.492  11.119
28307W        W94716  24.003  38.893   3.702
28308W        W94717  24.251  19.818   5.296
28309W        W94718  39.872  13.661   4.503
28310W        W94719   0.787   7.934   0.566
28311W        W94720  33.895  21.175  10.547
28312W        W94721  19.516  14.257   3.195
28313W        W94722   7.809  13.372  10.942
28314W        W94723   7.819  44.985   0.911
28315W        W94724   9.232  27.620   0.671
28316W        W94725   6.632  36.017   2.648
28317W        W94726   2.801   1.321   0.125
28318W        W94727  12.074  37.290  13.997
28319W        W94728   3.975  32.289  13.288
28320W        W94729   7.306  22.714   4.341
28321W        W94730  39.081  34.193   3.766
28322W        W94731  27.910   3.999   3.840
28323W        W94732   8.734  22.279   4.695
28324W        W94733  29.790  36.912   4.696
28325W        W94734  22.129  30.681   0.756
28326W        W94735   9.276  28.651  11.806
28327W        W94736   1.750  22.624   4.608
28328W        W94737  12.316  43.719  11.660
28329W        W94738  21.778   1.432  12.502
28330W        W94739  27.687  41.855   0.640
28331W        W94740  34.986  15.265   3.784
28332W        W94741  21.828  44.446   1.438
28333W        W94742  39.934   5.682   3.464
28334W        W94743  42.767  38.448   4.246
28335W        W94744  11.292   2.772  12.195
28336W        W94745   3.534  42.482   1.883
28337W        W94746  22.242  22.533  13.427
28338W        W94747  13.591  35.972   2.799
28339W        W94748   4.661   6.872  12.148
28340W        W94749  37.449  24.929  14.382
28341W        W94750  31.518  19.790   3.992
28342W        W94751  29.878  13.352   1.846
28343W        W94752  23.204   0.940   0.355
28344W        W94753  16.820  41.385  14.531
28345W        W94754  10.065   6.490  13.530
28346W        W94755   9.307   0.946   1.648
28347W        W94756  17.022  14.565   1.809
28348W        W94757  38.454  21.712   2.634
28349W        W94758  39.318  13.746   2.759
28350W        W94759   7.851  22.674  12.492
28351W        W94760  34.440  18.020   3.247
28352W        W94761  32.541  25.051   2.910
28353W        W94762  29.782  28.366   3.791
28354W        W94763   4.370  17.695   4.248
28355W        W94764  15.124  14.483   0.797
28356W        W94765  12.115   5.665  14.374
28357W        W94766   7.643  30.872   3.635
28358W        W94767   0.504  26.482  10.460
28359W        W94768  26.149  16.385  10.566
28360W        W94769  29.591  31.819   2.574
28361W        W94770   0.983  24.563  11.592
28362W        W94771  41.821  27.673  12.175
28363W        W94772   2.355   5.703   0.541
28364W        W94773  32.375  10.734  13.306
28365W        W94774  15.291  35.440   0.986
28366W        W94775  23.069  35.657  10.706
28367W        W94776  19.069  42.500  11.686
28368W        W94777  39.898  10.503   1.491
28369W        W94778  43.416   8.843   0.450
28370W        W94779  28.124  16.215   0.744
28371W        W94780  44.798  13.101   4.082
28372W        W94781   3.677   9.362   0.505
28373W        W94782   2.683  28.930  11.007
28374W        W94783   2.504  31.013  10.997
28375W        W94784   8.229   3.882   2.161
28376W        W94785  27.291  12.070  11.269
28377W        W94786  14.663  36.918  14.588
28378W        W94787  33.906   6.895   1.639
28379W        W94788  40.389   3.864   1.603
28380W        W94789  15.088  22.570   2.768
28381W        W94790  41.409  37.580  13.130
28382W        W94791   4.723  23.845  11.537
28383W        W94792  29.825  27.439  11.582
28384W        W94793  16.031  18.614   2.227
28385W        W94794  10.079  44.803  10.683
28386W        W94795  24.435  20.042   2.203
28387W        W94796  12.669  21.149  12.634
28388W        W94797  24.229  33.982  13.915
28389W        W94798  42.040  44.535   3.405
28390W        W94799  31.589   1.244  12.652
28391W        W94800  33.387  25.939  11.416
28392W        W94801   9.830  15.664   1.845
28393W        W94802  33.312   4.346  12.067
28394W        W94803  24.564  36.220   1.193
28395W        W94804  25.486   2.354  14.875
28396W        W94805  16.133  23.733  13.105
28397W        W94806  32.752  25.648   0.103
28398W        W94807   7.877   9.756   4.629
28399W        W94808  37.938  23.050   4.298
28400W        W94809  19.445  29.909  13.373
28401W        W94810  43.212   8.931  12.984
28402W        W94811  25.527   8.637   1.330
28403W        W94812  16.224  32.878   1.159
28404W        W94813  19.924   0.750   0.447
28405W        W94814  43.528   9.916  12.823
28406W        W94815  38.644  26.051   2.634
28407W        W94816  22.785  21.210  13.465
28408W        W94817  18.826   3.111   0.757
28409W        W94818  20.221   2.500   0.246
28410W        W94819  15.329  27.868  12.440
28411W        W94820  30.648   8.568   1.308
28412W        W94821  10.602   1.998   0.454
28413W        W94822  14.163  26.752   1.947
28414W        W94823  23.315   3.881  12.194
28415W        W94824  24.226  32.519   0.160
28416W        W94825  12.807  24.493   4.514
28417W        W94826  24.427  14.099  10.486
28418W        W94827  28.528  17.209   4.667
28419W        W94828  27.936  20.532   3.157
28420W        W94829   0.247  20.481  10.730
28421W        W94830   4.333   9.813  11.611
28422W        W94831   7.241  35.819   1.442
28423W        W94832  39.805  29.994  14.799
28424W        W94833  40.532  37.736  13.397
28425W        W94834  38.308  31.459   0.844
28426W        W94835  12.743   9.292  10.996
28427W        W94836   6.420  17.179  13.394
28428W        W94837  31.096  36.217  13.919
28429W        W94838  17.187  29.392   3.810
28430W        W94839  16.647  34.824   2.561
28431W        W94840  44.113  10.162  13.933
28432W        W94841  16.859  41.153   3.985
28433W        W94842  39.348   3.296   4.942
28434W        W94843  34.570  36.965  13.507
28435W        W94844  28.405   7.378  12.948
28436W        W94845   6.165  15.239   1.305
28437W        W94846  20.649  43.753  12.553
28438W        W94847  10.163  26.760   4.150
28439W        W94848   7.814   3.716   0.497
28440W        W94849  14.193  16.986  12.567
28441W        W94850  10.500  28.251   4.974
28442W        W94851  11.296  24.007  13.224
28443W        W94852  28.558  31.676  14.934
28444W        W94853  31.862  18.804   4.858
28445W        W94854  16.572  40.932  14.595
28446W        W94855  44.032   8.782   3.602
28447W        W94856  21.017  32.928   1.351
28448W        W94857  43.940   4.911  10.814
28449W        W94858   1.326  31.086   0.214
28450W        W94859  14.767  19.691  14.776
28451W        W94860   5.886  21.505   0.895
28452W        W94861  26.077  12.743  10.705
28453W        W94862  33.856  20.372   0.443
28454W        W94863  10.719  42.468   3.716
28455W        W94864  37.040   5.445   1.389
28456W        W94865  35.249   7.730  10.657
28457W        W94866   3.611  24.017   5.343
28458W        W94867  38.362  17.595   3.723
28459W        W94868  29.407  44.338   2.422
28460W        W94869  38.555  11.389   1.945
28461W        W94870  29.271  44.779   0.232
28462W        W94871  42.957  14.901  11.056
28463W        W94872  44.013  32.032  10.683
28464W        W94873  10.604  20.861  11.293
28465W        W94874  31.164  24.607   3.620
28466W        W94875   3.178   2.751  12.770
28467W        W94876  14.808   7.328  10.920
28468W        W94877  31.887  26.473  12.924
28469W        W94878   1.932  26.636   1.576
28470W        W94879  25.454  22.083   2.216
28471W        W94880  29.502   7.880   2.756
28472W        W94881  40.066  42.775  11.955
28473W        W94882  40.362  11.976   3.676
28474W        W94883  24.187  33.046   3.831
28475W        W94884   0.478  28.248   0.282
28476W        W94885  14.772  11.670  11.647
28477W        W94886  11.441  29.415   3.206
28478W        W94887  11.334  36.876   1.148
28479W        W94888  41.019  16.640  12.074
28480W        W94889  36.550   2.734  10.791
28481W        W94890  14.321  25.420  11.671
28482W        W94891  38.770  42.813  13.023
28483W        W94892  20.510  41.022  10.679
28484W        W94893  11.282   0.894  13.948
28485W        W94894  33.518  31.545  11.982
28486W        W94895  24.854   8.818  14.435
28487W        W94896  24.513   6.808  14.941
28488W        W94897  43.539  36.531   3.654
28489W        W94898  18.533   0.252  10.275
28490W        W94899   6.291  36.888   0.264
28491W        W94900  21.257  34.934   3.502
28492W        W94901  23.041  38.169   4.416
28493W        W94902   3.696  32.252  13.721
28494W        W94903  28.545  38.990  12.549
28495W        W94904   7.848  16.723  12.506
28496W        W94905  44.909  35.279   4.300
28497W        W94906   5.716  28.182   1.764
28498W        W94907  40.486   8.030  14.029
28499W        W94908  40.662  40.179   4.535
28500W        W94909  41.533  34.684   2.365
28501W        W94910  24.108  17.605   3.468
28502W        W94911  41.050  44.415   1.279
28503W        W94912  14.177  35.456  14.119
28504W        W94913  29.339  28.937   3.157
28505W        W94914  37.785   0.835   3.362
28506W        W94915  35.439  17.269  14.001
28507W        W94916  21.404  23.824  14.970
28508W        W94917   3.255  16.311  11.978
28509W        W94918  44.205  10.218   2.981
28510W        W94919  19.142  44.971   0.352
28511W        W94920   2.788   8.949  10.466
28512W        W94921   2.628  43.948  11.115
28513W        W94922  10.224  38.091  11.513
28514W        W94923   0.317  43.825  13.479
28515W        W94924   9.645   3.230   4.181
28516W        W94925  41.705  18.450   0.540
28517W        W94926   7.959   0.484   0.860
28518W        W94927  39.845  16.526   4.852
28519W        W94928  13.726   9.399  11.374
28520W        W94929  28.675  33.774  12.669
28521W        W94930  23.044  36.932  13.482
28522W        W94931   4.401  17.366   1.193
28523W        W94932  42.073   2.066  10.416
28524W        W94933  28.728   5.259  12.964
28525W        W94934  34.390  22.443   0.749
28526W        W94935  35.452   0.347   2.489
28527W        W94936  34.139  37.333  13.444
28528W        W94937   4.913  27.003   1.046
28529W        W94938  42.723   6.183   1.026
28530W        W94939  24.321  14.112   4.615
28531W        W94940  12.202  38.879   1.553
28532W        W94941  11.009  36.934  12.125
28533W        W94942  31.410  36.290   4.587
28534W        W94943  28.581  25.217   3.702
28535W        W94944  15.239  39.065  11.043
28536W        W94945  32.143  22.788  12.049
28537W        W94946  37.100  36.611   1.142
28538W        W94947  11.717  38.316  10.591
28539W        W94948  19.299   0.894  11.636
28540W        W94949  19.062  23.665  13.983
28541W        W94950  15.594   7.732  11.252
28542W        W94951  37.916  10.910  12.462
28543W        W94952   3.880  16.481   3.114
28544W        W94953  11.684  25.576   3.899
28545W        W94954  34.592  24.967   3.990
28546W        W94955  31.589  17.361  14.123
28547W        W94956  44.918  35.683   0.839
28548W        W94957  31.947  36.877   4.853
28549W        W94958  28.157   4.758  11.188
28550W        W94959  40.293  30.609  11.995
28551W        W94960  40.018  44.206  10.439
28552W        W94961   7.220  21.555   2.270
28553W        W94962  25.065  20.172   4.818
28554W        W94963  13.914  38.699  10.333
28555W        W94964  42.359  20.355   1.867
28556W        W94965  29.131   0.015   2.290
28557W        W94966  42.778  14.179   0.232
28558W        W94967  32.649  16.696  14.706
28559W        W94968   4.810   1.550  13.047
28560W        W94969   6.203  23.175   1.377
28561W        W94970  23.023   5.232  11.986
28562W        W94971   6.381  31.933  10.775
28563W        W94972  22.760  38.438  10.648
28564W        W94973   9.083  18.049   1.761
28565W        W94974  40.310  14.150   0.993
28566W        W94975  10.131  36.110  12.664
28567W        W94976  21.564  21.906   9.687
28568W        W94977   2.348  17.411  11.614
28569W        W94978  40.339  33.157  12.492
28570W        W94979  10.262  34.023   3.180
28571W        W94980  42.304  16.915  10.275
28572W        W94981  24.463  30.083   0.730
28573W        W94982  12.268  39.987  11.999
28574W        W94983  43.380   6.295   3.670
28575W        W94984   9.277   1.334   0.280
28576W        W94985  29.055  27.246  13.144
28577W        W94986  27.654  23.296  12.059
28578W        W94987  32.153  35.603  13.420
28579W        W94988  10.840  38.105   2.704
28580W        W94989  13.416  35.134  12.480
28581W        W94990   9.380  18.016  13.444
28582W        W94991  43.874  10.815  11.977
28583W        W94992  42.352   7.130  12.970
28584W        W94993   2.331  12.103  11.637
28585W        W94994  22.022  18.599   0.208
28586W        W94995   2.997   9.805   2.227
28587W        W94996  41.862   5.213   0.684
28588W        W94997  39.560  38.215  13.876
28589W        W94998   4.950  10.901  10.307
28590W        W94999  39.038  24.931   4.089
28591W        W95000  24.078  36.099   0.943
28592W        W95001  27.971  14.513  13.057
28593W        W95002  36.906  10.365  14.773
28594W        W95003  33.142  13.113   4.390
28595W        W95004  25.060  17.244  14.510
28596W        W95005  12.728  33.007   4.065
28597W        W95006   3.411  31.582  12.087
28598W        W95007  29.009  37.565  10.454
28599W        W95008  43.836  41.250  14.637
28600W        W95009  18.072  35.427  10.560
28601W        W95010  25.029  31.519  11.994
28602W        W95011  22.278  29.753  12.633
28603W        W95012  16.778  42.556   3.909
28604W        W95013   1.740  15.745  13.081
28605W        W95014  28.773  24.226  13.419
28606W        W95015  11.861   4.004   3.118
28607W        W95016  18.329  23.471   3.182
28608W        W95017  34.479  28.863  14.851
28609W        W95018  19.288   6.868   2.555
28610W        W95019  18.795  41.904   3.367
28611W        W95020   2.903  29.242   0.805
28612W        W95021   7.815  12.357  11.105
28613W        W95022   5.756  25.690  12.443
28614W        W95023  10.802  10.746  13.371
28615W        W95024  14.592   4.194  10.264
28616W        W95025   3.678  28.750  11.633
28617W        W95026   1.982  42.459   0.202
28618W        W95027  37.831  25.487   4.828
28619W        W95028  14.058  18.689  12.451
28620W        W95029  26.698  15.401   0.540
28621W        W95030   3.316  30.019  10.912
28622W        W95031   6.204   8.353  14.588
28623W        W95032  26.534   2.433  12.055
28624W        W95033  40.833  13.744  13.128
28625W        W95034  41.763  22.805   2.444
28626W        W95035  32.441  19.644   4.124
28627W        W95036  28.546  18.021  12.947
28628W        W95037  21.951   0.274   1.402
28629W        W95038   4.209   8.673  13.106
28630W        W95039  38.779   9.950  10.596
28631W        W95040  33.130  44.237   2.916
28632W        W95041  43.190   6.159  11.118
28633W        W95042  21.162  41.182   5.046
28634W        W95043  29.650  23.497   0.922
28635W        W95044  41.037  35.969  11.169
28636W        W95045  40.809  36.958   3.350
28637W        W95046   2.460  21.603  12.013
28638W        W95047  32.535   5.012  11.985
28639W        W95048  21.656  22.241   2.368
28640W        W95049  16.207  22.209  11.344
28641W        W95050  23.239  13.738   1.387
28642W        W95051  43.891  34.868  11.498
28643W        W95052  10.420  29.689  13.028
28644W        W95053   2.865  22.108  11.230
28645W        W95054  19.839   3.426  13.322
28646W        W95055  21.935  41.376  13.496
28647W        W95056  12.901  26.649  13.654
28648W        W95057  25.463  16.502   2.932
28649W        W95058  24.291  38.296  13.450
28650W        W95059  40.008   0.366   0.995
28651W        W95060  16.068  27.148  11.618
28652W        W95061  10.629  36.022  12.260
28653W        W95062   6.361  15.850  12.486
28654W        W95063  30.264  36.059  12.832
28655W        W95064  32.622  36.388  12.628
28656W        W95065  14.685  31.877  13.021
28657W        W95066  14.109  43.687  14.020
28658W        W95067  12.726  37.555   2.708
28659W        W95068  13.261   7.780   3.191
28660W        W95069  28.456  21.455   2.222
28661W        W95070  22.284  17.654   1.079
28662W        W95071  24.562  33.890  10.576
28663W        W95072  20.141  39.406  12.384
28664W        W95073  22.818  44.524  14.064
28665W        W95074  14.658  17.779  10.528
28666W        W95075  17.692  35.783  11.242
28667W        W95076  15.028  20.491  13.968
28668W        W95077  21.364  22.109   3.315
28669W        W95078   4.415  44.854  14.927
28670W        W95079   6.427   0.997  14.008
28671W        W95080  16.579  37.241   3.035
28672W        W95081  36.878  25.771   2.230
28673W        W95082  43.482  27.005   2.157
28674W        W95083   4.833  39.791   4.870
28675W        W95084  29.090  42.598  11.174
28676W        W95085   6.596  16.741  14.426
28677W        W95086  30.028  27.662  11.158
28678W        W95087  11.443  17.962   1.259
28679W        W95088  28.894  40.447   1.713
28680W        W95089  39.876  12.729  13.351
28681W        W95090   5.198  26.971  13.771
28682W        W95091   9.644  33.572   2.541
28683W        W95092  43.028   4.293  11.957
28684W        W95093  21.442  41.417  13.372
28685W        W95094  16.404  16.324   0.742
28686W        W95095  37.575  21.130  13.089
28687W        W95096   5.667  14.901  11.136
28688W        W95097  27.177  35.878   3.910
28689W        W95098  16.609  16.970  13.338
28690W        W95099  35.339  30.900  12.053
28691W        W95100  29.104  36.113   3.605
28692W        W95101  42.873  39.465  10.742
28693W        W95102  16.318  30.066  10.657
28694W        W95103  33.349  41.609  14.397
28695W        W95104   3.229   4.933   1.173
28696W        W95105  28.009  39.179   4.759
28697W        W95106   7.966  34.114   1.233
28698W        W95107  30.881  37.193  13.765
28699W        W95108  31.942  33.039  11.589
28700W        W95109   3.939   5.778   1.385
28701W        W95110  31.495  25.713   3.724
28702W        W95111  35.147  43.961  12.187
28703W        W95112  24.638  41.533   4.274
28704W        W95113  31.909  31.201   4.165
28705W        W95114  25.096  20.241  13.852
28706W        W95115  42.968  23.271  12.577
28707W        W95116  18.122  39.853  11.038
28708W        W95117   8.368  33.238  12.803
28709W        W95118   8.911  12.621  10.404
28710W        W95119  32.558  16.175   1.453
28711W        W95120   1.867  29.092   3.151
28712W        W95121  43.991  20.242   0.028
28713W        W95122   2.266   3.769  11.212
28714W        W95123  19.169  42.119   2.394
28715W        W95124  41.004   4.474   1.549
28716W        W95125   7.378  21.181  12.903
28717W        W95126  33.504   8.244  12.091
28718W        W95127  22.040  18.551   4.605
28719W        W95128  42.551  23.098  11.811
28720W        W95129   8.526  39.401  10.666
28721W        W95130  32.304  31.414   2.290
28722W        W95131  27.444  38.592   1.440
28723W        W95132  34.857  34.474   3.266
28724W        W95133  15.248   3.324  11.741
28725W        W95134  37.195  41.391   1.284
28726W        W95135  29.224  36.640   0.699
28727W        W95136   3.248  16.903  11.515
28728W        W95137   7.617  40.602   4.050
28729W        W95138  24.403  41.283  14.912
28730W        W95139  39.531  25.647   4.973
28731W        W95140  22.847  22.132  12.107
28732W        W95141  18.976  39.801   1.942
28733W        W95142  11.924  12.388   2.633
28734W        W95143  25.465  36.936   2.674
28735W        W95144   7.082  36.366  14.932
28736W        W95145  20.032  20.129  13.332
28737W        W95146  10.840  13.877   4.846
28738W        W95147  23.531   1.377   4.699
28739W        W95148   8.613  25.932   1.969
28740W        W95149   0.961  19.403   4.503
28741W        W95150  12.877  14.418   0.679
28742W        W95151   3.768   7.988   0.145
28743W        W95152  30.775  31.655   0.422
28744W        W95153  33.651  24.190  13.329
28745W        W95154   0.860  41.349  10.695
28746W        W95155   6.437   8.338   4.892
28747W        W95156  17.133  43.154   4.712
28748W        W95157  43.085  27.239  11.181
28749W        W95158  27.620  16.515   0.006
28750W        W95159  32.546  20.765  14.694
28751W        W95160  15.719  17.075  10.548
28752W        W95161   2.454  20.998  10.804
28753W        W95162  30.440  28.021   0.254
28754W        W95163  44.324  22.602  10.111
28755W        W95164  18.670  25.035   0.342
28756W        W95165  25.918  39.984   2.600
28757W        W95166  22.659  25.342  11.464
28758W        W95167  12.875  14.998   2.971
28759W        W95168  26.630  40.605   1.004
28760W        W95169  44.481   8.549   3.785
28761W        W95170  19.818  12.429   3.584
28762W        W95171  15.124  39.201  12.120
28763W        W95172  10.265  17.655  10.668
28764W        W95173  42.297  38.499  11.229
28765W        W95174   5.238  37.487  10.127
28766W        W95175  14.219  38.815   0.295
28767W        W95176  14.709  36.797  11.850
28768W        W95177   4.881   2.311  11.591
28769W        W95178  10.913  22.722  13.275
28770W        W95179  30.081  41.791  12.404
28771W        W95180  36.607  14.922   0.952
28772W        W95181  40.756   7.187  13.907
28773W        W95182   7.385  10.847  11.686
28774W        W95183  15.113   5.398  14.006
28775W        W95184  27.679  24.724   2.843
28776W        W95185  27.353  32.361  11.287
28777W        W95186   3.382  29.910   0.006
28778W        W95187  30.580  12.618   0.429
28779W        W95188  21.093  19.612   3.669
28780W        W95189  32.687   2.257  12.394
28781W        W95190  44.441  44.882   4.192
28782W        W95191   8.312  18.585   1.265
28783W        W95192   5.286  24.081   2.258
28784W        W95193  12.619  18.203  10.898
28785W        W95194  43.956  34.957  10.599
28786W        W95195  36.096  20.009   1.370
28787W        W95196  28.659   1.715  10.525
28788W        W95197  22.647  30.507   1.902
28789W        W95198  28.177  44.857  12.514
28790W        W95199  34.788  39.240  11.154
28791W        W95200  29.005  28.570   0.924
28792W        W95201  38.070  24.534   4.576
28793W        W95202  35.792  36.028  12.959
28794W        W95203   9.541  13.689   2.760
28795W        W95204  32.465  20.266  14.499
28796W        W95205  33.572   8.631   1.292
28797W        W95206   2.927  34.966  12.598
28798W        W95207  38.815   2.423   1.799
28799W        W95208  17.818   2.319   1.370
28800W        W95209  23.534   4.478   4.205
28801W        W95210   7.849   8.333  13.967
28802W        W95211  28.939  20.671   3.146
28803W        W95212  30.095   9.136  11.227
28804W        W95213  36.368  41.981   0.544
28805W        W95214  11.757  16.068   2.304
28806W        W95215  18.846  40.861   4.964
28807W        W95216  35.312  43.789   4.595
28808W        W95217  23.275  37.133  13.904
28809W        W95218  14.148   5.928   1.860
28810W        W95219  12.676  27.764   2.631
28811W        W95220  38.659   2.036  13.493
28812W        W95221  10.078   8.805   0.900
28813W        W95222   9.573  26.443   2.281
28814W        W95223  13.042  40.194  12.384
28815W        W95224  14.622  23.750  12.055
28816W        W95225  35.575  16.051   4.416
28817W        W95226  23.490  19.703  12.988
28818W        W95227  10.667  28.966  13.966
28819W        W95228  38.520   1.797  12.614
28820W        W95229  44.995   9.735  12.180
28821W        W95230  36.422  16.631  14.628
28822W        W95231  31.008  36.511   1.999
28823W        W95232  29.717  20.342   1.354
28824W        W95233  35.082  38.832  12.609
28825W        W95234  26.383  32.594  11.538
28826W        W95235  34.659  12.870   4.621
28827W        W95236  40.466   4.459  13.963
28828W        W95237  40.851  39.937   2.717
28829W        W95238  34.811  29.457  11.216
28830W        W95239  36.669  29.562   4.993
28831W        W95240   4.871   7.487   2.442
28832W        W95241  11.346   6.438  10.728
28833W        W95242  23.638  27.123  11.990
28834W        W95243  31.375  43.088  10.807
28835W        W95244  30.660  21.771  12.413
28836W        W95245   8.064  26.586  11.206
28837W        W95246   1.269  15.749   2.863
28838W        W95247   7.676   5.203  11.117
28839W        W95248  23.972   2.458  11.750
28840W        W95249  33.391  32.940   1.859
28841W        W95250   4.232   4.365   4.049
28842W        W95251  29.636   1.652   1.833
28843W        W95252  42.409  30.915   3.402
28844W        W95253  27.889  43.427  11.481
28845W        W95254  43.178   0.241  13.468
28846W        W95255  33.461  30.272   1.769
28847W        W95256  36.429  13.192  14.498
28848W        W95257  36.379  22.055  13.502
28849W        W95258   5.196  39.860  12.719
28850W        W95259  29.795  27.487  14.100
28851W        W95260  27.092  35.713   3.178
28852W        W95261  29.636  14.269  14.295
28853W        W95262  25.464   5.274  12.466
28854W        W95263  27.044  34.453   4.179
28855W        W95264  44.926  19.311  14.285
28856W        W95265  29.057  35.597   3.600
28857W        W95266  21.092  23.050   4.676
28858W        W95267  31.952  39.481   2.665
28859W        W95268  38.825  41.010  14.975
28860W        W95269  13.231  17.754   2.738
28861W        W95270  16.333  41.404  14.686
28862W        W95271  20.210  41.620  12.971
28863W        W95272  25.026   2.311   2.371
28864W        W95273  15.685  19.739  11.189
28865W        W95274   9.717  44.626  10.255
28866W        W95275  38.975  27.719  14.015
28867W        W95276  17.085  22.754   4.904
28868W        W95277  31.084  43.751  12.027
28869W        W95278  10.448  19.723  12.857
28870W        W95279   1.915   2.996   4.619
28871W        W95280  11.716  23.016   3.405
28872W        W95281  30.936  13.303  11.266
28873W        W95282  16.990   4.544   3.373
28874W        W95283   4.769   1.513   4.247
28875W        W95284  14.620  34.813   4.053
28876W        W95285  44.986   3.886   1.827
28877W        W95286  31.563  23.563  14.258
28878W        W95287  37.492  14.974   2.742
28879W        W95288  13.913  44.790   3.324
28880W        W95289  19.834  34.506  11.297
28881W        W95290  30.134  27.560   4.047
28882W        W95291  33.677  22.810   0.295
28883W        W95292  22.278   2.729  11.227
28884W        W95293   9.842  12.312   3.087
28885W        W95294  10.252  36.872  11.655
28886W        W95295  27.922  15.678   1.311
28887W        W95296  13.028  23.081  11.729
28888W        W95297  10.783  27.902  14.919
28889W        W95298  30.018  13.793   0.905
28890W        W95299  32.366  19.051  11.707
28891W        W95300  19.105  36.661   0.911
28892W        W95301  11.231  36.532   4.326
28893W        W95302   7.219   4.371   3.909
28894W        W95303  31.869  31.690   3.192
28895W        W95304  34.600  23.073   0.494
28896W        W95305  15.118  19.641   0.951
28897W        W95306  25.947  38.832   4.945
28898W        W95307  19.187   9.156   3.492
28899W        W95308  33.038   3.743  12.514
28900W        W95309  17.585  32.408  14.857
28901W        W95310  42.540  43.945   4.077
28902W        W95311  13.269   2.290  12.530
28903W        W95312  16.715   2.242   3.978
28904W        W95313  10.695  27.614   3.683
28905W        W95314  26.015   0.370  12.001
28906W        W95315   9.492  30.624  10.743
28907W        W95316  27.328  37.153   1.475
28908W        W95317  44.056  16.071   3.079
28909W        W95318  41.572  32.064  13.928
28910W        W95319   8.768   1.412   1.644
28911W        W95320  25.283  39.616  11.424
28912W        W95321  24.866  28.464   4.673
28913W        W95322  26.232  20.456  12.184
28914W        W95323  23.256  19.287   3.687
28915W        W95324  33.330  22.465   2.213
28916W        W95325   8.375   7.409   1.837
28917W        W95326  11.787  35.476   4.293
28918W        W95327   1.504  27.549  14.920
28919W        W95328  37.751  16.053  12.547
28920W        W95329  12.762  40.779  13.077
28921W        W95330  25.002   7.167   0.760
28922W        W95331  31.373  26.732   0.279
28923W        W95332   3.809  36.910   2.312
28924W        W95333  43.748  13.298   2.942
28925W        W95334  20.740  40.832   3.293
28926W        W95335  20.814  39.826   4.776
28927W        W95336  14.576   9.283   1.839
28928W        W95337   7.825   0.266   3.288
28929W        W95338  14.879   8.048   3.211
28930W        W95339  31.403  42.842   0.493
28931W        W95340  41.868  10.356  11.598
28932W        W95341  12.462  32.266  13.418
28933W        W95342  23.492  21.166   2.198
28934W        W95343  25.289   3.468  14.118
28935W        W95344  16.047  39.626   1.639
28936W        W95345  24.037  16.608  10.766
28937W        W95346  43.004  33.478  14.115
28938W        W95347  42.488  32.086   3.384
28939W        W95348  15.167  33.791   2.596
28940W        W95349  44.357  19.980   4.746
28941W        W95350  24.921   0.296   3.715
28942W        W95351  44.456  40.887   0.731
28943W        W95352  33.492   8.893  12.353
28944W        W95353  24.929  11.108   1.288
28945W        W95354  13.088  15.043  14.469
28946W        W95355  16.987   4.027  10.475
28947W        W95356  17.538   4.216   0.423
28948W        W95357  38.930  33.987   1.239
28949W        W95358   3.444  44.149   1.292
28950W        W95359  25.941  17.993   0.448
28951W        W95360   1.403   2.884   0.737
28952W        W95361  37.406  28.977  11.203
28953W        W95362   7.884   0.990   1.857
28954W        W95363  43.695  21.665  11.140
28955W        W95364   4.810  10.346  13.918
28956W        W95365  30.154   9.671   5.584
28957W        W95366  22.262  25.610   3.666
28958W        W95367  36.384  35.072  11.158
28959W        W95368  29.441  30.126   0.335
28960W        W95369  42.243  27.074   3.219
28961W        W95370  41.927  28.922   2.655
28962W        W95371   6.296   3.643  10.549
28963W        W95372  37.791  34.252   2.245
28964W        W95373  33.148  17.257  10.642
28965W        W95374  42.968  36.562  13.095
28966W        W95375   2.538  25.782  11.651
28967W        W95376  30.678  32.522   2.292
28968W        W95377  25.619  10.050   0.901
28969W        W95378  36.966   2.263  11.043
28970W        W95379  15.610  33.510  10.570
28971W        W95380  24.052  40.792   1.334
28972W        W95381  35.917  33.826   4.584
28973W        W95382   4.827  42.600   9.919
28974W        W95383  13.281   2.450   1.925
28975W        W95384  30.098  16.310   1.988
28976W        W95385  35.165  19.478  11.822
28977W        W95386  37.197  16.873  10.293
28978W        W95387   4.230  13.504  14.055
28979W        W95388  10.717   5.599  14.084
28980W        W95389  30.096  16.801  11.139
28981W        W95390  10.146  16.371  11.134
28982W        W95391  32.940  29.030   0.728
28983W        W95392  36.896  35.892  13.271
28984W        W95393  16.075  29.720   4.569
28985W        W95394   1.669  16.113  13.880
28986W        W95395  38.937  30.721  13.279
28987W        W95396  22.535  26.551   4.017
28988W        W95397  38.422  26.926  12.040
28989W        W95398  33.698  38.975   1.031
28990W        W95399  26.663  11.341  11.092
28991W        W95400  35.498  44.825  11.101
28992W        W95401  28.154  31.619  12.919
28993W        W95402  33.586  37.045   0.011
28994W        W95403  17.284  24.105   2.172
28995W        W95404  27.506  15.591   1.625
28996W        W95405  14.373  41.873  11.990
28997W        W95406  13.406  41.465  10.745
28998W        W95407  33.539  18.517  13.457
28999W        W95408  21.056  42.266  11.999
29000W        W95409  17.573  42.965  13.524
29001W        W95410  18.857  31.888  10.677
29002W        W95411  32.878  12.721   1.181
29003W        W95412  42.863  40.528   0.291
29004W        W95413  36.827  39.223   3.754
29005W        W95414  32.472  25.169  12.056
29006W        W95415  28.529  35.435  10.748
29007W        W95416  37.857  20.607   2.705
29008W        W95417   8.631  10.149  11.708
29009W        W95418  30.678  40.555   2.318
29010W        W95419  25.550  17.414  11.939
29011W        W95420  38.377  29.348  13.515
29012W        W95421  15.947  39.825  14.380
29013W        W95422  41.939  36.820  11.640
29014W        W95423  37.140  31.189   0.347
29015W        W95424  34.431  38.058  12.285
29016W        W95425  15.553  31.254  14.737
29017W        W95426  41.752  44.268   1.839
29018W        W95427  33.062   0.617   4.337
29019W        W95428  35.895  40.749   4.574
29020W        W95429   0.709  31.165  12.076
29021W        W95430  28.021  26.421  11.523
29022W        W95431  10.984  14.198  11.464
29023W        W95432  16.780   8.692  10.696
29024W        W95433  23.382  34.031   4.602
29025W        W95434  31.866  40.470   0.286
29026W        W95435  35.262  23.469   0.421
29027W        W95436  10.683  41.846  13.645
29028W        W95437  37.524  31.989  14.470
29029W        W95438  26.651  21.158   1.829
29030W        W95439  31.767  12.700  13.411
29031W        W95440   3.916   1.753  14.450
29032W        W95441  40.969  13.379   1.850
29033W        W95442  33.000  37.633  12.510
29034W        W95443  23.242  12.574   3.555
29035W        W95444  42.981  44.763   0.470
29036W        W95445  36.163   5.482   3.636
29037W        W95446  34.483  14.861  14.402
29038W        W95447  40.346  38.897   1.132
29039W        W95448   6.241  12.684   1.784
29040W        W95449   0.380  24.753  12.823
29041W        W95450   8.714  29.173  12.467
29042W        W95451   7.718  31.672   0.423
29043W        W95452  31.603  44.579   0.792
29044W        W95453  41.968   3.890   3.542
29045W        W95454  34.017  36.818   2.426
29046W        W95455  33.046  40.328   4.269
29047W        W95456  30.646  44.820  13.328
29048W        W95457  31.174  13.858   1.727
29049W        W95458   1.356  25.043   2.185
29050W        W95459  24.271  30.813  12.047
29051W        W95460  12.901  35.477  13.214
29052W        W95461   3.921  33.979  10.924
29053W        W95462  40.537  24.031   1.331
29054W        W95463  43.866   6.837  14.079
29055W        W95464  35.986  15.858  14.489
29056W        W95465  36.589  40.581  12.209
29057W        W95466  43.478  35.534  14.779
29058W        W95467   4.780  10.256   1.633
29059W        W95468  42.472  15.760   3.241
29060W        W95469  38.973  19.678  12.418
29061W        W95470  44.230   0.999  12.986
29062W        W95471   8.576  40.537  14.060
29063W        W95472  40.720   4.860   4.050
29064W        W95473  33.997  42.467   1.935
29065W        W95474   0.383  15.240   1.251
29066W        W95475   5.901  35.569   1.371
29067W        W95476  26.266  26.926  13.284
29068W        W95477  24.216  35.029   3.289
29069W        W95478  31.237  35.803   4.460
29070W        W95479  23.485  24.521   2.219
29071W        W95480  24.045  15.839  13.900
29072W        W95481  16.027  29.637   1.923
29073W        W95482  33.540   1.801   0.729
29074W        W95483   9.925  39.521  11.811
29075W        W95484  41.867   2.994  12.477
29076W        W95485  44.336  39.498   0.843
29077W        W95486   1.013  39.939  14.824
29078W        W95487  39.653  33.870   0.549
29079W        W95488  18.275  27.218   3.839
29080W        W95489  42.229  20.661  10.481
29081W        W95490  42.802   6.298   3.716
29082W        W95491  23.395   4.230  13.567
29083W        W95492  40.046  31.054   2.779
29084W        W95493   5.954  24.538  12.081
29085W        W95494  22.240   4.121  11.452
29086W        W95495  44.721  21.069  14.871
29087W        W95496  40.579  35.024  13.786
29088W        W95497  41.431   9.514   2.421
29089W        W95498  10.693  17.580  12.582
29090W        W95499  29.573  42.708   0.979
29091W        W95500  12.239  31.585   1.286
29092W        W95501  25.142  14.102  12.039
29093W        W95502   2.667   1.929   3.285
29094W        W95503  42.963  32.593   2.330
29095W        W95504  28.608  23.195  12.218
29096W        W95505  31.456  19.106   3.675
29097W        W95506   7.286   2.961  12.010
29098W        W95507  29.112   8.256  12.797
29099W        W95508   1.284  21.518  11.316
29100W        W95509  40.490  40.865   3.872
29101W        W95510  28.822   9.946  11.556
29102W        W95511  25.797  22.758   0.313
29103W        W95512  37.846  23.785  14.814
29104W        W95513  42.727  27.225   2.354
29105W        W95514  20.638   5.063  12.536
29106W        W95515  32.628   6.235   0.829
29107W        W95516  17.557  14.289  12.502
29108W        W95517  41.324  18.853  12.108
29109W        W95518  37.971  30.181   4.115
29110W        W95519   4.447   8.303  11.432
29111W        W95520  28.113  38.925   1.810
29112W        W95521  32.966  38.458  13.351
29113W        W95522  35.933   4.000   0.255
29114W        W95523  31.354  27.230   0.428
29115W        W95524  40.221  35.467   0.513
29116W        W95525  24.947  25.059  12.864
29117W        W95526  19.407  24.932   4.184
29118W        W95527  36.635   8.202  14.818
29119W        W95528   7.989  38.012  13.437
29120W        W95529   5.396  30.626   4.256
29121W        W95530  44.271  23.534   3.659
29122W        W95531  19.991  29.505   1.713
29123W        W95532   4.147  29.817   3.626
29124W        W95533  21.936   7.855  12.773
29125W        W95534  13.317  33.746  11.625
29126W        W95535  41.416  22.343  14.387
29127W        W95536  38.077  15.488   0.989
29128W        W95537  36.321  13.344  13.492
29129W        W95538  19.428  36.364   4.731
29130W        W95539   7.364  14.907   0.292
29131W        W95540  34.125  30.403  12.983
29132W        W95541  30.912  41.415  13.780
29133W        W95542  14.400  12.317   4.865
29134W        W95543  34.097  34.739   0.956
29135W        W95544  36.044  40.948   2.708
29136W        W95545  35.299  36.465   0.672
29137W        W95546  34.903  27.008  12.595
29138W        W95547  19.276  31.145  11.413
29139W        W95548  34.062   0.180   1.242
29140W        W95549  28.365  35.587   4.744
29141W        W95550   7.386  27.736  14.482
29142W        W95551  29.397  22.593   4.026
29143W        W95552  31.019  10.351  13.004
29144W        W95553  33.939  27.744  12.861
29145W        W95554   3.933  23.043   4.206
29146W        W95555  24.681  41.572  12.056
29147W        W95556  28.270  21.698  10.402
29148W        W95557  38.887  43.256  14.716
29149W        W95558  14.172  11.326  14.936
29150W        W95559  17.835   5.089  13.940
29151W        W95560  32.398  17.401  11.107
29152W        W95561  34.174   5.111   4.589
29153W        W95562   8.261   3.917  14.296
29154W        W95563   5.591  39.665  13.823
29155W        W95564  21.610  20.891   4.662
29156W        W95565  38.501   0.029  11.105
29157W        W95566  39.527  43.393   4.375
29158W        W95567  28.150   1.891  13.854
29159W        W95568  24.667   1.902  13.795
29160W        W95569   3.135  43.272  14.093
29161W        W95570  42.855   0.496  12.156
29162W        W95571  24.713  34.529   4.610
29163W        W95572  14.866   7.476  14.938
29164W        W95573  28.917  15.939  12.345
29165W        W95574  16.160  44.980   2.879
29166W        W95575  30.996  26.454   3.674
29167W        W95576   2.716  33.133  14.739
29168W        W95577  43.476  24.166   0.460
29169W        W95578   6.697   9.193  14.014
29170W        W95579  43.264  34.995   0.725
29171W        W95580  18.582  38.132   0.832
29172W        W95581  17.701  40.350  10.595
29173W        W95582  44.165   2.000  10.108
29174W        W95583  41.841  29.363  13.375
29175W        W95584  23.910   8.239   5.045
29176W        W95585   6.833  35.050  14.280
29177W        W95586   8.118  18.893  14.939
29178W        W95587  33.310  13.079  11.258
29179W        W95588  38.284  33.450   0.115
29180W        W95589  38.926  37.889  11.087
29181W        W95590  36.506  18.766   0.375
29182W        W95591  13.281  35.126  13.403
29183W        W95592  41.771  18.000  13.872
29184W        W95593  24.609   5.684  11.474
29185W        W95594  44.211  43.900  12.704
29186W        W95595   7.389  39.016  12.908
29187W        W95596   2.111  25.503  11.615
29188W        W95597  40.541  27.877   4.187
29189W        W95598  11.741   6.402  11.697
29190W        W95599  30.614  11.389  12.685
29191W        W95600  30.999  42.494  10.518
29192W        W95601  16.833   2.442   5.003
29193W        W95602  26.998  41.336   4.572
29194W        W95603   9.665  11.726  14.189
29195W        W95604   4.840  32.718   3.730
29196W        W95605  31.030  20.168  12.997
29197W        W95606  23.238  31.162  11.575
29198W        W95607  43.962  38.450   1.702
29199W        W95608  32.151  30.176  12.979
29200W        W95609  20.396   6.242  13.804
29201W        W95610  30.191  19.118   3.167
29202W        W95611  24.805  13.213  11.989
29203W        W95612  29.699   5.767  13.920
29204W        W95613  13.360  32.431  14.423
29205W        W95614  10.685  25.605  11.904
29206W        W95615  36.282  12.881   3.682
29207W        W95616  37.968  30.713   4.076
29208W        W95617  43.577  17.600   0.434
29209W        W95618  26.180  27.186  11.109
29210W        W95619   2.271  42.359   1.625
29211W        W95620  38.973   0.786  11.185
29212W        W95621   6.186   8.779  14.860
29213W        W95622  14.646  36.524  11.057
29214W        W95623  27.153  26.950  13.484
29215W        W95624  15.224   6.213  10.597
29216W        W95625  36.613   7.760   1.613
29217W        W95626   9.652  34.565  13.526
29218W        W95627  30.768  30.013   0.815
29219W        W95628  38.899  15.071   0.035
29220W        W95629   2.856  12.848  14.056
29221W        W95630  28.241  40.719   3.241
29222W        W95631  32.534  43.361  12.936
29223W        W95632  40.254   0.943   4.154
29224W        W95633  44.966  21.817   4.569
29225W        W95634   1.023  15.708   1.416
29226W        W95635  16.528   9.153  13.364
29227W        W95636  28.485  10.537  13.565
29228W        W95637  34.381   3.567   1.219
29229W        W95638  26.574  28.427   1.754
29230W        W95639  10.191  16.136   1.254
29231W        W95640  19.031  31.297   4.422
29232W        W95641  13.127  41.955  10.632
29233W        W95642  33.897  34.744   0.012
29234W        W95643   6.873  19.609   2.552
29235W        W95644   6.451   9.430  11.124
29236W        W95645  25.237  25.314  10.189
29237W        W95646  14.527  36.275   5.049
29238W        W95647  25.123  32.320  13.912
29239W        W95648  36.460  26.474  11.235
29240W        W95649   8.778  30.897  10.413
29241W        W95650  36.412  36.617   4.048
29242W        W95651  29.301  12.811   1.163
29243W        W95652   4.364  19.770  13.926
29244W        W95653   8.913  14.703  14.604
29245W        W95654   6.661   7.134   3.200
29246W        W95655  11.447  11.219  11.111
29247W        W95656  18.307  13.201   3.078
29248W        W95657  21.228  25.614   2.678
29249W        W95658  41.376  41.897  13.942
29250W        W95659  37.864   5.753  14.066
29251W        W95660  44.834   9.904  11.639
29252W        W95661  22.704  12.080   2.697
29253W        W95662  21.445  13.225  14.516
29254W        W95663  23.807  14.736   1.628
29255W        W95664   2.169  27.609   2.927
29256W        W95665  15.332  34.429  12.419
29257W        W95666  18.689  36.811  10.406
29258W        W95667  11.076   4.379   3.263
29259W        W95668  35.420  34.751  12.840
29260W        W95669  40.967   6.709   1.140
29261W        W95670  31.121  32.414  14.997
29262W        W95671  44.293  26.700   2.797
29263W        W95672   4.263   4.048  13.432
29264W        W95673   8.889  35.556   3.745
29265W        W95674  28.782  34.613   1.317
29266W        W95675  38.909  24.185   3.605
29267W        W95676  42.112  38.919   1.732
29268W        W95677  31.790  33.896  11.921
29269W        W95678  29.461   9.046   5.120
29270W        W95679  20.786  25.337   2.865
29271W        W95680  36.426  31.991   0.036
29272W        W95681   5.432  29.491   1.799
29273W        W95682  27.979  13.279  13.896
29274W        W95683  10.276  14.577  12.929
29275W        W95684  24.373  15.746   5.101
29276W        W95685  43.664  10.219   4.895
29277W        W95686  36.344  12.306   0.864
29278W        W95687  14.298  15.682   0.019
29279W        W95688   6.428  25.885  14.979
29280W        W95689  11.182   8.115  11.495
29281W        W95690  17.016  30.905  14.428
29282W        W95691   3.552  23.658   2.202
29283W        W95692  36.135  17.691  10.624
29284W        W95693  34.912  11.791   3.208
29285W        W95694  23.833  22.009  13.033
29286W        W95695  33.245  26.956   4.783
29287W        W95696   8.638  14.123  11.591
29288W        W95697  15.653  18.526  14.496
29289W        W95698  35.932  39.575   3.133
29290W        W95699   9.356   8.271  12.868
29291W        W95700   5.878  41.183   1.252
29292W        W95701   1.023   0.098  11.916
29293W        W95702  20.693  38.888   0.894
29294W        W95703  37.472   1.568  11.252
29295W        W95704  41.912  39.331  14.194
29296W        W95705  38.490  21.650  12.399
29297W        W95706  42.400   8.364  14.228
29298W        W95707  35.674  29.317  10.643
29299W        W95708  44.413  36.993   4.165
29300W        W95709  27.408   6.253   2.800
29301W        W95710  11.157  20.696  14.907
29302W        W95711  42.936  29.419  11.656
29303W        W95712  27.247   7.832  11.755
29304W        W95713  23.560   7.820  13.507
29305W        W95714   0.935  27.261   3.802
29306W        W95715  19.320   6.723  11.341
29307W        W95716  20.681  21.622  11.505
29308W        W95717  30.516  40.560   0.233
29309W        W95718  11.631  44.890  12.979
29310W        W95719  40.251  25.084  11.613
29311W        W95720  37.454  34.977  12.523
29312W        W95721  32.439  41.036   0.956
29313W        W95722  12.483  28.558   2.904
29314W        W95723  39.316  32.569  13.872
29315W        W95724  38.445  10.519   4.918
29316W        W95725  16.009  13.124  14.309
29317W        W95726  20.463  16.504   4.136
29318W        W95727  14.668   0.927  10.624
29319W        W95728  31.977  11.881   4.588
29320W        W95729  28.081  13.580  11.471
29321W        W95730  35.564  25.212   2.223
29322W        W95731  10.800   6.370  11.038
29323W        W95732  24.191  33.561   2.129
29324W        W95733   6.893   7.677   0.443
29325W        W95734   4.904  38.477   0.659
29326W        W95735  34.503   6.120   3.532
29327W        W95736  31.134  23.600  14.569
29328W        W95737  18.515  25.401   0.740
29329W        W95738  15.213  32.936  13.587
29330W        W95739  19.540   0.533   4.449
29331W        W95740  15.710   3.110   1.741
29332W        W95741  26.204  11.169  11.823
29333W        W95742  15.700  13.358   4.221
29334W        W95743   5.238   8.663  13.949
29335W        W95744   3.948  22.057   1.244
29336W        W95745   6.614   1.924   1.301
29337W        W95746   3.725  16.669  11.499
29338W        W95747   7.395   9.791   0.628
29339W        W95748  31.175  30.725  12.090
29340W        W95749  41.895  12.354  14.889
29341W        W95750  40.470  14.549   1.267
29342W        W95751  19.222  44.536   4.674
29343W        W95752  21.203   0.921   0.781
29344W        W95753  15.765  26.892   4.492
29345W        W95754  42.277  18.834  12.929
29346W        W95755  27.572  41.250  13.879
29347W        W95756  10.213  28.336  12.568
29348W        W95757   8.836   0.855  12.400
29349W        W95758  20.480  19.312  13.842
29350W        W95759  34.895  43.536  12.061
29351W        W95760  17.497   6.227  12.281
29352W        W95761  23.798  18.845   2.781
29353W        W95762   7.648   5.049  10.333
29354W        W95763  22.263   0.257   3.128
29355W        W95764  41.065  30.533   3.213
29356W        W95765  40.464  33.037   0.440
29357W        W95766   1.300  24.040   2.657
29358W        W95767  34.443  37.029   5.103
29359W        W95768   2.105  10.955   4.500
29360W        W95769  16.830  32.435   1.886
29361W        W95770  32.001  40.707   1.877
29362W        W95771  36.225  30.950  13.554
29363W        W95772  18.269  11.810  13.298
29364W        W95773  17.253   0.209  14.213
29365W        W95774   7.434  36.425   3.798
29366W        W95775  11.650  41.332  12.174
29367W        W95776  43.542   7.742  12.030
29368W        W95777   3.188   8.372  13.559
29369W        W95778  36.106  25.200   4.867
29370W        W95779  12.108  10.645   0.764
29371W        W95780  44.725   5.195   4.151
29372W        W95781   0.996  32.564   1.507
29373W        W95782  41.925  21.280   0.212
29374W        W95783  25.330  10.155   1.925
29375W        W95784  27.937  43.356   4.672
29376W        W95785  25.980  32.996   3.805
29377W        W95786  13.218  36.941   5.131
29378W        W95787  24.483  21.791  14.454
29379W        W95788  29.586  10.823   4.321
29380W        W95789  24.441  35.902  13.265
29381W        W95790   2.779  30.641  14.938
29382W        W95791   1.297   4.750   2.225
29383W        W95792  22.453  15.230  14.796
29384W        W95793  17.081  11.499  10.551
29385W        W95794  20.507   4.713   3.140
29386W        W95795   6.130  30.702   3.146
29387W        W95796  30.775   9.799   3.169
29388W        W95797  20.603  31.807   4.174
29389W        W95798  44.224  27.073  11.344
29390W        W95799  21.549  23.017  13.070
29391W        W95800  33.293   2.711  14.782
29392W        W95801  34.572  36.980   1.181
29393W        W95802  43.929  19.820  13.080
29394W        W95803   6.428   5.202  10.506
29395W        W95804   1.566  26.945  12.420
29396W        W95805  24.220  17.740   1.914
29397W        W95806  33.546   7.742   4.116
29398W        W95807   8.366  42.223  11.132
29399W        W95808  42.936  33.824  12.885
29400W        W95809  43.514  12.908   2.005
29401W        W95810  25.515  25.706   2.796
29402W        W95811  13.798   9.140  12.381
29403W        W95812  25.034  28.776   0.374
29404W        W95813  31.683  31.528   0.040
29405W        W95814   2.883   3.292   1.550
29406W        W95815   2.353  23.221  10.889
29407W        W95816  28.215  27.137  12.519
29408W        W95817  18.675  32.103  12.090
29409W        W95818  31.650  20.476  13.403
29410W        W95819  11.318  10.641  12.899
29411W        W95820  28.985  24.904   2.268
29412W        W95821   0.996  19.572  12.092
29413W        W95822  41.286  27.429   1.670
29414W        W95823  28.427  25.673  11.217
29415W        W95824   1.986  35.869  10.621
29416W        W95825  17.975   4.111  12.846
29417W        W95826  26.129   7.817  13.935
29418W        W95827  18.578   4.724   4.093
29419W        W95828  27.901  30.574  12.448
29420W        W95829  20.211  30.499   0.724
29421W        W95830  41.919  42.511   0.991
29422W        W95831  44.121  36.853   1.454
29423W        W95832  44.888  36.867  13.347
29424W        W95833   6.839  17.644   2.251
29425W        W95834  38.727  16.021   4.985
29426W        W95835  18.423  39.163   2.453
29427W        W95836  38.121  11.730  14.700
29428W        W95837  20.683  43.376   2.755
29429W        W95838  43.253  34.404   2.355
29430W        W95839  26.002   1.219   4.452
29431W        W95840  26.686   2.012  14.679
29432W        W95841  23.926  37.360   3.266
29433W        W95842  27.671  15.038   0.398
29434W        W95843  21.991  20.942   1.835
29435W        W95844   2.227   0.712  13.872
29436W        W95845  21.134  32.651  11.096
29437W        W95846  43.891  14.329  12.092
29438W        W95847   2.528  15.187   4.005
29439W        W95848  13.302  24.052   2.694
29440W        W95849  18.117   1.938   4.261
29441W        W95850  22.593   5.930  10.996
29442W        W95851  23.482   6.416  12.961
29443W        W95852   0.917   9.634   3.645
29444W        W95853  32.627   0.521   3.202
29445W        W95854   1.974  42.191   2.913
29446W        W95855  22.490  33.171  14.014
29447W        W95856  26.211  16.057   3.804
29448W        W95857  30.239  33.462   2.375
29449W        W95858  13.085  16.287   0.894
29450W        W95859   0.388  13.255   4.794
29451W        W95860  42.884   6.782  11.491
29452W        W95861  24.736  38.016   3.819
29453W        W95862   9.085  17.757   3.273
29454W        W95863  29.410  39.474  11.570
29455W        W95864  31.876  12.438  14.390
29456W        W95865  28.424  35.647   0.782
29457W        W95866  29.184  29.601  11.330
29458W        W95867  31.052  30.256   2.330
29459W        W95868  35.050  28.197  10.760
29460W        W95869   2.968  10.339   2.223
29461W        W95870  41.004  39.419   4.519
29462W        W95871   9.669  17.737   4.095
29463W        W95872  17.472   7.866  10.031
29464W        W95873  38.256  18.967  10.700
29465W        W95874  43.968  43.012   3.890
29466W        W95875   2.721   7.787  11.721
29467W        W95876  23.053  10.522  12.122
29468W        W95877  30.669   5.828  11.186
29469W        W95878  21.315   8.197   0.842
29470W        W95879  16.576  43.848   0.903
29471W        W95880  12.114  40.919  10.634
29472W        W95881  21.466  10.947  10.725
29473W        W95882  28.309  37.828   3.491
29474W        W95883  20.113  35.690  12.508
29475W        W95884  11.402  30.069  12.304
29476W        W95885  37.407  35.540  11.949
29477W        W95886   8.758  14.423   2.789
29478W        W95887  38.440  30.258  11.860
29479W        W95888  39.469  29.238  13.259
29480W        W95889  36.022  36.051   0.399
29481W        W95890  24.998  41.732  13.910
29482W        W95891  40.029  12.919  14.618
29483W        W95892  43.402   3.804  14.427
29484W        W95893  42.826  18.362   3.905
29485W        W95894  10.456  33.180  12.940
29486W        W95895   5.472   7.225  13.728
29487W        W95896  22.194  42.380   4.012
29488W        W95897  10.247  18.638   3.696
29489W        W95898  29.083  36.022   4.489
29490W        W95899   8.449  19.699   0.937
29491W        W95900   6.279   8.368  11.427
29492W        W95901  19.237  33.533   2.252
29493W        W95902   2.317  35.383   1.275
29494W        W95903  23.156   2.238  10.598
29495W        W95904   0.940  42.194   3.586
29496W        W95905   6.500  21.687   1.351
29497W        W95906  32.401  15.925  13.302
29498W        W95907  32.046  17.970   1.294
29499W        W95908   1.564   8.813   2.423
29500W        W95909   6.571  37.336  13.852
29501W        W95910   5.084  41.936  13.067
29502W        W95911  43.202  12.670   3.174
29503W        W95912  19.091   6.285   2.952
29504W        W95913  39.381  29.153  13.757
29505W        W95914  12.324  43.049  12.212
29506W        W95915  44.614   5.333  14.423
29507W        W95916   3.928  44.010  13.904
29508W        W95917  14.687  44.661  13.452
29509W        W95918  15.502  41.811   1.005
29510W        W95919   6.585  10.631   0.728
29511W        W95920   0.462  12.633   0.416
29512W        W95921  14.096  31.870   2.693
29513W        W95922   9.432   7.705   3.249
29514W        W95923  12.751   0.823  12.922
29515W        W95924   5.292  12.292   2.795
29516W        W95925  14.170  25.642   1.214
29517W        W95926   6.674  20.439   0.936
29518W        W95927  13.859  39.907  13.564
29519W        W95928  26.630  12.475  13.228
29520W        W95929  44.854  23.606  12.929
29521W        W95930   8.484   6.669  14.615
29522W        W95931  38.289  38.358   3.611
29523W        W95932  12.351   7.824  11.963
29524W        W95933  42.879   4.759   0.353
29525W        W95934  34.423  12.744   0.806
29526W        W95935  44.398  28.609  13.842
29527W        W95936  17.578   7.251   0.757
29528W        W95937  33.118  21.047   0.347
29529W        W95938   6.959  17.757   4.109
29530W        W95939   3.279  35.086  10.739
29531W        W95940  17.185  23.355   1.123
29532W        W95941  11.446  20.251   2.904
29533W        W95942  39.048  11.986   4.532
29534W        W95943  39.286  23.581   2.348
29535W        W95944  10.250  15.103   2.435
29536W        W95945  16.699  23.395  14.951
29537W        W95946  34.056   3.494  14.198
29538W        W95947  16.051  38.526   0.124
29539W        W95948  22.044  11.132   4.591
29540W        W95949  38.899  30.401   2.943
29541W        W95950  14.683  36.241   4.553
29542W        W95951  24.987  10.132  13.324
29543W        W95952  11.221   4.563   1.906
29544W        W95953  23.001  13.640   2.259
29545W        W95954  28.914  23.785   3.260
29546W        W95955  44.869  36.497   2.758
29547W        W95956  41.236  34.896  11.557
29548W        W95957  26.360  26.965   1.897
29549W        W95958  15.576  32.352  14.903
29550W        W95959  19.597   6.113   4.420
29551W        W95960  11.984  37.153  14.510
29552W        W95961  30.882   2.118  10.754
29553W        W95962  15.701  10.118   1.884
29554W        W95963  16.646  12.047   2.432
29555W        W95964  14.589  36.920  11.375
29556W        W95965  31.625  38.918  11.566
29557W        W95966  26.478   6.632  11.617
29558W        W95967  27.701   6.754  14.478
29559W        W95968  43.988  29.935  14.867
29560W        W95969   0.757  27.079   2.089
29561W        W95970  40.316  15.277  12.318
29562W        W95971  27.859   6.548   4.962
29563W        W95972  11.764  33.737  12.142
29564W        W95973  15.017  12.151  14.543
29565W        W95974  13.836   1.319   0.920
29566W        W95975  17.076  40.885  12.461
29567W        W95976  21.830  32.416  11.249
29568W        W95977  11.188   5.057  10.859
29569W        W95978  31.479  39.747   2.839
29570W        W95979  41.461   8.469   1.287
29571W        W95980   6.320  24.037  11.088
29572W        W95981  29.746  43.307  11.941
29573W        W95982  17.962   8.454   0.630
29574W        W95983  32.909  14.705  13.488
29575W        W95984  17.661   7.399  13.414
29576W        W95985  20.650  14.160   2.648
29577W        W95986  13.987  35.520  10.406
29578W        W95987  24.980  23.099   3.704
29579W        W95988   2.907  20.027  11.000
29580W        W95989  44.684  29.231  11.009
29581W        W95990  27.484  22.625  13.291
29582W        W95991  17.748  19.711   3.861
29583W        W95992  42.983  34.929   0.310
29584W        W95993  44.298  36.588  13.435
29585W        W95994  18.247  24.856  10.350
29586W        W95995  27.588   9.943  12.868
29587W        W95996  35.475  17.387   1.161
29588W        W95997   2.117  41.552  14.954
29589W        W95998  43.946  38.341  11.370
29590W        W95999  17.279  25.105  11.670
29591W        W96000   3.423  21.830  14.993
29592W        W96001   3.140  17.496   2.214
29593W        W96002  14.640  17.842  12.490
29594W        W96003  42.394   6.122  12.543
29595W        W96004  41.713  39.942  12.408
29596W        W96005  26.703  35.512   3.483
29597W        W96006  18.089  27.181   0.458
29598W        W96007  31.503  36.076  11.062
29599W        W96008  43.706   1.358   0.311
29600W        W96009  36.662  44.673  13.815
29601W        W96010  11.724  40.246   1.872
29602W        W96011   6.150  10.187  11.523
29603W        W96012  18.136  33.792  11.624
29604W        W96013  40.468  29.896   3.134
29605W        W96014  11.795  30.393  13.947
29606W        W96015  34.629  26.567  13.331
29607W        W96016  20.044  20.424  14.157
29608W        W96017  21.635   1.162  12.916
29609W        W96018  11.877  29.690  13.311
29610W        W96019   6.763  25.470   0.681
29611W        W96020  41.913   7.087  10.695
29612W        W96021  21.808  10.825  12.468
29613W        W96022  18.868  44.566   2.328
29614W        W96023  43.635  13.678  10.783
29615W        W96024  43.907  28.377  13.785
29616W        W96025   1.181  20.043  13.473
29617W        W96026  18.585   9.889  10.837
29618W        W96027  37.144  15.751   3.768
29619W        W96028  15.153   2.924   2.561
29620W        W96029  19.766  40.932   3.380
29621W        W96030  11.381  31.972   1.672
29622W        W96031   9.254  14.856  13.069
29623W        W96032  31.633  15.412  10.856
29624W        W96033  23.699  37.629   2.656
29625W        W96034  15.056  35.589   4.553
29626W        W96035   3.442   7.765   4.824
29627W        W96036  21.557   2.918  14.456
29628W        W96037  44.379   5.978  12.950
29629W        W96038   2.246  37.587  14.422
29630W        W96039  13.003  35.115  11.630
29631W        W96040  23.947  23.589  11.070
29632W        W96041  42.046  19.143  11.851
29633W        W96042  12.011  27.219   0.136
29634W        W96043   8.615  10.705   3.690
29635W        W96044  36.761   5.384   1.832
29636W        W96045  31.088  30.443  11.680
29637W        W96046  21.371   0.077   1.685
29638W        W96047  41.851  32.558  10.783
29639W        W96048  42.722   6.820   2.285
29640W        W96049  15.528   9.284   0.342
29641W        W96050  20.540  35.147  14.890
29642W        W96051   9.305   2.458  10.757
29643W        W96052  39.095  18.107   4.776
29644W        W96053  30.921  42.386   2.253
29645W        W96054   5.340   2.697  13.437
29646W        W96055   6.882  27.099   1.779
29647W        W96056  34.914   9.447   3.689
29648W        W96057  21.323  25.316  13.044
29649W        W96058  30.809  35.983  12.643
29650W        W96059  11.397  37.378   2.974
29651W        W96060  38.073  28.407  12.283
29652W        W96061  34.526   1.890   0.772
29653W        W96062  19.495  22.951   0.294
29654W        W96063  12.826   8.785   2.747
29655W        W96064  44.275  38.781  13.567
29656W        W96065  16.855  23.210   2.132
29657W        W96066  14.456   2.178   1.264
29658W        W96067  11.820   3.428   0.368
29659W        W96068  30.063  30.974  11.588
29660W        W96069  12.070  16.246  11.495
29661W        W96070  30.424  41.229   1.232
29662W        W96071   9.827  37.003   4.004
29663W        W96072  34.320  29.740   1.875
29664W        W96073   8.744  11.076  12.822
29665W        W96074   9.622  33.536   3.056
29666W        W96075   3.387  22.505   4.487
29667W        W96076  27.602  20.483  12.989
29668W        W96077  10.020  35.522  14.706
29669W        W96078  31.794  15.619  14.499
29670W        W96079  42.554  41.834  13.975
29671W        W96080   2.756  24.582   0.037
29672W        W96081  16.705  25.064   1.447
29673W        W96082   4.009  29.159   3.793
29674W        W96083  42.452  36.193   0.498
29675W        W96084  37.449  34.863  14.502
29676W        W96085  31.827  16.282   3.446
29677W        W96086  21.733  30.757   1.094
29678W        W96087  34.894  37.523   4.096
29679W        W96088  18.902  37.348   2.771
29680W        W96089  15.550  15.921  13.081
29681W        W96090  12.981  39.596   2.821
29682W        W96091  10.670  29.576  14.545
29683W        W96092   3.868   6.455   0.781
29684W        W96093   8.694  12.226   0.698
29685W        W96094  12.034  20.767  14.215
29686W        W96095  17.135  38.617   0.468
29687W        W96096  35.947   9.640   2.226
29688W        W96097  16.718   2.725  10.846
29689W        W96098  34.410   0.661   4.503
29690W        W96099  25.244  39.892   1.167
29691W        W96100   1.473  17.359   1.251
29692W        W96101   7.187  12.351   4.106
29693W        W96102   7.860  27.717   0.104
29694W        W96103  11.055   8.753  10.732
29695W        W96104  33.574  24.811   1.726
29696W        W96105  28.107  10.283   5.381
29697W        W96106  40.985  18.930   2.108
29698W        W96107   1.845   6.213   3.149
29699W        W96108  32.970   8.943   2.747
29700W        W96109  44.543  37.126   2.220
29701W        W96110  15.417  19.660   5.049
29702W        W96111  19.981  18.417  11.162
29703W        W96112  28.617  38.534  11.674
29704W        W96113  25.196  10.911   3.216
29705W        W96114  39.103  40.549  13.317
29706W        W96115  40.953  22.689  12.991
29707W        W96116  22.053  15.110  14.461
29708W        W96117  14.605   1.015   0.452
29709W        W96118  13.083  14.648   2.391
29710W        W96119  42.739  39.928  14.018
29711W        W96120  13.410  17.838   0.147
29712W        W96121  34.355  30.150  12.282
29713W        W96122  10.650  15.152  10.792
29714W        W96123  10.747  14.701  12.156
29715W        W96124  36.627  40.594   1.794
29716W        W96125  28.155  43.052  11.242
29717W        W96126  32.854   4.534  11.936
29718W        W96127  44.253  13.181   1.266
29719W        W96128  25.949   7.277  13.904
29720W        W96129  20.568  15.116  10.776
29721W        W96130  42.355  38.334  12.077
29722W        W96131   8.030  13.630  13.419
29723W        W96132   2.781  16.471   2.359
29724W        W96133   4.455  10.142  13.074
29725W        W96134  34.031  42.776  12.638
29726W        W96135  34.119  31.171  13.323
29727W        W96136   1.231  41.845   0.227
29728W        W96137  12.633  30.896  11.163
29729W        W96138  31.437  39.245  10.991
29730W        W96139   6.703  12.779   2.856
29731W        W96140  25.965  18.517  13.494
29732W        W96141   3.068  44.524   1.338
29733W        W96142  21.091  27.142  11.192
29734W        W96143  15.143  24.152  12.379
29735W        W96144  30.687  27.181  11.527
29736W        W96145  34.483  23.558   3.289
29737W        W96146  36.076  16.419   4.280
29738W        W96147  33.597  20.886  13.808
29739W        W96148  18.270  38.198  13.369
29740W        W96149  17.771  23.879   3.800
29741W        W96150  20.834  43.569  11.014
29742W        W96151  40.297  14.063   4.172
29743W        W96152  14.877  12.411   3.738
29744W        W96153  40.109   6.360   2.483
29745W        W96154  24.396  29.731   4.158
29746W        W96155  41.490  25.328   0.511
29747W        W96156  32.087  44.953   3.780
29748W        W96157  16.633  29.543  13.120
29749W        W96158  43.006   8.222   4.550
29750W        W96159  29.967   8.357  11.800
29751W        W96160  30.465  42.519   0.804
29752W        W96161  26.398   5.637   0.808
29753W        W96162   8.490  31.212   1.805
29754W        W96163  40.000   5.194  11.569
29755W        W96164  16.662  12.137   2.959
29756W        W96165   4.240  25.388   4.582
29757W        W96166  19.769   8.623  11.431
29758W        W96167  41.274  39.355  12.872
29759W        W96168  37.693  42.410   1.991
29760W        W96169  12.310  27.541   1.170
29761W        W96170  13.091  39.882  13.936
29762W        W96171  18.212   0.019  13.274
29763W        W96172  22.092  41.384  10.715
29764W        W96173  16.554   8.512   2.294
29765W        W96174  32.115  20.137   0.228
29766W        W96175  21.515  12.898   1.689
29767W        W96176  35.995  26.389   0.494
29768W        W96177   5.428   2.751   1.124
29769W        W96178  19.757  34.091  13.898
29770W        W96179  27.052  30.611  11.958
29771W        W96180  13.532   1.391  10.143
29772W        W96181  22.248  40.896   3.297
29773W        W96182  37.930  21.557  12.258
29774W        W96183   6.202  19.950   2.750
29775W        W96184  43.818   6.694   3.678
29776W        W96185  41.351  32.129   1.454
29777W        W96186  38.464  27.214   3.126
29778W        W96187  13.251  32.313  12.053
29779W        W96188  11.159  31.281   4.540
29780W        W96189  12.852  38.866   1.677
29781W        W96190  32.630  23.740   3.960
29782W        W96191  31.075  14.197  11.194
29783W        W96192  35.974   3.292  12.531
29784W        W96193  32.446   7.829   3.160
29785W        W96194  43.805  20.682   4.749
29786W        W96195   8.216   2.206   1.701
29787W        W96196  36.426  30.327  13.254
29788W        W96197  18.601  18.352   1.261
29789W        W96198  28.207   9.568  13.463
29790W        W96199   1.290   3.848   2.194
29791W        W96200  18.133   4.417  11.615
29792W        W96201  21.211  29.973   2.823
29793W        W96202  26.036  34.594  12.605
29794W        W96203   0.296   7.243   5.099
29795W        W96204  17.011  34.155  14.390
29796W        W96205  11.677   5.398  11.608
29797W        W96206  36.729  26.396   3.689
29798W        W96207   5.293  21.365   0.726
29799W        W96208  42.814  38.433  11.226
29800W        W96209  17.818  37.346  13.994
29801W        W96210  25.142  29.469  12.038
29802W        W96211  12.380  39.648  14.361
29803W        W96212  33.315   6.923  12.754
29804W        W96213   7.888  34.486   2.238
29805W        W96214   5.266  26.704   0.515
29806W        W96215  39.023   6.650   2.894
29807W        W96216  27.849   3.431   0.962
29808W        W96217  22.851  34.093   4.607
29809W        W96218  37.115  39.112   4.762
29810W        W96219  22.697  25.249   3.679
29811W        W96220  36.813  17.627  11.394
29812W        W96221  23.529  37.515   5.017
29813W        W96222  31.408  10.523   3.413
29814W        W96223  37.902  16.892   0.767
29815W        W96224  28.519  38.882   0.018
29816W        W96225   0.678  18.975   3.122
29817W        W96226  44.274  14.311  11.211
29818W        W96227  19.797   3.368  12.820
29819W        W96228   5.613  37.394   3.118
29820W        W96229  19.332  22.558  13.497
29821W        W96230  43.482  19.808   2.197
29822W        W96231  40.426  11.344  13.733
29823W        W96232   1.238  24.560  11.129
29824W        W96233  12.213   1.568   3.984
29825W        W96234   6.349  17.525  10.770
29826W        W96235  14.575  29.526   2.267
29827W        W96236  19.572  14.379   0.256
29828W        W96237  21.647  16.932  10.157
29829W        W96238  19.263   1.757  12.600
29830W        W96239   1.176  14.841   1.933
29831W        W96240  22.685  11.553   2.712
29832W        W96241  18.725  38.309   2.696
29833W        W96242  22.102   6.795   2.824
29834W        W96243  20.401   5.238   0.923
29835W        W96244   1.892  33.029  10.682
29836W        W96245  33.376  16.919   1.796
29837W        W96246  11.703   7.315  12.626
29838W        W96247  41.922  39.781  14.488
29839W        W96248  15.871  44.309  11.165
29840W        W96249   0.513  25.780   2.422
29841W        W96250  30.538  30.157   0.387
29842W        W96251  22.419  40.545   1.257
29843W        W96252  37.029  37.855   0.970
29844W        W96253  41.172  39.732   3.640
29845W        W96254  13.515  40.573   3.779
29846W        W96255  39.104   6.185  10.690
29847W        W96256  13.281  20.058   3.656
29848W        W96257  25.183  24.211  11.648
29849W        W96258  18.226  38.906   9.987
29850W        W96259   8.956  39.281  10.374
29851W        W96260  11.135  23.164  13.401
29852W        W96261   5.912   9.985  11.110
29853W        W96262  33.599  44.915   1.197
29854W        W96263   2.761  26.664   4.335
29855W        W96264  38.374  36.097   2.847
29856W        W96265   1.224  30.412   2.344
29857W        W96266  30.994  38.677  13.768
29858W        W96267  15.020  19.284   0.399
29859W        W96268  25.284  34.818  14.116
29860W        W96269   9.457   7.381   3.763
29861W        W96270  22.269  44.962  12.867
29862W        W96271  27.217  25.028   2.681
29863W        W96272   5.482   1.352  10.252
29864W        W96273   6.140  21.124  13.032
29865W        W96274  21.530  28.588   1.157
29866W        W96275  21.319  31.367   5.096
29867W        W96276   6.561  44.897   4.526
29868W        W96277  42.695  34.466  14.565
29869W        W96278   6.807  13.377   4.113
29870W        W96279   1.358  13.702   3.410
29871W        W96280  36.075  24.185  11.289
29872W        W96281  42.352  29.214   2.750
29873W        W96282  38.958  44.264  10.942
29874W        W96283  37.630  26.179  14.730
29875W        W96284   0.712  21.007   1.956
29876W        W96285   4.097  18.838   3.524
29877W        W96286   9.757  31.650   0.835
29878W        W96287  27.474  20.735   0.384
29879W        W96288  24.573  32.996  13.417
29880W        W96289  32.875  39.253   3.686
29881W        W96290   3.741  30.726  14.974
29882W        W96291   9.424   4.421  11.635
29883W        W96292  13.960  29.527   0.080
29884W        W96293   9.866  35.035   0.900
29885W        W96294  34.472  24.456   3.823
29886W        W96295  28.957  24.477  13.011
29887W        W96296  36.987  31.731   1.068
29888W        W96297  21.588  44.008   4.568
29889W        W96298  22.726  11.298  11.509
29890W        W96299  11.190  19.096  12.909
29891W        W96300  24.322   4.658  11.273
29892W        W96301  36.391  38.745   3.029
29893W        W96302  43.335  11.312  14.431
29894W        W96303  35.010  39.745   1.149
29895W        W96304   6.821  15.193   0.947
29896W        W96305  41.031   3.233   1.130
29897W        W96306  34.360   7.132   1.797
29898W        W96307  26.639   0.305   3.706
29899W        W96308  34.402   6.206  12.543
29900W        W96309   6.956  34.316  12.476
29901W        W96310   5.217   3.200   3.227
29902W        W96311  12.397   1.630  12.242
29903W        W96312  17.782  43.455  11.435
29904W        W96313  28.149   2.842   3.396
29905W        W96314   6.190  23.224   3.635
29906W        W96315  27.660  35.762  12.370
29907W        W96316   9.111  29.006   0.540
29908W        W96317  16.743  40.860   2.555
29909W        W96318  24.543  34.387  11.615
29910W        W96319  34.080  39.333   1.024
29911W        W96320   1.497  24.999   3.959
29912W        W96321   6.440  22.697   1.263
29913W        W96322  33.296  17.402  11.974
29914W        W96323  24.285  40.864  13.463
29915W        W96324  28.737  14.796  13.464
29916W        W96325  29.925  18.215   0.968
29917W        W96326  16.339  20.749  14.385
29918W        W96327  21.295  19.578  12.573
29919W        W96328  31.226  30.725   2.182
29920W        W96329  43.529  18.765   4.548
29921W        W96330  44.351  44.258   3.551
29922W        W96331  39.364   7.740  11.848
29923W        W96332  38.859  19.934   4.604
29924W        W96333  27.930  28.122  14.008
29925W        W96334  34.388  29.075   0.470
29926W        W96335   8.858   3.830   1.808
29927W        W96336  15.051  14.117  11.625
29928W        W96337  36.274  38.411  13.389
29929W        W96338   8.062  16.005   4.322
29930W        W96339  43.512  36.133  11.161
29931W        W96340  44.426   3.758  10.744
29932W        W96341  29.587   4.397  14.498
29933W        W96342   1.518  21.777   3.259
29934W        W96343  11.906  16.396  13.591
29935W        W96344   0.218  26.829   1.337
29936W        W96345  39.486  36.092   4.342
29937W        W96346   9.854  22.961  11.935
29938W        W96347  15.982  29.043   4.129
29939W        W96348   6.109   7.856   2.798
29940W        W96349  21.107  35.691  12.511
29941W        W96350  15.061  13.356  13.095
29942W        W96351  24.552   5.711  11.984
29943W        W96352  23.578  11.822  13.838
29944W        W96353  35.594  38.088  11.243
29945W        W96354  44.493   5.681   1.669
29946W        W96355   8.881   6.224   1.528
29947W        W96356  26.728   5.750   4.537
29948W        W96357   8.479   4.854  14.349
29949W        W96358  35.841  17.868   2.885
29950W        W96359  26.513  19.607   2.700
29951W        W96360  29.141   0.924  11.656
29952W        W96361   0.766  24.774  14.512
29953W        W96362  24.183  32.874  11.109
29954W        W96363  33.742  31.845   2.374
29955W        W96364  38.077  29.543   0.507
29956W        W96365  39.495  42.933   4.085
29957W        W96366  32.540  21.526   3.237
29958W        W96367   4.434  30.544  10.665
29959W        W96368  17.814   7.928   1.380
29960W        W96369  16.343  15.803   3.756
29961W        W96370  43.857  25.076  14.412
29962W        W96371  21.531  27.957   1.776
29963W        W96372  32.110   6.200   0.843
29964W        W96373  34.181   5.638  14.774
29965W        W96374  11.087  10.272  13.848
29966W        W96375  21.124  23.122  14.479
29967W        W96376  30.661  37.064  14.910
29968W        W96377  34.539   4.306   4.687
29969W        W96378  27.677  37.171  11.001
29970W        W96379  33.045   3.286   2.713
29971W        W96380  42.331  36.158  14.943
29972W        W96381  21.720  40.783   1.139
29973W        W96382  29.127  39.179  13.329
29974W        W96383  29.042  32.832  14.560
29975W        W96384  36.566  13.631   4.123
29976W        W96385   7.357  30.592   1.212
29977W        W96386   1.342  14.317  13.685
29978W        W96387  28.463  36.508  11.116
29979W        W96388  11.258  30.139  11.557
29980W        W96389  22.584  25.610  14.456
29981W        W96390   1.035  37.991  13.497
29982W        W96391  10.191   3.734   1.188
29983W        W96392   3.810   0.477  10.303
29984W        W96393  12.768  20.718  12.941
29985W        W96394  29.330  17.682   4.593
29986W        W96395   8.915   9.615   3.179
29987W        W96396   8.172   6.848   3.637
29988W        W96397  22.244  34.673  11.627
29989W        W96398  12.725  38.590   2.805
29990W        W96399  34.623  21.610   4.111
29991W        W96400  24.220  18.176  11.525
29992W        W96401  13.132  12.739  12.390
29993W        W96402  39.557  27.875  14.490
29994W        W96403  14.878  18.815   0.259
29995W        W96404  33.346  26.244  11.979
29996W        W96405  10.053  11.237  10.642
29997W        W96406  38.511  40.372   1.815
29998W        W96407  25.598  36.605  10.675
29999W        W96408  13.219  22.184   1.918
30000W        W96409  15.487   2.909   3.240
30001W        W96410  17.609  23.779  13.009
30002W        W96411  44.028  21.525   2.289
30003W        W96412   4.241  12.718   3.663
30004W        W96413  11.414   5.293   0.750
30005W        W96414  10.785  23.976  10.993
30006W        W96415  37.094  31.977  14.815
30007W        W96416  42.195  28.615  13.056
30008W        W96417   5.296  22.210   0.400
30009W        W96418   4.309  26.231   2.765
30010W        W96419  19.352   5.067   0.990
30011W        W96420  40.029  30.640   3.098
30012W        W96421  25.031  10.099   0.361
30013W        W96422   6.538   9.458   3.186
30014W        W96423  14.585  14.150   2.914
30015W        W96424  17.988   0.798  11.267
30016W        W96425  24.868   3.809  14.707
30017W        W96426  40.167  44.044   4.192
30018W        W96427   4.237   3.371   2.458
30019W        W96428  13.549  28.659  14.841
30020W        W96429  17.505   7.197  12.131
30021W        W96430  24.731  12.145  10.586
30022W        W96431  17.001  18.842   1.138
30023W        W96432  29.617  25.968   0.712
30024W        W96433   2.469  22.988   0.411
30025W        W96434  28.401  44.379  12.304
30026W        W96435  39.252  22.549   4.373
30027W        W96436  14.279  10.963  12.060
30028W        W96437  28.406   8.125   0.332
30029W        W96438  22.124  21.054  12.176
30030W        W96439   2.639  16.285   2.832
30031W        W96440  39.713  21.149  12.021
30032W        W96441  31.579  28.729   0.825
30033W        W96442   0.769  37.067   2.703
30034W        W96443  33.393  22.351   0.934
30035W        W96444  39.021  40.877   4.131
30036W        W96445  14.864   4.369   0.289
30037W        W96446  42.396  35.353  12.172
30038W        W96447  22.467  10.577   1.172
30039W        W96448  17.714  14.332   3.386
30040W        W96449  37.408  33.294   1.122
30041W        W96450  11.376  40.887  11.460
30042W        W96451  41.169  25.970   0.857
30043W        W96452  18.247  27.732  11.140
30044W        W96453   4.232  14.183  10.354
30045W        W96454  22.533   0.263  10.232
30046W        W96455  22.940  40.784   0.633
30047W        W96456  17.538  30.339  10.985
30048W        W96457  36.803  15.495   3.454
30049W        W96458  27.563  14.715   3.067
30050W        W96459   0.377   9.883  12.490
30051W        W96460  37.828  44.351  12.194
30052W        W96461   8.121  13.552  11.466
30053W        W96462  25.188  20.702   2.102
30054W        W96463  12.157  12.322   0.334
30055W        W96464   5.621  23.369   1.802
30056W        W96465  22.045  41.111  11.966
30057W        W96466  42.997  35.941  11.644
30058W        W96467  11.897  11.296   0.831
30059W        W96468  23.021   8.620   3.624
30060W        W96469   4.004  22.102  10.537
30061W        W96470  18.165  39.597   0.819
30062W        W96471  34.631   2.233  11.070
30063W        W96472  42.260  29.155  14.541
30064W        W96473  23.036   1.874  13.078
30065W        W96474  18.180  40.961  14.844
30066W        W96475  18.769   4.015  14.313
30067W        W96476  13.257  26.449  12.061
30068W        W96477   8.623  13.784   3.218
30069W        W96478  15.543  21.558  14.495
30070W        W96479  44.158  25.269  10.529
30071W        W96480  22.904  30.475   4.067
30072W        W96481   5.265  36.709  13.826
30073W        W96482  13.168  32.546   1.537
30074W        W96483  25.411  39.464   1.416
30075W        W96484  17.207  25.061   1.267
30076W        W96485  43.092  24.168   3.537
30077W        W96486  38.460   2.433  13.763
30078W        W96487   1.332  42.024  12.368
30079W        W96488  14.604  24.480  11.536
30080W        W96489  19.245  16.113   0.733
30081W        W96490  32.894  16.572  13.960
30082W        W96491  23.964  40.606  12.546
30083W        W96492   4.581  23.613   4.957
30084W        W96493  44.872  17.254   2.333
30085W        W96494  25.404  37.160  13.976
30086W        W96495  43.518  42.847   2.220
30087W        W96496  29.673  26.651   9.848
30088W        W96497  20.968  27.049   1.758
30089W        W96498   6.723  16.731  12.177
30090W        W96499   1.040  23.268  11.179
30091W        W96500  25.996   8.898   2.606
30092W        W96501  16.611   6.998  13.820
30093W        W96502  35.558  26.972   4.946
30094W        W96503   8.112   0.552   0.353
30095W        W96504   6.226  22.924   9.826
30096W        W96505  16.211   1.025  11.012
30097W        W96506  14.523  24.119  14.275
30098W        W96507  25.731  28.506  11.495
30099W        W96508  43.868  18.212  14.276
30100W        W96509  33.467  33.375  10.674
30101W        W96510  25.619  41.266  12.376
30102W        W96511   2.844  18.222  10.579
30103W        W96512  43.994  24.022  14.256
30104W        W96513  22.266  24.504   2.759
30105W        W96514  31.245  35.047  11.971
30106W        W96515  35.485  12.214   1.883
30107W        W96516  36.871  28.620   0.391
30108W        W96517  31.216   4.906  11.764
30109W        W96518  33.130   1.846   2.386
30110W        W96519   7.283  37.645   0.508
30111W        W96520  39.366  31.211   0.852
30112W        W96521  37.377  23.431  12.582
30113W        W96522  28.985  32.077   2.141
30114W        W96523  35.851   6.414   3.218
30115W        W96524  39.125  24.648   0.309
30116W        W96525  41.239  26.421   1.781
30117W        W96526   9.930  19.628  12.876
30118W        W96527   9.133  13.412   4.812
30119W        W96528  38.816  14.588  13.562
30120W        W96529  17.106  25.130   0.630
30121W        W96530  14.877   1.482   4.982
30122W        W96531  16.317  22.765  13.129
30123W        W96532  40.419  37.601  12.526
30124W        W96533  16.021  27.574  11.911
30125W        W96534  13.891  22.723   5.000
30126W        W96535  11.082  20.334   2.258
30127W        W96536  30.595  25.078  10.830
30128W        W96537  29.412  24.070  14.829
30129W        W96538  35.060  22.199  10.407
30130W        W96539  35.957   5.459   1.431
30131W        W96540  22.676  30.523  12.543
30132W        W96541   8.936  39.732  10.646
30133W        W96542  33.479   5.509   1.862
30134W        W96543   3.008  17.735  12.276
30135W        W96544  20.134  12.125   4.385
30136W        W96545  27.126   9.699  12.000
30137W        W96546  41.395  15.578   0.808
30138W        W96547  36.861  19.735  14.356
30139W        W96548   8.443   1.408   3.544
30140W        W96549  29.977   3.239  14.522
30141W        W96550  24.768  28.753  11.624
30142W        W96551  39.923  37.757  11.791
30143W        W96552  34.384  21.056   3.488
30144W        W96553  16.714  26.270   2.190
30145W        W96554  31.771  43.252  11.150
30146W        W96555  42.506  44.406   1.350
30147W        W96556   1.010   8.967   9.831
30148W        W96557  40.368   0.286   3.863
30149W        W96558  32.016  39.258  11.550
30150W        W96559  11.417   6.525  12.075
30151W        W96560  12.758  42.859   3.233
30152W        W96561  17.700  30.044  13.743
30153W        W96562  28.613  11.189   4.080
30154W        W96563   1.582  29.395  11.538
30155W        W96564  43.479  28.023   2.455
30156W        W96565  30.706  36.486   1.506
30157W        W96566  29.341  16.714   4.772
30158W        W96567  16.785   9.460   4.346
30159W        W96568  37.184  38.436   2.756
30160W        W96569  22.486  29.357   3.286
30161W        W96570  40.127   1.336   4.675
30162W        W96571  24.514  30.916  13.830
30163W        W96572   7.253   4.952  14.280
30164W        W96573  27.544  33.605  10.751
30165W        W96574  33.892  39.154  11.159
30166W        W96575  20.059  43.168  11.205
30167W        W96576  37.305  30.353   2.072
30168W        W96577   1.728   9.115  11.126
30169W        W96578   7.006   8.901  10.744
30170W        W96579  15.952  43.515   4.010
30171W        W96580  15.543  12.754  12.643
30172W        W96581  30.902  29.648  14.934
30173W        W96582  42.362  44.801  12.593
30174W        W96583   8.436  15.331  12.861
30175W        W96584   1.311   2.958  10.675
30176W        W96585  32.316  21.728  12.979
30177W        W96586   2.326  29.210   4.647
30178W        W96587  35.360  29.977  13.889
30179W        W96588  30.976  42.356  13.342
30180W        W96589  23.639   6.325  11.110
30181W        W96590  11.422  43.008   1.708
30182W        W96591  29.440  25.574   1.041
30183W        W96592  13.113  27.762   2.876
30184W        W96593   2.705  38.942  11.988
30185W        W96594  37.987  42.775  11.198
30186W        W96595  20.447  17.032   3.277
30187W        W96596   8.642   6.307  12.878
30188W        W96597   1.896  17.194  14.287
30189W        W96598   7.368  12.106  12.411
30190W        W96599   9.675  34.388  14.932
30191W        W96600  30.518  11.558   0.572
30192W        W96601  26.474   7.511  10.715
30193W        W96602  15.909   0.775  14.708
30194W        W96603  11.660  13.610  11.900
30195W        W96604  40.263  19.081   1.620
30196W        W96605  31.133  34.448  10.138
30197W        W96606   3.439  15.343  14.236
30198W        W96607  39.115  26.278  12.018
30199W        W96608  43.303  18.986  10.640
30200W        W96609  11.227   1.022   1.349
30201W        W96610  13.260   4.883  13.915
30202W        W96611  40.618  28.164  14.360
30203W        W96612  23.665  14.781  12.453
30204W        W96613  29.397  32.953  10.766
30205W        W96614  23.233  31.012  12.067
30206W        W96615  16.757  13.639  14.446
30207W        W96616  44.436   7.247  11.912
30208W        W96617  36.419  25.273   3.562
30209W        W96618  40.295  31.582   3.377
30210W        W96619   2.304  18.149  13.403
30211W        W96620  38.433   5.199   4.171
30212W        W96621  18.826  24.620   1.823
30213W        W96622  23.917   7.747   1.204
30214W        W96623  25.072  41.400  14.318
30215W        W96624  28.852   3.169  14.961
30216W        W96625   9.338   9.739  11.618
30217W        W96626  37.796  31.527   0.880
30218W        W96627  38.109  39.801  12.107
30219W        W96628   2.726  43.787   2.634
30220W        W96629  28.512  38.399  14.284
30221W        W96630  13.787  39.027   2.983
30222W        W96631   4.228  38.651  14.800
30223W        W96632  42.851  37.976  14.996
30224W        W96633  35.505  37.479  12.896
30225W        W96634   8.363   8.969   5.079
30226W        W96635  36.505  11.877   3.421
30227W        W96636  11.374  34.158  13.935
30228W        W96637  36.218   5.405   0.508
30229W        W96638  17.619   5.761   2.482
30230W        W96639  32.375  31.592  13.483
30231W        W96640  21.531  37.811   4.320
30232W        W96641   3.036  31.849  11.574
30233W        W96642   7.909  11.497   2.012
30234W        W96643  22.144   3.126  13.501
30235W        W96644  41.037  31.778   2.815
30236W        W96645  29.415  22.910  14.323
30237W        W96646  35.636  30.856   0.402
30238W        W96647   5.118  39.778  13.258
30239W        W96648   7.555  11.679   2.361
30240W        W96649   5.180  17.564  13.202
30241W        W96650  23.167  18.103   0.264
30242W        W96651  13.681   5.785  13.484
30243W        W96652  16.743  24.493  12.967
30244W        W96653   1.214  25.007  12.545
30245W        W96654  17.290  35.546  14.930
30246W        W96655  44.409   1.803  13.833
30247W        W96656   9.172  35.397   3.305
30248W        W96657  36.060  20.629   3.372
30249W        W96658  23.969  32.649   2.725
30250W        W96659  17.163  35.801   0.805
30251W        W96660  40.760   1.458   0.558
30252W        W96661  13.284  34.861  14.652
30253W        W96662  31.229  37.900   2.865
30254W        W96663  15.232  17.341  14.346
30255W        W96664  26.725  18.962   5.003
30256W        W96665  39.488  42.750   2.295
30257W        W96666  14.528   1.349  13.767
30258W        W96667  16.371  10.818  14.681
30259W        W96668  44.366  38.327  14.895
30260W        W96669  34.775   2.529   4.317
30261W        W96670  28.757  15.484   9.946
30262W        W96671  30.651   4.020   0.031
30263W        W96672   7.173  42.835   4.103
30264W        W96673   8.121  12.735   4.239
30265W        W96674   6.285   6.422  10.676
30266W        W96675  11.238  16.526   1.758
30267W        W96676   5.866  34.793  13.356
30268W        W96677   2.202  39.323   3.937
30269W        W96678  17.888   0.998   0.363
30270W        W96679  24.205  19.606   0.516
30271W        W96680  20.911  35.468  11.642
30272W        W96681  29.531  15.023   0.865
30273W        W96682  21.707   2.440  12.570
30274W        W96683  28.625   0.742  12.499
30275W        W96684  27.598  19.267   2.686
30276W        W96685  31.528  32.810  13.522
30277W        W96686  22.302  20.232  12.061
30278W        W96687  10.627  44.395  14.413
30279W        W96688  37.907  18.359  13.012
30280W        W96689   9.970  12.130  12.092
30281W        W96690  43.517  16.618   2.791
30282W        W96691   3.436  26.668   3.836
30283W        W96692   3.792   2.235  13.391
30284W        W96693  20.034  42.584  12.763
30285W        W96694  15.681  16.069   2.795
30286W        W96695  40.524  44.074  12.062
30287W        W96696  32.037  43.995  11.501
30288W        W96697  30.101  25.948  14.025
30289W        W96698  36.911  44.433   3.038
30290W        W96699  16.790  43.364  13.401
30291W        W96700   4.500  40.980   4.344
30292W        W96701  14.270  39.057   2.793
30293W        W96702   4.725   6.140  11.896
30294W        W96703  38.557   6.393   0.255
30295W        W96704  42.369  20.068   2.632
30296W        W96705  36.890  30.851   0.829
30297W        W96706  42.486  37.562  11.516
30298W        W96707  19.209   0.736   1.807
30299W        W96708  31.846  36.832  13.540
30300W        W96709   8.345  27.165   1.817
30301W        W96710   6.150  32.461  13.909
30302W        W96711  34.152  13.189   0.870
30303W        W96712  44.451  19.191  14.433
30304W        W96713  25.239  30.164   0.217
30305W        W96714  10.798   6.992  13.551
30306W        W96715  37.051   0.763   1.928
30307W        W96716  24.125  41.312  14.336
30308W        W96717   5.878  44.815  13.565
30309W        W96718  36.949   7.905   2.656
30310W        W96719  44.759   9.722  13.490
30311W        W96720   9.946  24.689   0.552
30312W        W96721  23.694  21.333  11.044
30313W        W96722  44.048   9.065  14.274
30314W        W96723  11.614  17.723   0.378
30315W        W96724  41.499  43.661  10.791
30316W        W96725  30.887  14.842  11.378
30317W        W96726  39.690   4.624  13.545
30318W        W96727   1.893   2.194  11.582
30319W        W96728  31.343  14.158  12.381
30320W        W96729  26.259  20.410  13.052
30321W        W96730  14.583  34.379   1.784
30322W        W96731   5.894  22.996   4.953
30323W        W96732  28.551  25.178  11.296
30324W        W96733  22.942  29.149  13.066
30325W        W96734  41.457  39.802  14.860
30326W        W96735  11.285  42.474  12.755
30327W        W96736  24.011  37.418   4.088
30328W        W96737  23.175  19.851  12.273
30329W        W96738  12.121  36.890  12.697
30330W        W96739  33.055  17.782   4.509
30331W        W96740  28.284   4.331   4.205
30332W        W96741  28.828  33.439  11.463
30333W        W96742  38.835   1.680   0.393
30334W        W96743  16.622  27.659  14.167
30335W        W96744  44.356   7.749  11.567
30336W        W96745   7.531  16.283  11.588
30337W        W96746   4.225  19.566   2.254
30338W        W96747  33.159  16.173  13.218
30339W        W96748  10.868   5.930   0.906
30340W        W96749  15.705  33.665   0.773
30341W        W96750  20.277  29.519   1.218
30342W        W96751  24.594  29.658   1.043
30343W        W96752  16.615  21.549   1.124
30344W        W96753   5.972  41.976   1.597
30345W        W96754  27.530  12.774  10.620
30346W        W96755  29.887  39.483   3.652
30347W        W96756  30.346  27.565  11.566
30348W        W96757  16.239  32.163  12.393
30349W        W96758  24.281  15.175  12.461
30350W        W96759  12.064  25.564  12.452
30351W        W96760  11.711  28.199   1.417
30352W        W96761  30.008  39.792   4.040
30353W        W96762  26.270  17.731   2.852
30354W        W96763  42.305  26.760  13.026
30355W        W96764  10.364  27.681   0.749
30356W        W96765  44.378  41.726   3.554
30357W        W96766  31.569  29.384  12.078
30358W        W96767  24.358  35.097  12.586
30359W        W96768  22.055  42.915   5.157
30360W        W96769   9.391   4.394   2.785
30361W        W96770  21.759   0.749  11.165
30362W        W96771  11.377  38.318   4.758
30363W        W96772  21.741  25.025  14.320
30364W        W96773  37.285  10.302   4.544
30365W        W96774   8.668  25.164   1.001
30366W        W96775  37.806   2.286   1.758
30367W        W96776   6.807  37.324   4.181
30368W        W96777  37.960  16.007   4.063
30369W        W96778   4.290  39.410   4.289
30370W        W96779  37.443  41.079  10.529
30371W        W96780  23.123  27.040  14.859
30372W        W96781  26.785  32.577   1.294
30373W        W96782   3.942  23.523  13.489
30374W        W96783  24.278  17.920   0.956
30375W        W96784  21.870  23.253  11.964
30376W        W96785  36.376   7.775   1.143
30377W        W96786   0.711  13.664  10.586
30378W        W96787   7.508  10.288  14.580
30379W        W96788  34.973   3.325   4.494
30380W        W96789   3.883  31.047   3.840
30381W        W96790  26.033  42.255  11.512
30382W        W96791   9.961  32.009   1.867
30383W        W96792  31.424   5.752   0.794
30384W        W96793   8.560  35.934   3.619
30385W        W96794   0.989  42.103  13.950
30386W        W96795  38.433  23.228   4.196
30387W        W96796  20.622  38.955  14.883
30388W        W96797   6.666  15.920   1.994
30389W        W96798   3.489  18.988   4.780
30390W        W96799   3.678   6.888  13.616
30391W        W96800  17.825  35.840   3.978
30392W        W96801  14.810  10.118  10.609
30393W        W96802  22.010  32.628  12.426
30394W        W96803  41.070  12.925   0.961
30395W        W96804   2.046  17.097   4.862
30396W        W96805  17.571   5.852   1.971
30397W        W96806   9.429   0.801  10.590
30398W        W96807  32.686  31.624  14.598
30399W        W96808   3.688  23.029  12.882
30400W        W96809   3.183  29.014  14.479
30401W        W96810   8.253  24.664   3.783
30402W        W96811   2.974  26.712  11.707
30403W        W96812   5.453  14.804  14.453
30404W        W96813  26.562  25.030   3.731
30405W        W96814   5.943  31.662  10.703
30406W        W96815  37.978  40.291   4.693
30407W        W96816  24.980   5.399  12.168
30408W        W96817  40.555  13.407  12.110
30409W        W96818   4.285  39.067   4.677
30410W        W96819  11.116  42.298  13.518
30411W        W96820   2.005  12.801   3.719
30412W        W96821  35.402   4.610   5.026
30413W        W96822  36.970  41.987   4.506
30414W        W96823  31.551  34.809  11.621
30415W        W96824  37.620  23.996  14.339
30416W        W96825  14.455  28.093  12.642
30417W        W96826  27.112  14.800  10.496
30418W        W96827   3.193  16.162  13.830
30419W        W96828  16.780  19.027  12.908
30420W        W96829  38.528  23.524  14.235
30421W        W96830  36.328   2.749   0.977
30422W        W96831  27.657   6.260   3.765
30423W        W96832  24.520  11.225  14.129
30424W        W96833  23.201  28.372  13.505
30425W        W96834   2.896  31.040   2.196
30426W        W96835  26.873   5.354  11.991
30427W        W96836  30.491  26.425   0.517
30428W        W96837   8.030  19.993   1.754
30429W        W96838  36.276   5.437  12.426
30430W        W96839  18.535  40.968  13.803
30431W        W96840  16.253  34.095  13.973
30432W        W96841  32.366   7.267  12.936
30433W        W96842   4.584   9.465   1.300
30434W        W96843  11.926  32.372   1.797
30435W        W96844  36.137  25.528   1.825
30436W        W96845  21.309  13.114  10.231
30437W        W96846  27.135  29.574   0.876
30438W        W96847  38.973  33.288  11.078
30439W        W96848  31.133  13.869  13.453
30440W        W96849  36.314  34.036  10.993
30441W        W96850  18.701   9.654   4.492
30442W        W96851  25.237   8.830  11.987
30443W        W96852  10.071  22.708   4.996
30444W        W96853  11.137  16.803  13.943
30445W        W96854  22.145  41.981  11.875
30446W        W96855   7.314  43.119   4.523
30447W        W96856   1.549  43.685  13.089
30448W        W96857  39.465  12.481  14.053
30449W        W96858  43.808  15.901  13.416
30450W        W96859  40.047  28.351   3.649
30451W        W96860  12.603  27.941  13.974
30452W        W96861   1.372  41.993  11.075
30453W        W96862   1.287  25.209   1.269
30454W        W96863  43.326  37.649   3.682
30455W        W96864  16.592  15.682   4.201
30456W        W96865  30.154  41.978   0.844
30457W        W96866  25.192   3.000  11.044
30458W        W96867  35.430  41.097   1.236
30459W        W96868  32.995  35.934  13.267
30460W        W96869  17.185  21.407  11.553
30461W        W96870  44.991   3.903  11.608
30462W        W96871  17.442  18.172   4.137
30463W        W96872   9.258  17.606   3.797
30464W        W96873   4.478  22.281  10.602
30465W        W96874  23.196  26.997   0.776
30466W        W96875  25.669  15.552  10.330
30467W        W96876  15.042   5.685   3.257
30468W        W96877  31.538  25.056  13.105
30469W        W96878   6.932  37.884  14.396
30470W        W96879  20.510   5.430  10.803
30471W        W96880   0.742  39.787  11.047
30472W        W96881  35.050  28.912   4.125
30473W        W96882  15.589  28.969  14.635
30474W        W96883  15.643  33.374  11.466
30475W        W96884   1.505  39.351  11.169
30476W        W96885  33.666  40.925  14.344
30477W        W96886  23.563   8.276   1.026
30478W        W96887  16.233  16.793   1.525
30479W        W96888   6.728  28.385  10.998
30480W        W96889  18.278  32.855  13.288
30481W        W96890  34.172   8.379   0.911
30482W        W96891   4.429   8.616   2.157
30483W        W96892  27.150  28.079   3.961
30484W        W96893  33.670  29.042  13.002
30485W        W96894  35.020   7.759  14.540
30486W        W96895  20.015  43.902   0.440
30487W        W96896   1.198  14.795   2.456
30488W        W96897  15.453  10.169   2.823
30489W        W96898   9.239   3.401   1.796
30490W        W96899  36.836  12.453  10.730
30491W        W96900  14.698   5.812   4.203
30492W        W96901  37.409  37.222  10.004
30493W        W96902  25.596   3.284   2.899
30494W        W96903  33.704  14.818   2.881
30495W        W96904   6.689   1.952  11.110
30496W        W96905   4.529  39.939   3.944
30497W        W96906  43.497  10.775  13.114
30498W        W96907  11.220  21.514   2.390
30499W        W96908  21.162  28.216   0.393
30500W        W96909  35.922  31.206  14.877
30501W        W96910  24.071  39.338   0.725
30502W        W96911  21.582  28.723   3.999
30503W        W96912   3.286   8.634  13.127
30504W        W96913  21.888  18.633   0.788
30505W        W96914  11.633  25.797  12.279
30506W        W96915   1.802  11.590   1.753
30507W        W96916   3.397   6.760  10.619
30508W        W96917   6.018   9.620  13.224
30509W        W96918  17.867  23.602   5.029
30510W        W96919  27.564  43.049  10.725
30511W        W96920  40.298  31.391   2.312
30512W        W96921  24.944  19.302   0.901
30513W        W96922   5.169  17.063  13.878
30514W        W96923  17.448   7.161  14.744
30515W        W96924  26.698   8.728   1.884
30516W        W96925   9.318  28.911  13.532
30517W        W96926  18.106  25.460  14.811
30518W        W96927  44.366  40.576  14.430
30519W        W96928  42.979  18.288   2.909
30520W        W96929  40.512  42.843   0.019
30521W        W96930   3.384  15.134   1.345
30522W        W96931  22.569  31.074   4.724
30523W        W96932  25.700  44.861   1.240
30524W        W96933  23.098  12.107   3.105
30525W        W96934  21.238  24.512  14.323
30526W        W96935  11.744  24.995  14.351
30527W        W96936  24.201  17.134   2.588
30528W        W96937  24.836  32.405  14.321
30529W        W96938  39.393   9.340   1.646
30530W        W96939  18.191  21.501   4.666
30531W        W96940  28.085  34.098  14.978
30532W        W96941   3.308  40.002   0.497
30533W        W96942  28.992  10.679   0.859
30534W        W96943   2.013  13.756   0.319
30535W        W96944  13.915  36.503   0.932
30536W        W96945  38.542  32.479   4.256
30537W        W96946  30.083  39.006  13.713
30538W        W96947  16.771  36.589  13.330
30539W        W96948  38.633   4.860  14.195
30540W        W96949  29.057  20.603   4.082
30541W        W96950  26.065  11.390   3.666
30542W        W96951  23.747  26.452   1.880
30543W        W96952  15.126   2.219  14.936
30544W        W96953  21.016  29.457   4.517
30545W        W96954   7.222  42.643  12.707
30546W        W96955  26.582  13.137  12.635
30547W        W96956  18.832  36.009   2.175
30548W        W96957  23.068  43.887   3.666
30549W        W96958  40.401  10.964  10.830
30550W        W96959   8.642  40.927   2.349
30551W        W96960  39.461  19.841   0.715
30552W        W96961   4.838  14.533  11.150
30553W        W96962  21.618  28.961   0.268
30554W        W96963  29.369   2.331   0.169
30555W        W96964  44.040  42.373   4.612
30556W        W96965   4.402  33.817   0.506
30557W        W96966  23.474  17.189   1.795
30558W        W96967  24.608  25.730   0.510
30559W        W96968   0.554  10.470   1.811
30560W        W96969  24.201  33.142  13.922
30561W        W96970  23.792  14.668  11.588
30562W        W96971  35.073   4.009   9.795
30563W        W96972  42.874  12.370  14.943
30564W        W96973  23.285  24.548  10.653
30565W        W96974  40.134  19.630  14.248
30566W        W96975  35.673  17.678   3.694
30567W        W96976  17.114  31.500   0.176
30568W        W96977  22.758  28.091   4.512
30569W        W96978   8.437   0.924   1.511
30570W        W96979  20.719   8.796  10.916
30571W        W96980  25.183  22.898   3.228
30572W        W96981  43.356   3.686  10.736
30573W        W96982  23.299   9.459  14.833
30574W        W96983  36.972  33.507   3.234
30575W        W96984   5.379   2.971   1.962
30576W        W96985  44.898  11.244  11.479
30577W        W96986  18.755  27.590   3.418
30578W        W96987   5.200  27.075  12.822
30579W        W96988  18.979   1.715  11.375
30580W        W96989  28.044  21.027   0.762
30581W        W96990   8.490  22.976  14.272
30582W        W96991  39.832  38.334   2.269
30583W        W96992   5.289  22.599   2.746
30584W        W96993  24.935  16.439   0.698
30585W        W96994   8.185   4.690   0.508
30586W        W96995  31.381  35.788  11.478
30587W        W96996  11.117   1.399   0.934
30588W        W96997   2.397  14.691  12.880
30589W        W96998  30.416  14.157   0.852
30590W        W96999  17.648   6.282   2.339
30591W        W97000  30.783  14.352  12.660
30592W        W97001  29.151  28.300  11.060
30593W        W97002  32.665  43.472   2.191
30594W        W97003  13.341  12.807  14.674
30595W        W97004  43.707  11.488   5.419
30596W        W97005   7.780  24.393   3.630
30597W        W97006   2.472  27.616  11.566
30598W        W97007  35.844  25.109   1.779
30599W        W97008  21.164  43.267  11.966
30600W        W97009   9.804   3.582  10.337
30601W        W97010  24.955  30.797   1.195
30602W        W97011  12.129  17.561   1.762
30603W        W97012  12.338  42.120  11.062
30604W        W97013  24.165  11.341  12.787
30605W        W97014  31.372   5.099  12.978
30606W        W97015  29.115  29.927   2.798
30607W        W97016  35.881   1.808   2.087
30608W        W97017  23.674  37.763   2.142
30609W        W97018  11.811  35.102   0.888
30610W        W97019  29.130   9.600   3.550
30611W        W97020  27.521  17.035  11.803
30612W        W97021  42.097  38.871  12.995
30613W        W97022   7.933   6.246  12.050
30614W        W97023   7.745  15.258   4.022
30615W        W97024  28.028  36.034   4.646
30616W        W97025  25.032   4.916  11.991
30617W        W97026  13.769   6.284  10.517
30618W        W97027  27.331  30.513   0.693
30619W        W97028  10.938   3.328   2.278
30620W        W97029  42.418   5.190   2.767
30621W        W97030   5.310   4.383  10.665
30622W        W97031  26.761  17.576   2.852
30623W        W97032  39.293  11.191  10.287
30624W        W97033  19.691  40.817  13.870
30625W        W97034  30.041  42.846   0.815
30626W        W97035  37.113  24.279  12.573
30627W        W97036  28.101  31.601  12.390
30628W        W97037   7.001  34.582  11.623
30629W        W97038   5.520   6.962  11.135
30630W        W97039  25.775  14.257   4.528
30631W        W97040   9.129  23.658  11.935
30632W        W97041   4.261   3.908   4.287
30633W        W97042  30.845  43.317  13.488
30634W        W97043  38.426  17.730  13.105
30635W        W97044   2.881  18.087   4.337
30636W        W97045  31.427  19.191  14.924
30637W        W97046  10.713   2.847  11.157
30638W        W97047   8.312  40.349   3.255
30639W        W97048   2.567  18.478   4.084
30640W        W97049  34.045  41.332   0.609
30641W        W97050   6.675  16.770   2.020
30642W        W97051  37.795  44.041  13.923
30643W        W97052  10.847  34.716   2.327
30644W        W97053   1.753  20.138  11.949
30645W        W97054  40.570  41.520  14.353
30646W        W97055  41.490   0.229   1.761
30647W        W97056  19.304  23.253   0.684
30648W        W97057  16.236  10.407  13.264
30649W        W97058  11.558  27.046  12.735
30650W        W97059  41.325  32.959  10.605
30651W        W97060   8.221  40.758  12.140
30652W        W97061  38.699  34.500  10.933
30653W        W97062  38.841  44.807   3.732
30654W        W97063  11.047  24.420   2.337
30655W        W97064   8.951  33.894   1.460
30656W        W97065   4.468  26.977   0.196
30657W        W97066   2.480  12.881   3.475
30658W        W97067  41.740  36.013  14.362
30659W        W97068  13.891  18.312   1.426
30660W        W97069  25.464  32.334  14.797
30661W        W97070  30.684  18.682  12.417
30662W        W97071  15.541  29.949   4.069
30663W        W97072  32.427  42.034   4.627
30664W        W97073  40.837  43.219  14.803
30665W        W97074  19.540  24.808  13.036
30666W        W97075  33.353  33.940  13.970
30667W        W97076   5.425  26.715  14.992
30668W        W97077  34.387  35.104   0.723
30669W        W97078  10.785  33.372   1.313
30670W        W97079  43.508  40.292   2.152
30671W        W97080  44.943  15.637   3.060
30672W        W97081  21.472  43.865  13.937
30673W        W97082  31.126  29.667   0.779
30674W        W97083  43.334   1.903  13.525
30675W        W97084  32.453   0.310   1.792
30676W        W97085  24.477  40.582  12.446
30677W        W97086  18.344   4.873   1.741
30678W        W97087  30.323  28.543  13.423
30679W        W97088   3.013  30.855  12.413
30680W        W97089  12.052  28.443  14.571
30681W        W97090  43.831  14.736   4.097
30682W        W97091   8.444   3.198  11.101
30683W        W97092  26.021  18.248  14.991
30684W        W97093  23.850   6.687  12.602
30685W        W97094  19.547  14.109  12.477
30686W        W97095   2.771  40.484  11.622
30687W        W97096  12.039  34.354   1.003
30688W        W97097  16.085  43.316   2.354
30689W        W97098   0.491  12.669   1.382
30690W        W97099  27.606  22.651   3.435
30691W        W97100  42.710  13.796   3.890
30692W        W97101  36.846  32.415   2.582
30693W        W97102  43.454  15.133   4.113
30694W        W97103  24.122  28.970   1.352
30695W        W97104  29.893  36.920  14.392
30696W        W97105  20.766  25.380   3.792
30697W        W97106   7.368  28.143   3.668
30698W        W97107   6.708  15.582  14.906
30699W        W97108  40.578  43.779   4.062
30700W        W97109  16.786  12.426  14.803
30701W        W97110  29.543   8.957  12.861
30702W        W97111  22.043  28.341  10.890
30703W        W97112  37.012   4.155  10.709
30704W        W97113  17.590  27.485  11.701
30705W        W97114  14.031   1.348  10.311
30706W        W97115   8.363   9.829   0.503
30707W        W97116  26.661  13.315  14.964
30708W        W97117  27.746  35.111   4.271
30709W        W97118  27.371  39.922   4.362
30710W        W97119  28.245  16.365  13.937
30711W        W97120  29.053  28.275   3.352
30712W        W97121  41.236  38.427  14.847
30713W        W97122  43.528  25.182   0.356
30714W        W97123  24.093  38.151   1.421
30715W        W97124  32.856  15.654  14.959
30716W        W97125  44.021  18.050  13.306
30717W        W97126  21.833   6.439  14.039
30718W        W97127  19.084  20.157   3.192
30719W        W97128  24.653  38.303  14.338
30720W        W97129   5.175   4.864  13.089
30721W        W97130  16.817  15.522  13.899
30722W        W97131   1.261  20.258   0.020
30723W        W97132  28.931  35.803  12.554
30724W        W97133  18.599  11.514  13.963
30725W        W97134  39.847  39.068   1.457
30726W        W97135  23.137  21.647  10.179
30727W        W97136   6.779  24.382  10.736
30728W        W97137  39.575  22.949   2.871
30729W        W97138  33.483  33.909   4.778
30730W        W97139  35.161  42.784   1.204
30731W        W97140   8.452   5.675   3.772
30732W        W97141   6.843   9.095   3.346
30733W        W97142   6.306  36.232  11.057
30734W        W97143  14.711   8.358   0.250
30735W        W97144  40.372  12.757  10.762
30736W        W97145  24.755  20.571   4.645
30737W        W97146  22.762  13.828   3.110
30738W        W97147  17.606  34.919  12.983
30739W        W97148  14.032  24.991  12.000
30740W        W97149  14.682  24.677  13.288
30741W        W97150   0.562  25.482   4.406
30742W        W97151  27.684  17.162   0.632
30743W        W97152  23.560  39.589   2.897
30744W        W97153   7.190  37.881   1.689
30745W        W97154  17.481   5.414  14.178
30746W        W97155  18.597  19.818   4.874
30747W        W97156  43.425  23.114  10.447
30748W        W97157   5.889   4.654  12.029
30749W        W97158  35.584  25.441  13.104
30750W        W97159  35.264  36.402  11.859
30751W        W97160  17.788  13.775   0.422
30752W        W97161  28.661  11.360   1.384
30753W        W97162  14.204  25.074   0.727
30754W        W97163  27.146   6.670   0.268
30755W        W97164  38.733  33.548   1.392
30756W        W97165   2.722  21.725   1.605
30757W        W97166  31.631   9.281  12.599
30758W        W97167  26.444  19.325   0.819
30759W        W97168  35.551  19.341  13.250
30760W        W97169   2.958  25.908  13.053
30761W        W97170  24.472  29.044   1.919
30762W        W97171  24.248  11.061  14.562
30763W        W97172   2.758  39.545  12.454
30764W        W97173  13.273  40.030   2.767
30765W        W97174   5.449  31.927   3.749
30766W        W97175  17.276   8.414   2.848
30767W        W97176   4.863   8.795   3.142
30768W        W97177  26.060  44.578   3.756
30769W        W97178  36.839  15.654   2.938
30770W        W97179  12.188   9.963  14.379
30771W        W97180  16.272  26.011  10.792
30772W        W97181  27.615  41.887  13.031
30773W        W97182  44.231  25.342   1.153
30774W        W97183  29.205  13.133   0.802
30775W        W97184   9.098   5.813   0.493
30776W        W97185  12.052  34.996  11.499
30777W        W97186  26.951  38.612  10.669
30778W        W97187   4.692  21.511   1.289
30779W        W97188  30.776   0.245   2.844
30780W        W97189  40.795  38.335  11.159
30781W        W97190   8.592   2.978  12.822
30782W        W97191  22.136  14.868   0.811
30783W        W97192  26.268  21.133   5.000
30784W        W97193  32.628   2.259  11.706
30785W        W97194  30.445  43.751  14.256
30786W        W97195  42.840  11.057   1.354
30787W        W97196  25.173  22.548   2.235
30788W        W97197  10.382  24.135  12.735
30789W        W97198  11.050  32.568  11.937
30790W        W97199  26.712  44.563   4.207
30791W        W97200  27.638   9.652  14.602
30792W        W97201  24.613  34.524   0.726
30793W        W97202  35.899  12.406   2.123
30794W        W97203   7.781  27.609  12.185
30795W        W97204  35.534   9.444   2.011
30796W        W97205  10.817  11.824   1.669
30797W        W97206  27.959  41.895  12.397
30798W        W97207  17.055  37.474   3.154
30799W        W97208  16.887  43.291   3.976
30800W        W97209  21.799   4.684  13.954
30801W        W97210   5.463   1.783   4.791
30802W        W97211  14.378   9.702   2.260
30803W        W97212  29.091  14.819   0.343
30804W        W97213  30.488   4.625   3.394
30805W        W97214  33.082  14.422  12.169
30806W        W97215  16.362   8.154  12.850
30807W        W97216  15.091  34.062   1.261
30808W        W97217  28.613  13.735  13.143
30809W        W97218  33.121   8.411   2.715
30810W        W97219   1.388  44.295  12.545
30811W        W97220   5.837  10.412   2.348
30812W        W97221  28.561   1.166  13.261
30813W        W97222  22.501  28.422   0.933
30814W        W97223  18.835  37.540   4.234
30815W        W97224  23.445  28.683  11.149
30816W        W97225  12.719   4.466  14.431
30817W        W97226  19.607   7.848  14.464
30818W        W97227   6.817   9.858   1.416
30819W        W97228  11.359  20.305  11.600
30820W        W97229  36.804  44.829  14.944
30821W        W97230  18.143  23.268  11.821
30822W        W97231  12.874  17.739   4.045
30823W        W97232  32.185   6.189  12.583
30824W        W97233   1.510   1.981   1.229
30825W        W97234   4.758  31.540  12.390
30826W        W97235  36.064  39.954   2.336
30827W        W97236  23.459  32.914  13.468
30828W        W97237  16.283  18.049  13.553
30829W        W97238   0.250  12.688   0.912
30830W        W97239  15.695  39.885   2.235
30831W        W97240  43.111  23.901  11.981
30832W        W97241  33.814  15.262   3.169
30833W        W97242  34.419   5.769   4.978
30834W        W97243  17.771  29.166  14.307
30835W        W97244   0.999   4.991  14.584
30836W        W97245  17.020   3.467  12.842
30837W        W97246  24.407   2.538  14.924
30838W        W97247  38.705  33.617   0.396
30839W        W97248  23.538  26.402  10.637
30840W        W97249  30.554  10.117   0.398
30841W        W97250  13.838   6.295   2.125
30842W        W97251  36.770  18.771   0.853
30843W        W97252   0.164   0.111  13.421
30844W        W97253  26.910  17.552  11.087
30845W        W97254  23.726  40.758   4.693
30846W        W97255   1.410  16.280  11.669
30847W        W97256  35.635  10.358   1.861
30848W        W97257   8.684  28.648   3.406
30849W        W97258  38.468  29.520  10.763
30850W        W97259  25.858  39.363   1.631
30851W        W97260  22.561  15.696  10.083
30852W        W97261  28.912  16.284  14.358
30853W        W97262  11.840   8.699  11.097
30854W        W97263  17.073  36.325   2.335
30855W        W97264  38.826  23.935   3.155
30856W        W97265  10.383  11.538   1.735
30857W        W97266  43.414  42.533  11.758
30858W        W97267   9.694  23.085   2.388
30859W        W97268  39.664  22.244   4.402
30860W        W97269  42.989   4.317   1.246
30861W        W97270  30.033  20.101   4.790
30862W        W97271  17.584   4.393  10.372
30863W        W97272  21.773  18.207   0.474
30864W        W97273  36.291  32.956  14.277
30865W        W97274  20.645  34.967  10.633
30866W        W97275  14.792   8.578  14.206
30867W        W97276  26.041  26.509  12.094
30868W        W97277   8.517  38.618   0.561
30869W        W97278  26.487  13.398  12.232
30870W        W97279  30.682  27.713   1.659
30871W        W97280  34.015   0.463  11.017
30872W        W97281  17.299  29.116   0.234
30873W        W97282  18.480  10.138  13.990
30874W        W97283  36.659  24.998   2.069
30875W        W97284   1.324  35.073   1.237
30876W        W97285  10.909  31.569   2.762
30877W        W97286  11.143  19.075   0.649
30878W        W97287  25.133  23.484   4.050
30879W        W97288  32.611  16.705   3.218
30880W        W97289   4.236   5.432  12.999
30881W        W97290  25.717  12.338   1.778
30882W        W97291  27.695  29.555   1.256
30883W        W97292   6.129   0.718  11.364
30884W        W97293  22.709   1.673   2.410
30885W        W97294  40.926  17.171  12.550
30886W        W97295  35.839  25.736  13.480
30887W        W97296  13.700  39.473   4.165
30888W        W97297  17.792  38.996  13.267
30889W        W97298  14.117  13.190   1.465
30890W        W97299  21.000   3.713  13.326
30891W        W97300  12.974   2.748   2.234
30892W        W97301  21.310  28.948   3.627
30893W        W97302  21.391   0.748  14.811
30894W        W97303  24.087   1.557  13.201
30895W        W97304  23.336  23.224   9.980
30896W        W97305   8.174  37.825   3.324
30897W        W97306  44.059   0.259  12.029
30898W        W97307   6.967   4.275  11.320
30899W        W97308  23.779  23.802   1.842
30900W        W97309  28.155   1.310   3.331
30901W        W97310  29.197  43.559   4.325
30902W        W97311  43.467  35.705   1.887
30903W        W97312   2.376  19.605   0.373
30904W        W97313  13.692  40.796   0.643
30905W        W97314  15.363  18.320  13.381
30906W        W97315  31.912  12.204  13.542
30907W        W97316   4.330  16.083  10.812
30908W        W97317  10.300  35.602  12.905
30909W        W97318  19.366  28.490  11.288
30910W        W97319   7.454  33.503   0.758
30911W        W97320  23.067  10.248   0.669
30912W        W97321  21.066   7.682   3.741
30913W        W97322  29.659  31.398  12.044
30914W        W97323  42.943  19.638   2.162
30915W        W97324  27.555   5.010   0.255
30916W        W97325   7.932  28.661  10.130
30917W        W97326  39.477  41.929  14.493
30918W        W97327  30.335  43.056   4.586
30919W        W97328  41.310  20.851   5.259
30920W        W97329  15.698  29.554   2.846
30921W        W97330  25.393  24.520   0.438
30922W        W97331  33.124  27.117  13.957
30923W        W97332  10.454  31.808  11.890
30924W        W97333   3.424  25.951   4.326
30925W        W97334  29.959  32.868   4.108
30926W        W97335   9.325  21.103  14.062
30927W        W97336   8.378   9.865   4.937
30928W        W97337   5.309   5.740  11.437
30929W        W97338  38.656  28.084  12.119
30930W        W97339  32.171  39.376  12.938
30931W        W97340  40.332  42.455   3.236
30932W        W97341  40.446  38.983   2.880
30933W        W97342  28.180  44.010   0.028
30934W        W97343  31.494  24.480  11.914
30935W        W97344  36.982   2.320  13.825
30936W        W97345  10.603   8.431   1.739
30937W        W97346  10.970  26.034  11.717
30938W        W97347  18.529  34.124  13.659
30939W        W97348  15.591  22.576  11.056
30940W        W97349  14.700   4.601   0.764
30941W        W97350  39.360  16.251   0.003
30942W        W97351  33.184  32.481  11.409
30943W        W97352  28.048  40.270  13.409
30944W        W97353   9.251  36.423   1.013
30945W        W97354   2.158  34.137  13.419
30946W        W97355  27.234   1.188  12.520
30947W        W97356  14.238  26.686   5.148
30948W        W97357  21.543   2.922  12.470
30949W        W97358  10.913  26.007  13.141
30950W        W97359  24.032  38.575  12.599
30951W        W97360   8.814  44.291   2.913
30952W        W97361   5.221  12.258  10.790
30953W        W97362   0.839   6.061   3.130
30954W        W97363  14.514   1.392  10.480
30955W        W97364  44.235  33.523  14.819
30956W        W97365  37.120  16.235   2.100
30957W        W97366  11.621   4.850  11.529
30958W        W97367   8.659  39.379  13.255
30959W        W97368   9.761  24.701   2.780
30960W        W97369  26.828  24.009   1.151
30961W        W97370  15.893  22.132   3.395
30962W        W97371  43.973   8.973  11.962
30963W        W97372  44.388   6.935  13.167
30964W        W97373  29.973  34.236   1.203
30965W        W97374   3.423  37.951  13.424
30966W        W97375  13.603  25.122  11.096
30967W        W97376   8.881  32.088   1.052
30968W        W97377  30.874  26.444  13.062
30969W        W97378  16.693  40.859   4.659
30970W        W97379  43.773  25.905  12.909
30971W        W97380  37.707  26.945  12.767
30972W        W97381  23.531  28.560   3.701
30973W        W97382   3.957   5.254  14.459
30974W        W97383   1.687  21.060  11.964
30975W        W97384  17.069  17.496   4.599
30976W        W97385  22.125  22.324   0.768
30977W        W97386  31.364  20.571   4.154
30978W        W97387  22.602   3.189   0.803
30979W        W97388   0.961  31.624   3.577
30980W        W97389  22.556  26.963  14.945
30981W        W97390  34.329  10.039  11.466
30982W        W97391  10.472  12.775   1.633
30983W        W97392  25.915  37.599  12.618
30984W        W97393  19.738   2.887   3.198
30985W        W97394  17.150   3.264   4.238
30986W        W97395  40.590  38.898  13.119
30987W        W97396  14.463  44.984  12.993
30988W        W97397  21.262  32.373   3.567
30989W        W97398  28.025  41.033   1.421
30990W        W97399  11.183  13.605  14.565
30991W        W97400   4.779  31.480   4.075
30992W        W97401  43.091  27.470  10.702
30993W        W97402   7.152  24.217   2.270
30994W        W97403   6.369  14.792  12.517
30995W        W97404  20.762  35.405   0.297
30996W        W97405  18.733   0.273   4.361
30997W        W97406   5.302  33.086   4.516
30998W        W97407  35.053  44.214   1.321
30999W        W97408  40.651   5.510  12.821
31000W        W97409  40.468  25.451   4.187
31001W        W97410  22.572  13.803  13.983
31002W        W97411  16.697   3.837   0.952
31003W        W97412  23.350  31.323   0.010
31004W        W97413  28.793  16.343  12.053
31005W        W97414  30.446   0.436   0.477
31006W        W97415  23.282  16.269   3.504
31007W        W97416  19.761  31.444  10.859
31008W        W97417  10.743  37.401   0.055
31009W        W97418  29.095  17.086   1.108
31010W        W97419  26.628  24.538  14.805
31011W        W97420  43.384  12.867  13.085
31012W        W97421  34.124  10.317  13.525
31013W        W97422  14.889  11.563   1.709
31014W        W97423  16.185   1.971  13.950
31015W        W97424  29.534  33.537   3.171
31016W        W97425  30.433   7.315  11.592
31017W        W97426  27.985  36.443  11.905
31018W        W97427  21.319  27.812  14.393
31019W        W97428  42.296  16.720  13.665
31020W        W97429   6.873  19.007   4.016
31021W        W97430   5.929  12.762   0.883
31022W        W97431   4.209  22.008   3.511
31023W        W97432  10.280  38.172  13.784
31024W        W97433  37.973  19.800  14.996
31025W        W97434  44.503   9.126   3.240
31026W        W97435  20.354   2.811   0.971
31027W        W97436  31.731  22.300  13.453
31028W        W97437   6.012  20.173   3.209
31029W        W97438   6.279  36.824   0.775
31030W        W97439  11.767  40.325  11.156
31031W        W97440  21.036  19.746  14.614
31032W        W97441  19.566  17.358  12.067
31033W        W97442   9.439  36.559   0.101
31034W        W97443  15.266  15.805  10.780
31035W        W97444  20.714   1.419   2.432
31036W        W97445   5.169  10.839  11.876
31037W        W97446  24.959  37.800  10.558
31038W        W97447  30.728  35.527  11.569
31039W        W97448   2.258  42.067  13.626
31040W        W97449  10.713  17.165  11.259
31041W        W97450  25.739   4.709   3.168
31042W        W97451  30.464  33.401   3.869
31043W        W97452  10.597  30.145   9.795
31044W        W97453  44.418  44.169   1.336
31045W        W97454  16.842  20.744  14.424
31046W        W97455  10.561  24.032  11.457
31047W        W97456  34.041  12.696  14.962
31048W        W97457  30.676  27.510   2.711
31049W        W97458  23.906   7.641  14.416
31050W        W97459   3.477  33.999  10.689
31051W        W97460  19.608  34.593   3.175
31052W        W97461  43.781   6.625  10.695
31053W        W97462   2.498  11.440  11.090
31054W        W97463  31.458  37.531   0.464
31055W        W97464   7.330  39.866   1.347
31056W        W97465  22.781  40.387   0.925
31057W        W97466  21.517   2.599   2.672
31058W        W97467  22.943  28.040   2.168
31059W        W97468   2.892  42.355   4.508
31060W        W97469  33.630  17.738   1.445
31061W        W97470  23.661  44.867  10.827
31062W        W97471   4.308  11.827   2.885
31063W        W97472  14.307  16.546  10.953
31064W        W97473  36.833   2.052  12.864
31065W        W97474   4.903  18.538  12.084
31066W        W97475  38.596   9.211  11.698
31067W        W97476   3.825  25.006  13.327
31068W        W97477  42.900  35.830  13.431
31069W        W97478  23.152  16.519  12.589
31070W        W97479  42.324  30.764  12.505
31071W        W97480   8.675  36.853   2.419
31072W        W97481  34.542  23.129  13.867
31073W        W97482  16.513  14.536   1.924
31074W        W97483  24.796  33.127  11.129
31075W        W97484  43.025   5.845  13.333
31076W        W97485   2.674  26.773   1.760
31077W        W97486  31.154  38.018   4.680
31078W        W97487  22.708   4.808  12.879
31079W        W97488  36.834   0.740   3.739
31080W        W97489  26.762  35.031  12.511
31081W        W97490   9.608  43.399  14.489
31082W        W97491  16.227  15.307   0.137
31083W        W97492   8.231  15.333  14.765
31084W        W97493   1.438  20.058   2.795
31085W        W97494  39.197  33.772  10.975
31086W        W97495   2.228  11.368   1.916
31087W        W97496  12.192  24.931  11.858
31088W        W97497  18.295  14.847   0.634
31089W        W97498  41.465   2.272   3.850
31090W        W97499   9.218   6.924  12.606
31091W        W97500  11.465  28.800   0.659
31092W        W97501  42.693  29.840   1.720
31093W        W97502   7.660  12.319  12.860
31094W        W97503  33.921  37.965   4.542
31095W        W97504  24.978  11.291  12.565
31096W        W97505  27.746   4.432  14.445
31097W        W97506  10.292   0.865  11.679
31098W        W97507   6.866  16.098   3.691
31099W        W97508  26.650  28.242  13.415
31100W        W97509  25.428  33.543   1.202
31101W        W97510  23.248  37.954  11.977
31102W        W97511  24.579   7.799   1.742
31103W        W97512  42.603  11.449  11.194
31104W        W97513  25.576   3.774   2.668
31105W        W97514  42.185  44.259  11.129
31106W        W97515  41.269  42.977   4.078
31107W        W97516  33.680  34.912   1.248
31108W        W97517  16.234   3.819   0.403
31109W        W97518   1.663  11.254  14.208
31110W        W97519   3.306  16.166  13.321
31111W        W97520  25.486  27.102  14.316
31112W        W97521  18.593  11.797   3.654
31113W        W97522  29.507  17.034  14.351
31114W        W97523  22.592   1.339   2.785
31115W        W97524  21.857  44.933  11.611
31116W        W97525  21.386  36.774   4.268
31117W        W97526  43.317  23.595  10.253
31118W        W97527  15.028   6.369   2.547
31119W        W97528  29.120  20.787   0.832
31120W        W97529  15.542  16.987  12.556
31121W        W97530  26.660  36.272   5.051
31122W        W97531  11.078   4.240   0.962
31123W        W97532  16.028  19.552   0.470
31124W        W97533  34.864  44.450  12.277
31125W        W97534   6.790  37.066   0.332
31126W        W97535   7.659   6.014   0.376
31127W        W97536  13.315  29.128  14.918
31128W        W97537  23.966  13.312  12.406
31129W        W97538  36.636  26.517  14.891
31130W        W97539  23.974  17.007   0.208
31131W        W97540  18.921  22.288  11.638
31132W        W97541  16.821  22.868  14.928
31133W        W97542  10.328  35.998   4.640
31134W        W97543  39.503  42.957  11.229
31135W        W97544  37.604  21.680  11.898
31136W        W97545  32.445  10.524  11.381
31137W        W97546  31.917  41.100   2.830
31138W        W97547   5.435  26.097  12.587
31139W        W97548  14.241   0.241   9.730
31140W        W97549  25.512  30.082   3.648
31141W        W97550   9.705   5.477   2.321
31142W        W97551  29.892  28.202  14.577
31143W        W97552   9.252  19.667  12.606
31144W        W97553  12.229  36.065   4.220
31145W        W97554  24.597   3.078   2.752
31146W        W97555  41.869  41.230   2.117
31147W        W97556  15.788  25.007   1.882
31148W        W97557  25.374  40.326  13.799
31149W        W97558  43.086  14.380   2.671
31150W        W97559  25.737  28.296   1.645
31151W        W97560  16.186  44.582  12.860
31152W        W97561  28.449  43.615  10.616
31153W        W97562  37.603  32.932  14.752
31154W        W97563  42.557  20.190   4.357
31155W        W97564  30.356  31.585   3.650
31156W        W97565  12.562  33.977   4.446
31157W        W97566  20.204   5.328   4.208
31158W        W97567  40.130  42.084   0.794
31159W        W97568  28.033  27.213   4.828
31160W        W97569  36.395  37.067   3.790
31161W        W97570  33.613  18.541   3.311
31162W        W97571  17.752  42.568   3.057
31163W        W97572  32.003   0.016  11.572
31164W        W97573  16.253  42.733   0.770
31165W        W97574  44.862  18.839  12.926
31166W        W97575  21.188  43.335   2.775
31167W        W97576  33.857   0.897  12.390
31168W        W97577  43.435  44.918   4.462
31169W        W97578  33.535  17.315   2.911
31170W        W97579  41.758  19.482   0.300
31171W        W97580  43.277  33.034   2.201
31172W        W97581  43.829  33.386   4.660
31173W        W97582  25.109   7.634  11.591
31174W        W97583  15.252  33.443   1.020
31175W        W97584  38.976  17.358  10.622
31176W        W97585  20.206  16.197   0.482
31177W        W97586  30.902  10.369   2.102
31178W        W97587  36.589  30.272  10.288
31179W        W97588  42.936  34.294  11.005
31180W        W97589  12.706   5.112  10.926
31181W        W97590   4.643   3.020  14.260
31182W        W97591   4.183  28.049   2.538
31183W        W97592  32.461  23.980   2.758
31184W        W97593   8.997  21.515   2.421
31185W        W97594  31.209  12.918   3.657
31186W        W97595  18.050  14.303  10.834
31187W        W97596  19.178  31.777   4.248
31188W        W97597  18.128  20.724  12.441
31189W        W97598  36.278   1.423  10.707
31190W        W97599  31.437  11.028   3.246
31191W        W97600  24.770   8.756   3.260
31192W        W97601  38.720  36.574  14.985
31193W        W97602  27.497  31.421  11.815
31194W        W97603  25.675   0.434   2.339
31195W        W97604  22.320  23.998  11.536
31196W        W97605  24.490   3.053  10.692
31197W        W97606   6.481  27.854   1.888
31198W        W97607  35.988  33.553   5.040
31199W        W97608   1.919  22.246  14.809
31200W        W97609  18.936  12.553   0.867
31201W        W97610  11.422  33.183  12.999
31202W        W97611  40.952  27.184   4.921
31203W        W97612  29.708   8.880   0.104
31204W        W97613  38.426  34.161  14.592
31205W        W97614  10.184  26.393  13.682
31206W        W97615  39.392  38.539  11.493
31207W        W97616  44.218   2.532   5.143
31208W        W97617  34.123   8.909  10.991
31209W        W97618  40.821  43.736   2.326
31210W        W97619  43.889  41.555   3.628
31211W        W97620   2.815  12.396   0.397
31212W        W97621  30.310  27.694   2.375
31213W        W97622  33.713   2.268  12.597
31214W        W97623  30.795  42.271  13.841
31215W        W97624  33.681  21.166   1.832
31216W        W97625  11.245  20.080   0.728
31217W        W97626  11.558  38.549   3.640
31218W        W97627  16.665  37.651  13.434
31219W        W97628  30.711   7.575   2.905
31220W        W97629   5.253  11.220   4.280
31221W        W97630  41.891  44.549   4.745
31222W        W97631  11.361  28.174   3.372
31223W        W97632  38.030  37.410  14.046
31224W        W97633   1.028   5.307  11.212
31225W        W97634  24.402  20.850   1.415
31226W        W97635  36.058  21.617   0.438
31227W        W97636  30.921  10.535   3.748
31228W        W97637   4.866  20.577   0.074
31229W        W97638  44.816  18.519  10.963
31230W        W97639   9.281  28.596   3.707
31231W        W97640  21.117  17.286  12.491
31232W        W97641  42.476  35.549  12.651
31233W        W97642  17.044  26.020   1.801
31234W        W97643  26.638   1.752   4.621
31235W        W97644  33.929   3.832   2.822
31236W        W97645  11.675  18.733   1.426
31237W        W97646  22.617  35.931  10.763
31238W        W97647   1.542  42.942   1.895
31239W        W97648  39.225  36.285   1.721
31240W        W97649  22.122  35.036   3.404
31241W        W97650  44.402  43.896  14.059
31242W        W97651  18.753  38.419  14.457
31243W        W97652  21.100   8.898   4.270
31244W        W97653  19.517  12.471  11.560
31245W        W97654  16.771  24.050  13.781
31246W        W97655  21.633   0.347  13.940
31247W        W97656  44.055   4.356   3.278
31248W        W97657  41.668  38.307   0.448
31249W        W97658  10.392  11.548  11.029
31250W        W97659  35.475   9.329  13.872
31251W        W97660  28.581  14.712   0.903
31252W        W97661  35.852  14.744  13.473
31253W        W97662   9.390   0.366  13.077
31254W        W97663  12.867   4.865   1.803
31255W        W97664  36.005  36.862  12.596
31256W        W97665  26.616  40.465   2.328
31257W        W97666  14.993  23.939   3.722
31258W        W97667  31.549  40.802   2.130
31259W        W97668  13.852  30.674  12.942
31260W        W97669  11.992  22.669   9.933
31261W        W97670  24.012  25.995   4.140
31262W        W97671  35.852  28.110   3.341
31263W        W97672  17.192  34.631  14.522
31264W        W97673  40.102   7.965   0.863
31265W        W97674   1.905  34.090  12.111
31266W        W97675  37.378  17.956  13.853
31267W        W97676  27.241  39.940   0.449
31268W        W97677  31.296  43.572  13.492
31269W        W97678   5.361  44.848  13.513
31270W        W97679  40.870  31.335   2.318
31271W        W97680  33.011   9.766   0.222
31272W        W97681  43.407   0.937   0.423
31273W        W97682  23.079  11.390   4.471
31274W        W97683   0.425  10.336   1.322
31275W        W97684  12.106  25.671   2.309
31276W        W97685  24.960  37.827   1.750
31277W        W97686  26.677  36.445   2.916
31278W        W97687  39.891   4.821   3.387
31279W        W97688  15.585  15.591  14.528
31280W        W97689  32.257  20.934  10.297
31281W        W97690  34.852  10.875  11.075
31282W        W97691  18.127  40.992  11.421
31283W        W97692  28.014   4.395   4.641
31284W        W97693   2.881  15.366   3.658
31285W        W97694  38.578   6.354   2.235
31286W        W97695   9.445  28.032   0.909
31287W        W97696  12.885   1.114   3.254
31288W        W97697  18.904   3.143  13.074
31289W        W97698  42.897  11.293   4.513
31290W        W97699   1.103  40.462   4.756
31291W        W97700  14.470  13.731  11.953
31292W        W97701  38.553  31.959   2.348
31293W        W97702  23.926  23.988  12.452
31294W        W97703  18.570   1.480   5.018
31295W        W97704  26.663  27.207   2.234
31296W        W97705  15.565   0.231   4.192
31297W        W97706  14.437  40.473  10.723
31298W        W97707   4.190  17.056   2.840
31299W        W97708  10.741  30.513   2.683
31300W        W97709   9.770  19.101  12.971
31301W        W97710  41.392   7.816   1.040
31302W        W97711   4.934  14.749  14.492
31303W        W97712  16.327  14.752   0.447
31304W        W97713  36.443  29.909  11.569
31305W        W97714  21.514   5.221   1.887
31306W        W97715  21.321  17.865   2.344
31307W        W97716  30.279  43.920  10.442
31308W        W97717  26.000  42.759  11.565
31309W        W97718  12.251   9.254  10.795
31310W        W97719  33.361  11.619   3.650
31311W        W97720  11.181   9.129   2.251
31312W        W97721  29.512  32.547   1.427
31313W        W97722  26.381  27.096  11.567
31314W        W97723  33.745  43.273  14.322
31315W        W97724  25.541  13.344  13.079
31316W        W97725  38.980  21.966   2.228
31317W        W97726  34.145  13.373   2.601
31318W        W97727  31.007  25.936   3.695
31319W        W97728  11.531  42.499   1.777
31320W        W97729  24.605  10.744  13.874
31321W        W97730  42.836  11.578   1.372
31322W        W97731   7.734  12.892   1.781
31323W        W97732  20.302   4.151  11.117
31324W        W97733  14.679  22.713  14.682
31325W        W97734   0.689  26.185  14.339
31326W        W97735  39.365  24.769   1.044
31327W        W97736  42.847  12.251  13.151
31328W        W97737   4.157   1.548   0.312
31329W        W97738   4.993   7.252  13.508
31330W        W97739   0.300   9.196  12.119
31331W        W97740  20.513  32.960   4.241
31332W        W97741   9.880  26.625   9.881
31333W        W97742  39.884  44.621   4.096
31334W        W97743  37.556   7.510  13.905
31335W        W97744  19.606  10.912  10.732
31336W        W97745   0.273   4.201  12.493
31337W        W97746   7.664   9.907   2.777
31338W        W97747  24.096  26.554  13.597
31339W        W97748  43.917  27.664   0.258
31340W        W97749  30.475  44.535   4.199
31341W        W97750  21.269  14.669  14.784
31342W        W97751   7.753  30.218  11.562
31343W        W97752  34.790  17.023  12.022
31344W        W97753  44.656  19.461  10.603
31345W        W97754  19.570  34.980   1.117
31346W        W97755  24.103  24.047  13.416
31347W        W97756  29.411  36.578   1.710
31348W        W97757  16.546  26.962  11.598
31349W        W97758  35.117  18.764   3.292
31350W        W97759  20.146  25.882  12.409
31351W        W97760  31.466  44.884   2.764
31352W        W97761  31.505  19.995  13.550
31353W        W97762   4.673  44.311   2.649
31354W        W97763  33.660  14.817   1.544
31355W        W97764  27.982  10.248  13.764
31356W        W97765   3.784  30.898   1.780
31357W        W97766   1.516   8.979  12.179
31358W        W97767  27.541  31.133  10.877
31359W        W97768  36.024  37.406  11.844
31360W        W97769  41.243  26.731   1.347
31361W        W97770  33.018   3.270   9.817
31362W        W97771  37.638   0.650  11.000
31363W        W97772  26.907  44.815  10.685
31364W        W97773  29.206  34.439   3.556
31365W        W97774  13.192  33.143   4.278
31366W        W97775  43.893  14.467  11.588
31367W        W97776   9.685  31.926   1.427
31368W        W97777  34.979  32.985   0.971
31369W        W97778  32.366  23.900   3.457
31370W        W97779  44.204  31.054  14.384
31371W        W97780  19.733  27.881   3.742
31372W        W97781  34.115  22.407   3.665
31373W        W97782  30.335  33.871   1.388
31374W        W97783  24.702   3.355   4.074
31375W        W97784  21.211  44.346  13.098
31376W        W97785  42.514  31.956   4.280
31377W        W97786  27.199  41.293   0.873
31378W        W97787  11.594  17.110   3.328
31379W        W97788  39.879   9.292   3.583
31380W        W97789   8.736   2.434  11.600
31381W        W97790  29.346   4.792  10.197
31382W        W97791  25.743   0.845   1.282
31383W        W97792  39.523  10.199   3.211
31384W        W97793  36.806  11.397  14.885
31385W        W97794  29.911   6.335   3.161
31386W        W97795  19.321  37.359   4.185
31387W        W97796  32.212  20.638  14.259
31388W        W97797  11.732   7.818  13.904
31389W        W97798  20.165  38.332  14.493
31390W        W97799  21.272  16.700  10.691
31391W        W97800  39.086  31.311  11.107
31392W        W97801  16.336  10.900   3.422
31393W        W97802   8.731  10.587   2.785
31394W        W97803  41.697   2.231  12.871
31395W        W97804  29.169  17.680  10.394
31396W        W97805  41.991  28.680   2.206
31397W        W97806  18.703  13.057   0.876
31398W        W97807  33.973   6.774   4.245
31399W        W97808  38.387  16.781   4.277
31400W        W97809  40.102  35.130  10.662
31401W        W97810   1.211  40.376  10.707
31402W        W97811   4.431  12.743   3.177
31403W        W97812  20.824  19.844   0.931
31404W        W97813  29.080  23.110  14.889
31405W        W97814   7.364  41.802   0.915
31406W        W97815   6.908  44.397  14.445
31407W        W97816   3.882  22.079   0.699
31408W        W97817  34.334  44.837   4.344
31409W        W97818  37.765  22.177   1.915
31410W        W97819  38.367  26.197   4.434
31411W        W97820  19.042  18.090   1.018
31412W        W97821  13.144  19.654  14.970
31413W        W97822   1.239   0.666  14.938
31414W        W97823  43.001   0.907   1.219
31415W        W97824  41.110  15.686  10.290
31416W        W97825   7.147  20.024   2.334
31417W        W97826  11.844  17.574  14.904
31418W        W97827  26.498  35.055   1.552
31419W        W97828  27.274  22.801  12.850
31420W        W97829  39.297  29.083   2.737
31421W        W97830  12.132  18.163  11.125
31422W        W97831  22.934  15.911  14.053
31423W        W97832   5.773   1.066  13.991
31424W        W97833  12.169  24.474  13.385
31425W        W97834  31.587  27.195   4.710
31426W        W97835   5.341   6.741  12.872
31427W        W97836   6.253  14.648  13.844
31428W        W97837   7.331  32.300  12.091
31429W        W97838   6.905  36.908  12.085
31430W        W97839  41.369   3.271   4.714
31431W        W97840  20.649   6.745  10.735
31432W        W97841  20.164  21.248   2.237
31433W        W97842   8.857  16.460  14.855
31434W        W97843  29.682  38.398   1.982
31435W        W97844  34.870  15.531  12.966
31436W        W97845  28.579  19.330   3.680
31437W        W97846  32.804  37.816  11.248
31438W        W97847  13.507  42.986  14.931
31439W        W97848  40.574  16.384   4.876
31440W        W97849   6.823   4.262   1.742
31441W        W97850  43.073  22.468  11.018
31442W        W97851  28.791  24.249  14.205
31443W        W97852  16.252  30.426   0.281
31444W        W97853   6.678  44.434  13.395
31445W        W97854   2.858  13.275   4.889
31446W        W97855  38.145  39.021   4.615
31447W        W97856  31.074   6.192  12.015
31448W        W97857   8.289  11.937  12.987
31449W        W97858   9.436   0.394  14.040
31450W        W97859  25.161  34.906   0.279
31451W        W97860  38.000  43.858  14.788
31452W        W97861  13.320  22.698   4.333
31453W        W97862  18.299  15.413  10.429
31454W        W97863  34.494  39.794   0.026
31455W        W97864   9.367  11.330   2.987
31456W        W97865  11.978  26.450  10.316
31457W        W97866  27.682  34.373  14.758
31458W        W97867   8.795  41.469  11.253
31459W        W97868  19.968  13.848   0.814
31460W        W97869  14.301   4.959  10.831
31461W        W97870  40.279   9.948  13.896
31462W        W97871  15.369   0.041   3.514
31463W        W97872   0.041  41.328  14.072
31464W        W97873  28.464  27.032   0.451
31465W        W97874  12.558  22.228  10.147
31466W        W97875  24.462   1.875   1.788
31467W        W97876  23.257  41.523   2.436
31468W        W97877   3.901  10.217   3.121
31469W        W97878  18.154  43.960  10.742
31470W        W97879   7.563   5.329  12.050
31471W        W97880  10.123  35.147  12.555
31472W        W97881  44.300  33.544  11.477
31473W        W97882   2.526   4.468   1.905
31474W        W97883  31.321  15.835   0.827
31475W        W97884   2.315  21.901  13.017
31476W        W97885  35.733  42.827   4.532
31477W        W97886   3.778   5.664   4.239
31478W        W97887  18.398   7.837  12.142
31479W        W97888  32.610  12.980  10.796
31480W        W97889  10.414  42.287   1.862
31481W        W97890  37.679  32.466  12.297
31482W        W97891  25.404   5.940  14.522
31483W        W97892  23.894  29.121  13.566
31484W        W97893  23.956  18.061   9.895
31485W        W97894  26.911  32.689  13.156
31486W        W97895   6.918  31.129   0.471
31487W        W97896  29.702  13.789   2.809
31488W        W97897  13.390  29.097   1.754
31489W        W97898   1.010  12.369  11.055
31490W        W97899   0.392  15.836   4.640
31491W        W97900  22.573  22.057   0.427
31492W        W97901  42.033  40.638   2.881
31493W        W97902  21.135  35.944   2.384
31494W        W97903  13.282  12.597  11.045
31495W        W97904  38.409  43.906   2.336
31496W        W97905  44.970  36.639  12.851
31497W        W97906  34.284  25.649   0.503
31498W        W97907  39.517  25.323  13.900
31499W        W97908  26.176  16.152   2.411
31500W        W97909  11.672  23.690   1.909
31501W        W97910  24.497   9.200   0.727
31502W        W97911  42.919  40.561   1.353
31503W        W97912  11.673  12.502  10.553
31504W        W97913  44.501  30.465   4.464
31505W        W97914  19.238   1.588  13.627
31506W        W97915  10.022  44.268  12.427
31507W        W97916  28.956  36.813   4.093
31508W        W97917  20.043  17.466   4.995
31509W        W97918  22.313  27.391  13.611
31510W        W97919  31.486   0.917   2.691
31511W        W97920  39.911   3.415  13.017
31512W        W97921  15.266  34.190  10.229
31513W        W97922  20.678  23.522  11.924
31514W        W97923  21.305  12.358   2.840
31515W        W97924   1.405  22.224  14.892
31516W        W97925  43.336  38.214   2.129
31517W        W97926   4.625   6.659  11.167
31518W        W97927  14.043  19.007  14.092
31519W        W97928  43.664  37.777  13.813
31520W        W97929   9.767  25.997   4.052
31521W        W97930  16.688   6.187   1.251
31522W        W97931  22.478  24.602   9.868
31523W        W97932  28.203  12.276  14.521
31524W        W97933  24.181  20.084   2.648
31525W        W97934  12.735  22.428   2.271
31526W        W97935  38.891  33.069   3.325
31527W        W97936   4.758  23.296   0.909
31528W        W97937   8.624  30.370   4.058
31529W        W97938   8.876  35.140  14.398
31530W        W97939   4.198  13.185  11.844
31531W        W97940  28.919  19.784   0.954
31532W        W97941  21.644  29.326  14.336
31533W        W97942  29.191  28.567   2.370
31534W        W97943  14.223  21.721  12.569
31535W        W97944  12.300   3.458  14.813
31536W        W97945  44.365  37.806   1.688
31537W        W97946  17.161  19.325  12.557
31538W        W97947  25.121   0.944  12.884
31539W        W97948  22.671  20.700  11.619
31540W        W97949  41.652  11.776   1.375
31541W        W97950  30.993   4.929  12.225
31542W        W97951  18.522  10.074   0.806
31543W        W97952  20.547  31.567   1.234
31544W        W97953  39.713  17.670  14.649
31545W        W97954  33.607  26.418  12.427
31546W        W97955  40.376   7.812   1.293
31547W        W97956  40.138  13.020  12.955
31548W        W97957  43.797  20.508  11.221
31549W        W97958  28.887   0.928  12.910
31550W        W97959  16.711  24.460   4.653
31551W        W97960  10.641   6.700   4.738
31552W        W97961  41.951  17.999   5.048
31553W        W97962   6.684  19.512   0.890
31554W        W97963  26.959  28.537   0.133
31555W        W97964  34.899  12.448  10.816
31556W        W97965  41.247  15.372  12.517
31557W        W97966  29.549  37.027  13.484
31558W        W97967  24.020  10.591   4.762
31559W        W97968  17.187   1.597  10.449
31560W        W97969  25.563  35.070  10.944
31561W        W97970  41.793  44.226   0.807
31562W        W97971   3.038   7.502   1.003
31563W        W97972  24.708  44.940   2.342
31564W        W97973  23.751   8.901  11.135
31565W        W97974  33.191  39.445   0.776
31566W        W97975  29.230  12.004   2.262
31567W        W97976  43.778  32.720   3.925
31568W        W97977  24.983  23.124   4.590
31569W        W97978  39.041  12.141   1.455
31570W        W97979  17.290  39.040   0.815
31571W        W97980   0.504   9.686  12.041
31572W        W97981  13.940   1.438   9.801
31573W        W97982  12.201  27.509  14.306
31574W        W97983   4.220  31.549  14.766
31575W        W97984  43.324  36.670   2.112
31576W        W97985  39.822  14.722   2.852
31577W        W97986  22.541  16.713   2.822
31578W        W97987  41.252  30.042   3.150
31579W        W97988  33.011  36.868   0.241
31580W        W97989  11.518  41.306  11.144
31581W        W97990  27.502  30.034   2.621
31582W        W97991  24.021   1.459  11.732
31583W        W97992   2.294   4.438   3.884
31584W        W97993  12.759  22.132   0.089
31585W        W97994  38.801  26.229  11.593
31586W        W97995  30.565  15.097  13.538
31587W        W97996  44.592  41.379   0.472
31588W        W97997  12.494  36.991  14.763
31589W        W97998   7.316   1.633   4.884
31590W        W97999   2.359  13.175   1.691
31591W        W98000   1.067  40.743  11.246
31592W        W98001  34.798  42.067   3.656
31593W        W98002  17.250  37.494  12.007
31594W        W98003  36.388  44.487   1.050
31595W        W98004  11.236  23.999  12.731
31596W        W98005  31.143  35.997   2.736
31597W        W98006  38.253  24.182  11.181
31598W        W98007   7.804   4.817  12.177
31599W        W98008  41.824  33.041  10.548
31600W        W98009   0.930  41.561  13.998
31601W        W98010  30.990  42.339  12.389
31602W        W98011  19.891  43.935   1.804
31603W        W98012  36.102  28.166  12.182
31604W        W98013  28.152  31.723   1.872
31605W        W98014  20.640   9.536   2.356
31606W        W98015  36.067  34.789   5.136
31607W        W98016  19.235   8.726  13.102
31608W        W98017  36.767  42.552  12.167
31609W        W98018  23.924  13.591  14.400
31610W        W98019  26.170   6.868   4.591
31611W        W98020  40.774  30.072  10.550
31612W        W98021  25.071  12.156  10.985
31613W        W98022  12.259  43.784  14.496
31614W        W98023   9.201  19.644  11.588
31615W        W98024  22.013  32.577  10.785
31616W        W98025  13.183   2.061  14.458
31617W        W98026  11.974   7.819  13.456
31618W        W98027  15.123  11.351   0.665
31619W        W98028   2.884  32.360   1.431
31620W        W98029  33.110  29.885  11.574
31621W        W98030  14.503   5.502   1.188
31622W        W98031  34.607  30.338   3.805
31623W        W98032  32.561  13.653  11.438
31624W        W98033  44.833  43.962  11.553
31625W        W98034  19.127   7.258   3.946
31626W        W98035  12.793  19.061   5.334
31627W        W98036  40.446   0.088  12.034
31628W        W98037  21.456   7.121   1.603
31629W        W98038  41.757  42.786  11.015
31630W        W98039  12.554  27.430   0.295
31631W        W98040  21.246   1.552   3.881
31632W        W98041  30.636   8.436   4.232
31633W        W98042  14.725  15.142   3.861
31634W        W98043  13.648  41.340   1.854
31635W        W98044   6.277  12.330   0.488
31636W        W98045  40.529   6.386   3.314
31637W        W98046  40.085  42.504  14.933
31638W        W98047  12.958  44.317  12.512
31639W        W98048   0.207  40.337   0.007
31640W        W98049  34.560  31.857   2.833
31641W        W98050  38.129  12.241   0.776
31642W        W98051  31.421   5.762   3.665
31643W        W98052   9.557  20.872  10.394
31644W        W98053  13.939   4.195   0.688
31645W        W98054  31.141  14.585   2.457
31646W        W98055  12.270   5.316  11.145
31647W        W98056   2.708   5.885   4.693
31648W        W98057   9.664  25.585   3.746
31649W        W98058   7.722  26.139  13.317
31650W        W98059  34.845  37.702   3.609
31651W        W98060   6.831   8.620   1.697
31652W        W98061  32.013  25.149   1.169
31653W        W98062  22.737   0.489   2.267
31654W        W98063  23.145  43.466  13.943
31655W        W98064  12.098  37.619   0.257
31656W        W98065  16.149   2.516  12.161
31657W        W98066  35.641  15.088   4.182
31658W        W98067  41.910   6.623   2.235
31659W        W98068  37.542   1.881  12.772
31660W        W98069  43.949  26.380  12.949
31661W        W98070  34.536  11.610  14.364
31662W        W98071   6.841  35.344  12.016
31663W        W98072   7.078  20.758   4.066
31664W        W98073  29.054  20.868  11.370
31665W        W98074  39.600  30.440  10.428
31666W        W98075  35.870   1.923   3.102
31667W        W98076   7.453   0.852   1.259
31668W        W98077  15.498  15.564  13.983
31669W        W98078  42.264  42.005  14.367
31670W        W98079  38.445  27.425  12.963
31671W        W98080  44.261  32.248   1.827
31672W        W98081  25.462  17.148   2.153
31673W        W98082   4.511  12.719  11.240
31674W        W98083   2.737  35.129   0.784
31675W        W98084   8.253  42.475   0.199
31676W        W98085  31.951  33.022   2.166
31677W        W98086  19.799  10.160  14.850
31678W        W98087   6.993  29.654  14.446
31679W        W98088  23.358  37.946   3.768
31680W        W98089  26.404   6.697  10.333
31681W        W98090  29.986  28.690  14.444
31682W        W98091   0.915  25.303  14.422
31683W        W98092   7.303  17.271   0.253
31684W        W98093  10.170  13.142   1.390
31685W        W98094  37.403   4.212   2.714
31686W        W98095  10.299  12.756  10.416
31687W        W98096  28.988  42.001   0.991
31688W        W98097  15.555  18.553   0.017
31689W        W98098  29.226   6.964   2.115
31690W        W98099   0.757  11.305   1.850
31691W        W98100   1.901  10.622   0.025
31692W        W98101  38.873  20.908   3.092
31693W        W98102  40.553  42.465   1.724
31694W        W98103   0.072  13.668   4.777
31695W        W98104  14.541  11.000   0.079
31696W        W98105   8.879  18.357   1.375
31697W        W98106  25.738  37.951   0.290
31698W        W98107  17.988  31.529  12.100
31699W        W98108  11.843   6.502  10.052
31700W        W98109   1.895  39.314   3.073
31701W        W98110   7.878   9.794   4.117
31702W        W98111  32.402  41.083  12.541
31703W        W98112  18.497  35.048   5.019
31704W        W98113  28.525  17.530  14.363
31705W        W98114   6.989  19.364  14.323
31706W        W98115   7.434  38.111   0.316
31707W        W98116  24.914  43.063  14.471
31708W        W98117  10.744   6.858   4.075
31709W        W98118  32.595  43.926   4.091
31710W        W98119   3.036  18.646   2.695
31711W        W98120  36.369  10.451  10.726
31712W        W98121  16.906  29.127  12.972
31713W        W98122  24.001  43.326   3.366
31714W        W98123  12.483  27.538   1.695
31715W        W98124  16.248  41.645  11.011
31716W        W98125   8.399  20.570   1.040
31717W        W98126  33.588  11.187  11.163
31718W        W98127  37.314  10.846   3.654
31719W        W98128   8.648  43.122   1.869
31720W        W98129  11.806  35.387   3.546
31721W        W98130  34.929  32.591  10.321
31722W        W98131  40.288  38.342  11.235
31723W        W98132   2.382  26.159  14.106
31724W        W98133   8.634  22.139  10.726
31725W        W98134  16.982  35.837  10.675
31726W        W98135   3.830  29.248   0.833
31727W        W98136  19.323  41.881   4.160
31728W        W98137   6.323  19.334  12.167
31729W        W98138  16.123  15.626   1.929
31730W        W98139  17.265  37.292  13.943
31731W        W98140  13.290   5.419   1.055
31732W        W98141   2.191  36.489   2.765
31733W        W98142  40.204  35.360  11.947
31734W        W98143  41.268  25.310  13.877
31735W        W98144  18.082   1.360  14.450
31736W        W98145  21.388  18.708   0.972
31737W        W98146  34.278   8.960   2.446
31738W        W98147  29.083  12.072   4.584
31739W        W98148  35.788  35.114   0.536
31740W        W98149  29.422  15.716  10.703
31741W        W98150  36.136   3.681   0.635
31742W        W98151  30.827  14.996   0.520
31743W        W98152  17.416  21.539   5.293
31744W        W98153  34.691  25.669  11.695
31745W        W98154  10.762  35.578   1.689
31746W        W98155  34.563  38.281  11.437
31747W        W98156  19.318  20.034   3.631
31748W        W98157   2.105  30.076   4.196
31749W        W98158   7.199   0.192  14.347
31750W        W98159   0.138  24.672   2.300
31751W        W98160  18.671  18.691   3.654
31752W        W98161   9.362  12.155   2.883
31753W        W98162   7.426   6.232  13.952
31754W        W98163  13.640  14.284   4.246
31755W        W98164  15.184   5.398  14.523
31756W        W98165  17.310  23.316   4.560
31757W        W98166  12.615  42.914   2.361
31758W        W98167  41.590  18.701  10.303
31759W        W98168  12.308  44.317   2.235
31760W        W98169   1.458  32.476   1.197
31761W        W98170  28.985  31.831  14.459
31762W        W98171  43.895  17.557  12.520
31763W        W98172   9.107  32.645  12.471
31764W        W98173  18.254  16.773  12.080
31765W        W98174  19.325   4.181   1.331
31766W        W98175  33.847  29.323  11.536
31767W        W98176  43.664  35.542   3.698
31768W        W98177   4.208  19.805  10.705
31769W        W98178  42.032  26.688   2.349
31770W        W98179  15.261  18.521   4.565
31771W        W98180   1.650  31.477   0.230
31772W        W98181  29.877  15.807  12.043
31773W        W98182  14.812  38.589  14.033
31774W        W98183  24.092  44.045   2.894
31775W        W98184  11.260  25.897   1.463
31776W        W98185  40.326  11.182   4.630
31777W        W98186  31.332  26.093  13.388
31778W        W98187  36.938  17.039   2.151
31779W        W98188  42.793   9.288   1.420
31780W        W98189  15.100  39.886  14.963
31781W        W98190   5.879  31.110  11.863
31782W        W98191  32.190  25.048  14.912
31783W        W98192  15.164  22.863   9.872
31784W        W98193  35.096  30.156  13.082
31785W        W98194  16.311  44.830   4.575
31786W        W98195  26.157  22.506  14.379
31787W        W98196  32.046  36.409  11.916
31788W        W98197  39.668  15.677  13.175
31789W        W98198   5.349   5.762  13.812
31790W        W98199  27.104  10.096   0.916
31791W        W98200  44.218  18.268  12.082
31792W        W98201  25.690  25.251  11.895
31793W        W98202  37.276  43.862   1.789
31794W        W98203   3.937  38.863  12.610
31795W        W98204  38.861  37.436   0.655
31796W        W98205  16.285   3.738   2.997
31797W        W98206  27.049   2.998   1.042
31798W        W98207  27.438  40.830   2.663
31799W        W98208  22.022  35.639  13.385
31800W        W98209   6.637  43.537  11.677
31801W        W98210  34.104  39.447  10.569
31802W        W98211   9.735   9.306  13.320
31803W        W98212   6.835  24.387  12.430
31804W        W98213  15.740  19.952   9.766
31805W        W98214  23.053  15.273   1.676
31806W        W98215  28.484  27.282  13.953
31807W        W98216   1.043  30.657  14.447
31808W        W98217   9.667   4.812   4.395
31809W        W98218  35.438  34.509   2.582
31810W        W98219   3.215  37.486   1.795
31811W        W98220  41.434  10.013   3.174
31812W        W98221  23.110  42.197   0.782
31813W        W98222  26.653  39.571   3.234
31814W        W98223  41.392  42.589   2.679
31815W        W98224   5.870  23.021  10.701
31816W        W98225  44.329  31.686   2.847
31817W        W98226  41.836  33.978   4.280
31818W        W98227  23.212   7.142  10.946
31819W        W98228  22.634  19.136  13.863
31820W        W98229   9.627  26.050   1.669
31821W        W98230   1.241   3.291  14.416
31822W        W98231  39.867   5.214  10.711
31823W        W98232  33.021  12.125  12.510
31824W        W98233  23.722  37.207   1.425
31825W        W98234   0.810   6.546   4.037
31826W        W98235   4.513   2.481   0.471
31827W        W98236   1.780  40.131   1.492
31828W        W98237  17.642  22.233  13.915
31829W        W98238  23.749  32.510   0.540
31830W        W98239  20.173  12.104   0.968
31831W        W98240  18.198  43.797   0.444
31832W        W98241   3.337  40.465  11.739
31833W        W98242  11.569  18.263   1.674
31834W        W98243  43.428  12.919   0.039
31835W        W98244  26.481  14.297   2.083
31836W        W98245  31.470   8.871  11.549
31837W        W98246   5.957  36.873  11.623
31838W        W98247  21.767  25.269   2.755
31839W        W98248  26.549  44.958  14.703
31840W        W98249  26.293  43.708   1.168
31841W        W98250  43.366  18.007  10.402
31842W        W98251  40.568  25.013   3.900
31843W        W98252   6.653  40.487   2.326
31844W        W98253  14.657  21.568  11.765
31845W        W98254  44.755  19.030   0.772
31846W        W98255  33.646  15.223  10.696
31847W        W98256  16.639  26.928   4.897
31848W        W98257   0.421  16.142  11.981
31849W        W98258  42.474   4.327   1.334
31850W        W98259  10.913  44.764  11.036
31851W        W98260  32.622  13.874   2.069
31852W        W98261  23.116  31.843  13.465
31853W        W98262  27.008  24.939   1.239
31854W        W98263   5.441   1.790  10.537
31855W        W98264  32.257  36.314   3.336
31856W        W98265  18.576  22.428   5.422
31857W        W98266  18.306   4.235  12.484
31858W        W98267   8.432  24.793  13.417
31859W        W98268  30.444  18.220   2.375
31860W        W98269  34.957  38.526  11.679
31861W        W98270  42.499  23.702   3.368
31862W        W98271  19.903  10.634   2.753
31863W        W98272  38.042  41.309  10.429
31864W        W98273   4.513  39.873   0.878
31865W        W98274  44.980  20.182   3.583
31866W        W98275  13.663  13.533  12.203
31867W        W98276  13.333   1.298  12.527
31868W        W98277   2.989   0.025   3.915
31869W        W98278  37.571  16.767  11.191
31870W        W98279  17.907  26.569   0.041
31871W        W98280  16.298  29.579   0.096
31872W        W98281  12.473  24.391  12.965
31873W        W98282  19.944   3.974   0.130
31874W        W98283  18.872  11.233  12.567
31875W        W98284  25.164  14.150   3.691
31876W        W98285   9.808  24.251  13.586
31877W        W98286  31.985  34.324   0.470
31878W        W98287  32.751   3.578  13.398
31879W        W98288  35.551  26.939  11.590
31880W        W98289  35.499  25.945   3.748
31881W        W98290  37.680   3.389  12.073
31882W        W98291   8.397  35.452   1.791
31883W        W98292   1.026   6.406  10.837
31884W        W98293  35.048  27.942  11.199
31885W        W98294  29.066  37.682  13.592
31886W        W98295  43.147  11.099   4.912
31887W        W98296  43.916  29.713  13.539
31888W        W98297  40.441  15.828  12.429
31889W        W98298  39.606  27.953  11.786
31890W        W98299  15.981  42.809  14.781
31891W        W98300  16.624  27.582   0.735
31892W        W98301  24.622  23.689   4.071
31893W        W98302  17.336  35.972  12.957
31894W        W98303  44.275   4.427   1.946
31895W        W98304   3.732  31.368  13.325
31896W        W98305  13.766  15.203   4.700
31897W        W98306  18.167  19.562   4.716
31898W        W98307   0.361   9.445  13.478
31899W        W98308  26.419  38.930   4.097
31900W        W98309  15.352  34.485  14.923
31901W        W98310  30.519  43.836   0.274
31902W        W98311  24.030   8.305   0.228
31903W        W98312  43.578  18.536  11.836
31904W        W98313  19.272  27.073  12.084
31905W        W98314  18.982  16.385  13.426
31906W        W98315  32.856  11.805  11.064
31907W        W98316  32.533  17.110   1.899
31908W        W98317  43.923  20.242   2.777
31909W        W98318  26.940  31.475   4.626
31910W        W98319  37.074  39.896   2.133
31911W        W98320  22.171  44.322  13.445
31912W        W98321   3.229   9.549  12.695
31913W        W98322  33.069  30.928  11.545
31914W        W98323  18.694   8.951   3.306
31915W        W98324  31.056  38.172  13.613
31916W        W98325  12.403  42.668   4.291
31917W        W98326  19.132  25.585   4.668
31918W        W98327  13.979   8.384  10.796
31919W        W98328  31.575  41.560   0.002
31920W        W98329  13.893   7.782   3.590
31921W        W98330  13.888  14.109   2.317
31922W        W98331  18.784  27.182   3.726
31923W        W98332  26.520  44.395  11.277
31924W        W98333  18.832   4.952  12.074
31925W        W98334  44.970  23.574   0.299
31926W        W98335   0.991  14.377  12.451
31927W        W98336  19.990   0.346  10.936
31928W        W98337  19.286   8.307  12.299
31929W        W98338  22.696   9.641  12.065
31930W        W98339  27.094  36.995  11.987
31931W        W98340  42.597  24.204   3.355
31932W        W98341  25.873  27.789   2.142
31933W        W98342  22.833  23.001   2.361
31934W        W98343  33.326  25.523   3.338
31935W        W98344  31.455  41.565  12.518
31936W        W98345  14.191  33.517   2.527
31937W        W98346  11.271  22.139  14.899
31938W        W98347  33.047  25.728  12.617
31939W        W98348   5.231  15.636   4.657
31940W        W98349   2.286  35.513   0.304
31941W        W98350  28.697  25.101   2.713
31942W        W98351  15.630  37.923   2.591
31943W        W98352   3.739  44.367   4.381
31944W        W98353   2.841  43.787   3.558
31945W        W98354  43.960  34.933  12.797
31946W        W98355  37.087  15.207   9.756
31947W        W98356  32.754  35.400  11.162
31948W        W98357   7.310  12.488  11.068
31949W        W98358   1.456  38.974  12.635
31950W        W98359  34.843  27.238   2.231
31951W        W98360  15.840   7.062   9.939
31952W        W98361   5.509  14.653  12.108
31953W        W98362  20.314  42.574   0.427
31954W        W98363  43.507  23.362   4.058
31955W        W98364  36.822  38.362   3.734
31956W        W98365  24.643  34.246  12.866
31957W        W98366   3.291   0.545   4.759
31958W        W98367  29.939   6.293  11.430
31959W        W98368  44.371  39.798  10.834
31960W        W98369   1.379  27.617   2.483
31961W        W98370  37.402  27.960  12.873
31962W        W98371  33.024  14.745  14.414
31963W        W98372  21.112  43.472  10.560
31964W        W98373  11.378  39.901  14.978
31965W        W98374   5.357  27.138   0.785
31966W        W98375  42.040  16.899   2.693
31967W        W98376  16.635  33.379  12.296
31968W        W98377  11.862  43.793   1.855
31969W        W98378  20.879  32.138   3.837
31970W        W98379  42.343  28.101  12.363
31971W        W98380  19.126  38.804  14.454
31972W        W98381  14.772  37.549  14.247
31973W        W98382   3.476  41.038   1.827
31974W        W98383   8.610  43.536  11.866
31975W        W98384  35.216  44.504   0.930
31976W        W98385  30.058   8.924   2.409
31977W        W98386  33.860  42.129  11.948
31978W        W98387   1.212  32.162   1.760
31979W        W98388   3.671  28.123  14.297
31980W        W98389  17.137   3.802  14.989
31981W        W98390   0.045   8.753   0.778
31982W        W98391  15.861  31.035   0.101
31983W        W98392  31.531   3.002   3.063
31984W        W98393   0.268   6.652  12.462
31985W        W98394  15.244  13.226   2.272
31986W        W98395  30.572   1.709  11.585
31987W        W98396  38.267  33.330   0.624
31988W        W98397  41.812   3.923   4.024
31989W        W98398  44.228  22.463  13.053
31990W        W98399   8.631  28.701   1.930
31991W        W98400  22.596  26.112  14.312
31992W        W98401  35.544  38.907  12.861
31993W        W98402  41.876   3.443   3.771
31994W        W98403   8.383   0.175   2.088
31995W        W98404   3.178  30.510  11.121
31996W        W98405  42.203   4.432  10.512
31997W        W98406  16.558  14.561  12.031
31998W        W98407  23.071  35.118  13.941
31999W        W98408  15.470  25.995  12.405
32000W        W98409  37.309  18.423   2.837
32001W        W98410  10.736  31.689  13.969
32002W        W98411  14.864  32.619   4.336
32003W        W98412  26.556  44.788   3.753
32004W        W98413  10.874  34.106   5.280
32005W        W98414  16.220  30.936   1.417
32006W        W98415  41.340   7.887   0.022
32007W        W98416  13.169  37.410   3.759
32008W        W98417  42.533   2.972  11.685
32009W        W98418   6.765   0.887  13.110
32010W        W98419  20.895  10.332   2.684
32011W        W98420  18.814  31.185  13.717
32012W        W98421  13.813  14.190   0.959
32013W        W98422  25.826  34.110  14.399
32014W        W98423  34.199  35.063  14.717
32015W        W98424  20.494   8.755  14.919
32016W        W98425  17.819   2.756  12.819
32017W        W98426  16.280  14.236  13.541
32018W        W98427  44.768  15.733   1.678
32019W        W98428  37.608  29.375   0.674
32020W        W98429  19.345  12.198  13.969
32021W        W98430   2.583   0.186  12.408
32022W        W98431  23.621   6.756  14.887
32023W        W98432  15.715  29.308   5.129
32024W        W98433  17.307  32.344   2.033
32025W        W98434  30.275   3.264   1.017
32026W        W98435  34.021  37.458   0.753
32027W        W98436  24.264  44.292   4.330
32028W        W98437  19.533  32.092   1.829
32029W        W98438  19.089  41.521   3.175
32030W        W98439   7.282  11.032   4.504
32031W        W98440  33.909  27.066   0.440
32032W        W98441  19.504   3.052   2.765
32033W        W98442  21.159   1.743  13.788
32034W        W98443  12.715   9.622  13.369
32035W        W98444   1.457  36.175   4.093
32036W        W98445  15.571  23.646  12.049
32037W        W98446   7.618   1.962   5.115
32038W        W98447  31.321  21.617  13.902
32039W        W98448  17.703  29.928  11.221
32040W        W98449  27.626   0.836  12.567
32041W        W98450  20.038  22.705  11.125
32042W        W98451  14.600  34.546   0.387
32043W        W98452  23.717  43.976  12.814
32044W        W98453  28.759  14.821   4.182
32045W        W98454   9.783  40.260  11.383
32046W        W98455   8.430  28.298  12.639
32047W        W98456  37.003  40.299   0.231
32048W        W98457   2.906   1.826   0.381
32049W        W98458  11.073  22.524  14.545
32050W        W98459  38.457  28.959  10.972
32051W        W98460  21.207   7.750   0.026
32052W        W98461  16.664  13.048   3.093
32053W        W98462   1.029   4.291   2.341
32054W        W98463  27.955  26.998   0.447
32055W        W98464  27.305  18.813  13.374
32056W        W98465  17.573  23.623  11.250
32057W        W98466  12.788  19.014   0.697
32058W        W98467  32.805  26.375   0.362
32059W        W98468  35.907  27.841   1.558
32060W        W98469   1.055   3.925  11.617
32061W        W98470  32.933  21.730  13.761
32062W        W98471  20.723  21.175  13.114
32063W        W98472  29.940  38.844   2.180
32064W        W98473  29.125  32.454   0.850
32065W        W98474  40.527  38.639   4.821
32066W        W98475  37.840  14.619   2.839
32067W        W98476  28.840  43.950  10.549
32068W        W98477  21.408  15.794  11.480
32069W        W98478  38.803  42.372   1.191
32070W        W98479  35.679  44.903  13.756
32071W        W98480  39.861  11.906  11.599
32072W        W98481  40.513   1.380   1.597
32073W        W98482  11.349  42.694   0.775
32074W        W98483   8.778   9.303  13.975
32075W        W98484  19.572  28.967   1.138
32076W        W98485  10.943  31.357  13.596
32077W        W98486  25.645  39.627  14.501
32078W        W98487  17.605  36.926  13.773
32079W        W98488   1.886   0.179  11.389
32080W        W98489   9.293  38.045   4.682
32081W        W98490  32.309   2.011   3.355
32082W        W98491  25.253  28.133   1.440
32083W        W98492  25.506  22.549  14.899
32084W        W98493  34.206  17.474  14.858
32085W        W98494  26.012  14.344  12.447
32086W        W98495  25.602  40.322  13.342
32087W        W98496   0.525  42.720  10.567
32088W        W98497   5.421  42.711   3.257
32089W        W98498  11.246  22.126   3.889
32090W        W98499  41.387  25.732  12.166
32091W        W98500  28.061  35.842   1.480
32092W        W98501   4.229   2.917   0.481
32093W        W98502  41.057  13.896   0.979
32094W        W98503  17.559  21.545  13.475
32095W        W98504  34.137  19.236   3.237
32096W        W98505  34.453  36.488   0.769
32097W        W98506   2.473  37.943  13.366
32098W        W98507  16.987  26.511   3.738
32099W        W98508  29.100  27.622   3.107
32100W        W98509  30.330   3.372  13.886
32101W        W98510  13.124  38.782  14.020
32102W        W98511  35.847   5.225   4.562
32103W        W98512  22.386   8.840   4.580
32104W        W98513  27.788  38.431   4.556
32105W        W98514  23.793   0.544   1.514
32106W        W98515  30.692   9.637   1.890
32107W        W98516  18.870  29.373  13.634
32108W        W98517  32.412  29.049   4.655
32109W        W98518   1.963   3.927   1.375
32110W        W98519  41.660  29.698  11.012
32111W        W98520   5.296  27.769   3.681
32112W        W98521  39.918  42.876  10.948
32113W        W98522   0.575  32.893   0.729
32114W        W98523  12.740  14.436  11.212
32115W        W98524   5.345   8.633   2.331
32116W        W98525   4.484  28.623   5.096
32117W        W98526   5.850  39.739  12.101
32118W        W98527  32.861  25.446   3.124
32119W        W98528   9.887  13.836  14.816
32120W        W98529  33.378  18.798  13.036
32121W        W98530  29.982  13.535  13.882
32122W        W98531  43.979   0.714  10.373
32123W        W98532  26.178  16.694   1.181
32124W        W98533  13.800  40.954   2.152
32125W        W98534  34.894  22.519  13.884
32126W        W98535  28.066  25.095   4.622
32127W        W98536  18.240   5.278  14.930
32128W        W98537  34.496  22.033  11.575
32129W        W98538  38.630  37.460   1.169
32130W        W98539  11.137  19.488  12.259
32131W        W98540  31.460   7.329   1.871
32132W        W98541  41.481   1.813  12.630
32133W        W98542   9.808  30.285  13.871
32134W        W98543   9.424  31.873  13.000
32135W        W98544   5.879  20.899   1.439
32136W        W98545   8.496  20.213   1.777
32137W        W98546   3.952  44.043  12.834
32138W        W98547  15.558  10.204  13.101
32139W        W98548  44.478   1.476  12.626
32140W        W98549   9.647   8.640   1.734
32141W        W98550  23.022  29.385  13.557
32142W        W98551  38.191  41.122   0.432
32143W        W98552  15.647  39.572   5.443
32144W        W98553   1.293  33.898   2.464
32145W        W98554  26.065  38.134   1.013
32146W        W98555  30.940  44.147   0.250
32147W        W98556   0.837  20.249   0.853
32148W        W98557  34.114  22.443  13.417
32149W        W98558  32.348   8.119  14.332
32150W        W98559  17.345   7.315  13.806
32151W        W98560   8.741  27.220  13.552
32152W        W98561  39.479  44.828   0.118
32153W        W98562  16.661  41.893  14.496
32154W        W98563   9.927  23.172  14.571
32155W        W98564  21.191  14.173   3.042
32156W        W98565  43.869  21.620  12.104
32157W        W98566   6.717  38.327   3.302
32158W        W98567  37.263  37.423   3.768
32159W        W98568  10.312   3.531  14.821
32160W        W98569  29.458  18.270  14.746
32161W        W98570  15.363  36.915   2.148
32162W        W98571  34.800  21.621  11.603
32163W        W98572   3.616  24.243   3.672
32164W        W98573   4.937  19.556  14.452
32165W        W98574  25.974  11.022  14.893
32166W        W98575   1.268   8.561   4.017
32167W        W98576  13.780  12.390   0.917
32168W        W98577  21.150  18.578  12.690
32169W        W98578  40.987  35.127  10.628
32170W        W98579  19.369  42.843   0.892
32171W        W98580  42.387  17.328   0.976
32172W        W98581  14.266  34.572  13.928
32173W        W98582  12.637  30.906   1.841
32174W        W98583  35.824   4.857  11.934
32175W        W98584  24.680  10.827   4.132
32176W        W98585  36.498  33.369   1.437
32177W        W98586  10.964  22.116  10.582
32178W        W98587   2.544  33.121   4.454
32179W        W98588  44.528   4.849   3.631
32180W        W98589  28.957  13.291  12.607
32181W        W98590  38.874   3.252  11.141
32182W        W98591  11.178  26.945   2.393
32183W        W98592   2.383   2.890   2.147
32184W        W98593  32.524  37.357   3.680
32185W        W98594  30.400   0.964  12.892
32186W        W98595   8.122  12.824   1.351
32187W        W98596   6.622  37.111  10.746
32188W        W98597   4.773  29.528  14.564
32189W        W98598   5.905  17.319  13.348
32190W        W98599  16.581  24.467  12.476
32191W        W98600  29.436  15.238  12.931
32192W        W98601  39.485  34.009   1.922
32193W        W98602  25.909  36.189  12.525
32194W        W98603  43.706  21.798  13.029
32195W        W98604  29.192  32.611   4.778
32196W        W98605  14.069  16.704  14.989
32197W        W98606   0.432  38.566  13.929
32198W        W98607  39.341  34.590  14.442
32199W        W98608  18.362  28.885  12.875
32200W        W98609  37.114   7.276   2.170
32201W        W98610  32.066   4.659   3.186
32202W        W98611  42.460  41.009   2.757
32203W        W98612   3.264  34.869  14.042
32204W        W98613  25.394  22.295  11.236
32205W        W98614  16.234  44.452  14.697
32206W        W98615   1.691  10.368  13.821
32207W        W98616  15.254  12.380  14.938
32208W        W98617  30.641  17.187   4.518
32209W        W98618   6.885   6.842  12.566
32210W        W98619  33.398   3.319  11.685
32211W        W98620  17.024  23.005  11.030
32212W        W98621   0.315  13.035  13.634
32213W        W98622  43.868  40.751  14.528
32214W        W98623  44.386  32.603  12.655
32215W        W98624  37.352  22.007  14.016
32216W        W98625  29.919  18.498   2.653
32217W        W98626  10.642  11.257   3.945
32218W        W98627  38.981  17.563  11.189
32219W        W98628  18.837   2.145   4.318
32220W        W98629   7.193  20.133  14.874
32221W        W98630   4.310   3.889  14.844
32222W        W98631  24.556   6.339   3.202
32223W        W98632  27.563  10.120   1.841
32224W        W98633  26.425  26.038   0.285
32225W        W98634  41.800  17.834  14.446
32226W        W98635  33.068  13.176   1.325
32227W        W98636  33.771   5.875   2.169
32228W        W98637  10.194   4.350   3.320
32229W        W98638  23.407   4.340  11.724
32230W        W98639  19.318  13.655  11.122
32231W        W98640  17.022   5.063   3.277
32232W        W98641   5.846  20.791  11.005
32233W        W98642  16.627  24.110  13.295
32234W        W98643  12.825  26.176  14.521
32235W        W98644  19.174  38.560   2.617
32236W        W98645  21.041  40.998   4.177
32237W        W98646  36.486  25.046  12.186
32238W        W98647  23.584  22.479   2.135
32239W        W98648   0.428   3.451  12.987
32240W        W98649  43.395   3.731   3.166
32241W        W98650  23.521   4.987   4.125
32242W        W98651  19.360  44.674   0.916
32243W        W98652  40.483  26.149  11.029
32244W        W98653   1.465  39.311  13.962
32245W        W98654  29.055  25.598   1.896
32246W        W98655   6.142   1.441  14.000
32247W        W98656  22.707   8.122   3.686
32248W        W98657  28.824  10.630  13.035
32249W        W98658  43.429   2.935   4.867
32250W        W98659  21.221  31.980  10.741
32251W        W98660  11.100  12.613   3.683
32252W        W98661  29.617  37.449   4.152
32253W        W98662   8.589  17.660   1.429
32254W        W98663  16.116  11.076   4.229
32255W        W98664  35.479  17.856   2.009
32256W        W98665  33.006  26.307   4.061
32257W        W98666  22.296   3.239  10.605
32258W        W98667   8.934  38.025  13.604
32259W        W98668  22.548  29.372   0.757
32260W        W98669  30.568  27.064  12.461
32261W        W98670   8.663  31.700   1.930
32262W        W98671   6.451   4.409  13.133
32263W        W98672  15.283  22.726   2.315
32264W        W98673   6.258  42.458  11.220
32265W        W98674  37.685  18.844  12.502
32266W        W98675  18.742  17.803  11.169
32267W        W98676  43.002   5.679  13.837
32268W        W98677  31.063  29.953   3.354
32269W        W98678   5.498   3.896   1.950
32270W        W98679  11.902  37.343   1.612
32271W        W98680  12.761  16.208  13.370
32272W        W98681  11.924  31.524   2.872
32273W        W98682  42.715   5.165  12.265
32274W        W98683  12.367  32.449   0.852
32275W        W98684  32.876  35.620   1.828
32276W        W98685  38.782  25.058  11.836
32277W        W98686  24.797  15.173  12.326
32278W        W98687  18.163  41.273  10.589
32279W        W98688   0.405  21.156   1.556
32280W        W98689  28.458   1.955   0.007
32281W        W98690   7.862  36.850   1.946
32282W        W98691  16.443   1.649   4.855
32283W        W98692   8.574  25.341  14.853
32284W        W98693  39.063  38.900  12.535
32285W        W98694  15.146  20.651   1.723
32286W        W98695  20.166  40.742  12.033
32287W        W98696   4.782  37.873  11.583
32288W        W98697  18.125   2.464   4.047
32289W        W98698  25.051  31.146   4.972
32290W        W98699  39.148   0.992   1.741
32291W        W98700  16.048  42.300   0.573
32292W        W98701   2.992   4.075  12.852
32293W        W98702  14.169   3.296   2.807
32294W        W98703  34.427  13.480   4.135
32295W        W98704  34.313  42.732  13.173
32296W        W98705  32.514   7.216  13.948
32297W        W98706  39.841  24.175   2.722
32298W        W98707  13.023  13.733   3.267
32299W        W98708  12.810  16.906   1.918
32300W        W98709  35.190  33.786  10.351
32301W        W98710  12.857  34.367   1.160
32302W        W98711  17.238   2.839   3.949
32303W        W98712  18.639   5.306   2.219
32304W        W98713  18.129   4.493   4.698
32305W        W98714  15.271  12.474  12.992
32306W        W98715  13.635  33.975  13.983
32307W        W98716  19.560  37.847  13.122
32308W        W98717   4.390   4.392  11.142
32309W        W98718  22.644  17.900   0.821
32310W        W98719  41.937  10.187   1.423
32311W        W98720  31.851  20.708   1.474
32312W        W98721  11.840  19.504  10.185
32313W        W98722  15.833  30.586  14.323
32314W        W98723  16.644  14.545  14.236
32315W        W98724  16.683  27.373  13.736
32316W        W98725  39.077  19.084   5.369
32317W        W98726   8.825  26.701  13.519
32318W        W98727  11.272   5.388   1.263
32319W        W98728   6.708   8.249   3.543
32320W        W98729  29.155  11.618  14.125
32321W        W98730  32.332  42.753  14.500
32322W        W98731  14.167  35.941  13.308
32323W        W98732   0.544  23.769  14.441
32324W        W98733  19.075  22.019  12.901
32325W        W98734  38.345  21.946   3.645
32326W        W98735  14.386  33.373   4.258
32327W        W98736   3.681  15.260  11.945
32328W        W98737  17.793  16.900  12.897
32329W        W98738  22.891   2.445   1.292
32330W        W98739  23.382   7.710  14.456
32331W        W98740   5.789  25.550  11.946
32332W        W98741  21.274   5.611  11.165
32333W        W98742   4.022  10.870  13.686
32334W        W98743  13.237  22.583   3.863
32335W        W98744  33.430  23.745   0.007
32336W        W98745  19.623  38.116  13.581
32337W        W98746  25.079  43.704  10.840
32338W        W98747  31.809   0.254  13.887
32339W        W98748  17.266  14.051   2.135
32340W        W98749  14.660  37.921   2.666
32341W        W98750  41.896  19.483  13.474
32342W        W98751  10.812  15.964  14.243
32343W        W98752  29.609  41.500   3.170
32344W        W98753   2.902  32.691  13.526
32345W        W98754  24.484  18.828   0.460
32346W        W98755  39.789   3.180  11.901
32347W        W98756  39.026  33.538   4.951
32348W        W98757  32.825   5.805  14.565
32349W        W98758  31.155  21.767   2.645
32350W        W98759  40.326  25.897  14.289
32351W        W98760  16.733  37.451   4.001
32352W        W98761  24.584   1.510  13.440
32353W        W98762  19.062  16.434   2.111
32354W        W98763   5.213  25.222   3.639
32355W        W98764   3.506  41.534   1.977
32356W        W98765  18.162  21.750  12.409
32357W        W98766   6.104  36.416   4.380
32358W        W98767  29.995  42.203  10.984
32359W        W98768  11.256  43.705   4.021
32360W        W98769  25.767  11.229  12.237
32361W        W98770  44.363  13.688  13.247
32362W        W98771  40.712  26.199   0.944
32363W        W98772  30.056  26.468  14.004
32364W        W98773  12.811  44.236  10.923
32365W        W98774  13.715  28.166   0.736
32366W        W98775  41.372  44.722   2.703
32367W        W98776  38.256  19.268   3.257
32368W        W98777  14.082  18.432   3.303
32369W        W98778  13.353  15.309  14.842
32370W        W98779  25.523  25.503  13.350
32371W        W98780  21.751  38.408   2.791
32372W        W98781  23.607  44.001   1.105
32373W        W98782  25.534  27.535   0.009
32374W        W98783  41.845   7.149   3.145
32375W        W98784  28.206  30.957  12.214
32376W        W98785   3.730   6.853  11.406
32377W        W98786  37.445  19.288   3.227
32378W        W98787   3.256  15.665   3.233
32379W        W98788  26.140  18.341   0.798
32380W        W98789  22.149   6.654   3.838
32381W        W98790  44.975  40.705  13.353
32382W        W98791  39.948   3.863  10.977
32383W        W98792  20.778  33.761   1.129
32384W        W98793  10.648  38.282   4.028
32385W        W98794   2.667  14.213   1.703
32386W        W98795  30.148  39.899   2.654
32387W        W98796  22.550  15.732  14.883
32388W        W98797  22.657   8.322   1.089
32389W        W98798   9.716  25.582   1.910
32390W        W98799  34.592  23.243   1.381
32391W        W98800  23.626  29.956  10.914
32392W        W98801  21.749   2.802   0.817
32393W        W98802   8.453  14.364  13.070
32394W        W98803  26.342   3.880  13.528
32395W        W98804   1.877   9.470   3.449
32396W        W98805  33.717   0.571   4.995
32397W        W98806   1.860  34.827   0.410
32398W        W98807  19.519  20.211  13.362
32399W        W98808  40.770  38.684   4.145
32400W        W98809  33.400   7.295   4.565
32401W        W98810  38.348   7.068  11.253
32402W        W98811  41.798   2.553   0.749
32403W        W98812  22.598   6.926  11.181
32404W        W98813   7.765  12.637  13.265
32405W        W98814  16.108   3.826  10.533
32406W        W98815  25.521   9.285   2.643
32407W        W98816  14.367  39.105  12.116
32408W        W98817   1.066  28.362  12.360
32409W        W98818  20.695  10.196  13.658
32410W        W98819  21.527   1.993   4.013
32411W        W98820  12.818  32.801   4.540
32412W        W98821  28.093  18.519  12.180
32413W        W98822  19.218  29.040  12.939
32414W        W98823  37.425  26.553  11.039
32415W        W98824  26.998  33.847   2.836
32416W        W98825   6.216   9.612  14.925
32417W        W98826  17.698  43.308  13.937
32418W        W98827  29.137  24.615  13.497
32419W        W98828  25.846  32.105  12.039
32420W        W98829  33.588  35.541   2.399
32421W        W98830  11.686  31.997  14.810
32422W        W98831  17.199   4.443  10.700
32423W        W98832  22.539  30.099   4.628
32424W        W98833  11.718  36.578  12.586
32425W        W98834  25.094  18.694  11.555
32426W        W98835  35.163   0.156   4.046
32427W        W98836  35.640  41.689  13.851
32428W        W98837  27.398  27.214   2.741
32429W        W98838  43.501  32.997  14.904
32430W        W98839  28.634  36.491  10.633
32431W        W98840  40.941  37.827  11.104
32432W        W98841  24.335  25.284  12.102
32433W        W98842  26.548  43.976   1.606
32434W        W98843  30.832  10.356   3.060
32435W        W98844  40.589  39.776   1.401
32436W        W98845   9.088  32.084  13.347
32437W        W98846  38.568   9.142  12.575
32438W        W98847  35.208  14.577   0.697
32439W        W98848  32.616  17.545   1.550
32440W        W98849   1.344  30.089  13.571
32441W        W98850   3.735  30.397  11.987
32442W        W98851  33.800  20.968  13.332
32443W        W98852  33.126  14.707   0.316
32444W        W98853  20.769  18.707  11.422
32445W        W98854   9.641  35.797  13.945
32446W        W98855  20.055  31.447   3.291
32447W        W98856   1.901  18.110  13.000
32448W        W98857  42.413   8.027   1.754
32449W        W98858  21.003  19.455  13.869
32450W        W98859   2.714  19.436   4.085
32451W        W98860  21.703  43.653   1.881
32452W        W98861  13.560  44.430   0.764
32453W        W98862   2.053   7.925   5.047
32454W        W98863  17.595  36.836   3.707
32455W        W98864  43.743  44.068   2.404
32456W        W98865  19.296  29.665   0.393
32457W        W98866  13.160  10.829  11.737
32458W        W98867   5.287  19.597   1.659
32459W        W98868   3.203  37.889  11.527
32460W        W98869  15.649  35.493  11.425
32461W        W98870  10.083  18.822  12.424
32462W        W98871  16.069  25.628  11.108
32463W        W98872  29.526  19.995  14.408
32464W        W98873  26.895  34.481   0.850
32465W        W98874  14.208   4.965  12.084
32466W        W98875  41.841  21.174   0.770
32467W        W98876  39.372  43.801  13.817
32468W        W98877  36.523  32.535   0.310
32469W        W98878  28.607   5.715  11.037
32470W        W98879   1.029  18.808   0.845
32471W        W98880  22.164  17.085  11.653
32472W        W98881  34.385  13.814  14.305
32473W        W98882  23.575  24.759   0.841
32474W        W98883   1.835  15.371   4.513
32475W        W98884   2.621  25.189   2.845
32476W        W98885   7.821  26.974   0.782
32477W        W98886  26.642  26.521  14.459
32478W        W98887  15.122   0.961  10.854
32479W        W98888  37.905  38.581   1.623
32480W        W98889  24.204  35.911   1.420
32481W        W98890  33.647  21.082   0.228
32482W        W98891   4.369  41.167  12.372
32483W        W98892  25.154  16.257   1.417
32484W        W98893  23.227  30.878   3.890
32485W        W98894  27.331  15.621  14.850
32486W        W98895  35.581  36.266   1.963
32487W        W98896  44.553   1.941   4.276
32488W        W98897   2.635  13.797   1.145
32489W        W98898  14.624  19.209  11.472
32490W        W98899  16.743  15.428   3.770
32491W        W98900  32.966  43.395   3.670
32492W        W98901  23.553  16.619  14.500
32493W        W98902   4.027  10.246   2.321
32494W        W98903  39.565   2.147   2.968
32495W        W98904  25.508  28.534  12.923
32496W        W98905  11.303  15.610   1.669
32497W        W98906   3.178  44.716  12.900
32498W        W98907  12.396  33.513   1.534
32499W        W98908  29.826  16.623  14.497
32500W        W98909  28.481  29.889   0.535
32501W        W98910  38.789  40.446   2.242
32502W        W98911  34.536  14.150  10.572
32503W        W98912  33.786  14.672  12.581
32504W        W98913   1.506  26.733   3.550
32505W        W98914  24.522  18.331   0.732
32506W        W98915  20.247  14.288   1.941
32507W        W98916  43.449   3.894   1.825
32508W        W98917   8.381  23.956  14.410
32509W        W98918   7.248   4.364   3.396
32510W        W98919  21.106  25.454  10.740
32511W        W98920  14.761   0.972   0.943
32512W        W98921  42.073   2.458  11.638
32513W        W98922  18.203  18.805  10.418
32514W        W98923  23.732   0.323  14.806
32515W        W98924   2.656  31.867  12.942
32516W        W98925  21.623  22.872  13.556
32517W        W98926   8.797  29.797  14.278
32518W        W98927  14.443  28.392   3.415
32519W        W98928  37.902  22.228   0.533
32520W        W98929  18.278  42.472   1.140
32521W        W98930  31.387  28.408   1.423
32522W        W98931  30.431  40.074   4.001
32523W        W98932  17.089  41.519   0.794
32524W        W98933  39.757  39.809  11.089
32525W        W98934  30.909  15.048   2.497
32526W        W98935  28.074   6.654   0.289
32527W        W98936  21.739   5.865  11.017
32528W        W98937   0.385  18.514   2.356
32529W        W98938  32.575   1.682   3.691
32530W        W98939  28.226  17.543  12.627
32531W        W98940  25.633  17.615   4.594
32532W        W98941  24.172  34.151   4.109
32533W        W98942   9.494  16.182   0.526
32534W        W98943  39.875  36.830   3.586
32535W        W98944  32.490  30.358  13.982
32536W        W98945  30.413  10.704   3.907
32537W        W98946  43.255  34.403  10.591
32538W        W98947   8.782  44.408  10.631
32539W        W98948  37.786  44.732  11.513
32540W        W98949  26.085  36.546   1.339
32541W        W98950  44.733  11.869   3.307
32542W        W98951   4.062   7.149   5.075
32543W        W98952   9.804  24.972   4.201
32544W        W98953  44.276  24.227   0.328
32545W        W98954  11.406   8.216   0.935
32546W        W98955  37.768  39.517   3.181
32547W        W98956  20.302  41.722  12.208
32548W        W98957  36.198  26.576  14.542
32549W        W98958  37.139  36.791   1.638
32550W        W98959  29.079   7.903  12.007
32551W        W98960  25.000  25.625   4.418
32552W        W98961  34.628  28.538   2.742
32553W        W98962  34.803   9.956  13.962
32554W        W98963  14.544  37.278   0.577
32555W        W98964  42.336  27.663  12.676
32556W        W98965   1.524  37.502   0.443
32557W        W98966  36.877   3.147  13.548
32558W        W98967  39.294  14.311   3.232
32559W        W98968  40.220  25.308  13.410
32560W        W98969   9.400  32.010   1.004
32561W        W98970  39.838   0.310  14.212
32562W        W98971  28.951  27.116   1.985
32563W        W98972   0.986   0.362  12.974
32564W        W98973  22.780  26.104   3.296
32565W        W98974  20.752  22.574  10.598
32566W        W98975   0.201  16.592   1.667
32567W        W98976  41.943  15.118   3.237
32568W        W98977  12.571  40.835  13.991
32569W        W98978  28.475   2.373   2.289
32570W        W98979   5.350   9.668   2.207
32571W        W98980  36.408  26.070  11.535
32572W        W98981  40.237  18.101  13.940
32573W        W98982  21.262  22.208  11.913
32574W        W98983  43.979  37.322   5.219
32575W        W98984  35.474   6.865  12.453
32576W        W98985  35.471  39.410  13.053
32577W        W98986  40.600  19.176   2.578
32578W        W98987  27.621  17.970   1.497
32579W        W98988  38.897   1.735   5.053
32580W        W98989  33.020  31.757  14.220
32581W        W98990   1.022  42.527   1.238
32582W        W98991  24.593  42.893   3.050
32583W        W98992  39.350   0.719   0.251
32584W        W98993  22.922  40.424   1.431
32585W        W98994  14.733  20.626  11.817
32586W        W98995  41.752  15.623   1.219
32587W        W98996   2.335  32.754  14.794
32588W        W98997   0.434  22.425   0.685
32589W        W98998   9.317  18.848  12.981
32590W        W98999  26.712  25.673   0.492
32591W        W99000  14.653  28.028   0.185
32592W        W99001   0.017  33.298  11.689
32593W        W99002   4.642  41.846  12.840
32594W        W99003  16.341   7.012   1.718
32595W        W99004  33.836   6.045  14.900
32596W        W99005  40.997  37.807   2.768
32597W        W99006   1.694  22.667  13.974
32598W        W99007   6.193  25.012   2.307
32599W        W99008  10.605  41.849   2.728
32600W        W99009   6.336  18.690   0.657
32601W        W99010  11.719  16.700  12.389
32602W        W99011   5.913  15.081  12.474
32603W        W99012  22.329  31.541   3.185
32604W        W99013  22.839  30.984   2.766
32605W        W99014  13.752  35.950  12.413
32606W        W99015  32.422  26.995   1.334
32607W        W99016  28.175  15.618  13.661
32608W        W99017  41.621  32.488  11.480
32609W        W99018  20.921  24.831  12.003
32610W        W99019  30.818  13.363  13.860
32611W        W99020  23.347   1.439  13.970
32612W        W99021  19.840   2.423   1.773
32613W        W99022  30.775  43.403   9.951
32614W        W99023  38.116  34.575   0.012
32615W        W99024   1.926  16.229  14.352
32616W        W99025   2.249  23.045   3.172
32617W        W99026  30.748  22.588   2.535
32618W        W99027  23.589  38.670   1.687
32619W        W99028  27.416   2.320   0.364
32620W        W99029  44.993   0.035   3.047
32621W        W99030   7.698   4.097  14.172
32622W        W99031  15.339  31.560  13.459
32623W        W99032   8.109  40.841   3.269
32624W        W99033   3.179   9.379  14.420
32625W        W99034  11.920  37.917  11.404
32626W        W99035  13.826  41.052  13.476
32627W        W99036  36.315  23.169  12.418
32628W        W99037   2.401  35.306   1.782
32629W        W99038  15.672  30.852  13.045
32630W        W99039  34.887  40.167  12.157
32631W        W99040  21.266  44.644  14.409
32632W        W99041  30.974  24.491   4.608
32633W        W99042   2.843   7.981  13.128
32634W        W99043  16.655  10.104  14.520
32635W        W99044   0.227  14.749  14.406
32636W        W99045   4.964  18.680  14.958
32637W        W99046  24.011  28.684  13.888
32638W        W99047  16.143   7.603  12.049
32639W        W99048  23.770  34.776   3.283
32640W        W99049   9.703  12.223   4.711
32641W        W99050  28.923   9.460   0.337
32642W        W99051   4.989  33.139  11.487
32643W        W99052  40.176  37.634   3.100
32644W        W99053   8.770   3.808   0.452
32645W        W99054   5.603  43.956   0.776
32646W        W99055   5.315  30.159   3.322
32647W        W99056  15.234  13.643   0.520
32648W        W99057  26.859  40.341   1.877
32649W        W99058  38.364  20.125   4.606
32650W        W99059  26.307   9.044   2.004
32651W        W99060   4.840  13.710  12.911
32652W        W99061  24.050  38.478   0.418
32653W        W99062  42.780  11.595   2.784
32654W        W99063  26.388  13.187  14.526
32655W        W99064  38.728  19.069   3.193
32656W        W99065  13.445  25.969   3.732
32657W        W99066  24.211   8.459   3.659
32658W        W99067  10.654  25.465  10.498
32659W        W99068  22.327  33.003  12.569
32660W        W99069  43.553  42.228   0.316
32661W        W99070  38.715  18.209  10.311
32662W        W99071   5.955  44.251  11.169
32663W        W99072  26.472  34.036  14.897
32664W        W99073  40.671  38.012  13.824
32665W        W99074   5.002   4.353  14.726
32666W        W99075  29.826  27.815   2.821
32667W        W99076  12.222  21.213  10.590
32668W        W99077  19.816  31.104   4.133
32669W        W99078  14.812  15.771  11.063
32670W        W99079  34.062   9.379   2.699
32671W        W99080   4.061  33.359  14.297
32672W        W99081   6.173   7.895  14.823
32673W        W99082   5.952  38.826   4.098
32674W        W99083  13.749  11.847   2.816
32675W        W99084  12.597  24.063  14.469
32676W        W99085  30.131  22.129  14.331
32677W        W99086  30.662  38.057   4.626
32678W        W99087  34.109  24.722   0.349
32679W        W99088   2.008  28.950   3.645
32680W        W99089  39.697  30.151  12.881
32681W        W99090  10.107  31.018  12.040
32682W        W99091  28.986  19.516  11.143
32683W        W99092  17.385   2.302  11.169
32684W        W99093  27.702  12.337  14.439
32685W        W99094  18.550  40.410   0.275
32686W        W99095  38.640   4.825   1.907
32687W        W99096   4.351  11.211  13.027
32688W        W99097  36.487   9.782   3.907
32689W        W99098  24.993  19.285   1.426
32690W        W99099   2.430  29.026   4.180
32691W        W99100  20.567   0.685  12.077
32692W        W99101  38.729  13.253  11.145
32693W        W99102   7.785  17.074   2.421
32694W        W99103  23.816   5.415   4.084
32695W        W99104  29.613   0.788   2.237
32696W        W99105   5.361  39.475  10.683
32697W        W99106  12.656  36.668   0.791
32698W        W99107  35.068  23.914   4.192
32699W        W99108   8.392  42.879   5.004
32700W        W99109  43.169  21.105  12.869
32701W        W99110  27.743  25.744   2.786
32702W        W99111   2.391  21.982   1.305
32703W        W99112  16.057  32.898   0.670
32704W        W99113  14.338  33.521  12.922
32705W        W99114  19.579   0.105   4.158
32706W        W99115  43.917  18.328   3.303
32707W        W99116  35.968  19.097   4.617
32708W        W99117   1.838  15.620   1.142
32709W        W99118  37.973  16.463   3.311
32710W        W99119  35.507   3.182  10.963
32711W        W99120  29.627  34.451  11.726
32712W        W99121  36.689  21.200  14.816
32713W        W99122  44.876  43.233  11.399
32714W        W99123  27.368  10.171   1.366
32715W        W99124   0.049  16.529   4.133
32716W        W99125  27.029   4.953   2.719
32717W        W99126  44.197  44.227   2.623
32718W        W99127  27.412  39.354  11.828
32719W        W99128   5.966  16.852   1.725
32720W        W99129   3.971  29.516  12.925
32721W        W99130   9.378  20.251  14.074
32722W        W99131  10.355  13.500   3.641
32723W        W99132  34.536  42.300   4.044
32724W        W99133  38.939  42.295  11.728
32725W        W99134  44.403  24.789  10.626
32726W        W99135  35.989  39.518  10.680
32727W        W99136  16.091  38.278  11.164
32728W        W99137  28.584  43.943   1.285
32729W        W99138   9.213  15.661   2.279
32730W        W99139  29.547  42.939  14.901
32731W        W99140  44.647  17.625  12.066
32732W        W99141   9.642  10.698   2.825
32733W        W99142  38.050   9.620  11.157
32734W        W99143  14.075  18.306   0.754
32735W        W99144  26.891  38.484  12.019
32736W        W99145  26.284  33.517   4.676
32737W        W99146  38.087  10.780   2.358
32738W        W99147   7.906  38.222   2.622
32739W        W99148  23.162  25.497   2.844
32740W        W99149   8.951  27.928   1.771
32741W        W99150   4.380  29.355  12.643
32742W        W99151  13.613  43.612  11.170
32743W        W99152   7.659  18.213   2.211
32744W        W99153   7.857  11.271  11.868
32745W        W99154  31.077   9.209   0.281
32746W        W99155  29.520   0.196   3.556
32747W        W99156  30.845  25.437   3.060
32748W        W99157   9.234  33.430   3.574
32749W        W99158  15.187   1.472  14.492
32750W        W99159   1.774  39.113  13.011
32751W        W99160   5.322  38.601   3.323
32752W        W99161  23.648   7.816  14.015
32753W        W99162  32.989  28.061   3.027
32754W        W99163   2.830   5.196   0.340
32755W        W99164  30.043  26.645   0.336
32756W        W99165  18.640  15.388   2.961
32757W        W99166  36.139  29.133  13.928
32758W        W99167  14.051  12.203  12.529
32759W        W99168   4.248  44.380  14.249
32760W        W99169   0.718  16.642   1.765
32761W        W99170  34.333  12.116  12.655
32762W        W99171   4.626  18.458  12.641
32763W        W99172   9.088  25.168  11.742
32764W        W99173   7.047   2.657  14.013
32765W        W99174  36.274   6.759  11.140
32766W        W99175  18.769  26.596  12.984
32767W        W99176  30.251  28.490  12.924
32768W        W99177  16.463  29.373   4.553
32769W        W99178  31.951  22.623  12.993
32770W        W99179  32.558   6.023   0.361
32771W        W99180  41.896   7.354   1.779
32772W        W99181  13.271  42.182   2.298
32773W        W99182  25.066  23.650   4.551
32774W        W99183   3.105  18.699   3.241
32775W        W99184  31.054   1.317   3.156
32776W        W99185   4.356  29.543  10.723
32777W        W99186   6.667  10.428   1.388
32778W        W99187  29.135  27.625   0.739
32779W        W99188  26.120  31.922  11.654
32780W        W99189   7.742  35.821  12.177
32781W        W99190  43.095  33.624  14.593
32782W        W99191  43.904  13.117  14.868
32783W        W99192  38.291  18.084   0.304
32784W        W99193   9.669   4.667  12.049
32785W        W99194  25.587  12.750  14.880
32786W        W99195   4.945   1.288   1.830
32787W        W99196  14.894   2.994   2.138
32788W        W99197  28.198  38.525   0.961
32789W        W99198   4.363  23.157  13.413
32790W        W99199  28.539  38.510   1.412
32791W        W99200  35.580  28.398  12.917
32792W        W99201   0.817  24.018   0.292
32793W        W99202  40.014  32.196  14.871
32794W        W99203  18.582   8.922  11.977
32795W        W99204  25.539  38.524   3.915
32796W        W99205  39.991  14.927   0.908
32797W        W99206  31.441  10.834   4.234
32798W        W99207  20.909   0.468   5.098
32799W        W99208  29.144  44.162  14.130
32800W        W99209  15.281  14.150  12.091
32801W        W99210  32.418   9.423   3.758
32802W        W99211   3.521  40.453  11.231
32803W        W99212  31.532  26.436  11.631
32804W        W99213   9.948  35.535   9.811
32805W        W99214  13.534  44.918  10.190
32806W        W99215  29.590  31.999   3.566
32807W        W99216  41.080  27.491  14.528
32808W        W99217  41.308   6.072  13.063
32809W        W99218  26.472  42.261   1.220
32810W        W99219  42.879   0.007  14.387
32811W        W99220  17.795  15.726  12.609
32812W        W99221   9.496   8.249   3.646
32813W        W99222  16.140   2.057  11.236
32814W        W99223   4.874  25.461  12.956
32815W        W99224  26.228  32.590   4.647
32816W        W99225  10.963   7.245  14.479
32817W        W99226  37.892  22.726  11.163
32818W        W99227  12.416  42.288  14.251
32819W        W99228  30.062  10.931   2.185
32820W        W99229  40.093   9.106   2.731
32821W        W99230  31.630  24.508  14.224
32822W        W99231  30.571  36.932  10.612
32823W        W99232   4.270  33.070   1.916
32824W        W99233   4.610  22.902  13.795
32825W        W99234  35.405  19.202   2.374
32826W        W99235  38.074  42.227  14.459
32827W        W99236  36.754  16.010   3.544
32828W        W99237  27.797   2.199  10.689
32829W        W99238  24.260  35.800   0.241
32830W        W99239  37.558  16.089  14.986
32831W        W99240  39.572  38.283   4.039
32832W        W99241  29.514  28.617  11.183
32833W        W99242   8.240  20.683  14.052
32834W        W99243  24.157  42.264  11.185
32835W        W99244  29.066  23.270  14.400
32836W        W99245  23.655  19.601   1.737
32837W        W99246  14.114  31.131  13.021
32838W        W99247  20.026   6.767   3.736
32839W        W99248  16.834  39.596  10.755
32840W        W99249  20.799  43.073  10.728
32841W        W99250  29.570  30.624  10.309
32842W        W99251  36.627  18.490  14.962
32843W        W99252   5.615  21.090   1.035
32844W        W99253  23.255  14.795  13.372
32845W        W99254   6.175  29.903  12.890
32846W        W99255  11.559   7.066   4.447
32847W        W99256  18.327  12.992   4.452
32848W        W99257   1.898  23.166  10.647
32849W        W99258  32.527  32.179  10.698
32850W        W99259  24.175  34.967  10.480
32851W        W99260  42.898  22.192  14.907
32852W        W99261   3.215   8.634   1.722
32853W        W99262   5.323  16.263  11.286
32854W        W99263  24.952  40.684   4.123
32855W        W99264  12.361  15.016  14.845
32856W        W99265  43.971   4.749  13.572
32857W        W99266   2.027  11.624   0.186
32858W        W99267   0.017  40.671   3.093
32859W        W99268  28.066  37.373  11.947
32860W        W99269  10.295   0.536   1.310
32861W        W99270  35.608   7.329   2.120
32862W        W99271   8.205  22.680  11.900
32863W        W99272   3.163  10.814   0.305
32864W        W99273  14.192   2.739   3.145
32865W        W99274   9.293  42.274  10.752
32866W        W99275  34.974  22.924   1.282
32867W        W99276  11.826   7.300  14.009
32868W        W99277  31.905  10.991  14.616
32869W        W99278  44.236  14.021  13.622
32870W        W99279  12.578   4.217   3.907
32871W        W99280  11.718  34.501   4.338
32872W        W99281  18.633  14.905   2.781
32873W        W99282   8.808  11.364  11.899
32874W        W99283  43.846  28.262   2.155
32875W        W99284  39.097  10.702  12.630
32876W        W99285   4.751   5.977   4.106
32877W        W99286  10.735  24.224   0.376
32878W        W99287  18.406  17.463  14.864
32879W        W99288   7.437  25.604   3.390
32880W        W99289  32.539  20.636   1.868
32881W        W99290  38.897   5.331  14.805
32882W        W99291   6.249  33.679  14.477
32883W        W99292  16.068  39.259  14.463
32884W        W99293   6.268  30.195   4.405
32885W        W99294  26.477   2.345   0.790
32886W        W99295  13.156   4.383  14.742
32887W        W99296  19.028  10.196  12.015
32888W        W99297   2.224  29.568   4.273
32889W        W99298  14.124  39.262   2.338
32890W        W99299   7.342  42.324   4.108
32891W        W99300   6.355  26.918  11.494
32892W        W99301  15.353  20.045  11.993
32893W        W99302  41.244   0.912   4.089
32894W        W99303  40.908  33.856   2.258
32895W        W99304  36.323  38.433  11.624
32896W        W99305   8.733  15.996   0.052
32897W        W99306  27.800  27.081  14.568
32898W        W99307  27.169   8.428  11.204
32899W        W99308  38.136  43.348  13.921
32900W        W99309   4.693  21.088  12.892
32901W        W99310   8.245  37.626  13.853
32902W        W99311  34.438  34.415   2.672
32903W        W99312  13.611  25.522  13.803
32904W        W99313  22.030  33.081  10.785
32905W        W99314  40.724  12.381  12.022
32906W        W99315   6.489   9.415  14.535
32907W        W99316   8.814  14.124   0.653
32908W        W99317  39.259  44.946   2.353
32909W        W99318  36.083   3.727   3.750
32910W        W99319   8.433   0.950   3.270
32911W        W99320  11.164   2.727   0.331
32912W        W99321  32.449   6.092   1.577
32913W        W99322   1.765  11.813   2.666
32914W        W99323  24.145  23.032  12.497
32915W        W99324  41.534  35.125  11.184
32916W        W99325   2.469  37.366  11.120
32917W        W99326  35.655   0.766  13.940
32918W        W99327   2.333  33.945   4.646
32919W        W99328  16.255  22.016   1.657
32920W        W99329  25.070  33.580   3.187
32921W        W99330   1.004  17.661  13.493
32922W        W99331  14.779  14.792   1.214
32923W        W99332  11.584  15.700  11.763
32924W        W99333  22.591   7.711  13.964
32925W        W99334  38.857  39.006  14.952
32926W        W99335  30.724  10.554   0.163
32927W        W99336  44.106  33.214   0.338
32928W        W99337   7.809  28.864   2.612
32929W        W99338  28.337  11.375  10.284
32930W        W99339  22.681  11.667  10.055
32931W        W99340  28.083   2.822  12.714
32932W        W99341  41.658   3.771  11.214
32933W        W99342  43.477  26.430  12.705
32934W        W99343   1.976  18.966  14.842
32935W        W99344  26.200  38.088   0.509
32936W        W99345   1.264  23.760   0.080
32937W        W99346  41.946  31.157   1.849
32938W        W99347  44.963   2.244  12.517
32939W        W99348  27.086  11.176  12.805
32940W        W99349  21.057  26.465  11.625
32941W        W99350  44.421   1.422  14.192
32942W        W99351  29.337   3.226   4.292
32943W        W99352   6.301  37.676   2.403
32944W        W99353  32.539  12.286  12.612
32945W        W99354  20.111   1.030  14.969
32946W        W99355  25.921  34.131  11.871
32947W        W99356  18.082  42.877  12.781
32948W        W99357  35.995   1.872   4.620
32949W        W99358   7.774   8.773  14.750
32950W        W99359  20.265  40.777   0.849
32951W        W99360  33.144  35.042  12.423
32952W        W99361  18.247  38.547  14.526
32953W        W99362  43.392  34.746   3.206
32954W        W99363  23.468  11.884   1.977
32955W        W99364  43.860  23.206   3.695
32956W        W99365  42.706   4.724   1.074
32957W        W99366  26.305  38.136  12.771
32958W        W99367  39.002   5.412  11.587
32959W        W99368  37.662  30.865  14.430
32960W        W99369  16.938  36.054   3.612
32961W        W99370  26.733  13.078   1.805
32962W        W99371  16.218   3.302   0.405
32963W        W99372  19.146   9.208   0.378
32964W        W99373  35.521  21.170  11.781
32965W        W99374  44.594  37.899   2.800
32966W        W99375  10.848  38.344   3.546
32967W        W99376  12.814  16.612   4.727
32968W        W99377  36.999  28.931   2.186
32969W        W99378  44.272   5.506  11.537
32970W        W99379  22.574  14.482  12.594
32971W        W99380   1.519  27.445  14.398
32972W        W99381  31.132  43.291  13.945
32973W        W99382  25.976   4.820  12.423
32974W        W99383  24.233   7.266  10.668
32975W        W99384  28.025   8.328   1.849
32976W        W99385   1.383  13.304   4.803
32977W        W99386   0.500  43.377  13.990
32978W        W99387  39.590  20.112  11.604
32979W        W99388   8.256  14.205   1.373
32980W        W99389   8.081  17.790   3.652
32981W        W99390  28.860  36.114  12.935
32982W        W99391  43.811  44.770   4.814
32983W        W99392  10.229  13.725  13.502
32984W        W99393  25.915   4.725  13.393
32985W        W99394  10.741  35.792   3.364
32986W        W99395  14.063  15.768   1.890
32987W        W99396  11.109  11.309   4.161
32988W        W99397  18.077  16.081   2.198
32989W        W99398   6.249  25.166   1.441
32990W        W99399   4.916  30.748   2.689
32991W        W99400  10.106   0.529   5.287
32992W        W99401  11.465   2.183   1.935
32993W        W99402  37.902  14.103  11.532
32994W        W99403   3.241  12.651   1.829
32995W        W99404  40.835  27.671   1.425
32996W        W99405  25.675   0.039  12.884
32997W        W99406  13.304  40.848  14.456
32998W        W99407  13.087  32.640   2.388
32999W        W99408  20.387  44.097   1.738
33000W        W99409  32.899  10.059  14.532
33001W        W99410   0.727  12.572   4.184
33002W        W99411  34.815  19.694  13.633
33003W        W99412  44.819   0.099   4.603
33004W        W99413  36.871  10.072   2.893
33005W        W99414  21.544   5.755  14.382
33006W        W99415  33.936   2.293   1.777
33007W        W99416  27.027  13.566  10.706
33008W        W99417   5.925  41.141   0.404
33009W        W99418  30.973  35.304  11.147
33010W        W99419   4.252  14.035  14.978
33011W        W99420  20.483   4.447   0.107
33012W        W99421  37.452  26.729  13.860
33013W        W99422  29.950   0.954   3.577
33014W        W99423  39.595  15.981  12.396
33015W        W99424  12.605  19.998   3.204
33016W        W99425  32.949  24.620   2.984
33017W        W99426  25.419  36.946  14.442
33018W        W99427  31.335  43.016   1.005
33019W        W99428  25.014   6.931  10.755
33020W        W99429  10.169  31.119   0.146
33021W        W99430  15.165  39.576   0.944
33022W        W99431  24.184  15.253   2.930
33023W        W99432  27.567  36.787  13.918
33024W        W99433  35.943   0.891   0.723
33025W        W99434  31.886  24.479   4.568
33026W        W99435  27.091  11.375  14.248
33027W        W99436  24.605  41.447  12.553
33028W        W99437   1.734  13.704   4.707
33029W        W99438  30.135  24.104  14.190
33030W        W99439   5.421   5.310  11.141
33031W        W99440  38.934  44.874   4.267
33032W        W99441  30.586  32.973   1.456
33033W        W99442   5.643  12.303  13.832
33034W        W99443  13.229   2.472  14.767
33035W        W99444   0.055  29.583   0.258
33036W        W99445  13.174  27.708  10.674
33037W        W99446  11.105   2.856  11.713
33038W        W99447   6.186   4.740   0.311
33039W        W99448   0.607  42.229   2.691
33040W        W99449  32.427  44.619  13.693
33041W        W99450  28.918  40.491  14.783
33042W        W99451  12.130  25.886   0.802
33043W        W99452   4.334  12.638  14.952
33044W        W99453  21.226  43.947  12.776
33045W        W99454  37.967  43.083   4.682
33046W        W99455   2.100  14.197  12.319
33047W        W99456   5.911  25.897  10.789
33048W        W99457   2.986  31.154   1.151
33049W        W99458   2.136  35.088  13.407
33050W        W99459  13.195  16.641   3.128
33051W        W99460   4.715  25.955   0.417
33052W        W99461  14.995  23.012   0.502
33053W        W99462  37.544  42.987  14.184
33054W        W99463  29.219  18.975  13.709
33055W        W99464  25.037  24.144  10.782
33056W        W99465  11.719  21.175   3.085
33057W        W99466  17.683  22.065  11.690
33058W        W99467  22.233  44.391   0.332
33059W        W99468  42.963  15.685  11.617
33060W        W99469  41.912  23.046   1.974
33061W        W99470  37.293   9.823   2.635
33062W        W99471  36.900  21.715   3.583
33063W        W99472  38.876   4.941  11.340
33064W        W99473  39.113  13.289  12.035
33065W        W99474  30.124  33.517  13.742
33066W        W99475   1.159  37.967  11.043
33067W        W99476  40.621   4.711  14.418
33068W        W99477  25.901  17.020   0.299
33069W        W99478  31.750   4.653  14.731
33070W        W99479  29.446  32.098  12.898
33071W        W99480  29.214  44.807   4.067
33072W        W99481   8.551  32.157   2.822
33073W        W99482  15.897  27.168  13.116
33074W        W99483  10.850  10.600   0.256
33075W        W99484  21.668  25.896  11.552
33076W        W99485  39.594  17.927   0.143
33077W        W99486  35.002  13.267   4.019
33078W        W99487  29.927   0.346   2.394
33079W        W99488  43.974   5.828  13.780
33080W        W99489   7.658  26.485  14.992
33081W        W99490  35.128  43.838   3.574
33082W        W99491  41.313  33.491   1.873
33083W        W99492  14.834   1.678   2.717
33084W        W99493  24.076  44.816  12.161
33085W        W99494   1.943  35.493   4.614
33086W        W99495   9.412  27.967  12.874
33087W        W99496   7.669  20.644   2.863
33088W        W99497   7.892  44.270   3.750
33089W        W99498  38.539  10.628  13.404
33090W        W99499   5.698  31.974  11.793
33091W        W99500  27.878  29.627  13.468
33092W        W99501   0.692  12.705   1.898
33093W        W99502  11.474  29.408   4.931
33094W        W99503  17.376  39.841   0.030
33095W        W99504  28.119  44.038  12.888
33096W        W99505  35.752   1.451  10.656
33097W        W99506  35.904  43.871   0.816
33098W        W99507  43.389  16.225  13.494
33099W        W99508  43.074  35.015   1.199
33100W        W99509   0.898  33.620  13.602
33101W        W99510  19.179  23.121  13.905
33102W        W99511   2.681  37.549   4.140
33103W        W99512  38.941  21.184  12.886
33104W        W99513  26.723  26.478   0.524
33105W        W99514  31.137  44.232  11.821
33106W        W99515  33.045  15.218   3.868
33107W        W99516  25.710  35.562   3.202
33108W        W99517  38.038  35.065   4.533
33109W        W99518  26.217  33.582  12.061
33110W        W99519  17.697  29.960   3.328
33111W        W99520  26.448  41.768  10.595
33112W        W99521   3.006  40.807   1.906
33113W        W99522  15.313  25.457   4.055
33114W        W99523  10.158  31.434   9.607
33115W        W99524  16.260   1.957  14.907
33116W        W99525   9.152   2.346   2.635
33117W        W99526   6.381   0.730   3.686
33118W        W99527  30.925  24.415  12.896
33119W        W99528   5.765  32.262   0.550
33120W        W99529  24.982  23.973  14.839
33121W        W99530  20.680  17.214  12.217
33122W        W99531  14.393  37.039   2.808
33123W        W99532   9.224  31.502  13.982
33124W        W99533  36.547  29.221   1.233
33125W        W99534   5.188  33.455  14.837
33126W        W99535  11.281  30.942  13.387
33127W        W99536   1.187  23.476   2.701
33128W        W99537  35.976   2.933  14.474
33129W        W99538  27.179  20.398  10.758
33130W        W99539  19.609   6.997  12.594
33131W        W99540   3.327  11.194  13.568
33132W        W99541   8.387  34.065  14.811
33133W        W99542   3.258  19.291  11.905
33134W        W99543  39.385  18.320  11.053
33135W        W99544  15.168  10.400   0.838
33136W        W99545   6.178   8.038   0.924
33137W        W99546  15.297  24.265   2.390
33138W        W99547  30.869  26.076  12.426
33139W        W99548  35.837  18.983  12.271
33140W        W99549  26.458  42.984  13.437
33141W        W99550  16.570  13.749  12.422
33142W        W99551  29.542  20.472   3.944
33143W        W99552  41.440  34.549   1.337
33144W        W99553  44.532   1.914  14.369
33145W        W99554  40.136  21.533  13.839
33146W        W99555  25.377  23.114  11.134
33147W        W99556   2.997  11.827  10.760
33148W        W99557  23.221  17.818  12.005
33149W        W99558  40.547  12.213   4.105
33150W        W99559   6.705  14.276  11.098
33151W        W99560  12.632  39.383   2.514
33152W        W99561  18.251  15.235  12.084
33153W        W99562  10.100  33.653  11.299
33154W        W99563  36.983  11.895   2.263
33155W        W99564  12.448  37.405  12.566
33156W        W99565  19.370  24.501  12.585
33157W        W99566  13.637  26.646  11.728
33158W        W99567   5.690   9.298  14.211
33159W        W99568  31.801   4.205   0.994
33160W        W99569   2.013   8.252   1.140
33161W        W99570  19.558  44.305  11.543
33162W        W99571  13.932   6.872   4.462
33163W        W99572  28.969  11.141  11.882
33164W        W99573  19.652  26.154   2.486
33165W        W99574  35.819  10.246   3.197
33166W        W99575  38.977   7.140   1.323
33167W        W99576  35.537  32.572  11.021
33168W        W99577  23.402   7.791   1.179
33169W        W99578   7.474   1.352  13.981
33170W        W99579   9.068  40.809  12.285
33171W        W99580  14.106  25.347   4.991
33172W        W99581  25.627  21.762  14.371
33173W        W99582  38.844  10.652   1.146
33174W        W99583   6.345   8.334   0.121
33175W        W99584  25.636  10.181   2.418
33176W        W99585  32.497  21.256  12.668
33177W        W99586  31.483  38.518   3.931
33178W        W99587  14.287  11.273  12.495
33179W        W99588   8.736  34.189   3.457
33180W        W99589  18.184  21.624  11.450
33181W        W99590  14.150  35.995   2.843
33182W        W99591  37.524  22.041  10.683
33183W        W99592  13.913  22.016   1.323
33184W        W99593  14.629   2.210   4.045
33185W        W99594  20.682   3.940  13.666
33186W        W99595   5.222  10.447  10.078
33187W        W99596  44.190  31.591   2.356
33188W        W99597  38.323  37.420  11.078
33189W        W99598   1.257  13.711  11.459
33190W        W99599  19.215  32.336   1.497
33191W        W99600   2.341  38.864  13.460
33192W        W99601  18.502  27.639   4.485
33193W        W99602   1.084  10.210  11.814
33194W        W99603  12.775   2.869   4.014
33195W        W99604  17.957  18.054   2.619
33196W        W99605  11.293  24.143  14.740
33197W        W99606   6.353  23.145   2.777
33198W        W99607  40.367  42.024  11.983
33199W        W99608  25.283  31.217  12.692
33200W        W99609   5.477  29.573  13.276
33201W        W99610   5.210  15.888  12.546
33202W        W99611  13.802  26.477   2.227
33203W        W99612  26.814  31.773   1.844
33204W        W99613  21.216  30.021   3.733
33205W        W99614  26.495  37.863   0.077
33206W        W99615  22.214  31.170  12.483
33207W        W99616  24.506   7.264  12.807
33208W        W99617  40.379  10.089  13.407
33209W        W99618  42.326  44.374   4.495
33210W        W99619  29.028   2.793   9.699
33211W        W99620  32.860   2.122  14.351
33212W        W99621  26.907  15.186   2.349
33213W        W99622  14.141  12.200  12.020
33214W        W99623  25.068  10.206  12.473
33215W        W99624  20.548   1.501  13.020
33216W        W99625  31.092  42.897   2.277
33217W        W99626  30.876  29.659  13.056
33218W        W99627  15.213  23.462  13.977
33219W        W99628  24.726  12.252   3.134
33220W        W99629   5.336   6.388   4.675
33221W        W99630   0.589  29.443  11.677
33222W        W99631  31.478  12.009   2.903
33223W        W99632   7.476  32.954  12.997
33224W        W99633  40.623  20.165  11.726
33225W        W99634  34.378  29.407  14.542
33226W        W99635  22.961  23.815  11.056
33227W        W99636   6.900  21.153   3.271
33228W        W99637  28.718  31.004  12.921
33229W        W99638  16.180  22.339   2.648
33230W        W99639  39.864  13.950  11.632
33231W        W99640  34.355  25.505   3.376
33232W        W99641  44.143  38.297  13.380
33233W        W99642  11.291  21.108  12.017
33234W        W99643   1.926  10.202   3.208
33235W        W99644  39.325  13.440   4.666
33236W        W99645  15.486  22.590   4.125
33237W        W99646  11.264   9.383   0.851
33238W        W99647  21.544  23.617   4.121
33239W        W99648   7.650  19.695   1.602
33240W        W99649  17.763  22.427   2.918
33241W        W99650  29.038  30.401  14.020
33242W        W99651  28.679   3.405  12.804
33243W        W99652  12.131  12.747  14.354
33244W        W99653  28.419  33.335  12.674
33245W        W99654  20.662  38.076   2.010
33246W        W99655  29.491   0.003   4.499
33247W        W99656  30.090  18.197  10.662
33248W        W99657  10.305  27.282  12.855
33249W        W99658  36.932  30.243  13.266
33250W        W99659  29.477   1.830  11.132
33251W        W99660  23.724  24.135  11.018
33252W        W99661  10.320   5.810   1.651
33253W        W99662  37.029  12.791   0.370
33254W        W99663  21.049   5.893   4.133
33255W        W99664  25.154  41.390   1.817
33256W        W99665  23.260   7.498   1.996
33257W        W99666  18.152  32.344   2.858
33258W        W99667  34.955  19.039  11.960
33259W        W99668  24.248   1.966  12.512
33260W        W99669  25.125   3.923  11.157
33261W        W99670  23.683  42.916   2.141
33262W        W99671  28.692  22.971   2.321
33263W        W99672  30.866  40.932  13.941
33264W        W99673  25.433  13.586  14.457
33265W        W99674  33.640  35.549  14.489
33266W        W99675  19.092  19.250   3.181
33267W        W99676  27.629  33.606  12.132
33268W        W99677  27.160  18.310  13.419
33269W        W99678  21.190  16.840   0.315
33270W        W99679  31.539  10.489  11.038
33271W        W99680  29.950   5.244   3.174
33272W        W99681  28.179  43.536  11.068
33273W        W99682  10.199  26.882  13.785
33274W        W99683  28.230  20.504  11.948
33275W        W99684  25.570   3.494   4.200
33276W        W99685  17.661  41.181   3.242
33277W        W99686  42.031  32.050  13.632
33278W        W99687  16.451   5.373  12.847
33279W        W99688  13.212  40.910   0.787
33280W        W99689   9.281   3.207   3.212
33281W        W99690  15.155  12.034  10.733
33282W        W99691  26.193  31.275  13.853
33283W        W99692  21.654   8.559  11.076
33284W        W99693  31.199   2.460   2.693
33285W        W99694  11.793  36.349   0.352
33286W        W99695  29.465  34.433  10.825
33287W        W99696  38.374   3.597  12.049
33288W        W99697   1.762  24.695   3.649
33289W        W99698  24.538   8.140  14.444
33290W        W99699  11.670  34.323   0.222
33291W        W99700  30.018  33.431   0.398
33292W        W99701   2.535  36.697   0.743
33293W        W99702  32.315  41.824  13.028
33294W        W99703  13.547  27.156  14.941
33295W        W99704  14.736  44.464  12.965
33296W        W99705  34.585  32.124   1.446
33297W        W99706  19.788  35.751  13.074
33298W        W99707  14.855   5.857   3.720
33299W        W99708  42.388   8.027   4.995
33300W        W99709   4.758  21.920  11.328
33301W        W99710  13.869  26.071  10.669
33302W        W99711  38.020   3.126   1.654
33303W        W99712  24.511  16.157  14.778
33304W        W99713   8.470  44.947   1.595
33305W        W99714  43.253  14.789  13.956
33306W        W99715  20.800  14.212  14.397
33307W        W99716   7.575  33.390   2.878
33308W        W99717  25.951  32.018   1.196
33309W        W99718  17.655   6.355  13.490
33310W        W99719  19.314  11.824  14.330
33311W        W99720  31.933  30.498  10.396
33312W        W99721   8.352  34.598  11.038
33313W        W99722  30.840  25.072   0.636
33314W        W99723  18.160  20.623   3.040
33315W        W99724   2.528  37.657   2.220
33316W        W99725  18.364  14.699   4.296
33317W        W99726  44.710  14.795  13.170
33318W        W99727  14.122  38.790  13.483
33319W        W99728   0.290   6.663  10.739
33320W        W99729  23.862  26.286   3.268
33321W        W99730  32.500  20.714   2.656
33322W        W99731  14.097  25.899  13.039
33323W        W99732  41.355  33.647   4.887
33324W        W99733  34.419  14.570  11.483
33325W        W99734  38.258  12.335  13.756
33326W        W99735  26.004  33.969   4.734
33327W        W99736  19.786  18.751  12.604
33328W        W99737  25.029  22.076  13.433
33329W        W99738  14.251  28.621   0.720
33330W        W99739  17.286  42.979  14.027
33331W        W99740  22.381   7.669   0.913
33332W        W99741   4.431  22.811  13.015
33333W        W99742   8.887  36.425   2.195
33334W        W99743   7.724  10.784  13.545
33335W        W99744  25.471  11.939   4.209
33336W        W99745   3.472  38.101   0.267
33337W        W99746  10.330  18.299  13.076
33338W        W99747  41.525  12.821  11.138
33339W        W99748  29.420  21.216   3.727
33340W        W99749  16.828  32.582   3.593
33341W        W99750   1.647   7.502  14.588
33342W        W99751  27.694   3.006   3.593
33343W        W99752   8.113  32.800  12.527
33344W        W99753  27.169  24.759  12.097
33345W        W99754  35.684  24.171   4.804
33346W        W99755   5.792  16.373  12.925
33347W        W99756  14.304  36.286  10.766
33348W        W99757  16.119  11.664  14.979
33349W        W99758  22.205  16.660  13.016
33350W        W99759  16.533  39.822  12.515
33351W        W99760   0.953  23.457   1.193
33352W        W99761  12.847  19.244   3.677
33353W        W99762   4.472  10.844  10.539
33354W        W99763  32.580  20.360  12.824
33355W        W99764  34.591   3.361  13.010
33356W        W99765   4.429  13.564  14.872
33357W        W99766  19.567   5.527  12.782
33358W        W99767  34.618  12.809  11.041
33359W        W99768  15.215  11.250   4.655
33360W        W99769   4.495  15.256   4.141
33361W        W99770  13.124   2.881   0.534
33362W        W99771  21.413   4.507   1.277
33363W        W99772  24.652  23.358   0.115
33364W        W99773  29.734   6.606   1.843
33365W        W99774  25.270  10.326   1.146
33366W        W99775  32.477  18.350  10.407
33367W        W99776  34.589  16.658  12.616
33368W        W99777  29.420  23.109   1.357
33369W        W99778   8.599  36.598  11.640
33370W        W99779  23.981  19.234   2.496
33371W        W99780   9.812  40.439  14.723
33372W        W99781  19.728  20.196  14.746
33373W        W99782  13.730  33.051  14.906
33374W        W99783  33.318   4.852   0.481
33375W        W99784  29.188  35.402   2.360
33376W        W99785  20.648  25.883   0.292
33377W        W99786  44.024  40.259   2.004
33378W        W99787  14.725  42.582  10.933
33379W        W99788  19.733  37.329   1.917
33380W        W99789   9.329   7.300  12.049
33381W        W99790  13.600  25.689   4.246
33382W        W99791   8.412  23.452   4.251
33383W        W99792  26.506  13.645  10.604
33384W        W99793   8.820  29.950  10.773
33385W        W99794   1.537   7.678   9.548
33386W        W99795  12.574  19.538  12.037
33387W        W99796   4.582  20.497   4.151
33388W        W99797  25.961  34.964  12.998
33389W        W99798   9.067  36.058  12.428
33390W        W99799  25.526  39.498  10.423
33391W        W99800  11.676  32.907   2.068
33392W        W99801   2.362  41.987   0.880
33393W        W99802  36.057  34.362  13.183
33394W        W99803   1.378   3.951   3.648
33395W        W99804  18.812  35.491   0.744
33396W        W99805  25.293  18.496  14.319
33397W        W99806  18.128  30.709  13.336
33398W        W99807   2.427   9.338   4.100
33399W        W99808  37.012   4.937  13.267
33400W        W99809   1.831   1.680   4.164
33401W        W99810  12.476  13.157   2.889
33402W        W99811  10.824   9.932   1.260
33403W        W99812  33.568  18.703   1.355
33404W        W99813  13.878  26.744  14.794
33405W        W99814  40.287   8.212  11.612
33406W        W99815  23.798  23.854  11.485
33407W        W99816  22.073  24.083   3.684
33408W        W99817  17.036  40.976  10.622
33409W        W99818  23.661  39.405   4.361
33410W        W99819  44.314  32.952  10.311
33411W        W99820  27.111   8.747   3.813
33412W        W99821  44.792  33.494  13.921
33413W        W99822  29.896  11.191  13.983
33414W        W99823   5.248  37.965  10.410
33415W        W99824  40.949  29.433   3.986
33416W        W99825  37.418  35.249   3.139
33417W        W99826  14.756  25.494   2.840
33418W        W99827  26.482   6.674   2.874
33419W        W99828  12.194  20.840   4.798
33420W        W99829  37.266  11.064   2.305
33421W        W99830  28.860   0.717  12.044
33422W        W99831  39.908  42.961  12.435
33423W        W99832  16.407  38.845  13.451
33424W        W99833  40.244  10.129  11.221
33425W        W99834  29.225   9.726   2.665
33426W        W99835  18.444  40.599  11.526
33427W        W99836   3.782  11.657   1.156
33428W        W99837  37.068  24.418   4.165
33429W        W99838  42.874  28.855   0.070
33430W        W99839   4.728  14.806  10.175
33431W        W99840   4.421   0.472   3.365
33432W        W99841  30.400   0.074  12.930
33433W        W99842  42.892  30.869  14.934
33434W        W99843   3.350  37.312  12.664
33435W        W99844  39.000  38.050   2.496
33436W        W99845  14.175  22.583   4.531
33437W        W99846  39.299   7.831   1.240
33438W        W99847   4.094   1.807  11.722
33439W        W99848  35.301  20.630   4.491
33440W        W99849   4.314   4.656  12.482
33441W        W99850   1.181   5.775  14.776
33442W        W99851  35.363  24.991  13.924
33443W        W99852  19.808  22.585  14.288
33444W        W99853  21.993  34.048  12.481
33445W        W99854   8.226   8.898  14.487
33446W        W99855   7.741   2.755   1.441
33447W        W99856  24.690  17.196  13.984
33448W        W99857  23.165  24.232   3.475
33449W        W99858   3.230  32.127  13.490
33450W        W99859  35.826  39.830  12.010
33451W        W99860  34.580   5.757  13.336
33452W        W99861  22.224  41.081   1.732
33453W        W99862  12.180   2.778   0.382
33454W        W99863  28.642  22.837  14.957
33455W        W99864   4.700  22.996  11.239
33456W        W99865  28.075  16.626  11.275
33457W        W99866  38.946  21.672  12.641
33458W        W99867  30.062  32.089  13.492
33459W        W99868  13.034   0.455   0.285
33460W        W99869  43.506  16.269  14.514
33461W        W99870  36.852  15.794  12.566
33462W        W99871  18.535   6.674  11.314
33463W        W99872  42.161  18.682   3.370
33464W        W99873   4.907  16.721   4.895
33465W        W99874  14.502  14.282   4.421
33466W        W99875  19.753  39.101   2.423
33467W        W99876   2.813  44.292   0.544
33468W        W99877   0.238  23.788  14.005
33469W        W99878  19.598  15.706   0.946
33470W        W99879  14.039  23.084  11.620
33471W        W99880  30.018  44.238   1.200
33472W        W99881   3.402  10.222  12.152
33473W        W99882  13.908  24.770  10.815
33474W        W99883  20.590   9.701  13.509
33475W        W99884  20.708  27.604   2.403
33476W        W99885  41.183  43.493   2.619
33477W        W99886  37.866  14.209   1.047
33478W        W99887  30.939  34.119  12.011
33479W        W99888  39.510   6.090  12.018
33480W        W99889  17.588  16.272  10.731
33481W        W99890   4.627  12.267  13.724
33482W        W99891  29.573  44.076  14.476
33483W        W99892  12.674   3.817   2.185
33484W        W99893  21.168  35.002   4.014
33485W        W99894  13.292  23.151  10.683
33486W        W99895  35.146   5.327  11.085
33487W        W99896   7.312  21.283   2.727
33488W        W99897  22.005   3.729  11.133
33489W        W99898  25.213  24.574   1.363
33490W        W99899  36.512   3.940   0.902
33491W        W99900   6.809  25.555  14.335
33492W        W99901  22.584  14.314  13.237
33493W        W99902  32.018  21.509  10.816
33494W        W99903  18.049  24.375  14.352
33495W        W99904  39.263   9.703  10.475
33496W        W99905  44.443  26.663  11.565
33497W        W99906  14.619  23.448   0.806
33498W        W99907  16.737   8.475   4.541
33499W        W99908  33.446   1.831  12.633
33500W        W99909  43.081  22.138   1.114
33501W        W99910  44.665   0.424   3.212
33502W        W99911  35.481   3.688   2.716
33503W        W99912   9.899  25.573   0.965
33504W        W99913  14.331  28.640  11.172
33505W        W99914  12.264   2.281   1.887
33506W        W99915  27.112  36.635   3.688
33507W        W99916  29.386  27.597  12.947
33508W        W99917  43.695  18.063   0.676
33509W        W99918  36.443  12.837  14.011
33510W        W99919  24.962  33.839  12.692
33511W        W99920  43.024  19.676   0.825
33512W        W99921   2.871  33.338   0.432
33513W        W99922  26.079  33.426   1.964
33514W        W99923   6.957  25.897  12.575
33515W        W99924  38.133   4.763   1.712
33516W        W99925   7.030   8.209  14.283
33517W        W99926  10.457   0.089  12.535
33518W        W99927  19.972  27.559   0.233
33519W        W99928  25.123  27.984  14.086
33520W        W99929  12.657  17.176  13.801
33521W        W99930  15.406   7.887   2.674
33522W        W99931  36.634  44.330  10.809
33523W        W99932  24.949  41.759   1.502
33524W        W99933  27.621   7.750  13.098
33525W        W99934  37.894   8.363  13.388
33526W        W99935  21.045  33.803  14.983
33527W        W99936  35.379  34.470   3.102
33528W        W99937   3.972  35.988  10.284
33529W        W99938   5.484   3.187  12.451
33530W        W99939  16.727  29.610   3.279
33531W        W99940   3.252  30.932  12.871
33532W        W99941   9.350  26.988  14.323
33533W        W99942   6.219  40.332   3.123
33534W        W99943   7.904   5.264  12.459
33535W        W99944  28.544   6.509  11.307
33536W        W99945  12.559   4.717  11.687
33537W        W99946  40.139   6.725   2.869
33538W        W99947  11.815  24.451  14.242
33539W        W99948  31.122  12.708  11.616
33540W        W99949  28.255  21.010  14.414
33541W        W99950  28.366  34.368   0.496
33542W        W99951  25.522   3.299   0.977
33543W        W99952  18.795   2.543  11.180
33544W        W99953  40.441  22.975   3.216
33545W        W99954  10.218  36.972   0.371
33546W        W99955  14.922  27.441   4.099
33547W        W99956  33.934  40.820   4.579
33548W        W99957  26.811   4.348   0.832
33549W        W99958  38.339  14.641  11.027
33550W        W99959  41.097  16.921   3.254
33551W        W99960   4.907  31.615   2.287
33552W        W99961  20.614  27.407  10.751
33553W        W99962   2.448  30.110  11.414
33554W        W99963   1.191  11.156  11.540
33555W        W99964  16.093  24.986  10.630
33556W        W99965  21.714  35.372  10.818
33557W        W99966  44.843  40.258  11.007
33558W        W99967   6.017   7.123  12.323
33559W        W99968  27.104  38.774  13.278
33560W        W99969  21.648  26.632   1.409
33561W        W99970   2.266  24.264  11.050
33562W        W99971  10.744  28.194   1.896
33563W        W99972   3.998  31.061   1.346
33564W        W99973   3.283   7.203   2.235
33565W        W99974   6.768  12.129   0.392
33566W        W99975  19.114  30.454  12.598
33567W        W99976  31.261  34.417   3.085
33568W        W99977   7.386  24.282   0.909
33569W        W99978  30.133  15.099  14.784
33570W        W99979  34.511  43.815  14.266
33571W        W99980  14.804  40.371  13.707
33572W        W99981   8.722  15.562   0.935
33573W        W99982  43.044   6.261   3.202
33574W        W99983   1.777  35.572  11.627
33575W        W99984  18.090   0.907  12.104
33576W        W99985   7.730  39.551  12.110
33577W        W99986  38.367  30.655   1.600
33578W        W99987  37.900  38.557  14.382
33579W        W99988  17.644  32.106  13.836
33580W        W99989  32.571  30.060  10.745
33581W        W99990  16.191  35.645  11.243
33582W        W99991  13.230   1.951   2.102
33583W        W99992  42.724  19.517   1.680
33584W        W99993  36.062  41.344  13.811
33585W        W99994  15.489  36.467  13.137
33586W        W99995  43.610  42.698   3.652
33587W        W99996  21.058  26.226   1.446
33588W        W99997  32.415  36.758  11.924
33589W        W99998  38.474   6.393  13.376
33590W        W99999  14.814  41.544   3.157
33591W        W    0  23.505  42.499  14.043
33592W        W    1  30.861   6.433   4.537
33593W        W    2   5.860   8.320  13.585
33594W        W    3  30.869   0.378   1.275
33595W        W    4  11.157  30.034  13.894
33596W        W    5  43.882  32.969  11.152
33597W        W    6   7.882   4.399  13.391
33598W        W    7  32.499  15.762  11.431
33599W        W    8  40.562  41.576   5.044
33600W        W    9  14.592  30.428  14.979
33601W        W   10  35.134  42.552  11.171
33602W        W   11  27.248  10.755  11.544
33603W        W   12   3.528  18.358  14.862
33604W        W   13  20.761  42.782  11.537
33605W        W   14  36.852   9.445   3.709
33606W        W   15  33.708  18.227  10.969
33607W        W   16  17.059  15.141   3.474
33608W        W   17  41.930   9.635   2.306
33609W        W   18  22.712  35.575  13.208
33610W        W   19   8.012  38.817   4.514
33611W        W   20  34.335  10.131  10.149
33612W        W   21  22.924  39.347  10.576
33613W        W   22   1.459  43.501  11.832
33614W        W   23  21.066  23.826  12.100
33615W        W   24  35.025   5.625  11.513
33616W        W   25  40.496  42.520  12.034
33617W        W   26   9.803  38.882   4.939
33618W        W   27   7.656  25.986   3.130
33619W        W   28  43.986  37.777  12.508
33620W        W   29  24.905  28.841  13.656
33621W        W   30  10.273  32.879   0.776
33622W        W   31   5.261   8.145   2.444
33623W        W   32  15.707  41.811  12.635
33624W        W   33   6.826   7.399  11.691
33625W        W   34   5.580  21.585  10.427
33626W        W   35  22.152   3.032   2.950
33627W        W   36  24.222  39.255   3.407
33628W        W   37  12.899   1.316  14.895
33629W        W   38  41.250   2.486  12.976
33630W        W   39  41.121  18.683   4.231
33631W        W   40   4.110   9.318   0.823
33632W        W   41  29.495  25.505   4.627
33633W        W   42  38.031  40.536  12.466
33634W        W   43  19.078   0.593   4.654
33635W        W   44   5.114   7.699  10.736
33636W        W   45   0.250  36.378   3.712
33637W        W   46  18.063  33.165   0.313
33638W        W   47  22.684  19.727   0.547
33639W        W   48  29.882  42.644   2.325
33640W        W   49  21.325  34.957  13.534
33641W        W   50  34.634  41.691  14.922
33642W        W   51  22.634  27.601   3.082
33643W        W   52  36.475  28.902  12.809
33644W        W   53  37.299  16.489   1.376
33645W        W   54  21.082   9.618  10.684
33646W        W   55  44.213  26.199  14.295
33647W        W   56  34.788   6.776   1.815
33648W        W   57  33.389   3.619  14.475
33649W        W   58  18.288  42.288  14.170
33650W        W   59  37.013  22.539  12.258
33651W        W   60  38.659  22.808  11.996
33652W        W   61  14.790   5.662  14.330
33653W        W   62   6.150  30.004   3.522
33654W        W   63  29.991  43.025   2.681
33655W        W   64  38.170  38.530  12.061
33656W        W   65   6.668   2.817   4.666
33657W        W   66  26.085  26.823   4.541
33658W        W   67  43.566  38.135  13.409
33659W        W   68  20.629  20.105   4.847
33660W        W   69   4.804  24.244  13.771
33661W        W   70  23.929  25.025  11.212
33662W        W   71   6.416   5.717  14.901
33663W        W   72  22.894   6.645   2.311
33664W        W   73  39.517  18.213   2.681
33665W        W   74  44.899  15.765   4.507
33666W        W   75   2.185  37.419   1.890
33667W        W   76  12.829  19.656  11.132
33668W        W   77  22.228  41.768  13.307
33669W        W   78  33.555  10.740  13.068
33670W        W   79  12.880   7.840  12.021
33671W        W   80   6.567  39.901  14.934
33672W        W   81  22.689  32.763  14.290
33673W        W   82  37.074  41.968   0.054
33674W        W   83  25.574  11.328  14.561
33675W        W   84  22.065  37.627  12.497
33676W        W   85  34.845  25.433   4.725
33677W        W   86  25.665  39.881  11.192
33678W        W   87  24.110   9.673   4.309
33679W        W   88  40.461  25.007   3.400
33680W        W   89   0.126   0.704   3.194
33681W        W   90  14.569  20.274  13.912
33682W        W   91  20.719   8.696  11.420
33683W        W   92  26.524  20.188  13.829
33684W        W   93  30.003  42.732  14.855
33685W        W   94  14.596  26.077   4.421
33686W        W   95  19.627  10.690  14.934
33687W        W   96   6.455  36.726  11.043
33688W        W   97  33.118   6.768  14.544
33689W        W   98  31.568  33.987   3.242
33690W        W   99  32.018  19.293  10.761
33691W        W  100  17.719  15.042   1.409
33692W        W  101  28.001  39.577   4.341
33693W        W  102  21.164   1.788  12.572
33694W        W  103   0.760  18.615  14.559
33695W        W  104  17.951   7.197  14.930
33696W        W  105  11.170  17.392  12.442
33697W        W  106  18.681  26.295   4.081
33698W        W  107  18.641   0.260  11.142
33699W        W  108  39.042  16.772  13.811
33700W        W  109  18.881  24.480  12.704
33701W        W  110  19.699  41.875   4.545
33702W        W  111  35.516  44.617   2.214
33703W        W  112   4.618  20.497  14.203
33704W        W  113  14.890  10.781   2.287
33705W        W  114   2.409   1.460   3.308
33706W        W  115   2.412  40.489   2.274
33707W        W  116  41.007  42.529  10.643
33708W        W  117   8.300  30.701   1.671
33709W        W  118   1.263  29.116  11.836
33710W        W  119  44.957  39.212  11.858
33711W        W  120  30.101  33.326  13.245
33712W        W  121  31.113  15.522  10.774
33713W        W  122   4.513   8.912   0.432
33714W        W  123  27.887   0.720   1.261
33715W        W  124   4.804  11.757   2.129
33716W        W  125  12.212  37.373  13.457
33717W        W  126  41.053  21.213   0.007
33718W        W  127  40.974  23.306   2.467
33719W        W  128  23.949  24.273  12.904
33720W        W  129  41.887  39.502  14.916
33721W        W  130  34.425  15.692   4.184
33722W        W  131  14.742  33.333   0.816
33723W        W  132  39.831  26.976  11.981
33724W        W  133  41.491  23.488  12.571
33725W        W  134  36.072  23.799   2.386
33726W        W  135  43.489  30.973   3.061
33727W        W  136  31.086  25.955  12.940
33728W        W  137  15.179  42.765   3.248
33729W        W  138  11.351  21.561  12.737
33730W        W  139  19.104  11.689   0.256
33731W        W  140  11.152   7.884  12.211
33732W        W  141  41.555  35.233   3.242
33733W        W  142   8.039  18.323   4.644
33734W        W  143  26.467  31.718   4.774
33735W        W  144  29.761  17.219  11.129
33736W        W  145   4.867   0.946  10.707
33737W        W  146  24.040   2.793   3.212
33738W        W  147   4.383  42.752   0.829
33739W        W  148  40.908  42.751  13.347
33740W        W  149  39.777  15.587  12.688
33741W        W  150  32.030  21.502  12.600
33742W        W  151  21.905   4.690  14.475
33743W        W  152  11.681  30.087  13.565
33744W        W  153   4.349  15.727   3.450
33745W        W  154  43.683  27.640  12.477
33746W        W  155   0.355  31.914   5.045
33747W        W  156  36.425  39.805   3.289
33748W        W  157  43.666  37.071   1.921
33749W        W  158  27.603  20.728   3.979
33750W        W  159  22.112  42.068  11.379
33751W        W  160  11.198   1.967  13.093
33752W        W  161  15.281   4.118   2.315
33753W        W  162  13.086   6.705  12.449
33754W        W  163  36.453  37.701   1.128
33755W        W  164  23.548  19.685  11.958
33756W        W  165  37.114  28.664   0.852
33757W        W  166  40.268  22.975  14.335
33758W        W  167  34.348  15.075   2.672
33759W        W  168  28.129  41.492   4.117
33760W        W  169  14.114   2.731   4.542
33761W        W  170  35.562  37.204  11.454
33762W        W  171  44.547  17.188  14.260
33763W        W  172  22.971   4.259  11.461
33764W        W  173  17.298  15.477  13.730
33765W        W  174   2.559  15.107  13.950
33766W        W  175   8.696  33.450   1.297
33767W        W  176  14.913  42.527  12.443
33768W        W  177  34.865  44.072  12.892
33769W        W  178  42.303  16.072  11.980
33770W        W  179  28.532   0.821  13.677
33771W        W  180  42.908  37.015   4.596
33772W        W  181  38.461  39.719   3.695
33773W        W  182  14.265  33.559  10.493
33774W        W  183  19.272  29.978  12.485
33775W        W  184   6.342  37.475   1.538
33776W        W  185   7.427  11.600   1.740
33777W        W  186   1.458  27.530   1.925
33778W        W  187   6.002  25.638   0.354
33779W        W  188  11.150  26.014   4.544
33780W        W  189  28.932  24.878   4.825
33781W        W  190  25.529  26.656  12.246
33782W        W  191   1.308  44.056   1.406
33783W        W  192   5.137   1.460   1.369
33784W        W  193  17.257  40.754  11.033
33785W        W  194  18.076  24.007  14.729
33786W        W  195  16.281  32.178   4.618
33787W        W  196   9.094  15.782  12.958
33788W        W  197  14.302  13.871  12.963
33789W        W  198   9.662   8.228  12.460
33790W        W  199  18.701  37.444  14.393
33791W        W  200  13.309   6.189   2.068
33792W        W  201  21.449  34.601   4.624
33793W        W  202  29.517   6.728   0.235
33794W        W  203  23.159  36.052   3.338
33795W        W  204  30.111  16.409   5.026
33796W        W  205  30.869  35.413  12.867
33797W        W  206  13.186  42.335  10.993
33798W        W  207  27.792  35.984  14.194
33799W        W  208   3.992  20.827  13.464
33800W        W  209  10.146  35.532  13.400
33801W        W  210  32.475  23.575  13.012
33802W        W  211   4.260  29.004   0.903
33803W        W  212  38.822  19.659   2.668
33804W        W  213  35.564  30.004  11.508
33805W        W  214  35.124  41.277  11.147
33806W        W  215   7.096  24.366  12.898
33807W        W  216   6.107  26.069   4.938
33808W        W  217  36.320  42.878  11.577
33809W        W  218  17.094   5.566   3.256
33810W        W  219  34.270  33.561   3.347
33811W        W  220  28.845   9.656  12.568
33812W        W  221  32.549  26.948   2.794
33813W        W  222   8.429  25.486   9.946
33814W        W  223  28.905  36.219   3.109
33815W        W  224   0.430  23.466   4.456
33816W        W  225  36.814  35.847   1.351
33817W        W  226  10.372  21.934  10.714
33818W        W  227  42.899  18.795   0.007
33819W        W  228  16.155  38.374  13.489
33820W        W  229  38.581  16.028  12.345
33821W        W  230  10.118  22.935  10.971
33822W        W  231   1.364  42.495   3.692
33823W        W  232   4.755  10.765   1.180
33824W        W  233  24.677  37.074  11.993
33825W        W  234  28.103  40.364  11.051
33826W        W  235  37.388  27.175  14.845
33827W        W  236  20.559  20.049  12.520
33828W        W  237  44.769  22.892   4.366
33829W        W  238   9.352  38.237  11.313
33830W        W  239  17.441  36.908  10.637
33831W        W  240  35.356  32.599   2.418
33832W        W  241  44.495  37.386  14.950
33833W        W  242  27.529   5.201   2.668
33834W        W  243  30.129  16.131  13.819
33835W        W  244  10.063  35.224   4.881
33836W        W  245  20.147  37.024   1.739
33837W        W  246  36.966   3.353  14.035
33838W        W  247  17.503  17.697   1.763
33839W        W  248  24.229  17.656   2.446
33840W        W  249   4.740  19.689  14.899
33841W        W  250   2.459  23.663   4.585
33842W        W  251  29.029   9.152   0.842
33843W        W  252   4.020  42.509  11.444
33844W        W  253   7.117  42.834   3.245
33845W        W  254  16.080  35.640   4.652
33846W        W  255   5.401   9.557   3.180
33847W        W  256   1.950  14.870   0.477
33848W        W  257  17.651  39.743  13.986
33849W        W  258   1.675  23.321  11.548
33850W        W  259  35.973  41.411   3.718
33851W        W  260  31.185   8.860   2.807
33852W        W  261  34.730  24.106   1.718
33853W        W  262  10.161  23.976  12.300
33854W        W  263  25.632  29.279   4.430
33855W        W  264  15.427   5.654   1.315
33856W        W  265  12.659  21.268  14.990
33857W        W  266   9.572   9.963  13.944
33858W        W  267  32.959   6.557   3.612
33859W        W  268  43.845  33.809   2.525
33860W        W  269   2.119  23.215   3.997
33861W        W  270  25.699  36.910   2.192
33862W        W  271  25.681  32.048  10.085
33863W        W  272  20.867   0.437   2.278
33864W        W  273  24.139  37.582   2.314
33865W        W  274  22.296  36.955   4.630
33866W        W  275  42.114  37.651  14.670
33867W        W  276   1.569  23.714   0.511
33868W        W  277  14.630  23.689  12.811
33869W        W  278  31.615  11.033  12.915
33870W        W  279  38.455  38.605  14.543
33871W        W  280  24.214   1.961  11.160
33872W        W  281  30.713   8.991   1.579
33873W        W  282  35.719  39.459   1.130
33874W        W  283  39.935   3.533   1.518
33875W        W  284  30.902  44.218  13.853
33876W        W  285  17.145  12.918   3.244
33877W        W  286   7.296  35.179   3.623
33878W        W  287  43.604  25.046  12.603
33879W        W  288  38.851  26.918  10.341
33880W        W  289  30.377   4.498   2.908
33881W        W  290   8.038   4.761  14.648
33882W        W  291  19.821   3.989   1.306
33883W        W  292   8.601  29.561   0.353
33884W        W  293  15.268   6.345  14.535
33885W        W  294  18.716  13.873   1.763
33886W        W  295  40.806   2.508  11.024
33887W        W  296   4.207  12.256   4.338
33888W        W  297  40.944  13.480  10.931
33889W        W  298  10.621  14.318   4.303
33890W        W  299   3.765  23.730   3.631
33891W        W  300   2.859  29.132   3.317
33892W        W  301  31.993  21.368  13.547
33893W        W  302   2.249   4.549   4.877
33894W        W  303  44.590  24.644   4.533
33895W        W  304  30.895  12.519  14.408
33896W        W  305  40.458  25.959   1.937
33897W        W  306  31.030  30.001   0.339
33898W        W  307  12.576  29.949  11.172
33899W        W  308  21.096  39.428   4.544
33900W        W  309  39.210  32.064  12.078
33901W        W  310  20.047  14.090  12.710
33902W        W  311  14.769  34.091   3.374
33903W        W  312   1.524   6.918   0.835
33904W        W  313  11.807  31.310  13.912
33905W        W  314   4.738  39.754  14.148
33906W        W  315  10.890   5.641   2.896
33907W        W  316  28.044  23.353   9.710
33908W        W  317  37.475   8.678   2.462
33909W        W  318   4.975  16.723   0.763
33910W        W  319  32.505   7.181  11.734
33911W        W  320  11.756  23.134   4.904
33912W        W  321  19.033  35.210  14.075
33913W        W  322  11.817   5.043  13.461
33914W        W  323   7.646  20.033  13.523
33915W        W  324  22.598   7.677   3.987
33916W        W  325  17.187  33.845  10.765
33917W        W  326  11.228  44.159  11.062
33918W        W  327   8.791  21.173   1.059
33919W        W  328  31.903  36.010  13.587
33920W        W  329  23.043  17.154  10.675
33921W        W  330  44.769  22.360   1.827
33922W        W  331  11.309  37.440  10.463
33923W        W  332  19.047  32.119  13.408
33924W        W  333  44.339  22.782  10.635
33925W        W  334   6.004  35.505   0.440
33926W        W  335  21.125  20.247   2.077
33927W        W  336  16.400  29.875   2.218
33928W        W  337  41.026  40.609   1.191
33929W        W  338  24.384  40.845  11.540
33930W        W  339  36.622   2.267  14.947
33931W        W  340   2.014  27.616  14.773
33932W        W  341   0.492  40.560   2.913
33933W        W  342  15.620  25.502   3.610
33934W        W  343  39.930  41.413  14.042
33935W        W  344  42.901  12.632  14.471
33936W        W  345  10.195  27.097   1.921
33937W        W  346  43.552   8.320   2.749
33938W        W  347   9.234  34.149  14.794
33939W        W  348   2.223   2.876   4.229
33940W        W  349  26.705  21.719   3.280
33941W        W  350   0.864  14.125  10.340
33942W        W  351  18.890  28.270   4.576
33943W        W  352   5.974  21.395  12.366
33944W        W  353  14.130   9.135   1.325
33945W        W  354  38.094  30.335  14.506
33946W        W  355  14.778  12.707   1.188
33947W        W  356   8.030  30.665  12.929
33948W        W  357  15.490  28.369   0.871
33949W        W  358  12.533   9.126   3.545
33950W        W  359   4.857  30.232   2.570
33951W        W  360  35.204  42.969   2.691
33952W        W  361  30.629  19.146  10.734
33953W        W  362  38.520   9.044   2.671
33954W        W  363   6.460  24.999   0.529
33955W        W  364   0.606  28.193  11.114
33956W        W  365  18.526  29.666   3.749
33957W        W  366  31.906  16.730  13.015
33958W        W  367   3.484  13.001  10.177
33959W        W  368  44.974  39.040   0.474
33960W        W  369  15.557  36.392  11.481
33961W        W  370  43.361  16.543   1.243
33962W        W  371   8.386  41.409  10.350
33963W        W  372  32.087   5.948   4.488
33964W        W  373  40.153  25.980   2.906
33965W        W  374   9.342   3.760  11.154
33966W        W  375   1.891  38.663  13.353
33967W        W  376   4.963   4.650   4.491
33968W        W  377  29.188  18.461  13.552
33969W        W  378   8.275  41.818   4.052
33970W        W  379   3.435  38.100  11.110
33971W        W  380  14.699  33.353   1.825
33972W        W  381  33.972  13.339  11.838
33973W        W  382  18.433   1.915   3.205
33974W        W  383  32.735   5.609  11.165
33975W        W  384  44.965  20.130  12.421
33976W        W  385  32.961  21.653   4.430
33977W        W  386   8.251   5.264  12.841
33978W        W  387  39.967  44.374   4.532
33979W        W  388  21.097  31.020  12.578
33980W        W  389  21.609  11.724   0.765
33981W        W  390   9.938  27.157  11.138
33982W        W  391  35.721   4.417   5.415
33983W        W  392  42.249   6.900   3.518
33984W        W  393   9.963  27.998   0.845
33985W        W  394  13.385  19.702   4.932
33986W        W  395   0.839  19.759   4.877
33987W        W  396  12.609  31.170   1.186
33988W        W  397  23.934  13.376   2.341
33989W        W  398  12.202  11.197   4.587
33990W        W  399   2.799  42.245   0.719
33991W        W  400  38.955  12.493  11.619
33992W        W  401  36.370  22.869   3.451
33993W        W  402  26.989  39.446   1.306
33994W        W  403   2.780  32.573   0.950
33995W        W  404  18.012  27.580  13.452
33996W        W  405   2.215  28.714   2.803
33997W        W  406   3.769   3.209   2.138
33998W        W  407  17.303  43.703   0.390
33999W        W  408   6.664  33.435  14.266
34000W        W  409  25.670  27.441   3.331
34001W        W  410  34.001  21.837   0.404
34002W        W  411  41.481  15.865  13.406
34003W        W  412  34.618  14.536  13.002
34004W        W  413   0.807   6.239  11.272
34005W        W  414  22.173  44.892   1.680
34006W        W  415  22.650  14.022  12.828
34007W        W  416   7.480  21.081   4.092
34008W        W  417  29.370  10.485   3.526
34009W        W  418  31.537  22.013   4.152
34010W        W  419  17.470   1.957  14.389
34011W        W  420  22.263  10.860   2.346
34012W        W  421  21.198  40.847   2.373
34013W        W  422  32.513   1.382  13.931
34014W        W  423  29.047  20.382  11.508
34015W        W  424  10.165  14.206   4.146
34016W        W  425  25.221  43.469  14.512
34017W        W  426  17.284  40.479   4.028
34018W        W  427  41.342   0.721  14.424
34019W        W  428  26.007  29.012   2.357
34020W        W  429   2.194   2.344  11.194
34021W        W  430  31.073   5.549  11.425
34022W        W  431   1.887   2.798   2.385
34023W        W  432  28.712  19.332   3.176
34024W        W  433   8.859  42.900   0.429
34025W        W  434  40.352  42.944   3.106
34026W        W  435  21.695  31.727  10.834
34027W        W  436   9.573  11.252  11.537
34028W        W  437   4.155   7.572  11.617
34029W        W  438  29.962  24.337  10.683
34030W        W  439  12.799  14.153  10.758
34031W        W  440  20.685  34.121  13.805
34032W        W  441   6.487   1.882   4.621
34033W        W  442  35.124  12.774  12.008
34034W        W  443  13.145  19.331  14.071
34035W        W  444  10.463  39.259   4.989
34036W        W  445  31.009  31.541   3.079
34037W        W  446  36.428  16.061  14.204
34038W        W  447  38.635  18.101  12.360
34039W        W  448   7.364  30.644   2.825
34040W        W  449  29.953  37.793  13.800
34041W        W  450  32.069  14.614  12.558
34042W        W  451  34.177   6.726  12.595
34043W        W  452   9.266  37.842   4.166
34044W        W  453  22.571  36.729  13.531
34045W        W  454  36.884   3.414   3.808
34046W        W  455  32.789  16.634   4.631
34047W        W  456  25.075  32.133  12.609
34048W        W  457  41.498  10.486   0.233
34049W        W  458  34.680  34.088   2.337
34050W        W  459  11.532  19.177   4.682
34051W        W  460  42.045  30.618   1.333
34052W        W  461  34.554   9.862  14.506
34053W        W  462  16.858  35.395   4.604
34054W        W  463  19.138  31.596  13.884
34055W        W  464   7.183   9.990  13.749
34056W        W  465  39.619  32.401   1.845
34057W        W  466  42.052   9.717   3.499
34058W        W  467  27.906  31.549   1.276
34059W        W  468  37.373  33.874  14.421
34060W        W  469  33.018   3.461  14.830
34061W        W  470  11.509  24.526  12.964
34062W        W  471  20.913  27.569   3.784
34063W        W  472  24.771  24.773   1.472
34064W        W  473  25.009  26.773   2.676
34065W        W  474   1.928  32.468   1.857
34066W        W  475  31.908  35.906   3.201
34067W        W  476   4.284  24.907  14.535
34068W        W  477  36.347   0.093   4.267
34069W        W  478  30.371  21.963   1.311
34070W        W  479  32.122  43.276   2.414
34071W        W  480  12.846  43.977   3.804
34072W        W  481  20.488  14.654  11.001
34073W        W  482   1.958  32.486   2.800
34074W        W  483  44.284  40.959  11.561
34075W        W  484  43.262   7.613   0.741
34076W        W  485  36.022  39.309  14.816
34077W        W  486  13.080  32.361   4.592
34078W        W  487  42.251  19.584  13.860
34079W        W  488   1.969  24.163  14.913
34080W        W  489  35.912   3.383   3.399
34081W        W  490  16.304   5.924  14.771
34082W        W  491  16.727  24.031   2.952
34083W        W  492  14.795  27.223  11.975
34084W        W  493  15.766  27.477   1.868
34085W        W  494  38.887  24.043   2.255
34086W        W  495   3.206  43.004   3.822
34087W        W  496  25.927  34.136  12.389
34088W        W  497  24.571   8.171  10.456
34089W        W  498  13.390  12.722  12.843
34090W        W  499  14.602  41.323   0.723
34091W        W  500  10.993  18.653   4.196
34092W        W  501   5.759  34.061  13.025
34093W        W  502   2.758  39.572   3.287
34094W        W  503  36.327  14.742  11.092
34095W        W  504  20.514  26.731   3.363
34096W        W  505  28.970  34.666  11.016
34097W        W  506  16.096  10.906  11.577
34098W        W  507  22.310  21.760   5.045
34099W        W  508  26.415   2.761   3.950
34100W        W  509  18.211  15.923  12.409
34101W        W  510  23.732  28.997  11.961
34102W        W  511   3.685  33.541  13.023
34103W        W  512   3.083   8.964  11.932
34104W        W  513  22.302  33.902  14.435
34105W        W  514  33.500  32.928  14.097
34106W        W  515  34.636  39.283   3.876
34107W        W  516  20.171  36.993  14.816
34108W        W  517  24.305  15.353  11.446
34109W        W  518   1.379   3.486   3.347
34110W        W  519  30.179  18.740  14.494
34111W        W  520  23.210  35.911   1.236
34112W        W  521  11.910  29.968  12.035
34113W        W  522  26.544  40.817  10.603
34114W        W  523  39.016  35.471  10.667
34115W        W  524  13.701  13.442  11.164
34116W        W  525  41.872   1.947   3.836
34117W        W  526  23.727  30.123  13.378
34118W        W  527  15.983   4.626  13.645
34119W        W  528  41.420  26.453   0.950
34120W        W  529  35.353   1.480   5.142
34121W        W  530   6.070   1.961   0.491
34122W        W  531  41.019  26.072  14.970
34123W        W  532   7.826  28.273  11.505
34124W        W  533  16.843  41.411  10.414
34125W        W  534  14.305  14.792  14.434
34126W        W  535  23.029  30.033   3.839
34127W        W  536  10.222   5.200   0.420
34128W        W  537  20.797  35.052  13.980
34129W        W  538   0.759  15.645   3.644
34130W        W  539   0.479   4.489  12.934
34131W        W  540  39.440  11.029   0.356
34132W        W  541  28.100  31.925   2.815
34133W        W  542  13.601  31.532   4.856
34134W        W  543  16.279   0.249   4.881
34135W        W  544  16.209  19.796  14.455
34136W        W  545  31.106  39.319   0.368
34137W        W  546  14.236  42.414   4.914
34138W        W  547  43.423  18.059   0.220
34139W        W  548  12.685  16.738  14.102
34140W        W  549  20.666  24.995   3.335
34141W        W  550  15.596  13.752  13.369
34142W        W  551  35.717  39.727  11.084
34143W        W  552  25.662  31.591   1.376
34144W        W  553  22.057  38.425  13.896
34145W        W  554  25.753  34.339   1.311
34146W        W  555  39.498  38.655  14.382
34147W        W  556  18.166   7.379  13.815
34148W        W  557  15.783  36.390   2.610
34149W        W  558  24.493  28.483  13.855
34150W        W  559   0.416   8.212   3.436
34151W        W  560  37.634  11.782  14.937
34152W        W  561   9.170   8.299   1.872
34153W        W  562  15.097  44.873   1.044
34154W        W  563  21.128  25.896  14.219
34155W        W  564   5.224  24.513  13.925
34156W        W  565  22.232   4.865  11.953
34157W        W  566  26.624   1.733   2.287
34158W        W  567   0.033  28.864   1.950
34159W        W  568  28.994  17.696  12.925
34160W        W  569  21.481  17.660  11.616
34161W        W  570  32.158   3.807   0.871
34162W        W  571  10.329  11.928  12.466
34163W        W  572  22.935  42.846   4.051
34164W        W  573  32.373  24.061   1.804
34165W        W  574  35.809  19.756  13.455
34166W        W  575  17.988   0.235   1.859
34167W        W  576  39.305  13.835  13.969
34168W        W  577   5.776  42.355   3.352
34169W        W  578  26.434  30.323   2.894
34170W        W  579  30.760  30.287   1.272
34171W        W  580   4.486   4.333  14.702
34172W        W  581  11.151   1.354  14.296
34173W        W  582  36.052   6.906  13.915
34174W        W  583  25.417  14.704   2.781
34175W        W  584  26.209   0.418   2.496
34176W        W  585  36.167  33.043   1.184
34177W        W  586  28.816  15.210  14.062
34178W        W  587   4.868  36.597   3.423
34179W        W  588   3.402  22.081   0.481
34180W        W  589   6.376  38.012  12.932
34181W        W  590  41.048  44.251   0.376
34182W        W  591   1.895  12.050  12.334
34183W        W  592  19.823  38.276   0.294
34184W        W  593   7.587  42.620   0.357
34185W        W  594   4.765  39.363  11.504
34186W        W  595   0.681  35.613  13.387
34187W        W  596  14.397  26.754  14.715
34188W        W  597  33.687  38.591   1.641
34189W        W  598  44.272  30.092   4.799
34190W        W  599  28.251  37.440  10.273
34191W        W  600  38.602  19.086  10.253
34192W        W  601  26.455  28.600   0.230
34193W        W  602  41.503  36.136  13.909
34194W        W  603  32.971  34.147  12.529
34195W        W  604  44.709  12.697   4.384
34196W        W  605  41.615  29.591  13.778
34197W        W  606  43.900  29.375  13.945
34198W        W  607  27.619  17.818   2.770
34199W        W  608  37.395   5.212  12.319
34200W        W  609  20.126   9.096   4.830
34201W        W  610  29.865  19.208   0.028
34202W        W  611  37.599  42.471   4.834
34203W        W  612  16.755  42.370   3.418
34204W        W  613   3.262  36.199  10.809
34205W        W  614  25.608  25.755  10.132
34206W        W  615  14.798  40.593  14.193
34207W        W  616   2.890  24.795   3.999
34208W        W  617  17.635  23.072  13.479
34209W        W  618  23.503  20.279   2.154
34210W        W  619  41.603   4.708  14.972
34211W        W  620  15.431  25.405   0.551
34212W        W  621  41.769  24.894   0.662
34213W        W  622   6.070  18.602  13.624
34214W        W  623  23.698  25.655  12.653
34215W        W  624  16.720  21.636   2.528
34216W        W  625  16.716  40.102  12.093
34217W        W  626  29.347  34.395   4.051
34218W        W  627   7.629  42.343  10.825
34219W        W  628   1.270  40.249  12.988
34220W        W  629  41.530  19.085  10.672
34221W        W  630  11.700  24.770  13.395
34222W        W  631  40.212  22.198   2.759
34223W        W  632  10.174   2.878   1.303
34224W        W  633  35.401  16.987   4.146
34225W        W  634  17.620  12.678   3.964
34226W        W  635  13.872  19.255  10.306
34227W        W  636  34.992  12.738   2.392
34228W        W  637   6.365  22.336   5.476
34229W        W  638  25.481  32.065  10.623
34230W        W  639   3.417  15.694   4.667
34231W        W  640  34.461   3.219  14.391
34232W        W  641  36.582  17.172  12.125
34233W        W  642  32.463  33.455  13.325
34234W        W  643  30.619  10.561   0.693
34235W        W  644  38.109   0.080   1.545
34236W        W  645  23.141  16.368  13.090
34237W        W  646  26.014  34.139  11.371
34238W        W  647  31.129  17.003   0.426
34239W        W  648  23.201  36.376  14.992
34240W        W  649  20.322   7.943  12.092
34241W        W  650  31.480  11.662   0.973
34242W        W  651  10.940  12.843  14.932
34243W        W  652  11.573   6.391   2.669
34244W        W  653   9.501  16.238  10.379
34245W        W  654  14.676  26.599  10.620
34246W        W  655  34.933  32.982  11.139
34247W        W  656  43.056  10.175  11.137
34248W        W  657  38.894   5.342   3.225
34249W        W  658  16.656  39.103   5.038
34250W        W  659  35.855  11.774  13.451
34251W        W  660  12.292   2.917   0.930
34252W        W  661   0.540  33.273  11.671
34253W        W  662  36.866   2.628   0.815
34254W        W  663  17.913  11.174  11.665
34255W        W  664  16.029   9.373   1.472
34256W        W  665  23.787  23.034  12.890
34257W        W  666   1.059  33.491   2.910
34258W        W  667   0.017  16.703   1.202
34259W        W  668  26.696   6.476  13.508
34260W        W  669  18.982  15.881   2.306
34261W        W  670   1.774  32.068  11.438
34262W        W  671  18.095  41.765   0.480
34263W        W  672  33.616   0.126  12.160
34264W        W  673  28.443  34.644   0.928
34265W        W  674   3.502  27.064   0.690
34266W        W  675  34.072  40.116  11.174
34267W        W  676  29.820   9.720  10.007
34268W        W  677  29.613   0.573  14.323
34269W        W  678  34.996  17.355  12.392
34270W        W  679  30.298  37.917  14.954
34271W        W  680  16.665  31.757   0.360
34272W        W  681  10.147  43.470  12.848
34273W        W  682   9.371   3.478   3.653
34274W        W  683   4.678   7.725   4.538
34275W        W  684  36.733  11.112   3.092
34276W        W  685  34.071   7.697   4.733
34277W        W  686  20.214  13.579  12.871
34278W        W  687  26.959  30.398  14.020
34279W        W  688  44.530  35.989  13.759
34280W        W  689  31.098  22.887   4.453
34281W        W  690  11.421  12.409   2.753
34282W        W  691  23.189  32.784   2.365
34283W        W  692   4.432  31.461   2.136
34284W        W  693  21.124  36.521   2.645
34285W        W  694  25.880  31.193  13.218
34286W        W  695  23.123  23.302   0.933
34287W        W  696  11.089  37.494  11.412
34288W        W  697  31.599  11.157   0.866
34289W        W  698  15.357  18.043  10.331
34290W        W  699  42.425  29.612   4.406
34291W        W  700  35.493  19.662  11.477
34292W        W  701  39.137  22.186  14.453
34293W        W  702  19.914   5.099   0.991
34294W        W  703  14.567  18.872  12.819
34295W        W  704  20.635  13.432  11.862
34296W        W  705  14.657  39.075   0.325
34297W        W  706  18.524  40.668   3.226
34298W        W  707  41.691   5.809   3.692
34299W        W  708  42.931   9.387  11.703
34300W        W  709  35.584  17.205  10.736
34301W        W  710  24.115  30.395   0.969
34302W        W  711  17.953  16.562   0.515
34303W        W  712  44.811  41.451   1.885
34304W        W  713  24.543  22.043  13.906
34305W        W  714   9.931  32.544  12.037
34306W        W  715  43.394  34.176  13.860
34307W        W  716  25.923  38.678   0.847
34308W        W  717  16.844  23.524  12.616
34309W        W  718   6.305   1.300  10.300
34310W        W  719  32.406   6.428   4.305
34311W        W  720   7.057  44.936   2.768
34312W        W  721  35.520  30.214   4.767
34313W        W  722  25.633  41.401  11.894
34314W        W  723  24.218  24.017   1.297
34315W        W  724  10.701  33.321  13.351
34316W        W  725  35.010  12.375  13.301
34317W        W  726  34.681   1.784  10.595
34318W        W  727   9.686  26.606   3.194
34319W        W  728  26.979  43.503   4.723
34320W        W  729  32.782  13.768   4.836
34321W        W  730   3.671   7.804   3.268
34322W        W  731  44.206  24.684  13.748
34323W        W  732  43.352  36.026   0.467
34324W        W  733  36.347  10.295   3.153
34325W        W  734  16.803  36.826  11.481
34326W        W  735   2.962   6.803  13.836
34327W        W  736  25.431  29.079   1.664
34328W        W  737  35.328  44.273  12.814
34329W        W  738  16.687  38.009   2.068
34330W        W  739   6.140  17.211  12.134
34331W        W  740  31.469  10.979   0.319
34332W        W  741  37.545  18.313  11.636
34333W        W  742  19.716   6.834   1.605
34334W        W  743  19.791   0.948   4.258
34335W        W  744  12.542   0.329   0.312
34336W        W  745  41.548  30.666   0.032
34337W        W  746  37.432   2.557  13.953
34338W        W  747  41.178   2.287   1.500
34339W        W  748  14.216  43.689  12.698
34340W        W  749   6.171   7.866  11.542
34341W        W  750   6.386  25.549  13.932
34342W        W  751  28.724  39.987   2.712
34343W        W  752  26.967   0.973  14.407
34344W        W  753  38.411  29.702   1.221
34345W        W  754  43.530   7.660   4.112
34346W        W  755   5.874  42.985  12.401
34347W        W  756  43.761  14.701   1.740
34348W        W  757   3.918  35.340   1.270
34349W        W  758  41.016  41.815  13.120
34350W        W  759  29.752  34.506   3.674
34351W        W  760  41.292  21.760   2.255
34352W        W  761  14.460  14.256  10.714
34353W        W  762   3.378  16.511   1.327
34354W        W  763  24.905  14.734   2.848
34355W        W  764  41.951   4.896   2.854
34356W        W  765  39.390  24.437   2.829
34357W        W  766  18.673   5.920   0.428
34358W        W  767  27.212  12.425  14.470
34359W        W  768   0.703   4.435   4.773
34360W        W  769   4.246   1.987   4.524
34361W        W  770  32.567   5.255   3.862
34362W        W  771  21.645   9.330   2.265
34363W        W  772  22.199  12.284   0.822
34364W        W  773   5.378  36.131  14.559
34365W        W  774   8.847   2.411  14.971
34366W        W  775  38.416   4.353   1.399
34367W        W  776   0.121  44.156   0.789
34368W        W  777  26.724   4.362  12.984
34369W        W  778  32.841  31.541   4.075
34370W        W  779  37.344  36.403   3.695
34371W        W  780   6.608  24.630   1.888
34372W        W  781   0.324  41.826  12.520
34373W        W  782   8.817  19.356   0.255
34374W        W  783   9.243  40.823   2.181
34375W        W  784  29.248  30.112   2.314
34376W        W  785  34.759  10.313  14.338
34377W        W  786  39.000  39.464   1.194
34378W        W  787  37.027  20.397   3.681
34379W        W  788   1.904  14.365  10.614
34380W        W  789  18.950  11.782   0.969
34381W        W  790  35.424  35.391  14.036
34382W        W  791  22.099   7.824  13.269
34383W        W  792  21.312  44.677  14.948
34384W        W  793  40.081  19.799   1.367
34385W        W  794   9.961   5.732  14.385
34386W        W  795   5.551  20.910  10.600
34387W        W  796  19.556  20.637  11.973
34388W        W  797  37.618   9.829  12.517
34389W        W  798  27.175  27.705   0.778
34390W        W  799   7.780  12.445  12.382
34391W        W  800  37.414  37.018   2.877
34392W        W  801   6.481  26.415   1.495
34393W        W  802   5.407  11.220  13.809
34394W        W  803   0.874  34.610   4.566
34395W        W  804  35.382  38.642   0.878
34396W        W  805  22.201  37.557  11.477
34397W        W  806   1.291  35.815  11.081
34398W        W  807  43.944  33.950  14.806
34399W        W  808  24.180  17.840   4.833
34400W        W  809  33.401  43.318  14.736
34401W        W  810  43.563  15.840  12.275
34402W        W  811  38.454  21.233   2.394
34403W        W  812  44.669   6.868   1.896
34404W        W  813   2.649   4.433   0.781
34405W        W  814  18.892  34.551   1.756
34406W        W  815   4.790  26.588  11.579
34407W        W  816  17.838  36.085   2.987
34408W        W  817  33.561  18.705   4.980
34409W        W  818   7.830   3.914  11.625
34410W        W  819  18.010  17.726  12.532
34411W        W  820   6.957  36.994  14.858
34412W        W  821   3.771  20.225   1.052
34413W        W  822  15.218  22.854   4.552
34414W        W  823  42.907   0.335  12.627
34415W        W  824  34.212   0.158  11.960
34416W        W  825   9.244  42.102   2.122
34417W        W  826  27.135  11.056   1.755
34418W        W  827  16.762  27.195   4.472
34419W        W  828  31.131  37.954  12.485
34420W        W  829   5.077  11.324  12.826
34421W        W  830  25.244  29.260   4.087
34422W        W  831  11.753  26.169  13.759
34423W        W  832  39.074  36.932   4.718
34424W        W  833  12.134  25.782   1.414
34425W        W  834   4.988  17.385  11.671
34426W        W  835  30.566  32.621  12.683
34427W        W  836   9.794  25.339  11.144
34428W        W  837   1.803  10.154   1.594
34429W        W  838   4.839  44.722  10.779
34430W        W  839  20.529   0.079   0.407
34431W        W  840  41.357  38.016  12.853
34432W        W  841   9.642  29.931   0.367
34433W        W  842  19.186  25.167   3.229
34434W        W  843   1.628  27.135  11.476
34435W        W  844   6.902  25.450   1.630
34436W        W  845  39.269  34.379   4.669
34437W        W  846   3.963  40.456  13.107
34438W        W  847  44.867  40.329   2.709
34439W        W  848  20.075   2.401  12.923
34440W        W  849  21.991   6.860  11.741
34441W        W  850  44.458  22.835   2.102
34442W        W  851  34.116  23.099   0.692
34443W        W  852   3.312  10.197   0.726
34444W        W  853  18.734   5.188  14.792
34445W        W  854   6.937  22.039   4.069
34446W        W  855   7.426  38.846  12.436
34447W        W  856  38.034  40.016  12.573
34448W        W  857  22.399  29.631   4.414
34449W        W  858  19.266  27.141  13.403
34450W        W  859  22.575  36.044   4.079
34451W        W  860  24.397  44.137   5.070
34452W        W  861  40.961  32.848   0.897
34453W        W  862  12.904  18.275   2.311
34454W        W  863  31.033  26.912  12.888
34455W        W  864  15.063  10.000  11.124
34456W        W  865  28.739  22.656  11.545
34457W        W  866  24.611   9.261  12.919
34458W        W  867  27.000  34.186   3.300
34459W        W  868   1.230  39.485   2.837
34460W        W  869  17.654   3.706   3.757
34461W        W  870  32.450  21.352  11.643
34462W        W  871  40.509  24.972   4.400
34463W        W  872  29.682  11.140   0.779
34464W        W  873  33.028  36.504   4.440
34465W        W  874  29.938  31.846  12.044
34466W        W  875  28.390   1.269   4.187
34467W        W  876  21.147  32.563  10.561
34468W        W  877  42.353  24.722   2.401
34469W        W  878  40.892  22.544  10.542
34470W        W  879   4.798  15.025   1.264
34471W        W  880  32.875  27.577  13.943
34472W        W  881  31.948  25.456   0.778
34473W        W  882  39.658  21.711  13.711
34474W        W  883  21.965  19.063   3.180
34475W        W  884  39.858  10.175  14.940
34476W        W  885  42.770   4.456  13.274
34477W        W  886  32.188   5.701   1.305
34478W        W  887   0.488  38.846  14.374
34479W        W  888   5.765  19.582   4.896
34480W        W  889  28.067  24.125   3.298
34481W        W  890  30.494  28.236   3.224
34482W        W  891  15.262   2.236  12.709
34483W        W  892  44.968  34.633   3.553
34484W        W  893   3.606  36.235   2.667
34485W        W  894  10.110  44.741   2.617
34486W        W  895  17.593  34.011   4.647
34487W        W  896   9.317  42.073  12.556
34488W        W  897  22.059  43.174  13.483
34489W        W  898  21.960  11.651  14.281
34490W        W  899  44.857  20.670  12.553
34491W        W  900  39.811  32.003   4.646
34492W        W  901  29.712  19.133  13.887
34493W        W  902  41.765  34.185   3.804
34494W        W  903  19.998  42.236   0.650
34495W        W  904  23.632  44.700  11.298
34496W        W  905  17.882  16.108   3.778
34497W        W  906  29.535   4.320   0.941
34498W        W  907   2.248  12.215   3.803
34499W        W  908  40.476   0.919  10.752
34500W        W  909  19.931   6.397   4.130
34501W        W  910  32.123  32.012   4.941
34502W        W  911  19.814   4.958   2.805
34503W        W  912  18.189  14.573  13.796
34504W        W  913   0.329  44.930   3.870
34505W        W  914  35.359  40.288   1.898
34506W        W  915  32.467  37.106  13.013
34507W        W  916   8.297  29.963   2.047
34508W        W  917  19.660  26.595   0.548
34509W        W  918  33.904  23.090   2.076
34510W        W  919   1.939  25.579  14.563
34511W        W  920   0.299  16.372   4.566
34512W        W  921  33.520  44.274  13.811
34513W        W  922   1.119  43.502  10.979
34514W        W  923  25.532  24.539  12.601
34515W        W  924   4.455  19.818   3.645
34516W        W  925  31.144  35.088  10.708
34517W        W  926  26.962   0.008   4.900
34518W        W  927  21.245   5.149  12.111
34519W        W  928  24.995   4.840  14.379
34520W        W  929  12.283  24.655  14.314
34521W        W  930   6.969  27.170  13.752
34522W        W  931  19.230   5.693   1.154
34523W        W  932  34.410   3.904   2.612
34524W        W  933  11.766   4.554  10.137
34525W        W  934   6.922  26.414  12.526
34526W        W  935  22.888  26.702  11.197
34527W        W  936  23.208   9.310  12.764
34528W        W  937  21.534  18.047   1.669
34529W        W  938  43.767  12.276  14.026
34530W        W  939  16.023  42.225   2.347
34531W        W  940  44.766  17.729   1.864
34532W        W  941   2.421  11.708  13.940
34533W        W  942  42.299   2.822   3.285
34534W        W  943  19.599  17.101   0.749
34535W        W  944  36.844  21.286   4.118
34536W        W  945  14.296  12.422  14.954
34537W        W  946  20.292   9.597  10.954
34538W        W  947  10.826  17.492  10.770
34539W        W  948  43.589  36.829  13.816
34540W        W  949  27.978  43.830  10.651
34541W        W  950   4.333  34.559   2.774
34542W        W  951  29.123  10.838   4.081
34543W        W  952  41.241  32.458  12.203
34544W        W  953  20.819  29.398   0.309
34545W        W  954  44.000  19.469   1.322
34546W        W  955  44.959  15.670  12.404
34547W        W  956  10.913  26.570   2.847
34548W        W  957  35.120  33.923   4.204
34549W        W  958   8.092   3.028   2.310
34550W        W  959   4.156  36.855  13.527
34551W        W  960  19.799  14.871   0.141
34552W        W  961  22.078  23.912   1.944
34553W        W  962   5.574  10.350   4.519
34554W        W  963  13.062  15.766  13.416
34555W        W  964  44.799  17.172  11.333
34556W        W  965  30.512  29.588   3.463
34557W        W  966  19.707   0.859   2.802
34558W        W  967  34.650  13.089  14.126
34559W        W  968  31.966  28.731   4.586
34560W        W  969  28.603  16.827  11.971
34561W        W  970   1.097   2.394   4.037
34562W        W  971  28.142  10.893   1.969
34563W        W  972  12.763  41.325   3.143
34564W        W  973  20.253  25.432   4.554
34565W        W  974   7.202  13.307  11.600
34566W        W  975  18.628   3.772  14.753
34567W        W  976  29.792  28.499   2.864
34568W        W  977  24.810  42.866   3.505
34569W        W  978  39.433   5.113   4.074
34570W        W  979  25.564  31.437  11.374
34571W        W  980  30.121   5.954  11.781
34572W        W  981  25.519   8.158   4.656
34573W        W  982  14.318  31.638   2.267
34574W        W  983   8.910  29.951  12.127
34575W        W  984  28.205  13.739  14.045
34576W        W  985  14.070  17.809   0.940
34577W        W  986  12.341  26.739   3.700
34578W        W  987  20.775  39.126  10.455
34579W        W  988  36.032  40.733   0.283
34580W        W  989   9.621   9.668  12.958
34581W        W  990  14.099  39.128  14.841
34582W        W  991  24.100  38.839   3.134
34583W        W  992  27.287  11.655  10.614
34584W        W  993   9.678  21.338   0.853
34585W        W  994  12.880  16.603  10.880
34586W        W  995  13.209  32.772  10.055
34587W        W  996  41.382  33.931  12.182
34588W        W  997  20.414   4.474  14.319
34589W        W  998  31.989   5.426   1.701
34590W        W  999   8.981  40.174   4.633
34591W        W 1000  35.259  44.307   1.807
34592W        W 1001  43.839  36.025   3.097
34593W        W 1002  44.671   5.327   4.684
34594W        W 1003  13.012  44.213  14.918
34595W        W 1004  42.794  19.617   4.124
34596W        W 1005  33.818   1.502  11.962
34597W        W 1006  34.187  27.544   3.258
34598W        W 1007  20.371  37.897   0.778
34599W        W 1008  24.236  33.107  13.002
34600W        W 1009  27.930  36.605   1.843
34601W        W 1010  18.577   7.449  13.520
34602W        W 1011  10.825  30.493  13.334
34603W        W 1012  25.435  24.837  10.235
34604W        W 1013  15.601  30.820  10.291
34605W        W 1014  29.386  37.060  14.400
34606W        W 1015  36.504   4.455   1.821
34607W        W 1016  44.386   5.810  10.627
34608W        W 1017  42.157  39.596   2.620
34609W        W 1018  39.747   4.353   4.640
34610W        W 1019   4.189  12.710   2.722
34611W        W 1020   2.394   4.004   1.704
34612W        W 1021  33.084  44.143   4.140
34613W        W 1022   4.908  42.432   4.574
34614W        W 1023  12.376  35.028  11.001
34615W        W 1024  29.879  11.179  11.073
34616W        W 1025  35.954  32.108  11.959
34617W        W 1026  41.989  19.648   4.802
34618W        W 1027   3.018  12.409   2.237
34619W        W 1028  12.696  42.989   1.388
34620W        W 1029  10.207  22.094  12.021
34621W        W 1030  14.930  40.371   4.118
34622W        W 1031  27.949  42.396  12.538
34623W        W 1032   6.457  33.196   0.632
34624W        W 1033   2.342  35.365  14.795
34625W        W 1034   1.443  35.157  14.355
34626W        W 1035  41.955  37.841  12.560
34627W        W 1036  29.126  31.334   1.749
34628W        W 1037  13.885  25.459   0.846
34629W        W 1038   7.885   1.004  10.664
34630W        W 1039  37.357   3.796  11.989
34631W        W 1040  27.405  15.230   2.364
34632W        W 1041  35.869  11.949   0.339
34633W        W 1042  12.268  36.598   0.354
34634W        W 1043  20.517   0.986   1.332
34635W        W 1044   5.765  12.891   1.885
34636W        W 1045  25.879  14.237  11.537
34637W        W 1046  40.901   9.234   3.089
34638W        W 1047  17.383  42.307  12.065
34639W        W 1048   9.485  32.541  14.425
34640W        W 1049  13.700   3.623  14.750
34641W        W 1050  15.392  17.176  10.928
34642W        W 1051  21.543  14.828   1.980
34643W        W 1052  29.456   3.931  11.462
34644W        W 1053  12.619  32.002  13.008
34645W        W 1054  42.302  33.509  13.498
34646W        W 1055  17.464   5.733  13.448
34647W        W 1056  20.261  31.387  12.992
34648W        W 1057  29.443  37.773   3.173
34649W        W 1058  29.051  35.089   2.749
34650W        W 1059   8.754  38.019   4.153
34651W        W 1060  26.188  19.391  10.288
34652W        W 1061   9.203   8.158   4.084
34653W        W 1062  11.181  40.402  13.460
34654W        W 1063  18.565   6.825  13.093
34655W        W 1064  31.404  31.214   0.375
34656W        W 1065  27.081  42.633   2.830
34657W        W 1066  34.359   4.715  14.348
34658W        W 1067  23.991   5.976   4.569
34659W        W 1068  39.688  34.454   1.744
34660W        W 1069   1.981   6.873  12.907
34661W        W 1070  41.449   8.361  11.846
34662W        W 1071  25.486  32.131   0.350
34663W        W 1072  15.308  20.446   4.547
34664W        W 1073  14.220  23.410   2.049
34665W        W 1074  24.243  38.774  10.508
34666W        W 1075  13.571  42.469  13.955
34667W        W 1076   2.696   2.391  14.824
34668W        W 1077  32.911  27.225  10.432
34669W        W 1078   7.745  38.527   2.225
34670W        W 1079  28.165  41.803  14.276
34671W        W 1080  28.338   3.300   3.199
34672W        W 1081   6.713  38.562   0.899
34673W        W 1082  10.167  18.185  12.196
34674W        W 1083   5.961  37.636   1.232
34675W        W 1084  41.058  32.501  14.483
34676W        W 1085  29.157   1.935  11.631
34677W        W 1086  24.611  19.593   1.309
34678W        W 1087  30.478  13.317  14.662
34679W        W 1088  37.806  35.384  12.457
34680W        W 1089  26.837  12.920   4.693
34681W        W 1090  23.486  42.752   0.304
34682W        W 1091   3.700  19.753   0.810
34683W        W 1092   4.618  22.503   2.235
34684W        W 1093  28.079   6.866   1.652
34685W        W 1094  17.717  35.054   0.560
34686W        W 1095  27.733  35.354   1.552
34687W        W 1096  30.634  40.873  11.685
34688W        W 1097  23.130  32.565  12.377
34689W        W 1098  27.822  23.174   2.351
34690W        W 1099  44.829  26.986  10.454
34691W        W 1100  42.844  41.363   4.776
34692W        W 1101  11.647  12.886   9.714
34693W        W 1102  38.993  15.087   3.122
34694W        W 1103  22.637  26.403  12.114
34695W        W 1104  39.688  19.087   0.829
34696W        W 1105  37.132  26.182   2.414
34697W        W 1106  29.640  13.271   2.307
34698W        W 1107  33.616  17.374   4.710
34699W        W 1108   2.786  36.895   2.199
34700W        W 1109  15.231   4.066  13.452
34701W        W 1110  36.529   4.956  10.047
34702W        W 1111   5.129  22.273  13.821
34703W        W 1112  39.032  30.543  10.665
34704W        W 1113   6.320  14.095  13.836
34705W        W 1114  44.892  42.472   1.708
34706W        W 1115  31.690  17.051   0.465
34707W        W 1116  28.975  20.682   4.580
34708W        W 1117  41.353  19.921  14.634
34709W        W 1118   5.839   9.356   3.810
34710W        W 1119  32.197  28.823   1.321
34711W        W 1120  10.605  24.243  13.984
34712W        W 1121  35.470  13.321  11.881
34713W        W 1122  27.377  16.892   2.772
34714W        W 1123   7.321  36.253  11.523
34715W        W 1124   3.011  34.130  11.232
34716W        W 1125  44.527   6.301  11.351
34717W        W 1126  27.543  22.812   4.454
34718W        W 1127   8.862  36.864  12.966
34719W        W 1128  20.714   4.370  13.322
34720W        W 1129  18.782  17.659  12.167
34721W        W 1130   6.032  37.231   2.458
34722W        W 1131  29.016  14.003   3.123
34723W        W 1132  12.738  31.371   0.355
34724W        W 1133  28.485  40.121   0.550
34725W        W 1134   9.324  19.026   1.951
34726W        W 1135  11.853  19.149  14.912
34727W        W 1136   6.158  36.378  14.873
34728W        W 1137  13.621  25.686  10.441
34729W        W 1138   4.892  16.225  12.865
34730W        W 1139  44.834  22.546   3.984
34731W        W 1140  16.687   7.701  10.722
34732W        W 1141  31.065   4.257   1.476
34733W        W 1142  43.259   2.773   2.399
34734W        W 1143   1.282   6.673  14.518
34735W        W 1144   2.012   3.856  10.757
34736W        W 1145  14.554  17.948  11.954
34737W        W 1146  13.137   0.206   3.335
34738W        W 1147  27.834  39.963  13.021
34739W        W 1148  40.182   4.621   4.157
34740W        W 1149  34.053  19.815   4.003
34741W        W 1150  40.479   2.145   2.748
34742W        W 1151   7.980  18.223  10.351
34743W        W 1152  14.685  44.361  13.898
34744W        W 1153  19.550  36.466   1.896
34745W        W 1154  18.028  37.381  12.978
34746W        W 1155  34.977  19.764   1.414
34747W        W 1156  25.133  35.936   1.827
34748W        W 1157   8.284  21.022   2.813
34749W        W 1158  10.424   6.897  10.977
34750W        W 1159  32.637  28.601  13.378
34751W        W 1160  40.025   9.756   2.193
34752W        W 1161  24.311  34.573   2.111
34753W        W 1162  40.265  15.234  14.297
34754W        W 1163   6.202  10.263   4.697
34755W        W 1164  33.530  14.863  14.307
34756W        W 1165  16.183  41.891   9.988
34757W        W 1166  44.825  35.140  10.660
34758W        W 1167  42.592  10.636  14.667
34759W        W 1168   7.456  31.609  10.854
34760W        W 1169   6.401  19.592  13.515
34761W        W 1170  15.663  16.246  12.659
34762W        W 1171  36.269  11.670   1.508
34763W        W 1172  20.046   7.132   3.336
34764W        W 1173  38.393  15.622   4.908
34765W        W 1174  42.222   4.808   2.412
34766W        W 1175  34.452  17.418   1.195
34767W        W 1176   3.914  11.386   4.183
34768W        W 1177  13.376  39.246  14.010
34769W        W 1178  40.819  18.778   2.805
34770W        W 1179   4.601  34.893  13.706
34771W        W 1180  30.528   6.845  14.658
34772W        W 1181  21.820   9.405  13.764
34773W        W 1182   5.468  22.148  13.463
34774W        W 1183  38.299  33.678  14.659
34775W        W 1184  38.277  34.928  13.588
34776W        W 1185  43.724   4.775   3.188
34777W        W 1186  41.089  37.186   4.209
34778W        W 1187  33.183  19.062  11.452
34779W        W 1188  22.635  43.681   1.870
34780W        W 1189  17.285  44.290   3.251
34781W        W 1190  43.254  21.647   1.001
34782W        W 1191  38.367   4.367   3.691
34783W        W 1192   4.717   5.278  12.914
34784W        W 1193  28.505  19.350  12.079
34785W        W 1194  23.648  18.759   1.296
34786W        W 1195  34.462  10.897   3.122
34787W        W 1196  14.969  33.136   3.584
34788W        W 1197   8.004  39.292  11.463
34789W        W 1198  29.170   8.734   2.672
34790W        W 1199  18.066  32.511  10.686
34791W        W 1200  28.004  31.081   4.397
34792W        W 1201  19.288  27.650  11.248
34793W        W 1202  22.224  38.512   1.017
34794W        W 1203  29.055  20.296   4.931
34795W        W 1204  41.890  28.204  13.100
34796W        W 1205  11.373  41.157   4.238
34797W        W 1206  29.402  33.960  10.987
34798W        W 1207  39.881  43.359   4.780
34799W        W 1208  22.047  37.841   4.211
34800W        W 1209  37.973  32.425  11.487
34801W        W 1210  12.413  38.162   0.759
34802W        W 1211  11.069   7.362   1.290
34803W        W 1212  15.846   5.046   4.526
34804W        W 1213  20.685   5.478  13.457
34805W        W 1214   7.255  17.058   4.477
34806W        W 1215  15.135  21.695   3.578
34807W        W 1216  28.654  12.263   1.319
34808W        W 1217   2.795  41.730   0.894
34809W        W 1218  36.846  25.146   4.878
34810W        W 1219  39.871  11.350  11.592
34811W        W 1220  12.178  25.047  14.649
34812W        W 1221   0.901   1.210  12.417
34813W        W 1222   7.308  21.896  12.419
34814W        W 1223  38.115  29.141  10.627
34815W        W 1224  26.053  17.558  14.524
34816W        W 1225   8.497  28.260   4.124
34817W        W 1226  25.088  31.812  14.013
34818W        W 1227  26.037  13.528  11.990
34819W        W 1228   6.854  21.991   0.400
34820W        W 1229   2.873  26.091   0.513
34821W        W 1230  25.988   1.993  11.547
34822W        W 1231  27.493  42.696   3.928
34823W        W 1232   0.810  40.957   0.153
34824W        W 1233  31.098   1.827   1.277
34825W        W 1234  12.886  43.736   4.733
34826W        W 1235  44.250   7.775  12.591
34827W        W 1236  13.301  42.097   3.594
34828W        W 1237  26.632  43.123  12.125
34829W        W 1238  17.183  10.941   1.720
34830W        W 1239   0.001  32.436   1.175
34831W        W 1240   6.301  38.895   2.773
34832W        W 1241  24.668  16.171  13.995
34833W        W 1242  19.983  12.707   3.967
34834W        W 1243  39.312  26.984  11.923
34835W        W 1244  26.688  34.360  13.043
34836W        W 1245  38.955  39.046   3.060
34837W        W 1246  12.627  10.811  11.146
34838W        W 1247  12.604   2.404  13.445
34839W        W 1248  36.377  41.345  11.623
34840W        W 1249  34.629  24.762  11.206
34841W        W 1250  18.433  25.850   4.276
34842W        W 1251   1.465  35.244  11.935
34843W        W 1252   1.793  26.121  14.751
34844W        W 1253  42.294  35.626  14.848
34845W        W 1254   0.815   9.581   1.845
34846W        W 1255  33.945  38.302   2.683
34847W        W 1256   0.962   2.857  14.950
34848W        W 1257   7.780   3.004   1.896
34849W        W 1258   2.554  16.225   3.783
34850W        W 1259  26.557  22.699  14.779
34851W        W 1260  18.247  25.694  10.468
34852W        W 1261  40.752  10.614   0.818
34853W        W 1262  44.896  12.398   2.170
34854W        W 1263  36.553  35.075   1.778
34855W        W 1264   0.714  38.894  14.997
34856W        W 1265  28.914  20.531  11.035
34857W        W 1266  36.050   6.409  10.788
34858W        W 1267  14.146  10.133   0.443
34859W        W 1268   4.235  40.377  11.335
34860W        W 1269   1.648  36.640   3.926
34861W        W 1270  38.254  26.675   1.834
34862W        W 1271  28.637   7.662   0.872
34863W        W 1272   3.657   1.344  12.550
34864W        W 1273   1.320  23.725   1.545
34865W        W 1274  27.761  36.441   4.396
34866W        W 1275  23.240  23.055  14.931
34867W        W 1276  31.302  23.442   0.054
34868W        W 1277  22.150  23.456  12.368
34869W        W 1278  40.084  25.099   4.100
34870W        W 1279  17.633  36.416  12.956
34871W        W 1280  31.596  17.927  14.072
34872W        W 1281   9.349  10.060  10.153
34873W        W 1282  35.991  12.954   0.813
34874W        W 1283  14.044  17.051  12.024
34875W        W 1284  11.142   3.755   0.251
34876W        W 1285  13.929  29.944  11.956
34877W        W 1286  31.954  38.271   0.263
34878W        W 1287  28.235  35.591  11.133
34879W        W 1288  33.687  42.004   1.147
34880W        W 1289  16.640  38.987   2.435
34881W        W 1290   1.950  27.922  11.519
34882W        W 1291  41.951  13.035   0.921
34883W        W 1292  13.585  15.272   2.663
34884W        W 1293  22.528  28.655  13.595
34885W        W 1294  22.785  18.370   0.965
34886W        W 1295  33.933  24.547  13.086
34887W        W 1296  22.037  16.580  11.697
34888W        W 1297  27.835   8.614   2.256
34889W        W 1298   6.724   3.955   3.400
34890W        W 1299  19.314  33.882   1.181
34891W        W 1300  43.446   9.841  11.259
34892W        W 1301  27.281  26.138   3.920
34893W        W 1302  39.226   2.164  11.555
34894W        W 1303  14.559  21.174   0.743
34895W        W 1304  24.442  26.984  13.352
34896W        W 1305   5.169  23.169  13.002
34897W        W 1306  14.544   6.411  11.697
34898W        W 1307  32.663  27.044   0.695
34899W        W 1308   1.129  19.656   2.743
34900W        W 1309   5.674  14.565  14.854
34901W        W 1310  27.480  29.537  14.882
34902W        W 1311  35.874  10.296  10.658
34903W        W 1312  40.366   3.940   3.315
34904W        W 1313  25.157  41.324  12.109
34905W        W 1314  30.422  32.110   0.335
34906W        W 1315   7.347  13.217   0.031
34907W        W 1316   6.169  43.333  10.721
34908W        W 1317   5.018  29.239  11.856
34909W        W 1318  17.810  33.419   0.722
34910W        W 1319  13.360  30.084   0.253
34911W        W 1320  12.648  23.649   0.330
34912W        W 1321   2.335  38.153   3.062
34913W        W 1322   9.958  19.767   0.582
34914W        W 1323  22.048  34.097  14.022
34915W        W 1324  14.983  28.219  12.614
34916W        W 1325  19.458  29.018   2.098
34917W        W 1326  13.531  34.986   2.558
34918W        W 1327   8.369  39.765  11.991
34919W        W 1328  28.977  31.465   2.909
34920W        W 1329  29.426   9.977  10.221
34921W        W 1330  18.472  31.002  12.466
34922W        W 1331  40.746  38.377   0.627
34923W        W 1332  18.812  24.047   4.832
34924W        W 1333  19.786  18.863  11.430
34925W        W 1334  26.845  21.440  12.047
34926W        W 1335  33.935  42.981   5.112
34927W        W 1336  43.003   2.250   2.359
34928W        W 1337   3.256  32.338   5.050
34929W        W 1338   0.190  19.485   2.372
34930W        W 1339  33.470  21.624   4.604
34931W        W 1340  32.891  44.045   1.710
34932W        W 1341  23.279   8.163  10.761
34933W        W 1342   0.936   9.276  14.730
34934W        W 1343  33.940  44.299   0.405
34935W        W 1344  17.377   5.883  13.940
34936W        W 1345  10.915   3.920  12.954
34937W        W 1346   5.846  34.462  14.395
34938W        W 1347  13.708   3.060  13.629
34939W        W 1348   1.329  12.432  13.619
34940W        W 1349   2.276  15.848  10.404
34941W        W 1350  37.430  10.299  14.794
34942W        W 1351  16.761  10.999  14.994
34943W        W 1352  30.999  41.910   2.449
34944W        W 1353  34.924  41.783   1.334
34945W        W 1354  35.210  26.587  12.482
34946W        W 1355  42.560  18.080   4.237
34947W        W 1356  37.054  21.357   4.993
34948W        W 1357  16.231   5.493   2.673
34949W        W 1358   3.880   8.162   3.563
34950W        W 1359  32.355  40.796  10.826
34951W        W 1360  39.080  41.612   4.447
34952W        W 1361  11.628  13.885  12.372
34953W        W 1362   1.870  32.587   0.884
34954W        W 1363  11.029   5.568   2.339
34955W        W 1364  20.283  37.905  11.504
34956W        W 1365  43.229  18.818  14.385
34957W        W 1366  35.650   9.318   3.371
34958W        W 1367  34.868   5.275  14.447
34959W        W 1368  35.142  31.150   4.554
34960W        W 1369  31.106  43.957   2.627
34961W        W 1370  31.930  33.280  11.142
34962W        W 1371  32.536  20.183   4.877
34963W        W 1372  43.114  26.971  13.436
34964W        W 1373  15.731  20.774   3.677
34965W        W 1374  28.813  21.060  10.958
34966W        W 1375  35.532  34.381  14.575
34967W        W 1376  15.234  28.188  12.038
34968W        W 1377  39.155   1.890  13.508
34969W        W 1378   2.690  19.857   3.192
34970W        W 1379  34.100  18.764   2.219
34971W        W 1380  38.329   4.706   4.126
34972W        W 1381  15.242  17.723   3.937
34973W        W 1382  23.494  28.567  12.055
34974W        W 1383  20.657  10.381  10.804
34975W        W 1384  35.422   9.306   3.836
34976W        W 1385  29.843  28.049  12.299
34977W        W 1386  22.273  41.512   2.418
34978W        W 1387  21.782  18.570  14.737
34979W        W 1388  18.587  18.752  14.928
34980W        W 1389  13.099  37.240  11.568
34981W        W 1390  13.067  34.158  11.051
34982W        W 1391  21.778  26.132  13.736
34983W        W 1392  25.991  41.784   2.621
34984W        W 1393  25.611  23.029   0.831
34985W        W 1394  18.425  27.708  11.959
34986W        W 1395  10.896   2.792  13.114
34987W        W 1396  17.765  41.717  11.996
34988W        W 1397  17.145  29.761   5.077
34989W        W 1398  13.673  42.798   4.644
34990W        W 1399  35.792  30.485   4.418
34991W        W 1400  18.918  26.756   3.989
34992W        W 1401  18.584  42.846   1.734
34993W        W 1402  16.965  33.421  11.573
34994W        W 1403  15.650  41.490  11.182
34995W        W 1404  29.729   3.274   0.923
34996W        W 1405  14.349  35.054  11.184
34997W        W 1406   8.177  21.281   0.398
34998W        W 1407  39.815  20.265  10.747
34999W        W 1408   3.885  25.967   1.481
35000W        W 1409  41.979  28.498  12.574
35001W        W 1410   3.234  10.209  12.926
35002W        W 1411  27.588   2.952  14.070
35003W        W 1412  36.663  13.914  10.617
35004W        W 1413  29.778  37.282  13.098
35005W        W 1414  33.189   8.342  12.763
35006W        W 1415  26.513   4.293   3.800
35007W        W 1416   4.417   7.138  11.768
35008W        W 1417  24.126   8.194  10.211
35009W        W 1418  12.265  12.196  11.909
35010W        W 1419  24.295   0.354   0.324
35011W        W 1420  38.792  25.090  14.376
35012W        W 1421  11.838  33.250  12.322
35013W        W 1422  11.279  24.176  14.220
35014W        W 1423   3.865   6.164   4.115
35015W        W 1424  12.283  14.692   4.653
35016W        W 1425  19.765  22.469  12.529
35017W        W 1426   4.916   6.750   4.629
35018W        W 1427  42.812  10.656   3.159
35019W        W 1428  23.995  38.447   2.799
35020W        W 1429  13.090  15.089   0.232
35021W        W 1430  21.255  33.083   4.055
35022W        W 1431  12.138  33.112   2.238
35023W        W 1432  30.899   1.804   5.253
35024W        W 1433   1.806   2.790  10.770
35025W        W 1434   3.768  34.819  12.515
35026W        W 1435  15.202  20.784   3.828
35027W        W 1436  30.577   5.796  14.602
35028W        W 1437  27.602   6.197  13.938
35029W        W 1438  28.843  14.356   2.111
35030W        W 1439   8.338  34.454  11.530
35031W        W 1440  18.251   0.463  12.315
35032W        W 1441  20.235  31.627  10.713
35033W        W 1442   0.221  37.843   1.383
35034W        W 1443  10.194  11.604  11.510
35035W        W 1444  31.054  41.757   0.726
35036W        W 1445  12.913   6.251   0.020
35037W        W 1446  32.734  31.080   4.422
35038W        W 1447  12.273  19.148   0.886
35039W        W 1448   5.291   4.468  14.308
35040W        W 1449  24.566  18.752   4.107
35041W        W 1450   5.709  14.757  12.914
35042W        W 1451  42.801  11.253  13.194
35043W        W 1452  36.158  33.635  11.286
35044W        W 1453  39.369  30.415   2.367
35045W        W 1454  21.251  11.844   2.681
35046W        W 1455  41.451   8.536   2.269
35047W        W 1456  44.086  11.765  11.007
35048W        W 1457  16.094  39.746  12.125
35049W        W 1458  20.478  13.869   2.243
35050W        W 1459   2.045   0.185   2.170
35051W        W 1460  28.695   4.769  12.246
35052W        W 1461   6.912  24.619  14.246
35053W        W 1462   0.814  40.999   2.698
35054W        W 1463   0.669  23.116  11.528
35055W        W 1464  42.677  36.247   5.133
35056W        W 1465  35.472  28.361   3.828
35057W        W 1466  34.439  42.379   1.688
35058W        W 1467  26.121   5.253  12.653
35059W        W 1468  17.096  35.999  12.472
35060W        W 1469  41.681  26.547   4.935
35061W        W 1470  34.081   1.168  12.792
35062W        W 1471   6.882  11.639  10.735
35063W        W 1472  13.398  40.805  10.951
35064W        W 1473  37.077  29.268   4.600
35065W        W 1474  32.699   2.782  10.712
35066W        W 1475  16.794   1.271  14.788
35067W        W 1476  44.749   1.718  14.835
35068W        W 1477  10.404  31.061   4.982
35069W        W 1478  10.934   3.270  13.342
35070W        W 1479  32.229  19.095   3.223
35071W        W 1480  40.358   4.158  13.547
35072W        W 1481  23.541  43.497  14.750
35073W        W 1482  32.339  36.753   4.521
35074W        W 1483  27.007  19.520  14.862
35075W        W 1484  21.048  16.151  14.843
35076W        W 1485  41.011  25.636  10.597
35077W        W 1486   4.147  30.933   2.799
35078W        W 1487  19.195  34.940   1.894
35079W        W 1488  37.169  32.855  13.060
35080W        W 1489   0.498  24.824  11.992
35081W        W 1490  43.494  38.531  13.050
35082W        W 1491  24.635   5.861   2.956
35083W        W 1492   3.873  30.865  11.123
35084W        W 1493   2.439  17.152   0.509
35085W        W 1494  19.251  12.582   4.672
35086W        W 1495   9.474  30.555  13.577
35087W        W 1496  42.773   4.956   4.149
35088W        W 1497  16.113  18.257   5.343
35089W        W 1498  37.036  17.333   4.051
35090W        W 1499  41.320   2.774  13.493
35091W        W 1500  44.013  18.580  11.551
35092W        W 1501  31.165  33.389  10.247
35093W        W 1502  20.463  27.991   0.886
35094W        W 1503  11.263  40.721   3.306
35095W        W 1504  38.516  25.598   3.741
35096W        W 1505  39.835  18.354   1.455
35097W        W 1506  36.268  26.383   1.930
35098W        W 1507  37.062  26.541  10.694
35099W        W 1508  25.487  25.533   1.899
35100W        W 1509  11.822  24.577   4.860
35101W        W 1510   4.339  23.583  10.273
35102W        W 1511  24.945   4.227   0.019
35103W        W 1512  39.956   5.401   0.741
35104W        W 1513  32.352  18.833   0.676
35105W        W 1514  17.572   1.460  14.394
35106W        W 1515  29.976  42.891  14.039
35107W        W 1516  33.465  16.915  11.842
35108W        W 1517  43.494   4.727   4.527
35109W        W 1518  39.320  38.553  13.430
35110W        W 1519  40.026   2.437  13.516
35111W        W 1520  18.684  31.040   3.786
35112W        W 1521   8.805  33.940   3.001
35113W        W 1522  36.676  33.020  11.650
35114W        W 1523   8.846  22.231   3.252
35115W        W 1524   6.155   8.605  11.987
35116W        W 1525  20.426  30.612  14.859
35117W        W 1526  31.981  42.089   3.936
35118W        W 1527  15.394  23.465  11.614
35119W        W 1528  34.540  40.269   3.673
35120W        W 1529   1.820  32.984   1.876
35121W        W 1530  42.487  36.579   4.755
35122W        W 1531  12.034  43.014  11.049
35123W        W 1532  16.561   8.932  11.088
35124W        W 1533  22.082  26.283  12.268
35125W        W 1534  28.849   5.184  10.200
35126W        W 1535   0.735  29.667  12.899
35127W        W 1536  30.639   6.273   0.030
35128W        W 1537  42.317  10.680  12.114
35129W        W 1538  17.192  44.247   4.129
35130W        W 1539  28.913  37.544   0.074
35131W        W 1540  36.834  35.034   3.646
35132W        W 1541  25.222  27.269  13.364
35133W        W 1542   7.330   8.713   1.876
35134W        W 1543   5.820  14.424  11.122
35135W        W 1544  15.787  19.243  13.272
35136W        W 1545  25.928   1.701  10.678
35137W        W 1546  12.017  36.829  12.200
35138W        W 1547  30.478   0.865   4.513
35139W        W 1548   3.402  13.633  14.810
35140W        W 1549  27.989  18.202   2.809
35141W        W 1550  42.929  24.237  10.771
35142W        W 1551  33.457  22.028   0.525
35143W        W 1552  37.039  12.725  11.705
35144W        W 1553  31.410  19.249   1.355
35145W        W 1554  20.585   8.746   3.550
35146W        W 1555  22.585   0.947   4.274
35147W        W 1556   5.984   7.401  13.829
35148W        W 1557  20.059   5.372   0.518
35149W        W 1558  41.527  11.102   2.339
35150W        W 1559  37.022  33.642  13.493
35151W        W 1560  42.048  38.888   3.118
35152W        W 1561  11.185  20.153  11.143
35153W        W 1562   7.914  15.285  12.922
35154W        W 1563   7.174   7.079   1.349
35155W        W 1564  39.994  13.756   0.255
35156W        W 1565  36.792   1.320  10.800
35157W        W 1566  28.495   0.246   0.896
35158W        W 1567  29.404  42.178  14.207
35159W        W 1568  43.523   4.870  10.510
35160W        W 1569   6.368   7.393  10.464
35161W        W 1570   4.658  15.977   0.303
35162W        W 1571  37.031  10.179  14.279
35163W        W 1572  19.556  19.309   0.804
35164W        W 1573   5.767  34.591  11.990
35165W        W 1574  17.126  44.920  12.181
35166W        W 1575   8.213  21.175  14.886
35167W        W 1576  33.427  16.188   3.419
35168W        W 1577  42.415   6.068  11.987
35169W        W 1578  18.688  27.819  12.794
35170W        W 1579  18.986  11.608   2.851
35171W        W 1580  35.448  17.192   3.679
35172W        W 1581  39.904   6.485  14.704
35173W        W 1582  16.682  16.805  11.587
35174W        W 1583  20.749  40.550  10.610
35175W        W 1584  32.376   6.690   5.175
35176W        W 1585  12.643   0.135   3.214
35177W        W 1586  41.259   7.572  13.032
35178W        W 1587  25.259  10.364  12.021
35179W        W 1588  14.047   0.828  14.467
35180W        W 1589  25.118  25.671   0.380
35181W        W 1590  10.055  13.222   0.906
35182W        W 1591  31.291  22.815  11.919
35183W        W 1592  18.152  32.182   4.171
35184W        W 1593  15.570  34.602  11.076
35185W        W 1594  33.074  40.254   0.715
35186W        W 1595   6.442   7.262  14.738
35187W        W 1596  43.113  36.957   3.111
35188W        W 1597  44.388  36.194  14.209
35189W        W 1598   7.737  24.088  13.073
35190W        W 1599   1.111  42.835  10.188
35191W        W 1600  25.160  11.221   3.617
35192W        W 1601  17.141   6.168  13.493
35193W        W 1602  11.634   5.899  11.799
35194W        W 1603  37.234  14.045  10.754
35195W        W 1604   7.414  10.145  10.971
35196W        W 1605   4.465  28.274  10.074
35197W        W 1606   2.313  34.945  10.632
35198W        W 1607   5.782   3.899   2.382
35199W        W 1608   9.098   9.387   2.707
35200W        W 1609  22.017  25.472   0.852
35201W        W 1610  22.933  23.984  13.521
35202W        W 1611  27.297   9.891  10.938
35203W        W 1612  15.176  26.554  14.085
35204W        W 1613   4.060  30.119  13.931
35205W        W 1614   4.184   1.457   1.123
35206W        W 1615  25.298  22.645   0.391
35207W        W 1616  11.613  13.507   4.119
35208W        W 1617  31.539  11.330  14.472
35209W        W 1618   7.264   0.857   2.592
35210W        W 1619   3.957  42.484   3.573
35211W        W 1620   8.194  38.871   5.020
35212W        W 1621  23.002  14.379  11.444
35213W        W 1622  40.547   0.847   0.410
35214W        W 1623   8.458  11.158   3.143
35215W        W 1624  17.922  24.419   2.696
35216W        W 1625  28.672  15.862   0.872
35217W        W 1626  11.127   1.269  12.402
35218W        W 1627  24.212  38.975   0.352
35219W        W 1628  15.797   3.583   0.526
35220W        W 1629  26.115   9.172   0.475
35221W        W 1630  15.825   2.750   2.100
35222W        W 1631  22.012  32.951   3.090
35223W        W 1632   9.285   9.856   0.574
35224W        W 1633  30.355  17.197   0.626
35225W        W 1634  36.128  39.457  12.276
35226W        W 1635  40.522  36.569   0.908
35227W        W 1636   5.763  36.862   0.948
35228W        W 1637  14.337  40.148  13.550
35229W        W 1638  33.103   7.817   4.389
35230W        W 1639  41.439   9.910  14.384
35231W        W 1640   7.184  34.400   4.421
35232W        W 1641  40.056  16.648  10.469
35233W        W 1642  30.635  28.679   2.462
35234W        W 1643  32.901  25.533   1.990
35235W        W 1644  35.204   4.446  13.581
35236W        W 1645  30.033  21.405  13.967
35237W        W 1646  31.596  10.257   1.678
35238W        W 1647  13.379  35.469   2.686
35239W        W 1648  42.528  25.408   0.473
35240W        W 1649  15.784  20.242  11.083
35241W        W 1650  27.125  43.053  14.982
35242W        W 1651  28.894  30.911   4.886
35243W        W 1652  43.307   4.725  11.861
35244W        W 1653  43.025  40.049   3.911
35245W        W 1654  34.581  13.408  14.559
35246W        W 1655   8.278  36.327   3.807
35247W        W 1656   5.937  39.916  11.629
35248W        W 1657  42.417  37.151  11.189
35249W        W 1658  29.735  44.213   1.649
35250W        W 1659  22.062  24.953  12.453
35251W        W 1660  27.567  27.632   2.424
35252W        W 1661  22.026  29.930   2.383
35253W        W 1662  34.894  32.543   1.252
35254W        W 1663  16.685  26.584  13.366
35255W        W 1664   2.762  44.367  14.529
35256W        W 1665  21.867  44.771  10.678
35257W        W 1666   7.957   3.525  11.945
35258W        W 1667  18.515   2.597  14.174
35259W        W 1668  17.710  33.914  11.371
35260W        W 1669  43.268  29.940   3.376
35261W        W 1670  27.296  28.788   2.177
35262W        W 1671   7.091  34.314  13.598
35263W        W 1672  44.491  19.038  14.930
35264W        W 1673  32.694  18.082   2.949
35265W        W 1674  28.697  16.177  11.565
35266W        W 1675  39.361  22.678  11.192
35267W        W 1676   8.159  15.254  14.239
35268W        W 1677   1.252  21.166   0.047
35269W        W 1678  13.555  19.655  14.017
35270W        W 1679  33.485   4.312  14.937
35271W        W 1680  25.525  10.391  11.587
35272W        W 1681  35.512  31.458   4.349
35273W        W 1682  41.899  44.635  12.874
35274W        W 1683  19.167  12.659   0.016
35275W        W 1684  24.558  43.828   2.847
35276W        W 1685   5.278  30.024   4.626
35277W        W 1686   5.295  23.954   1.337
35278W        W 1687   0.706   5.124   3.400
35279W        W 1688  14.740  14.548   2.109
35280W        W 1689   2.221  32.036   1.770
35281W        W 1690   2.431  16.706  10.909
35282W        W 1691  35.057  39.683  12.018
35283W        W 1692  18.247   0.895  10.796
35284W        W 1693  39.273  21.191   0.427
35285W        W 1694   5.246  24.535   3.059
35286W        W 1695   4.220  43.738  12.039
35287W        W 1696  24.012  15.868  12.091
35288W        W 1697  29.600  38.812   4.591
35289W        W 1698  25.199  35.965   4.285
35290W        W 1699  12.254  24.463   1.870
35291W        W 1700  13.207  23.736   4.091
35292W        W 1701  15.232  28.194   1.378
35293W        W 1702  37.378   2.483   0.472
35294W        W 1703  26.177  24.810   3.999
35295W        W 1704  16.055   1.895   3.049
35296W        W 1705   5.601  20.519  12.822
35297W        W 1706  42.517  17.348   5.168
35298W        W 1707  26.000   1.129  13.346
35299W        W 1708  37.875   9.651   0.701
35300W        W 1709  30.618  10.895  14.320
35301W        W 1710  23.587  17.743   3.566
35302W        W 1711   6.885  31.962   0.826
35303W        W 1712   1.424  18.261   1.129
35304W        W 1713  13.885   3.069   1.353
35305W        W 1714  14.583  31.576  12.121
35306W        W 1715  28.643  20.293   4.587
35307W        W 1716  37.849   1.236  14.556
35308W        W 1717  29.777  36.069  10.280
35309W        W 1718  33.929  34.821   3.754
35310W        W 1719  19.656  14.612  13.896
35311W        W 1720  36.687   7.066   0.880
35312W        W 1721  10.291  41.541  13.420
35313W        W 1722  20.994  19.158  10.658
35314W        W 1723   0.094  29.556  11.145
35315W        W 1724  22.151  32.457   3.211
35316W        W 1725  20.527  16.558   0.239
35317W        W 1726  31.344  32.431  11.691
35318W        W 1727  10.202   8.764  13.613
35319W        W 1728  23.685  22.469   0.362
35320W        W 1729  39.351  36.026   4.836
35321W        W 1730  27.053  15.193  14.721
35322W        W 1731  16.236   2.404   3.189
35323W        W 1732  43.819  22.859  12.861
35324W        W 1733   2.295  44.788  12.676
35325W        W 1734  32.619  38.766  14.618
35326W        W 1735  16.768  33.705  14.519
35327W        W 1736  30.648  14.880  12.656
35328W        W 1737  16.293   8.739   4.545
35329W        W 1738  11.529  33.232   0.263
35330W        W 1739  31.387   9.743  12.455
35331W        W 1740  42.804   8.280   3.257
35332W        W 1741   0.768  14.573   4.003
35333W        W 1742  11.868  20.674  12.465
35334W        W 1743  44.112  27.966  10.990
35335W        W 1744  14.576  13.513  11.116
35336W        W 1745  44.767  20.748   1.828
35337W        W 1746  39.303  32.967  12.435
35338W        W 1747  26.059  41.826  12.865
35339W        W 1748  43.191  34.599  14.788
35340W        W 1749  17.448   1.709   3.933
35341W        W 1750  35.402   9.843  11.986
35342W        W 1751  14.368  38.670  13.060
35343W        W 1752   5.660  43.427  12.548
35344W        W 1753  44.396  43.747   1.651
35345W        W 1754   7.383  30.543   0.691
35346W        W 1755   9.896  35.654   4.641
35347W        W 1756  36.519   0.908  13.357
35348W        W 1757  32.130  34.236   4.269
35349W        W 1758   5.933   0.296  14.466
35350W        W 1759  19.951   2.480  14.788
35351W        W 1760  26.770   4.733   3.885
35352W        W 1761  24.004  13.665  13.372
35353W        W 1762  43.917  31.372  14.865
35354W        W 1763  21.505  31.063   3.095
35355W        W 1764  39.915  24.798   5.031
35356W        W 1765  25.193  25.069  10.656
35357W        W 1766  23.515  24.431   3.149
35358W        W 1767  41.086  13.797   2.309
35359W        W 1768  18.573  30.049   0.235
35360W        W 1769   9.605   0.521   5.437
35361W        W 1770  16.065  43.195   0.591
35362W        W 1771  38.217  16.379  13.784
35363W        W 1772  43.672   3.033   2.668
35364W        W 1773  20.910  44.982   3.261
35365W        W 1774  19.516  18.143  14.304
35366W        W 1775  24.257  33.419  13.499
35367W        W 1776  21.090  31.671   4.017
35368W        W 1777  20.797  14.583  11.535
35369W        W 1778  25.189  10.959   4.042
35370W        W 1779  38.529  31.630   2.799
35371W        W 1780  21.761  21.319   3.854
35372W        W 1781  21.551  10.755  11.479
35373W        W 1782  37.836  20.183   0.321
35374W        W 1783  27.085  25.980  13.444
35375W        W 1784  36.846   3.871   4.029
35376W        W 1785  14.013  20.038   5.096
35377W        W 1786  15.353  34.561  12.946
35378W        W 1787  14.570  30.398   2.323
35379W        W 1788   9.773  19.182   3.335
35380W        W 1789   2.760   2.340   1.142
35381W        W 1790   0.790  26.223   2.259
35382W        W 1791  30.960  12.764   4.675
35383W        W 1792  35.946   5.773   2.666
35384W        W 1793   9.767  10.390  14.937
35385W        W 1794  42.722  16.515  14.350
35386W        W 1795   9.377  23.273   1.946
35387W        W 1796  39.194  28.912  12.962
35388W        W 1797  29.973  34.344  13.385
35389W        W 1798   4.965  35.398   4.758
35390W        W 1799  10.366  34.532   4.661
35391W        W 1800  29.004  11.325  11.400
35392W        W 1801  27.854  30.402  10.513
35393W        W 1802  31.075  41.494   0.269
35394W        W 1803   7.153   6.356  14.370
35395W        W 1804  26.964   9.697  13.432
35396W        W 1805  14.198   4.240   4.650
35397W        W 1806   3.953  33.978   1.388
35398W        W 1807  36.511  10.836  12.057
35399W        W 1808  41.625  30.778   2.747
35400W        W 1809  26.118  29.444  13.585
35401W        W 1810  42.778   8.475  11.621
35402W        W 1811  33.011  14.329  14.751
35403W        W 1812   8.425   4.527   3.691
35404W        W 1813  15.782  44.696   2.088
35405W        W 1814   6.863  33.789   2.270
35406W        W 1815  35.166  39.041  14.564
35407W        W 1816  11.285  44.323  13.144
35408W        W 1817   8.657  19.528   4.913
35409W        W 1818  13.745  36.917   1.200
35410W        W 1819  43.394  41.532   2.707
35411W        W 1820  31.445  12.368   0.212
35412W        W 1821   1.355  41.817   3.001
35413W        W 1822  28.726  30.167   3.057
35414W        W 1823   9.112   8.911  13.330
35415W        W 1824  38.410  16.276   4.126
35416W        W 1825  25.301   7.628  12.460
35417W        W 1826  11.682  38.458  12.992
35418W        W 1827   4.269  18.607   4.736
35419W        W 1828  27.620   3.706   2.436
35420W        W 1829   0.747  33.575   0.844
35421W        W 1830  38.056  32.482   3.358
35422W        W 1831   8.798  40.004   3.740
35423W        W 1832  19.602  28.114   4.178
35424W        W 1833  22.864  44.852   4.216
35425W        W 1834  29.490  32.120   4.943
35426W        W 1835   5.837  40.557  13.030
35427W        W 1836   4.853  35.972  11.279
35428W        W 1837  11.757  11.171  14.024
35429W        W 1838  39.754  10.226  11.270
35430W        W 1839  16.637   3.891   0.083
35431W        W 1840  27.219  19.797  12.396
35432W        W 1841   6.517  10.913  13.913
35433W        W 1842  34.424  35.366   4.318
35434W        W 1843  30.719  20.996   3.191
35435W        W 1844  22.305  20.800  12.975
35436W        W 1845  32.568  13.654  13.310
35437W        W 1846  24.346  28.448   1.140
35438W        W 1847   0.516  32.466   2.369
35439W        W 1848  18.871  16.188   3.387
35440W        W 1849  30.533  41.036   3.190
35441W        W 1850  25.731   6.046  13.545
35442W        W 1851   0.497  27.451  11.711
35443W        W 1852  27.070  32.233   4.855
35444W        W 1853  22.036  26.689   4.491
35445W        W 1854  14.141  15.313  13.737
35446W        W 1855  29.083  33.006  14.071
35447W        W 1856  30.440  12.070  11.322
35448W        W 1857  15.233  30.537  11.961
35449W        W 1858  19.194  15.269  13.559
35450W        W 1859  43.333  11.079  14.904
35451W        W 1860  37.364  42.297  14.770
35452W        W 1861   2.039  17.816  12.551
35453W        W 1862  12.681   3.296  12.224
35454W        W 1863   7.468   5.319   4.317
35455W        W 1864  39.475  43.796  10.761
35456W        W 1865  22.539  25.377   1.000
35457W        W 1866  37.472  30.853   4.113
35458W        W 1867  33.363   2.664   0.708
35459W        W 1868  34.187  26.009   3.602
35460W        W 1869  25.401   4.267   0.293
35461W        W 1870  24.888   1.704   3.598
35462W        W 1871   0.434   9.935   1.746
35463W        W 1872  41.530  36.971  10.865
35464W        W 1873  25.770  10.621   0.226
35465W        W 1874   5.902  29.447   0.313
35466W        W 1875   3.573  27.390   4.476
35467W        W 1876  20.776  26.587   2.923
35468W        W 1877  13.529  38.305   3.961
35469W        W 1878   5.809  39.988   3.222
35470W        W 1879   0.707  10.159  12.184
35471W        W 1880  18.623  12.769  12.433
35472W        W 1881  31.530   2.827   2.548
35473W        W 1882  32.099  21.404   2.070
35474W        W 1883   1.008  19.283  10.747
35475W        W 1884   6.193  34.637   2.870
35476W        W 1885  42.866   2.702   2.080
35477W        W 1886  28.617   5.479  11.521
35478W        W 1887   9.983   5.867  11.570
35479W        W 1888  19.622  23.031   3.087
35480W        W 1889  10.374   7.387   0.223
35481W        W 1890  10.606  39.179   4.077
35482W        W 1891  25.245  41.564   0.188
35483W        W 1892  24.665   0.290  11.649
35484W        W 1893  28.061  34.979  12.417
35485W        W 1894   0.690  29.074  14.885
35486W        W 1895  29.565  21.046  12.935
35487W        W 1896  40.782   6.011   1.666
35488W        W 1897   4.225  31.124  11.665
35489W        W 1898  38.528  12.058  11.057
35490W        W 1899  29.380  43.557   2.210
35491W        W 1900  40.840  31.085   1.840
35492W        W 1901  27.417  26.997  11.505
35493W        W 1902  16.421  24.889   2.416
35494W        W 1903   1.869  30.975   1.990
35495W        W 1904   1.661   6.363   4.226
35496W        W 1905  11.326  11.864   4.738
35497W        W 1906  27.681  25.251   2.107
35498W        W 1907   1.666  34.288  13.400
35499W        W 1908  22.125   8.434  14.401
35500W        W 1909  39.798  15.303  10.494
35501W        W 1910  44.796  41.930  11.628
35502W        W 1911   2.263   9.674  14.298
35503W        W 1912  37.614  34.192  13.004
35504W        W 1913  30.327  38.414   2.920
35505W        W 1914  44.762  35.760  12.443
35506W        W 1915  20.179  30.670  10.368
35507W        W 1916  23.130  23.594   3.132
35508W        W 1917  42.534  18.296  10.726
35509W        W 1918   5.692  19.306  14.713
35510W        W 1919  17.924  40.489  11.539
35511W        W 1920  11.264   3.701  11.072
35512W        W 1921  37.670  22.019  13.132
35513W        W 1922  41.899  39.203   1.237
35514W        W 1923  11.769  17.716  12.110
35515W        W 1924   6.380   7.720   1.345
35516W        W 1925  43.092  18.608  12.582
35517W        W 1926  38.098  25.585   0.258
35518W        W 1927   1.920   9.943   2.753
35519W        W 1928  20.581  25.501   3.314
35520W        W 1929  25.452  14.132  11.229
35521W        W 1930  41.236   2.537  13.941
35522W        W 1931   1.604   5.782  10.888
35523W        W 1932  29.334   2.168  14.268
35524W        W 1933  16.112   7.202  13.902
35525W        W 1934   0.343  44.808  11.965
35526W        W 1935   7.703  21.253   0.064
35527W        W 1936  32.203  10.313  10.504
35528W        W 1937  27.178   6.338  10.302
35529W        W 1938  39.888  21.804   2.613
35530W        W 1939  32.908  21.666  11.060
35531W        W 1940   2.774  11.791  12.520
35532W        W 1941  34.276  32.229  14.176
35533W        W 1942   9.751  37.381  12.619
35534W        W 1943  21.232  42.549  12.448
35535W        W 1944   1.088  44.938   4.339
35536W        W 1945  10.658   4.842  11.932
35537W        W 1946  44.362  25.241   3.240
35538W        W 1947  20.768  42.255  11.562
35539W        W 1948   1.285  34.788  11.140
35540W        W 1949  16.394  16.910  11.999
35541W        W 1950   9.644  31.060  11.143
35542W        W 1951  38.140  36.971  11.922
35543W        W 1952  10.882   8.325   0.216
35544W        W 1953  11.431   3.857   2.864
35545W        W 1954  36.639  39.611  14.740
35546W        W 1955   6.613  24.251  13.111
35547W        W 1956  33.161  30.543  13.355
35548W        W 1957  13.841   9.791   0.193
35549W        W 1958   7.924  29.882   1.693
35550W        W 1959  10.605  15.670  10.655
35551W        W 1960  14.596  28.541   2.005
35552W        W 1961  16.460  28.136   4.431
35553W        W 1962  30.125  22.034  11.715
35554W        W 1963  31.171  27.625   1.854
35555W        W 1964  26.024  22.767  10.774
35556W        W 1965  29.189  16.301   1.693
35557W        W 1966  21.435  32.655   2.407
35558W        W 1967   4.931  19.025   3.304
35559W        W 1968  30.921   6.792  13.123
35560W        W 1969  40.515  25.657  10.812
35561W        W 1970  22.214  12.313   2.796
35562W        W 1971   2.408  32.542   3.871
35563W        W 1972  37.481  41.105  11.943
35564W        W 1973  13.047  43.536   2.932
35565W        W 1974  22.057  42.512  10.473
35566W        W 1975  12.354  44.182   3.872
35567W        W 1976  19.935   2.107  12.006
35568W        W 1977  41.361  27.017  13.322
35569W        W 1978  36.058   1.798   0.704
35570W        W 1979  36.817  39.803  11.639
35571W        W 1980  41.400  27.660   4.375
35572W        W 1981  14.731  10.126   4.555
35573W        W 1982   1.170  30.948   2.312
35574W        W 1983  21.697  34.300  10.735
35575W        W 1984  30.764   3.292   2.439
35576W        W 1985  26.574  43.167   4.914
35577W        W 1986  18.211   0.002  10.634
35578W        W 1987  26.574  13.551   2.673
35579W        W 1988  41.644  35.064  13.035
35580W        W 1989  28.359  39.687  11.924
35581W        W 1990  36.734   5.362   0.463
35582W        W 1991  17.327  36.792  14.951
35583W        W 1992  43.296  33.523   2.430
35584W        W 1993  16.570  11.611   2.754
35585W        W 1994   4.723   6.169  10.987
35586W        W 1995  14.098  23.662  14.509
35587W        W 1996  23.533   7.183  12.692
35588W        W 1997   2.703  26.556   2.234
35589W        W 1998  11.260   5.345  10.418
35590W        W 1999   1.644  40.897   4.137
35591W        W 2000   4.438  11.897  11.294
35592W        W 2001   5.197  41.141   0.764
35593W        W 2002  39.027  12.317   3.590
35594W        W 2003  39.885  14.413   0.788
35595W        W 2004  10.799  23.962   1.718
35596W        W 2005   5.351  44.408   3.623
35597W        W 2006   6.718  44.188   9.944
35598W        W 2007  26.250  43.539   1.720
35599W        W 2008  22.553   6.186   3.084
35600W        W 2009  24.249  26.030  10.599
35601W        W 2010  33.191  39.828  13.052
35602W        W 2011  16.572  13.711   3.833
35603W        W 2012   8.758  32.906  12.884
35604W        W 2013  22.725  21.136   0.752
35605W        W 2014  13.341  16.427  14.069
35606W        W 2015  44.174   2.170  14.092
35607W        W 2016  30.894  40.984  10.804
35608W        W 2017   5.276  24.698  11.449
35609W        W 2018  10.847   6.034   9.687
35610W        W 2019  34.524  22.428   1.915
35611W        W 2020  21.168  22.746  14.855
35612W        W 2021  18.647  36.503   2.915
35613W        W 2022  19.702  16.330  12.315
35614W        W 2023  42.081  24.719  11.908
35615W        W 2024  42.286  40.358  10.891
35616W        W 2025  40.335  40.506   2.383
35617W        W 2026  20.512   0.922   4.880
35618W        W 2027  13.885  26.247  12.708
35619W        W 2028  13.824   7.788  10.412
35620W        W 2029  42.119  16.635   1.824
35621W        W 2030  31.168  39.792   3.283
35622W        W 2031  36.010  27.594   0.921
35623W        W 2032  17.800  26.993   1.334
35624W        W 2033  16.055  16.178  14.774
35625W        W 2034  36.792  38.340  12.453
35626W        W 2035  31.237  34.353   1.608
35627W        W 2036  32.910  15.004  12.631
35628W        W 2037  30.860  14.174   2.279
35629W        W 2038  42.093  32.635   3.726
35630W        W 2039   3.298   3.348  11.893
35631W        W 2040  27.468  19.644   0.060
35632W        W 2041  15.154   3.811  13.928
35633W        W 2042  20.720  41.497  10.594
35634W        W 2043   7.137   4.870   0.626
35635W        W 2044  43.782  24.925   4.900
35636W        W 2045  38.825  21.408  13.902
35637W        W 2046   9.668   9.446  13.840
35638W        W 2047   2.508   2.805  12.061
35639W        W 2048  43.015  22.692  14.723
35640W        W 2049  40.839  38.544  13.381
35641W        W 2050  20.795   5.745  12.927
35642W        W 2051  26.402  22.584  12.454
35643W        W 2052   1.065  18.994  14.785
35644W        W 2053  44.547  18.872   1.249
35645W        W 2054  41.636  17.351   4.177
35646W        W 2055  23.546   8.839  14.830
35647W        W 2056  44.780  11.484   2.345
35648W        W 2057   5.785  44.495  11.678
35649W        W 2058  35.344  34.388   4.258
35650W        W 2059  20.675  15.844  10.793
35651W        W 2060  44.350  12.151   2.248
35652W        W 2061  23.751  44.979   4.106
35653W        W 2062   1.963   1.426  14.892
35654W        W 2063  38.892  21.223  10.345
35655W        W 2064  40.386  27.185  11.112
35656W        W 2065  28.116  34.632  10.692
35657W        W 2066  28.544  34.501   0.030
35658W        W 2067  18.147  30.153   3.448
35659W        W 2068  15.680  44.446  13.020
35660W        W 2069  38.155   3.381   3.242
35661W        W 2070   4.247   9.918  13.501
35662W        W 2071  25.552  43.927  10.803
35663W        W 2072  37.839  25.143  12.886
35664W        W 2073  30.568  37.217  12.077
35665W        W 2074   4.338   6.997  13.850
35666W        W 2075   5.163  12.800   0.321
35667W        W 2076  24.719  16.565   1.471
35668W        W 2077  33.916  41.443   1.709
35669W        W 2078  33.861  16.828  11.112
35670W        W 2079  27.649  43.104   0.016
35671W        W 2080  41.468  14.627  10.940
35672W        W 2081  42.106  11.460  11.129
35673W        W 2082  31.658  23.029   4.056
35674W        W 2083  43.799  14.130   1.369
35675W        W 2084  16.004  24.538   3.304
35676W        W 2085  33.430   4.921  11.165
35677W        W 2086  11.872  17.566   2.514
35678W        W 2087  20.172  27.144   1.285
35679W        W 2088  43.574  37.467   4.960
35680W        W 2089   5.241  23.465   3.699
35681W        W 2090   8.215   2.707  12.615
35682W        W 2091   4.859   8.105  11.650
35683W        W 2092  13.933   6.338   4.536
35684W        W 2093  35.529   9.964   2.192
35685W        W 2094  12.143   4.673  11.967
35686W        W 2095   3.195  39.306  14.497
35687W        W 2096  18.332  27.675   2.276
35688W        W 2097  13.875  26.983   0.302
35689W        W 2098  18.236   1.687   1.813
35690W        W 2099  11.064  26.831  13.940
35691W        W 2100   4.676  15.852  12.572
35692W        W 2101  15.801  19.317   1.763
35693W        W 2102   9.388  27.100  14.832
35694W        W 2103  21.125  10.660   1.784
35695W        W 2104  27.086  43.421  12.581
35696W        W 2105  41.147  36.571  12.862
35697W        W 2106   6.149  44.458  14.949
35698W        W 2107  21.121  40.371  13.501
35699W        W 2108   5.397  14.279  10.707
35700W        W 2109  17.786  37.047   2.214
35701W        W 2110   1.922  28.648   2.247
35702W        W 2111  37.937  28.919  13.448
35703W        W 2112  39.952  35.560   4.216
35704W        W 2113  44.364  33.187  13.944
35705W        W 2114  21.554  26.207  12.842
35706W        W 2115   9.141   0.720  12.817
35707W        W 2116  43.318  33.606  12.585
35708W        W 2117  14.343  37.493   1.827
35709W        W 2118   7.955  30.699  11.686
35710W        W 2119  42.313   4.831   1.411
35711W        W 2120   1.772  38.758   0.817
35712W        W 2121   4.375   6.676   1.694
35713W        W 2122   2.674  24.172   2.458
35714W        W 2123  39.819  11.100  13.002
35715W        W 2124  10.053  27.530   0.355
35716W        W 2125   7.087  23.574  11.104
35717W        W 2126   0.293   1.961  12.817
35718W        W 2127   9.055  30.981  14.751
35719W        W 2128  44.320   7.768   0.384
35720W        W 2129   9.091   9.355   3.758
35721W        W 2130  27.996  32.221   5.018
35722W        W 2131  18.291  31.471  11.661
35723W        W 2132  25.060  11.633   0.319
35724W        W 2133  40.876  30.705   2.778
35725W        W 2134  29.685  22.641   1.351
35726W        W 2135  35.430  33.673  10.801
35727W        W 2136  39.093  38.662  12.055
35728W        W 2137   0.377   9.094  10.333
35729W        W 2138  27.620  28.479   1.850
35730W        W 2139  12.294  38.671  11.656
35731W        W 2140  18.087  42.307   1.934
35732W        W 2141  12.412  39.719   2.208
35733W        W 2142   7.166  30.182   4.146
35734W        W 2143  21.019   9.600   1.194
35735W        W 2144  19.190  22.757   2.184
35736W        W 2145  40.612  29.117  10.739
35737W        W 2146   5.934  25.257  11.553
35738W        W 2147  44.948  35.271  12.516
35739W        W 2148  13.672   4.632  14.956
35740W        W 2149  35.366  15.550  13.170
35741W        W 2150  17.833  32.665   3.744
35742W        W 2151   0.324  43.248  14.876
35743W        W 2152   4.739  34.996  14.233
35744W        W 2153  39.990  15.835   0.684
35745W        W 2154   3.872  22.199  11.421
35746W        W 2155  25.491  43.511   3.059
35747W        W 2156   2.887  36.020  13.092
35748W        W 2157  31.406  17.278   0.089
35749W        W 2158  37.941  36.965  14.943
35750W        W 2159  25.703  13.329   0.810
35751W        W 2160  36.165  28.951   0.878
35752W        W 2161  33.352  38.410  14.963
35753W        W 2162  44.275   5.654   2.224
35754W        W 2163  20.156  37.944   1.922
35755W        W 2164  24.817  12.020   5.004
35756W        W 2165   4.215  20.244  14.448
35757W        W 2166  35.284  43.757  12.637
35758W        W 2167   7.264  16.136  12.933
35759W        W 2168  25.599   8.305   2.225
35760W        W 2169  13.122  11.530   4.050
35761W        W 2170  28.030  23.570   4.755
35762W        W 2171  38.301  14.678  14.483
35763W        W 2172  44.146  13.175   2.605
35764W        W 2173  39.393  41.580   3.722
35765W        W 2174  12.095   6.761   0.682
35766W        W 2175   0.478  37.593   0.514
35767W        W 2176  12.111  41.068  13.941
35768W        W 2177  40.857  29.374   1.916
35769W        W 2178  16.711  18.247  10.530
35770W        W 2179  12.655  39.320   4.098
35771W        W 2180  31.978  10.818  12.087
35772W        W 2181  13.251  12.252  12.192
35773W        W 2182  26.998  11.328   3.635
35774W        W 2183   3.248  44.515  14.778
35775W        W 2184  27.715   4.823  13.931
35776W        W 2185  30.899   9.086  12.390
35777W        W 2186  32.399  38.009   0.367
35778W        W 2187  41.963  14.408  14.819
35779W        W 2188  44.518  34.140   1.813
35780W        W 2189  24.492   9.902  10.757
35781W        W 2190   4.979  44.037   2.279
35782W        W 2191  20.501   2.064   4.062
35783W        W 2192  37.080  14.800  11.581
35784W        W 2193  13.253  22.475   0.664
35785W        W 2194  20.394  24.696   0.986
35786W        W 2195  10.909  31.811   1.583
35787W        W 2196  14.696  12.666  13.409
35788W        W 2197  32.574  40.105   3.512
35789W        W 2198  23.017   5.462  14.771
35790W        W 2199  16.551  12.246   4.320
35791W        W 2200  10.189  21.000  12.271
35792W        W 2201   1.348  12.786  11.556
35793W        W 2202  23.786  19.207   4.025
35794W        W 2203   0.754   2.944   4.279
35795W        W 2204   5.202  14.276  12.234
35796W        W 2205  28.097  15.940   2.828
35797W        W 2206  25.483   9.884  12.436
35798W        W 2207  39.874  37.533   1.457
35799W        W 2208   0.554   0.286  10.752
35800W        W 2209  25.773  30.993  12.335
35801W        W 2210  36.584  35.612   1.839
35802W        W 2211   9.387  41.708  13.987
35803W        W 2212  22.945   3.337   4.270
35804W        W 2213  33.131  38.807   4.634
35805W        W 2214  35.498  30.825  13.966
35806W        W 2215  39.720   5.879   0.780
35807W        W 2216  29.936   7.255  11.653
35808W        W 2217  20.569  14.142  12.525
35809W        W 2218   3.487  29.447  12.681
35810W        W 2219  25.637  36.146  12.983
35811W        W 2220  19.692   1.650   3.013
35812W        W 2221   5.575  30.917   3.865
35813W        W 2222   0.378  28.370   4.973
35814W        W 2223  11.822   6.732  14.455
35815W        W 2224  42.043   6.437  13.531
35816W        W 2225  36.767   6.315   1.880
35817W        W 2226   6.846  21.832   5.080
35818W        W 2227  14.540  32.680  13.439
35819W        W 2228  17.747  25.673  14.484
35820W        W 2229  17.448  40.284   4.810
35821W        W 2230  13.828  19.144   1.816
35822W        W 2231  40.404  34.083  11.998
35823W        W 2232  26.486  12.151  14.571
35824W        W 2233  31.024   1.083  14.981
35825W        W 2234  30.133  20.841   1.886
35826W        W 2235  33.573  16.993   3.343
35827W        W 2236   7.451  15.592  11.183
35828W        W 2237  44.055  13.713   0.519
35829W        W 2238  11.325   4.705   2.880
35830W        W 2239  17.781  30.534   3.434
35831W        W 2240  37.529  13.986   4.547
35832W        W 2241  32.457  36.570  10.672
35833W        W 2242  31.990  20.772  11.229
35834W        W 2243  44.013  34.591   3.742
35835W        W 2244  40.455   3.838   2.115
35836W        W 2245  23.410  30.388   3.942
35837W        W 2246  42.391  20.018   3.127
35838W        W 2247   9.114  20.150   2.393
35839W        W 2248  42.298   8.622  12.855
35840W        W 2249  15.007   8.556  10.852
35841W        W 2250  35.593  19.121  10.633
35842W        W 2251  33.714  27.918  14.876
35843W        W 2252  13.200  19.155  12.641
35844W        W 2253  17.787  11.676  11.483
35845W        W 2254   3.426  24.699   0.367
35846W        W 2255  15.585  13.397  10.799
35847W        W 2256  23.948   4.354   4.501
35848W        W 2257   1.955  40.065  11.625
35849W        W 2258   6.928  22.047  11.571
35850W        W 2259  25.279  34.069  13.012
35851W        W 2260  33.021  15.301   1.130
35852W        W 2261   4.203   0.844   0.898
35853W        W 2262  10.220   8.359  13.268
35854W        W 2263  38.512  15.089  13.263
35855W        W 2264   3.421  33.655   0.570
35856W        W 2265   5.029   5.756   4.522
35857W        W 2266  18.796  10.371   1.148
35858W        W 2267  37.991  16.532   3.997
35859W        W 2268  21.848   9.176  12.599
35860W        W 2269   5.760  22.152   0.941
35861W        W 2270   3.502  22.141  12.508
35862W        W 2271  34.016  32.730   4.600
35863W        W 2272  15.556  43.833   4.219
35864W        W 2273   9.733  43.663  14.968
35865W        W 2274   0.574  27.113  11.001
35866W        W 2275  42.401  24.676   4.466
35867W        W 2276   6.257   4.939   2.058
35868W        W 2277  44.690  15.334  13.346
35869W        W 2278  41.541   5.240   2.883
35870W        W 2279   9.236  40.617   0.313
35871W        W 2280  38.477   6.406   1.363
35872W        W 2281   1.331  23.239   3.684
35873W        W 2282  12.933  24.717  14.748
35874W        W 2283  26.050   2.856  11.044
35875W        W 2284  12.248   6.275   4.171
35876W        W 2285  20.713  37.060   0.216
35877W        W 2286  33.923   7.440  13.299
35878W        W 2287  35.422  27.070  12.545
35879W        W 2288  43.535  11.608   1.612
35880W        W 2289   6.961  24.909   0.450
35881W        W 2290  15.142  13.969   0.926
35882W        W 2291  21.143   6.784   1.902
35883W        W 2292  32.397  42.208   1.726
35884W        W 2293  19.631  23.582   3.963
35885W        W 2294  37.561  42.895   3.361
35886W        W 2295  42.082  13.928  12.665
35887W        W 2296   8.807  36.298   0.165
35888W        W 2297   5.140  32.357  13.069
35889W        W 2298  15.842  27.192   4.057
35890W        W 2299  24.560  20.735   0.435
35891W        W 2300  19.159  19.156   4.578
35892W        W 2301  11.850   1.899   1.255
35893W        W 2302   8.644  39.167   2.390
35894W        W 2303  20.265  39.500  13.809
35895W        W 2304  26.188  16.792  10.197
35896W        W 2305  15.346   2.431   3.808
35897W        W 2306  38.298  42.285   4.836
35898W        W 2307   7.896  37.521  10.776
35899W        W 2308  23.181  10.589  13.577
35900W        W 2309   1.810   2.821   1.394
35901W        W 2310  33.400   7.409  14.036
35902W        W 2311  37.637  15.626   3.848
35903W        W 2312   2.289  31.159   0.298
35904W        W 2313   8.626  35.330  12.030
35905W        W 2314  19.722  36.734  14.849
35906W        W 2315   8.534  39.508   0.500
35907W        W 2316  42.511  34.379   2.769
35908W        W 2317  14.397  23.270  13.035
35909W        W 2318  33.066  24.275   1.234
35910W        W 2319  15.317  19.007  12.043
35911W        W 2320  15.590  39.309  12.656
35912W        W 2321  13.568  34.509   2.331
35913W        W 2322  30.679  34.175  13.972
35914W        W 2323  18.770  13.255   1.868
35915W        W 2324  31.497  43.849  12.430
35916W        W 2325   8.328  14.561  12.587
35917W        W 2326  25.496  11.108   2.839
35918W        W 2327  10.802  15.949  12.703
35919W        W 2328  41.932  25.131   2.217
35920W        W 2329  30.951  17.617  12.951
35921W        W 2330  17.964   7.279   4.373
35922W        W 2331   3.324  41.795  12.328
35923W        W 2332  16.668  25.366  14.985
35924W        W 2333  31.518   5.875  11.439
35925W        W 2334  33.959  21.047  14.416
35926W        W 2335  15.550  41.341   0.784
35927W        W 2336  32.497   1.812  10.859
35928W        W 2337  14.833  18.184   3.746
35929W        W 2338   5.196  23.189  12.074
35930W        W 2339   9.425   9.333   0.679
35931W        W 2340  24.594  36.955  11.497
35932W        W 2341  28.093  24.969   3.636
35933W        W 2342   9.449   1.707  12.912
35934W        W 2343  37.985   6.513   4.149
35935W        W 2344  42.424  37.364   3.752
35936W        W 2345  16.073  10.900   0.723
35937W        W 2346  14.206  25.873   0.739
35938W        W 2347  17.963  11.021   0.565
35939W        W 2348  16.904  10.453   4.757
35940W        W 2349   3.969  30.699   0.962
35941W        W 2350  32.312  36.871  11.105
35942W        W 2351   2.959  10.772   4.963
35943W        W 2352  14.046  22.983   0.277
35944W        W 2353  27.145  19.041   2.643
35945W        W 2354  28.124   4.903   4.683
35946W        W 2355   3.918  41.621   3.728
35947W        W 2356  33.176  38.939   0.961
35948W        W 2357  13.176  27.767  13.887
35949W        W 2358  33.101  26.228  12.533
35950W        W 2359  22.650  20.589  10.602
35951W        W 2360  43.867  12.137   4.187
35952W        W 2361  31.822  21.105  10.510
35953W        W 2362  33.055  39.072  11.060
35954W        W 2363   1.901  32.839   0.403
35955W        W 2364  16.295  29.983   3.640
35956W        W 2365  25.215  42.698  12.390
35957W        W 2366  22.629  34.484   1.855
35958W        W 2367  30.450   6.302  14.521
35959W        W 2368   7.350  35.065  12.380
35960W        W 2369  21.242  35.468  12.968
35961W        W 2370  40.497  27.173   4.667
35962W        W 2371  44.299  23.619  11.212
35963W        W 2372  33.582  28.855   0.863
35964W        W 2373  36.605  39.104   4.699
35965W        W 2374  30.030   5.794   4.594
35966W        W 2375  22.826  37.875   1.282
35967W        W 2376  22.082  40.741   0.261
35968W        W 2377  11.379   3.200  11.027
35969W        W 2378  36.264  32.113   0.512
35970W        W 2379   9.596  11.306   1.251
35971W        W 2380  28.876  27.058   4.935
35972W        W 2381  24.020  15.104   4.601
35973W        W 2382  35.793  15.275  14.847
35974W        W 2383  36.031  23.500  13.833
35975W        W 2384  32.511  31.482  11.992
35976W        W 2385  21.295  13.528   1.898
35977W        W 2386  41.971  21.467  11.212
35978W        W 2387  17.770  14.292  13.649
35979W        W 2388   8.888  32.888  13.930
35980W        W 2389  13.161  19.434  10.237
35981W        W 2390  20.199   2.638  13.374
35982W        W 2391  24.168  17.873  11.127
35983W        W 2392  23.218  21.545   4.993
35984W        W 2393  24.552   6.475  13.314
35985W        W 2394   5.268  11.378   0.222
35986W        W 2395  15.382  23.424  12.495
35987W        W 2396  24.121  12.658   3.696
35988W        W 2397  17.039  41.517  11.482
35989W        W 2398  27.650  16.238   0.477
35990W        W 2399  14.141  12.023   1.224
35991W        W 2400  18.942  24.153  13.853
35992W        W 2401  41.597  20.057   4.098
35993W        W 2402   7.166   4.328  10.836
35994W        W 2403  33.935  11.612   2.276
35995W        W 2404  42.483  28.383  14.484
35996W        W 2405   4.763  41.709  10.191
35997W        W 2406  19.345   7.874   4.726
35998W        W 2407  24.738  23.903  10.165
35999W        W 2408  14.655   4.169  13.440
36000W        W 2409  24.922  28.964   1.686
36001W        W 2410  22.995  34.741  12.022
36002W        W 2411  23.664  26.575   1.355
36003W        W 2412  24.923   7.776  14.463
36004W        W 2413  14.490  37.105  12.626
36005W        W 2414  37.680   9.888  13.416
36006W        W 2415   3.954   1.013   1.793
36007W        W 2416  34.908   0.698   2.830
36008W        W 2417  24.098  42.419   4.259
36009W        W 2418  26.104  40.219  11.367
36010W        W 2419  43.858  36.927   3.657
36011W        W 2420  36.958  28.789   2.690
36012W        W 2421   0.934  13.159  13.002
36013W        W 2422  29.662  42.399   3.821
36014W        W 2423  11.197  28.937   1.106
36015W        W 2424  42.904  32.825  11.202
36016W        W 2425  15.608  28.106   2.563
36017W        W 2426  10.654  23.461   1.777
36018W        W 2427  42.797  27.407  12.738
36019W        W 2428  41.984  19.197  10.924
36020W        W 2429  19.307  26.886  11.592
36021W        W 2430  34.284  29.909   3.703
36022W        W 2431  16.523  32.490  10.516
36023W        W 2432  12.456   0.715  12.507
36024W        W 2433  11.393  18.177   0.322
36025W        W 2434  34.052  41.908  14.285
36026W        W 2435  15.211   5.708  10.440
36027W        W 2436   2.221  23.731   2.719
36028W        W 2437   9.744  33.430   1.655
36029W        W 2438   2.504  33.662  14.717
36030W        W 2439  11.924   3.407  14.456
36031W        W 2440  33.496  40.286  14.778
36032W        W 2441  13.634  20.489  10.727
36033W        W 2442  14.428   8.741   1.102
36034W        W 2443  25.205   5.454  14.627
36035W        W 2444  13.293  26.254  11.577
36036W        W 2445  16.530  11.188   0.524
36037W        W 2446  42.376  13.634  13.960
36038W        W 2447   6.372  41.006  12.097
36039W        W 2448  11.959  32.078   0.250
36040W        W 2449  32.520  26.139  14.732
36041W        W 2450  24.101  43.285   0.500
36042W        W 2451  39.781  14.805   4.630
36043W        W 2452  36.349  21.738   2.727
36044W        W 2453  18.294  28.484   0.783
36045W        W 2454  30.992  40.734  12.511
36046W        W 2455   6.158  12.450  12.850
36047W        W 2456   7.231  14.771  10.648
36048W        W 2457  41.080  12.256   2.815
36049W        W 2458  12.382  40.210   2.426
36050W        W 2459  25.096  37.789  14.452
36051W        W 2460  26.081   5.204  10.652
36052W        W 2461   3.194   9.363   1.289
36053W        W 2462  30.031  33.681  12.866
36054W        W 2463  18.197  30.891  14.229
36055W        W 2464  29.181  37.926  12.234
36056W        W 2465  18.129   9.161  10.423
36057W        W 2466  36.024   5.082  13.181
36058W        W 2467  22.965  26.224  12.892
36059W        W 2468  22.019  16.375  14.893
36060W        W 2469  15.525  36.909  12.854
36061W        W 2470  24.037  28.200   4.120
36062W        W 2471  35.587  44.707   1.235
36063W        W 2472  37.241  11.362  10.236
36064W        W 2473  29.088   5.989   2.279
36065W        W 2474  28.506  36.566   3.898
36066W        W 2475  42.752  35.482  11.582
36067W        W 2476  26.523  32.070  14.782
36068W        W 2477   9.416   3.241  11.196
36069W        W 2478  20.072  42.932   1.665
36070W        W 2479  22.462  19.509   0.998
36071W        W 2480  13.321  24.760  11.412
36072W        W 2481   4.248  22.534   0.866
36073W        W 2482  42.787  24.203  11.602
36074W        W 2483  41.032  28.217   3.534
36075W        W 2484   0.865   0.942   2.596
36076W        W 2485  16.239  26.244  11.770
36077W        W 2486  28.857  32.914   0.574
36078W        W 2487  44.027   3.390  13.424
36079W        W 2488  34.872  44.962  12.460
36080W        W 2489  31.387  40.858  13.897
36081W        W 2490  25.147  28.303  12.569
36082W        W 2491  23.547  22.930   3.103
36083W        W 2492  39.506  24.941   2.764
36084W        W 2493  26.192   6.415   0.979
36085W        W 2494  27.181  42.250  12.161
36086W        W 2495  31.977   7.265   1.748
36087W        W 2496  12.182  35.867  10.717
36088W        W 2497  20.152  37.522   1.626
36089W        W 2498  31.144  40.294   3.425
36090W        W 2499   6.086  34.081  13.417
36091W        W 2500  39.683   1.056   0.959
36092W        W 2501   1.946  39.307  12.040
36093W        W 2502  21.045  35.316  14.852
36094W        W 2503  14.746  24.690   4.201
36095W        W 2504  28.682  21.570   5.069
36096W        W 2505  15.242   5.354   4.542
36097W        W 2506  17.104   6.480  10.686
36098W        W 2507  11.709   8.221  10.985
36099W        W 2508  27.660  41.332   0.601
36100W        W 2509  31.553  44.223  11.472
36101W        W 2510  41.500  16.745   2.589
36102W        W 2511  16.658  20.115  12.592
36103W        W 2512  43.708  21.107   0.395
36104W        W 2513  26.234  30.656   4.730
36105W        W 2514   6.753  27.021  11.147
36106W        W 2515  11.662  36.464  14.863
36107W        W 2516  38.762  21.084   0.496
36108W        W 2517   7.920  37.889   0.193
36109W        W 2518  11.935  22.548   4.432
36110W        W 2519  12.592  36.896   3.228
36111W        W 2520  15.403  27.435  13.973
36112W        W 2521  12.202  30.203   0.987
36113W        W 2522  17.369  17.570   3.013
36114W        W 2523  30.602  41.559   0.487
36115W        W 2524  33.966  40.801  10.613
36116W        W 2525  42.059   1.789   0.846
36117W        W 2526  14.135  38.603  14.829
36118W        W 2527  33.704  29.572  12.451
36119W        W 2528  42.837  40.376  10.566
36120W        W 2529  29.726   8.265  14.534
36121W        W 2530  33.931  14.326   0.332
36122W        W 2531  40.533   1.828   4.038
36123W        W 2532  44.021  36.615  14.442
36124W        W 2533  18.140  22.501   0.684
36125W        W 2534  19.628  43.642  14.422
36126W        W 2535   5.104  32.858  12.769
36127W        W 2536  32.011   1.134  14.801
36128W        W 2537  24.182  35.460   1.136
36129W        W 2538   3.810   6.375   2.124
36130W        W 2539  30.903  39.178  13.904
36131W        W 2540   7.771   9.706  11.525
36132W        W 2541  14.269   4.759  13.923
36133W        W 2542  16.318  31.715  12.615
36134W        W 2543  34.879  43.483  11.131
36135W        W 2544  33.061  35.813  11.929
36136W        W 2545  35.790  35.535  10.747
36137W        W 2546  29.433  25.962   2.353
36138W        W 2547  31.702  23.504  11.849
36139W        W 2548   6.580  18.570   0.213
36140W        W 2549  27.036   4.660   1.777
36141W        W 2550   6.594  27.688  13.970
36142W        W 2551   1.780  36.820   0.141
36143W        W 2552  32.389   9.907   2.246
36144W        W 2553  34.941  17.160  14.314
36145W        W 2554   2.625  29.036   2.837
36146W        W 2555  26.340  12.275  13.608
36147W        W 2556   6.263  33.994   3.653
36148W        W 2557  31.042   8.573   3.244
36149W        W 2558  44.972  13.603   2.529
36150W        W 2559   0.425   9.150  14.608
36151W        W 2560   6.725  37.382  11.183
36152W        W 2561  27.149  44.330  10.718
36153W        W 2562  17.584  39.811  12.999
36154W        W 2563  25.002  27.350  14.404
36155W        W 2564   1.335  25.482   2.958
36156W        W 2565  30.985   6.693   0.954
36157W        W 2566  15.234   2.880   4.060
36158W        W 2567  41.978  11.675   3.432
36159W        W 2568  39.618   3.642  12.655
36160W        W 2569  17.138  31.432   1.749
36161W        W 2570   0.932  30.859  13.538
36162W        W 2571  25.024  12.214   1.166
36163W        W 2572  35.890   2.432   1.314
36164W        W 2573  17.530   6.002  14.760
36165W        W 2574  28.655  13.707  12.615
36166W        W 2575   8.415   5.709  11.104
36167W        W 2576  39.135   0.365   3.017
36168W        W 2577  35.476  32.707  13.495
36169W        W 2578  24.952   1.288  12.000
36170W        W 2579  15.809  43.976   3.108
36171W        W 2580  10.263  26.453   0.435
36172W        W 2581   4.224  20.986   2.283
36173W        W 2582  16.598  17.105  14.347
36174W        W 2583  13.842   5.222   4.559
36175W        W 2584   9.305  12.781  12.163
36176W        W 2585   8.127  27.911   4.113
36177W        W 2586  18.301  12.258  14.016
36178W        W 2587  22.665  38.002  11.178
36179W        W 2588  13.334  23.326   3.277
36180W        W 2589  19.161  21.084  13.321
36181W        W 2590  19.880  19.445   2.563
36182W        W 2591  40.801  43.549   1.353
36183W        W 2592  38.481  41.366   3.316
36184W        W 2593  17.174  38.152   0.240
36185W        W 2594   3.802  34.958  11.606
36186W        W 2595  29.242  16.989   2.585
36187W        W 2596  34.546  17.054  13.489
36188W        W 2597  27.048  15.794   1.402
36189W        W 2598   5.817  27.260  11.278
36190W        W 2599  27.894  13.196  10.580
36191W        W 2600   3.353  39.684   3.274
36192W        W 2601  33.648  22.062  10.156
36193W        W 2602  42.802  15.369   2.262
36194W        W 2603  16.975  10.230  11.041
36195W        W 2604   1.558   4.702   2.706
36196W        W 2605  43.995  33.370   2.781
36197W        W 2606  13.910  34.077  11.181
36198W        W 2607   1.310  42.401   4.639
36199W        W 2608   1.936  29.524   0.769
36200W        W 2609   7.223   6.202   4.084
36201W        W 2610  38.931   5.387   0.322
36202W        W 2611   0.272  34.601   1.332
36203W        W 2612   6.121  35.037  13.719
36204W        W 2613   3.256  33.452  13.885
36205W        W 2614  30.299   8.047  10.082
36206W        W 2615  19.124  15.136   3.010
36207W        W 2616  22.953   4.381   0.432
36208W        W 2617  42.684   9.879  11.693
36209W        W 2618   7.367  28.258  14.503
36210W        W 2619  14.644   2.652  11.244
36211W        W 2620  42.841  44.182  14.146
36212W        W 2621   3.297  10.177   4.539
36213W        W 2622  25.052  22.851  11.846
36214W        W 2623  29.249   3.429   4.770
36215W        W 2624   2.793  18.155  13.567
36216W        W 2625  12.842  44.573  14.488
36217W        W 2626  10.664  21.072   4.536
36218W        W 2627  34.060  14.129   4.878
36219W        W 2628   3.615  44.428  12.957
36220W        W 2629  23.053  32.069   1.724
36221W        W 2630  25.472  35.271  13.934
36222W        W 2631  23.364  18.457  11.080
36223W        W 2632  41.153   5.668   3.050
36224W        W 2633  14.172  12.889   0.695
36225W        W 2634  44.446  13.216  13.416
36226W        W 2635  14.052   0.147   4.214
36227W        W 2636  18.504  44.491  14.953
36228W        W 2637  10.770  37.824   3.664
36229W        W 2638   8.983  29.078   4.708
36230W        W 2639   1.873   7.570  12.043
36231W        W 2640  35.095  33.688   5.218
36232W        W 2641   2.202  34.838   1.647
36233W        W 2642  18.315  13.174   2.136
36234W        W 2643  13.216   3.811   0.561
36235W        W 2644   8.394  16.994  13.424
36236W        W 2645  42.819  37.044  12.092
36237W        W 2646  42.074  40.015   3.549
36238W        W 2647  27.625  29.539   2.805
36239W        W 2648  20.650  21.722   0.697
36240W        W 2649  30.741   4.644  10.597
36241W        W 2650   5.923  27.106   2.486
36242W        W 2651   3.513  31.956  11.709
36243W        W 2652  40.589  12.272  12.949
36244W        W 2653  37.050   4.003  13.406
36245W        W 2654  26.114  18.059   1.229
36246W        W 2655  11.861  17.288   0.357
36247W        W 2656  33.145  18.289   3.191
36248W        W 2657  44.396   4.839  12.883
36249W        W 2658   8.459  16.429  11.713
36250W        W 2659  37.339  11.791   1.437
36251W        W 2660  11.179  37.002  10.716
36252W        W 2661  33.070  23.333   2.264
36253W        W 2662  26.480  14.883   4.583
36254W        W 2663  17.809  33.455   2.238
36255W        W 2664  36.415  17.665  12.008
36256W        W 2665   1.550  33.405   1.346
36257W        W 2666  28.482  12.182   2.604
36258W        W 2667  39.813  20.642  12.784
36259W        W 2668  34.942  43.095   0.328
36260W        W 2669   6.326  15.065   0.831
36261W        W 2670  36.548  39.985   0.096
36262W        W 2671  42.017  37.391   0.101
36263W        W 2672  38.337  26.857  11.145
36264W        W 2673  28.822  33.477   2.697
36265W        W 2674   5.046  37.420   1.330
36266W        W 2675  33.275  19.829   4.591
36267W        W 2676  18.544  30.256   3.126
36268W        W 2677  17.551  29.192   2.308
36269W        W 2678  15.197   8.862   4.041
36270W        W 2679   8.731  16.133  10.639
36271W        W 2680  16.318  27.150  11.160
36272W        W 2681  43.472  42.317  14.424
36273W        W 2682  29.670  19.173  11.636
36274W        W 2683  41.052   6.092   2.274
36275W        W 2684  36.346  12.273   1.793
36276W        W 2685  10.377  16.971   4.103
36277W        W 2686  41.851   2.098   0.453
36278W        W 2687  18.738  29.902   1.069
36279W        W 2688   0.683  25.258   2.897
36280W        W 2689   2.228   7.889   3.077
36281W        W 2690  23.229  19.191   1.378
36282W        W 2691   9.313  22.203  14.385
36283W        W 2692  13.295   2.410   0.328
36284W        W 2693  41.286  36.702   2.710
36285W        W 2694  27.975   3.332  12.385
36286W        W 2695  22.021  37.102  10.779
36287W        W 2696  17.550  17.296  13.982
36288W        W 2697  12.123  12.256   3.591
36289W        W 2698  41.702  15.746  12.958
36290W        W 2699  42.403  30.967   3.920
36291W        W 2700  36.899  17.531  11.899
36292W        W 2701  42.199   1.369   2.525
36293W        W 2702  12.313  22.531  11.257
36294W        W 2703  27.130  37.587   1.687
36295W        W 2704   2.272  27.982   4.395
36296W        W 2705  32.137  13.750  11.742
36297W        W 2706   6.158  22.434   0.762
36298W        W 2707  11.075   3.175  14.023
36299W        W 2708  10.227   0.426   3.131
36300W        W 2709  42.490  11.090  13.900
36301W        W 2710  21.330  38.270   4.474
36302W        W 2711   6.730  18.807   2.105
36303W        W 2712  34.842  10.308   1.185
36304W        W 2713  28.596  26.182  12.516
36305W        W 2714  18.755  16.287  14.362
36306W        W 2715   9.826  24.003   2.172
36307W        W 2716  18.550  15.522   4.062
36308W        W 2717  22.960   2.411   0.254
36309W        W 2718  22.495  13.404  10.689
36310W        W 2719  12.081  16.828   2.655
36311W        W 2720  38.364  13.248   2.079
36312W        W 2721  39.604  25.270  12.669
36313W        W 2722  33.982  29.973   4.842
36314W        W 2723  14.171  34.800  10.781
36315W        W 2724  11.827  36.862   0.411
36316W        W 2725  18.367  44.731   2.288
36317W        W 2726  19.636   3.253  10.846
36318W        W 2727  36.522  16.756  11.560
36319W        W 2728   8.277   0.702   2.008
36320W        W 2729  38.310  12.546  11.887
36321W        W 2730   3.349   5.008   2.887
36322W        W 2731  41.806   5.304  10.561
36323W        W 2732  30.144   6.292   2.712
36324W        W 2733  29.996  38.118   3.254
36325W        W 2734  39.289  39.680  12.267
36326W        W 2735  14.622   0.897   1.952
36327W        W 2736   0.398  24.064   2.377
36328W        W 2737  38.520  26.651  10.652
36329W        W 2738   5.261  37.554   0.871
36330W        W 2739  37.992  20.836  13.001
36331W        W 2740  14.305  35.604  12.933
36332W        W 2741  40.730  25.204  10.581
36333W        W 2742   9.123  29.427  13.677
36334W        W 2743  21.933  40.056  13.133
36335W        W 2744   0.945   3.666  13.888
36336W        W 2745  41.643  31.107   1.426
36337W        W 2746  30.910  28.870   4.137
36338W        W 2747  28.022  33.915  11.946
36339W        W 2748  34.362  41.964  11.083
36340W        W 2749  25.358  33.708  11.820
36341W        W 2750  19.115  36.513  10.598
36342W        W 2751  28.182  40.399  12.929
36343W        W 2752   5.395  34.216   2.453
36344W        W 2753   0.810  18.635   0.069
36345W        W 2754   0.048   7.443  12.535
36346W        W 2755  30.668  23.072  10.876
36347W        W 2756  44.888  37.914   0.727
36348W        W 2757   2.917  12.794   0.057
36349W        W 2758   1.726  20.149  14.778
36350W        W 2759   4.234  23.936  13.382
36351W        W 2760  34.598  15.854   0.390
36352W        W 2761  20.767  40.328  12.465
36353W        W 2762  31.944  35.008   0.626
36354W        W 2763  21.580  22.247  14.129
36355W        W 2764  26.731  23.174  14.625
36356W        W 2765  15.142  40.535   1.498
36357W        W 2766  16.693  29.133  13.432
36358W        W 2767   1.894   5.483   4.360
36359W        W 2768  21.628   4.841  14.868
36360W        W 2769   6.321  38.962   4.488
36361W        W 2770   8.410  15.641  11.055
36362W        W 2771  27.964  25.718  10.978
36363W        W 2772  44.724  43.830  12.810
36364W        W 2773   7.280  13.423   0.493
36365W        W 2774  13.325   9.682   2.424
36366W        W 2775  23.548  34.485   4.870
36367W        W 2776  30.015  12.545   4.090
36368W        W 2777  39.597  28.621  14.763
36369W        W 2778  34.182  30.474   3.043
36370W        W 2779  37.518   1.029  13.700
36371W        W 2780  20.615  31.972   4.675
36372W        W 2781   2.881  16.754   2.795
36373W        W 2782  23.259  27.983   4.482
36374W        W 2783  22.943  21.250  12.690
36375W        W 2784  18.603  15.555  11.664
36376W        W 2785  42.211   3.855   2.610
36377W        W 2786  33.583  20.240   4.585
36378W        W 2787  29.185  30.380   1.546
36379W        W 2788  33.969  27.979  12.387
36380W        W 2789   1.042  15.849   4.081
36381W        W 2790  23.999  42.451  10.722
36382W        W 2791  15.685   3.295  14.416
36383W        W 2792  28.092  33.807  13.200
36384W        W 2793  36.711  11.636  12.548
36385W        W 2794  38.028  23.946  11.587
36386W        W 2795   5.353  12.275   4.558
36387W        W 2796  28.133  12.160   4.629
36388W        W 2797   7.425  28.636  11.103
36389W        W 2798   0.056  15.043  11.979
36390W        W 2799  30.385   8.842   3.338
36391W        W 2800  39.933  43.014   1.234
36392W        W 2801  10.122   9.337   2.711
36393W        W 2802   1.912  10.873   2.388
36394W        W 2803  38.017  10.832  11.531
36395W        W 2804  18.223  44.446   4.143
36396W        W 2805  35.042  11.074  11.508
36397W        W 2806   7.945  23.397   3.337
36398W        W 2807   5.465  12.390   0.218
36399W        W 2808  20.271   4.174  13.493
36400W        W 2809  27.193  29.080  10.702
36401W        W 2810  17.544  12.157  13.470
36402W        W 2811   1.390  27.132   0.250
36403W        W 2812   0.340  20.483  12.529
36404W        W 2813  39.111  15.230   2.651
36405W        W 2814  13.795   7.926   4.121
36406W        W 2815  24.851   8.822   0.734
36407W        W 2816   6.844  32.504  12.217
36408W        W 2817  33.994  22.625   1.695
36409W        W 2818  21.766  40.837   1.647
36410W        W 2819  41.306  25.751   1.413
36411W        W 2820  31.894  18.700   5.409
36412W        W 2821  34.378  18.850   2.802
36413W        W 2822   2.030  26.459  13.405
36414W        W 2823  25.362  24.733   4.455
36415W        W 2824  41.428   3.256  12.056
36416W        W 2825  39.990   6.606  11.726
36417W        W 2826   6.151  31.651  14.354
36418W        W 2827  10.575   0.628   3.576
36419W        W 2828  37.911  17.296  13.466
36420W        W 2829  24.884   7.490   4.488
36421W        W 2830  44.133  17.713  12.093
36422W        W 2831  23.024  41.317  14.993
36423W        W 2832   7.281   9.840  13.266
36424W        W 2833   5.940  42.868   1.744
36425W        W 2834  42.046  10.235  12.060
36426W        W 2835  21.011  11.684  11.865
36427W        W 2836  12.592  13.142   1.073
36428W        W 2837  38.498  33.929  11.557
36429W        W 2838  14.597   4.707   3.328
36430W        W 2839   8.780   7.586  14.242
36431W        W 2840  21.252  20.506  11.232
36432W        W 2841  13.009  30.422   3.820
36433W        W 2842   5.470  41.335   0.253
36434W        W 2843  21.646   0.648  12.939
36435W        W 2844  37.332  29.384   0.242
36436W        W 2845  42.451  35.322  10.764
36437W        W 2846   0.508  42.320  12.651
36438W        W 2847  26.248  35.835  13.478
36439W        W 2848  26.125  25.136  12.615
36440W        W 2849  35.950  11.513  13.897
36441W        W 2850  15.636  39.306   1.718
36442W        W 2851  40.486  34.691   2.830
36443W        W 2852  24.957  16.634  12.568
36444W        W 2853  12.864  39.325   3.246
36445W        W 2854   7.493   4.348   0.963
36446W        W 2855   3.423   7.211   0.762
36447W        W 2856  29.666   4.287   2.343
36448W        W 2857   5.247  29.950   2.855
36449W        W 2858  44.994   1.485  13.538
36450W        W 2859  14.212  16.312  11.395
36451W        W 2860  40.458  19.473   4.691
36452W        W 2861  25.789  24.106  14.406
36453W        W 2862  16.458  30.690  11.552
36454W        W 2863   4.154  24.587   2.627
36455W        W 2864   6.603  18.726  11.204
36456W        W 2865  30.418  36.002   0.409
36457W        W 2866  23.646  36.209   1.199
36458W        W 2867  10.711  11.256   2.935
36459W        W 2868  44.733  24.556   1.945
36460W        W 2869  42.924  35.056  13.886
36461W        W 2870   8.724  25.963   3.632
36462W        W 2871  30.231  27.155  14.086
36463W        W 2872  25.757  35.466   2.540
36464W        W 2873   7.365  36.069   4.183
36465W        W 2874  21.596  15.792  12.793
36466W        W 2875  25.212  28.099   4.982
36467W        W 2876  29.016   2.750   1.245
36468W        W 2877  27.954  21.769   1.433
36469W        W 2878  33.493  19.776  11.197
36470W        W 2879  25.440  32.550  14.295
36471W        W 2880  15.226  30.219   1.723
36472W        W 2881  20.065  41.873  14.306
36473W        W 2882   4.278   7.595  14.431
36474W        W 2883  34.272  16.091   0.778
36475W        W 2884  30.459   8.272   0.249
36476W        W 2885  31.479  14.390  10.681
36477W        W 2886  14.991  42.478   4.157
36478W        W 2887  24.982  18.190   0.549
36479W        W 2888   0.603   9.311  11.691
36480W        W 2889  33.400  25.562   2.176
36481W        W 2890  40.912  41.306   3.722
36482W        W 2891   7.574   0.038   2.767
36483W        W 2892  18.522  38.863   5.022
36484W        W 2893  27.466  38.475  12.909
36485W        W 2894  24.223   7.150   2.446
36486W        W 2895  22.971  32.035  10.897
36487W        W 2896   6.344   6.335  11.583
36488W        W 2897   3.904   1.489   3.188
36489W        W 2898   6.351  44.134   1.399
36490W        W 2899  38.392  20.987   1.445
36491W        W 2900  16.598  34.565   1.797
36492W        W 2901  43.126  19.735  13.910
36493W        W 2902  27.617   9.628   1.967
36494W        W 2903  42.285  10.190  12.958
36495W        W 2904  35.218   5.587   4.084
36496W        W 2905  24.710  27.049  14.728
36497W        W 2906  25.374   7.467   4.128
36498W        W 2907  21.878   6.193   3.929
36499W        W 2908  11.676  27.467  13.870
36500W        W 2909  13.851   2.430  12.968
36501W        W 2910  36.000  44.104   4.158
36502W        W 2911  12.235   2.055   2.366
36503W        W 2912  41.597   4.144   0.869
36504W        W 2913  18.351  35.879  13.094
36505W        W 2914  35.891  18.267  11.708
36506W        W 2915  24.317  12.210   0.903
36507W        W 2916  38.762  32.803  12.084
36508W        W 2917  32.264   5.839   5.036
36509W        W 2918   0.452  20.064  10.475
36510W        W 2919   1.036  24.735   4.384
36511W        W 2920   8.862  39.018   1.255
36512W        W 2921  31.122  36.808  14.011
36513W        W 2922  39.809  15.466  14.089
36514W        W 2923   0.673   8.354   0.267
36515W        W 2924  40.483  31.612   3.864
36516W        W 2925  43.264  41.185  11.064
36517W        W 2926  42.826  19.612  11.736
36518W        W 2927  17.713  17.597  11.131
36519W        W 2928  40.353  22.281   1.403
36520W        W 2929  38.175  34.284   9.867
36521W        W 2930   1.243  34.314   0.778
36522W        W 2931  21.437  40.367   2.484
36523W        W 2932  43.535   9.822   1.798
36524W        W 2933  17.928  24.826  11.206
36525W        W 2934  31.403  17.591   2.706
36526W        W 2935  44.820  40.501  14.191
36527W        W 2936  25.224  22.083  10.793
36528W        W 2937  38.952  32.470  13.295
36529W        W 2938   4.409  43.368  12.919
36530W        W 2939   1.347  32.297   0.735
36531W        W 2940   7.567  41.356  10.748
36532W        W 2941  28.516  26.443  12.070
36533W        W 2942  35.426  27.507  13.885
36534W        W 2943   7.418  35.032  14.700
36535W        W 2944   1.751  41.394  11.585
36536W        W 2945  15.268  18.860  14.423
36537W        W 2946  25.103  10.897  12.902
36538W        W 2947   9.375  21.151  12.086
36539W        W 2948   1.749  36.579   1.423
36540W        W 2949   5.540  20.060  13.779
36541W        W 2950   8.375  24.058  14.919
36542W        W 2951  23.606  23.052   1.284
36543W        W 2952  20.051  12.669  12.030
36544W        W 2953   4.949   3.266   1.989
36545W        W 2954  29.405  26.049   0.228
36546W        W 2955   2.979   3.864   3.780
36547W        W 2956  27.966  41.763   0.212
36548W        W 2957   7.169  43.705  14.325
36549W        W 2958   2.987  31.930   0.382
36550W        W 2959  20.256  41.678   3.380
36551W        W 2960   9.248   1.703   4.258
36552W        W 2961   3.625  22.494   1.921
36553W        W 2962  36.212   6.696  13.448
36554W        W 2963  32.497  12.743  13.876
36555W        W 2964  27.849  40.083  14.887
36556W        W 2965  38.433   0.753   0.188
36557W        W 2966  33.183  36.391  13.430
36558W        W 2967  42.582  16.363   1.990
36559W        W 2968   3.693  29.023  14.496
36560W        W 2969  15.843  40.470  13.330
36561W        W 2970  29.211  39.855   0.434
36562W        W 2971   5.794   0.457   2.375
36563W        W 2972   5.375   4.480  12.075
36564W        W 2973  21.571  37.096   0.226
36565W        W 2974   6.749  17.028  11.434
36566W        W 2975   5.979  26.797  11.148
36567W        W 2976  30.406   6.727  13.346
36568W        W 2977  27.618   4.009  10.849
36569W        W 2978   2.377  21.468   4.611
36570W        W 2979   5.792  28.993  14.703
36571W        W 2980   5.591  38.652  14.909
36572W        W 2981   8.977  24.166   2.673
36573W        W 2982  34.940  19.317   4.231
36574W        W 2983  22.512  24.515   0.963
36575W        W 2984  14.593  15.296   1.363
36576W        W 2985  44.195  37.956  12.948
36577W        W 2986   7.809   3.305  12.404
36578W        W 2987  41.994  36.356   0.268
36579W        W 2988  23.486  27.861  12.832
36580W        W 2989  19.627  25.407   4.169
36581W        W 2990  11.662  42.647   3.280
36582W        W 2991  20.377  41.276   0.839
36583W        W 2992  24.644  41.616   4.803
36584W        W 2993  11.764   2.383  10.386
36585W        W 2994   0.634  15.205   3.359
36586W        W 2995   6.848  12.705  12.735
36587W        W 2996  23.908  28.106   3.213
36588W        W 2997  19.592  35.592   0.131
36589W        W 2998  19.225   7.977   2.157
36590W        W 2999  15.842   8.481  11.937
36591W        W 3000  38.408  37.493   3.673
36592W        W 3001  23.023  42.359  12.771
36593W        W 3002  14.197  13.784   2.920
36594W        W 3003  42.355  15.088   2.310
36595W        W 3004  20.803   6.589  12.429
36596W        W 3005   4.006  20.184   1.919
36597W        W 3006  31.411  10.902  11.377
36598W        W 3007  19.227   5.131  14.640
36599W        W 3008  27.255  29.833   1.298
36600W        W 3009  26.580  21.100  12.314
36601W        W 3010  25.565  28.808   2.529
36602W        W 3011   7.439  31.112   4.029
36603W        W 3012   8.173  38.813  11.581
36604W        W 3013  25.819  19.706  11.099
36605W        W 3014  25.242  40.183  12.949
36606W        W 3015  44.349  22.056   1.726
36607W        W 3016   7.981  42.798  13.828
36608W        W 3017   9.578  40.430  12.852
36609W        W 3018   4.425   6.972  12.966
36610W        W 3019   1.176  26.083   4.248
36611W        W 3020  33.541  13.282  12.564
36612W        W 3021  28.613  15.277  10.658
36613W        W 3022  21.440  33.868  11.962
36614W        W 3023  18.380  25.950   1.935
36615W        W 3024   7.252  37.543  13.581
36616W        W 3025  10.434   9.887   4.043
36617W        W 3026  42.211  22.705   5.087
36618W        W 3027  11.384  44.089  11.548
36619W        W 3028   3.025   5.618  11.132
36620W        W 3029   0.740  44.465   1.313
36621W        W 3030  28.348  39.465  11.453
36622W        W 3031  34.972   1.115  14.907
36623W        W 3032  16.729  38.496  10.365
36624W        W 3033  38.413  30.431  11.369
36625W        W 3034  21.709  16.361   0.302
36626W        W 3035  26.638  11.147  13.070
36627W        W 3036  22.524  35.626   0.960
36628W        W 3037  13.895  14.790  10.745
36629W        W 3038  14.392   2.849   2.177
36630W        W 3039  32.663  44.453   4.875
36631W        W 3040  23.154   9.214   1.329
36632W        W 3041   8.812  42.399   0.811
36633W        W 3042   0.868  33.457   2.437
36634W        W 3043  30.452   2.582   2.249
36635W        W 3044  12.318   6.257   0.873
36636W        W 3045  30.724  32.253   4.374
36637W        W 3046   3.392  15.772   0.761
36638W        W 3047  17.580  43.234  10.598
36639W        W 3048  10.199  17.697  12.388
36640W        W 3049  33.298  41.016   3.783
36641W        W 3050  21.572   2.871   1.669
36642W        W 3051  23.443  14.528   2.362
36643W        W 3052  28.263   1.967  11.555
36644W        W 3053  29.473   0.203   0.035
36645W        W 3054   8.893  41.842   0.416
36646W        W 3055  14.213  21.265  11.650
36647W        W 3056  16.700   1.051   4.875
36648W        W 3057  35.547  21.741  12.581
36649W        W 3058   3.717  32.485   4.851
36650W        W 3059  30.370  38.435  14.883
36651W        W 3060  10.126  10.538   4.742
36652W        W 3061   8.031  41.835  14.002
36653W        W 3062   8.108  22.538  14.530
36654W        W 3063  17.555  42.986   3.356
36655W        W 3064   2.227  26.712  12.972
36656W        W 3065  22.704  41.912   1.740
36657W        W 3066  25.348  43.200   2.681
36658W        W 3067  12.159  39.193   4.657
36659W        W 3068   3.292   8.714  12.614
36660W        W 3069   3.017  33.810  10.819
36661W        W 3070  35.546  40.819   2.879
36662W        W 3071   1.459  40.534   0.349
36663W        W 3072  28.263  28.613   2.395
36664W        W 3073  14.368  28.618  13.416
36665W        W 3074  14.392  11.264  11.637
36666W        W 3075  44.348   0.664  12.131
36667W        W 3076  21.008  40.035   0.712
36668W        W 3077  16.460  12.607   3.228
36669W        W 3078  44.540  20.806   0.286
36670W        W 3079  24.225   6.014   0.013
36671W        W 3080  44.758  26.986   4.656
36672W        W 3081  40.785  10.944  12.101
36673W        W 3082  31.277   9.730  14.193
36674W        W 3083  12.264  43.669   4.038
36675W        W 3084   1.897  36.434   0.486
36676W        W 3085  20.123  28.265   4.112
36677W        W 3086  34.573  39.479  13.381
36678W        W 3087  43.349   0.710  10.995
36679W        W 3088  28.156  24.989  13.411
36680W        W 3089  25.101  39.225  12.141
36681W        W 3090   2.319   0.429  11.565
36682W        W 3091  16.739   2.324  12.455
36683W        W 3092  15.650  28.466  14.753
36684W        W 3093  10.918   5.444   3.910
36685W        W 3094  19.567  18.535   0.314
36686W        W 3095  19.088  10.822  14.054
36687W        W 3096  21.486  37.341  11.973
36688W        W 3097  19.218  35.902  14.892
36689W        W 3098  24.204  32.818   1.679
36690W        W 3099  22.443  40.481   0.545
36691W        W 3100  25.052  44.017   0.884
36692W        W 3101  35.624  26.644   0.731
36693W        W 3102  10.443  17.731  13.965
36694W        W 3103  20.222  23.662  13.081
36695W        W 3104  43.694  16.162  11.471
36696W        W 3105  42.512  41.345  14.217
36697W        W 3106   3.366  42.502   4.600
36698W        W 3107  38.888  27.489  12.670
36699W        W 3108  38.432  20.522  13.084
36700W        W 3109   6.362   6.646   9.505
36701W        W 3110  37.504  39.003  13.754
36702W        W 3111  41.792  34.430  10.847
36703W        W 3112  29.680  16.901  13.850
36704W        W 3113   6.518  11.113  11.738
36705W        W 3114  12.266  29.026  12.487
36706W        W 3115  29.984  26.005   1.463
36707W        W 3116  22.977  12.842  12.001
36708W        W 3117  37.882  42.546   3.047
36709W        W 3118  21.175  37.491  14.146
36710W        W 3119  37.973  11.237   4.188
36711W        W 3120  36.803  37.391   0.246
36712W        W 3121  10.356  23.534  12.451
36713W        W 3122  14.007  36.029  12.840
36714W        W 3123   9.881   3.303  13.415
36715W        W 3124  32.034   1.494  11.531
36716W        W 3125  13.021   1.266   1.439
36717W        W 3126  23.616   7.962   3.360
36718W        W 3127   2.064   5.152   2.053
36719W        W 3128   8.147   9.808   1.924
36720W        W 3129  35.777  20.129  13.815
36721W        W 3130  44.805  41.183   2.351
36722W        W 3131  33.629   5.295   2.442
36723W        W 3132  15.216   5.668   2.265
36724W        W 3133  12.588  37.389   5.563
36725W        W 3134  12.399  35.491   3.648
36726W        W 3135  13.529  26.121   1.413
36727W        W 3136  19.591  44.197   0.943
36728W        W 3137   4.013  27.530  11.257
36729W        W 3138  28.384  11.686   4.210
36730W        W 3139  36.156  14.810   1.897
36731W        W 3140  17.432  28.235   0.926
36732W        W 3141   1.939   6.233   1.767
36733W        W 3142  36.551  11.769   1.953
36734W        W 3143  12.452   0.407  12.950
36735W        W 3144  44.448   1.996  11.637
36736W        W 3145  42.945   8.170   3.730
36737W        W 3146  36.034   7.348   4.570
36738W        W 3147  36.339  39.508   0.176
36739W        W 3148  40.854  19.111  14.828
36740W        W 3149  43.829  29.138   3.974
36741W        W 3150  44.086  20.777   0.539
36742W        W 3151  39.794  23.887  11.300
36743W        W 3152  22.116  29.803  13.679
36744W        W 3153   3.491  14.755  10.580
36745W        W 3154  16.716  15.430   2.090
36746W        W 3155  18.057  26.262  13.300
36747W        W 3156  21.456  13.798  10.902
36748W        W 3157  36.500  30.330   1.379
36749W        W 3158   3.745   5.712   3.732
36750W        W 3159  17.306  43.710  11.465
36751W        W 3160  37.964  17.005   2.961
36752W        W 3161  43.002  25.806   2.096
36753W        W 3162  20.799   8.318   0.795
36754W        W 3163  15.163  23.696  12.884
36755W        W 3164  34.554  10.687  10.689
36756W        W 3165   6.995  23.945   0.778
36757W        W 3166  28.902  31.218  13.434
36758W        W 3167  16.528  36.442   3.290
36759W        W 3168   5.715   7.881   1.832
36760W        W 3169  34.532  38.516   2.819
36761W        W 3170   5.341   1.715  11.048
36762W        W 3171  30.247  27.445  14.862
36763W        W 3172   5.745  13.840  14.420
36764W        W 3173  12.120  37.794  12.587
36765W        W 3174  33.976   5.827  12.583
36766W        W 3175  35.844  44.447   4.544
36767W        W 3176  11.881  10.679  11.795
36768W        W 3177  42.813  31.618  14.430
36769W        W 3178  42.881  44.365   1.854
36770W        W 3179   1.375  24.491  12.165
36771W        W 3180  44.184   3.090   2.773
36772W        W 3181  37.000  23.505   3.139
36773W        W 3182  14.873  41.973  12.308
36774W        W 3183   6.279  32.174  13.300
36775W        W 3184   6.189  39.929   4.936
36776W        W 3185   1.988  37.659  12.402
36777W        W 3186  24.169   7.791   3.163
36778W        W 3187  43.899  32.865  12.472
36779W        W 3188  13.987  32.744  12.033
36780W        W 3189   8.935   0.333  12.539
36781W        W 3190  19.532  21.363  12.677
36782W        W 3191  44.996  44.914   2.196
36783W        W 3192  42.648  31.068   1.270
36784W        W 3193  29.620  26.696   3.713
36785W        W 3194   3.425  26.317   3.150
36786W        W 3195  36.754  28.518  12.597
36787W        W 3196   5.607  32.593  14.959
36788W        W 3197   2.023   6.260  14.905
36789W        W 3198  22.288  14.267   3.190
36790W        W 3199  13.808   5.358   4.070
36791W        W 3200  42.082  33.106  14.958
36792W        W 3201  42.796  41.052   1.282
36793W        W 3202  33.155   7.345  10.517
36794W        W 3203  31.590  21.038   4.610
36795W        W 3204  22.172  44.669  14.801
36796W        W 3205  15.915   6.024  13.924
36797W        W 3206   3.395  26.243   0.354
36798W        W 3207  23.251  24.740   3.592
36799W        W 3208  24.828  17.109   3.724
36800W        W 3209   5.612  39.400   3.241
36801W        W 3210   6.651  11.760   4.641
36802W        W 3211   9.428  19.514   3.701
36803W        W 3212  20.121  22.681   2.132
36804W        W 3213  31.551  38.403  10.622
36805W        W 3214   3.305  12.686   3.802
36806W        W 3215  43.834  30.008   5.053
36807W        W 3216  16.029   7.316   2.339
36808W        W 3217  25.450  10.753   3.622
36809W        W 3218  10.690  32.013   3.651
36810W        W 3219  39.545  41.828  11.128
36811W        W 3220  26.254  30.638   3.766
36812W        W 3221  40.750  42.175   3.336
36813W        W 3222  17.728  29.699  14.989
36814W        W 3223   6.913   0.312   3.299
36815W        W 3224  40.428  36.986  12.642
36816W        W 3225  40.911  30.469  14.358
36817W        W 3226  16.723  11.799  11.256
36818W        W 3227  33.392  37.139   0.474
36819W        W 3228  34.519   7.114   0.416
36820W        W 3229  17.664   0.977  13.558
36821W        W 3230  44.876  23.884  13.638
36822W        W 3231  33.003  42.666  11.897
36823W        W 3232  15.413   8.863  14.540
36824W        W 3233  14.278   4.930  14.412
36825W        W 3234  22.588  24.565  11.642
36826W        W 3235  36.641  29.637  10.309
36827W        W 3236   2.530   6.345   3.725
36828W        W 3237  12.360  44.847   0.414
36829W        W 3238  35.743  15.423   0.787
36830W        W 3239   3.683   0.928   0.777
36831W        W 3240   4.771  22.043   0.530
36832W        W 3241  16.741  36.532   3.749
36833W        W 3242  28.741   3.734   3.653
36834W        W 3243  43.393  40.979   2.932
36835W        W 3244  42.927  26.513   4.213
36836W        W 3245  20.049  41.261  14.925
36837W        W 3246  29.089  23.064  12.368
36838W        W 3247  28.613  14.616   0.328
36839W        W 3248  25.792  27.128  13.360
36840W        W 3249  24.533  35.447  10.712
36841W        W 3250  10.160  30.487  12.127
36842W        W 3251  12.513  23.591   3.621
36843W        W 3252  24.952   1.053  13.916
36844W        W 3253  32.294  32.843  14.013
36845W        W 3254  38.622  14.370  10.206
36846W        W 3255   2.163  16.704   0.867
36847W        W 3256  27.474   7.715   3.148
36848W        W 3257  26.676  32.489   3.349
36849W        W 3258  19.801  16.289  11.814
36850W        W 3259  37.378  23.644  13.388
36851W        W 3260  34.460  35.136  12.892
36852W        W 3261  39.143   1.702  14.911
36853W        W 3262  35.300   9.814  13.904
36854W        W 3263  24.546  36.739   2.478
36855W        W 3264  43.319  35.069  14.937
36856W        W 3265  42.404   7.488  14.365
36857W        W 3266   8.454   6.893   2.140
36858W        W 3267   8.939  41.819   3.844
36859W        W 3268  33.741  16.865   4.669
36860W        W 3269  32.810  10.198   2.338
36861W        W 3270  26.291  41.364   2.752
36862W        W 3271  29.953  24.184  11.585
36863W        W 3272  25.292  13.745   4.397
36864W        W 3273  27.102  39.353   3.914
36865W        W 3274  29.031  23.387  13.127
36866W        W 3275  12.840  23.499   2.247
36867W        W 3276   5.379  29.111  14.988
36868W        W 3277  41.052  37.926  14.850
36869W        W 3278   4.926  24.220   0.626
36870W        W 3279   8.813  38.833   2.725
36871W        W 3280  13.134   6.717   4.091
36872W        W 3281   9.430  25.918   5.036
36873W        W 3282  30.949  41.913   2.959
36874W        W 3283  21.458  43.767  14.433
36875W        W 3284  21.925  20.783   0.874
36876W        W 3285  27.012  19.298  12.438
36877W        W 3286  36.683  38.038   2.437
36878W        W 3287  18.965  43.468  11.733
36879W        W 3288  19.256   4.818  13.854
36880W        W 3289  39.550  10.189  14.028
36881W        W 3290  14.598  35.580  11.216
36882W        W 3291   0.108  38.359  10.473
36883W        W 3292   5.442  12.295  14.307
36884W        W 3293  38.175  17.780   1.197
36885W        W 3294  19.627  19.265   4.366
36886W        W 3295  38.793  28.906   0.543
36887W        W 3296  39.980   9.237   2.227
36888W        W 3297  41.231  40.469   1.675
36889W        W 3298  36.850  35.547   4.749
36890W        W 3299  17.048   1.354  14.334
36891W        W 3300   7.374  19.575  13.555
36892W        W 3301  13.826  43.273  13.116
36893W        W 3302  31.058  42.257   4.905
36894W        W 3303  19.819  23.194   0.695
36895W        W 3304   2.483  20.789   0.014
36896W        W 3305  24.178  20.608  10.933
36897W        W 3306   6.129   5.273  10.057
36898W        W 3307   8.766  29.734  13.397
36899W        W 3308  30.961  16.169   4.968
36900W        W 3309  24.577  22.315  13.460
36901W        W 3310  32.988   0.848   3.435
36902W        W 3311  23.350   6.715  12.540
36903W        W 3312   9.644  36.804  13.964
36904W        W 3313   1.485  31.658  10.434
36905W        W 3314  13.765  28.889   3.683
36906W        W 3315  39.253  35.900   2.865
36907W        W 3316   7.803  21.180  12.621
36908W        W 3317  10.933  28.765   2.292
36909W        W 3318  44.294   3.040   3.396
36910W        W 3319  23.005  21.823  12.490
36911W        W 3320  33.840  13.578   1.554
36912W        W 3321   0.191  35.928   4.592
36913W        W 3322  12.964  16.093  12.699
36914W        W 3323  30.645  41.578   2.265
36915W        W 3324  14.956  26.104   2.282
36916W        W 3325  10.564  38.014   1.859
36917W        W 3326  35.184  14.690  12.185
36918W        W 3327   1.811  18.602   3.660
36919W        W 3328   6.363  19.575  11.646
36920W        W 3329  24.153  20.454  14.307
36921W        W 3330  27.625  22.172   3.808
36922W        W 3331  21.208   6.821  13.654
36923W        W 3332   2.477  35.143  12.415
36924W        W 3333   6.206  42.425   1.710
36925W        W 3334  42.729  10.237   3.444
36926W        W 3335  30.137  26.534  11.520
36927W        W 3336  22.579   5.381  11.733
36928W        W 3337  10.368   6.592   2.248
36929W        W 3338  18.745  18.857   3.166
36930W        W 3339  28.615  34.173   2.298
36931W        W 3340  16.981  20.489   9.904
36932W        W 3341  20.284  20.623   1.297
36933W        W 3342  16.323  39.803  10.862
36934W        W 3343   7.002  37.443  14.103
36935W        W 3344  20.411  25.506   1.580
36936W        W 3345  40.059  24.432   1.744
36937W        W 3346  10.851  10.876  10.611
36938W        W 3347   7.754  14.504   3.815
36939W        W 3348  25.702  11.704  11.462
36940W        W 3349  22.687  34.660   1.334
36941W        W 3350  21.272  11.795   0.346
36942W        W 3351  26.903  34.035  12.632
36943W        W 3352   9.834  27.928   2.317
36944W        W 3353  40.821  12.857  11.617
36945W        W 3354  31.570  37.399   2.479
36946W        W 3355  20.690  21.073   4.654
36947W        W 3356   9.318  41.420  13.086
36948W        W 3357  44.536  16.067  10.421
36949W        W 3358  14.334  36.323   1.178
36950W        W 3359  19.054  37.626  12.212
36951W        W 3360  40.115  26.366  13.478
36952W        W 3361   2.414   0.554   2.185
36953W        W 3362  29.773   8.886   5.556
36954W        W 3363   3.405  40.445  14.743
36955W        W 3364   2.966   4.867   3.759
36956W        W 3365   3.671  35.457  12.942
36957W        W 3366   3.450  29.169  11.874
36958W        W 3367  21.793  21.079  11.785
36959W        W 3368   8.877  41.265  12.449
36960W        W 3369  15.747   1.716  13.816
36961W        W 3370   4.216  37.182  11.114
36962W        W 3371  11.641  21.714   2.828
36963W        W 3372  41.507  20.921  12.303
36964W        W 3373  12.770   1.268  11.952
36965W        W 3374  13.626  31.081  12.776
36966W        W 3375  12.847  33.762   2.712
36967W        W 3376  40.136  12.518  12.943
36968W        W 3377  15.980  16.085  12.295
36969W        W 3378  20.267  42.786  10.927
36970W        W 3379  26.920  13.163  12.049
36971W        W 3380  11.239  13.202  11.046
36972W        W 3381  28.070  32.032  11.561
36973W        W 3382  37.441  29.848   0.469
36974W        W 3383  11.426  36.475  14.375
36975W        W 3384   6.978  38.085  13.610
36976W        W 3385  21.184  17.822  12.412
36977W        W 3386  16.608  37.301   0.821
36978W        W 3387  23.517  15.819   0.442
36979W        W 3388  10.321   0.325   0.807
36980W        W 3389  25.217  30.872   4.573
36981W        W 3390  21.131  27.773   2.150
36982W        W 3391  15.502  21.473   1.855
36983W        W 3392  34.562  42.003   0.342
36984W        W 3393  21.242   1.299   4.696
36985W        W 3394  30.807   9.159  12.900
36986W        W 3395   0.340  43.539   2.164
36987W        W 3396  17.344  15.499  10.444
36988W        W 3397  24.535  30.035   2.601
36989W        W 3398  13.931   8.810  13.176
36990W        W 3399  18.232  13.635  14.105
36991W        W 3400   0.034  39.593   3.779
36992W        W 3401  42.408  17.610   1.408
36993W        W 3402  23.000  34.446   0.062
36994W        W 3403  26.814   6.181  12.513
36995W        W 3404  34.327  29.479   2.736
36996W        W 3405  42.245   5.717   2.850
36997W        W 3406  34.117  33.585  14.326
36998W        W 3407  22.590  37.392   2.847
36999W        W 3408  23.439  21.114  12.422
37000W        W 3409   7.404   0.876   4.160
37001W        W 3410  28.256   6.869  12.599
37002W        W 3411  29.249  25.465  10.645
37003W        W 3412   2.540  26.942   3.493
37004W        W 3413  12.437  34.242   4.881
37005W        W 3414  40.860   7.919   2.706
37006W        W 3415  24.962   4.659  12.915
37007W        W 3416  14.555  41.841  10.058
37008W        W 3417  10.706  41.004  13.088
37009W        W 3418  33.150  39.346   3.225
37010W        W 3419  16.682  25.863   0.851
37011W        W 3420  43.544  21.757   2.301
37012W        W 3421  32.582  31.205  11.565
37013W        W 3422  15.100   0.938   4.092
37014W        W 3423  42.901   1.780   3.137
37015W        W 3424  30.203  27.050  11.542
37016W        W 3425  28.061  24.616  14.539
37017W        W 3426  28.426  14.908  10.973
37018W        W 3427  38.636  26.638   0.927
37019W        W 3428  42.953  23.465   1.409
37020W        W 3429  35.453   7.686   4.672
37021W        W 3430  16.801  30.458  14.359
37022W        W 3431  44.555  22.000  13.554
37023W        W 3432   7.270  17.411   1.207
37024W        W 3433  20.226   9.652  12.734
37025W        W 3434  28.343  36.488   0.960
37026W        W 3435   1.929  31.193  13.030
37027W        W 3436  25.582  10.538   0.749
37028W        W 3437  34.421  32.182  12.909
37029W        W 3438  43.416  10.974   5.378
37030W        W 3439   9.352  37.770  13.836
37031W        W 3440  10.233   2.245   3.020
37032W        W 3441  16.700  32.879  12.002
37033W        W 3442  41.902  40.076  11.945
37034W        W 3443  44.309   9.701   3.644
37035W        W 3444  11.031   3.951  10.211
37036W        W 3445  26.222   6.804   3.304
37037W        W 3446  36.537   5.840   0.456
37038W        W 3447   0.548  30.621   0.324
37039W        W 3448  44.999  14.295  14.465
37040W        W 3449  44.222  37.297   3.571
37041W        W 3450  42.327  44.829   1.026
37042W        W 3451  17.316  37.628   1.346
37043W        W 3452   8.436  42.939  14.991
37044W        W 3453  13.853  30.280   1.778
37045W        W 3454  13.856  17.218  10.682
37046W        W 3455  20.948  21.535   0.287
37047W        W 3456  37.340  27.525  12.035
37048W        W 3457   1.839   7.831  13.511
37049W        W 3458  25.652  15.833   4.160
37050W        W 3459  20.944  14.497  13.960
37051W        W 3460  21.666  23.682  10.415
37052W        W 3461  17.522  33.719   2.621
37053W        W 3462  30.078   4.867   4.307
37054W        W 3463  39.068  18.046   4.242
37055W        W 3464  28.415   4.146  14.016
37056W        W 3465  16.905  11.058  14.033
37057W        W 3466   1.270  10.705  12.913
37058W        W 3467  13.203  33.539   0.853
37059W        W 3468   2.125  30.432  12.648
37060W        W 3469  12.864  43.397  13.772
37061W        W 3470  41.383  43.740  12.622
37062W        W 3471  33.873   3.967   0.410
37063W        W 3472  18.199   9.673   0.749
37064W        W 3473   2.480  21.553   0.090
37065W        W 3474  33.594  21.143   4.539
37066W        W 3475  40.583  25.639  10.307
37067W        W 3476  28.995  24.727   0.898
37068W        W 3477   0.988  38.978  12.428
37069W        W 3478   8.920  44.341  13.929
37070W        W 3479  21.715  20.693  11.485
37071W        W 3480  42.980  13.335   0.746
37072W        W 3481  20.178  34.170  12.570
37073W        W 3482  28.391  36.295  12.881
37074W        W 3483   6.965  30.006  13.611
37075W        W 3484  11.908  30.961  14.263
37076W        W 3485  21.052  14.605  13.453
37077W        W 3486   3.731  25.510  13.284
37078W        W 3487   4.151  44.330   2.437
37079W        W 3488   5.028  22.039  10.422
37080W        W 3489   2.463  34.511  11.591
37081W        W 3490  42.465  14.692   4.896
37082W        W 3491  18.950   1.926   3.249
37083W        W 3492  41.785   2.204  11.984
37084W        W 3493  19.479  16.753   0.359
37085W        W 3494   0.913  21.259  11.577
37086W        W 3495  31.956  40.195   1.948
37087W        W 3496  34.959   3.954   1.284
37088W        W 3497  24.070  10.083  14.272
37089W        W 3498  26.644  11.117  10.599
37090W        W 3499  10.803  23.042  11.435
37091W        W 3500  38.528  16.775  13.684
37092W        W 3501  29.813  19.203  12.509
37093W        W 3502  27.035   6.917   0.735
37094W        W 3503  11.499  10.040   0.496
37095W        W 3504  30.486  26.920   1.909
37096W        W 3505  21.049   4.858   1.374
37097W        W 3506  11.274  26.105  13.537
37098W        W 3507   5.655  23.074   4.509
37099W        W 3508   6.444  34.881  11.290
37100W        W 3509  22.718  11.583  14.007
37101W        W 3510  25.112  17.704   4.591
37102W        W 3511   6.463   3.209  13.672
37103W        W 3512   4.938  27.522   1.125
37104W        W 3513  30.983  17.149   3.564
37105W        W 3514  35.293  17.248   4.592
37106W        W 3515  19.994   7.197  13.980
37107W        W 3516  19.056  28.569  12.263
37108W        W 3517  42.995  39.311  11.446
37109W        W 3518  12.157  40.523   2.059
37110W        W 3519  20.991   3.511  14.967
37111W        W 3520   6.439   2.395  11.021
37112W        W 3521  36.556  41.073   2.638
37113W        W 3522  25.742  35.331  14.832
37114W        W 3523   9.572   1.657  10.542
37115W        W 3524  21.568  37.560  12.424
37116W        W 3525  23.649  21.039   5.270
37117W        W 3526  32.994   0.425   5.713
37118W        W 3527  18.604  35.357   3.630
37119W        W 3528   7.927  38.483  10.798
37120W        W 3529   6.748   9.829  13.296
37121W        W 3530  15.231  30.394   2.663
37122W        W 3531  34.996  40.859  11.447
37123W        W 3532  43.745   7.413   5.015
37124W        W 3533   8.279  15.095   0.323
37125W        W 3534  12.955  10.483   4.598
37126W        W 3535  44.867  18.488  10.457
37127W        W 3536  41.770  26.652  12.131
37128W        W 3537   0.952  32.558   0.056
37129W        W 3538   5.147  23.959   9.833
37130W        W 3539   6.737  19.592   1.594
37131W        W 3540  17.590  37.508  13.565
37132W        W 3541   7.883  42.320  14.008
37133W        W 3542  18.072   5.338  13.057
37134W        W 3543  24.041  40.462  11.539
37135W        W 3544  28.962  16.224   3.183
37136W        W 3545  36.917  22.173  13.632
37137W        W 3546  15.191   8.283  13.942
37138W        W 3547  22.968  35.607   4.273
37139W        W 3548  22.396  43.534  12.757
37140W        W 3549   7.153   3.719   3.170
37141W        W 3550  22.630   5.843  10.481
37142W        W 3551  37.790  42.997   1.702
37143W        W 3552  39.120  37.611  11.492
37144W        W 3553  26.205  30.997   3.334
37145W        W 3554   1.925  44.321   2.003
37146W        W 3555   5.207  24.046   0.038
37147W        W 3556   3.834  42.359   3.081
37148W        W 3557  16.141  18.050   3.306
37149W        W 3558  27.897  12.351  14.945
37150W        W 3559  11.111  33.795  11.069
37151W        W 3560  40.029  35.838   1.982
37152W        W 3561  28.196  18.070  11.531
37153W        W 3562  15.632   8.809  13.172
37154W        W 3563  35.822  36.884  12.111
37155W        W 3564  10.606  14.192  12.839
37156W        W 3565  37.254  33.624   2.820
37157W        W 3566  28.566  18.655   0.414
37158W        W 3567  40.287  12.676  12.450
37159W        W 3568   0.035  26.550  10.630
37160W        W 3569  21.644  44.472  11.544
37161W        W 3570  40.964  14.714   2.128
37162W        W 3571  29.131   0.183   0.494
37163W        W 3572   1.528  44.882   3.423
37164W        W 3573  18.375  33.447  13.972
37165W        W 3574  39.537  43.717   0.128
37166W        W 3575  18.290   3.308  11.472
37167W        W 3576   0.949  29.433   4.928
37168W        W 3577  41.816  17.320  14.409
37169W        W 3578  26.534   3.394  13.524
37170W        W 3579  32.684   1.436   4.189
37171W        W 3580  33.033  31.951   3.234
37172W        W 3581   6.414   9.273   1.789
37173W        W 3582  20.965  33.969   4.570
37174W        W 3583  41.998  36.426   3.705
37175W        W 3584  14.420   5.588   2.141
37176W        W 3585  29.079   3.493   3.947
37177W        W 3586  40.791  27.351   1.822
37178W        W 3587   0.789  32.829  10.705
37179W        W 3588  30.124  12.178   1.147
37180W        W 3589  40.355   7.807  14.485
37181W        W 3590   2.759  36.987  12.151
37182W        W 3591  10.607   6.929   1.872
37183W        W 3592  25.837   3.703  13.493
37184W        W 3593  37.413  36.108  10.493
37185W        W 3594   0.403  20.106   4.108
37186W        W 3595  31.961  14.084   2.466
37187W        W 3596  10.326  28.194   4.492
37188W        W 3597  34.921  10.453   4.614
37189W        W 3598  20.951  35.847  11.980
37190W        W 3599  40.478  34.957   4.603
37191W        W 3600  38.943  25.458  10.700
37192W        W 3601  14.545  20.810  14.826
37193W        W 3602  27.127  21.040   4.548
37194W        W 3603  28.665  28.042  14.554
37195W        W 3604   1.552  13.900  14.593
37196W        W 3605  18.575  27.959  10.766
37197W        W 3606  26.350  21.214   1.053
37198W        W 3607  15.923  16.112   0.846
37199W        W 3608  39.397   9.665   3.382
37200W        W 3609  41.325   6.808  13.480
37201W        W 3610  11.198  43.995   3.149
37202W        W 3611  13.671  22.202   0.434
37203W        W 3612  39.556   2.915  10.716
37204W        W 3613  10.204  28.899   3.271
37205W        W 3614  39.521   0.039   0.955
37206W        W 3615  23.176  38.855   0.451
37207W        W 3616  43.429  41.309   3.644
37208W        W 3617  29.912  21.131   4.525
37209W        W 3618  41.769  19.238  11.416
37210W        W 3619  44.408  38.039   4.995
37211W        W 3620  10.037  14.495   3.634
37212W        W 3621  14.365   2.406  12.867
37213W        W 3622  18.108  30.035   2.485
37214W        W 3623  44.692  39.590  12.122
37215W        W 3624  27.613   1.532  14.736
37216W        W 3625   6.619  42.409   3.785
37217W        W 3626  10.109   8.880  10.315
37218W        W 3627  12.987  30.226  12.006
37219W        W 3628  20.099  33.265   0.772
37220W        W 3629  21.800   3.397  11.516
37221W        W 3630  39.700  30.677   0.826
37222W        W 3631  26.482   4.425   1.781
37223W        W 3632   8.959  31.970  13.837
37224W        W 3633  32.292  27.993   3.735
37225W        W 3634  31.570  35.880   2.290
37226W        W 3635  32.546  13.369   2.738
37227W        W 3636  15.600  34.479   1.849
37228W        W 3637  33.387  34.735  11.218
37229W        W 3638  19.308   4.202  11.054
37230W        W 3639   3.388  18.380  12.959
37231W        W 3640  40.233  31.493   1.406
37232W        W 3641  14.764  36.925  13.595
37233W        W 3642   8.156  41.236   0.628
37234W        W 3643  29.033  13.244   1.308
37235W        W 3644   2.805  40.979   0.445
37236W        W 3645  27.411  19.555  11.478
37237W        W 3646  35.011  23.202   3.625
37238W        W 3647  37.344   7.807  11.668
37239W        W 3648  41.055   7.424   0.010
37240W        W 3649  22.234  32.948   2.578
37241W        W 3650   1.740  22.175   4.899
37242W        W 3651  21.562  16.128   4.518
37243W        W 3652   5.642   8.217   1.001
37244W        W 3653   8.397  29.118   1.713
37245W        W 3654  35.961  37.588  13.177
37246W        W 3655   6.039  15.139  13.841
37247W        W 3656  21.557   3.833  13.520
37248W        W 3657   6.183  14.570   0.874
37249W        W 3658  39.862  25.360  11.134
37250W        W 3659  32.606  21.361   2.301
37251W        W 3660  29.348  12.317   0.270
37252W        W 3661  35.094  37.700  13.536
37253W        W 3662  21.524  32.083  12.979
37254W        W 3663   4.267  42.786  12.560
37255W        W 3664  19.950  10.955  11.581
37256W        W 3665  16.638  11.196  13.064
37257W        W 3666  42.416  13.861  13.499
37258W        W 3667   9.410  21.791   4.129
37259W        W 3668   5.872  36.041  11.511
37260W        W 3669   6.314  18.088  14.426
37261W        W 3670   4.285  17.718   0.241
37262W        W 3671  27.991  10.277  12.745
37263W        W 3672  17.838  40.525  14.178
37264W        W 3673  32.167  42.771   3.285
37265W        W 3674   5.972  26.011  14.756
37266W        W 3675  19.104  35.117   0.948
37267W        W 3676   5.813  38.470  14.455
37268W        W 3677  30.205  17.053   2.425
37269W        W 3678  22.190  32.901  14.391
37270W        W 3679   7.376   3.537   4.493
37271W        W 3680  10.693  12.216  11.551
37272W        W 3681  33.746  21.631  11.685
37273W        W 3682  25.772  28.322  10.198
37274W        W 3683  13.075   9.869  14.766
37275W        W 3684   6.839  34.119   0.325
37276W        W 3685  41.521   4.051  14.464
37277W        W 3686  41.864  38.846  12.521
37278W        W 3687  43.942  27.235   2.241
37279W        W 3688  34.577  39.258   0.666
37280W        W 3689  43.411  11.528   9.746
37281W        W 3690  36.373  36.090   2.736
37282W        W 3691  37.891  33.635  10.566
37283W        W 3692  39.492  27.615   1.705
37284W        W 3693  37.513  34.690  12.993
37285W        W 3694  11.408  39.408  14.258
37286W        W 3695   9.219  38.877  14.425
37287W        W 3696  23.486   3.370   4.296
37288W        W 3697   9.120  15.107  11.575
37289W        W 3698  17.662  28.515  14.043
37290W        W 3699  24.446   0.532  12.509
37291W        W 3700  29.679  29.846   2.294
37292W        W 3701  35.585   0.438   3.914
37293W        W 3702  25.020  38.242   0.775
37294W        W 3703   3.553  28.699   3.214
37295W        W 3704   3.474  33.684  13.466
37296W        W 3705  14.789   1.351  14.182
37297W        W 3706  34.329  12.717   2.804
37298W        W 3707  25.701   1.963  12.871
37299W        W 3708  36.332   2.314  10.541
37300W        W 3709  40.097  28.031  11.929
37301W        W 3710   8.721   8.402  13.986
37302W        W 3711  12.205   9.432   0.215
37303W        W 3712  30.006   3.105  12.427
37304W        W 3713   6.143  22.629  12.509
37305W        W 3714  23.861  35.288  11.217
37306W        W 3715  19.148   5.879  11.680
37307W        W 3716  12.628  41.851  10.690
37308W        W 3717  29.665  18.357  11.461
37309W        W 3718  36.312  39.919  12.440
37310W        W 3719  24.105  33.926  12.170
37311W        W 3720  16.686  17.740  13.903
37312W        W 3721  27.014  34.367   2.821
37313W        W 3722   8.352  30.430   4.641
37314W        W 3723  16.040  14.571  12.112
37315W        W 3724  37.980   6.228   1.367
37316W        W 3725   1.123  43.108  11.962
37317W        W 3726  35.368  20.371  11.083
37318W        W 3727  26.977  33.916   3.748
37319W        W 3728   9.969  30.050  11.249
37320W        W 3729  17.484  40.340   1.245
37321W        W 3730  14.859   8.511   3.375
37322W        W 3731  35.082  28.160  13.829
37323W        W 3732  10.610  35.913  14.064
37324W        W 3733  31.371  35.466  10.450
37325W        W 3734  17.661  39.542   2.287
37326W        W 3735  31.444  34.045   2.172
37327W        W 3736  18.479  28.016  10.266
37328W        W 3737   3.216   0.190  13.142
37329W        W 3738  13.035  38.382   3.219
37330W        W 3739   1.414   6.203   4.685
37331W        W 3740  39.504  27.672   0.665
37332W        W 3741  15.281   9.862   1.654
37333W        W 3742  13.438   5.913  10.271
37334W        W 3743  18.408  27.973  13.225
37335W        W 3744  29.708   4.689   4.030
37336W        W 3745  20.114  28.171  13.925
37337W        W 3746  23.618   3.609   4.735
37338W        W 3747  36.516   3.080  13.915
37339W        W 3748   1.245  32.045  12.079
37340W        W 3749  43.069  26.719   0.836
37341W        W 3750   7.744   5.220  12.967
37342W        W 3751   0.889  37.181  11.009
37343W        W 3752  31.557  15.356   0.862
37344W        W 3753   9.348   8.447  13.371
37345W        W 3754  21.002  20.126  10.986
37346W        W 3755   7.535   1.305   3.896
37347W        W 3756  36.238  15.590  14.923
37348W        W 3757  39.842  34.014   2.298
37349W        W 3758  12.036  43.611   4.499
37350W        W 3759  17.805  38.678   3.653
37351W        W 3760  42.446  44.857  13.108
37352W        W 3761   0.329  13.374  12.391
37353W        W 3762  13.343   5.467  11.996
37354W        W 3763  13.227  30.521  10.264
37355W        W 3764  26.137  34.902   4.254
37356W        W 3765  24.180  38.172  11.447
37357W        W 3766   5.620  25.181  13.324
37358W        W 3767   1.543  35.476  10.667
37359W        W 3768  10.145  39.843  12.569
37360W        W 3769  40.555  28.155   1.512
37361W        W 3770  35.630   3.106   0.591
37362W        W 3771   3.406  17.592  12.584
37363W        W 3772   8.884  21.273  11.949
37364W        W 3773  37.639  43.852  12.085
37365W        W 3774  44.719   0.815  13.001
37366W        W 3775  22.472  15.649  12.800
37367W        W 3776  44.498  35.871  11.256
37368W        W 3777   6.374   0.324  11.627
37369W        W 3778   9.217  43.280  13.475
37370W        W 3779  34.866   7.951  13.582
37371W        W 3780   0.314  39.913   4.687
37372W        W 3781  13.267   9.769   1.904
37373W        W 3782  12.558  19.328  11.425
37374W        W 3783  18.709   6.237   2.079
37375W        W 3784  38.085  37.906   3.735
37376W        W 3785   4.678  31.239   4.503
37377W        W 3786   9.115  41.254  14.006
37378W        W 3787  24.429  12.583  10.658
37379W        W 3788  26.452   1.228   4.710
37380W        W 3789  27.831  34.624  11.121
37381W        W 3790  13.531   9.604  14.804
37382W        W 3791   0.812  12.178   3.656
37383W        W 3792  36.816  38.328  10.727
37384W        W 3793  24.047  28.105   2.268
37385W        W 3794  29.792  41.463  14.821
37386W        W 3795  41.831  26.003  10.552
37387W        W 3796  29.354  32.187   0.323
37388W        W 3797  34.252  27.714   0.246
37389W        W 3798   7.879   1.505   0.963
37390W        W 3799  15.034   5.369  12.576
37391W        W 3800  12.692  40.377  11.060
37392W        W 3801  44.662  10.205  13.864
37393W        W 3802  16.574  20.136  10.671
37394W        W 3803  44.745  28.013  12.542
37395W        W 3804  32.011   5.770   2.238
37396W        W 3805  38.825  38.655   4.987
37397W        W 3806  40.818  36.448   2.653
37398W        W 3807  40.076  22.110  10.736
37399W        W 3808  41.931   2.852   4.981
37400W        W 3809   6.597  11.587   4.157
37401W        W 3810  39.074  20.806  13.307
37402W        W 3811  12.125  21.798   3.772
37403W        W 3812  15.758   6.717  14.079
37404W        W 3813  32.847  31.548  12.640
37405W        W 3814   3.424  14.369   2.882
37406W        W 3815  27.735  24.933  10.347
37407W        W 3816  23.204  22.338   1.806
37408W        W 3817   2.175  20.420  14.805
37409W        W 3818  30.216  11.654   1.826
37410W        W 3819  13.054  35.377   0.645
37411W        W 3820  12.115   1.221  14.288
37412W        W 3821   7.397   7.327  12.437
37413W        W 3822  13.137   5.265   1.508
37414W        W 3823  10.264  14.014   3.682
37415W        W 3824  34.833  29.521   4.556
37416W        W 3825   2.168  16.199   2.662
37417W        W 3826   3.729  31.632  10.949
37418W        W 3827  42.339  40.456   3.609
37419W        W 3828  15.606  25.492  12.507
37420W        W 3829   9.126  43.000   1.330
37421W        W 3830  24.863  40.442  13.851
37422W        W 3831  28.918  22.082  11.007
37423W        W 3832  30.521   5.644   3.227
37424W        W 3833  30.949  36.575  11.633
37425W        W 3834  13.387  38.048  11.974
37426W        W 3835   7.474  34.703   3.613
37427W        W 3836  23.726  31.447   3.620
37428W        W 3837   8.887  44.207   3.913
37429W        W 3838   4.802  44.082  13.153
37430W        W 3839  22.102  28.551   2.725
37431W        W 3840   5.366  32.536   4.565
37432W        W 3841  20.696  40.151  13.268
37433W        W 3842  32.021  23.170   4.827
37434W        W 3843  36.473  41.586  11.184
37435W        W 3844  26.828   8.757   0.930
37436W        W 3845  42.398  22.285   1.832
37437W        W 3846  18.510  21.603   0.308
37438W        W 3847  13.702  14.281  10.762
37439W        W 3848  33.304  21.046  13.307
37440W        W 3849  40.001  15.038   4.231
37441W        W 3850  33.131  44.991  12.346
37442W        W 3851  27.578  41.572   1.604
37443W        W 3852  17.846  11.343  12.584
37444W        W 3853  17.140   5.365  12.640
37445W        W 3854  23.020  27.587   4.776
37446W        W 3855   5.003  21.550  14.669
37447W        W 3856  19.206  39.869   3.344
37448W        W 3857  36.971   4.189   0.956
37449W        W 3858   8.902  11.213  14.813
37450W        W 3859  33.397  16.019   0.956
37451W        W 3860   3.707  12.412   3.142
37452W        W 3861  20.981  29.799  11.199
37453W        W 3862  22.697  40.708  12.043
37454W        W 3863  25.722   4.934   0.289
37455W        W 3864  39.341  17.130  14.543
37456W        W 3865  30.451   1.788   4.522
37457W        W 3866  23.703  30.837  10.949
37458W        W 3867  21.418  43.491   3.206
37459W        W 3868  27.272   9.374   1.644
37460W        W 3869  38.979  33.052   4.749
37461W        W 3870   7.310  21.262   1.832
37462W        W 3871   9.294  15.363  10.658
37463W        W 3872  19.773  14.325   3.644
37464W        W 3873  40.484  36.617  14.505
37465W        W 3874  27.209  13.024   2.058
37466W        W 3875  10.879  21.524   4.566
37467W        W 3876  17.814  33.327  14.873
37468W        W 3877  21.695  13.104  11.103
37469W        W 3878  39.996   6.498   0.202
37470W        W 3879  34.346   4.829  12.562
37471W        W 3880  13.195  37.490   9.758
37472W        W 3881   1.202  40.917  11.706
37473W        W 3882  20.314   0.430  12.829
37474W        W 3883  24.257   6.812  12.900
37475W        W 3884  35.458  31.431   2.523
37476W        W 3885  15.683  41.548   2.792
37477W        W 3886   9.654   7.816  12.775
37478W        W 3887  40.687   5.969  11.567
37479W        W 3888  37.314   3.301   3.583
37480W        W 3889  10.942  27.675   2.857
37481W        W 3890   1.258   7.376  11.427
37482W        W 3891   1.985  30.622  11.771
37483W        W 3892  11.840  10.503  10.641
37484W        W 3893   2.357  27.935  10.756
37485W        W 3894  22.196  24.983  13.974
37486W        W 3895  33.459  31.203   5.106
37487W        W 3896  16.425  15.134  11.134
37488W        W 3897   9.374  23.814   1.945
37489W        W 3898  41.405  31.063   1.889
37490W        W 3899  32.335  31.993  11.155
37491W        W 3900  11.774  28.552   0.286
37492W        W 3901  21.307  31.897  12.528
37493W        W 3902  41.265   4.699   3.327
37494W        W 3903  25.759  26.996   3.792
37495W        W 3904  36.322  15.370   3.266
37496W        W 3905  13.196  16.195   3.407
37497W        W 3906   8.677   6.793   2.617
37498W        W 3907  31.922  23.654   1.927
37499W        W 3908  12.126  24.320   0.406
37500W        W 3909  39.071   7.829   0.780
37501W        W 3910  31.083  31.144   1.274
37502W        W 3911  38.416  21.311  12.003
37503W        W 3912   6.653  28.861   2.937
37504W        W 3913  43.226   8.390  13.800
37505W        W 3914  10.454  39.807   2.287
37506W        W 3915  32.583  36.464   0.872
37507W        W 3916   0.909  20.130   2.902
37508W        W 3917   1.928  44.295   4.730
37509W        W 3918   8.626  34.479  13.380
37510W        W 3919  35.989  34.486  14.837
37511W        W 3920  36.842  28.438   2.128
37512W        W 3921  11.144  35.574  13.380
37513W        W 3922  11.971   4.879   4.461
37514W        W 3923  38.839  40.810   2.801
37515W        W 3924  14.992  41.062   1.445
37516W        W 3925   0.954   6.357  13.575
37517W        W 3926   7.302   1.043   0.270
37518W        W 3927   9.257   6.704   0.799
37519W        W 3928  27.988  12.739  14.597
37520W        W 3929  36.030  25.308   3.915
37521W        W 3930  26.148   7.528  14.358
37522W        W 3931  19.774   4.816  13.838
37523W        W 3932  25.052  24.631   2.787
37524W        W 3933  43.900  15.238   1.673
37525W        W 3934  43.014   0.910  13.462
37526W        W 3935   2.616   9.693   3.395
37527W        W 3936  44.272  41.054  12.551
37528W        W 3937  42.864  38.543  12.079
37529W        W 3938  36.020  22.919   0.059
37530W        W 3939  18.155  22.134   3.820
37531W        W 3940  18.293  11.093   0.970
37532W        W 3941  21.693  10.953   1.876
37533W        W 3942   2.032   5.033  13.466
37534W        W 3943  31.239   2.870   1.290
37535W        W 3944  19.797  16.743  14.898
37536W        W 3945  37.413   2.905  14.754
37537W        W 3946  25.235  23.071   2.226
37538W        W 3947  13.886  28.800   2.831
37539W        W 3948   9.838  34.488  11.227
37540W        W 3949  22.979  20.320   2.841
37541W        W 3950  16.563  15.649  12.981
37542W        W 3951   3.914  28.361   0.278
37543W        W 3952  42.891  24.255  14.398
37544W        W 3953  33.549  22.274  12.041
37545W        W 3954   8.751   4.369  12.844
37546W        W 3955  20.954  17.897  13.156
37547W        W 3956  44.701  31.004  14.285
37548W        W 3957  21.446  32.713  12.498
37549W        W 3958  21.890  37.441   3.460
37550W        W 3959  34.212  28.968  12.938
37551W        W 3960  23.814  13.025  11.988
37552W        W 3961  31.153  18.019   1.268
37553W        W 3962  13.741  24.039  13.746
37554W        W 3963  14.584  11.525  13.891
37555W        W 3964  32.681  25.788  11.359
37556W        W 3965  21.131  40.770  11.716
37557W        W 3966  16.480  41.394  12.875
37558W        W 3967  14.154  13.728  13.442
37559W        W 3968  27.960  24.741  10.776
37560W        W 3969  17.144  26.270  11.730
37561W        W 3970  11.110  13.416  12.385
37562W        W 3971  31.417  22.311  11.731
37563W        W 3972  40.349  16.029   2.139
37564W        W 3973  40.407  17.529   0.597
37565W        W 3974   7.088   1.856  12.051
37566W        W 3975   8.726  13.018   4.159
37567W        W 3976   1.755  20.298  14.168
37568W        W 3977  28.996  36.579   2.740
37569W        W 3978  25.972  35.945  12.061
37570W        W 3979   3.488   3.282   0.010
37571W        W 3980  34.488  21.789  14.473
37572W        W 3981   3.468  37.397   1.323
37573W        W 3982  21.319   3.351  14.577
37574W        W 3983  16.974  28.811   3.174
37575W        W 3984  31.360   1.278  11.157
37576W        W 3985  31.474  33.714  10.558
37577W        W 3986  37.434  14.295   2.881
37578W        W 3987   0.353  36.242   2.776
37579W        W 3988  41.429  16.260   0.760
37580W        W 3989   6.793   8.444  11.557
37581W        W 3990  16.286   9.581  12.569
37582W        W 3991  38.531  34.426  13.024
37583W        W 3992   0.917  29.574  13.780
37584W        W 3993  24.631  30.067  13.030
37585W        W 3994  22.228  10.353   2.414
37586W        W 3995  33.597   2.697   0.215
37587W        W 3996  10.635  11.794  13.888
37588W        W 3997  40.630  13.858   0.715
37589W        W 3998  15.226  16.609   2.566
37590W        W 3999  33.620  23.996  12.457
37591W        W 4000  44.304  42.083  13.338
37592W        W 4001  34.031   0.257  11.489
37593W        W 4002  28.190  42.639  12.932
37594W        W 4003   9.762  29.606  10.999
37595W        W 4004  31.632  16.106  11.421
37596W        W 4005  18.594   9.202  10.645
37597W        W 4006  35.017  29.685  10.712
37598W        W 4007  35.620  10.860   4.903
37599W        W 4008  28.194   5.766   4.490
37600W        W 4009   8.429  14.025  13.982
37601W        W 4010  39.893  37.952  14.434
37602W        W 4011  37.991  19.478  13.375
37603W        W 4012  16.751  34.268  12.418
37604W        W 4013  16.039  17.538  14.969
37605W        W 4014  33.425   9.716   4.075
37606W        W 4015  28.420  17.245  12.222
37607W        W 4016  36.176  15.928   1.647
37608W        W 4017   9.398  35.849  10.426
37609W        W 4018  35.921  18.193   1.621
37610W        W 4019  26.559  37.877   3.635
37611W        W 4020  15.124   1.992   4.003
37612W        W 4021  36.330  18.240   4.595
37613W        W 4022  34.233   8.782  13.028
37614W        W 4023  42.374  31.361  14.377
37615W        W 4024  37.905   3.793  13.909
37616W        W 4025  28.383  11.412  10.782
37617W        W 4026  16.046  25.114   4.656
37618W        W 4027   4.483   1.446  13.428
37619W        W 4028  34.286  41.841   0.753
37620W        W 4029   1.393  17.847   1.501
37621W        W 4030  35.222   8.086  11.011
37622W        W 4031   6.837   9.124   3.892
37623W        W 4032  21.401  35.677  11.715
37624W        W 4033   6.935  15.706   0.544
37625W        W 4034  27.767   2.305   2.766
37626W        W 4035   8.840   5.204   4.130
37627W        W 4036  14.090  35.503  11.203
37628W        W 4037  16.817   1.959   1.305
37629W        W 4038  30.827   9.958   5.150
37630W        W 4039  41.467  25.018  12.591
37631W        W 4040   3.594  28.171   5.115
37632W        W 4041  39.498   2.364   1.030
37633W        W 4042  23.811   4.500   1.464
37634W        W 4043   8.543  36.375  14.706
37635W        W 4044   4.234  39.861   2.419
37636W        W 4045   9.402  16.797  11.647
37637W        W 4046  26.826  31.711  12.518
37638W        W 4047  41.732  21.144  12.979
37639W        W 4048   3.395   7.184  14.725
37640W        W 4049  36.266  30.300   4.310
37641W        W 4050  30.406   4.455  14.855
37642W        W 4051  29.967   2.946   5.478
37643W        W 4052  39.298  31.145   4.478
37644W        W 4053  22.661  21.503   1.550
37645W        W 4054  36.026  10.176   2.263
37646W        W 4055  13.659   2.340  11.127
37647W        W 4056  28.162  11.676   5.454
37648W        W 4057   5.185  25.875   4.510
37649W        W 4058  38.901  16.303  12.048
37650W        W 4059  28.363  42.445   2.275
37651W        W 4060  38.266  36.417  12.603
37652W        W 4061  16.690  35.935  11.510
37653W        W 4062   4.605   5.358  13.830
37654W        W 4063  42.441  23.933  10.717
37655W        W 4064  26.113  30.455   1.215
37656W        W 4065   9.382  16.672  13.386
37657W        W 4066  12.132   4.239  13.263
37658W        W 4067  13.069  44.909   4.008
37659W        W 4068   2.931  40.345   1.669
37660W        W 4069  30.578  34.694  14.832
37661W        W 4070  18.272  40.065   1.627
37662W        W 4071   7.898   8.314   0.374
37663W        W 4072  31.896  32.998   2.838
37664W        W 4073  28.515  36.540   3.297
37665W        W 4074   9.247  38.591   2.831
37666W        W 4075  40.334  39.793  13.520
37667W        W 4076  28.694  39.723  11.127
37668W        W 4077  25.603  10.419  14.348
37669W        W 4078  42.002  15.041  12.092
37670W        W 4079  44.742   7.842  11.200
37671W        W 4080  37.604   1.001   2.161
37672W        W 4081  15.536   1.096  14.563
37673W        W 4082  44.362  27.746  14.561
37674W        W 4083  14.016  22.234  12.548
37675W        W 4084  24.327  18.020  14.382
37676W        W 4085  19.635  19.130   2.235
37677W        W 4086  16.466  24.996  13.907
37678W        W 4087  21.272  27.644  13.398
37679W        W 4088  33.496  26.074   1.405
37680W        W 4089   2.559   8.620   2.444
37681W        W 4090  23.973  12.642   2.948
37682W        W 4091   9.603   1.347  13.312
37683W        W 4092  17.100  25.695  14.937
37684W        W 4093  39.187  30.702   0.961
37685W        W 4094  30.050  22.539  10.438
37686W        W 4095  27.136  20.768  11.365
37687W        W 4096  39.443   3.252  12.355
37688W        W 4097   0.485  42.432   0.378
37689W        W 4098  33.844  42.721  10.821
37690W        W 4099   3.133  37.813   4.189
37691W        W 4100   9.702  18.204   0.796
37692W        W 4101   5.466  32.118  10.790
37693W        W 4102   6.193   1.185  11.519
37694W        W 4103  10.307   0.208   2.678
37695W        W 4104  27.018  19.624  11.135
37696W        W 4105  17.081  39.301   3.183
37697W        W 4106  32.175   0.676   0.888
37698W        W 4107  27.420  31.595   2.200
37699W        W 4108  20.017  30.451   0.226
37700W        W 4109  27.737  14.203   1.739
37701W        W 4110  17.235  18.808   3.658
37702W        W 4111  26.713  22.096  13.310
37703W        W 4112  43.412  28.623   3.797
37704W        W 4113  20.824   8.057  12.045
37705W        W 4114  38.669  25.988  12.058
37706W        W 4115   7.128   3.095   4.557
37707W        W 4116   7.612  12.667   4.161
37708W        W 4117  20.803  11.607  13.254
37709W        W 4118   8.270  44.475  10.531
37710W        W 4119  31.420  29.877   1.459
37711W        W 4120  20.756   3.782   3.890
37712W        W 4121  19.334  23.720  11.576
37713W        W 4122  31.868  22.028  11.685
37714W        W 4123  26.483  18.559   1.266
37715W        W 4124  18.524  28.975   4.169
37716W        W 4125   4.953  12.041  11.620
37717W        W 4126  20.010   4.478   0.267
37718W        W 4127  10.431  17.351   2.302
37719W        W 4128   8.329  34.419   4.569
37720W        W 4129  43.320  37.160  11.977
37721W        W 4130  20.254  19.477  11.100
37722W        W 4131   6.773  37.823   4.053
37723W        W 4132   5.899   9.210   0.085
37724W        W 4133   9.747  44.017  13.014
37725W        W 4134  11.265  15.351  13.716
37726W        W 4135  35.172  13.959  10.119
37727W        W 4136  35.960  38.396  14.697
37728W        W 4137  22.177  22.572   4.513
37729W        W 4138  28.031  25.213  13.889
37730W        W 4139  15.233  33.292   2.403
37731W        W 4140  21.056  13.206   2.636
37732W        W 4141   2.866  30.867  11.926
37733W        W 4142  36.523  24.079   4.198
37734W        W 4143   9.816  13.057  10.404
37735W        W 4144  40.311   9.818  12.164
37736W        W 4145  13.574  15.527  11.032
37737W        W 4146  41.738  38.648   2.780
37738W        W 4147  33.621  37.368  11.212
37739W        W 4148  23.199  19.360   1.855
37740W        W 4149  33.259   0.301   1.419
37741W        W 4150  33.931  43.023  11.790
37742W        W 4151  20.860  38.039  12.340
37743W        W 4152  12.677  42.467  13.341
37744W        W 4153  22.877   0.526   1.346
37745W        W 4154  41.878  41.317  12.818
37746W        W 4155   6.533  12.595  14.068
37747W        W 4156  19.064  27.154  11.136
37748W        W 4157   9.345  39.128   3.728
37749W        W 4158  38.999  35.065   4.097
37750W        W 4159   3.795   7.619   4.452
37751W        W 4160  12.618  33.096   0.806
37752W        W 4161  27.277   3.012   4.875
37753W        W 4162  33.189  35.360   1.510
37754W        W 4163  27.507  21.704  13.550
37755W        W 4164  44.955  40.178   2.135
37756W        W 4165  21.988  26.814   1.011
37757W        W 4166  41.357  22.781  12.010
37758W        W 4167  12.402  32.062   3.231
37759W        W 4168  32.662  34.367   3.658
37760W        W 4169  14.824  36.340   0.986
37761W        W 4170  38.280  42.470   4.353
37762W        W 4171   9.489  37.448  14.559
37763W        W 4172  21.756  21.821  10.200
37764W        W 4173   2.365  31.419  10.676
37765W        W 4174  26.835   1.269  10.840
37766W        W 4175  30.423   2.769   1.097
37767W        W 4176  38.031  29.062   0.718
37768W        W 4177  24.418  27.979   4.992
37769W        W 4178  30.478  14.178  11.859
37770W        W 4179  10.311  40.941  14.493
37771W        W 4180  42.450  40.508  13.610
37772W        W 4181  15.604  10.151  11.008
37773W        W 4182   6.039   6.677  11.996
37774W        W 4183  24.556  33.678   3.298
37775W        W 4184  11.065  26.587  13.488
37776W        W 4185  12.595  24.298  12.442
37777W        W 4186  16.066  30.544   4.393
37778W        W 4187  13.770  44.222  11.982
37779W        W 4188   9.817  35.216   1.819
37780W        W 4189  13.441  18.214   2.690
37781W        W 4190  31.314  18.514   2.839
37782W        W 4191  17.230   5.633  14.976
37783W        W 4192  39.044  44.496  14.305
37784W        W 4193  25.461  37.463  12.401
37785W        W 4194  14.638  26.547   2.091
37786W        W 4195  39.495  10.337   0.831
37787W        W 4196  35.064  10.479  13.151
37788W        W 4197  39.819  39.983   4.077
37789W        W 4198  26.922  26.700  14.027
37790W        W 4199  13.458  28.569   2.990
37791W        W 4200  25.980  18.823  13.995
37792W        W 4201  34.182   6.049  10.601
37793W        W 4202  44.982  17.726  10.679
37794W        W 4203  14.813   8.181  11.218
37795W        W 4204  40.838  20.132  13.097
37796W        W 4205  20.542  11.248   1.121
37797W        W 4206   5.235  31.646  14.516
37798W        W 4207   0.778  23.628   3.650
37799W        W 4208   0.444  18.154   4.875
37800W        W 4209  40.317  27.906   0.640
37801W        W 4210  25.072  28.445   3.168
37802W        W 4211  11.156  15.586  12.840
37803W        W 4212  25.215  35.615   1.433
37804W        W 4213  44.010  17.868   3.089
37805W        W 4214   9.938  30.590   2.362
37806W        W 4215  39.477   3.717  12.157
37807W        W 4216  42.794  40.592   4.417
37808W        W 4217  10.606  29.089   3.024
37809W        W 4218  37.761  38.266   2.402
37810W        W 4219  35.340   2.894  12.931
37811W        W 4220  42.390  19.137   3.128
37812W        W 4221  35.621  18.377   1.239
37813W        W 4222  13.959  25.335   4.447
37814W        W 4223   2.753  19.313  14.541
37815W        W 4224  38.272  10.028   4.833
37816W        W 4225   4.258   3.008   4.317
37817W        W 4226  28.040  31.578   4.116
37818W        W 4227   9.393  17.856  12.924
37819W        W 4228  23.044  11.586   2.184
37820W        W 4229  29.531  31.453   4.308
37821W        W 4230   2.430  10.022  10.284
37822W        W 4231  33.411  30.194  11.901
37823W        W 4232  31.297  10.664   1.965
37824W        W 4233  13.375  23.578   4.543
37825W        W 4234  28.338  33.614   0.946
37826W        W 4235   1.415  34.066  13.006
37827W        W 4236   1.268  22.020  14.411
37828W        W 4237  37.081  42.504   0.312
37829W        W 4238  17.262   9.795   1.214
37830W        W 4239  16.045  24.468  10.702
37831W        W 4240  33.265  37.050   1.941
37832W        W 4241   0.842  17.163   2.484
37833W        W 4242  42.492  13.898   2.839
37834W        W 4243   5.821  14.020   3.690
37835W        W 4244  22.656  19.233  12.884
37836W        W 4245   0.583  31.846  10.619
37837W        W 4246  22.615  30.073   3.105
37838W        W 4247  13.851  31.982   4.616
37839W        W 4248  31.011  20.852   1.813
37840W        W 4249  16.707  23.121   3.622
37841W        W 4250  27.082   8.724   3.289
37842W        W 4251  43.507  11.556   2.130
37843W        W 4252  26.075   7.883  13.054
37844W        W 4253   6.712  22.686   0.330
37845W        W 4254  12.382  37.552   1.463
37846W        W 4255  36.506  34.525  13.494
37847W        W 4256  20.610  16.136   0.855
37848W        W 4257  34.383   8.416   2.385
37849W        W 4258  19.168  23.261   1.307
37850W        W 4259   5.843  23.257   2.504
37851W        W 4260  30.539  20.132  14.761
37852W        W 4261  20.567  12.372   3.201
37853W        W 4262  11.220  25.675  11.987
37854W        W 4263  29.184  15.248  11.375
37855W        W 4264  42.886  11.795  14.069
37856W        W 4265  20.529   7.835  11.192
37857W        W 4266  18.250  29.948   4.453
37858W        W 4267   8.601  43.327  14.204
37859W        W 4268  37.009  15.267   4.456
37860W        W 4269  38.541  16.587  14.525
37861W        W 4270  29.319  12.674  11.131
37862W        W 4271   4.539   1.234   0.175
37863W        W 4272  36.801   6.776  11.207
37864W        W 4273  29.848   9.354  14.771
37865W        W 4274  13.149  31.481   0.058
37866W        W 4275  22.942  35.548   9.834
37867W        W 4276  24.331  15.867   4.607
37868W        W 4277  19.057  36.356   1.803
37869W        W 4278  26.924   2.332   0.518
37870W        W 4279   8.761   5.832  13.794
37871W        W 4280  30.395  39.985  12.865
37872W        W 4281  30.930  32.454   1.827
37873W        W 4282  18.426   5.431   4.708
37874W        W 4283   0.681  35.929  12.098
37875W        W 4284   3.410   4.261  13.079
37876W        W 4285  15.263  15.152   1.923
37877W        W 4286  12.923  44.780  12.286
37878W        W 4287  38.338  32.694   4.685
37879W        W 4288  38.728   0.638   4.014
37880W        W 4289  19.225  38.553  12.670
37881W        W 4290   0.504  17.170  12.003
37882W        W 4291   8.577  23.802   2.692
37883W        W 4292   1.925  36.298   3.147
37884W        W 4293  33.848  33.764  13.907
37885W        W 4294  17.255   3.151  13.293
37886W        W 4295  44.533   4.943   2.756
37887W        W 4296  30.752  11.601   1.740
37888W        W 4297   0.099  28.160  11.136
37889W        W 4298  30.007  25.459   4.671
37890W        W 4299   0.905  20.522  13.483
37891W        W 4300  10.957  42.438  10.701
37892W        W 4301  40.582  11.334   4.217
37893W        W 4302  32.629  37.612  13.030
37894W        W 4303  41.285   7.263   4.505
37895W        W 4304  13.169  10.847  14.762
37896W        W 4305  39.476  43.743  11.621
37897W        W 4306  20.304  32.222  10.712
37898W        W 4307  38.731   2.780  11.062
37899W        W 4308  34.072  24.176   0.513
37900W        W 4309  25.590  16.029   4.872
37901W        W 4310  36.544  37.349  12.460
37902W        W 4311   3.295  17.023  14.305
37903W        W 4312  32.106  24.266  12.442
37904W        W 4313   7.899  28.073   3.539
37905W        W 4314  24.671  44.234  11.600
37906W        W 4315   6.960  18.565  13.863
37907W        W 4316  25.932   5.717  12.512
37908W        W 4317   4.512  37.843   2.854
37909W        W 4318  40.005  12.132   0.820
37910W        W 4319  24.010   8.956  13.648
37911W        W 4320  22.023  26.437   0.353
37912W        W 4321  35.047  18.167  11.119
37913W        W 4322  12.576  20.501  13.556
37914W        W 4323  38.139   6.353  12.041
37915W        W 4324   1.318   6.558   2.610
37916W        W 4325  21.726  35.712  12.128
37917W        W 4326   4.415   1.231  13.896
37918W        W 4327  18.418  40.593   2.711
37919W        W 4328   9.268  36.107   0.324
37920W        W 4329  16.819   1.432   1.193
37921W        W 4330   3.301  42.040  12.804
37922W        W 4331   0.767   3.565  10.937
37923W        W 4332   5.640  34.347  13.446
37924W        W 4333  33.129  19.190  13.292
37925W        W 4334   6.837   1.764  11.588
37926W        W 4335  35.096  43.280  10.709
37927W        W 4336  17.217  30.950   3.805
37928W        W 4337  11.244  23.729   2.626
37929W        W 4338  10.837   2.105   2.751
37930W        W 4339  13.896  26.574   4.759
37931W        W 4340  29.706  43.433  10.457
37932W        W 4341  37.903  40.298  12.988
37933W        W 4342  36.898  23.713  10.903
37934W        W 4343  13.053  24.984   4.602
37935W        W 4344  16.239  43.313  13.325
37936W        W 4345  34.485  34.122  12.821
37937W        W 4346  27.485  25.029  14.841
37938W        W 4347  22.429  23.712   3.728
37939W        W 4348  39.104  11.699  12.976
37940W        W 4349  39.852  34.356   0.766
37941W        W 4350  10.884  18.750  11.125
37942W        W 4351   3.283  13.949  11.628
37943W        W 4352  39.392  13.175  11.582
37944W        W 4353  41.904  22.535  14.411
37945W        W 4354  38.631  15.103   1.739
37946W        W 4355  40.962  25.253   1.250
37947W        W 4356   5.727  13.823   4.248
37948W        W 4357   4.264  19.935  12.554
37949W        W 4358  32.724  21.131   1.814
37950W        W 4359  39.602  25.198   0.868
37951W        W 4360  14.256  40.924  10.535
37952W        W 4361  29.673  32.953  13.319
37953W        W 4362  24.274  44.551  11.474
37954W        W 4363  22.942  35.117  13.424
37955W        W 4364  31.541  35.631   2.811
37956W        W 4365  34.591  23.682  11.250
37957W        W 4366  33.948  24.162   1.020
37958W        W 4367  23.934   5.206   3.200
37959W        W 4368  40.789  15.884   1.229
37960W        W 4369  13.605  14.567   2.327
37961W        W 4370   8.282  25.194   3.340
37962W        W 4371  27.663  43.885   1.258
37963W        W 4372  40.719  43.749  14.013
37964W        W 4373  18.040   4.524  10.608
37965W        W 4374  41.578  31.541  11.545
37966W        W 4375  44.807  41.014  11.635
37967W        W 4376  17.824  16.301   0.948
37968W        W 4377  27.324   8.465  12.954
37969W        W 4378  38.823  16.870   3.286
37970W        W 4379  10.736   1.260  12.055
37971W        W 4380  10.334  41.916   2.262
37972W        W 4381  34.969  11.200  10.659
37973W        W 4382  31.037   6.049  11.475
37974W        W 4383  29.341  20.692  12.615
37975W        W 4384  34.103   2.540   2.302
37976W        W 4385  24.396  33.949   3.700
37977W        W 4386  13.263  37.152   4.212
37978W        W 4387  35.200   9.703   0.318
37979W        W 4388  18.310   4.949   2.709
37980W        W 4389  31.287  27.273  14.482
37981W        W 4390  43.826  39.484   0.714
37982W        W 4391  28.086  21.518   1.870
37983W        W 4392   8.856  24.589   1.723
37984W        W 4393  29.028  27.460   4.623
37985W        W 4394   5.749  44.715  11.169
37986W        W 4395  19.800  29.716   0.397
37987W        W 4396  43.897  33.406  13.966
37988W        W 4397   0.052  21.732  11.645
37989W        W 4398  16.309  38.007  13.146
37990W        W 4399  39.802  38.783   1.013
37991W        W 4400  23.528  30.877  14.834
37992W        W 4401  10.351  25.608  14.020
37993W        W 4402   0.134  10.859   3.725
37994W        W 4403  34.036  24.082  14.280
37995W        W 4404   7.669  29.708  11.623
37996W        W 4405   1.665  27.450   4.721
37997W        W 4406  16.480   4.899  14.891
37998W        W 4407  19.761  11.373   3.788
37999W        W 4408  42.856  42.405   4.064
38000W        W 4409  15.089  15.317  11.033
38001W        W 4410  40.767  24.763   1.272
38002W        W 4411  31.825  37.167  14.384
38003W        W 4412   9.877  18.230   0.306
38004W        W 4413  39.084  39.062  10.765
38005W        W 4414   1.426  37.465   4.544
38006W        W 4415  11.081  42.466  11.985
38007W        W 4416  31.325  27.581   2.364
38008W        W 4417  22.719  28.239  13.385
38009W        W 4418  26.808  39.078   2.259
38010W        W 4419  44.498  10.871  12.070
38011W        W 4420  20.041   2.892   1.889
38012W        W 4421  26.405  27.698   2.150
38013W        W 4422   1.292   1.513  12.258
38014W        W 4423  14.313   3.743  13.494
38015W        W 4424  17.116  27.537   1.790
38016W        W 4425  42.485  16.743  12.962
38017W        W 4426  14.444  16.119  12.309
38018W        W 4427  38.143  16.728  14.153
38019W        W 4428  33.615  17.446  11.535
38020W        W 4429  27.409   1.391   4.481
38021W        W 4430  36.507  20.629  11.991
38022W        W 4431  15.604  16.085  10.262
38023W        W 4432  36.891  35.694   2.297
38024W        W 4433  26.904  15.513  11.183
38025W        W 4434   9.914  14.781   1.425
38026W        W 4435   1.601   1.548   0.980
38027W        W 4436   2.183   7.471  11.627
38028W        W 4437  27.281  44.318   3.301
38029W        W 4438  17.112  28.637   0.237
38030W        W 4439  23.225  29.995   1.475
38031W        W 4440  16.985  28.883  13.771
38032W        W 4441  31.362  18.246  14.930
38033W        W 4442  29.361  42.666  10.738
38034W        W 4443   5.412  44.300   2.393
38035W        W 4444   6.476   1.902   2.712
38036W        W 4445  31.828  43.979   0.303
38037W        W 4446   2.968   8.192  14.023
38038W        W 4447  33.856  34.960  11.231
38039W        W 4448  28.636  36.904  11.406
38040W        W 4449  43.433  43.645   1.960
38041W        W 4450  22.585  28.737  13.091
38042W        W 4451  13.670  31.583   2.740
38043W        W 4452  38.779  36.499  12.581
38044W        W 4453  40.903  32.081  12.931
38045W        W 4454   6.677  42.688   0.292
38046W        W 4455  28.496  26.973   1.756
38047W        W 4456  35.509   1.732  11.072
38048W        W 4457  32.418   0.300   4.068
38049W        W 4458  20.224   0.444  13.828
38050W        W 4459  17.055  39.024  14.461
38051W        W 4460  27.520  15.830  14.411
38052W        W 4461  32.873  16.767  11.499
38053W        W 4462  38.589   2.433   4.098
38054W        W 4463  16.670   0.528   3.416
38055W        W 4464  39.376   9.999   3.773
38056W        W 4465  34.122  20.269   4.733
38057W        W 4466   7.099   1.486  12.441
38058W        W 4467  28.549   2.565  12.871
38059W        W 4468  26.780   0.867   3.805
38060W        W 4469   7.254  40.488   3.046
38061W        W 4470   4.858  41.034   0.380
38062W        W 4471   2.212  19.138  11.465
38063W        W 4472  34.144  29.838   1.374
38064W        W 4473  31.635   7.123  11.373
38065W        W 4474  16.269   3.797  13.821
38066W        W 4475  28.728  19.184   1.530
38067W        W 4476  42.363  32.637  13.144
38068W        W 4477  14.630  30.049   4.094
38069W        W 4478  37.500  20.149  12.789
38070W        W 4479  31.044  39.027   4.452
38071W        W 4480  32.659  30.387   2.390
38072W        W 4481  34.555  41.403   4.453
38073W        W 4482  34.416   5.732  12.294
38074W        W 4483  22.245   6.705   3.336
38075W        W 4484  31.072  17.736  14.918
38076W        W 4485  27.137  41.852   4.610
38077W        W 4486  20.028  19.288  11.534
38078W        W 4487  21.689  30.137  11.677
38079W        W 4488  23.813  36.431  11.877
38080W        W 4489  27.965  11.822   0.486
38081W        W 4490  30.496  25.314   4.787
38082W        W 4491  22.467  31.374   4.267
38083W        W 4492  16.214  32.676   0.238
38084W        W 4493   6.624  12.676   1.393
38085W        W 4494  28.990   7.820  11.146
38086W        W 4495  11.354  32.154   2.400
38087W        W 4496  17.050   0.634   1.684
38088W        W 4497  19.640  18.718   2.597
38089W        W 4498  35.536  32.847  12.009
38090W        W 4499  29.544   7.377   2.852
38091W        W 4500  39.820  26.157   3.268
38092W        W 4501  43.737   1.022  13.942
38093W        W 4502  21.120  32.143   0.821
38094W        W 4503  23.667  15.064   4.082
38095W        W 4504  39.621  34.932  10.761
38096W        W 4505  41.558  29.090   4.154
38097W        W 4506  36.321  38.577   0.771
38098W        W 4507   6.745  38.349  12.642
38099W        W 4508   9.760   0.474   9.869
38100W        W 4509  19.772  12.293   2.856
38101W        W 4510  37.943  37.329   1.171
38102W        W 4511  23.785   2.435   4.074
38103W        W 4512   7.946  11.194   3.153
38104W        W 4513  39.300   2.903  13.560
38105W        W 4514  38.025  44.846  11.083
38106W        W 4515  40.773  18.660  10.723
38107W        W 4516  36.053  28.991  10.803
38108W        W 4517  19.119  16.068  10.582
38109W        W 4518  18.125  24.504  13.289
38110W        W 4519   8.242  21.655  11.094
38111W        W 4520  22.301  17.709   0.016
38112W        W 4521  43.948  13.405   3.920
38113W        W 4522  12.566   3.502  12.677
38114W        W 4523  29.909   5.414   2.691
38115W        W 4524  32.678  38.013   0.849
38116W        W 4525  41.819  17.177   4.634
38117W        W 4526  25.954  43.075  13.376
38118W        W 4527  37.987  26.396   1.425
38119W        W 4528  31.453  14.657  13.294
38120W        W 4529  26.632  12.390   5.296
38121W        W 4530  22.023  10.421   4.112
38122W        W 4531  14.663  34.900  10.792
38123W        W 4532   1.879  44.383  14.096
38124W        W 4533  13.473   4.309   2.310
38125W        W 4534  27.287   1.660  13.896
38126W        W 4535   8.581  13.080  13.935
38127W        W 4536  24.393   8.648  10.322
38128W        W 4537  10.516  41.368  11.453
38129W        W 4538  31.585  35.388   3.296
38130W        W 4539   5.166  22.673   0.214
38131W        W 4540  12.648  17.729  14.409
38132W        W 4541  22.506   5.441  13.477
38133W        W 4542  13.005  44.812   2.348
38134W        W 4543  30.886  20.354  14.328
38135W        W 4544  10.184  25.112   0.762
38136W        W 4545   7.284  28.826   0.435
38137W        W 4546  24.044   8.931  14.953
38138W        W 4547  41.805   6.592   1.297
38139W        W 4548  28.409   6.942   1.235
38140W        W 4549   9.536  17.038  13.057
38141W        W 4550  13.320  42.601   3.655
38142W        W 4551  28.259  19.303  13.453
38143W        W 4552  33.804  42.763   2.801
38144W        W 4553  21.012  35.497   2.125
38145W        W 4554  22.571   2.741   3.700
38146W        W 4555  13.124  32.071   1.284
38147W        W 4556  40.893  38.074  13.124
38148W        W 4557  15.050  14.345   1.289
38149W        W 4558  22.660  27.588  11.156
38150W        W 4559   2.892  35.204   3.130
38151W        W 4560   5.379  39.192  13.897
38152W        W 4561   2.326  25.076  13.682
38153W        W 4562  41.941  33.310  13.157
38154W        W 4563  17.324  23.677  12.574
38155W        W 4564  23.623  40.838   3.914
38156W        W 4565  32.454   2.638   2.807
38157W        W 4566  38.105  44.436  12.633
38158W        W 4567  22.434  33.437   4.230
38159W        W 4568  22.507  20.300  12.950
38160W        W 4569  32.194  24.237   3.113
38161W        W 4570  41.967  11.866   0.031
38162W        W 4571  35.305  33.896  13.113
38163W        W 4572  24.061   7.960   3.632
38164W        W 4573  36.932  42.422  13.845
38165W        W 4574  44.807  26.039   0.315
38166W        W 4575   2.773  29.509  13.969
38167W        W 4576   8.317   6.861   1.108
38168W        W 4577  40.474  12.528   5.050
38169W        W 4578   5.898  19.102  10.512
38170W        W 4579  12.739  10.608   2.908
38171W        W 4580  18.323   8.890   4.524
38172W        W 4581  12.554  39.366  11.182
38173W        W 4582  27.016  31.378  14.823
38174W        W 4583  23.259   7.257   0.266
38175W        W 4584  31.584  11.824   1.977
38176W        W 4585   9.701   6.687  10.482
38177W        W 4586  42.168  24.269   1.227
38178W        W 4587  33.474  12.804  14.767
38179W        W 4588  24.999   4.171  10.713
38180W        W 4589   7.433   4.781   3.648
38181W        W 4590   5.207  43.050   1.034
38182W        W 4591   1.017  40.448   1.274
38183W        W 4592  10.544  17.519  11.601
38184W        W 4593  37.783   3.514  15.000
38185W        W 4594  23.594  41.398   1.217
38186W        W 4595   2.146  17.832   3.609
38187W        W 4596  11.730  35.824   0.341
38188W        W 4597   7.111  37.130   2.404
38189W        W 4598  20.406  29.683   4.876
38190W        W 4599  32.661  41.593   2.607
38191W        W 4600  42.215   3.344   0.847
38192W        W 4601  29.496  17.408  11.571
38193W        W 4602  14.436  34.392  12.149
38194W        W 4603   1.773  22.174  12.852
38195W        W 4604   1.660  33.759  11.199
38196W        W 4605  37.284   9.376   0.855
38197W        W 4606   6.893   3.482   3.635
38198W        W 4607  41.492   1.779  13.507
38199W        W 4608  15.222  31.840   5.043
38200W        W 4609   9.914  36.891   0.813
38201W        W 4610  15.206  25.327   2.658
38202W        W 4611  17.758  42.983   4.986
38203W        W 4612  28.403  10.039  13.554
38204W        W 4613   4.132  42.286  11.886
38205W        W 4614   0.374  11.846  12.054
38206W        W 4615   8.881  19.650   4.488
38207W        W 4616  41.566   8.797  14.532
38208W        W 4617  12.871  30.765   1.394
38209W        W 4618   6.863  18.597  12.106
38210W        W 4619   6.052  19.245  12.596
38211W        W 4620  28.770  18.762  10.579
38212W        W 4621  17.996  20.140   4.066
38213W        W 4622   6.397  40.663  11.552
38214W        W 4623   3.411  10.689  11.513
38215W        W 4624  37.902   4.625   3.857
38216W        W 4625  19.778  37.357   4.397
38217W        W 4626  13.182  12.935   1.011
38218W        W 4627  22.663   8.139   1.575
38219W        W 4628  40.054  41.630   1.097
38220W        W 4629  13.981  40.217  14.352
38221W        W 4630  42.744  33.099   0.608
38222W        W 4631  17.563  23.788  12.113
38223W        W 4632   8.324   0.450   3.121
38224W        W 4633  44.833  22.668  10.901
38225W        W 4634  32.365  29.160  11.618
38226W        W 4635  42.402  37.016  13.863
38227W        W 4636  28.048  36.941   4.567
38228W        W 4637  44.337  39.353  14.478
38229W        W 4638  37.582  10.843  14.799
38230W        W 4639  11.178  28.414   1.104
38231W        W 4640  21.426  36.843  13.115
38232W        W 4641  28.552  44.269   0.848
38233W        W 4642   6.966   1.714   4.544
38234W        W 4643  43.712   2.044   4.635
38235W        W 4644  42.248   4.335  11.497
38236W        W 4645  39.159  14.695  13.176
38237W        W 4646  43.362  36.903   0.244
38238W        W 4647  23.255  17.345   2.646
38239W        W 4648  34.937  30.372   3.042
38240W        W 4649  29.133   0.537   2.393
38241W        W 4650  18.217  22.610  13.114
38242W        W 4651  36.286  20.916   3.746
38243W        W 4652  39.437  21.960  12.954
38244W        W 4653   2.935  41.127   3.411
38245W        W 4654  31.599  34.684  12.136
38246W        W 4655  14.261  43.526  14.978
38247W        W 4656  33.282  27.213  12.331
38248W        W 4657   0.243  10.685   4.979
38249W        W 4658  14.706  19.045  13.287
38250W        W 4659  35.098   6.510  12.448
38251W        W 4660  29.996   3.047  10.152
38252W        W 4661  24.062  31.957   3.282
38253W        W 4662  15.664  16.237   4.822
38254W        W 4663  15.295   4.903  12.622
38255W        W 4664  36.548  37.415   4.609
38256W        W 4665  22.104  35.093   4.290
38257W        W 4666  29.618  39.919  14.779
38258W        W 4667  25.268  42.684  10.416
38259W        W 4668  22.457   2.336  11.537
38260W        W 4669   3.270  15.832  12.888
38261W        W 4670   8.157  10.770   0.914
38262W        W 4671  28.018  10.151   4.517
38263W        W 4672  17.810  24.025   2.340
38264W        W 4673   1.074   4.879   1.771
38265W        W 4674   7.116  44.065   3.561
38266W        W 4675  12.078   7.146  10.659
38267W        W 4676   4.149  10.062  12.507
38268W        W 4677  15.594  32.896  13.981
38269W        W 4678  44.398  31.855   1.509
38270W        W 4679   7.739  33.087   4.085
38271W        W 4680  31.437  43.473   0.767
38272W        W 4681  37.612   4.013   2.271
38273W        W 4682  32.805  43.794  14.201
38274W        W 4683  38.049  32.065   0.256
38275W        W 4684   1.065  42.979   1.001
38276W        W 4685  23.527  10.288   5.197
38277W        W 4686   5.428  23.585  12.862
38278W        W 4687  11.819  26.774   1.431
38279W        W 4688  20.759  29.113   1.864
38280W        W 4689  32.582  38.558  11.519
38281W        W 4690   6.333  12.560   0.035
38282W        W 4691  15.310  33.416   3.894
38283W        W 4692   9.295  44.897   1.229
38284W        W 4693  38.857  13.366   0.251
38285W        W 4694   6.701  43.245  14.025
38286W        W 4695  30.993  19.784   4.498
38287W        W 4696  34.973  24.191  10.634
38288W        W 4697  37.077   4.668  14.937
38289W        W 4698  20.004  14.219  13.854
38290W        W 4699  25.999  28.522  14.977
38291W        W 4700  23.022  38.107  14.527
38292W        W 4701  24.678  43.063  13.613
38293W        W 4702  44.537  21.648  12.616
38294W        W 4703  33.480  40.442   1.901
38295W        W 4704  21.263  42.739   0.284
38296W        W 4705   7.150  15.551  14.634
38297W        W 4706  16.727  16.247   2.247
38298W        W 4707  29.608   1.265   0.029
38299W        W 4708  13.121  21.758   2.844
38300W        W 4709  28.489  15.103   2.757
38301W        W 4710  17.181  42.049   0.774
38302W        W 4711   3.397  13.989   1.945
38303W        W 4712  27.943  30.035   0.831
38304W        W 4713  11.508  16.887  11.961
38305W        W 4714   6.292  23.485   3.197
38306W        W 4715  32.957   0.060   0.694
38307W        W 4716   7.198   5.179  11.232
38308W        W 4717  37.916   2.258   2.275
38309W        W 4718  12.500   8.022  11.495
38310W        W 4719  10.389  44.671  11.113
38311W        W 4720  12.594  31.421   1.655
38312W        W 4721  23.374  22.120  12.160
38313W        W 4722  12.265  38.637   4.740
38314W        W 4723  25.467  36.286  13.899
38315W        W 4724  21.525  28.157   0.783
38316W        W 4725  28.498  34.615   4.251
38317W        W 4726  35.075  18.626   0.403
38318W        W 4727  38.048  33.221  14.700
38319W        W 4728   1.884  29.121  13.802
38320W        W 4729  31.966  38.521   3.203
38321W        W 4730  39.301   8.351  14.043
38322W        W 4731  11.303  20.636   3.614
38323W        W 4732   5.829  20.974   4.248
38324W        W 4733  43.082  28.356   0.220
38325W        W 4734  32.614  36.724   3.325
38326W        W 4735   9.626  28.882   0.641
38327W        W 4736  44.532   1.255  14.681
38328W        W 4737  33.668  24.480  11.633
38329W        W 4738  41.785  44.052  10.590
38330W        W 4739  11.325  40.332  12.966
38331W        W 4740  22.602  25.554   2.384
38332W        W 4741   9.384  31.278   4.926
38333W        W 4742   5.470  41.564  10.862
38334W        W 4743  37.763  15.703  14.695
38335W        W 4744  17.191  20.355   4.472
38336W        W 4745  32.032  30.906   3.135
38337W        W 4746  37.289   2.269  13.012
38338W        W 4747  14.741  39.813  11.589
38339W        W 4748  22.039  30.696  12.466
38340W        W 4749  15.572  15.627   4.161
38341W        W 4750  44.931  33.470   2.748
38342W        W 4751  22.738  19.654  10.787
38343W        W 4752  43.902  26.192  10.261
38344W        W 4753  11.074   7.748   0.851
38345W        W 4754   3.752  18.334   2.708
38346W        W 4755  20.354   0.346   2.229
38347W        W 4756  39.009  23.102   2.436
38348W        W 4757   2.639  26.231   4.612
38349W        W 4758  12.571  12.616  11.573
38350W        W 4759   1.964   5.703  14.096
38351W        W 4760  15.914  12.118   0.753
38352W        W 4761  25.395  38.092   1.748
38353W        W 4762  18.778  22.151   4.177
38354W        W 4763  13.673  15.659   4.455
38355W        W 4764  27.696  14.010  12.361
38356W        W 4765   6.555  19.099  10.522
38357W        W 4766  12.637   1.398  13.474
38358W        W 4767  11.870  32.193  10.313
38359W        W 4768  39.896  16.415  12.352
38360W        W 4769  33.702  20.039  14.304
38361W        W 4770   8.175   6.940   0.253
38362W        W 4771  35.893  27.977   0.595
38363W        W 4772   6.385  44.363   4.566
38364W        W 4773  23.137   4.837   2.087
38365W        W 4774  39.840  35.412  13.388
38366W        W 4775  30.311   2.563   5.376
38367W        W 4776   7.938   3.239  11.095
38368W        W 4777  31.539  39.865  13.825
38369W        W 4778  19.662   5.542   3.681
38370W        W 4779  40.095   7.755   4.008
38371W        W 4780   5.299  20.023  11.125
38372W        W 4781  18.017  10.645  11.593
38373W        W 4782  43.930  15.632   2.239
38374W        W 4783  28.981  29.587  13.314
38375W        W 4784  16.788   9.111  14.642
38376W        W 4785  12.872   2.944  14.440
38377W        W 4786   0.731  11.051  14.432
38378W        W 4787  23.714  36.907  10.698
38379W        W 4788  24.584  35.338  11.964
38380W        W 4789  26.853  18.061  13.789
38381W        W 4790  10.643  23.226   4.103
38382W        W 4791  35.921  37.562  13.924
38383W        W 4792  28.135  15.144  11.562
38384W        W 4793  24.075  17.668  12.460
38385W        W 4794  19.739   6.981  14.783
38386W        W 4795   8.319   1.774   3.916
38387W        W 4796  17.282  16.202  13.000
38388W        W 4797  32.183  38.537  11.010
38389W        W 4798  41.053  21.554  12.146
38390W        W 4799  21.683   7.528   1.354
38391W        W 4800  25.881  39.386   0.833
38392W        W 4801  24.262  36.106   4.661
38393W        W 4802  32.438  18.015   0.924
38394W        W 4803  37.363  35.135  11.180
38395W        W 4804  30.392   9.670  13.909
38396W        W 4805  27.206   4.776   2.256
38397W        W 4806  15.181  30.208  14.786
38398W        W 4807  24.791  11.233   1.782
38399W        W 4808   5.147  41.665   3.755
38400W        W 4809  44.798  31.051   2.207
38401W        W 4810  34.977  39.948  14.860
38402W        W 4811  26.997  35.010  11.935
38403W        W 4812  35.673  11.133   3.915
38404W        W 4813  16.803   3.411  11.526
38405W        W 4814  28.659  14.803   2.323
38406W        W 4815   5.782  11.438   2.310
38407W        W 4816  21.054  35.841   3.945
38408W        W 4817  37.773  28.784  12.507
38409W        W 4818  39.380   9.232  14.462
38410W        W 4819  31.698  21.105  11.000
38411W        W 4820  10.589   8.697   0.871
38412W        W 4821  26.455  37.593  11.846
38413W        W 4822  26.406  26.198   2.735
38414W        W 4823  35.316  12.182  10.906
38415W        W 4824  30.131  16.212   0.739
38416W        W 4825  17.944   7.858  11.279
38417W        W 4826  28.912  17.235  11.934
38418W        W 4827   3.196  19.981   1.678
38419W        W 4828  20.772  23.142  14.868
38420W        W 4829  30.022  37.197  11.485
38421W        W 4830  15.779  22.065   2.402
38422W        W 4831  31.610  43.494  13.947
38423W        W 4832  35.833  29.407   1.800
38424W        W 4833  19.731  15.835  12.159
38425W        W 4834  44.962  38.637  12.010
38426W        W 4835  35.553  14.362  13.685
38427W        W 4836   9.861  24.503  14.470
38428W        W 4837  43.048  32.147   0.760
38429W        W 4838  42.839  15.283  10.698
38430W        W 4839   6.090  30.889   3.688
38431W        W 4840  16.851  15.927   3.820
38432W        W 4841  44.535  13.399  12.858
38433W        W 4842   3.750  16.504  13.138
38434W        W 4843  43.341  27.478  13.557
38435W        W 4844  35.459  19.803  13.043
38436W        W 4845  21.567  33.543   0.886
38437W        W 4846  43.678  24.715   1.097
38438W        W 4847   3.316  33.879  13.002
38439W        W 4848  11.053  12.287   1.115
38440W        W 4849  21.514  39.617   0.293
38441W        W 4850  10.185  15.513   3.828
38442W        W 4851  21.827  29.110  13.051
38443W        W 4852  31.187   4.994   0.264
38444W        W 4853  33.068   7.806  13.998
38445W        W 4854  42.714  35.159   3.691
38446W        W 4855   3.846  21.082   2.644
38447W        W 4856  30.044  39.061  11.207
38448W        W 4857  44.013   8.283   3.742
38449W        W 4858  10.331  40.395  14.785
38450W        W 4859  17.693   9.321  11.612
38451W        W 4860   2.035   4.906  11.718
38452W        W 4861  36.907   3.941  12.913
38453W        W 4862   1.711  22.273   0.781
38454W        W 4863  40.022  11.136  11.137
38455W        W 4864  40.560  36.479  10.722
38456W        W 4865  13.978  32.575  12.739
38457W        W 4866  25.098  31.316  13.886
38458W        W 4867  43.919  11.352   1.870
38459W        W 4868  32.548  25.043  10.661
38460W        W 4869  16.785   3.166   3.906
38461W        W 4870  19.156  40.155   4.926
38462W        W 4871  41.009   1.795  14.002
38463W        W 4872  20.064   4.323  10.675
38464W        W 4873  16.655  14.774  11.580
38465W        W 4874  42.804  27.995   4.194
38466W        W 4875  35.452   1.348  12.333
38467W        W 4876  28.854  26.516   4.200
38468W        W 4877  35.174  41.491  14.040
38469W        W 4878   4.167   4.014   4.801
38470W        W 4879  13.893   6.649   2.985
38471W        W 4880   8.653  30.675   0.433
38472W        W 4881  10.701  28.219   4.139
38473W        W 4882  25.039  31.612   2.787
38474W        W 4883  27.140  10.173  12.226
38475W        W 4884  17.493   6.188  10.984
38476W        W 4885  39.407  39.654   2.469
38477W        W 4886  22.471   2.043   2.746
38478W        W 4887  12.094  12.750  13.345
38479W        W 4888  30.014  32.950  14.165
38480W        W 4889  36.536  32.570  11.348
38481W        W 4890  13.034   9.609  11.660
38482W        W 4891  33.599  34.135  12.990
38483W        W 4892   2.271  18.206   2.739
38484W        W 4893   5.978  24.493  14.485
38485W        W 4894   8.872   1.293   2.184
38486W        W 4895  34.655  10.706  11.558
38487W        W 4896  16.851   1.949   4.779
38488W        W 4897  23.485  10.506   2.760
38489W        W 4898  14.714  33.886   2.347
38490W        W 4899  30.431   0.415   3.169
38491W        W 4900  29.352  34.056  11.897
38492W        W 4901  23.207  13.615   3.237
38493W        W 4902  28.190   2.218   4.033
38494W        W 4903   0.407  28.859   2.322
38495W        W 4904  37.069  43.504   2.867
38496W        W 4905  16.236  35.907  14.360
38497W        W 4906   6.886  40.564   0.422
38498W        W 4907  34.762  17.635   3.272
38499W        W 4908   5.099  26.529  12.006
38500W        W 4909  25.484   5.824   0.846
38501W        W 4910  27.511  36.691  11.998
38502W        W 4911  21.155  22.089   3.788
38503W        W 4912  44.168  44.519   3.132
38504W        W 4913  43.634  12.938   3.284
38505W        W 4914  32.431  10.798   3.262
38506W        W 4915  16.425  41.246  14.214
38507W        W 4916  36.667  32.943   1.128
38508W        W 4917  24.475  20.322  12.117
38509W        W 4918  10.122  17.807   4.496
38510W        W 4919  13.850  36.602  14.872
38511W        W 4920   1.911   0.774  14.307
38512W        W 4921  36.349  28.928  14.959
38513W        W 4922   0.329  16.878   0.808
38514W        W 4923  42.585  20.332  10.688
38515W        W 4924  37.343  30.107   1.282
38516W        W 4925  42.894  41.712   0.934
38517W        W 4926  34.617  11.966   0.184
38518W        W 4927  20.941  16.804   1.540
38519W        W 4928  27.601  24.609  14.307
38520W        W 4929  25.012  19.320  10.934
38521W        W 4930  33.854  10.190  10.372
38522W        W 4931  11.247  19.845   2.634
38523W        W 4932  29.194   9.091   3.671
38524W        W 4933  19.248  42.115   4.643
38525W        W 4934   8.775  12.845   1.956
38526W        W 4935  43.497   3.434  11.989
38527W        W 4936  11.637  23.620  10.596
38528W        W 4937  29.867   6.080  13.249
38529W        W 4938  16.323   4.515   3.649
38530W        W 4939   4.799  35.463   1.716
38531W        W 4940  10.843  38.480  13.604
38532W        W 4941  14.773  14.151   3.385
38533W        W 4942  41.364  12.389  14.498
38534W        W 4943   6.750  39.507  14.670
38535W        W 4944  18.076   4.860   2.234
38536W        W 4945   2.788  16.136  11.542
38537W        W 4946  32.277  39.214   0.677
38538W        W 4947  21.782  25.982   4.489
38539W        W 4948   6.067  10.107  14.827
38540W        W 4949   7.926  10.370  13.815
38541W        W 4950  25.048  26.895  13.033
38542W        W 4951  17.655  31.452   2.717
38543W        W 4952  15.659   6.281  11.801
38544W        W 4953  14.244  26.481  12.325
38545W        W 4954  43.337  35.435  14.285
38546W        W 4955  21.145  25.932   0.496
38547W        W 4956  36.000  42.542  12.928
38548W        W 4957  31.062  22.993  13.778
38549W        W 4958  40.546  28.590   0.146
38550W        W 4959  41.418  23.236  14.657
38551W        W 4960   9.579  40.844  14.987
38552W        W 4961  25.291  15.149   0.498
38553W        W 4962  27.172  40.516   2.271
38554W        W 4963   2.831  18.768   1.333
38555W        W 4964  42.200   5.214  12.329
38556W        W 4965  17.285  13.641  14.403
38557W        W 4966  23.799   0.176   0.303
38558W        W 4967  15.522   1.385  12.400
38559W        W 4968  35.413  16.517   0.011
38560W        W 4969   0.335  16.879   4.417
38561W        W 4970  44.743  19.921  13.296
38562W        W 4971  43.318  15.701   2.899
38563W        W 4972   4.233   4.826   0.315
38564W        W 4973   0.907   4.433   4.088
38565W        W 4974  27.953  12.606   0.994
38566W        W 4975   0.511  16.658  12.087
38567W        W 4976  32.911  36.839  13.368
38568W        W 4977  10.359  35.948  14.507
38569W        W 4978  43.391   9.620  13.800
38570W        W 4979   4.781  35.126  10.697
38571W        W 4980  38.635   7.180   3.428
38572W        W 4981  36.847  43.536   0.321
38573W        W 4982  14.426  25.335   2.223
38574W        W 4983  26.030   6.069  11.050
38575W        W 4984  24.992  36.803   2.851
38576W        W 4985  17.456  39.293  13.014
38577W        W 4986  19.580   5.179   2.289
38578W        W 4987  31.677   3.349   2.715
38579W        W 4988  21.588  12.138   0.032
38580W        W 4989  14.013   9.821  14.706
38581W        W 4990  40.011  44.829   0.990
38582W        W 4991  36.466   6.360  11.458
38583W        W 4992  13.849   5.444  14.479
38584W        W 4993   0.272   9.335   0.490
38585W        W 4994  35.813   8.967  14.036
38586W        W 4995   8.139  38.529  12.430
38587W        W 4996  35.604  40.992   0.478
38588W        W 4997  21.992   1.908  14.333
38589W        W 4998  43.063   8.782   0.825
38590W        W 4999  26.458  20.803   3.741
38591W        W 5000  33.384  41.509  14.960
38592W        W 5001  11.875   8.773  13.062
38593W        W 5002   0.249   0.829   4.480
38594W        W 5003   4.248   8.708  13.637
38595W        W 5004  32.340   7.860   4.038
38596W        W 5005  39.219  17.240  13.532
38597W        W 5006   7.661  17.851   1.836
38598W        W 5007   6.032   4.335   0.575
38599W        W 5008   0.070  23.244   1.424
38600W        W 5009  40.387  31.620   0.528
38601W        W 5010  35.014   8.963  13.053
38602W        W 5011   1.086   5.373   3.128
38603W        W 5012  25.223  21.260   4.062
38604W        W 5013   1.811  33.342   4.496
38605W        W 5014  42.709  29.570   1.256
38606W        W 5015  28.589   9.672  14.438
38607W        W 5016  28.954   1.226  12.032
38608W        W 5017  12.694  30.423  10.981
38609W        W 5018  26.023  27.218  12.907
38610W        W 5019  20.975  20.723   1.831
38611W        W 5020  40.868   0.512  12.823
38612W        W 5021  25.177   3.249  12.845
38613W        W 5022  16.165  27.584  14.512
38614W        W 5023  15.259  32.423  14.461
38615W        W 5024   9.257  13.511   1.412
38616W        W 5025  18.111   4.910  13.489
38617W        W 5026  19.892   1.949   3.392
38618W        W 5027  18.092  18.360  13.682
38619W        W 5028  38.759   4.096  10.798
38620W        W 5029  38.607  13.786   1.490
38621W        W 5030  19.332  35.342  10.669
38622W        W 5031  13.677  34.974  14.314
38623W        W 5032   5.813  28.352   9.910
38624W        W 5033  22.617   6.425  11.149
38625W        W 5034  13.058  11.102   1.881
38626W        W 5035  30.632  35.149  10.746
38627W        W 5036  11.685  15.730  12.764
38628W        W 5037  12.333  42.502  12.387
38629W        W 5038  14.728  23.959  11.137
38630W        W 5039  43.117  31.402  11.535
38631W        W 5040  36.925  17.078  11.652
38632W        W 5041  14.570  27.581  14.365
38633W        W 5042  25.106  19.470   0.414
38634W        W 5043  23.643  42.347  11.077
38635W        W 5044  10.331  30.495  12.631
38636W        W 5045  38.271  11.149   3.752
38637W        W 5046  19.833  31.499   0.705
38638W        W 5047   6.279  43.220   4.460
38639W        W 5048  41.379  42.249   2.276
38640W        W 5049   2.799   9.810   2.859
38641W        W 5050   4.569  44.350  14.935
38642W        W 5051  38.788  32.121   2.795
38643W        W 5052   5.851  18.912   2.309
38644W        W 5053  32.478  13.453  10.943
38645W        W 5054  26.863  38.793   5.021
38646W        W 5055   0.398  41.806  10.717
38647W        W 5056   4.717  39.797  12.888
38648W        W 5057  28.057  20.360  10.689
38649W        W 5058  16.036  20.274  14.388
38650W        W 5059  13.112  30.446   2.912
38651W        W 5060  21.102   7.244   2.611
38652W        W 5061  34.552   3.087   1.192
38653W        W 5062  11.315  37.092  11.719
38654W        W 5063   6.928   3.930   3.873
38655W        W 5064  31.155   7.340   0.278
38656W        W 5065  11.469  29.693  11.376
38657W        W 5066  43.124  31.633   0.713
38658W        W 5067   4.351  24.205   1.786
38659W        W 5068  36.252  43.736  13.860
38660W        W 5069  12.134  30.588   4.321
38661W        W 5070  26.705  31.690   0.105
38662W        W 5071   9.881  19.558  10.792
38663W        W 5072  31.601   5.354   4.266
38664W        W 5073  21.735  13.090  10.557
38665W        W 5074  14.204  35.815   0.213
38666W        W 5075  38.533  44.232  10.635
38667W        W 5076   8.396  38.950   4.186
38668W        W 5077  21.287   9.663  11.145
38669W        W 5078   3.904  10.735   3.132
38670W        W 5079  16.643  12.586   2.374
38671W        W 5080  26.955  43.899  13.432
38672W        W 5081  10.076  21.854   4.471
38673W        W 5082  10.305  37.610  13.780
38674W        W 5083  24.005  15.267  14.779
38675W        W 5084  11.363  32.187  13.795
38676W        W 5085  15.757  43.298  13.882
38677W        W 5086  26.790   9.846   3.269
38678W        W 5087  20.381  33.907   3.412
38679W        W 5088   6.022   0.463   3.268
38680W        W 5089  12.274  19.204  13.965
38681W        W 5090  13.405  10.685   4.317
38682W        W 5091  18.724   7.668  14.813
38683W        W 5092  39.989  20.567   1.924
38684W        W 5093  20.179  23.558  14.456
38685W        W 5094  12.259   5.144  11.660
38686W        W 5095  12.628  21.145   0.514
38687W        W 5096  12.027   6.523  12.569
38688W        W 5097  16.562  27.588  11.966
38689W        W 5098  35.869  22.559   3.589
38690W        W 5099   8.039  41.600   2.228
38691W        W 5100  11.054  36.361   2.510
38692W        W 5101   1.999  22.553   2.449
38693W        W 5102  39.257  15.467   0.019
38694W        W 5103  14.503  21.814  14.358
38695W        W 5104   8.352  13.622   2.808
38696W        W 5105  42.267  27.986   1.768
38697W        W 5106  31.771   1.832   0.496
38698W        W 5107  35.825   0.392  13.621
38699W        W 5108  16.681   5.140   0.333
38700W        W 5109  13.615  27.667   0.847
38701W        W 5110   3.892   3.221  13.649
38702W        W 5111  31.918   2.394  12.083
38703W        W 5112  16.798   3.852  14.089
38704W        W 5113  11.339  27.669  12.625
38705W        W 5114  42.095   1.952  11.633
38706W        W 5115  33.644  36.838  14.044
38707W        W 5116  18.224  10.761   1.870
38708W        W 5117  19.239  13.584   4.432
38709W        W 5118  28.236  35.026  14.938
38710W        W 5119  12.294   2.890  13.034
38711W        W 5120  31.894  23.306  13.542
38712W        W 5121   0.712  14.684  12.731
38713W        W 5122  18.973  31.107   2.747
38714W        W 5123  29.210  12.919  10.688
38715W        W 5124  22.926   2.964  13.921
38716W        W 5125  12.880   4.313   1.380
38717W        W 5126  38.463  17.619  14.579
38718W        W 5127  31.509   5.738  14.973
38719W        W 5128  25.771  12.875   3.613
38720W        W 5129   3.699   2.755  11.386
38721W        W 5130  26.527  11.232   0.435
38722W        W 5131  30.848   7.942  10.106
38723W        W 5132  29.390  36.953  12.948
38724W        W 5133  37.962  42.214  11.675
38725W        W 5134  31.298  35.150   2.755
38726W        W 5135   2.379   1.470  11.705
38727W        W 5136  32.128  32.844   4.240
38728W        W 5137   7.423  14.077  11.922
38729W        W 5138  44.303   2.384   1.874
38730W        W 5139   6.882  10.400  12.460
38731W        W 5140   5.509  11.826  14.909
38732W        W 5141  11.662  18.068   0.775
38733W        W 5142  33.941  12.080   3.187
38734W        W 5143  25.464   7.845   5.082
38735W        W 5144  39.829   8.764   2.410
38736W        W 5145  17.215  40.128   0.453
38737W        W 5146  18.679  14.773   4.744
38738W        W 5147   4.240   3.194   2.970
38739W        W 5148  10.414  29.426  14.096
38740W        W 5149  44.897  30.414  13.956
38741W        W 5150   8.125   7.400  13.484
38742W        W 5151  12.311   0.414   2.287
38743W        W 5152  32.097   9.932   4.589
38744W        W 5153  17.220  36.809  14.101
38745W        W 5154  44.874  33.490   2.230
38746W        W 5155  39.130   9.118  11.701
38747W        W 5156   0.884  27.542   1.260
38748W        W 5157   4.563  31.166  13.174
38749W        W 5158  33.658  26.299   1.860
38750W        W 5159  43.432  14.080  12.057
38751W        W 5160  44.942  13.578   4.255
38752W        W 5161  19.618  11.415  12.170
38753W        W 5162  18.543  19.649  14.968
38754W        W 5163  25.422  35.016   0.771
38755W        W 5164  10.625  23.618  10.685
38756W        W 5165  22.774  16.696   2.346
38757W        W 5166  25.298  15.295  12.185
38758W        W 5167  40.843  10.200  10.600
38759W        W 5168  39.844  30.386   0.431
38760W        W 5169  40.465  31.187  11.151
38761W        W 5170  21.261  43.074  13.007
38762W        W 5171  28.093  20.512   0.791
38763W        W 5172  29.136   2.747  12.049
38764W        W 5173  36.774   4.836  11.022
38765W        W 5174  21.054  14.209  12.291
38766W        W 5175  23.559   3.531  11.186
38767W        W 5176  12.768  32.883  12.575
38768W        W 5177  44.001  42.311  14.373
38769W        W 5178  10.231  44.469  14.771
38770W        W 5179  16.279  31.221  12.475
38771W        W 5180  44.464  40.367   2.346
38772W        W 5181  25.564   7.704  13.111
38773W        W 5182  41.981  28.215   3.642
38774W        W 5183  36.766  26.440   2.691
38775W        W 5184  23.494  34.530   1.968
38776W        W 5185  41.666  21.661   2.590
38777W        W 5186  18.206  16.702   3.673
38778W        W 5187  27.439  26.837   3.077
38779W        W 5188   2.427   3.423  14.956
38780W        W 5189  13.416   9.811   4.940
38781W        W 5190   5.753   2.217  12.180
38782W        W 5191  33.424  12.557  12.909
38783W        W 5192   7.315  43.160   1.651
38784W        W 5193  22.511  22.196   4.775
38785W        W 5194  24.495  14.745  12.071
38786W        W 5195  17.037  26.592   1.831
38787W        W 5196  20.191   9.766   1.470
38788W        W 5197  24.608  40.303   0.536
38789W        W 5198  11.441  36.029   1.184
38790W        W 5199  28.688  39.051  13.558
38791W        W 5200  26.326  40.935   4.291
38792W        W 5201  44.158  12.806   3.352
38793W        W 5202  11.638   1.632  11.177
38794W        W 5203  37.501  13.839   0.946
38795W        W 5204   6.637  34.555   2.660
38796W        W 5205  13.296  34.662   4.560
38797W        W 5206  11.129  30.840   0.043
38798W        W 5207  19.527  41.252  12.543
38799W        W 5208   8.172  20.542   2.952
38800W        W 5209  36.016   3.912   1.092
38801W        W 5210  35.653  16.441   3.118
38802W        W 5211  15.637  41.387   3.316
38803W        W 5212  32.402   3.975  13.406
38804W        W 5213  20.651  22.029  12.611
38805W        W 5214   6.685   4.767   2.340
38806W        W 5215  28.620  11.548  13.542
38807W        W 5216  18.268   0.837  14.400
38808W        W 5217   5.960  38.159  14.032
38809W        W 5218   1.283  18.078  13.356
38810W        W 5219  16.529  30.602  11.035
38811W        W 5220  23.423  26.613  14.958
38812W        W 5221   7.498  35.621   0.651
38813W        W 5222   1.589  38.839  11.277
38814W        W 5223   3.023  28.368   1.946
38815W        W 5224  25.734  26.298  13.544
38816W        W 5225   7.174   9.887  10.604
38817W        W 5226  34.668  26.600  14.472
38818W        W 5227  28.714  23.033  12.710
38819W        W 5228   3.800  14.555   4.665
38820W        W 5229  15.059   0.133   0.416
38821W        W 5230  38.982  18.308   3.783
38822W        W 5231  20.565  32.079  14.748
38823W        W 5232  39.883   9.209  14.834
38824W        W 5233   0.435  37.985   0.872
38825W        W 5234  19.801  42.716  11.197
38826W        W 5235  12.793  23.050  10.500
38827W        W 5236  36.884  40.978   1.507
38828W        W 5237  22.608   5.197   0.713
38829W        W 5238  44.396  29.703  10.657
38830W        W 5239  40.899  34.296   4.772
38831W        W 5240   4.015  15.057   0.926
38832W        W 5241  18.019  39.255   0.432
38833W        W 5242   0.013  25.190  13.544
38834W        W 5243  14.055  30.818  11.999
38835W        W 5244  44.482  38.389  12.952
38836W        W 5245  33.819  20.760  12.140
38837W        W 5246  10.405  37.080  10.256
38838W        W 5247  42.313  27.018  14.345
38839W        W 5248  38.871  16.919  13.315
38840W        W 5249  23.562  15.312  14.488
38841W        W 5250  22.424  34.284  12.610
38842W        W 5251  37.885  29.201   4.204
38843W        W 5252  40.792   9.280  11.049
38844W        W 5253   0.022   8.345  12.553
38845W        W 5254  31.455  41.305  12.995
38846W        W 5255  10.694  12.334   1.483
38847W        W 5256  24.166   9.947   0.477
38848W        W 5257  13.371  20.721   2.445
38849W        W 5258  44.171  37.924  12.059
38850W        W 5259   7.564  27.663  10.203
38851W        W 5260  10.174  31.366  10.624
38852W        W 5261  25.788  19.660  11.979
38853W        W 5262  25.074  25.760   0.887
38854W        W 5263   4.400  31.166   3.177
38855W        W 5264  32.480  38.510   1.195
38856W        W 5265  22.508   0.903  11.598
38857W        W 5266  23.638  20.585  11.587
38858W        W 5267  44.023   6.945  11.973
38859W        W 5268  33.662  44.282  11.974
38860W        W 5269  17.709   6.210   3.862
38861W        W 5270  14.845  11.887  14.140
38862W        W 5271   4.845   5.318   1.384
38863W        W 5272  42.099  31.940  14.995
38864W        W 5273  36.019  30.695   2.651
38865W        W 5274  18.118  24.447   3.181
38866W        W 5275  23.944   2.903  14.105
38867W        W 5276  30.554  42.578   4.641
38868W        W 5277  10.225  23.471   1.488
38869W        W 5278  32.394  41.110  14.796
38870W        W 5279  29.335   4.270  14.007
38871W        W 5280  26.230  40.392   5.053
38872W        W 5281  37.284  12.116   0.332
38873W        W 5282  23.163  15.378   4.189
38874W        W 5283  34.403  38.945   4.165
38875W        W 5284  26.350  43.799  13.549
38876W        W 5285  11.523  36.012   2.661
38877W        W 5286   8.374  41.603   4.521
38878W        W 5287  16.571  36.962  11.929
38879W        W 5288   5.988  11.691   3.131
38880W        W 5289  20.813  30.106  12.527
38881W        W 5290   0.005   9.266   2.497
38882W        W 5291  40.765  16.673  12.527
38883W        W 5292  14.184  19.443   4.606
38884W        W 5293   8.291  41.666   2.680
38885W        W 5294  35.101  33.115  12.655
38886W        W 5295  40.543   3.771   0.354
38887W        W 5296  43.353  27.869   4.193
38888W        W 5297  39.169  21.388   9.667
38889W        W 5298  22.773  24.792  10.669
38890W        W 5299  43.671   6.900  14.964
38891W        W 5300  24.140   4.177  11.122
38892W        W 5301  35.150   1.685   1.558
38893W        W 5302  40.463  33.917  11.531
38894W        W 5303  20.770  16.151   1.358
38895W        W 5304  23.278  24.034  10.708
38896W        W 5305  38.242  10.934  11.080
38897W        W 5306  15.307   9.768  14.410
38898W        W 5307  22.140  15.137   3.140
38899W        W 5308  20.556  35.135  11.103
38900W        W 5309  25.158  31.175  11.617
38901W        W 5310  26.437  24.918   0.104
38902W        W 5311   1.245  17.644  13.027
38903W        W 5312   2.442   5.313  14.294
38904W        W 5313   5.801  23.465   3.004
38905W        W 5314  27.533  18.677   3.109
38906W        W 5315  26.350  13.734   1.310
38907W        W 5316  14.046  43.460   3.226
38908W        W 5317  17.526   2.140  12.153
38909W        W 5318   7.930   7.552  11.208
38910W        W 5319  32.625  42.673   3.086
38911W        W 5320  28.556   2.490  14.232
38912W        W 5321  36.379  19.794  10.718
38913W        W 5322   6.696  26.928   4.206
38914W        W 5323  35.519   1.925   3.888
38915W        W 5324  26.377   3.604  12.662
38916W        W 5325  24.034  44.086  11.599
38917W        W 5326  27.443  26.155   0.305
38918W        W 5327   6.410  37.588  10.834
38919W        W 5328   0.431  16.851   3.642
38920W        W 5329   8.231  38.272  11.163
38921W        W 5330  10.838   0.740   3.133
38922W        W 5331  18.801   2.405   1.528
38923W        W 5332  29.542  30.149   4.188
38924W        W 5333   2.968  44.152   1.007
38925W        W 5334  19.521   7.498  14.860
38926W        W 5335  34.948  23.735   2.618
38927W        W 5336   5.312   4.208   3.282
38928W        W 5337  35.820  16.348   0.776
38929W        W 5338   0.390  44.433  12.765
38930W        W 5339   2.734  13.153  11.479
38931W        W 5340  21.229  24.935  11.594
38932W        W 5341  18.228   3.000   1.236
38933W        W 5342  36.046  18.624   2.462
38934W        W 5343  33.162  35.602   3.684
38935W        W 5344  21.754   6.899  13.301
38936W        W 5345  33.993  14.704  11.769
38937W        W 5346  29.049  18.141  13.952
38938W        W 5347  37.524  43.790   0.768
38939W        W 5348   6.982  22.773   4.746
38940W        W 5349  16.700   1.305  12.975
38941W        W 5350   5.255   5.316   2.715
38942W        W 5351  12.444  23.375  10.289
38943W        W 5352  10.098  33.883  12.555
38944W        W 5353  39.500  35.117  12.604
38945W        W 5354  23.510  19.490  13.866
38946W        W 5355  38.564  38.087   0.774
38947W        W 5356  16.883  20.752   3.656
38948W        W 5357  42.859   8.132   5.397
38949W        W 5358  12.201  37.480   9.601
38950W        W 5359  38.368  22.547   2.866
38951W        W 5360  11.871  29.689   3.220
38952W        W 5361  29.894  43.522   2.287
38953W        W 5362   9.242  16.070   0.103
38954W        W 5363  19.226  22.553   0.096
38955W        W 5364  17.612   5.225  10.387
38956W        W 5365  35.920  23.298  13.361
38957W        W 5366  31.707  42.552   2.720
38958W        W 5367  42.782  13.656  14.303
38959W        W 5368   2.709  32.230  11.607
38960W        W 5369   5.540   9.206   4.190
38961W        W 5370  24.208  33.594  14.286
38962W        W 5371  24.333   4.244  11.803
38963W        W 5372  32.539  32.650   2.644
38964W        W 5373  14.884   4.908   0.401
38965W        W 5374  37.289  11.576   4.133
38966W        W 5375  31.050  32.889   2.736
38967W        W 5376  16.162  10.395  11.574
38968W        W 5377  44.140  30.470   0.841
38969W        W 5378  20.719  15.198   1.470
38970W        W 5379  28.944  43.331   1.681
38971W        W 5380  41.492  18.113   3.522
38972W        W 5381  42.543  35.695   3.336
38973W        W 5382   2.388  15.270  12.150
38974W        W 5383   7.816  42.966   1.750
38975W        W 5384  14.460  44.016  10.325
38976W        W 5385   8.635  19.754   1.555
38977W        W 5386  10.937   1.427  14.795
38978W        W 5387  23.112   6.597  10.980
38979W        W 5388  37.900  26.015   3.002
38980W        W 5389  13.772  14.814   1.891
38981W        W 5390  36.286  24.624   2.035
38982W        W 5391  16.614  35.273  12.675
38983W        W 5392  29.208   1.450   4.694
38984W        W 5393  43.820  19.933  14.643
38985W        W 5394   2.712   5.181  13.876
38986W        W 5395  42.555  36.502   3.905
38987W        W 5396   5.407   0.356  14.535
38988W        W 5397  11.830  18.638  13.279
38989W        W 5398  25.153   9.168   3.978
38990W        W 5399  36.966  18.431   5.102
38991W        W 5400  33.808  32.638   1.980
38992W        W 5401  39.382  12.984  14.208
38993W        W 5402  11.335  29.947   2.950
38994W        W 5403  18.133  15.823  13.363
38995W        W 5404  37.995   8.354   3.743
38996W        W 5405  11.104  22.208  13.953
38997W        W 5406  12.228  40.699  14.348
38998W        W 5407   5.315   4.160   2.365
38999W        W 5408  31.424  33.541  14.109
39000W        W 5409  37.106  19.094  10.609
39001W        W 5410  24.330  28.511  12.437
39002W        W 5411  42.092  41.486  12.377
39003W        W 5412  37.967   5.834  13.136
39004W        W 5413   1.850  42.857  14.514
39005W        W 5414   0.470   6.606   4.560
39006W        W 5415  13.265  43.632  12.959
39007W        W 5416  17.766  14.504  11.215
39008W        W 5417  36.093   0.477  14.043
39009W        W 5418  10.236  28.012   0.358
39010W        W 5419  32.729  37.315  13.463
39011W        W 5420  25.001  40.814   2.767
39012W        W 5421  13.689  40.281   0.682
39013W        W 5422  42.830  44.554  12.008
39014W        W 5423   7.107  30.472   2.111
39015W        W 5424  12.100  34.776   3.168
39016W        W 5425  30.845  36.899   0.391
39017W        W 5426  14.879  31.999   4.629
39018W        W 5427  35.072  38.233  11.288
39019W        W 5428  10.832  32.918   3.618
39020W        W 5429  34.414  22.573   2.403
39021W        W 5430  32.864  35.495   4.281
39022W        W 5431   3.204  43.497  12.437
39023W        W 5432  36.037  43.277   1.942
39024W        W 5433  26.539  34.145  13.948
39025W        W 5434   3.794  40.986   1.372
39026W        W 5435  43.004  23.669   3.433
39027W        W 5436   0.758   5.901   1.227
39028W        W 5437  43.375  36.015  12.055
39029W        W 5438  12.515  33.944   3.111
39030W        W 5439  34.924  35.595  11.249
39031W        W 5440  16.236  14.749  10.851
39032W        W 5441   9.014   7.280   0.181
39033W        W 5442  32.440  39.357  12.476
39034W        W 5443  41.107  32.321  13.990
39035W        W 5444  10.331  21.849   0.787
39036W        W 5445   8.479  16.303   0.466
39037W        W 5446  33.200  13.671  12.566
39038W        W 5447   6.925  29.852   3.827
39039W        W 5448  11.891   1.064  14.714
39040W        W 5449  17.078  27.736  13.031
39041W        W 5450   4.250  23.606   4.510
39042W        W 5451  17.635  20.794  14.785
39043W        W 5452  43.071  37.960  13.331
39044W        W 5453  16.538  24.476   2.748
39045W        W 5454  39.158  42.302  13.144
39046W        W 5455  17.920   1.925   2.166
39047W        W 5456  44.784   4.390  14.472
39048W        W 5457   2.860  17.335  14.300
39049W        W 5458  28.026  40.763  10.754
39050W        W 5459  26.899   7.685   1.256
39051W        W 5460  26.274  37.080   0.657
39052W        W 5461  21.246   6.744  14.915
39053W        W 5462  11.365  40.346  14.717
39054W        W 5463  16.292  14.141  13.011
39055W        W 5464  27.149  30.125   4.236
39056W        W 5465   1.385  18.006  14.239
39057W        W 5466  19.568  19.331   4.877
39058W        W 5467  10.546  35.116   2.319
39059W        W 5468  21.597   0.216  10.654
39060W        W 5469  22.195  32.009  14.256
39061W        W 5470   6.799  34.858  10.228
39062W        W 5471   1.898  32.691   2.325
39063W        W 5472  36.791   2.036  14.534
39064W        W 5473   1.968  34.003  10.839
39065W        W 5474  42.046  12.342   3.192
39066W        W 5475  42.762  23.182   3.350
39067W        W 5476  32.976  24.650  14.361
39068W        W 5477  17.973   6.231  10.791
39069W        W 5478  38.628  13.299  12.820
39070W        W 5479  39.984  22.707   5.048
39071W        W 5480  25.263  28.010  14.964
39072W        W 5481  34.179  15.692  12.037
39073W        W 5482  25.660  17.883  14.843
39074W        W 5483  37.078  35.361  11.590
39075W        W 5484  18.093  41.888  11.241
39076W        W 5485   2.673  11.142   3.200
39077W        W 5486  29.511   4.774  13.809
39078W        W 5487  37.818  12.483   2.164
39079W        W 5488   0.750   5.666  13.334
39080W        W 5489  35.076   9.752  10.734
39081W        W 5490  15.716   3.091   0.406
39082W        W 5491  19.482  12.927  13.338
39083W        W 5492  14.581  24.001  10.643
39084W        W 5493  22.919  21.537   3.204
39085W        W 5494   4.367  43.375   2.203
39086W        W 5495   7.168  27.822   2.313
39087W        W 5496  33.045   6.376   2.876
39088W        W 5497  10.756  28.945  11.103
39089W        W 5498  13.866   3.229  14.490
39090W        W 5499  21.193  34.289  14.986
39091W        W 5500  25.847  21.373   0.279
39092W        W 5501  25.604  17.125   4.781
39093W        W 5502   0.782  11.335   1.313
39094W        W 5503  27.637  12.027   4.599
39095W        W 5504  43.638  28.116   0.211
39096W        W 5505   2.714  38.404  12.420
39097W        W 5506  42.420  20.513   4.891
39098W        W 5507  18.675   6.879  12.205
39099W        W 5508  33.619  28.507  13.184
39100W        W 5509  39.353  12.196   0.366
39101W        W 5510  30.877   8.734  13.918
39102W        W 5511  24.025  24.956  14.403
39103W        W 5512   9.701  35.861  12.509
39104W        W 5513  24.657  35.527  12.437
39105W        W 5514  35.908   9.797  13.338
39106W        W 5515  34.132  11.698  10.605
39107W        W 5516  20.693  14.625   2.848
39108W        W 5517   6.284   5.993   0.339
39109W        W 5518   6.472  36.883  12.823
39110W        W 5519  33.419  44.253   0.829
39111W        W 5520  23.029   5.099   1.646
39112W        W 5521  18.715  25.984   1.517
39113W        W 5522   4.642  26.029  12.134
39114W        W 5523   5.138  37.881   4.342
39115W        W 5524  43.307  40.398   3.634
39116W        W 5525  30.621  24.738  13.134
39117W        W 5526  11.175  39.158   3.207
39118W        W 5527  16.268  13.380  11.590
39119W        W 5528  10.018  29.023   4.457
39120W        W 5529  36.068  42.638  14.333
39121W        W 5530   7.978  42.463   0.670
39122W        W 5531  36.989   7.255  14.866
39123W        W 5532  35.548  10.193   3.633
39124W        W 5533  16.708  23.906  10.877
39125W        W 5534  43.017  37.459  13.557
39126W        W 5535  14.913  19.710  12.444
39127W        W 5536  10.952  26.527  10.501
39128W        W 5537  13.390  38.962   2.669
39129W        W 5538  20.561  21.259   0.885
39130W        W 5539   9.890  10.332   3.446
39131W        W 5540  41.561   9.797   1.976
39132W        W 5541   7.447   0.269  13.049
39133W        W 5542  21.435  31.520  13.736
39134W        W 5543  14.237  40.848   3.277
39135W        W 5544  22.146   6.014   4.385
39136W        W 5545  11.730  37.200  13.342
39137W        W 5546  12.711  37.634  13.430
39138W        W 5547  17.851  22.659  14.869
39139W        W 5548  29.460  22.159  10.453
39140W        W 5549  44.128  36.588   0.252
39141W        W 5550   9.720  38.006   4.388
39142W        W 5551  12.986   1.909   2.798
39143W        W 5552  31.616  44.365   3.997
39144W        W 5553   5.756  40.519  13.537
39145W        W 5554   8.888  40.249  10.611
39146W        W 5555  30.364   8.723  13.957
39147W        W 5556  42.593  34.374   4.376
39148W        W 5557  37.490  21.088  10.695
39149W        W 5558  25.152  32.411   0.703
39150W        W 5559  32.376  21.015  13.572
39151W        W 5560   3.904   7.888   2.733
39152W        W 5561  37.950   1.758   2.409
39153W        W 5562  41.789   6.066  13.870
39154W        W 5563  40.609  18.312  11.899
39155W        W 5564  40.853  20.462   2.030
39156W        W 5565  40.018   5.310  13.330
39157W        W 5566  34.393  38.024   2.644
39158W        W 5567  26.703  19.565  13.091
39159W        W 5568  21.282   5.245   0.494
39160W        W 5569  24.587  19.178  12.204
39161W        W 5570  12.251   0.218  14.896
39162W        W 5571  13.865  43.650  13.533
39163W        W 5572  35.489  11.294  13.001
39164W        W 5573  42.301   1.664   3.796
39165W        W 5574  34.164  22.910  12.038
39166W        W 5575  25.419  12.175  12.589
39167W        W 5576  21.001   5.890  11.502
39168W        W 5577  22.440  39.606  13.360
39169W        W 5578  25.181  32.896   1.957
39170W        W 5579  26.652  35.453  13.534
39171W        W 5580  31.399  31.658   1.810
39172W        W 5581  15.851  23.728  13.544
39173W        W 5582   0.922  23.967  12.043
39174W        W 5583  12.695   4.430  13.504
39175W        W 5584  31.047  24.403  13.833
39176W        W 5585  40.349  13.836   2.792
39177W        W 5586  40.020  30.138   3.195
39178W        W 5587  13.039  20.688  13.890
39179W        W 5588  16.784  17.825  14.920
39180W        W 5589  12.962   0.335  12.879
39181W        W 5590  35.629   2.528   4.684
39182W        W 5591   9.946  38.560   0.218
39183W        W 5592  39.077   1.999  12.465
39184W        W 5593  31.552  41.171   4.792
39185W        W 5594  25.599  44.517  12.877
39186W        W 5595  44.352  42.056  12.486
39187W        W 5596  19.579  32.358   2.805
39188W        W 5597  27.731  42.706   3.445
39189W        W 5598  17.280  37.141  12.403
39190W        W 5599  12.279  36.980  11.344
39191W        W 5600  22.392  26.936  12.764
39192W        W 5601   7.306  40.265   0.188
39193W        W 5602  32.783  42.479  11.453
39194W        W 5603  34.525  16.065  11.968
39195W        W 5604  20.579  17.704  14.733
39196W        W 5605   1.684  27.222  10.976
39197W        W 5606  12.226  40.708  10.171
39198W        W 5607  28.551   8.673  14.367
39199W        W 5608  21.248  23.718   2.337
39200W        W 5609  24.823   6.335  12.586
39201W        W 5610  24.158  43.505   2.903
39202W        W 5611   4.887  22.562  13.009
39203W        W 5612  29.916  27.867   3.668
39204W        W 5613  18.816   1.549  10.915
39205W        W 5614   1.727  20.925   4.099
39206W        W 5615  24.138  33.428   3.074
39207W        W 5616   8.366  29.456  12.746
39208W        W 5617   6.644  43.466   4.717
39209W        W 5618  27.748   5.963   2.516
39210W        W 5619  39.820  39.401  10.461
39211W        W 5620  17.316  14.765   0.864
39212W        W 5621  41.938  13.395  14.844
39213W        W 5622  11.664  34.528   3.304
39214W        W 5623   4.782  16.771  14.047
39215W        W 5624  32.461   2.058  13.524
39216W        W 5625  18.617  13.405  14.977
39217W        W 5626  23.518   9.875  12.046
39218W        W 5627  17.724  24.991   1.304
39219W        W 5628  36.841   8.085  13.528
39220W        W 5629   1.137  18.676   1.864
39221W        W 5630  18.101  26.116   0.235
39222W        W 5631  13.742  29.532   3.125
39223W        W 5632   3.884  41.753  11.660
39224W        W 5633  26.921  16.949  13.116
39225W        W 5634  18.697  14.590   3.707
39226W        W 5635  30.057  23.987  13.681
39227W        W 5636  12.086   7.656   4.546
39228W        W 5637  26.766  16.365  11.618
39229W        W 5638  16.670  18.310  14.771
39230W        W 5639  17.188  16.852   0.058
39231W        W 5640  38.460   5.169  12.373
39232W        W 5641  11.550   5.940  13.563
39233W        W 5642  29.137  37.763   0.492
39234W        W 5643  20.535  15.139   0.965
39235W        W 5644  18.077  26.523  12.011
39236W        W 5645  39.374  31.216  14.371
39237W        W 5646  24.543  19.064   1.275
39238W        W 5647  27.197  12.306   4.494
39239W        W 5648  33.203  13.345   0.820
39240W        W 5649  24.041  33.610   1.237
39241W        W 5650  16.020  36.377  13.368
39242W        W 5651  21.577  13.408  13.012
39243W        W 5652   3.512  25.202  10.750
39244W        W 5653  30.629  14.730  13.146
39245W        W 5654  39.279  11.204   4.761
39246W        W 5655  35.920  44.980   4.005
39247W        W 5656   9.801  14.138   2.814
39248W        W 5657  41.359   8.526   9.939
39249W        W 5658  17.998  30.526   2.267
39250W        W 5659  43.876  42.034  12.724
39251W        W 5660  20.122   3.340  11.018
39252W        W 5661  15.520   1.826   2.147
39253W        W 5662  44.036   3.229   1.427
39254W        W 5663   1.360  34.822  13.922
39255W        W 5664  22.664   4.293   4.314
39256W        W 5665   4.259  18.119   2.750
39257W        W 5666  41.819  22.502  12.036
39258W        W 5667  41.995  31.919   3.222
39259W        W 5668  20.869  24.443  13.818
39260W        W 5669  37.031  31.647  14.413
39261W        W 5670  32.538  41.388  12.144
39262W        W 5671  43.024  33.653  11.576
39263W        W 5672  34.081   0.540   0.846
39264W        W 5673  28.442  41.488   1.857
39265W        W 5674  25.519  18.403  14.859
39266W        W 5675   5.192  42.402   1.413
39267W        W 5676  39.322  26.393   1.423
39268W        W 5677   6.892  34.437   1.748
39269W        W 5678  40.464  16.265   3.023
39270W        W 5679   1.108   5.379   3.641
39271W        W 5680  24.101  33.036   2.142
39272W        W 5681  32.855  41.992  13.521
39273W        W 5682  32.669   0.987   1.304
39274W        W 5683  20.622  44.430  10.716
39275W        W 5684  42.774  22.446  11.886
39276W        W 5685  43.118  42.274   1.705
39277W        W 5686   9.534  29.610   2.304
39278W        W 5687  18.891  32.052  13.896
39279W        W 5688  38.323   7.355  12.979
39280W        W 5689  23.804   0.959   4.573
39281W        W 5690  29.343  29.080  10.900
39282W        W 5691  18.262  32.694   0.400
39283W        W 5692  31.485  22.972   3.147
39284W        W 5693   7.888  11.424   1.498
39285W        W 5694  16.236  17.009   4.730
39286W        W 5695   3.392  21.881  14.074
39287W        W 5696  42.332  18.857  13.762
39288W        W 5697   1.176  24.316  13.002
39289W        W 5698   6.217  25.292  10.956
39290W        W 5699   1.494  12.224   2.303
39291W        W 5700  14.809  40.386   1.113
39292W        W 5701  42.922  22.928   4.578
39293W        W 5702   9.602   8.602  12.062
39294W        W 5703   2.283   9.947  11.222
39295W        W 5704  33.336  36.765  13.056
39296W        W 5705   3.166  10.688   4.497
39297W        W 5706  32.062  22.680   2.593
39298W        W 5707   4.256  39.317  11.605
39299W        W 5708   3.829   6.936  14.995
39300W        W 5709  42.018   4.995   4.595
39301W        W 5710  34.489  18.524   4.056
39302W        W 5711   1.540  15.014   3.194
39303W        W 5712  38.633  13.845  10.726
39304W        W 5713   0.756   5.470  11.636
39305W        W 5714  23.745   8.588   2.782
39306W        W 5715  43.542  33.542   1.357
39307W        W 5716  10.779  10.918   1.286
39308W        W 5717  13.117  24.579   2.813
39309W        W 5718  44.836   8.459  14.419
39310W        W 5719  15.698  14.916  14.552
39311W        W 5720  15.725   6.518   1.265
39312W        W 5721  19.053  23.158  11.423
39313W        W 5722  12.681  31.872   2.184
39314W        W 5723  27.850  39.056   1.355
39315W        W 5724  15.553  11.612  12.064
39316W        W 5725  15.748  20.757   3.150
39317W        W 5726  27.229  11.598   1.722
39318W        W 5727  29.018  12.153  11.633
39319W        W 5728  36.848  27.692   1.697
39320W        W 5729   0.941  15.276   2.167
39321W        W 5730  29.654  14.668   0.529
39322W        W 5731   3.027  11.218  11.881
39323W        W 5732  29.726  36.540  13.513
39324W        W 5733  10.419  43.502   3.251
39325W        W 5734   6.865   0.335  12.395
39326W        W 5735  24.270  31.623   0.279
39327W        W 5736   4.892  26.090  11.690
39328W        W 5737  15.280  10.433  13.476
39329W        W 5738  32.133  13.728   2.827
39330W        W 5739  13.844  28.611  13.380
39331W        W 5740  44.996  34.355   3.972
39332W        W 5741  32.979   1.993  10.925
39333W        W 5742  15.454  40.885   1.727
39334W        W 5743  20.318  22.131   3.342
39335W        W 5744   5.926   0.454  10.998
39336W        W 5745  25.666  34.237   3.567
39337W        W 5746  42.932  37.996  14.461
39338W        W 5747  27.709  41.563  14.741
39339W        W 5748  20.997  33.557   4.196
39340W        W 5749  18.517  41.259   4.684
39341W        W 5750  12.854  17.607   1.295
39342W        W 5751  21.710   7.734  13.586
39343W        W 5752   7.541  43.806   0.885
39344W        W 5753  22.835  42.418  12.182
39345W        W 5754  16.008   2.438  10.855
39346W        W 5755  20.062   9.228  11.377
39347W        W 5756  16.587  28.652  13.986
39348W        W 5757  31.852  25.063  13.536
39349W        W 5758   4.177   5.467   1.035
39350W        W 5759  28.402  26.727  13.875
39351W        W 5760  39.209  39.453  13.015
39352W        W 5761  44.864  29.898   2.805
39353W        W 5762   1.632  22.697  10.717
39354W        W 5763   2.308  28.582  12.866
39355W        W 5764  33.025  44.937   1.710
39356W        W 5765  27.662  15.506  13.541
39357W        W 5766  24.729  15.347   0.731
39358W        W 5767  25.560   6.060   3.143
39359W        W 5768   3.294   8.274  10.577
39360W        W 5769  41.905  27.987  12.620
39361W        W 5770   9.682  10.087  12.540
39362W        W 5771   3.720  22.506  13.547
39363W        W 5772  16.010  38.394   1.145
39364W        W 5773   4.664  13.116   4.333
39365W        W 5774   2.977  25.090  14.993
39366W        W 5775  38.070  20.760  13.941
39367W        W 5776  18.337  16.251  12.040
39368W        W 5777   3.961  11.070  14.407
39369W        W 5778  12.115   4.000   4.839
39370W        W 5779   0.090  19.586  13.884
39371W        W 5780  37.225   5.069  10.937
39372W        W 5781  23.202   6.868  13.004
39373W        W 5782  37.753  14.844   4.897
39374W        W 5783  33.000  32.466  13.350
39375W        W 5784  29.370  36.521   1.189
39376W        W 5785   8.127  37.617   1.842
39377W        W 5786   0.807   9.178  11.177
39378W        W 5787   8.298  39.271  12.911
39379W        W 5788  17.596   4.259  13.484
39380W        W 5789  35.437  17.071  14.466
39381W        W 5790  20.511  43.835   2.604
39382W        W 5791  28.599   1.332   0.706
39383W        W 5792  44.550   5.284   3.224
39384W        W 5793  38.981  19.234   0.012
39385W        W 5794  12.053  36.127  14.917
39386W        W 5795  35.492  36.068   3.675
39387W        W 5796  16.206  30.451   3.909
39388W        W 5797  29.376  23.357  11.691
39389W        W 5798   7.262   9.979  14.248
39390W        W 5799  33.966  29.500  11.999
39391W        W 5800  37.664  35.104  12.040
39392W        W 5801  34.944   9.561  12.131
39393W        W 5802  16.521  28.467   2.286
39394W        W 5803  10.400  24.563  14.438
39395W        W 5804  16.341  31.059  14.903
39396W        W 5805  15.079   8.983  11.589
39397W        W 5806  32.066  16.839   1.808
39398W        W 5807  39.966  33.586   1.374
39399W        W 5808  20.633  22.145  11.522
39400W        W 5809  19.607  39.253   1.314
39401W        W 5810   2.716  30.203   0.830
39402W        W 5811  29.498   1.227  11.967
39403W        W 5812  22.717  21.299   2.790
39404W        W 5813  29.422  38.870   2.233
39405W        W 5814  15.260  26.585  11.600
39406W        W 5815  35.096   4.951  13.659
39407W        W 5816   2.216  25.830  12.065
39408W        W 5817  42.884  10.826   0.894
39409W        W 5818  14.910   9.849  12.609
39410W        W 5819   4.409  21.110   4.066
39411W        W 5820  33.325  35.433  14.912
39412W        W 5821  34.208  32.670  12.794
39413W        W 5822  19.793  12.303   1.894
39414W        W 5823   5.799   3.980   1.296
39415W        W 5824  10.871  44.397   3.088
39416W        W 5825   5.911  38.363   4.348
39417W        W 5826   9.897   7.949  10.337
39418W        W 5827   1.768  18.164   2.819
39419W        W 5828  32.327   0.360  13.871
39420W        W 5829  19.168  27.362  11.650
39421W        W 5830  43.931   3.342   3.174
39422W        W 5831   7.187  32.092   0.417
39423W        W 5832   6.246  37.156  14.214
39424W        W 5833  40.305  36.464   2.595
39425W        W 5834  32.632  42.023  14.898
39426W        W 5835  22.481  40.234  10.483
39427W        W 5836  40.317  24.468  10.969
39428W        W 5837   7.874  41.214   4.577
39429W        W 5838  22.345   8.331  13.923
39430W        W 5839  42.140  25.503   1.881
39431W        W 5840  14.237  18.297  13.885
39432W        W 5841  35.971  37.911  14.873
39433W        W 5842  37.469  17.025  13.456
39434W        W 5843   6.391  13.107  14.956
39435W        W 5844  13.133   2.455   4.639
39436W        W 5845  25.058  26.822  14.408
39437W        W 5846  27.283  20.583   4.785
39438W        W 5847   0.972  32.030  14.810
39439W        W 5848  38.609  44.831  12.023
39440W        W 5849  22.513  15.231  11.861
39441W        W 5850  36.645  32.951  13.054
39442W        W 5851  42.072  39.249  13.347
39443W        W 5852  21.621   1.198  12.055
39444W        W 5853  30.247   5.848   5.056
39445W        W 5854   2.475   0.682  10.692
39446W        W 5855   8.517  11.634   4.112
39447W        W 5856  32.159  21.232  13.064
39448W        W 5857   2.398   1.796   3.719
39449W        W 5858  35.347  11.605  13.436
39450W        W 5859  15.639  39.137  11.360
39451W        W 5860   1.817  30.176   1.198
39452W        W 5861   0.984  42.799  13.476
39453W        W 5862  39.899  14.199  14.766
39454W        W 5863   9.289  30.281  13.979
39455W        W 5864  38.837   2.482  11.475
39456W        W 5865   8.480  18.963   0.306
39457W        W 5866  35.116  15.735  11.147
39458W        W 5867  11.784  10.861  13.069
39459W        W 5868  37.951  22.041   3.338
39460W        W 5869  10.638  15.097   2.793
39461W        W 5870  41.480  28.668   4.434
39462W        W 5871   4.911   2.964   4.168
39463W        W 5872  21.098  12.398   1.295
39464W        W 5873  26.760  22.780  12.075
39465W        W 5874   3.943  38.286   1.477
39466W        W 5875  20.131   7.857   1.261
39467W        W 5876  26.194  44.607  13.535
39468W        W 5877  38.718  42.420   4.082
39469W        W 5878  38.627  23.745   1.362
39470W        W 5879  17.556  43.742  13.001
39471W        W 5880  11.808  30.062   1.677
39472W        W 5881  39.449  16.072  14.481
39473W        W 5882  23.645  17.828   0.281
39474W        W 5883  13.605  41.314  11.602
39475W        W 5884  15.055  33.737  11.964
39476W        W 5885  25.288  37.886  11.349
39477W        W 5886   0.847   7.484  13.288
39478W        W 5887   7.956  38.762   1.798
39479W        W 5888  16.621  41.823  10.684
39480W        W 5889  11.257  11.203   1.343
39481W        W 5890  38.877  12.739  11.177
39482W        W 5891  13.339  44.617  14.327
39483W        W 5892   1.793  30.396   1.894
39484W        W 5893  35.983   8.894   1.821
39485W        W 5894  22.000  28.171   4.054
39486W        W 5895  19.663  30.810   3.737
39487W        W 5896  28.407   4.129   3.741
39488W        W 5897  27.966  17.335  13.878
39489W        W 5898   3.700  33.982   0.870
39490W        W 5899  26.207  40.408  12.972
39491W        W 5900  34.902  20.062  11.148
39492W        W 5901  40.560  22.554   1.006
39493W        W 5902  17.514   8.600   4.178
39494W        W 5903  38.088  27.612  11.628
39495W        W 5904  40.932   0.755  13.311
39496W        W 5905  21.473  27.684   1.244
39497W        W 5906  16.006  24.721   5.003
39498W        W 5907  36.547  10.336  14.078
39499W        W 5908  18.501  35.665  14.554
39500W        W 5909  31.964  20.771  13.781
39501W        W 5910  22.578  14.837  10.377
39502W        W 5911  38.074   8.755   2.768
39503W        W 5912  21.988  31.956   4.058
39504W        W 5913  44.998  42.119   3.672
39505W        W 5914   5.400  28.606  13.087
39506W        W 5915  34.494   5.420  13.839
39507W        W 5916  24.536  31.100   3.355
39508W        W 5917  21.266  23.316  14.955
39509W        W 5918  33.692  14.573  13.902
39510W        W 5919  37.022  30.741   4.873
39511W        W 5920  26.229   0.953   3.732
39512W        W 5921  36.421  12.605   4.096
39513W        W 5922  43.937  23.696  14.656
39514W        W 5923  35.558  39.653  13.615
39515W        W 5924  22.959  11.825   0.834
39516W        W 5925  11.064  39.049   2.253
39517W        W 5926  42.443  43.547   3.731
39518W        W 5927  24.695  39.068   2.532
39519W        W 5928  14.570  32.333   0.624
39520W        W 5929  18.678  10.538   1.996
39521W        W 5930   9.629  35.105   3.203
39522W        W 5931  18.205   7.140   2.003
39523W        W 5932  14.585   6.245   1.706
39524W        W 5933  20.725   1.374   4.763
39525W        W 5934  12.788   6.212  14.007
39526W        W 5935  33.631   8.936  14.877
39527W        W 5936  39.422   1.875  10.722
39528W        W 5937  38.451   4.431  14.931
39529W        W 5938  39.576   0.923  13.706
39530W        W 5939   8.319  34.603  10.526
39531W        W 5940  19.470  27.992   0.948
39532W        W 5941  14.142  19.944   4.589
39533W        W 5942  31.307  18.706   1.056
39534W        W 5943  28.595  38.462   0.292
39535W        W 5944  32.288  22.854  11.576
39536W        W 5945   8.579  34.971   0.348
39537W        W 5946  19.357  23.579  12.631
39538W        W 5947  43.227  41.892  10.569
39539W        W 5948   9.871  35.590  10.673
39540W        W 5949  30.852  17.941  11.099
39541W        W 5950  29.715  26.024  14.806
39542W        W 5951  11.832  14.978  13.897
39543W        W 5952  39.287   5.865  11.583
39544W        W 5953  29.221  37.373   2.393
39545W        W 5954  26.656   3.718  14.331
39546W        W 5955  10.159  43.962   3.264
39547W        W 5956  26.388  26.913  14.679
39548W        W 5957  16.633   5.315   2.960
39549W        W 5958   7.165  18.642   1.749
39550W        W 5959  29.985  27.346   3.617
39551W        W 5960   5.702  15.396   4.056
39552W        W 5961  27.244   9.746   2.962
39553W        W 5962  15.168  19.584   3.204
39554W        W 5963   9.717  28.977   1.137
39555W        W 5964  37.858  35.347   4.938
39556W        W 5965  22.154   9.904  14.257
39557W        W 5966  19.319  28.655   1.689
39558W        W 5967  25.167  32.477   4.605
39559W        W 5968  19.163  20.552   0.729
39560W        W 5969  10.085   3.265   0.978
39561W        W 5970  23.734   0.450   2.016
39562W        W 5971   9.237  43.794   1.842
39563W        W 5972  28.568  12.281  14.138
39564W        W 5973  30.090  23.959   1.634
39565W        W 5974   8.111  29.989   4.842
39566W        W 5975   5.600  13.771   4.776
39567W        W 5976  40.919  19.446   2.184
39568W        W 5977  43.710   1.971  13.945
39569W        W 5978  29.423  29.650   3.274
39570W        W 5979  19.761  25.569   4.646
39571W        W 5980  14.635  44.064   2.786
39572W        W 5981  24.200  21.691   2.449
39573W        W 5982   7.440  11.904  14.866
39574W        W 5983   3.842  27.766   4.717
39575W        W 5984  41.530  17.658   2.293
39576W        W 5985  33.088  41.639   1.741
39577W        W 5986  15.655  15.085  13.804
39578W        W 5987  17.557  40.693   3.067
39579W        W 5988  41.806  11.026  12.366
39580W        W 5989  32.578  26.438   2.805
39581W        W 5990  31.261  24.194  12.531
39582W        W 5991  17.744  15.294   4.802
39583W        W 5992   1.241  12.157   1.465
39584W        W 5993  22.038  17.532  14.276
39585W        W 5994  34.158  23.649  10.986
39586W        W 5995   5.429  19.760  11.569
39587W        W 5996  24.579  34.981  13.421
39588W        W 5997  28.459  31.632   1.465
39589W        W 5998  43.828  38.912  14.912
39590W        W 5999   3.777  41.747   4.227
39591W        W 6000  21.281  17.069  14.764
39592W        W 6001  12.737  13.179   2.436
39593W        W 6002  10.939  25.311  14.359
39594W        W 6003  14.565  12.509  11.178
39595W        W 6004  12.075  40.582   2.721
39596W        W 6005  28.478  36.001  12.445
39597W        W 6006   5.936  10.258   3.718
39598W        W 6007  18.397  25.636   1.227
39599W        W 6008  37.038  26.087  13.415
39600W        W 6009  36.965   6.664   3.570
39601W        W 6010  44.721  37.637  11.116
39602W        W 6011  22.184  40.504  13.023
39603W        W 6012   2.842  19.095   2.495
39604W        W 6013   9.819  27.137  12.163
39605W        W 6014  11.686   1.606  13.494
39606W        W 6015  36.578  21.394   4.776
39607W        W 6016  10.494  24.256   1.119
39608W        W 6017  43.920  32.896  13.977
39609W        W 6018  26.186  34.132   3.878
39610W        W 6019  19.289  39.339   2.410
39611W        W 6020  21.547  14.212   0.814
39612W        W 6021   7.156  33.573  12.690
39613W        W 6022  29.418  19.711   1.221
39614W        W 6023   0.264   3.918   3.017
39615W        W 6024  21.557  31.594   1.321
39616W        W 6025  27.967  16.489  13.461
39617W        W 6026  20.789  11.095  13.259
39618W        W 6027  16.006  31.465  14.852
39619W        W 6028  31.012  36.331  11.145
39620W        W 6029  19.473  30.061   3.249
39621W        W 6030  21.181   4.461  12.989
39622W        W 6031  17.993  36.163  11.127
39623W        W 6032  19.125  34.868  13.426
39624W        W 6033  22.242  13.803   2.982
39625W        W 6034  13.321  44.842  13.823
39626W        W 6035  23.071  40.576   4.941
39627W        W 6036  44.929  40.873  13.834
39628W        W 6037  21.626  15.048  14.763
39629W        W 6038  31.032   7.946  11.620
39630W        W 6039  33.320  30.694  14.528
39631W        W 6040  16.119  42.795   1.663
39632W        W 6041  37.052  40.410   0.761
39633W        W 6042  40.356  20.005  13.606
39634W        W 6043  40.516  14.290  12.144
39635W        W 6044  36.320  15.696   3.666
39636W        W 6045  29.847  43.034  10.753
39637W        W 6046  12.403  17.753  14.874
39638W        W 6047  13.003  33.093   2.118
39639W        W 6048  26.049  22.422  13.164
39640W        W 6049  42.518  19.870  10.454
39641W        W 6050  43.570  10.197  14.824
39642W        W 6051  20.987   1.157   3.008
39643W        W 6052  21.349  33.886  10.759
39644W        W 6053  35.565  13.354   1.355
39645W        W 6054  16.035  35.462   0.519
39646W        W 6055  26.744  41.594  14.950
39647W        W 6056  43.525   1.826   1.885
39648W        W 6057  40.907   0.264   4.566
39649W        W 6058  38.784  42.883   3.829
39650W        W 6059   8.899  28.458   0.022
39651W        W 6060  38.971   8.983  10.110
39652W        W 6061   4.060  25.021  12.860
39653W        W 6062   9.413  40.413   4.103
39654W        W 6063  25.742  43.820   3.381
39655W        W 6064  41.709  18.026   1.350
39656W        W 6065  32.196   5.747   3.234
39657W        W 6066   6.172   9.144  10.804
39658W        W 6067   5.018  19.273  12.520
39659W        W 6068  36.020  36.413   4.303
39660W        W 6069  27.484  33.235  12.476
39661W        W 6070   8.228  25.071   0.682
39662W        W 6071  43.742   1.551  14.810
39663W        W 6072  43.666  10.682   0.022
39664W        W 6073   6.348  24.560   1.438
39665W        W 6074  40.870  30.915   0.907
39666W        W 6075   6.490  13.847   0.532
39667W        W 6076  31.202  35.638  13.204
39668W        W 6077  42.940  42.795  11.942
39669W        W 6078  31.173  14.232  11.699
39670W        W 6079  22.425  27.193  10.175
39671W        W 6080   6.844  27.832   4.482
39672W        W 6081  34.940  14.207  11.987
39673W        W 6082  41.499  26.301  14.047
39674W        W 6083  33.575  20.703   3.631
39675W        W 6084  27.669  14.801   2.201
39676W        W 6085  22.335  37.261  12.733
39677W        W 6086  32.780  33.060  13.902
39678W        W 6087  44.709  37.460   1.861
39679W        W 6088  38.887   6.186  13.887
39680W        W 6089  29.264  17.281  13.856
39681W        W 6090  39.904  31.891   0.295
39682W        W 6091  33.501  10.870  14.087
39683W        W 6092  35.987  39.052  12.587
39684W        W 6093  27.426  24.672  11.644
39685W        W 6094   0.047  39.524  13.924
39686W        W 6095   5.922  32.119  11.014
39687W        W 6096  14.408  27.084   1.650
39688W        W 6097  33.034  32.265  14.049
39689W        W 6098   2.767  21.185  10.242
39690W        W 6099  44.945  19.726  12.862
39691W        W 6100   1.053  21.826  11.641
39692W        W 6101  18.887  14.328   1.945
39693W        W 6102   5.008   7.807   3.699
39694W        W 6103  44.991  39.705  13.424
39695W        W 6104   5.005  11.782   0.013
39696W        W 6105   4.258  11.338  10.479
39697W        W 6106  12.169  20.256  13.311
39698W        W 6107  25.595   4.682  10.015
39699W        W 6108  12.299  40.003  10.546
39700W        W 6109  36.477  40.473   9.524
39701W        W 6110  38.119  22.493   3.597
39702W        W 6111  13.278  32.666   3.334
39703W        W 6112   8.269  35.977   4.210
39704W        W 6113   1.049   4.863   0.456
39705W        W 6114  19.231  10.095  10.510
39706W        W 6115   4.342  11.840  14.484
39707W        W 6116  31.355  40.380  13.390
39708W        W 6117  38.624   8.147  12.672
39709W        W 6118  26.679  10.046   5.024
39710W        W 6119  11.059  10.893   0.853
39711W        W 6120  18.821  43.817   4.841
39712W        W 6121  17.377  24.246  12.965
39713W        W 6122   8.184  41.171   2.479
39714W        W 6123  22.548  10.941  13.374
39715W        W 6124  33.876   2.017  14.908
39716W        W 6125  35.237   6.748  12.905
39717W        W 6126  21.684  11.384  11.493
39718W        W 6127  25.083  12.334   4.292
39719W        W 6128   9.935  43.531   0.772
39720W        W 6129  36.286  18.322  11.390
39721W        W 6130   3.512  39.954  13.438
39722W        W 6131  22.667  30.950  11.890
39723W        W 6132   3.842  10.316   0.983
39724W        W 6133  26.516  44.525  13.928
39725W        W 6134  28.843  44.728   3.219
39726W        W 6135  38.111   8.044  12.617
39727W        W 6136   2.058  23.478   0.456
39728W        W 6137  43.407   6.371   2.822
39729W        W 6138  32.443   3.951   4.819
39730W        W 6139  31.144  38.919   2.356
39731W        W 6140  17.871  13.217  11.624
39732W        W 6141  26.298  21.573  11.610
39733W        W 6142   7.704   5.268   2.461
39734W        W 6143  36.560  38.757   0.353
39735W        W 6144  16.272  22.247  14.348
39736W        W 6145  23.517  11.342  11.083
39737W        W 6146  16.640  39.993  14.393
39738W        W 6147  40.025  18.675  12.593
39739W        W 6148  32.945   7.843   1.908
39740W        W 6149  43.149  12.696  10.141
39741W        W 6150   4.656  30.588   2.204
39742W        W 6151  17.135  37.088  11.063
39743W        W 6152   3.924  20.963  11.644
39744W        W 6153  37.351  28.906  13.356
39745W        W 6154  13.842  41.480  10.448
39746W        W 6155  34.676  22.279  11.168
39747W        W 6156   5.377  27.015   3.314
39748W        W 6157  14.684  13.770  12.408
39749W        W 6158  26.483  23.100   3.598
39750W        W 6159  38.108  34.769   4.115
39751W        W 6160  10.249  41.005   2.670
39752W        W 6161  11.424  14.181  11.213
39753W        W 6162  10.808   5.392  10.660
39754W        W 6163  10.164  16.823  12.148
39755W        W 6164  28.088  17.174   4.975
39756W        W 6165  12.767   3.208  14.869
39757W        W 6166  21.638  17.605   1.441
39758W        W 6167   4.465   2.002   3.621
39759W        W 6168  12.542  35.083  12.984
39760W        W 6169   9.734  18.223  14.798
39761W        W 6170  22.721  20.257   2.135
39762W        W 6171  27.091  14.106  14.017
39763W        W 6172   0.021  30.157   4.198
39764W        W 6173  16.038  14.531   3.579
39765W        W 6174   7.983  16.199  12.351
39766W        W 6175  31.321  24.476  11.426
39767W        W 6176   2.361  17.991   1.233
39768W        W 6177  43.483  39.602   1.746
39769W        W 6178  30.623  10.474   2.587
39770W        W 6179  26.658  28.152   2.189
39771W        W 6180  31.868  30.979   0.477
39772W        W 6181  36.317  32.117  11.182
39773W        W 6182  20.819   4.949  13.863
39774W        W 6183  11.761  19.495  10.719
39775W        W 6184  37.817  17.380   2.036
39776W        W 6185  36.422  28.621   4.407
39777W        W 6186  23.133  12.071   3.633
39778W        W 6187  21.644  33.354   4.838
39779W        W 6188  13.828  11.399   0.719
39780W        W 6189  21.517  12.297   3.309
39781W        W 6190   1.968  12.043  14.908
39782W        W 6191  21.275   9.655   3.318
39783W        W 6192  20.403  26.230  12.119
39784W        W 6193  11.381  15.082  11.100
39785W        W 6194   4.905  40.028   2.198
39786W        W 6195  17.122  23.620   1.938
39787W        W 6196  44.588   1.779  13.347
39788W        W 6197  41.226  26.571   0.098
39789W        W 6198  10.331   4.961  13.327
39790W        W 6199  25.396  23.775  13.294
39791W        W 6200   0.860  19.142   0.257
39792W        W 6201  15.237   9.848   0.765
39793W        W 6202  25.699  40.831  13.391
39794W        W 6203  37.455  42.343  11.571
39795W        W 6204  42.281  42.604  11.190
39796W        W 6205  39.465  17.616  12.793
39797W        W 6206  32.590  42.856  11.182
39798W        W 6207  21.218  11.281  13.049
39799W        W 6208  36.287  27.696   0.378
39800W        W 6209  37.228  43.316  14.899
39801W        W 6210   9.944  40.321  12.428
39802W        W 6211  21.730  22.736  14.036
39803W        W 6212  31.094  22.718   3.454
39804W        W 6213   3.705  34.184  13.436
39805W        W 6214  36.589  42.203  12.887
39806W        W 6215  14.059   9.380  13.502
39807W        W 6216  35.753  11.268   2.982
39808W        W 6217  41.308  35.990  11.607
39809W        W 6218   7.148  12.832  11.788
39810W        W 6219  18.697  15.871   3.728
39811W        W 6220  41.742  35.127   5.100
39812W        W 6221  34.147   4.197  13.380
39813W        W 6222  38.616  31.813  10.428
39814W        W 6223   3.235  30.964   4.504
39815W        W 6224   3.794  37.585  12.643
39816W        W 6225  27.671  23.197   4.132
39817W        W 6226   4.846  15.559   1.285
39818W        W 6227  15.940  10.617  14.919
39819W        W 6228  17.874  36.427  12.033
39820W        W 6229  23.977   4.005  13.993
39821W        W 6230  15.365   4.227   0.360
39822W        W 6231   6.376  38.051  14.367
39823W        W 6232  21.826   2.487  14.506
39824W        W 6233  36.028  35.410  11.704
39825W        W 6234  11.154  37.697  13.929
39826W        W 6235  39.816   5.814  11.645
39827W        W 6236  38.580  35.914   0.352
39828W        W 6237  19.153  16.344   0.269
39829W        W 6238  16.100  26.692   2.447
39830W        W 6239  21.491  11.867  14.309
39831W        W 6240  30.923  36.425   3.837
39832W        W 6241   4.010  29.407   2.882
39833W        W 6242  38.464  32.475  11.652
39834W        W 6243  28.525  19.279  11.173
39835W        W 6244   1.335  29.886  13.030
39836W        W 6245  10.227   6.355   3.033
39837W        W 6246  29.217  26.526  11.321
39838W        W 6247  35.927  25.049   3.411
39839W        W 6248  32.399  33.743   4.712
39840W        W 6249  24.058  29.688  10.756
39841W        W 6250  36.169  10.206   1.287
39842W        W 6251  43.033   1.810   1.731
39843W        W 6252  33.590   6.805  14.284
39844W        W 6253   5.535   5.449   1.306
39845W        W 6254   1.352  32.577  12.697
39846W        W 6255   0.229  32.430   1.933
39847W        W 6256  36.401  37.762  12.901
39848W        W 6257  19.606  21.686  10.718
39849W        W 6258  26.899  25.220  11.231
39850W        W 6259   4.749  28.882   2.826
39851W        W 6260  41.476   8.274  12.360
39852W        W 6261  34.858  40.633  14.029
39853W        W 6262  40.056  27.104   3.799
39854W        W 6263  41.741  35.364   4.619
39855W        W 6264   7.644  44.359   4.180
39856W        W 6265  42.798   7.265   3.267
39857W        W 6266   4.731   0.509  14.893
39858W        W 6267   6.309  42.167  14.552
39859W        W 6268   1.283  32.945   1.283
39860W        W 6269   9.868  13.551  10.557
39861W        W 6270  26.582  21.195  14.621
39862W        W 6271  32.408  40.292  12.898
39863W        W 6272  17.272  37.961  12.217
39864W        W 6273  43.474  14.775  14.884
39865W        W 6274   4.504  36.798   0.172
39866W        W 6275   3.669  28.990   2.789
39867W        W 6276  29.587  10.298  12.589
39868W        W 6277  10.887  20.255  13.931
39869W        W 6278  39.872  10.902   3.320
39870W        W 6279  42.368   3.724  14.915
39871W        W 6280  44.007  29.267   2.191
39872W        W 6281   0.186   5.892  12.008
39873W        W 6282  19.689  17.756  14.609
39874W        W 6283  29.337  27.145  14.094
39875W        W 6284  28.664  25.612   2.767
39876W        W 6285  10.120  26.059  10.520
39877W        W 6286   8.263  12.867  14.651
39878W        W 6287  41.423   0.192  14.428
39879W        W 6288  23.138  18.293   4.695
39880W        W 6289   9.755  23.661  12.421
39881W        W 6290   8.480  38.612  14.078
39882W        W 6291  36.586  20.578   4.094
39883W        W 6292  14.471   9.159  11.175
39884W        W 6293  30.127  25.417  14.021
39885W        W 6294  43.298  30.919   4.322
39886W        W 6295  42.946  30.797   4.993
39887W        W 6296   0.536   3.174  11.193
39888W        W 6297   0.891  23.272   2.163
39889W        W 6298  37.047  20.265   4.158
39890W        W 6299  15.407   7.663  10.778
39891W        W 6300  31.753  33.590  14.509
39892W        W 6301  37.815  25.200  14.606
39893W        W 6302  36.044   4.526   3.174
39894W        W 6303  41.810  44.654   3.856
39895W        W 6304  24.467  18.406  14.695
39896W        W 6305  14.415  19.266   2.802
39897W        W 6306  22.285  16.817  14.983
39898W        W 6307  23.513   8.229  14.492
39899W        W 6308  18.448  33.655  10.335
39900W        W 6309  27.084  44.850  13.070
39901W        W 6310  36.505   2.857  14.395
39902W        W 6311  29.310  42.231  14.724
39903W        W 6312  32.925  24.506  12.973
39904W        W 6313  33.451   9.098   4.640
39905W        W 6314  32.086  37.873  11.889
39906W        W 6315   8.121  44.576   0.852
39907W        W 6316  13.979  33.894   0.309
39908W        W 6317  40.972  44.893  14.530
39909W        W 6318   9.986  17.046  14.317
39910W        W 6319  35.116  15.668   2.240
39911W        W 6320  15.791  18.083   0.103
39912W        W 6321  10.775  12.109  13.470
39913W        W 6322  15.219  42.192  13.858
39914W        W 6323  42.516  35.478  14.412
39915W        W 6324   7.150  31.788  11.229
39916W        W 6325  23.725  28.029   3.714
39917W        W 6326   8.371  38.982  12.502
39918W        W 6327  22.004  17.794   2.808
39919W        W 6328  33.404  41.821  13.035
39920W        W 6329  44.443   7.741  14.021
39921W        W 6330  11.221   6.613  13.032
39922W        W 6331  39.321  39.345   3.325
39923W        W 6332  21.256  25.306  10.274
39924W        W 6333  36.065  35.021  14.984
39925W        W 6334   2.566  32.989   4.988
39926W        W 6335  44.327   8.180   4.137
39927W        W 6336  16.147  26.297   2.084
39928W        W 6337  16.700  30.961  12.337
39929W        W 6338  31.562  23.785   3.530
39930W        W 6339  12.362  32.583  14.948
39931W        W 6340   6.211  34.381  11.124
39932W        W 6341  44.997  27.597   3.567
39933W        W 6342  25.494   4.753   3.627
39934W        W 6343  27.348   0.280  11.654
39935W        W 6344  31.639  13.699   2.629
39936W        W 6345   0.903  13.598   2.690
39937W        W 6346  30.971  44.472  14.425
39938W        W 6347  37.484  40.856  13.278
39939W        W 6348  26.041  18.528   2.115
39940W        W 6349  18.056   2.144  14.959
39941W        W 6350  20.494  34.033   4.796
39942W        W 6351  41.179  33.328  10.151
39943W        W 6352   2.214  23.989   3.178
39944W        W 6353  25.463  31.808   2.565
39945W        W 6354  17.348  27.481  12.669
39946W        W 6355  35.159  12.621   1.903
39947W        W 6356  44.155  12.800  10.364
39948W        W 6357  22.714  24.777   4.516
39949W        W 6358  19.176  14.685  10.440
39950W        W 6359   9.845  21.511   4.161
39951W        W 6360  37.251   6.737   4.596
39952W        W 6361  34.757  30.245   4.977
39953W        W 6362  10.310  29.442   0.397
39954W        W 6363   6.132   6.171   2.610
39955W        W 6364  27.950  35.134   3.103
39956W        W 6365   2.216  42.476  14.639
39957W        W 6366  40.528  44.175   2.590
39958W        W 6367  42.214  15.692  12.931
39959W        W 6368  23.485  14.702   0.154
39960W        W 6369  22.635  14.619  11.205
39961W        W 6370   2.436   1.959  13.796
39962W        W 6371  21.773  20.177  10.648
39963W        W 6372  44.366  29.886  11.139
39964W        W 6373  39.053  44.002  13.367
39965W        W 6374  34.272  32.275  14.970
39966W        W 6375  16.190   4.085  14.820
39967W        W 6376  27.133  14.436   2.862
39968W        W 6377  44.566  33.455   1.174
39969W        W 6378  28.281  29.178  13.845
39970W        W 6379  14.243  24.796   3.650
39971W        W 6380  44.435  37.485  12.969
39972W        W 6381  26.497   5.383   1.694
39973W        W 6382  39.448   5.776  12.897
39974W        W 6383  26.626  40.767  11.833
39975W        W 6384  32.690   5.455  10.289
39976W        W 6385  24.244  17.152  11.609
39977W        W 6386   4.345  12.728  11.719
39978W        W 6387  28.978  38.033  14.015
39979W        W 6388  13.229  31.157   0.467
39980W        W 6389   5.468   3.579  11.000
39981W        W 6390  38.527  25.856  14.876
39982W        W 6391   8.575   3.486   0.818
39983W        W 6392  17.044  22.093   2.723
39984W        W 6393  34.655   0.069   3.901
39985W        W 6394  10.217   2.598  13.779
39986W        W 6395  34.845  10.916   2.760
39987W        W 6396   1.268  43.065  14.275
39988W        W 6397  19.922   3.433   3.829
39989W        W 6398   0.249  39.473   1.555
39990W        W 6399  13.108  42.198   4.907
39991W        W 6400  25.818  20.570   4.784
39992W        W 6401  41.577   0.324   3.904
39993W        W 6402  32.714   9.520  12.883
39994W        W 6403  38.916  38.388   1.309
39995W        W 6404  23.864  15.350   3.345
39996W        W 6405  16.547  23.702   4.217
39997W        W 6406  12.577  38.495   1.421
39998W        W 6407  30.163  41.426   2.204
39999W        W 6408  42.746   1.147  13.849
40000W        W 6409  11.520   9.084   3.588
40001W        W 6410  23.570  11.930   3.910
40002W        W 6411  11.564  20.246   2.382
40003W        W 6412   0.797  14.693   3.510
40004W        W 6413   2.922  19.718   4.848
40005W        W 6414  12.777  29.438   4.577
40006W        W 6415   8.731  30.401  12.421
40007W        W 6416  41.830  41.368   3.908
40008W        W 6417  26.204  14.046   4.264
40009W        W 6418  36.226  43.499   2.900
40010W        W 6419   5.661  43.578   2.776
40011W        W 6420  42.329   1.864  10.811
40012W        W 6421  41.911  42.955   0.728
40013W        W 6422  27.574  32.394   3.327
40014W        W 6423  26.508  31.504  12.148
40015W        W 6424  34.195  23.106   3.070
40016W        W 6425  14.124   8.186   3.832
40017W        W 6426  42.946   4.990  14.903
40018W        W 6427  35.081  32.606   2.851
40019W        W 6428  15.571  26.433   3.238
40020W        W 6429  44.827  37.962   4.223
40021W        W 6430  34.694   4.420   1.437
40022W        W 6431  27.078   0.475   2.776
40023W        W 6432  19.446   7.812  11.143
40024W        W 6433  14.828  32.681   1.281
40025W        W 6434  21.253  21.454  10.832
40026W        W 6435  41.294  22.116   3.695
40027W        W 6436  31.024  23.157   3.178
40028W        W 6437  15.636  21.974  13.507
40029W        W 6438  23.041   1.210  12.248
40030W        W 6439  29.892   8.743   9.995
40031W        W 6440  29.159   6.202   2.726
40032W        W 6441  18.733  19.582  11.550
40033W        W 6442   5.179   4.409   0.210
40034W        W 6443  28.621  12.882  12.626
40035W        W 6444  42.924  18.616  10.798
40036W        W 6445  12.641  24.005   4.379
40037W        W 6446   4.038  18.065   4.039
40038W        W 6447  34.668  40.372   1.433
40039W        W 6448  30.811  43.692  13.881
40040W        W 6449  24.247  22.633  14.318
40041W        W 6450  10.711  26.570   0.762
40042W        W 6451  23.153  15.121  12.977
40043W        W 6452   9.131   7.197  14.382
40044W        W 6453   4.316  39.012   1.961
40045W        W 6454   5.882  43.327   3.185
40046W        W 6455  29.658  30.048  12.353
40047W        W 6456  16.126  29.330   2.328
40048W        W 6457  37.493  25.001   1.588
40049W        W 6458  44.283  32.594   2.228
40050W        W 6459  15.195  12.698   2.224
40051W        W 6460   9.805  15.449  11.104
40052W        W 6461  28.661  28.036  11.889
40053W        W 6462  11.807   3.727   3.556
40054W        W 6463  32.009   2.017  11.462
40055W        W 6464  14.276  14.385  12.069
40056W        W 6465   2.487  24.204  13.379
40057W        W 6466  36.906  15.528  13.028
40058W        W 6467  27.963  17.182  14.366
40059W        W 6468   3.405  12.140  14.501
40060W        W 6469   4.307  15.808  13.470
40061W        W 6470  21.407  44.256  11.955
40062W        W 6471  25.899  23.705  13.331
40063W        W 6472   7.298  22.461  13.314
40064W        W 6473  27.245  11.657  12.484
40065W        W 6474  14.120  41.954   3.256
40066W        W 6475  24.422   2.678  11.945
40067W        W 6476  44.062  21.737   1.329
40068W        W 6477  44.679  37.096   4.640
40069W        W 6478  25.213  37.785   0.906
40070W        W 6479   8.323   9.208  13.192
40071W        W 6480  27.511  28.275  11.627
40072W        W 6481  34.077  37.142   1.198
40073W        W 6482  41.524  38.050   0.035
40074W        W 6483  14.763  32.924  11.888
40075W        W 6484  36.592   7.231  10.469
40076W        W 6485  25.964  19.591   2.022
40077W        W 6486  38.607  39.103   4.838
40078W        W 6487   6.417   3.601  13.292
40079W        W 6488  37.938   1.508  11.495
40080W        W 6489  25.685  25.676   4.171
40081W        W 6490  33.648  22.959   4.539
40082W        W 6491  24.068  44.295  10.235
40083W        W 6492  11.908  36.495   2.730
40084W        W 6493   4.985  11.468   4.736
40085W        W 6494  11.416  39.758   1.315
40086W        W 6495  26.089  44.456  14.917
40087W        W 6496   0.338  34.540  12.370
40088W        W 6497  28.999  23.034   1.665
40089W        W 6498   7.491  32.853   3.672
40090W        W 6499  17.111  27.968   2.656
40091W        W 6500  21.051   2.966  10.763
40092W        W 6501   5.356  22.618  11.434
40093W        W 6502  10.693  36.899   0.129
40094W        W 6503  29.185  12.562   3.148
40095W        W 6504   7.959  24.301   1.783
40096W        W 6505  32.402   4.217  13.878
40097W        W 6506   3.013  20.746   1.325
40098W        W 6507   3.016   2.669  12.160
40099W        W 6508  37.511  36.488   1.430
40100W        W 6509  24.996  37.184  11.196
40101W        W 6510  12.848  12.796  11.966
40102W        W 6511  34.035   0.743   3.686
40103W        W 6512   9.661  38.340   2.192
40104W        W 6513  13.219  17.523  12.061
40105W        W 6514  41.023   2.484   3.694
40106W        W 6515  19.500  18.806   3.130
40107W        W 6516  28.940  42.850  11.610
40108W        W 6517  30.815  39.767   5.212
40109W        W 6518  20.933   1.478   4.291
40110W        W 6519  13.330  44.345   1.206
40111W        W 6520  43.773  36.997  12.876
40112W        W 6521  43.827  36.622   4.896
40113W        W 6522  10.871  41.973   3.700
40114W        W 6523   0.714  11.231  10.899
40115W        W 6524  29.141  16.662   3.461
40116W        W 6525  39.651  18.241  13.346
40117W        W 6526   4.983   8.807   4.517
40118W        W 6527  33.901  11.716   0.774
40119W        W 6528  25.518  15.661   0.453
40120W        W 6529   1.334  44.565   2.273
40121W        W 6530  17.564   2.360   2.353
40122W        W 6531  12.432   3.381   2.369
40123W        W 6532  27.355  35.484  11.363
40124W        W 6533   2.198   6.859  13.375
40125W        W 6534  32.626  16.329  11.454
40126W        W 6535  26.992  22.045  12.568
40127W        W 6536  34.136  36.829  14.348
40128W        W 6537  13.783   1.798  11.075
40129W        W 6538  23.988  32.967  13.447
40130W        W 6539  25.925  10.210  13.532
40131W        W 6540  15.792  30.488  13.394
40132W        W 6541  30.344  29.275  14.397
40133W        W 6542  14.378   6.146  11.082
40134W        W 6543  31.882  31.181  11.988
40135W        W 6544   9.907  21.229  10.505
40136W        W 6545   7.708  28.675   1.194
40137W        W 6546  17.348  26.145  13.965
40138W        W 6547  13.700  29.466   1.979
40139W        W 6548  44.671  27.438  10.662
40140W        W 6549  22.173  15.851   2.939
40141W        W 6550  15.271   9.251  14.178
40142W        W 6551  34.091  29.417   3.777
40143W        W 6552  21.492  42.675   1.864
40144W        W 6553  28.123  41.212   3.261
40145W        W 6554  38.308  42.392  11.083
40146W        W 6555  15.420   9.820  12.480
40147W        W 6556  38.987  18.846   2.276
40148W        W 6557  27.686  29.044  10.541
40149W        W 6558  19.356  42.557   1.337
40150W        W 6559  36.999  41.929  13.634
40151W        W 6560  44.281  38.766  10.702
40152W        W 6561  27.416   5.526   5.102
40153W        W 6562  20.932  28.196   3.289
40154W        W 6563  32.989   6.644  13.040
40155W        W 6564  24.805   4.404   3.366
40156W        W 6565  26.002  22.838  13.448
40157W        W 6566   7.239   8.225  11.452
40158W        W 6567  12.317  28.561   0.414
40159W        W 6568  15.254  26.185  13.695
40160W        W 6569   0.167   3.586   4.272
40161W        W 6570  12.855   4.642   9.666
40162W        W 6571  35.357  31.308   3.029
40163W        W 6572  26.108   8.655  13.505
40164W        W 6573  11.693  25.129  13.846
40165W        W 6574  37.338   7.978  13.803
40166W        W 6575  10.430  43.633  10.701
40167W        W 6576  17.654  40.939   0.511
40168W        W 6577  19.248  33.373   2.777
40169W        W 6578   9.588  13.085   2.067
40170W        W 6579  16.133  27.812  10.268
40171W        W 6580   0.806   3.494   1.830
40172W        W 6581  28.268  18.044  10.314
40173W        W 6582  11.401   2.264  14.402
40174W        W 6583   4.617  42.011  13.346
40175W        W 6584  36.164   7.358   2.018
40176W        W 6585  23.359  19.642   0.897
40177W        W 6586  28.135  21.655  10.888
40178W        W 6587   9.733  15.272   3.760
40179W        W 6588  43.878   3.565   4.348
40180W        W 6589  43.596  24.593  12.877
40181W        W 6590  43.902   3.854   3.147
40182W        W 6591  34.920   6.685  14.298
40183W        W 6592  24.760   5.136  12.962
40184W        W 6593  44.901  20.397   4.036
40185W        W 6594  15.193  42.837  12.050
40186W        W 6595   4.057  38.523  13.002
40187W        W 6596  24.917  29.283   0.396
40188W        W 6597  37.136  14.622   5.582
40189W        W 6598  33.582  29.687  10.731
40190W        W 6599  43.009  40.189   2.427
40191W        W 6600  28.158  29.500  10.596
40192W        W 6601  23.764   6.364  11.631
40193W        W 6602  29.203  28.258  11.952
40194W        W 6603  35.706  25.956  10.924
40195W        W 6604  33.252  42.458   0.204
40196W        W 6605  44.407  39.402   1.716
40197W        W 6606   0.397  16.470   0.021
40198W        W 6607  14.123   3.819   3.709
40199W        W 6608  34.006  17.224   3.117
40200W        W 6609  17.523   6.602  11.378
40201W        W 6610  43.249  27.819   9.932
40202W        W 6611  26.193  44.882  12.527
40203W        W 6612   0.552  12.325  14.199
40204W        W 6613   9.811  34.335  13.054
40205W        W 6614  36.957  20.769  10.698
40206W        W 6615  15.565  28.584   2.320
40207W        W 6616   6.228  30.326  14.334
40208W        W 6617  15.322  20.652  12.506
40209W        W 6618  38.444  25.264   1.434
40210W        W 6619  44.420  16.001  13.568
40211W        W 6620  10.664  39.680   4.064
40212W        W 6621  30.563  22.811   4.533
40213W        W 6622  25.885  42.088  12.464
40214W        W 6623  38.387  44.366  13.071
40215W        W 6624  21.710  14.896  12.402
40216W        W 6625  24.209  28.506   3.106
40217W        W 6626  26.916  19.219   3.117
40218W        W 6627  30.988  12.684   1.245
40219W        W 6628  40.625  40.166  12.596
40220W        W 6629  17.748  28.472  10.830
40221W        W 6630  39.083   3.059   2.374
40222W        W 6631  28.218  12.348   4.172
40223W        W 6632  29.092  20.254   3.394
40224W        W 6633   6.659  33.909   0.794
40225W        W 6634  16.644  30.741   1.212
40226W        W 6635  22.990  15.622  13.065
40227W        W 6636   8.086   8.744   3.679
40228W        W 6637  24.370  39.913   0.210
40229W        W 6638  12.509  29.031   3.205
40230W        W 6639  12.865  10.104   2.804
40231W        W 6640  33.942   9.576   4.669
40232W        W 6641  23.476  37.003  14.389
40233W        W 6642  22.861  20.800   1.999
40234W        W 6643   1.919  38.556   4.491
40235W        W 6644  10.384   8.098   2.213
40236W        W 6645  10.517   5.680  11.594
40237W        W 6646  37.971  32.211  11.983
40238W        W 6647  36.262   4.151   2.174
40239W        W 6648   2.833  36.245   1.491
40240W        W 6649  30.417   2.787  12.519
40241W        W 6650  11.412  14.005  11.698
40242W        W 6651  15.720  39.445   3.907
40243W        W 6652  35.063  25.047  11.937
40244W        W 6653  28.049  21.125  12.614
40245W        W 6654   9.394  22.849   4.212
40246W        W 6655  34.307  18.331  13.931
40247W        W 6656   8.313  42.482   2.344
40248W        W 6657  18.260   5.873  13.887
40249W        W 6658   3.677   4.228  14.319
40250W        W 6659  28.310  15.703   4.104
40251W        W 6660   1.842  17.759   0.373
40252W        W 6661  28.364  14.407  11.102
40253W        W 6662  32.602  15.333   2.479
40254W        W 6663  40.254  26.913   0.933
40255W        W 6664  11.412  25.611  10.963
40256W        W 6665  21.274  29.576   2.176
40257W        W 6666  33.016   2.252   2.698
40258W        W 6667  36.480  27.624   2.145
40259W        W 6668   5.525  21.572  12.535
40260W        W 6669  15.205   5.180   3.235
40261W        W 6670  44.770  34.811  12.432
40262W        W 6671  17.590   9.948  13.955
40263W        W 6672   9.783  28.568  12.415
40264W        W 6673  28.909  23.066   1.173
40265W        W 6674  23.577  16.629  12.918
40266W        W 6675   0.901  18.769  11.613
40267W        W 6676  12.769  44.254  13.487
40268W        W 6677  12.829  25.525   0.086
40269W        W 6678  10.681   9.459   2.453
40270W        W 6679  28.487  44.363   2.204
40271W        W 6680  38.313  18.106  12.773
40272W        W 6681   7.788  38.468  11.325
40273W        W 6682   2.941  16.744  12.730
40274W        W 6683  39.067  25.767   2.668
40275W        W 6684  38.365  36.627   1.879
40276W        W 6685  31.839  36.399  11.416
40277W        W 6686  17.061  32.832  13.342
40278W        W 6687   5.385  37.681  14.165
40279W        W 6688  18.182  17.357  14.402
40280W        W 6689  26.480   6.181   2.781
40281W        W 6690   2.992   4.154  12.044
40282W        W 6691  24.958  39.068  14.840
40283W        W 6692   1.403   8.971   4.798
40284W        W 6693   4.701  16.649   3.261
40285W        W 6694   8.989  18.826   4.141
40286W        W 6695  24.875  25.932  11.725
40287W        W 6696  18.328   6.226  11.170
40288W        W 6697  10.144  43.133  13.276
40289W        W 6698   9.158  33.626  13.449
40290W        W 6699   1.394   7.709  13.713
40291W        W 6700   1.384  35.304   2.738
40292W        W 6701  12.678  15.633   1.277
40293W        W 6702  12.470  27.912  13.139
40294W        W 6703  44.061  14.316   4.280
40295W        W 6704  29.607  36.454   4.476
40296W        W 6705   0.320   5.404   1.884
40297W        W 6706  25.280  15.244  14.973
40298W        W 6707  16.787   8.683   3.662
40299W        W 6708  30.133  31.026  14.550
40300W        W 6709  30.590  15.331  14.741
40301W        W 6710  27.593  21.422  13.984
40302W        W 6711  41.985  20.152   0.394
40303W        W 6712  41.239  42.022   4.385
40304W        W 6713  41.730   4.415  12.440
40305W        W 6714  21.731  39.116   0.047
40306W        W 6715  27.715   9.079  11.642
40307W        W 6716   1.714  22.262  14.301
40308W        W 6717   7.877  39.059   3.071
40309W        W 6718  14.772  40.581  12.144
40310W        W 6719   5.281  21.333  12.098
40311W        W 6720  29.140   4.814   1.272
40312W        W 6721  38.814  30.369   4.616
40313W        W 6722  28.972  36.807   0.254
40314W        W 6723  23.056  20.021   2.431
40315W        W 6724  38.236  32.713   1.226
40316W        W 6725  35.569  37.093   1.853
40317W        W 6726   8.331  16.313  14.932
40318W        W 6727   4.367  14.821  14.766
40319W        W 6728  23.047  22.095   9.878
40320W        W 6729  11.706  11.068   4.731
40321W        W 6730  32.213   1.457  10.223
40322W        W 6731  34.071  11.593   1.758
40323W        W 6732   1.767  15.872   4.375
40324W        W 6733  32.198   5.276   2.148
40325W        W 6734  30.534  36.516   4.885
40326W        W 6735  23.534  25.412  10.637
40327W        W 6736  32.935  21.031   3.818
40328W        W 6737  23.896   9.419   1.713
40329W        W 6738   1.944  40.544   1.928
40330W        W 6739  36.325  40.296   1.481
40331W        W 6740   3.958   7.984  12.370
40332W        W 6741  10.651   9.791  12.075
40333W        W 6742   8.045  23.182  13.365
40334W        W 6743  26.193  13.806   2.421
40335W        W 6744  19.336  20.781  14.944
40336W        W 6745  39.314  41.638   1.247
40337W        W 6746   1.585  30.007  14.864
40338W        W 6747  23.920  10.623  12.091
40339W        W 6748  34.838   3.008   4.061
40340W        W 6749  34.688   5.093  11.006
40341W        W 6750   6.334  13.554  13.850
40342W        W 6751  14.665  25.603   1.308
40343W        W 6752   6.891  18.540   4.575
40344W        W 6753   2.107   1.690  13.511
40345W        W 6754   7.019  34.485   3.423
40346W        W 6755  17.657  43.947   4.966
40347W        W 6756   8.302  24.574  14.786
40348W        W 6757   5.105  44.857   3.650
40349W        W 6758  26.023   2.256   4.774
40350W        W 6759  44.754  35.429   3.764
40351W        W 6760  32.052  31.100   2.641
40352W        W 6761  26.534   3.999  10.974
40353W        W 6762  20.514  21.551  12.421
40354W        W 6763  44.385  25.833   9.910
40355W        W 6764  36.757  37.205   5.071
40356W        W 6765   4.970  44.557   2.299
40357W        W 6766  29.058  41.968  12.472
40358W        W 6767  42.080  15.838  14.287
40359W        W 6768  14.873  34.887   3.595
40360W        W 6769  41.418  15.771   2.601
40361W        W 6770   3.164   1.680  14.423
40362W        W 6771  42.806  11.687  12.465
40363W        W 6772  44.428   8.678  11.843
40364W        W 6773  44.045  18.958   1.314
40365W        W 6774   4.926  28.995   0.270
40366W        W 6775   7.420  44.576   4.583
40367W        W 6776  39.358  41.813  13.049
40368W        W 6777  12.260   8.869  12.673
40369W        W 6778  31.451  32.529   2.715
40370W        W 6779  40.331  11.114   2.159
40371W        W 6780  14.186  19.445   0.406
40372W        W 6781  30.595  25.943   0.322
40373W        W 6782  30.043   1.246  12.095
40374W        W 6783  14.657   5.226   3.419
40375W        W 6784  37.427   3.377   0.969
40376W        W 6785  30.374   0.441   4.137
40377W        W 6786  25.129  33.768   1.756
40378W        W 6787   8.193   4.457   3.189
40379W        W 6788  20.552  43.107   1.866
40380W        W 6789  39.964   7.692   2.605
40381W        W 6790  35.126  21.143  10.703
40382W        W 6791  34.718   3.493   1.962
40383W        W 6792  28.764  17.262  14.754
40384W        W 6793  30.137  15.659  14.032
40385W        W 6794  26.155   7.248   1.623
40386W        W 6795  42.260  14.818   1.818
40387W        W 6796  29.985  26.910   2.745
40388W        W 6797  41.475  11.174  10.742
40389W        W 6798   2.969   3.719  10.666
40390W        W 6799  14.245  17.591  14.547
40391W        W 6800  34.506  12.288   1.588
40392W        W 6801   6.979   1.644   1.033
40393W        W 6802  34.677   7.359  10.530
40394W        W 6803  30.146   6.675   0.910
40395W        W 6804  17.650  27.033  14.437
40396W        W 6805  37.752  37.255   2.308
40397W        W 6806   5.836  31.460  14.743
40398W        W 6807  37.988  40.001   1.493
40399W        W 6808  24.346  41.426  10.911
40400W        W 6809  11.813   9.900  12.863
40401W        W 6810  44.718  39.794  12.960
40402W        W 6811   8.784  14.515   4.707
40403W        W 6812  12.874  32.511   4.119
40404W        W 6813  22.654  43.777  11.016
40405W        W 6814   6.520  28.664  12.992
40406W        W 6815  35.113  42.073  12.054
40407W        W 6816  39.445  16.020  12.865
40408W        W 6817  13.865  11.333   2.786
40409W        W 6818  41.511  15.848  11.661
40410W        W 6819  14.176  10.700  12.521
40411W        W 6820  23.628  35.632  12.134
40412W        W 6821  12.760  28.350   0.264
40413W        W 6822   1.100   8.137  13.955
40414W        W 6823  25.361   1.510  10.697
40415W        W 6824  24.665  31.371  14.520
40416W        W 6825  42.008  23.382  12.468
40417W        W 6826  19.162  36.758   4.965
40418W        W 6827  33.998   8.864  12.577
40419W        W 6828  19.928  22.255   4.479
40420W        W 6829  11.999   9.675   1.962
40421W        W 6830   0.682   7.178   2.763
40422W        W 6831   3.305  22.595   0.506
40423W        W 6832  24.243  15.891   1.742
40424W        W 6833  16.712   9.416  12.038
40425W        W 6834   6.299  24.451  12.464
40426W        W 6835  31.419  13.162  13.041
40427W        W 6836  23.509  27.890  11.502
40428W        W 6837   5.050   5.155  14.874
40429W        W 6838  20.006  18.113  13.520
40430W        W 6839  36.768  39.997   4.960
40431W        W 6840   7.879  13.816   2.146
40432W        W 6841  35.004  18.647  14.878
40433W        W 6842   4.292  34.373   4.126
40434W        W 6843  16.268  24.186   1.014
40435W        W 6844  38.408  25.532  12.504
40436W        W 6845   1.012   6.657  13.135
40437W        W 6846  14.678  12.060  10.932
40438W        W 6847  35.585  15.894   2.381
40439W        W 6848   9.206  39.617  14.996
40440W        W 6849   2.052  12.848   4.585
40441W        W 6850  24.777  18.726  14.376
40442W        W 6851   2.514  10.821  14.016
40443W        W 6852  29.182  42.463  12.042
40444W        W 6853   6.197  39.739   0.909
40445W        W 6854  21.155  16.268   2.683
40446W        W 6855  37.990  25.228  11.600
40447W        W 6856  32.163  35.742  10.458
40448W        W 6857   3.273   2.168  11.145
40449W        W 6858  44.526  26.884  14.873
40450W        W 6859  10.327  21.587   2.332
40451W        W 6860  14.519  42.522   2.284
40452W        W 6861  34.046   6.394  10.948
40453W        W 6862  32.763  19.175   1.833
40454W        W 6863  26.176  10.174  10.317
40455W        W 6864  44.778  32.603   2.132
40456W        W 6865   2.189  33.474  10.758
40457W        W 6866  25.321  34.053   1.379
40458W        W 6867   1.057  41.767   3.957
40459W        W 6868   4.458  24.391  14.398
40460W        W 6869  35.400  41.374   2.032
40461W        W 6870  44.676   0.014  13.453
40462W        W 6871  24.742  26.737   4.186
40463W        W 6872  20.004   8.149   4.146
40464W        W 6873  29.590   0.044  10.864
40465W        W 6874  38.441  18.194   1.351
40466W        W 6875  23.162  15.841   3.901
40467W        W 6876  19.745   7.953  10.756
40468W        W 6877  32.205  28.393  10.859
40469W        W 6878   6.375  17.859   2.883
40470W        W 6879  24.577   4.517  14.250
40471W        W 6880  10.357  25.465   2.446
40472W        W 6881  15.362  17.024  11.421
40473W        W 6882  10.351  11.040  11.033
40474W        W 6883  29.411   5.116   9.776
40475W        W 6884  35.303   2.235   0.455
40476W        W 6885  35.372  23.567   0.911
40477W        W 6886  12.458  17.316   1.447
40478W        W 6887  26.728  26.046   3.761
40479W        W 6888  17.553  23.123  11.055
40480W        W 6889  19.297  11.658   3.292
40481W        W 6890  31.011  33.843  14.150
40482W        W 6891  35.971  13.413  14.386
40483W        W 6892  26.935  35.403   3.950
40484W        W 6893   6.270  20.656   3.253
40485W        W 6894  14.764  30.184  11.630
40486W        W 6895  31.886   9.958   2.293
40487W        W 6896  38.575  36.871  14.268
40488W        W 6897  24.971  34.819   0.973
40489W        W 6898  27.608  21.751   4.244
40490W        W 6899  18.745  28.402  10.521
40491W        W 6900  23.765  16.273   2.796
40492W        W 6901  27.576  13.126   3.994
40493W        W 6902  27.101  28.496  13.439
40494W        W 6903   2.239  41.437  12.452
40495W        W 6904  11.196  26.010   0.459
40496W        W 6905  11.415   8.566  13.025
40497W        W 6906  31.602  30.389   2.333
40498W        W 6907  33.550  11.743   3.191
40499W        W 6908  11.421  17.615   0.863
40500W        W 6909   4.371  44.947  10.781
40501W        W 6910   0.007  28.186  12.003
40502W        W 6911  11.215  28.524  10.728
40503W        W 6912  25.198  28.942   3.103
40504W        W 6913  39.389  35.624   0.259
40505W        W 6914  37.846  23.540   2.605
40506W        W 6915  18.872   7.647   2.372
40507W        W 6916  10.010  28.425   3.172
40508W        W 6917  23.533  28.432   0.739
40509W        W 6918  28.529  16.388   2.321
40510W        W 6919  36.858   3.720  11.900
40511W        W 6920  11.646  32.305   1.377
40512W        W 6921   7.588  37.274  14.592
40513W        W 6922  26.062  43.968  10.762
40514W        W 6923  37.125  29.057  13.993
40515W        W 6924  14.350  44.296   1.245
40516W        W 6925  18.237  32.036  13.050
40517W        W 6926  38.922  16.479  14.867
40518W        W 6927  40.709  31.445   3.111
40519W        W 6928  41.946  28.351  13.587
40520W        W 6929  39.361  20.388  12.908
40521W        W 6930   6.862  32.470  11.693
40522W        W 6931   6.186  31.670   2.892
40523W        W 6932  37.923  13.906   0.271
40524W        W 6933  40.549  16.499   2.077
40525W        W 6934   7.925  10.070   0.766
40526W        W 6935  13.799   5.273  13.608
40527W        W 6936  15.775   3.896   2.270
40528W        W 6937  39.100  42.867  13.444
40529W        W 6938  37.149  29.328  13.553
40530W        W 6939  18.786  19.208   3.642
40531W        W 6940  44.153  11.816  12.330
40532W        W 6941  11.102  18.351   3.233
40533W        W 6942   9.207  21.573  13.843
40534W        W 6943   4.015   7.456   0.868
40535W        W 6944  12.163   4.826  13.950
40536W        W 6945   3.842  38.016   4.066
40537W        W 6946  44.783  23.535  14.830
40538W        W 6947  13.254  19.344  11.113
40539W        W 6948  20.150  11.859  11.533
40540W        W 6949  18.044  14.289   4.156
40541W        W 6950  13.230  32.517  10.666
40542W        W 6951  19.234  30.702   2.311
40543W        W 6952  25.955  29.711   4.374
40544W        W 6953  22.067  20.669   4.860
40545W        W 6954  35.004  23.011  10.876
40546W        W 6955  44.784  41.542   1.339
40547W        W 6956  11.545  36.922   4.582
40548W        W 6957   3.290  42.095  13.338
40549W        W 6958  38.475  33.196   4.583
40550W        W 6959  12.304   7.899   4.119
40551W        W 6960  10.719  32.457   2.325
40552W        W 6961  30.473  30.617   1.789
40553W        W 6962  29.104   7.438  14.406
40554W        W 6963  12.384  22.945   1.049
40555W        W 6964  23.225  11.649   0.404
40556W        W 6965  28.438  21.549   1.276
40557W        W 6966  20.534  43.853   0.323
40558W        W 6967  24.483  25.001  11.659
40559W        W 6968  29.245  17.068  14.812
40560W        W 6969  16.049  33.541   1.672
40561W        W 6970  38.396   5.401  14.645
40562W        W 6971  16.869  39.110  13.191
40563W        W 6972  22.038  34.834  11.181
40564W        W 6973  39.590   1.688   4.136
40565W        W 6974  38.621  27.450   4.004
40566W        W 6975  22.061  10.015   0.975
40567W        W 6976  10.254  13.165   4.049
40568W        W 6977  14.591  14.560   2.605
40569W        W 6978  36.005   1.543   3.442
40570W        W 6979  13.722  16.661   4.096
40571W        W 6980  32.188  43.851   1.334
40572W        W 6981  28.343  27.012  14.436
40573W        W 6982   7.960  20.043  13.921
40574W        W 6983  44.893   8.909  11.961
40575W        W 6984  13.548  11.474  12.102
40576W        W 6985   5.818  16.847   4.057
40577W        W 6986   2.311  31.043  13.318
40578W        W 6987   2.211   0.835   4.139
40579W        W 6988  11.420  22.960  14.557
40580W        W 6989  31.858  10.895  11.155
40581W        W 6990  35.079  26.643   0.023
40582W        W 6991  10.587  21.581  14.781
40583W        W 6992  36.195  38.133  12.574
40584W        W 6993  39.445  31.381  11.949
40585W        W 6994  19.657  28.366  13.095
40586W        W 6995   9.102  43.551   3.710
40587W        W 6996  26.772  25.125   1.819
40588W        W 6997  44.924  10.155  12.489
40589W        W 6998  30.184  39.603  11.147
40590W        W 6999  25.435  32.354  11.867
40591W        W 7000  17.881  36.012   3.494
40592W        W 7001   7.706  11.716   3.703
40593W        W 7002  18.120  33.996   4.527
40594W        W 7003  29.358  18.259  11.033
40595W        W 7004   5.087   1.424  10.640
40596W        W 7005  40.937  36.663  14.272
40597W        W 7006  12.265  35.363   0.917
40598W        W 7007   0.857  13.228  11.091
40599W        W 7008   2.403   4.445  10.767
40600W        W 7009  31.053  29.408  11.688
40601W        W 7010  21.088  14.202  10.806
40602W        W 7011  39.565  42.634   1.375
40603W        W 7012  31.679  40.230  11.037
40604W        W 7013  35.049  23.029   2.217
40605W        W 7014  32.670  10.043  10.538
40606W        W 7015   3.347  38.026   2.795
40607W        W 7016  32.894  44.710  11.054
40608W        W 7017   7.136   8.852   1.328
40609W        W 7018  22.566  26.761   3.042
40610W        W 7019  44.620  23.241   2.896
40611W        W 7020   1.509  18.994  14.423
40612W        W 7021  40.816   5.459  11.454
40613W        W 7022  40.337  13.724  11.499
40614W        W 7023   0.821  10.906   3.170
40615W        W 7024   5.750  19.652   4.390
40616W        W 7025   3.467  27.020  10.812
40617W        W 7026   9.510   6.588  12.380
40618W        W 7027   2.338  19.272   3.727
40619W        W 7028  11.584  13.193   0.937
40620W        W 7029  24.543  16.729  10.723
40621W        W 7030  33.639   3.434  11.231
40622W        W 7031   9.237  17.171   1.536
40623W        W 7032  12.080  42.952  14.035
40624W        W 7033  17.177  16.096   1.273
40625W        W 7034  41.369  39.242   4.182
40626W        W 7035  22.780   7.330   3.228
40627W        W 7036  19.135  43.700   3.780
40628W        W 7037  39.939  29.548  13.476
40629W        W 7038   3.531   0.314   4.321
40630W        W 7039  20.063  30.219  14.758
40631W        W 7040  37.186  32.124   4.864
40632W        W 7041   2.269  12.408   3.320
40633W        W 7042  25.854  37.904   1.821
40634W        W 7043  20.891  26.964  10.735
40635W        W 7044   4.924  19.720  13.058
40636W        W 7045  35.092  28.222  12.919
40637W        W 7046  32.697   8.640  10.710
40638W        W 7047  30.195  14.760  13.469
40639W        W 7048  23.184  25.139   4.509
40640W        W 7049  16.235  44.549  12.007
40641W        W 7050   5.962  16.086   3.691
40642W        W 7051  11.254   3.261   0.347
40643W        W 7052   5.248  16.235  13.484
40644W        W 7053  34.964  28.831  14.124
40645W        W 7054  44.705  28.206  11.552
40646W        W 7055  19.318  16.567  13.827
40647W        W 7056  27.013  29.569  13.780
40648W        W 7057  15.531  27.237   3.599
40649W        W 7058  37.367   7.734  10.631
40650W        W 7059   1.374   3.471  10.777
40651W        W 7060   6.001  29.626   0.811
40652W        W 7061  18.248  12.871  11.510
40653W        W 7062  12.499  41.089  13.505
40654W        W 7063  27.524  33.190  11.733
40655W        W 7064  10.879  21.820   4.145
40656W        W 7065  40.922  30.100  11.398
40657W        W 7066  38.821  41.339  11.966
40658W        W 7067   9.262  31.616  14.502
40659W        W 7068  11.904  23.159  10.705
40660W        W 7069  41.031  13.137  12.866
40661W        W 7070  24.996  17.691  11.598
40662W        W 7071  38.951  36.384   4.788
40663W        W 7072  23.236  41.217   0.868
40664W        W 7073  35.653  41.500  14.939
40665W        W 7074  22.016  21.135   1.328
40666W        W 7075   4.740  36.485   1.193
40667W        W 7076  26.679  40.889   2.009
40668W        W 7077  32.509  30.047  14.451
40669W        W 7078  22.612  33.485   4.757
40670W        W 7079  36.283  14.229   4.333
40671W        W 7080  19.469  34.454  11.644
40672W        W 7081  24.841   5.206   4.021
40673W        W 7082  19.094  12.439   3.253
40674W        W 7083  27.157  15.753   2.356
40675W        W 7084  33.778  43.907  10.697
40676W        W 7085  41.350   4.865   1.826
40677W        W 7086  40.441  28.043  10.686
40678W        W 7087  42.208  12.357   0.298
40679W        W 7088  35.114  30.451  12.152
40680W        W 7089   6.662  32.649   4.567
40681W        W 7090  17.432  26.097  13.017
40682W        W 7091  43.322  14.265  13.836
40683W        W 7092  11.283  27.398  13.070
40684W        W 7093  21.248  35.101   0.312
40685W        W 7094  18.966  23.865  14.636
40686W        W 7095   7.301  10.842   3.527
40687W        W 7096  44.353  23.588  11.753
40688W        W 7097   7.594  22.514  14.615
40689W        W 7098  27.391  42.873  14.579
40690W        W 7099  21.886  16.334   1.663
40691W        W 7100  12.696  32.593   2.768
40692W        W 7101  16.174  28.483  13.103
40693W        W 7102  21.489  19.332  10.606
40694W        W 7103   2.864  20.875   1.806
40695W        W 7104  29.978  33.939   2.172
40696W        W 7105  24.028  13.104  12.867
40697W        W 7106  11.887  21.063  11.587
40698W        W 7107  10.490  36.891  12.122
40699W        W 7108   0.461  39.060  12.029
40700W        W 7109  43.768   7.950   1.905
40701W        W 7110   5.868   8.739  10.692
40702W        W 7111  39.925  17.277   1.232
40703W        W 7112  24.035   7.746   4.098
40704W        W 7113  32.395  38.662  14.108
40705W        W 7114  24.023  21.065  10.739
40706W        W 7115  33.426  38.104   2.276
40707W        W 7116  17.492  33.563   1.347
40708W        W 7117  16.643  25.949  14.972
40709W        W 7118   8.274  40.030   3.737
40710W        W 7119  21.832  36.086   0.280
40711W        W 7120   0.368   2.268   4.568
40712W        W 7121  10.781  35.471  11.593
40713W        W 7122  25.504  44.802   0.745
40714W        W 7123  10.664   6.648   3.079
40715W        W 7124  12.735  40.325   0.420
40716W        W 7125  16.888   0.917  11.559
40717W        W 7126   5.244  44.507  13.887
40718W        W 7127   9.637  16.509   4.045
40719W        W 7128  40.112  32.486  12.415
40720W        W 7129  28.293   4.465  14.426
40721W        W 7130  14.309  29.522  13.318
40722W        W 7131  29.511  13.268   2.819
40723W        W 7132   8.450  15.562   0.184
40724W        W 7133   0.950   0.433  10.393
40725W        W 7134   9.692  12.194  10.802
40726W        W 7135   6.579  20.858  12.964
40727W        W 7136  44.744  23.115  10.608
40728W        W 7137  38.314  13.329  13.942
40729W        W 7138  10.903  39.173   2.754
40730W        W 7139   6.242  24.899   0.994
40731W        W 7140  14.083  15.224  14.242
40732W        W 7141  40.820  33.794   0.719
40733W        W 7142  39.897  36.922   4.105
40734W        W 7143  25.628  39.825  13.159
40735W        W 7144  40.231   2.916   0.751
40736W        W 7145  39.094  19.847   5.060
40737W        W 7146   5.721  24.683  14.046
40738W        W 7147  13.537  37.114   9.949
40739W        W 7148   9.369  20.986   5.324
40740W        W 7149   8.713   2.524   2.853
40741W        W 7150  23.468  16.086  11.121
40742W        W 7151  29.001  17.630  11.405
40743W        W 7152   9.377   9.908  11.127
40744W        W 7153  22.097   2.812   3.982
40745W        W 7154  31.175  22.318   3.840
40746W        W 7155  38.431  23.130  13.841
40747W        W 7156  17.711   3.907   2.440
40748W        W 7157   5.210   8.439  14.403
40749W        W 7158  42.386  11.369   4.606
40750W        W 7159  20.458  13.741   3.161
40751W        W 7160  38.082  40.277  11.542
40752W        W 7161  29.018  43.806  11.866
40753W        W 7162  18.128  29.567  12.094
40754W        W 7163  33.778   5.215  13.457
40755W        W 7164  11.276  11.341  14.958
40756W        W 7165  35.875   9.610  11.960
40757W        W 7166  14.320  35.780   2.391
40758W        W 7167   5.028  14.841   3.650
40759W        W 7168  13.245  18.872   1.000
40760W        W 7169  41.913  18.801  14.104
40761W        W 7170  28.892  25.516  14.839
40762W        W 7171  21.748  22.662   2.641
40763W        W 7172  40.121  20.788   2.875
40764W        W 7173  40.981   2.011   2.777
40765W        W 7174  30.847  29.274  14.476
40766W        W 7175  41.500  37.865  10.839
40767W        W 7176   3.140   4.893  10.839
40768W        W 7177  31.879  31.407   3.667
40769W        W 7178  12.105  18.192   3.269
40770W        W 7179  41.344   3.221   0.727
40771W        W 7180  16.367   2.168   4.749
40772W        W 7181  14.591  39.978   4.185
40773W        W 7182  14.752  14.718   4.536
40774W        W 7183  20.753  23.994   3.221
40775W        W 7184  31.019   2.645   0.403
40776W        W 7185  33.797   1.227   2.731
40777W        W 7186  42.845  41.708   2.974
40778W        W 7187  44.452  28.510   2.324
40779W        W 7188  42.866  17.851  13.841
40780W        W 7189  13.080  27.031  11.228
40781W        W 7190   8.442  35.610  10.689
40782W        W 7191  10.889  42.957  11.985
40783W        W 7192   6.279  37.413   4.670
40784W        W 7193  42.916  43.644  14.316
40785W        W 7194   9.799   2.296   0.896
40786W        W 7195   0.358   7.109  14.630
40787W        W 7196  23.180  40.572   3.375
40788W        W 7197  21.931   6.410   2.185
40789W        W 7198  22.301   2.171  13.303
40790W        W 7199  42.126  19.568   3.322
40791W        W 7200  31.881  11.684   0.649
40792W        W 7201   6.930   7.598   2.270
40793W        W 7202   4.440   2.904  12.950
40794W        W 7203  37.796   8.428  12.454
40795W        W 7204   0.438  24.514  12.391
40796W        W 7205  24.958  16.264  13.003
40797W        W 7206   5.814  38.435  12.562
40798W        W 7207  24.150   9.164  12.659
40799W        W 7208  34.472  36.781   2.717
40800W        W 7209  28.655  38.025  12.400
40801W        W 7210  10.180   8.580  12.258
40802W        W 7211  25.733  31.018   1.950
40803W        W 7212  40.972  39.640  11.966
40804W        W 7213  11.061  18.753   0.244
40805W        W 7214  16.160  36.605  11.187
40806W        W 7215   0.244  16.759  10.752
40807W        W 7216  38.054  12.535   2.849
40808W        W 7217  34.415   6.406  14.052
40809W        W 7218  18.546   9.400  12.159
40810W        W 7219   3.737  27.114   2.822
40811W        W 7220  21.492   4.270  11.610
40812W        W 7221  27.510  11.439  11.058
40813W        W 7222  34.626  39.789   2.409
40814W        W 7223  34.478  34.157  11.928
40815W        W 7224   8.328  10.298   2.628
40816W        W 7225  36.471  14.192   0.421
40817W        W 7226  15.065  10.752  11.618
40818W        W 7227  29.056  14.218  12.446
40819W        W 7228  41.804   4.489   4.565
40820W        W 7229  43.276   7.788   4.560
40821W        W 7230  44.843  35.124  12.999
40822W        W 7231  24.558  19.960  14.849
40823W        W 7232  20.309  18.131   4.771
40824W        W 7233  28.164  33.897   0.452
40825W        W 7234   5.872  18.841   3.325
40826W        W 7235   5.881  16.285  14.773
40827W        W 7236  27.455  36.849  13.035
40828W        W 7237  44.300  15.000  13.434
40829W        W 7238  10.967  35.635  12.049
40830W        W 7239  34.812   8.643   1.087
40831W        W 7240  24.530  12.351   3.595
40832W        W 7241  19.234   7.290  11.233
40833W        W 7242   2.687  13.590  12.450
40834W        W 7243  44.280  30.045  12.607
40835W        W 7244  28.262   2.389  10.819
40836W        W 7245  37.864  37.423  13.561
40837W        W 7246  22.241  19.482   3.618
40838W        W 7247   3.912  41.939  14.481
40839W        W 7248  14.284  26.619  11.383
40840W        W 7249  35.796   4.734  12.850
40841W        W 7250  17.885  17.605  14.818
40842W        W 7251   8.425  40.475  10.653
40843W        W 7252  29.486  19.180   3.741
40844W        W 7253   1.973  11.622  10.771
40845W        W 7254   2.238  41.040   1.349
40846W        W 7255  15.985  34.067  11.931
40847W        W 7256   4.975  33.480   2.221
40848W        W 7257  37.946  16.681   2.129
40849W        W 7258  17.463   1.954  10.800
40850W        W 7259   8.195   3.504  11.480
40851W        W 7260  20.276  36.852   2.822
40852W        W 7261  27.901  13.847  11.903
40853W        W 7262  30.498   5.406  13.313
40854W        W 7263  20.536  37.858   3.983
40855W        W 7264   0.899   3.716  12.863
40856W        W 7265  31.877   9.119   1.861
40857W        W 7266  44.779   2.760   3.451
40858W        W 7267  33.678  21.760   2.842
40859W        W 7268  35.906   4.377  13.966
40860W        W 7269   2.396  44.561  14.829
40861W        W 7270  37.458  26.365   4.665
40862W        W 7271   9.586  39.545  10.922
40863W        W 7272  10.862  20.481  12.512
40864W        W 7273  23.296  27.952   0.910
40865W        W 7274  27.453  17.995   1.983
40866W        W 7275  34.396  20.216  11.175
40867W        W 7276   6.546  10.196  13.604
40868W        W 7277   7.841  36.434  13.960
40869W        W 7278  17.404  10.220  12.294
40870W        W 7279  41.135   7.008   0.654
40871W        W 7280  16.317  19.336   2.686
40872W        W 7281  17.600  44.004   2.329
40873W        W 7282   5.887  44.956  12.428
40874W        W 7283  18.537   8.446  11.146
40875W        W 7284  38.936  16.845  12.799
40876W        W 7285  22.154   1.127  12.693
40877W        W 7286  12.809   3.153  11.284
40878W        W 7287   1.211  43.320   4.133
40879W        W 7288  37.883  25.472   1.343
40880W        W 7289  35.355  29.690   4.542
40881W        W 7290  15.602  34.383  11.552
40882W        W 7291  24.394  19.374   3.227
40883W        W 7292  16.000  36.560  11.678
40884W        W 7293  36.902  27.933   2.156
40885W        W 7294  11.701  25.085  14.884
40886W        W 7295  14.170   7.049  13.308
40887W        W 7296  22.212   7.468   4.963
40888W        W 7297   5.362  11.918   0.398
40889W        W 7298  39.364  19.507   0.290
40890W        W 7299  18.701  22.073   0.156
40891W        W 7300  23.657   7.426  11.097
40892W        W 7301  32.348  15.102  11.965
40893W        W 7302  31.469  15.004   2.680
40894W        W 7303   5.120   1.271  14.546
40895W        W 7304  21.392   3.810  11.847
40896W        W 7305  16.565  42.125   2.261
40897W        W 7306  43.792  35.528  10.649
40898W        W 7307  44.087   1.710   0.448
40899W        W 7308  24.180  21.458   0.800
40900W        W 7309   5.913  31.845  12.730
40901W        W 7310  28.227  24.704  12.944
40902W        W 7311   7.438  39.267   2.859
40903W        W 7312  40.504   2.841   1.695
40904W        W 7313   3.240  13.626   3.822
40905W        W 7314  35.600  10.631  14.321
40906W        W 7315   4.932   2.358  13.437
40907W        W 7316  21.681   2.239   3.441
40908W        W 7317  26.564   4.090  13.975
40909W        W 7318  20.474  30.437   1.830
40910W        W 7319  26.702   5.084  13.927
40911W        W 7320  29.284  14.841   4.257
40912W        W 7321   7.468   1.840  13.206
40913W        W 7322   3.296  10.732  12.045
40914W        W 7323  36.482   3.602  13.956
40915W        W 7324  31.679  36.291  12.273
40916W        W 7325  35.767   7.669   2.824
40917W        W 7326  36.336  29.948  14.961
40918W        W 7327   0.414  39.064  13.043
40919W        W 7328  14.794  20.187   5.336
40920W        W 7329   8.081   5.711   0.336
40921W        W 7330   6.171   2.003  11.227
40922W        W 7331  41.290  38.200  11.201
40923W        W 7332   6.149  44.003  14.434
40924W        W 7333  22.743  21.542  10.551
40925W        W 7334   4.913   0.178  11.059
40926W        W 7335   9.743  15.064  10.756
40927W        W 7336  37.365  40.912   0.675
40928W        W 7337  35.931  26.447  12.008
40929W        W 7338  33.578  31.014  10.746
40930W        W 7339  13.854  39.287   0.930
40931W        W 7340   5.904  42.657   1.261
40932W        W 7341  42.877   3.713   1.740
40933W        W 7342  20.856  29.659  11.937
40934W        W 7343  13.355  40.143   1.349
40935W        W 7344  22.766   9.360  12.490
40936W        W 7345   1.729  24.407   3.219
40937W        W 7346   3.613  16.443  13.643
40938W        W 7347  44.928  42.665   2.197
40939W        W 7348  13.008  17.806   1.779
40940W        W 7349  22.033  44.175  12.502
40941W        W 7350  30.430   0.677   3.623
40942W        W 7351  25.648  16.310   4.360
40943W        W 7352  16.428  17.933   4.046
40944W        W 7353  43.469  42.281   3.331
40945W        W 7354  40.955  30.937   0.228
40946W        W 7355   4.886   2.556  10.116
40947W        W 7356  38.285  38.454  13.406
40948W        W 7357  27.810  15.485  10.746
40949W        W 7358  25.199  12.405  14.820
40950W        W 7359  25.920  25.206   4.245
40951W        W 7360  28.381  11.790  11.978
40952W        W 7361  14.262  12.157  14.506
40953W        W 7362  16.391  35.018  14.365
40954W        W 7363   5.805  10.795  13.106
40955W        W 7364  20.242   1.984   0.056
40956W        W 7365  36.048  44.562   1.457
40957W        W 7366  38.032  43.016   3.211
40958W        W 7367  15.776   9.207  13.978
40959W        W 7368   4.616  31.036   4.976
40960W        W 7369  13.402  16.272   1.368
40961W        W 7370  20.270  15.707   0.287
40962W        W 7371   1.978  42.668   0.950
40963W        W 7372  14.745   4.881   2.414
40964W        W 7373  36.032  18.081  12.697
40965W        W 7374  17.572  20.736  12.971
40966W        W 7375  29.673   3.057   0.467
40967W        W 7376  30.583  37.116   2.545
40968W        W 7377   8.356  28.693   4.375
40969W        W 7378  28.569  13.349   3.293
40970W        W 7379  17.357  41.074  12.899
40971W        W 7380  13.920  12.814   0.242
40972W        W 7381  40.174  35.182  13.044
40973W        W 7382   5.890  20.515  14.257
40974W        W 7383  40.222  32.174   4.379
40975W        W 7384  38.053  26.063   0.045
40976W        W 7385   9.354  23.552   3.728
40977W        W 7386  13.476  29.427  11.206
40978W        W 7387   3.336  17.579   2.711
40979W        W 7388  23.779  39.925   1.342
40980W        W 7389  14.567  30.074  12.477
40981W        W 7390  31.801  17.661   3.042
40982W        W 7391   8.596  39.049  13.814
40983W        W 7392   2.688  30.526  11.214
40984W        W 7393  11.232  35.667   1.890
40985W        W 7394   4.207  37.508   0.845
40986W        W 7395  18.158  18.169  11.190
40987W        W 7396   5.849   4.924   4.805
40988W        W 7397  27.699  43.160   2.752
40989W        W 7398   6.785  12.543   3.841
40990W        W 7399   4.983  13.642  11.172
40991W        W 7400  16.002  32.705  10.192
40992W        W 7401  17.130   7.536  13.405
40993W        W 7402  14.110  43.125  10.520
40994W        W 7403  28.439  19.194   1.014
40995W        W 7404   9.172  36.174  14.802
40996W        W 7405  15.608  24.254   4.130
40997W        W 7406  34.615  23.878   2.218
40998W        W 7407   0.526  37.900  13.490
40999W        W 7408  12.110  27.648   3.830
41000W        W 7409  35.661  24.549   2.607
41001W        W 7410   9.434  34.077   1.288
41002W        W 7411  36.925  39.866  10.758
41003W        W 7412  11.198   7.944   3.242
41004W        W 7413  25.457  40.079  11.618
41005W        W 7414  35.147  36.071  14.302
41006W        W 7415  40.940  39.658  11.097
41007W        W 7416  11.793  20.297  12.845
41008W        W 7417  44.371   1.315   4.299
41009W        W 7418  19.733  38.750  14.959
41010W        W 7419   9.071  27.749  11.593
41011W        W 7420   3.898  33.325   1.660
41012W        W 7421  22.457  40.043   0.245
41013W        W 7422  15.085  18.594  14.830
41014W        W 7423  26.576  40.528  12.648
41015W        W 7424  14.213  29.022   0.092
41016W        W 7425  34.957  16.549  13.945
41017W        W 7426  33.466  27.799   3.085
41018W        W 7427  36.053  20.492   3.868
41019W        W 7428   3.622  23.445  12.573
41020W        W 7429   9.016   9.204   4.343
41021W        W 7430  15.901   4.883   1.909
41022W        W 7431  13.165  11.555  10.345
41023W        W 7432  11.849  31.903   4.539
41024W        W 7433  14.670  19.824   2.184
41025W        W 7434  17.259  43.378  13.676
41026W        W 7435  14.030  28.098   4.951
41027W        W 7436  17.902  34.499   4.513
41028W        W 7437  38.934  22.634   1.625
41029W        W 7438   9.262   1.228  12.905
41030W        W 7439  18.694  10.586   4.159
41031W        W 7440  29.410  13.047   4.529
41032W        W 7441   2.042   0.349  10.594
41033W        W 7442   0.501  43.246   2.670
41034W        W 7443  22.117  42.249  12.731
41035W        W 7444   3.888  28.370  12.915
41036W        W 7445   9.277  32.740   2.456
41037W        W 7446  24.499   9.377  10.743
41038W        W 7447   7.577   2.893   3.665
41039W        W 7448  12.405  20.726   0.869
41040W        W 7449  40.349   8.890   1.452
41041W        W 7450  18.769  13.186   2.856
41042W        W 7451  11.333  22.037  12.958
41043W        W 7452   1.283   7.144   0.438
41044W        W 7453  35.998  41.905   2.408
41045W        W 7454  38.975  15.314  10.136
41046W        W 7455  36.812  27.735   4.605
41047W        W 7456  17.735  23.194  13.992
41048W        W 7457  30.649  17.259   0.198
41049W        W 7458   3.826   3.960  12.156
41050W        W 7459  27.244  12.644  13.832
41051W        W 7460   7.758  10.896   2.787
41052W        W 7461  29.404  41.325   1.491
41053W        W 7462  13.596   1.329   0.469
41054W        W 7463  19.235   4.402  12.830
41055W        W 7464  27.193  22.729   0.367
41056W        W 7465  32.176  14.733   0.717
41057W        W 7466  19.833  32.605   4.018
41058W        W 7467  28.859  10.197  13.350
41059W        W 7468   0.684   9.093   1.924
41060W        W 7469  43.938  38.929   1.919
41061W        W 7470  20.141  36.461  14.913
41062W        W 7471  29.985  29.635   1.111
41063W        W 7472   9.817  22.236  14.529
41064W        W 7473  18.283   5.367   3.302
41065W        W 7474  37.950  40.107   1.991
41066W        W 7475  19.318   1.303  14.410
41067W        W 7476   9.155  37.486  11.992
41068W        W 7477  37.188  26.019   1.288
41069W        W 7478  39.024  43.414  12.349
41070W        W 7479  14.056   1.383   5.294
41071W        W 7480  33.804  26.706   3.223
41072W        W 7481  34.902  24.075  12.020
41073W        W 7482  15.238  43.016  14.234
41074W        W 7483   5.206  33.296   1.768
41075W        W 7484  41.384  28.407   1.058
41076W        W 7485  10.566  44.453   0.751
41077W        W 7486  31.321  15.170   2.198
41078W        W 7487  15.249  20.074  12.927
41079W        W 7488  20.573   1.762   2.846
41080W        W 7489  29.605  42.981   3.159
41081W        W 7490  37.899  25.772   4.399
41082W        W 7491  24.680  18.635  10.723
41083W        W 7492  41.060  41.625  11.594
41084W        W 7493  10.422  28.674  13.280
41085W        W 7494  32.994  11.259   0.481
41086W        W 7495   0.919  39.398   4.734
41087W        W 7496  34.841  37.859   1.286
41088W        W 7497  21.761  25.026   2.030
41089W        W 7498  35.620   4.239  11.575
41090W        W 7499  32.665  38.863   0.827
41091W        W 7500  15.181   7.442  12.456
41092W        W 7501   6.517  23.978  12.410
41093W        W 7502  26.394  42.920   0.638
41094W        W 7503  15.276  35.157  11.554
41095W        W 7504  27.350  10.327  12.654
41096W        W 7505  35.083  14.352   3.757
41097W        W 7506  13.627  12.139   1.335
41098W        W 7507  41.541  39.407   1.548
41099W        W 7508  21.482  36.807  10.590
41100W        W 7509  31.512  42.324  12.156
41101W        W 7510  22.647   9.834   3.883
41102W        W 7511  35.808   7.035   3.617
41103W        W 7512  14.351   9.675   0.640
41104W        W 7513  44.828   6.170   3.129
41105W        W 7514   6.858  40.387  12.407
41106W        W 7515   9.336   3.355  13.389
41107W        W 7516  44.842  37.410  11.576
41108W        W 7517   5.476  21.294   4.418
41109W        W 7518   5.205  20.205  12.090
41110W        W 7519  40.467   5.408  12.341
41111W        W 7520  35.088  32.901   0.046
41112W        W 7521   7.232  35.164   0.631
41113W        W 7522  40.611   8.262   3.475
41114W        W 7523   5.725  42.311   4.220
41115W        W 7524  14.321  43.355  13.650
41116W        W 7525   6.282  10.139   2.285
41117W        W 7526   4.656  10.224  12.601
41118W        W 7527  31.233  37.837  14.902
41119W        W 7528  13.181  11.174   4.426
41120W        W 7529  10.353   4.863   4.563
41121W        W 7530  43.866  34.337  12.434
41122W        W 7531   8.236  27.006  12.916
41123W        W 7532  31.894  11.408   1.895
41124W        W 7533   9.732  16.782   0.349
41125W        W 7534  41.891  24.323   4.689
41126W        W 7535  20.336  26.980  10.670
41127W        W 7536  41.528   4.745   3.752
41128W        W 7537   8.124  30.505   4.134
41129W        W 7538  18.116  20.900   9.771
41130W        W 7539   5.444  15.872   2.389
41131W        W 7540   7.825  36.122   4.542
41132W        W 7541  25.626  10.453  10.702
41133W        W 7542  33.982  16.482  11.623
41134W        W 7543  32.638  21.220  11.155
41135W        W 7544  44.071  22.075   0.432
41136W        W 7545  19.200  29.520  10.663
41137W        W 7546  17.844  41.475  12.421
41138W        W 7547   4.642  38.922  13.573
41139W        W 7548  14.402  27.950  10.740
41140W        W 7549   1.765  20.148   0.798
41141W        W 7550  43.091  40.200  10.971
41142W        W 7551  39.219  34.458   1.978
41143W        W 7552  13.345   5.390   0.562
41144W        W 7553  30.514  43.821   2.794
41145W        W 7554   0.796  40.844   4.412
41146W        W 7555  20.979  26.460   0.971
41147W        W 7556  20.466  25.398   0.401
41148W        W 7557  18.663  10.989  13.291
41149W        W 7558  30.574  33.659  13.947
41150W        W 7559  11.278  28.653   0.199
41151W        W 7560  41.650  39.952   2.284
41152W        W 7561  19.664  44.750  12.857
41153W        W 7562  14.804   9.406   3.314
41154W        W 7563  33.944   8.678   2.158
41155W        W 7564  24.529   6.662  14.425
41156W        W 7565  12.626  29.180  11.272
41157W        W 7566  24.711  20.306  13.532
41158W        W 7567  17.546  40.838  14.500
41159W        W 7568  20.799  33.484  14.246
41160W        W 7569  43.778  40.732   2.202
41161W        W 7570  18.886  40.056   0.974
41162W        W 7571   1.038  33.010  11.114
41163W        W 7572  41.438  39.812  11.069
41164W        W 7573  30.792  15.614  14.374
41165W        W 7574  43.315   7.619   1.695
41166W        W 7575  40.339   6.702   1.829
41167W        W 7576   8.460  17.138   0.278
41168W        W 7577  14.922  41.539  14.350
41169W        W 7578   3.358  17.106  10.780
41170W        W 7579  17.540   8.963   3.340
41171W        W 7580   8.582  30.754  13.428
41172W        W 7581  13.617  39.605  11.120
41173W        W 7582  22.761  44.968  10.659
41174W        W 7583  26.778  26.230  12.526
41175W        W 7584  37.966  24.799   4.136
41176W        W 7585  25.252  24.997  11.980
41177W        W 7586   0.089  27.531   4.068
41178W        W 7587  36.071  42.035   4.168
41179W        W 7588   5.921  19.580   0.972
41180W        W 7589  32.914  24.745  13.861
41181W        W 7590  23.275  31.335   1.323
41182W        W 7591   3.283  27.166   2.565
41183W        W 7592  28.933   7.272   3.457
41184W        W 7593   2.477  38.137   0.925
41185W        W 7594  22.701  37.084   1.206
41186W        W 7595  30.951  16.535   0.286
41187W        W 7596  12.245   2.295   3.394
41188W        W 7597  24.775   5.964  13.344
41189W        W 7598  36.958  21.531   1.461
41190W        W 7599  42.808  28.363  12.982
41191W        W 7600  11.840  40.280   0.496
41192W        W 7601   1.794  21.121   0.309
41193W        W 7602  28.210  27.393  10.425
41194W        W 7603  12.324  10.863  11.658
41195W        W 7604  29.537  38.370  13.020
41196W        W 7605  43.376  20.644  13.474
41197W        W 7606   0.620   3.441   0.267
41198W        W 7607  23.417  29.464  12.139
41199W        W 7608  10.362  42.066  12.716
41200W        W 7609  29.598  39.463   4.104
41201W        W 7610  28.697  34.502   3.338
41202W        W 7611  31.412  34.819   1.754
41203W        W 7612  33.131  16.631  14.920
41204W        W 7613  20.755  43.977   0.772
41205W        W 7614  32.045  10.389  11.072
41206W        W 7615  25.712  21.623  12.993
41207W        W 7616  37.039  28.502   3.129
41208W        W 7617   2.802  21.690  12.919
41209W        W 7618  13.280  25.641   1.476
41210W        W 7619  16.581  38.510  12.414
41211W        W 7620  32.560  38.094  11.728
41212W        W 7621   8.915  30.468   2.339
41213W        W 7622  28.321  15.627  12.918
41214W        W 7623  37.266  27.687  10.629
41215W        W 7624  29.778  31.606   2.987
41216W        W 7625  21.048  39.143  12.837
41217W        W 7626  34.642  41.575  14.041
41218W        W 7627  12.249   1.073   0.286
41219W        W 7628  12.427  31.127   3.272
41220W        W 7629  36.069  25.677  14.944
41221W        W 7630  15.839   7.796   1.934
41222W        W 7631  34.151  37.023  12.547
41223W        W 7632   7.351  28.166   5.146
41224W        W 7633  35.555  35.149   0.061
41225W        W 7634  38.108   4.761   4.839
41226W        W 7635  12.278  36.163   4.758
41227W        W 7636  36.569   7.196   2.889
41228W        W 7637  26.601  10.285  11.616
41229W        W 7638  41.461  12.357  12.639
41230W        W 7639  13.660  41.930  13.890
41231W        W 7640  13.444  40.456   2.130
41232W        W 7641   2.978   7.370   0.496
41233W        W 7642  16.599  26.691  12.066
41234W        W 7643  40.387  32.571  11.441
41235W        W 7644   1.711  37.945   1.297
41236W        W 7645  22.596  29.974  11.934
41237W        W 7646   0.854  31.824   3.108
41238W        W 7647   6.691  24.180   2.534
41239W        W 7648  12.361  19.269   1.943
41240W        W 7649  40.090  10.362  12.641
41241W        W 7650  18.477   0.069   1.901
41242W        W 7651  44.324  41.837   0.160
41243W        W 7652  17.999  13.566  12.012
41244W        W 7653  31.894  24.457  10.765
41245W        W 7654  12.114   2.451   1.199
41246W        W 7655  26.286  20.531   4.536
41247W        W 7656  13.728  36.970   2.201
41248W        W 7657  29.368  12.318  13.461
41249W        W 7658  31.194   8.203   3.804
41250W        W 7659   9.809  34.163  10.424
41251W        W 7660  37.350  32.449  14.848
41252W        W 7661  35.400   4.548  14.049
41253W        W 7662   6.228  32.282   0.317
41254W        W 7663  41.082  31.435   1.004
41255W        W 7664  39.925  25.584  14.165
41256W        W 7665  23.002  12.835   3.942
41257W        W 7666  36.990  16.796  13.456
41258W        W 7667  14.505   6.239   2.874
41259W        W 7668  22.544  20.214   1.201
41260W        W 7669   8.935   7.362   3.732
41261W        W 7670   9.883   4.097   2.078
41262W        W 7671  25.653  10.714  13.769
41263W        W 7672  37.969  14.015   2.910
41264W        W 7673  30.601   3.462   0.599
41265W        W 7674  31.584  33.668   2.837
41266W        W 7675  23.300  39.422   3.322
41267W        W 7676  40.291  28.341   1.103
41268W        W 7677  43.433  22.981  14.718
41269W        W 7678  32.171  21.178   3.287
41270W        W 7679  31.853  17.568   5.024
41271W        W 7680  30.124  36.398  13.201
41272W        W 7681  31.717   7.109   2.259
41273W        W 7682  21.696  17.718   3.292
41274W        W 7683  38.315   4.831   1.199
41275W        W 7684  28.184  38.014   3.026
41276W        W 7685   8.661  17.607   0.321
41277W        W 7686  22.029  12.388  14.883
41278W        W 7687   2.244   0.178  14.042
41279W        W 7688  21.879  22.881  10.183
41280W        W 7689  37.422  32.152   2.817
41281W        W 7690  21.207   6.621   4.646
41282W        W 7691  43.233  30.440  13.494
41283W        W 7692  22.692  29.515   4.829
41284W        W 7693  12.760   2.473   3.315
41285W        W 7694   9.343  37.927   0.354
41286W        W 7695  13.865  39.732  14.480
41287W        W 7696  39.413  33.642  13.633
41288W        W 7697  43.331  11.737  11.543
41289W        W 7698  42.373  43.703   3.239
41290W        W 7699   0.742  12.567   0.833
41291W        W 7700  42.525   3.463  10.828
41292W        W 7701  33.206  12.128  10.771
41293W        W 7702   4.737  23.016   1.386
41294W        W 7703  34.606  25.457   3.820
41295W        W 7704  35.859   9.094  12.082
41296W        W 7705  28.657   9.511   1.809
41297W        W 7706  10.095  19.691  14.963
41298W        W 7707  35.970   6.448   2.313
41299W        W 7708  26.968  36.166   2.345
41300W        W 7709  43.767  44.809  12.589
41301W        W 7710  29.451   8.738   0.959
41302W        W 7711  34.943  30.866   1.055
41303W        W 7712  37.108  33.378  13.038
41304W        W 7713  35.042   9.613   0.812
41305W        W 7714  22.221  20.698  10.310
41306W        W 7715  34.631  33.738   4.170
41307W        W 7716  37.762   9.955   4.543
41308W        W 7717   8.193  25.562   0.852
41309W        W 7718  17.654  20.184   3.625
41310W        W 7719  14.106  23.621  12.773
41311W        W 7720  32.820  35.640   1.270
41312W        W 7721  18.862  18.112   1.629
41313W        W 7722  14.710  33.857   0.852
41314W        W 7723  13.600  41.008  14.821
41315W        W 7724  27.685   7.540   3.592
41316W        W 7725   7.554  20.616   3.893
41317W        W 7726  14.714  28.661   3.970
41318W        W 7727   0.225  21.188   2.028
41319W        W 7728  16.372  10.788  12.872
41320W        W 7729  21.537   9.386   4.880
41321W        W 7730  33.715  18.267   3.777
41322W        W 7731  44.305  31.644   0.084
41323W        W 7732  15.430  23.220  12.967
41324W        W 7733  25.776   9.330  13.780
41325W        W 7734  28.835  13.253   1.797
41326W        W 7735  15.668   0.708  12.064
41327W        W 7736  14.206   0.524  11.900
41328W        W 7737  16.280  23.612   3.768
41329W        W 7738   6.672  27.525  11.282
41330W        W 7739  26.759   5.223   0.701
41331W        W 7740  17.191  22.954  12.834
41332W        W 7741  35.620  11.592   4.126
41333W        W 7742  11.612  39.364  12.040
41334W        W 7743  19.466   1.380   3.933
41335W        W 7744  28.601  32.625   0.947
41336W        W 7745  12.169  42.748   0.299
41337W        W 7746  22.952  21.328   1.927
41338W        W 7747  28.757  40.778   4.004
41339W        W 7748  18.382  32.590   0.911
41340W        W 7749  35.981   6.212  12.297
41341W        W 7750   5.405  11.423   9.925
41342W        W 7751  33.547  14.680  12.090
41343W        W 7752  14.076  28.704  13.839
41344W        W 7753  27.708  27.595  10.477
41345W        W 7754  31.349  39.694   0.815
41346W        W 7755  25.995  16.478   0.135
41347W        W 7756   1.449  30.888  14.725
41348W        W 7757   1.511   6.402  14.952
41349W        W 7758  18.640   1.268  12.046
41350W        W 7759   2.288  25.878   1.007
41351W        W 7760   5.432  23.956  11.562
41352W        W 7761   6.430  17.020  10.874
41353W        W 7762  43.546  35.076  13.986
41354W        W 7763  37.895   4.307   2.601
41355W        W 7764  28.675   8.395  13.063
41356W        W 7765  25.790   3.478  13.994
41357W        W 7766  30.373  42.049  14.293
41358W        W 7767  23.730  15.698   1.735
41359W        W 7768  14.865  15.159  11.878
41360W        W 7769  35.075  23.492  13.883
41361W        W 7770   8.334   9.931   3.860
41362W        W 7771  17.616  21.046  13.468
41363W        W 7772  38.338  25.044   3.821
41364W        W 7773   7.746   4.302   1.418
41365W        W 7774  27.680  10.088   0.511
41366W        W 7775  32.276  17.881   1.791
41367W        W 7776  17.010   6.055   3.301
41368W        W 7777  24.709   0.545   2.322
41369W        W 7778   0.428  34.056   3.042
41370W        W 7779  41.287  28.788  11.877
41371W        W 7780  15.152   8.481  11.575
41372W        W 7781  30.053  24.186  14.682
41373W        W 7782  11.844  41.395   1.350
41374W        W 7783  31.659  22.072   1.328
41375W        W 7784   3.378  16.053  12.416
41376W        W 7785  33.863  19.787   4.503
41377W        W 7786  25.628   1.799  14.747
41378W        W 7787  17.239  13.603  11.377
41379W        W 7788  25.639  31.736   2.106
41380W        W 7789  30.208  39.545  12.014
41381W        W 7790  41.925  17.788   4.191
41382W        W 7791  30.353  18.333  14.983
41383W        W 7792  15.191  41.669  13.873
41384W        W 7793  24.799  38.080   0.288
41385W        W 7794  38.975  22.375  13.957
41386W        W 7795  11.259  16.770  11.319
41387W        W 7796   3.897  36.002   2.304
41388W        W 7797   1.830  27.891   2.685
41389W        W 7798  33.026  37.737  13.377
41390W        W 7799  38.024   3.028  11.483
41391W        W 7800  28.277   0.338  10.634
41392W        W 7801   1.008  12.855   4.581
41393W        W 7802  38.428  12.105  10.549
41394W        W 7803  41.550  13.577   4.618
41395W        W 7804  33.504  41.930   3.677
41396W        W 7805  20.131  25.019  14.681
41397W        W 7806  21.579  25.182   5.125
41398W        W 7807   8.333   5.368   4.191
41399W        W 7808  23.490  24.562  14.009
41400W        W 7809  18.418   2.712   0.790
41401W        W 7810   2.242  41.690  14.030
41402W        W 7811  26.037  29.225   0.940
41403W        W 7812  10.226  26.409  12.640
41404W        W 7813  31.923  28.860  11.743
41405W        W 7814  19.231   7.736   1.634
41406W        W 7815  14.204  13.959  12.367
41407W        W 7816  17.858   2.733  11.985
41408W        W 7817   6.220  27.805  14.311
41409W        W 7818  31.592  43.893   2.889
41410W        W 7819   5.389  30.452   3.745
41411W        W 7820   8.157  14.830   0.781
41412W        W 7821  20.140  43.004  12.114
41413W        W 7822   3.567   9.833   4.213
41414W        W 7823  18.319   1.553  13.276
41415W        W 7824  42.503  44.958   1.495
41416W        W 7825  18.754  43.731   1.245
41417W        W 7826   9.199   7.372   2.395
41418W        W 7827  35.146   4.869  10.840
41419W        W 7828  31.007  38.026   3.320
41420W        W 7829   9.751  39.806  10.437
41421W        W 7830   2.084  17.688  13.286
41422W        W 7831  42.479  15.225   3.306
41423W        W 7832   9.200  26.128   1.348
41424W        W 7833   1.412   5.155   1.330
41425W        W 7834  33.859  37.529  14.235
41426W        W 7835  31.613  38.521  11.903
41427W        W 7836  38.241  40.015  11.107
41428W        W 7837  23.829   8.568   5.450
41429W        W 7838  22.103  33.661   0.896
41430W        W 7839  10.652  35.649  11.109
41431W        W 7840  25.127  13.893  11.547
41432W        W 7841  37.060   3.410  12.755
41433W        W 7842  30.140   9.205  13.927
41434W        W 7843  40.413  12.463   3.554
41435W        W 7844  40.795  10.251   3.709
41436W        W 7845  43.083  28.193   2.199
41437W        W 7846  39.139  32.508  12.292
41438W        W 7847  43.743  11.580  10.675
41439W        W 7848  31.422   9.286   0.675
41440W        W 7849  30.018  44.745  10.781
41441W        W 7850   7.763   5.738   2.783
41442W        W 7851  23.588   0.941   1.229
41443W        W 7852  27.353  39.104   1.414
41444W        W 7853  28.379   5.554   2.640
41445W        W 7854  25.010  31.354   4.503
41446W        W 7855  14.055  29.126   3.201
41447W        W 7856  11.734  22.733   0.786
41448W        W 7857  28.146  27.267  12.023
41449W        W 7858  16.564   4.876   2.154
41450W        W 7859   3.092  33.090  12.600
41451W        W 7860  44.324  31.320   1.490
41452W        W 7861  32.238  25.136   3.333
41453W        W 7862   6.358  19.018  13.057
41454W        W 7863   8.301   3.810   4.124
41455W        W 7864  39.144   2.138   4.797
41456W        W 7865   6.741   6.667  10.859
41457W        W 7866  20.057  18.145  14.548
41458W        W 7867  15.654  31.978   3.195
41459W        W 7868  41.090  40.074  11.344
41460W        W 7869   6.196  34.616   0.395
41461W        W 7870  11.707  12.911  10.920
41462W        W 7871  44.665  15.575  10.244
41463W        W 7872  22.491   6.045   2.240
41464W        W 7873  38.023  27.874  13.838
41465W        W 7874   4.835  23.656   2.034
41466W        W 7875  14.675  24.162   4.123
41467W        W 7876  11.145  25.382  12.898
41468W        W 7877  22.602   2.910  12.531
41469W        W 7878  31.019  36.594   4.721
41470W        W 7879   8.804  23.589  13.531
41471W        W 7880  16.311   3.018   0.853
41472W        W 7881  23.850  39.961   0.319
41473W        W 7882  13.957  25.967   3.675
41474W        W 7883  11.835  40.378  14.475
41475W        W 7884  11.363  18.807  10.259
41476W        W 7885  22.837  21.063  14.270
41477W        W 7886  30.090  37.842   2.815
41478W        W 7887   1.430  28.194  10.709
41479W        W 7888   9.405  25.201   1.123
41480W        W 7889  44.348  40.321   4.207
41481W        W 7890  33.371  32.966  14.616
41482W        W 7891  26.938   7.257   3.093
41483W        W 7892  29.921  20.756   3.211
41484W        W 7893  25.871  40.855   4.507
41485W        W 7894  28.392   0.639  13.207
41486W        W 7895  26.590   9.396   0.667
41487W        W 7896  16.101  33.061  11.577
41488W        W 7897  27.119  42.259  10.698
41489W        W 7898   1.445  13.181   2.210
41490W        W 7899  38.983  43.001   0.370
41491W        W 7900  14.652  26.070  14.840
41492W        W 7901   4.698  10.317   4.482
41493W        W 7902  19.204   9.416   0.847
41494W        W 7903  27.666  27.131  11.960
41495W        W 7904   9.984  29.551  12.474
41496W        W 7905   0.767  18.224  13.362
41497W        W 7906  40.349  30.865  11.564
41498W        W 7907  43.716  41.855  14.462
41499W        W 7908  43.796  15.386  10.573
41500W        W 7909   0.633  13.708   4.894
41501W        W 7910   6.457   9.901  12.455
41502W        W 7911  44.883   9.756  13.994
41503W        W 7912  14.129  27.753   0.816
41504W        W 7913  44.687   1.745  11.245
41505W        W 7914  27.220  21.781   3.374
41506W        W 7915  34.433  35.335  11.178
41507W        W 7916  23.519  14.252  10.687
41508W        W 7917  21.024   3.843  11.385
41509W        W 7918  35.462  20.684  11.597
41510W        W 7919  27.466  11.512   0.420
41511W        W 7920   2.384  25.255   0.483
41512W        W 7921   0.467  20.283   4.583
41513W        W 7922  23.455   2.528   3.254
41514W        W 7923  33.482  33.978   1.375
41515W        W 7924   8.314  30.142  14.827
41516W        W 7925   1.522  36.958   2.455
41517W        W 7926   2.532   8.503   5.128
41518W        W 7927  29.432  12.461  12.621
41519W        W 7928  14.707  33.069   3.104
41520W        W 7929  17.573   4.067  14.915
41521W        W 7930   3.315  11.235   0.037
41522W        W 7931  36.947  32.552   4.108
41523W        W 7932  16.778  43.840  12.629
41524W        W 7933  28.553  23.252  14.402
41525W        W 7934  40.228  40.122   4.983
41526W        W 7935  21.077   8.752   0.849
41527W        W 7936   7.717  34.813  12.109
41528W        W 7937  33.144  17.130   2.226
41529W        W 7938   9.311   7.965  13.520
41530W        W 7939   0.583  30.583  10.312
41531W        W 7940   1.394   3.048   3.075
41532W        W 7941  44.905  20.935  10.716
41533W        W 7942  44.454  29.070   9.867
41534W        W 7943  27.288  39.021  14.266
41535W        W 7944  21.929   8.723  13.026
41536W        W 7945  29.054   2.829   4.493
41537W        W 7946  36.240   1.823   1.643
41538W        W 7947  16.590  28.176  14.903
41539W        W 7948  19.461  14.005  10.701
41540W        W 7949  25.565  34.383  13.996
41541W        W 7950  36.341  19.042   0.787
41542W        W 7951  16.248  16.675   2.881
41543W        W 7952  33.455  35.928  13.522
41544W        W 7953  32.877   6.298   1.959
41545W        W 7954  37.469   7.274   3.986
41546W        W 7955   4.086  12.161   0.819
41547W        W 7956  29.615  10.720  12.318
41548W        W 7957  24.557  12.302  11.075
41549W        W 7958  30.500  25.456   0.161
41550W        W 7959  15.142   8.738  12.044
41551W        W 7960  25.729   7.487  10.238
41552W        W 7961  35.541  11.823  13.912
41553W        W 7962  41.030  35.536   2.327
41554W        W 7963  32.307   6.897   3.304
41555W        W 7964  27.327   9.836  11.444
41556W        W 7965  40.597  35.594   0.843
41557W        W 7966  26.224  13.252   1.748
41558W        W 7967  34.583   7.897  11.991
41559W        W 7968  41.693  29.117   4.640
41560W        W 7969   2.252  29.764   0.151
41561W        W 7970  44.435   3.631   0.727
41562W        W 7971   4.824  24.005  13.312
41563W        W 7972  12.898  11.676  14.317
41564W        W 7973  15.000   1.120   2.268
41565W        W 7974  18.605  14.369   0.628
41566W        W 7975  26.004  28.324  12.056
41567W        W 7976  27.710   3.901   3.383
41568W        W 7977  22.662  43.657   0.929
41569W        W 7978  30.987   0.894  14.501
41570W        W 7979  25.140   6.239   1.479
41571W        W 7980  19.489  44.323  13.786
41572W        W 7981  44.818  39.716   1.688
41573W        W 7982  35.838   0.943  10.706
41574W        W 7983  32.776  42.104   2.382
41575W        W 7984  42.964  12.725   4.264
41576W        W 7985  27.014   1.330   3.959
41577W        W 7986  18.124   5.808   2.688
41578W        W 7987  39.214   5.268  12.030
41579W        W 7988  35.727  22.851  13.580
41580W        W 7989  27.606  43.431   4.022
41581W        W 7990  42.066  26.752   0.490
41582W        W 7991  32.134   2.950   1.827
41583W        W 7992  31.057  16.284   0.801
41584W        W 7993   5.838  27.596  10.439
41585W        W 7994  10.825  32.416  13.002
41586W        W 7995  18.707   5.640  13.915
41587W        W 7996  25.201  36.311   5.123
41588W        W 7997  22.487  37.146  14.423
41589W        W 7998  42.304   2.894  12.211
41590W        W 7999   3.190   5.358  14.799
41591W        W 8000  11.212  18.721  10.745
41592W        W 8001   8.165  34.510  12.056
41593W        W 8002  18.460  41.057  14.312
41594W        W 8003  11.425  21.256   4.656
41595W        W 8004  22.022  35.640  14.828
41596W        W 8005  34.388  20.703   4.841
41597W        W 8006  31.986  19.293  13.478
41598W        W 8007  24.578  10.827   2.158
41599W        W 8008  10.307  20.116   3.709
41600W        W 8009  32.791  13.153  14.080
41601W        W 8010  12.364  19.985   2.750
41602W        W 8011  41.071  39.170  10.994
41603W        W 8012  29.023  12.237   2.701
41604W        W 8013  38.303  36.472  12.067
41605W        W 8014  10.707  30.536   4.809
41606W        W 8015  15.683  25.833   9.692
41607W        W 8016  39.624  29.963  12.052
41608W        W 8017  31.667  23.981  10.798
41609W        W 8018   6.436  23.213   4.083
41610W        W 8019  38.505  35.240   4.067
41611W        W 8020   9.413  12.620   0.659
41612W        W 8021  33.056  29.412   2.968
41613W        W 8022  12.118   4.364   1.820
41614W        W 8023   0.741  41.750   4.390
41615W        W 8024  33.689  17.717  10.797
41616W        W 8025  40.792  17.202   2.395
41617W        W 8026  10.271  41.864   1.237
41618W        W 8027  22.126  28.707   4.014
41619W        W 8028   6.254  26.970  12.008
41620W        W 8029  44.903   3.848   3.878
41621W        W 8030  20.103  26.458  13.606
41622W        W 8031  35.809  42.162  12.596
41623W        W 8032  39.816  44.902  12.403
41624W        W 8033   1.055  23.142  14.473
41625W        W 8034  38.610  19.359  10.683
41626W        W 8035  18.607  28.878  11.141
41627W        W 8036  38.886  42.930  12.491
41628W        W 8037  18.498  19.774  11.949
41629W        W 8038  32.980  42.906   0.352
41630W        W 8039  23.975  26.044  12.841
41631W        W 8040  18.622  13.871  14.763
41632W        W 8041  34.602   6.424   2.200
41633W        W 8042  17.591  14.357   4.370
41634W        W 8043  19.129   3.453   3.445
41635W        W 8044   5.333   0.335   2.189
41636W        W 8045  33.687  27.616   4.008
41637W        W 8046  20.135   6.929   0.106
41638W        W 8047  37.318   1.257  13.295
41639W        W 8048   5.354  40.742   2.172
41640W        W 8049  38.898   4.286   1.230
41641W        W 8050   9.626   4.494  12.932
41642W        W 8051  14.720  19.652  13.338
41643W        W 8052   3.910  32.431   4.371
41644W        W 8053   4.791  34.949  11.648
41645W        W 8054  34.395   9.070  11.447
41646W        W 8055  36.027   2.923  11.011
41647W        W 8056   8.838   8.155   2.828
41648W        W 8057  27.836  15.496  12.835
41649W        W 8058   2.927  29.746   0.918
41650W        W 8059  27.386   6.676   4.060
41651W        W 8060   2.816  44.198   4.893
41652W        W 8061  21.925   0.254  14.374
41653W        W 8062  23.205  41.435   3.971
41654W        W 8063  18.469   4.228  10.756
41655W        W 8064  29.163  10.707  14.029
41656W        W 8065  27.633  28.516  13.894
41657W        W 8066  39.824   4.027   1.436
41658W        W 8067  34.026  43.980  11.152
41659W        W 8068  12.717  35.371   4.504
41660W        W 8069  44.270  13.792  14.738
41661W        W 8070   1.019  32.505  12.195
41662W        W 8071  19.158  37.956  11.846
41663W        W 8072  30.454  44.830   2.704
41664W        W 8073   7.323  17.425  12.666
41665W        W 8074  36.382  26.178   0.244
41666W        W 8075  26.380  38.505  12.046
41667W        W 8076  19.067  10.851   3.817
41668W        W 8077  10.760   8.361   1.227
41669W        W 8078   7.681  15.178  14.415
41670W        W 8079   1.686  17.270   3.142
41671W        W 8080  15.868  23.401  12.595
41672W        W 8081  36.273  22.148   4.065
41673W        W 8082  38.337  44.425  12.169
41674W        W 8083  26.119  16.314  12.344
41675W        W 8084  40.885  24.033  14.979
41676W        W 8085  23.277  12.829   1.326
41677W        W 8086  38.603  30.825   3.010
41678W        W 8087   4.436   7.354   3.287
41679W        W 8088   7.406  20.912  13.354
41680W        W 8089   2.368  42.452   2.679
41681W        W 8090  35.074  16.285  11.620
41682W        W 8091  21.730  35.392   1.443
41683W        W 8092  30.614  15.596   9.882
41684W        W 8093  13.459  25.251   3.277
41685W        W 8094   1.001  28.653   4.401
41686W        W 8095  26.244   1.865  11.103
41687W        W 8096  34.944  26.937   2.628
41688W        W 8097  18.737  15.793   5.089
41689W        W 8098  16.593  19.174   1.305
41690W        W 8099  44.900   8.907  14.146
41691W        W 8100  42.714  38.417  13.448
41692W        W 8101   8.255  34.385  14.382
41693W        W 8102  22.340  36.904   2.317
41694W        W 8103  26.264  24.720   5.344
41695W        W 8104  14.182  15.766   1.390
41696W        W 8105  27.451  18.284  11.115
41697W        W 8106  28.663  18.543  12.938
41698W        W 8107  14.326   4.919   2.921
41699W        W 8108   9.138  12.173  11.601
41700W        W 8109  30.933  29.117  13.052
41701W        W 8110  10.908  29.596  12.826
41702W        W 8111  20.413  36.938  10.542
41703W        W 8112  30.506   4.964  11.068
41704W        W 8113  29.317  22.667   0.033
41705W        W 8114  41.759  44.472   2.954
41706W        W 8115  30.953  20.961  12.376
41707W        W 8116   2.397  21.204   0.986
41708W        W 8117  17.814  23.529  12.541
41709W        W 8118  11.311  39.429   3.656
41710W        W 8119  27.251  22.643   1.165
41711W        W 8120   9.838  19.660   3.129
41712W        W 8121  38.468  12.246  14.204
41713W        W 8122   1.818  16.856  12.192
41714W        W 8123  35.364  20.683   1.121
41715W        W 8124  33.503  31.092  14.832
41716W        W 8125  44.057  26.604  10.545
41717W        W 8126  41.303  27.013  10.621
41718W        W 8127  35.919   1.307  11.557
41719W        W 8128   7.472  42.250   0.687
41720W        W 8129   7.834  41.475  11.196
41721W        W 8130   9.724  35.334  12.867
41722W        W 8131   2.256  17.524   0.187
41723W        W 8132   3.719  37.891  11.492
41724W        W 8133  14.803  33.444  14.363
41725W        W 8134  35.352  20.770   2.302
41726W        W 8135  28.661  20.111  12.785
41727W        W 8136  25.619  17.251   0.680
41728W        W 8137  38.139  20.416  10.732
41729W        W 8138   6.269   0.286  10.653
41730W        W 8139  17.501  29.590   4.688
41731W        W 8140  18.984  25.486  13.216
41732W        W 8141  36.789   2.925  11.645
41733W        W 8142  38.852   3.144  13.913
41734W        W 8143   0.778  34.950   3.341
41735W        W 8144   5.418   8.896  14.371
41736W        W 8145  14.515   8.794   4.585
41737W        W 8146   8.786  33.072   3.112
41738W        W 8147  24.517  29.929  12.537
41739W        W 8148  24.098  31.473   4.332
41740W        W 8149  19.673  16.799   1.796
41741W        W 8150  15.749  20.614  11.556
41742W        W 8151   2.764   4.402   3.664
41743W        W 8152  25.181   2.913  11.562
41744W        W 8153  16.249  12.679   3.710
41745W        W 8154  17.796  25.441   0.491
41746W        W 8155  14.878   8.129  11.987
41747W        W 8156  37.043  27.649   0.861
41748W        W 8157  26.933   0.410  12.336
41749W        W 8158  21.728  30.444   1.498
41750W        W 8159   1.241  24.117   4.187
41751W        W 8160  18.536  21.138  13.073
41752W        W 8161  29.113  34.980  11.958
41753W        W 8162   5.239  25.280   1.952
41754W        W 8163   8.688  22.220  12.115
41755W        W 8164   4.495  35.567  10.614
41756W        W 8165  24.733  42.759  14.848
41757W        W 8166  37.423   7.476   0.796
41758W        W 8167   1.222  35.037   1.832
41759W        W 8168  14.937  32.133   0.319
41760W        W 8169  31.905   8.061  13.379
41761W        W 8170   8.844  35.700   1.624
41762W        W 8171  33.001   5.313   4.131
41763W        W 8172  21.362  15.055  11.069
41764W        W 8173  17.786  10.782   4.549
41765W        W 8174  24.827  28.632  12.305
41766W        W 8175  25.231  30.487   4.913
41767W        W 8176  22.499  44.820   0.194
41768W        W 8177  31.914  26.838  13.662
41769W        W 8178   2.143   3.436   0.425
41770W        W 8179  28.160  31.962   1.096
41771W        W 8180  35.801  29.477   2.844
41772W        W 8181  28.186  13.075   1.007
41773W        W 8182  22.274  18.744   1.952
41774W        W 8183  37.854  33.894  13.399
41775W        W 8184  24.980  20.997  12.601
41776W        W 8185   2.903  10.737  11.729
41777W        W 8186   7.733  37.061  11.522
41778W        W 8187  25.271  40.035   2.338
41779W        W 8188   1.523  40.747  13.896
41780W        W 8189  21.989  44.606  11.193
41781W        W 8190  18.033  27.437   1.858
41782W        W 8191   2.811  42.517   3.171
41783W        W 8192  43.769   5.099   4.057
41784W        W 8193  20.284  38.112  11.006
41785W        W 8194   0.698  18.226   0.909
41786W        W 8195   8.832   7.569  11.113
41787W        W 8196  29.871  42.898  13.223
41788W        W 8197  14.826  33.676  12.584
41789W        W 8198   7.688  44.830   3.638
41790W        W 8199  33.643  15.836   1.388
41791W        W 8200  25.245  37.763   2.782
41792W        W 8201  31.619  16.278   1.751
41793W        W 8202  37.309  44.825  12.450
41794W        W 8203   6.785  18.320   1.934
41795W        W 8204  21.741  14.839  11.370
41796W        W 8205  32.711  26.618  11.616
41797W        W 8206  22.431  39.974   4.912
41798W        W 8207  34.346  26.210   1.778
41799W        W 8208  16.155  15.340   3.196
41800W        W 8209  11.940   0.654  12.398
41801W        W 8210  42.189  38.150   1.278
41802W        W 8211  38.692  21.053   3.773
41803W        W 8212   1.728  17.554   0.847
41804W        W 8213  40.003   3.963  12.849
41805W        W 8214  28.462  14.617   1.864
41806W        W 8215  29.366  26.428  14.761
41807W        W 8216   4.429  41.024  14.599
41808W        W 8217   7.047  12.304  12.018
41809W        W 8218  24.577   2.254   0.321
41810W        W 8219  27.448  17.708  11.981
41811W        W 8220   6.950   6.177   4.541
41812W        W 8221  12.952  39.958   4.624
41813W        W 8222  17.800  10.844  13.849
41814W        W 8223  44.997  43.469  10.503
41815W        W 8224  36.498  32.930  14.760
41816W        W 8225  19.459  28.901   4.542
41817W        W 8226  29.615  16.597  11.060
41818W        W 8227  44.009  14.833  11.961
41819W        W 8228   4.906   5.735  14.052
41820W        W 8229  33.704  13.770  12.565
41821W        W 8230  25.084  15.488   4.659
41822W        W 8231  15.838  16.696   3.837
41823W        W 8232   1.728   2.230   3.134
41824W        W 8233   0.790  33.866  14.412
41825W        W 8234  21.119  37.943  14.419
41826W        W 8235  44.293  27.100  12.822
41827W        W 8236   1.987  38.032  14.300
41828W        W 8237  26.986  21.559   1.818
41829W        W 8238  28.992  40.758   0.385
41830W        W 8239  40.989  23.929  10.884
41831W        W 8240  29.441  24.122  11.807
41832W        W 8241   6.286  26.559  10.291
41833W        W 8242   1.413  41.809   1.770
41834W        W 8243  41.113  19.150   2.563
41835W        W 8244  26.257   5.139   0.700
41836W        W 8245   3.451  30.969   3.582
41837W        W 8246  17.246   0.735  14.322
41838W        W 8247   5.326  34.124  14.332
41839W        W 8248   7.793  35.325  12.181
41840W        W 8249  32.682   8.609  12.924
41841W        W 8250  15.138  26.969   3.786
41842W        W 8251   2.869  16.346  10.463
41843W        W 8252   6.572  41.989   3.454
41844W        W 8253  10.736  17.551   3.160
41845W        W 8254  36.221  14.873   2.811
41846W        W 8255  22.454  21.117  10.486
41847W        W 8256  18.090   2.944   0.414
41848W        W 8257  19.022  12.871  13.086
41849W        W 8258  44.779   2.242  14.750
41850W        W 8259  24.124  31.423  14.408
41851W        W 8260  28.399  39.643   0.762
41852W        W 8261  26.217  39.287   3.245
41853W        W 8262  40.852  42.081   1.532
41854W        W 8263  22.620  21.164  11.864
41855W        W 8264  32.896   4.085  14.019
41856W        W 8265  36.944  18.158  13.067
41857W        W 8266  19.307  34.949   2.900
41858W        W 8267   4.386  41.048  14.109
41859W        W 8268  30.389   9.206   1.973
41860W        W 8269   3.501  13.186   3.676
41861W        W 8270  42.282   1.657  11.272
41862W        W 8271   5.316  29.056   4.154
41863W        W 8272   9.133  43.907   0.976
41864W        W 8273  12.592   1.289  11.151
41865W        W 8274  23.133  29.867   2.373
41866W        W 8275  26.753  22.780  12.965
41867W        W 8276  21.021  36.862   1.884
41868W        W 8277  43.566   9.668  14.875
41869W        W 8278  36.306   1.042   2.411
41870W        W 8279  39.381  40.978   2.889
41871W        W 8280  22.531  40.950  14.325
41872W        W 8281  18.677  37.116  11.250
41873W        W 8282  42.501  32.618  14.032
41874W        W 8283  36.077  29.167  13.019
41875W        W 8284  18.655  26.085  12.461
41876W        W 8285  43.398   2.437  12.862
41877W        W 8286  27.874   2.380  12.457
41878W        W 8287  18.261  19.085  12.027
41879W        W 8288   1.166   5.661   2.173
41880W        W 8289  26.400  26.426  10.152
41881W        W 8290  31.973   0.362   2.402
41882W        W 8291   2.514  34.638   0.480
41883W        W 8292  34.599   9.749  13.142
41884W        W 8293  15.796  19.715  13.478
41885W        W 8294  24.187  26.994  14.321
41886W        W 8295  10.603   7.636  13.079
41887W        W 8296  42.594   5.696   3.655
41888W        W 8297   3.658  30.638   2.205
41889W        W 8298  38.909  42.998   2.280
41890W        W 8299   3.387  26.144  12.902
41891W        W 8300  30.064  41.841   4.939
41892W        W 8301   9.892   3.325   0.507
41893W        W 8302  31.094  21.165   0.363
41894W        W 8303  21.981  11.870  11.564
41895W        W 8304   7.949  38.006   1.213
41896W        W 8305  21.637   0.045  13.501
41897W        W 8306  27.429  31.665  14.274
41898W        W 8307  34.543  16.905   1.233
41899W        W 8308   4.364   2.225   2.745
41900W        W 8309  43.919  19.830   0.326
41901W        W 8310  19.736   3.134  14.712
41902W        W 8311  22.329  25.144   0.240
41903W        W 8312  41.658  30.329   2.389
41904W        W 8313  21.220  42.121   1.258
41905W        W 8314  14.866  37.399  14.735
41906W        W 8315  39.968  40.440  13.719
41907W        W 8316  34.081  21.014  13.909
41908W        W 8317   2.789   8.466  12.560
41909W        W 8318  28.372  25.166  12.554
41910W        W 8319  22.002  43.019   3.717
41911W        W 8320  17.210   1.429   3.501
41912W        W 8321   4.873  11.983  13.293
41913W        W 8322  28.172  21.656   5.067
41914W        W 8323   8.292  44.099  14.321
41915W        W 8324   3.804  26.992  12.160
41916W        W 8325  14.513  36.077  14.860
41917W        W 8326  30.267   7.797   0.095
41918W        W 8327  38.952   3.925  12.948
41919W        W 8328  26.432  10.916  14.151
41920W        W 8329  41.464  10.229  10.527
41921W        W 8330  36.929  21.288   1.002
41922W        W 8331   7.702  17.470   1.486
41923W        W 8332  39.359  18.150  14.279
41924W        W 8333  39.519  13.850   3.207
41925W        W 8334  31.420  24.047  14.043
41926W        W 8335  24.401  31.397   0.777
41927W        W 8336  12.592  13.331  14.759
41928W        W 8337  17.405  24.647  10.513
41929W        W 8338  27.109  21.265   1.367
41930W        W 8339  15.666   0.759   4.092
41931W        W 8340  32.890  14.723  10.828
41932W        W 8341  27.610  32.067   0.981
41933W        W 8342  27.940  37.004   2.182
41934W        W 8343  12.373  30.758  11.585
41935W        W 8344  43.068  31.061  13.544
41936W        W 8345  13.193  37.799  13.529
41937W        W 8346  35.443   0.785   1.439
41938W        W 8347  28.636   5.358  13.917
41939W        W 8348  38.466  24.555   2.802
41940W        W 8349  26.560   9.666  12.831
41941W        W 8350   0.229   2.894   3.681
41942W        W 8351  35.010  43.904  14.408
41943W        W 8352  10.802  42.291  11.586
41944W        W 8353  11.286  44.417   9.845
41945W        W 8354  20.516  17.246  14.936
41946W        W 8355   7.246  38.636  11.942
41947W        W 8356  18.172   9.209  12.470
41948W        W 8357  26.031  15.693   0.530
41949W        W 8358   2.450  21.148  11.544
41950W        W 8359   8.932   1.740   0.338
41951W        W 8360   7.281  28.790  14.500
41952W        W 8361  44.979   6.777  14.793
41953W        W 8362  14.230  44.823   0.276
41954W        W 8363  17.363   7.759   0.524
41955W        W 8364  26.941  28.579  12.952
41956W        W 8365  36.630  42.743   3.730
41957W        W 8366  19.190  18.571  12.546
41958W        W 8367  16.322  23.167   2.111
41959W        W 8368   8.368  14.815  12.108
41960W        W 8369   3.320  13.782   2.425
41961W        W 8370  28.563  34.148   1.400
41962W        W 8371  20.173  31.263  12.232
41963W        W 8372  12.199  32.656   2.563
41964W        W 8373  35.879   0.004  10.697
41965W        W 8374  27.716  13.147  14.705
41966W        W 8375  35.413  32.674  10.520
41967W        W 8376  27.489  25.127  12.856
41968W        W 8377  26.996  10.730   2.131
41969W        W 8378  26.820  31.520   5.116
41970W        W 8379  28.445  30.981   3.546
41971W        W 8380  16.769  22.568   0.365
41972W        W 8381   0.135  16.559  11.224
41973W        W 8382  39.834  30.427  12.233
41974W        W 8383  40.394  35.404   0.013
41975W        W 8384  36.671  32.151   0.820
41976W        W 8385  16.730   1.547   2.574
41977W        W 8386  17.154  33.629  13.009
41978W        W 8387   1.384  40.018   1.180
41979W        W 8388  25.953  42.745   0.427
41980W        W 8389  16.746  13.338   0.718
41981W        W 8390   5.755  17.777  13.165
41982W        W 8391  17.217  27.050   4.143
41983W        W 8392  40.552  12.749   1.796
41984W        W 8393  10.140  14.715  13.404
41985W        W 8394  39.523   0.147   2.761
41986W        W 8395  11.033  16.969  12.102
41987W        W 8396  41.493  11.816   3.342
41988W        W 8397  29.194  28.903   4.405
41989W        W 8398  16.481  28.982   4.126
41990W        W 8399  21.695   3.661  13.032
41991W        W 8400  11.919  25.483  10.791
41992W        W 8401  17.814  13.186   2.276
41993W        W 8402   9.331   4.603  13.384
41994W        W 8403  10.383  21.039   1.007
41995W        W 8404  43.991  17.208   4.320
41996W        W 8405  44.548   8.032   3.683
41997W        W 8406  30.471   8.605   2.521
41998W        W 8407  32.868  41.553  14.828
41999W        W 8408   2.992  16.201   4.066
42000W        W 8409  36.815  39.753  13.391
42001W        W 8410  29.222  16.564  14.922
42002W        W 8411  38.906   1.219   3.151
42003W        W 8412  25.436  11.725  14.912
42004W        W 8413  10.376  43.002   3.593
42005W        W 8414   0.978  22.259   2.373
42006W        W 8415  38.658  32.519  12.504
42007W        W 8416  35.030  40.497  13.529
42008W        W 8417  16.207  31.455   2.471
42009W        W 8418  21.513  25.185   4.209
42010W        W 8419  36.110   1.896  13.326
42011W        W 8420  22.780  29.989   1.778
42012W        W 8421  24.143  32.307  10.251
42013W        W 8422  29.026   9.361  12.055
42014W        W 8423  31.794  37.347  13.880
42015W        W 8424  41.407  42.041  14.826
42016W        W 8425  32.141   8.626   3.738
42017W        W 8426  35.506  36.912   0.503
42018W        W 8427  18.812  24.537  14.752
42019W        W 8428  26.554  30.474  11.940
42020W        W 8429  14.567  20.026  10.658
42021W        W 8430   6.931  32.529   0.288
42022W        W 8431  28.993  24.357   4.742
42023W        W 8432  36.397  33.572   4.528
42024W        W 8433  11.924  28.175  11.734
42025W        W 8434   7.985  21.749   4.287
42026W        W 8435  36.049  12.725   3.250
42027W        W 8436  34.908  14.086  12.936
42028W        W 8437  24.414  22.630   0.836
42029W        W 8438  27.836  16.154  11.730
42030W        W 8439  15.086  29.458   9.865
42031W        W 8440   4.837  27.206   1.523
42032W        W 8441  16.934  26.517   5.084
42033W        W 8442  26.327   9.788   2.677
42034W        W 8443  33.726  44.773   4.939
42035W        W 8444  43.203  40.353   0.704
42036W        W 8445  38.789  29.436  12.028
42037W        W 8446   7.223  28.481  14.052
42038W        W 8447  17.977  39.017  11.468
42039W        W 8448  23.529   9.184   0.228
42040W        W 8449  11.826  38.642  10.198
42041W        W 8450   9.852  32.471  13.482
42042W        W 8451  40.731  22.113  12.839
42043W        W 8452  24.907  24.687  13.534
42044W        W 8453  25.324  13.126  11.951
42045W        W 8454  35.526  29.803  10.718
42046W        W 8455  17.049  35.590  12.792
42047W        W 8456  21.724  42.790  13.550
42048W        W 8457  19.960   4.322   0.765
42049W        W 8458  27.595   2.609  12.827
42050W        W 8459  19.583  36.253   0.025
42051W        W 8460  23.714  18.012  12.792
42052W        W 8461  42.744  10.783  11.517
42053W        W 8462  33.935  14.524  11.272
42054W        W 8463  25.606  17.862   1.889
42055W        W 8464  32.171  44.321   5.040
42056W        W 8465  31.686  19.138  13.999
42057W        W 8466  21.724  40.694  10.614
42058W        W 8467  15.765  11.906  11.623
42059W        W 8468  44.174   8.355  13.206
42060W        W 8469  23.249  42.976   1.226
42061W        W 8470  37.886  25.578   3.286
42062W        W 8471  23.029   2.700  10.342
42063W        W 8472  24.702  16.602  14.938
42064W        W 8473  26.912  16.399   1.869
42065W        W 8474  31.457  21.318  13.486
42066W        W 8475  23.562  20.713   2.406
42067W        W 8476  21.201  16.736   1.115
42068W        W 8477  42.747  10.893  10.061
42069W        W 8478  19.762   7.355  12.972
42070W        W 8479   1.039  10.579   0.316
42071W        W 8480  29.147  26.230  13.005
42072W        W 8481  28.514  14.626   3.706
42073W        W 8482  33.359  10.706  11.500
42074W        W 8483   3.254   9.668  10.543
42075W        W 8484  29.885  36.366   1.723
42076W        W 8485  25.640  38.304  11.167
42077W        W 8486   9.312  43.331  10.729
42078W        W 8487  33.340  38.842   4.158
42079W        W 8488   5.652  42.349  14.399
42080W        W 8489  38.855  14.844   3.567
42081W        W 8490  30.052   6.673  11.099
42082W        W 8491  12.705  12.102   2.891
42083W        W 8492  36.675  17.473  14.246
42084W        W 8493  41.028  29.690  11.668
42085W        W 8494  39.057  10.087   0.318
42086W        W 8495  16.804  23.044  11.504
42087W        W 8496  43.741  10.349  12.208
42088W        W 8497  14.202  23.493  12.226
42089W        W 8498  10.504  19.666  14.265
42090W        W 8499  23.180  24.410   3.959
42091W        W 8500  20.837  32.336  13.300
42092W        W 8501  17.622  37.432   4.162
42093W        W 8502  30.081   1.312   1.729
42094W        W 8503  31.874   0.300  10.762
42095W        W 8504  22.370   7.252  13.835
42096W        W 8505  36.963  39.887  12.457
42097W        W 8506  23.151  42.309  13.722
42098W        W 8507  21.227   4.982  13.013
42099W        W 8508  30.058  23.523   2.785
42100W        W 8509  43.265  35.023   2.622
42101W        W 8510  42.769  44.944   3.661
42102W        W 8511  11.786  36.120   0.814
42103W        W 8512  41.686  13.816  12.979
42104W        W 8513  20.330  33.978   1.276
42105W        W 8514  14.728  26.549   0.059
42106W        W 8515   6.774  33.855  10.565
42107W        W 8516  12.648  23.191  11.391
42108W        W 8517   3.116  38.999  11.084
42109W        W 8518  39.826  17.149  14.767
42110W        W 8519   2.856  30.594   3.794
42111W        W 8520  29.499  25.267  12.872
42112W        W 8521  37.336  11.620  11.636
42113W        W 8522  40.933  17.230  13.461
42114W        W 8523  26.378  41.941   0.788
42115W        W 8524  26.567  39.405   3.702
42116W        W 8525  44.707  23.719   2.716
42117W        W 8526  10.807  12.868  11.160
42118W        W 8527  10.694  37.216   9.843
42119W        W 8528  27.422  44.798   3.244
42120W        W 8529  26.857   6.302   5.031
42121W        W 8530  42.194  14.174   0.293
42122W        W 8531   2.802  32.724  11.647
42123W        W 8532   6.931  12.077  13.309
42124W        W 8533  20.178  29.135  13.914
42125W        W 8534   8.787   4.647  11.070
42126W        W 8535  38.326  34.119  13.432
42127W        W 8536  15.842  35.047   0.267
42128W        W 8537  43.838   2.205  13.090
42129W        W 8538  37.363  22.981   3.733
42130W        W 8539  43.254   2.754   2.911
42131W        W 8540  29.135  39.909  11.571
42132W        W 8541   7.189   4.084  12.516
42133W        W 8542   1.825  44.578  12.531
42134W        W 8543  23.219  17.618   1.669
42135W        W 8544  35.789  37.963   1.451
42136W        W 8545  36.619  13.319  13.957
42137W        W 8546  42.019  37.855   0.859
42138W        W 8547  37.448  25.298  13.971
42139W        W 8548  43.716  40.403  11.195
42140W        W 8549  30.686   0.027   0.718
42141W        W 8550  23.978  40.362   2.101
42142W        W 8551   2.252  22.656  13.681
42143W        W 8552  12.600  13.705   2.461
42144W        W 8553   8.924  28.424   1.614
42145W        W 8554  12.096  19.636  14.876
42146W        W 8555  15.668  18.329   1.416
42147W        W 8556   2.782  24.124   4.275
42148W        W 8557   6.947  41.814  12.546
42149W        W 8558  27.108  15.144   4.089
42150W        W 8559  15.125   6.140   4.085
42151W        W 8560  35.012   2.532  12.711
42152W        W 8561  32.512   3.369  14.704
42153W        W 8562  34.626  32.362   2.823
42154W        W 8563  37.040  38.536  12.021
42155W        W 8564  43.974  34.852   2.412
42156W        W 8565  39.036  20.704   0.710
42157W        W 8566  31.158  28.788   1.139
42158W        W 8567  19.587   2.544  12.791
42159W        W 8568   2.715  21.102  12.014
42160W        W 8569  39.855  27.584  14.841
42161W        W 8570  27.398  31.891   3.223
42162W        W 8571   3.905  37.856   0.180
42163W        W 8572  26.229  14.188   4.760
42164W        W 8573  31.864  42.109  12.919
42165W        W 8574  36.530  39.807  13.848
42166W        W 8575   4.827  40.310   3.769
42167W        W 8576  44.899  22.597  11.411
42168W        W 8577   4.255   2.200  14.782
42169W        W 8578  35.561  32.362  12.145
42170W        W 8579  34.517  22.723   1.479
42171W        W 8580  24.727  35.810   1.491
42172W        W 8581  32.665  17.707  10.759
42173W        W 8582  15.101  12.282   3.242
42174W        W 8583  44.893   4.205   0.859
42175W        W 8584  28.361  41.014   2.219
42176W        W 8585  23.771  14.839  13.345
42177W        W 8586  13.096   7.112   2.469
42178W        W 8587   4.730  19.090   2.815
42179W        W 8588  10.927  19.502  14.528
42180W        W 8589  41.470  32.352   2.867
42181W        W 8590   8.300  18.865   4.568
42182W        W 8591  19.058  21.733   3.110
42183W        W 8592  38.283  28.870   4.276
42184W        W 8593  44.788   3.894  14.319
42185W        W 8594  35.014  30.262  10.691
42186W        W 8595  31.895  16.490  12.566
42187W        W 8596  17.594   0.745  12.103
42188W        W 8597  29.392  11.620   4.812
42189W        W 8598  28.727  38.040   4.788
42190W        W 8599  29.498  18.292   1.811
42191W        W 8600  11.523   7.616  14.351
42192W        W 8601  25.239  42.763   4.155
42193W        W 8602  16.830  33.621  11.091
42194W        W 8603  23.959  38.059  13.106
42195W        W 8604  40.458  28.406  11.776
42196W        W 8605  18.651  29.979  10.716
42197W        W 8606  19.719  17.405   4.290
42198W        W 8607  10.423  19.709   1.335
42199W        W 8608   5.410  39.938   2.585
42200W        W 8609  29.660  30.455   4.587
42201W        W 8610  35.434  28.248  11.154
42202W        W 8611  35.942   3.922   1.605
42203W        W 8612  37.868   9.282   0.311
42204W        W 8613  44.788   8.796   2.672
42205W        W 8614  40.122   7.004  11.451
42206W        W 8615   2.370   4.942   1.481
42207W        W 8616  15.718   1.482   4.640
42208W        W 8617  14.622  25.939  13.004
42209W        W 8618  28.703  13.047   0.908
42210W        W 8619  16.776  11.313   4.757
42211W        W 8620  20.138  25.193   1.178
42212W        W 8621   1.850  37.405   3.238
42213W        W 8622   4.370   2.365  12.306
42214W        W 8623   2.525  17.050   5.082
42215W        W 8624   1.468   3.016  14.861
42216W        W 8625  36.940  14.604   0.718
42217W        W 8626   2.385   2.695   1.175
42218W        W 8627  37.127   7.917   3.941
42219W        W 8628  16.733  43.293  14.424
42220W        W 8629   0.894  43.190   3.718
42221W        W 8630  44.278   1.707   4.646
42222W        W 8631  18.213  40.364  11.139
42223W        W 8632  40.974  22.797   0.315
42224W        W 8633  18.282   5.776   3.611
42225W        W 8634  29.224   8.955   1.352
42226W        W 8635  24.469  15.064  14.303
42227W        W 8636  33.928  31.461   0.390
42228W        W 8637  12.260  25.963   1.879
42229W        W 8638   3.902  13.272  14.368
42230W        W 8639  11.118  11.911  12.469
42231W        W 8640  29.123  40.516   1.228
42232W        W 8641  37.310   7.709   2.348
42233W        W 8642   4.202  17.138   0.270
42234W        W 8643  21.165  35.956   4.477
42235W        W 8644  17.073  20.494  11.998
42236W        W 8645  37.886  40.985   0.850
42237W        W 8646   9.170  35.570  14.076
42238W        W 8647  38.557   3.030   3.199
42239W        W 8648   5.841  16.198  14.224
42240W        W 8649  12.420  25.256  11.538
42241W        W 8650  42.460  43.930  13.139
42242W        W 8651  28.482   8.400  14.866
42243W        W 8652  41.716   2.827  14.434
42244W        W 8653  10.253  43.797  14.078
42245W        W 8654  18.560  34.201   1.579
42246W        W 8655  15.843  21.657   3.129
42247W        W 8656  33.557  13.887  14.883
42248W        W 8657  27.838  33.500   4.606
42249W        W 8658  14.925  22.705   3.231
42250W        W 8659  37.387   8.324   1.457
42251W        W 8660  11.169   9.610  14.454
42252W        W 8661  31.628  27.615  14.278
42253W        W 8662  10.803   4.243   1.400
42254W        W 8663  36.385  29.116   3.411
42255W        W 8664  19.964  43.067  12.584
42256W        W 8665  31.921  41.935   0.492
42257W        W 8666  18.924  36.325   4.775
42258W        W 8667  43.122  42.749  14.441
42259W        W 8668   4.376  38.928  11.907
42260W        W 8669  16.198  19.123  14.036
42261W        W 8670  10.571  38.618  14.023
42262W        W 8671  41.939  30.122  11.154
42263W        W 8672   2.878  25.419   0.470
42264W        W 8673   7.561  40.755  14.850
42265W        W 8674  42.270  44.415  14.792
42266W        W 8675  30.097   3.381  12.864
42267W        W 8676  19.273  39.038  14.903
42268W        W 8677  31.844  16.698   3.775
42269W        W 8678  24.927   1.570   3.095
42270W        W 8679   7.574  17.983  11.095
42271W        W 8680  25.577  29.572   1.790
42272W        W 8681  16.739  41.280   3.423
42273W        W 8682   3.617   3.956   2.664
42274W        W 8683  17.761  16.406  14.531
42275W        W 8684  29.715   2.783  11.150
42276W        W 8685  10.318   7.873  10.640
42277W        W 8686  21.980  12.701   1.671
42278W        W 8687  23.944  16.269  12.958
42279W        W 8688   4.925  32.244   4.595
42280W        W 8689   1.404  19.292  13.010
42281W        W 8690   9.860  36.989   3.163
42282W        W 8691   2.220  40.516  11.661
42283W        W 8692   0.346   5.119  12.548
42284W        W 8693  25.959  41.541   0.546
42285W        W 8694  31.424   6.804   4.983
42286W        W 8695  16.733  12.123  10.757
42287W        W 8696   1.876   8.672  10.858
42288W        W 8697  25.255   5.624   3.147
42289W        W 8698  22.830  31.361   0.024
42290W        W 8699  38.878  10.409  10.800
42291W        W 8700  26.248  29.404   0.480
42292W        W 8701  35.116  42.303  10.733
42293W        W 8702  40.018  32.399   3.788
42294W        W 8703   4.481   9.932   0.327
42295W        W 8704  10.158  25.707  13.091
42296W        W 8705  22.679  39.790  10.673
42297W        W 8706  38.995  43.269  14.217
42298W        W 8707  10.933   5.674  12.276
42299W        W 8708   5.315  16.314   0.991
42300W        W 8709  32.214  13.229   1.073
42301W        W 8710  12.977   4.842   4.594
42302W        W 8711  22.578  11.129   4.464
42303W        W 8712  10.747   7.934   1.878
42304W        W 8713  10.679  39.864   0.743
42305W        W 8714  36.996   3.625   1.798
42306W        W 8715  14.738  11.345   4.197
42307W        W 8716  11.054  19.379   2.813
42308W        W 8717  21.189  27.719  12.027
42309W        W 8718  42.906  38.875  13.679
42310W        W 8719  30.021  10.553   4.257
42311W        W 8720  35.649  35.916  13.450
42312W        W 8721   9.435   6.933   2.544
42313W        W 8722  36.452  22.788   1.322
42314W        W 8723   8.525  38.593   0.019
42315W        W 8724  36.682  37.110   3.367
42316W        W 8725  43.494  26.035  10.549
42317W        W 8726   0.505  39.546  14.202
42318W        W 8727  12.030  40.024  11.531
42319W        W 8728  19.123  34.322  10.740
42320W        W 8729   7.329  33.338   5.348
42321W        W 8730  39.876  25.183   3.626
42322W        W 8731  26.650  14.349   4.516
42323W        W 8732   5.423  38.189  14.259
42324W        W 8733  13.135  15.735  11.880
42325W        W 8734  27.884  18.690   2.142
42326W        W 8735  30.086  17.753  13.365
42327W        W 8736   2.127   1.409  11.247
42328W        W 8737  30.536   7.606   3.687
42329W        W 8738  33.075  24.687   0.332
42330W        W 8739   0.907  36.051   3.821
42331W        W 8740  14.993   1.829  14.123
42332W        W 8741  17.700  20.995  12.555
42333W        W 8742  10.325  30.626   3.540
42334W        W 8743  12.663   6.847   1.925
42335W        W 8744  18.198  35.068   4.579
42336W        W 8745  24.022  29.996   4.628
42337W        W 8746  24.727  25.968   9.493
42338W        W 8747  25.805  36.465   2.850
42339W        W 8748   3.668  31.504   3.736
42340W        W 8749  25.939  32.351   4.244
42341W        W 8750  33.487  21.792  13.930
42342W        W 8751  39.484  24.710   4.783
42343W        W 8752   8.235   4.538   1.371
42344W        W 8753   0.584  22.587  11.513
42345W        W 8754  37.741   8.721   1.331
42346W        W 8755  43.470  16.828  10.374
42347W        W 8756  43.904   5.704  10.854
42348W        W 8757  21.786  11.615   4.566
42349W        W 8758  36.923  44.409  13.320
42350W        W 8759  10.865  14.853   0.817
42351W        W 8760  19.241  11.330   3.702
42352W        W 8761  18.066  24.215   0.206
42353W        W 8762  38.968  34.074   3.254
42354W        W 8763  27.700  16.330   3.718
42355W        W 8764  25.021  44.235   1.350
42356W        W 8765   8.181  35.881  13.451
42357W        W 8766  28.154  17.535  13.435
42358W        W 8767  16.797   2.494   1.418
42359W        W 8768   5.199  40.020   1.702
42360W        W 8769   8.788   0.239   0.365
42361W        W 8770  15.088  21.041   0.708
42362W        W 8771  41.060   9.564  14.373
42363W        W 8772  19.279   2.892   0.976
42364W        W 8773  17.200  10.294   1.201
42365W        W 8774   8.792  12.555   3.271
42366W        W 8775   5.385  42.408  11.476
42367W        W 8776   9.468  30.481   3.686
42368W        W 8777  36.601  34.454  12.987
42369W        W 8778   8.657  21.545   2.812
42370W        W 8779  16.637  38.274   3.056
42371W        W 8780  26.793   0.808   4.947
42372W        W 8781   9.329  21.174  13.038
42373W        W 8782   9.274  13.219  11.851
42374W        W 8783   2.890   8.947   4.669
42375W        W 8784  15.581  30.736   2.822
42376W        W 8785   1.454   5.757  14.223
42377W        W 8786   8.183  33.322   1.834
42378W        W 8787  36.270  18.794  14.028
42379W        W 8788  35.453  25.614  12.634
42380W        W 8789   4.367   5.473  12.021
42381W        W 8790  30.932  29.955   1.766
42382W        W 8791   8.376  22.153  14.759
42383W        W 8792  27.936   7.882   0.541
42384W        W 8793  37.350  15.554  10.526
42385W        W 8794  24.633  23.620  12.869
42386W        W 8795  14.732  13.698   0.673
42387W        W 8796   3.678  11.156   3.301
42388W        W 8797  22.288  22.633   3.205
42389W        W 8798  25.750  25.582   2.349
42390W        W 8799   1.807  35.244   1.361
42391W        W 8800  31.086  34.942  14.201
42392W        W 8801  37.582  13.308   2.669
42393W        W 8802  37.035   1.217  13.989
42394W        W 8803  20.417   1.993   3.292
42395W        W 8804   4.681   8.901   1.786
42396W        W 8805  40.537  19.006  13.695
42397W        W 8806   4.013  13.177   0.808
42398W        W 8807  37.427  20.054   0.021
42399W        W 8808  11.722  34.536  12.937
42400W        W 8809  26.915   9.215   4.008
42401W        W 8810  20.986  30.025   2.290
42402W        W 8811  43.375  25.205  14.002
42403W        W 8812  20.631  26.627  11.878
42404W        W 8813  39.584  44.451  14.373
42405W        W 8814  37.658  16.862   1.728
42406W        W 8815   6.721  37.071  14.372
42407W        W 8816  27.375  13.823  13.576
42408W        W 8817  29.686  23.938  14.407
42409W        W 8818   1.321   9.944  10.947
42410W        W 8819   6.151   4.258  14.562
42411W        W 8820  10.049  41.249   3.121
42412W        W 8821  40.504   5.711  11.097
42413W        W 8822  10.745   2.443  13.768
42414W        W 8823   7.684  13.707  12.154
42415W        W 8824  22.039  35.008   2.385
42416W        W 8825  15.913  16.163   4.177
42417W        W 8826  32.193  44.069  10.312
42418W        W 8827  29.541   9.505   3.866
42419W        W 8828  40.569  33.896  12.992
42420W        W 8829  25.080  11.088   0.345
42421W        W 8830   6.185  40.434  14.290
42422W        W 8831   3.427  24.197  10.549
42423W        W 8832  16.419  11.807   1.803
42424W        W 8833  11.333  31.853   4.537
42425W        W 8834  39.571  28.043   2.466
42426W        W 8835  18.250  39.757  13.354
42427W        W 8836  44.037   3.764   3.908
42428W        W 8837  34.922  11.117   1.816
42429W        W 8838   1.888  16.118   1.332
42430W        W 8839  22.984  37.513  12.134
42431W        W 8840  10.341  24.493   1.555
42432W        W 8841  19.139  12.865   2.146
42433W        W 8842  12.581  23.541  13.069
42434W        W 8843  28.694  39.305   2.221
42435W        W 8844  14.680  24.431   0.759
42436W        W 8845  15.876  12.431  12.412
42437W        W 8846   0.250   8.726  11.158
42438W        W 8847  14.284   0.997  11.018
42439W        W 8848  18.486   4.463  13.418
42440W        W 8849  28.410   2.447   3.609
42441W        W 8850   0.330  38.051   3.773
42442W        W 8851  19.120  30.238  11.104
42443W        W 8852  33.822  28.102   4.158
42444W        W 8853  38.371  27.141   4.330
42445W        W 8854  38.887  33.198   2.336
42446W        W 8855  15.719  37.441   3.637
42447W        W 8856   1.632   2.728   3.397
42448W        W 8857  33.416  20.980  12.458
42449W        W 8858  24.638  33.429   2.866
42450W        W 8859   1.957  26.420  14.272
42451W        W 8860  42.404  42.527   1.243
42452W        W 8861   4.783   3.382   1.031
42453W        W 8862  16.834   8.666   2.753
42454W        W 8863   0.711  28.058   2.117
42455W        W 8864   4.415  26.342   0.922
42456W        W 8865  24.777  15.285   4.279
42457W        W 8866  37.001   2.564   1.835
42458W        W 8867  15.774   6.447   2.095
42459W        W 8868  33.157  20.028  10.690
42460W        W 8869  27.570  18.687  13.967
42461W        W 8870  15.119  24.645   0.922
42462W        W 8871  31.348  25.171   0.530
42463W        W 8872   5.264  24.061  13.022
42464W        W 8873  17.336  17.309  12.025
42465W        W 8874  13.184  21.908  14.374
42466W        W 8875  42.461  11.839  14.393
42467W        W 8876  27.816  19.542   4.124
42468W        W 8877  29.660  26.183  13.021
42469W        W 8878  20.838  44.343  13.462
42470W        W 8879  27.895  34.282   0.672
42471W        W 8880   3.738  40.192   0.733
42472W        W 8881   5.749   1.717  13.517
42473W        W 8882  35.193  42.895   1.830
42474W        W 8883   5.339  11.769   4.375
42475W        W 8884  35.865  16.266  14.869
42476W        W 8885   7.856  20.464   0.489
42477W        W 8886  42.196  36.911   5.044
42478W        W 8887  29.359  18.949  12.413
42479W        W 8888  11.336   5.454  11.991
42480W        W 8889  10.888  32.078  11.999
42481W        W 8890  25.662  22.125  13.051
42482W        W 8891  14.089   0.708  11.430
42483W        W 8892  33.648  17.560  12.694
42484W        W 8893  31.089  37.377  12.017
42485W        W 8894  28.980  19.643   1.460
42486W        W 8895   6.922  24.019   3.512
42487W        W 8896  37.511  24.557   4.994
42488W        W 8897  43.314  35.568  12.431
42489W        W 8898  34.087  35.239  11.589
42490W        W 8899  40.257  35.676  12.991
42491W        W 8900  42.733  28.603   0.516
42492W        W 8901  11.801   6.908  13.538
42493W        W 8902  25.630  24.247   5.204
42494W        W 8903  26.451  14.937   0.682
42495W        W 8904   7.420  17.504  11.206
42496W        W 8905  37.506  11.042   2.772
42497W        W 8906  28.051  30.517  11.945
42498W        W 8907  24.689  33.554   4.605
42499W        W 8908   6.356  26.397  11.581
42500W        W 8909  30.736   3.453   4.173
42501W        W 8910  36.278  21.130   3.261
42502W        W 8911  14.563  24.035   2.603
42503W        W 8912  24.722  32.944   3.798
42504W        W 8913  13.079  30.578   4.661
42505W        W 8914  19.768  30.860   2.302
42506W        W 8915  29.432  22.265   1.654
42507W        W 8916   8.838  36.985  12.445
42508W        W 8917   1.859   8.488   2.102
42509W        W 8918   0.403   6.739   1.358
42510W        W 8919  34.427   8.709   0.253
42511W        W 8920  41.360  18.396  11.468
42512W        W 8921   4.499  18.323  13.996
42513W        W 8922  30.835  18.365   0.993
42514W        W 8923   7.314  31.561  10.349
42515W        W 8924  32.129   7.356  12.497
42516W        W 8925  23.032  33.417   0.881
42517W        W 8926  22.477  24.965   4.073
42518W        W 8927  35.034   8.415   3.659
42519W        W 8928  19.283  35.839   0.480
42520W        W 8929  12.046  34.239   3.102
42521W        W 8930   6.849  25.834   0.274
42522W        W 8931  44.759   4.892  10.128
42523W        W 8932  20.619  19.963   2.158
42524W        W 8933  35.080  25.741  14.021
42525W        W 8934  33.635   5.352   1.356
42526W        W 8935   8.587  30.368  11.045
42527W        W 8936  40.031   3.896   3.708
42528W        W 8937  36.418  38.944   1.151
42529W        W 8938  29.593  35.833   0.826
42530W        W 8939  13.768  24.674   0.315
42531W        W 8940   3.172  37.321   0.892
42532W        W 8941   6.396   4.087   3.829
42533W        W 8942   5.698   5.640   1.763
42534W        W 8943  19.670  12.967  11.645
42535W        W 8944  32.118  39.376   1.133
42536W        W 8945  22.252   9.393  11.113
42537W        W 8946  29.736  42.874   4.056
42538W        W 8947  11.329   9.937  13.537
42539W        W 8948  19.632  39.997  11.963
42540W        W 8949  43.211  37.540   2.668
42541W        W 8950  25.709  28.152   0.215
42542W        W 8951   6.780  40.246  13.889
42543W        W 8952  27.978  23.603   2.116
42544W        W 8953   0.297  40.956  11.869
42545W        W 8954  19.732  24.955  14.355
42546W        W 8955   3.173  41.790  13.763
42547W        W 8956   6.562   9.652   2.723
42548W        W 8957  34.649  44.398   2.743
42549W        W 8958  26.645  41.422  12.519
42550W        W 8959  32.471   5.747  12.610
42551W        W 8960  17.587  41.279  14.041
42552W        W 8961   8.318  43.981  11.847
42553W        W 8962   3.712  32.743  13.917
42554W        W 8963  15.913  37.411  14.051
42555W        W 8964   1.469   6.411  13.067
42556W        W 8965  13.463  10.350   5.059
42557W        W 8966  37.128  35.119   4.593
42558W        W 8967   9.392  31.339   4.104
42559W        W 8968  44.022   1.925   4.236
42560W        W 8969   0.306  18.029  13.078
42561W        W 8970   3.389  33.907   2.270
42562W        W 8971   0.492  22.582  14.782
42563W        W 8972   6.832  13.403   2.221
42564W        W 8973  20.656  14.435  12.041
42565W        W 8974  20.681  10.401   1.666
42566W        W 8975  11.782  12.737  11.963
42567W        W 8976  31.944  11.083   2.936
42568W        W 8977  44.575   4.405   3.357
42569W        W 8978  44.816  41.801  13.394
42570W        W 8979   7.510  21.214  10.684
42571W        W 8980   9.915  35.729   1.785
42572W        W 8981  23.256  24.977  11.953
42573W        W 8982  35.965   3.872  10.841
42574W        W 8983   5.458  17.316   3.846
42575W        W 8984  17.348  15.757  11.940
42576W        W 8985   8.358  34.557   3.613
42577W        W 8986   5.321  20.094   2.655
42578W        W 8987  37.329   6.873  14.795
42579W        W 8988  39.748   4.481   2.573
42580W        W 8989   1.268  30.755   4.770
42581W        W 8990  13.693   1.514  11.513
42582W        W 8991   5.671  10.377   1.134
42583W        W 8992  12.625  22.221  11.601
42584W        W 8993  19.492  33.578   1.559
42585W        W 8994  43.445  33.902  10.385
42586W        W 8995   0.489   0.170  11.594
42587W        W 8996  19.878  32.389   4.480
42588W        W 8997  15.316  31.339   2.367
42589W        W 8998  36.065  19.710  13.915
42590W        W 8999   1.279  36.297   2.975
42591W        W 9000   4.520  31.544  12.844
42592W        W 9001   7.274  27.447   1.440
42593W        W 9002  41.499  19.747   1.726
42594W        W 9003   1.005   3.366  11.901
42595W        W 9004  19.916  36.889  10.665
42596W        W 9005   3.668  14.688   3.195
42597W        W 9006  40.498   7.939   3.083
42598W        W 9007  39.305  35.197  11.086
42599W        W 9008  11.595  15.711  10.603
42600W        W 9009   8.758  28.504   2.388
42601W        W 9010  31.906  26.114  14.331
42602W        W 9011   2.787  18.717  14.238
42603W        W 9012   7.236  14.868  12.488
42604W        W 9013  41.868  11.748  11.500
42605W        W 9014  15.616  31.848  12.908
42606W        W 9015  10.139  36.431   0.716
42607W        W 9016  18.242  42.510  12.419
42608W        W 9017  37.897  36.956   2.718
42609W        W 9018  26.981  17.302   3.221
42610W        W 9019  21.009  28.627  11.037
42611W        W 9020  25.452   6.863  14.575
42612W        W 9021  26.577  30.643   3.288
42613W        W 9022  30.174  33.849   0.168
42614W        W 9023   8.342  40.755  13.379
42615W        W 9024  25.281  27.948  11.091
42616W        W 9025   0.584  21.274  14.252
42617W        W 9026  44.962  33.251  14.333
42618W        W 9027  37.650  21.204  11.692
42619W        W 9028   8.311   9.713  11.561
42620W        W 9029  10.316  40.103   3.757
42621W        W 9030  43.398  22.623  10.224
42622W        W 9031  39.825  36.401   3.876
42623W        W 9032  23.719  33.109  11.102
42624W        W 9033  13.529  10.323  11.153
42625W        W 9034   0.905   7.274   4.085
42626W        W 9035   2.329  10.054  12.251
42627W        W 9036   4.787  27.643   3.076
42628W        W 9037  33.310  34.088  11.654
42629W        W 9038  19.698   6.657   0.181
42630W        W 9039  16.642  36.599   2.410
42631W        W 9040  34.850  42.185   2.357
42632W        W 9041   6.444   4.974   4.136
42633W        W 9042  23.990  32.090  10.711
42634W        W 9043   5.186   9.361  14.348
42635W        W 9044   6.358  33.873  10.928
42636W        W 9045  11.039  13.807  13.579
42637W        W 9046   6.656  41.066  10.718
42638W        W 9047  36.484  25.737  10.569
42639W        W 9048  12.341   2.179  14.399
42640W        W 9049  18.791  29.063   3.732
42641W        W 9050  12.871  42.485   4.450
42642W        W 9051  20.661  42.435   3.862
42643W        W 9052  38.604  11.831  14.505
42644W        W 9053  10.788  23.620  13.423
42645W        W 9054  40.299  36.029  10.694
42646W        W 9055  26.944  35.365  12.966
42647W        W 9056   0.172  37.050   0.984
42648W        W 9057   7.258  29.140   1.913
42649W        W 9058  21.494   6.849  11.061
42650W        W 9059  23.868  40.278  14.355
42651W        W 9060  28.661   3.790   4.726
42652W        W 9061   5.848  15.947  13.249
42653W        W 9062  31.915  38.437   4.236
42654W        W 9063  27.404  25.823   3.174
42655W        W 9064  25.398  20.952  11.652
42656W        W 9065  27.024  32.181  12.961
42657W        W 9066  43.826  30.970  11.567
42658W        W 9067  40.800  39.232   1.247
42659W        W 9068  32.804   9.586   1.011
42660W        W 9069  16.387  43.822   3.336
42661W        W 9070  37.402  41.315  10.995
42662W        W 9071   6.858  31.088  12.405
42663W        W 9072   4.326   6.239   2.073
42664W        W 9073  21.256  32.017  13.429
42665W        W 9074   0.111  17.543  11.154
42666W        W 9075  29.459  40.609  10.572
42667W        W 9076   1.679   6.669  10.556
42668W        W 9077  44.380   2.626   3.119
42669W        W 9078  28.056   4.797   4.179
42670W        W 9079  17.798  10.001  12.555
42671W        W 9080   4.483  31.374  13.900
42672W        W 9081   0.103   2.384   3.791
42673W        W 9082  27.903   5.772  14.495
42674W        W 9083  29.017  17.274  14.311
42675W        W 9084  13.047   1.601   3.211
42676W        W 9085   4.456  11.804  12.340
42677W        W 9086  17.069   2.399  11.591
42678W        W 9087  20.719   8.347  10.635
42679W        W 9088  10.191  23.989  13.802
42680W        W 9089  42.463  33.332   2.723
42681W        W 9090  16.097   4.943  14.494
42682W        W 9091  32.076   0.490   3.706
42683W        W 9092  39.258  20.130   2.326
42684W        W 9093  43.768  29.982   3.541
42685W        W 9094   0.309  42.395  13.150
42686W        W 9095  14.242  44.047  13.094
42687W        W 9096  13.300  22.712   1.133
42688W        W 9097  20.295  28.951  14.381
42689W        W 9098  23.929  26.610   0.014
42690W        W 9099  32.205  17.780  14.908
42691W        W 9100   4.213   3.435   1.946
42692W        W 9101  13.908   8.809   2.650
42693W        W 9102  43.106  23.156   2.517
42694W        W 9103   7.177  43.430  14.792
42695W        W 9104  43.807  10.168   0.270
42696W        W 9105  43.476  22.864   3.854
42697W        W 9106   3.007  12.862   0.553
42698W        W 9107   2.370  15.585  13.890
42699W        W 9108  28.798  24.511   3.904
42700W        W 9109  40.763  12.083  13.771
42701W        W 9110   9.918   1.870   2.349
42702W        W 9111  27.717  24.672  12.947
42703W        W 9112  42.070  26.258  14.880
42704W        W 9113  30.498  35.055  11.228
42705W        W 9114   0.983   7.358  10.685
42706W        W 9115   4.124  44.949   4.710
42707W        W 9116  42.587   0.734  12.587
42708W        W 9117  43.603  41.703   0.433
42709W        W 9118  17.542  12.735  12.893
42710W        W 9119  11.314  37.458   4.218
42711W        W 9120  32.687  44.928  14.908
42712W        W 9121   6.715  27.153   3.757
42713W        W 9122  19.569  38.272   1.371
42714W        W 9123  23.780  29.982  10.417
42715W        W 9124  27.449  13.892  10.727
42716W        W 9125  25.655  38.082  11.647
42717W        W 9126  26.698  18.328  12.621
42718W        W 9127   2.198  30.585   2.141
42719W        W 9128  12.328  33.683   4.000
42720W        W 9129   3.158  20.577   4.133
42721W        W 9130  41.955  36.123  12.366
42722W        W 9131  14.632  33.170  12.653
42723W        W 9132   8.368  43.590   0.725
42724W        W 9133  39.304   1.402  14.446
42725W        W 9134  42.929  28.994  14.314
42726W        W 9135  21.922  13.615  11.919
42727W        W 9136  42.152  12.668   3.739
42728W        W 9137  40.276   1.344   0.750
42729W        W 9138  15.576  11.276  14.403
42730W        W 9139  17.006  39.978   4.703
42731W        W 9140  40.802  10.565  14.541
42732W        W 9141   0.055  29.476   3.685
42733W        W 9142  19.834   8.728   2.603
42734W        W 9143  36.975  30.930  14.055
42735W        W 9144   5.661  17.723   1.698
42736W        W 9145  35.301  35.595  14.892
42737W        W 9146  11.845   2.276   1.603
42738W        W 9147  19.544  40.418   1.383
42739W        W 9148  40.984  40.510  12.538
42740W        W 9149  17.590  31.809  11.216
42741W        W 9150  44.738  26.553  10.136
42742W        W 9151  27.607   6.521  14.944
42743W        W 9152  14.062  12.670  11.236
42744W        W 9153  26.893  14.671  13.002
42745W        W 9154  23.715   7.637  12.866
42746W        W 9155  18.622  17.329   3.125
42747W        W 9156  20.444   6.957  12.470
42748W        W 9157   6.214  44.246  12.009
42749W        W 9158  20.842  43.268  14.715
42750W        W 9159  32.966  26.428   3.568
42751W        W 9160  39.451  35.949  13.566
42752W        W 9161  24.256  26.322  11.032
42753W        W 9162  21.388  11.792  12.211
42754W        W 9163  14.078  37.009   0.788
42755W        W 9164   3.011  22.439  13.371
42756W        W 9165   7.178  40.329   4.064
42757W        W 9166  44.817  41.828   3.273
42758W        W 9167  43.029  30.367  13.002
42759W        W 9168  41.506  33.943  10.710
42760W        W 9169  15.136  34.175  11.624
42761W        W 9170  33.512  43.750  12.146
42762W        W 9171  10.114  12.000   2.670
42763W        W 9172  21.673   9.034   1.613
42764W        W 9173  41.810  20.216   3.670
42765W        W 9174  33.834  14.817   2.340
42766W        W 9175  31.740   1.369   4.543
42767W        W 9176  43.944   6.410   3.092
42768W        W 9177  12.362  23.072  13.019
42769W        W 9178  11.285   7.447  10.938
42770W        W 9179  33.937   1.888  13.510
42771W        W 9180   8.181  28.915   1.258
42772W        W 9181  15.758  40.818   0.886
42773W        W 9182  41.497  17.018   1.138
42774W        W 9183  26.622  23.043  12.534
42775W        W 9184  36.784  30.999  12.598
42776W        W 9185   6.576  30.860   1.392
42777W        W 9186  31.364   6.378  13.581
42778W        W 9187  40.427  42.035  14.388
42779W        W 9188  26.980   8.225   1.294
42780W        W 9189  27.481  24.219  12.828
42781W        W 9190  26.031  14.583  11.947
42782W        W 9191  14.647  19.028   4.914
42783W        W 9192  30.715   6.299   3.612
42784W        W 9193  34.048  21.373   2.703
42785W        W 9194  15.312  29.913  11.630
42786W        W 9195  12.591  24.618  10.700
42787W        W 9196  43.446  12.439   2.769
42788W        W 9197  10.815  23.699   0.367
42789W        W 9198  11.655   9.560   0.384
42790W        W 9199  26.961  29.966  12.962
42791W        W 9200  40.785  37.082   0.529
42792W        W 9201  18.910  30.822  12.228
42793W        W 9202  15.821  18.295  13.606
42794W        W 9203  43.287  19.364  13.547
42795W        W 9204  10.252  30.620   2.773
42796W        W 9205  36.689  13.119   2.825
42797W        W 9206  38.517  20.160  10.968
42798W        W 9207  37.087   4.231  14.603
42799W        W 9208   3.741   9.294   4.808
42800W        W 9209  26.648  12.110  12.839
42801W        W 9210  23.458   6.028   2.947
42802W        W 9211  14.833  39.522   3.346
42803W        W 9212  16.044  35.277   2.096
42804W        W 9213  19.873  25.545   2.766
42805W        W 9214  31.386  19.794  11.655
42806W        W 9215   2.179  15.551   3.208
42807W        W 9216  12.834  10.053   0.337
42808W        W 9217  10.036  22.733   1.735
42809W        W 9218   2.768   1.438   4.245
42810W        W 9219   3.247  16.854   4.373
42811W        W 9220  12.361  14.973  13.867
42812W        W 9221  19.722   6.426   0.679
42813W        W 9222  22.607  24.277  14.713
42814W        W 9223  36.565   4.969  11.490
42815W        W 9224  35.921  25.516   3.124
42816W        W 9225  31.668  24.726  11.150
42817W        W 9226  39.625  14.726   4.088
42818W        W 9227  13.427   3.696  12.790
42819W        W 9228  18.292  21.864   4.216
42820W        W 9229  17.950  12.479   0.496
42821W        W 9230  36.814  29.763   3.676
42822W        W 9231  41.473  14.724  10.433
42823W        W 9232   8.635   5.279  14.596
42824W        W 9233   0.588   8.629   4.901
42825W        W 9234  24.409  23.059   1.773
42826W        W 9235  25.745  41.333   1.782
42827W        W 9236  30.601  40.044  14.372
42828W        W 9237  20.587  36.365   2.214
42829W        W 9238  24.494  39.168   3.831
42830W        W 9239   8.892  39.500   1.451
42831W        W 9240   1.598   3.184  11.148
42832W        W 9241  39.332  35.522   4.663
42833W        W 9242  38.398  22.593  11.399
42834W        W 9243  29.703  11.299   4.507
42835W        W 9244  33.834  24.194  13.798
42836W        W 9245   2.066  44.769   4.158
42837W        W 9246  29.404  15.586  11.697
42838W        W 9247  25.672   3.453  10.633
42839W        W 9248  41.908  37.021   4.598
42840W        W 9249  21.360  38.058  12.493
42841W        W 9250   6.803  13.764   3.138
42842W        W 9251  29.424  14.090  12.017
42843W        W 9252  35.093   3.523  13.934
42844W        W 9253  29.439  27.751   4.462
42845W        W 9254   7.272  32.808  12.107
42846W        W 9255   6.624   2.894  11.414
42847W        W 9256  18.850  15.318  11.294
42848W        W 9257  20.264  41.430  10.887
42849W        W 9258  44.006  32.146  10.059
42850W        W 9259  37.328  20.796   3.591
42851W        W 9260   2.885  26.096  10.553
42852W        W 9261   2.308  44.483   2.688
42853W        W 9262  27.478  28.471   0.047
42854W        W 9263   3.830  27.659   3.721
42855W        W 9264  38.018  37.246   0.393
42856W        W 9265  44.733  18.153  12.048
42857W        W 9266  12.860  27.550  14.884
42858W        W 9267  22.581  27.520  14.067
42859W        W 9268  11.041  31.476  14.366
42860W        W 9269  11.431   3.346   2.148
42861W        W 9270   9.054  18.663   3.087
42862W        W 9271   5.554   8.287   1.536
42863W        W 9272  10.449  36.852   0.858
42864W        W 9273  40.571  17.047   3.332
42865W        W 9274  32.587  30.508  12.965
42866W        W 9275   0.135  44.344  11.904
42867W        W 9276  25.517  23.836   4.392
42868W        W 9277   7.894  25.555  11.909
42869W        W 9278   1.351   5.309  14.881
42870W        W 9279  26.156   1.739   0.281
42871W        W 9280  26.589  10.640  12.978
42872W        W 9281  34.412   4.341   5.184
42873W        W 9282  40.299  18.510  10.848
42874W        W 9283  15.294  14.336  11.218
42875W        W 9284  20.005  11.250  10.703
42876W        W 9285  10.762  17.397  12.101
42877W        W 9286  20.490  28.290  12.560
42878W        W 9287  33.039  43.439   4.604
42879W        W 9288  16.519  16.433   1.796
42880W        W 9289   1.328   0.307   3.245
42881W        W 9290  24.279  26.689  11.419
42882W        W 9291  44.454  43.832  14.568
42883W        W 9292   9.641  23.325  13.447
42884W        W 9293  43.490  24.694   0.545
42885W        W 9294  40.326  16.834  11.556
42886W        W 9295  13.480  10.180   4.554
42887W        W 9296  38.387  43.455  10.971
42888W        W 9297  22.119   9.202   1.418
42889W        W 9298  18.845  35.112  10.679
42890W        W 9299  25.308   5.839  10.600
42891W        W 9300  41.862  37.528   1.641
42892W        W 9301  40.865  39.288   0.713
42893W        W 9302  25.706  11.118  11.263
42894W        W 9303   6.889  44.548   2.203
42895W        W 9304  21.186  28.139   2.613
42896W        W 9305  40.089  31.027   1.242
42897W        W 9306  26.648  39.822  11.989
42898W        W 9307   3.995   7.068  12.661
42899W        W 9308  15.732  11.256   3.864
42900W        W 9309  19.336  42.072   1.910
42901W        W 9310   2.717  17.679  10.605
42902W        W 9311  30.679  28.364  14.739
42903W        W 9312  18.978  17.143  14.874
42904W        W 9313  27.754  24.007   4.575
42905W        W 9314   0.767  37.674  10.308
42906W        W 9315  10.239  28.470   1.238
42907W        W 9316  13.730  21.897  13.119
42908W        W 9317  35.445  34.395  10.924
42909W        W 9318   2.162   8.353   0.268
42910W        W 9319   4.299  41.538  11.496
42911W        W 9320   9.936  21.883   2.209
42912W        W 9321  23.455  26.089  12.853
42913W        W 9322   1.317  21.997  13.031
42914W        W 9323  37.902  41.392  12.086
42915W        W 9324  11.054   0.296   0.425
42916W        W 9325  37.833  12.824  11.142
42917W        W 9326  30.606  16.891  14.211
42918W        W 9327  27.686  31.559   1.742
42919W        W 9328   7.500  13.827   0.242
42920W        W 9329  24.586   3.554   2.590
42921W        W 9330  43.713   9.826  10.817
42922W        W 9331  33.405   7.451  12.475
42923W        W 9332   0.317  27.985  14.829
42924W        W 9333  37.746  32.560   2.971
42925W        W 9334   8.353  13.217  13.505
42926W        W 9335  34.796  25.205  11.463
42927W        W 9336  38.359  25.764   3.103
42928W        W 9337   4.496  44.071  12.314
42929W        W 9338   8.337   3.078  13.990
42930W        W 9339  11.283  33.113   3.399
42931W        W 9340  28.806  11.290   2.515
42932W        W 9341  30.408  40.530   3.252
42933W        W 9342  14.696  12.179  13.226
42934W        W 9343  15.579   3.296  13.068
42935W        W 9344  44.895  41.043   1.479
42936W        W 9345  39.994  24.628  11.604
42937W        W 9346  25.936  16.305   0.919
42938W        W 9347  43.255  26.737  11.116
42939W        W 9348   8.586  41.591   3.117
42940W        W 9349  15.285  35.753   3.076
42941W        W 9350  32.331   9.650  11.564
42942W        W 9351   8.289  32.852   3.202
42943W        W 9352   9.453  34.005  13.216
42944W        W 9353  39.859  12.063   3.732
42945W        W 9354   4.183   4.340  14.287
42946W        W 9355  29.594  28.756   4.709
42947W        W 9356  24.589  44.505   1.364
42948W        W 9357  12.806  30.010   2.158
42949W        W 9358   4.905  17.729  12.784
42950W        W 9359   8.912  40.467   2.425
42951W        W 9360   8.892  20.162   0.013
42952W        W 9361  26.163  42.445   0.841
42953W        W 9362   9.673   9.808   3.845
42954W        W 9363  31.670   8.859   2.950
42955W        W 9364   4.270   3.962   1.242
42956W        W 9365  24.573  28.209   4.241
42957W        W 9366  37.334  33.681  13.932
42958W        W 9367  32.398  42.003   0.886
42959W        W 9368  15.841   0.987   4.530
42960W        W 9369  36.737  12.337   2.177
42961W        W 9370  15.459  40.491   4.994
42962W        W 9371   2.306  21.494   1.412
42963W        W 9372  25.805  24.495   3.138
42964W        W 9373  43.501  23.366   0.691
42965W        W 9374  27.639  31.034   0.723
42966W        W 9375  24.335  13.301   4.579
42967W        W 9376   4.040  40.861   3.990
42968W        W 9377  23.176  19.039   2.253
42969W        W 9378   3.490   0.964   3.700
42970W        W 9379  40.068  27.560   4.089
42971W        W 9380  34.101  13.595  13.125
42972W        W 9381  37.665  39.829  11.837
42973W        W 9382   4.717  22.368  10.117
42974W        W 9383  24.113  11.402   4.551
42975W        W 9384  19.506  20.043  10.686
42976W        W 9385  42.966  27.568   0.681
42977W        W 9386  24.583  38.444  13.852
42978W        W 9387  36.386   8.688   4.723
42979W        W 9388  40.240  15.942   1.167
42980W        W 9389  23.408  17.255   3.557
42981W        W 9390   5.398  26.123  11.669
42982W        W 9391  17.958  40.522   2.468
42983W        W 9392  40.073  14.488  13.841
42984W        W 9393  39.405  15.040  11.822
42985W        W 9394  21.772  42.757   0.957
42986W        W 9395  12.113  14.651   2.929
42987W        W 9396  18.580  35.408  12.994
42988W        W 9397  41.035  29.146   3.192
42989W        W 9398  38.833  14.419   0.285
42990W        W 9399   6.409   0.030  12.453
42991W        W 9400  38.543   4.216   0.881
42992W        W 9401   7.962  22.246   4.189
42993W        W 9402  27.892  17.667   3.187
42994W        W 9403  41.038  36.966  12.533
42995W        W 9404  12.569  11.480   1.832
42996W        W 9405  27.676  43.352  13.380
42997W        W 9406  11.404  16.352   0.499
42998W        W 9407  30.565  11.107   2.417
42999W        W 9408   2.869  24.060  14.314
43000W        W 9409  40.415  39.034   0.634
43001W        W 9410  42.608   6.746   5.431
43002W        W 9411  42.225  10.202   3.580
43003W        W 9412  33.147  22.518  14.398
43004W        W 9413  41.755  15.648  12.457
43005W        W 9414   5.304  44.742  13.000
43006W        W 9415  28.991  41.552   1.230
43007W        W 9416  40.758  22.057   1.052
43008W        W 9417  35.919  23.289   4.807
43009W        W 9418  25.450  29.115   4.868
43010W        W 9419  16.677  20.803  12.886
43011W        W 9420  30.485  42.064  13.448
43012W        W 9421  19.321  39.874   0.751
43013W        W 9422  22.306  33.715  10.340
43014W        W 9423  43.005  22.198   3.377
43015W        W 9424  22.665  32.978   1.653
43016W        W 9425  28.713  34.670   2.222
43017W        W 9426  42.054   1.785   2.849
43018W        W 9427  38.282  40.429   1.357
43019W        W 9428   5.232  11.039  11.390
43020W        W 9429  17.320  19.840   4.570
43021W        W 9430   4.776  15.867   2.436
43022W        W 9431   8.756  40.741  13.090
43023W        W 9432  42.979   7.606  12.089
43024W        W 9433   4.341  40.558  10.601
43025W        W 9434  42.790  43.975   3.552
43026W        W 9435  35.400  44.378  12.306
43027W        W 9436  19.604  16.189  10.377
43028W        W 9437  26.316  37.876  11.451
43029W        W 9438   6.947  10.745  11.088
43030W        W 9439  18.801  12.527  11.622
43031W        W 9440  27.647  19.762   2.754
43032W        W 9441  14.547   9.246  13.417
43033W        W 9442  11.227  20.637  13.393
43034W        W 9443   0.893  19.693  14.403
43035W        W 9444  35.368   4.192  14.877
43036W        W 9445   6.161   3.975  11.485
43037W        W 9446  27.092  44.780  14.102
43038W        W 9447  41.427  13.743  11.101
43039W        W 9448   3.918  15.763   1.289
43040W        W 9449  29.880  42.380  13.488
43041W        W 9450  22.240  42.931  11.981
43042W        W 9451   2.560   3.545   3.819
43043W        W 9452  44.519  38.223   0.917
43044W        W 9453  18.737   1.612   9.436
43045W        W 9454   6.226   5.464   1.938
43046W        W 9455  17.159  17.056  11.606
43047W        W 9456  31.247  28.302   0.928
43048W        W 9457  11.138  38.939   3.670
43049W        W 9458  17.828  17.327   3.084
43050W        W 9459  21.149  31.486   3.113
43051W        W 9460  11.638  29.099   1.464
43052W        W 9461   4.274  29.582   0.772
43053W        W 9462  14.205  41.337   2.130
43054W        W 9463  37.969  21.651   4.577
43055W        W 9464  12.824  34.162  14.916
43056W        W 9465  36.135  31.077   0.414
43057W        W 9466   3.379  34.158   2.903
43058W        W 9467  23.870   1.832   3.553
43059W        W 9468  13.756  18.320  12.231
43060W        W 9469   4.771  11.123  11.142
43061W        W 9470  40.351  42.867   4.067
43062W        W 9471  30.980  38.113  11.504
43063W        W 9472   1.017  41.948  11.471
43064W        W 9473  42.337  12.105  13.970
43065W        W 9474  38.733  26.617  14.013
43066W        W 9475  34.019  17.141   1.227
43067W        W 9476  20.027  20.175  11.530
43068W        W 9477   3.814  13.905  11.543
43069W        W 9478  31.879  38.381  10.158
43070W        W 9479   1.225  22.223   4.127
43071W        W 9480   1.911  35.378   2.811
43072W        W 9481  24.092  18.688  10.763
43073W        W 9482  44.952  37.667   3.782
43074W        W 9483  41.633   5.745  12.075
43075W        W 9484   8.512  10.676   2.302
43076W        W 9485  34.779  12.948   3.671
43077W        W 9486  15.411  26.084   1.075
43078W        W 9487  34.221   6.001  11.894
43079W        W 9488  16.633  22.116   2.324
43080W        W 9489   0.879  11.548  14.442
43081W        W 9490  32.920  40.125  14.414
43082W        W 9491   4.715  25.692   4.552
43083W        W 9492   9.255  38.916  13.015
43084W        W 9493  13.062  39.080   3.651
43085W        W 9494  13.229  40.366  11.115
43086W        W 9495   4.615  23.338  11.645
43087W        W 9496  41.974  33.742  12.340
43088W        W 9497  36.857  32.148   1.648
43089W        W 9498  24.694   6.114  14.222
43090W        W 9499  44.690  31.027  12.048
43091W        W 9500  11.854  28.648   1.633
43092W        W 9501  18.034  21.229   3.752
43093W        W 9502  43.267  38.933   4.510
43094W        W 9503  36.587  10.337  11.168
43095W        W 9504  10.718  31.405  11.743
43096W        W 9505  14.381  16.120   2.108
43097W        W 9506   7.924  38.243   3.559
43098W        W 9507  39.709  34.939  14.485
43099W        W 9508  41.360  27.932  10.497
43100W        W 9509  19.902  16.714   0.921
43101W        W 9510  29.804  42.415  13.998
43102W        W 9511   7.642  11.594   3.230
43103W        W 9512  24.442  12.832  13.008
43104W        W 9513  27.974  23.597  13.427
43105W        W 9514  26.795  20.627   4.622
43106W        W 9515  14.022  25.122  12.929
43107W        W 9516  44.868  14.316  12.988
43108W        W 9517  40.638   0.005   4.187
43109W        W 9518  34.536  17.874   4.772
43110W        W 9519   0.320   8.675  14.413
43111W        W 9520  32.124  22.739   4.150
43112W        W 9521   1.014  34.576  11.553
43113W        W 9522  30.606  38.891   4.705
43114W        W 9523  11.289   6.787   1.799
43115W        W 9524  16.748  40.764   3.083
43116W        W 9525  13.099  25.702   4.073
43117W        W 9526  21.914  28.550  12.108
43118W        W 9527   6.037   7.046  11.167
43119W        W 9528  24.123  36.480   1.313
43120W        W 9529  22.742  23.224  14.822
43121W        W 9530  18.785   4.247  12.632
43122W        W 9531   6.362  41.305  14.225
43123W        W 9532  24.582  11.644  11.860
43124W        W 9533   3.726   1.420  10.582
43125W        W 9534  30.520  27.021   2.809
43126W        W 9535  24.718   8.333   3.587
43127W        W 9536  36.308  36.475   0.264
43128W        W 9537   7.146  25.100   3.286
43129W        W 9538  20.241   4.722  10.398
43130W        W 9539   7.345  11.697  14.392
43131W        W 9540  44.506  42.222   3.584
43132W        W 9541   1.539  36.621   3.324
43133W        W 9542  33.750  27.694   0.409
43134W        W 9543  44.451  24.766  12.412
43135W        W 9544   5.618  10.811  12.105
43136W        W 9545  28.581  22.698  12.058
43137W        W 9546  23.181   4.685  13.767
43138W        W 9547  38.123  25.836  13.849
43139W        W 9548   1.779  39.293   3.619
43140W        W 9549  41.393  43.558  11.671
43141W        W 9550   4.050  43.242  14.434
43142W        W 9551  16.096  15.462  10.910
43143W        W 9552  23.283   4.980  14.717
43144W        W 9553   4.857   6.677   2.840
43145W        W 9554   0.619   5.654  12.104
43146W        W 9555  34.477  11.637  12.840
43147W        W 9556  25.407  30.371   0.672
43148W        W 9557  28.423  24.788   4.852
43149W        W 9558  33.430  15.254   0.014
43150W        W 9559   8.895  31.011  11.675
43151W        W 9560  37.428  28.568   2.756
43152W        W 9561  15.495   3.047   9.700
43153W        W 9562   8.875  41.009   0.420
43154W        W 9563  21.184  41.139  11.307
43155W        W 9564  26.841  31.085   3.410
43156W        W 9565  44.252  29.487   0.869
43157W        W 9566   6.672  22.434   0.812
43158W        W 9567  15.837  10.145   0.066
43159W        W 9568  28.514  21.305  10.171
43160W        W 9569  15.321   3.607   2.316
43161W        W 9570  26.390   1.944  11.914
43162W        W 9571  27.260  28.342  11.172
43163W        W 9572   9.787  40.851  13.074
43164W        W 9573  23.497  24.558   0.054
43165W        W 9574   5.099   8.367  13.043
43166W        W 9575  43.994  13.210  11.202
43167W        W 9576  29.493  20.205   1.823
43168W        W 9577   8.365  39.034  14.777
43169W        W 9578   6.755   5.682   4.491
43170W        W 9579  23.065  25.021   1.427
43171W        W 9580  23.276  19.192   4.230
43172W        W 9581   0.140   2.976   3.137
43173W        W 9582  40.020  10.868  12.544
43174W        W 9583   1.737  29.618  13.790
43175W        W 9584  24.701  21.367  12.375
43176W        W 9585  23.046  16.900   1.726
43177W        W 9586  17.475  41.374  11.742
43178W        W 9587  19.069  40.065  12.912
43179W        W 9588  39.085   5.796   1.423
43180W        W 9589  32.916  37.850   1.283
43181W        W 9590  42.282  16.825   0.911
43182W        W 9591  27.456  41.679   0.189
43183W        W 9592  13.044  25.667  12.507
43184W        W 9593  39.466  44.920  14.075
43185W        W 9594  15.721  29.440  13.183
43186W        W 9595   1.689  38.691  11.850
43187W        W 9596  43.049  44.667  14.025
43188W        W 9597  15.332  27.283  11.975
43189W        W 9598  38.586  31.458   1.912
43190W        W 9599   9.508  28.048  14.111
43191W        W 9600  34.354   8.336  12.120
43192W        W 9601  22.581  35.389   4.586
43193W        W 9602  31.123  39.462   4.809
43194W        W 9603   0.866  27.160   2.609
43195W        W 9604  40.462  28.583   1.869
43196W        W 9605  35.875  42.409   1.674
43197W        W 9606  41.374   5.912   0.714
43198W        W 9607  25.963  31.488   1.798
43199W        W 9608  25.456  38.690   2.440
43200W        W 9609  12.383  14.676   0.669
43201W        W 9610   7.766  32.636  14.730
43202W        W 9611  27.459  15.303  14.425
43203W        W 9612   0.561  16.458   2.586
43204W        W 9613  26.358  32.041  12.077
43205W        W 9614  38.575  12.356   2.816
43206W        W 9615  39.615  18.587   0.978
43207W        W 9616   0.125  35.253   0.067
43208W        W 9617  18.825  39.590  14.106
43209W        W 9618   0.334  37.980  13.026
43210W        W 9619  35.011  27.985   1.912
43211W        W 9620   1.404   0.976  11.530
43212W        W 9621  17.317  22.155   0.730
43213W        W 9622  12.971  33.464  14.437
43214W        W 9623  22.513  30.952   0.008
43215W        W 9624  26.256  16.327  11.826
43216W        W 9625   5.878  27.158   4.388
43217W        W 9626   6.240  19.199  11.273
43218W        W 9627  13.819  44.142  13.376
43219W        W 9628  42.542   7.212  13.429
43220W        W 9629  20.177   7.814   2.586
43221W        W 9630  42.932   4.400  11.030
43222W        W 9631   3.491  10.906  12.514
43223W        W 9632  38.855  41.010   0.828
43224W        W 9633  42.777   6.954   1.370
43225W        W 9634  17.639  24.287   1.864
43226W        W 9635   6.089   2.237   1.459
43227W        W 9636   7.559  32.806   4.507
43228W        W 9637  20.571  39.804  14.969
43229W        W 9638   8.435   0.441   1.257
43230W        W 9639  25.969   8.387  11.366
43231W        W 9640  28.730  42.373  12.848
43232W        W 9641  25.065   0.277  14.182
43233W        W 9642  28.132  39.239  14.595
43234W        W 9643  43.368  37.276   1.175
43235W        W 9644  29.514  38.835   3.286
43236W        W 9645  21.186  40.410  10.998
43237W        W 9646  39.077  34.097  13.847
43238W        W 9647  27.434   6.269   2.222
43239W        W 9648  25.461  39.941   2.835
43240W        W 9649  44.181  39.202  10.935
43241W        W 9650  17.392  26.529   0.190
43242W        W 9651  42.919  30.440  11.662
43243W        W 9652  32.336  15.140  13.992
43244W        W 9653  24.599  39.456  10.989
43245W        W 9654  28.173  19.208  12.955
43246W        W 9655  14.300  32.434  11.217
43247W        W 9656  11.682  30.211   5.044
43248W        W 9657  32.281  28.661  13.000
43249W        W 9658  10.886  15.369  13.370
43250W        W 9659   3.416  25.313   2.380
43251W        W 9660  39.325  24.114   3.252
43252W        W 9661  11.822  40.381   3.306
43253W        W 9662  39.791  34.490  12.548
43254W        W 9663  37.046  22.763  11.233
43255W        W 9664  16.200   9.312  10.738
43256W        W 9665  17.615  30.836  11.124
43257W        W 9666  19.321  37.506   3.693
43258W        W 9667   1.433  31.888  12.962
43259W        W 9668  34.865   0.747  11.943
43260W        W 9669  28.073   5.421  10.367
43261W        W 9670   4.341   5.730   0.199
43262W        W 9671  25.072  12.803  12.224
43263W        W 9672  24.033   7.268  12.572
43264W        W 9673  36.302  14.070  13.087
43265W        W 9674   8.698  41.414   3.607
43266W        W 9675  21.182  24.266   3.204
43267W        W 9676   8.251  30.539  12.112
43268W        W 9677  28.182  32.366  11.072
43269W        W 9678  35.155   9.894   1.238
43270W        W 9679  10.406  31.647   2.713
43271W        W 9680   4.846  24.470  11.687
43272W        W 9681  17.845   9.634   2.432
43273W        W 9682  38.437  18.439  13.139
43274W        W 9683  12.801   5.986  13.091
43275W        W 9684  21.657  17.290  10.552
43276W        W 9685  11.677  31.614  13.014
43277W        W 9686  24.273  40.129  12.482
43278W        W 9687  15.596  31.521   4.820
43279W        W 9688   4.708  30.908   4.083
43280W        W 9689   0.991  37.552   0.472
43281W        W 9690  14.743   2.292   0.587
43282W        W 9691  17.414  24.367   2.621
43283W        W 9692   5.233   6.225   0.853
43284W        W 9693  44.676   0.414   1.402
43285W        W 9694   6.314  14.603  11.163
43286W        W 9695   1.987   4.513  13.607
43287W        W 9696  31.568   3.477   1.409
43288W        W 9697  42.436   7.125   5.124
43289W        W 9698  32.668   1.803   4.557
43290W        W 9699  40.563   8.803  14.479
43291W        W 9700  17.771  33.990  12.430
43292W        W 9701  43.895  25.996   1.780
43293W        W 9702  24.007  35.997  14.836
43294W        W 9703  27.552  35.306  14.859
43295W        W 9704   9.770   2.742  11.593
43296W        W 9705  29.313  37.337  10.104
43297W        W 9706  39.291  14.214   0.429
43298W        W 9707  13.185  32.903   3.802
43299W        W 9708  30.673  15.663   1.285
43300W        W 9709  26.026  28.925  10.619
43301W        W 9710  12.727  15.829   4.089
43302W        W 9711  11.645  13.157  11.670
43303W        W 9712  12.683  25.637  11.868
43304W        W 9713   1.391  31.141  13.509
43305W        W 9714  27.904  27.627   3.164
43306W        W 9715  13.511  30.874  10.955
43307W        W 9716  26.577  32.220   4.690
43308W        W 9717   6.222  29.936  11.621
43309W        W 9718   8.898   7.369  11.584
43310W        W 9719  39.642  22.676   0.547
43311W        W 9720   3.248  31.957   0.815
43312W        W 9721  44.001  16.557   2.945
43313W        W 9722   1.046   5.385  12.083
43314W        W 9723  40.457  40.881   0.472
43315W        W 9724  27.106  13.443   1.808
43316W        W 9725  32.421  33.690  10.476
43317W        W 9726   4.682  21.161   2.414
43318W        W 9727  38.308   2.304   1.802
43319W        W 9728   4.026  25.006   9.880
43320W        W 9729  31.443  39.430  13.561
43321W        W 9730  31.654  11.889  13.019
43322W        W 9731  15.136  41.258   3.435
43323W        W 9732  39.023  34.186   0.782
43324W        W 9733  28.484  13.388  11.209
43325W        W 9734  28.420  26.209  13.589
43326W        W 9735  38.402  20.389   9.662
43327W        W 9736  16.632  36.459  13.798
43328W        W 9737   7.637  24.556   0.485
43329W        W 9738  22.036   7.330  13.438
43330W        W 9739   1.388  44.236   0.029
43331W        W 9740  10.862  35.087   0.932
43332W        W 9741  23.911  36.799  11.162
43333W        W 9742  38.591  38.010  14.835
43334W        W 9743  17.127   8.216   4.918
43335W        W 9744  33.951  28.593   4.332
43336W        W 9745   4.941   9.324   3.168
43337W        W 9746  25.151  16.712   1.181
43338W        W 9747  39.346  41.506  14.875
43339W        W 9748  41.020   5.520   0.726
43340W        W 9749  40.042   3.805   0.197
43341W        W 9750   3.350  12.140  13.997
43342W        W 9751  33.081   3.257   1.755
43343W        W 9752  41.768  10.372   2.733
43344W        W 9753   6.267  22.126  13.129
43345W        W 9754  21.030  28.494   3.735
43346W        W 9755  32.686  15.679  10.521
43347W        W 9756   1.266  25.378  12.150
43348W        W 9757  13.820   2.237   0.309
43349W        W 9758  17.531  13.599   3.646
43350W        W 9759  12.105  22.484   1.058
43351W        W 9760  10.779  26.476  10.975
43352W        W 9761  37.515   8.457  13.773
43353W        W 9762  29.961  30.186   0.971
43354W        W 9763  20.185  30.863  12.911
43355W        W 9764   4.659  20.183  14.747
43356W        W 9765  11.946   3.284   3.327
43357W        W 9766  41.447  43.841   3.024
43358W        W 9767  24.217  43.856  12.046
43359W        W 9768   2.659  41.577  14.331
43360W        W 9769  35.120   2.756   3.685
43361W        W 9770   8.376  37.499  12.476
43362W        W 9771   8.917  10.284   3.855
43363W        W 9772  20.032   9.212   1.750
43364W        W 9773  42.440  14.907  13.362
43365W        W 9774  14.719  35.335  13.020
43366W        W 9775  38.693  28.890  11.430
43367W        W 9776  12.701  29.825  12.809
43368W        W 9777   0.916  35.146   0.891
43369W        W 9778  22.990  16.187  12.022
43370W        W 9779  19.477   7.222   1.332
43371W        W 9780   8.329  24.467  14.284
43372W        W 9781  25.567  30.522  13.748
43373W        W 9782  14.709  15.662   3.637
43374W        W 9783  31.601   2.290  12.502
43375W        W 9784  38.169  34.186   3.232
43376W        W 9785  12.820  20.260   2.781
43377W        W 9786  30.576   4.232   2.228
43378W        W 9787  43.713  43.929  10.483
43379W        W 9788  43.679  22.063  14.617
43380W        W 9789   6.456  38.609   4.150
43381W        W 9790   7.817  19.302   5.093
43382W        W 9791  35.209  18.092   1.103
43383W        W 9792  16.715  25.808  13.046
43384W        W 9793  38.912   9.677  14.532
43385W        W 9794  38.809  22.618  13.112
43386W        W 9795  12.431  11.405  13.420
43387W        W 9796  37.507  10.780   1.097
43388W        W 9797   9.745  13.877  13.487
43389W        W 9798   1.452  30.552   3.737
43390W        W 9799  44.114  11.305  10.445
43391W        W 9800  37.762   5.712  12.673
43392W        W 9801  32.492  11.670   2.161
43393W        W 9802  31.419  33.967   4.502
43394W        W 9803  21.072  14.103  13.410
43395W        W 9804  25.123  19.217  11.427
43396W        W 9805   2.996   4.134   2.689
43397W        W 9806   8.895  24.117  10.573
43398W        W 9807  16.816  40.968  11.167
43399W        W 9808  13.814   9.592  11.847
43400W        W 9809  25.616  15.097  12.548
43401W        W 9810  19.155  25.081   1.217
43402W        W 9811  39.721  11.167   3.801
43403W        W 9812  22.580  33.949   1.988
43404W        W 9813   9.185  41.733  13.501
43405W        W 9814  20.288  38.374   4.608
43406W        W 9815  35.706  26.896  12.918
43407W        W 9816  14.797  20.558   3.221
43408W        W 9817   2.836   5.376   4.592
43409W        W 9818  35.097  11.925  12.981
43410W        W 9819   9.804  39.865  13.427
43411W        W 9820   7.874  32.673   0.238
43412W        W 9821   9.063  20.691  13.278
43413W        W 9822   8.420   3.411   2.130
43414W        W 9823  44.498  43.536  11.537
43415W        W 9824  34.267   9.659  12.735
43416W        W 9825  42.241  43.450   1.336
43417W        W 9826   9.936  12.863  13.419
43418W        W 9827  20.599  27.799  12.625
43419W        W 9828  15.866   6.652  12.590
43420W        W 9829  23.470  34.120   2.842
43421W        W 9830   5.162   2.780  12.404
43422W        W 9831  17.544  38.110  14.368
43423W        W 9832   3.197  39.830  14.570
43424W        W 9833  44.624   6.909   0.723
43425W        W 9834  28.937  42.046  14.313
43426W        W 9835   3.842  41.133   3.582
43427W        W 9836  33.907  30.031  12.017
43428W        W 9837  19.167   5.889  13.941
43429W        W 9838  19.403  33.257   4.868
43430W        W 9839  18.901  36.515  10.041
43431W        W 9840   4.706  25.706   0.925
43432W        W 9841  43.409  30.188   3.843
43433W        W 9842   0.319  22.228  13.025
43434W        W 9843  40.004  44.926   2.729
43435W        W 9844   6.679  23.961   2.065
43436W        W 9845  40.825  37.887   0.348
43437W        W 9846  29.842  33.652  12.394
43438W        W 9847   7.943  28.169   1.856
43439W        W 9848  18.287  13.504   4.515
43440W        W 9849  23.018  27.679  11.516
43441W        W 9850   2.129  38.771   5.098
43442W        W 9851   9.860  11.641   4.089
43443W        W 9852  17.202  30.988   0.263
43444W        W 9853  22.299   0.885  10.473
43445W        W 9854  30.107   8.427   3.488
43446W        W 9855  18.172  15.203   1.648
43447W        W 9856  24.206  17.327   4.643
43448W        W 9857  28.485  14.804  10.425
43449W        W 9858  34.625  19.185  13.659
43450W        W 9859  43.906  20.315  11.673
43451W        W 9860  16.931  34.934   1.740
43452W        W 9861  13.541   3.552  13.765
43453W        W 9862  19.591   4.591  10.787
43454W        W 9863   4.313  37.695  14.908
43455W        W 9864  16.724  13.716  10.519
43456W        W 9865  20.065  15.023  10.646
43457W        W 9866  31.698  35.386   2.373
43458W        W 9867  33.322   5.715   2.329
43459W        W 9868  28.162   8.642  12.362
43460W        W 9869   1.830  40.320  14.979
43461W        W 9870   3.689  24.312  11.120
43462W        W 9871  27.518   3.149   1.263
43463W        W 9872  16.359  35.016   2.926
43464W        W 9873   4.584   2.536   2.208
43465W        W 9874  42.934  24.339   2.657
43466W        W 9875   9.703  14.082   0.929
43467W        W 9876  37.406   1.023  14.717
43468W        W 9877  16.853  31.041  14.884
43469W        W 9878  34.421  13.872  14.819
43470W        W 9879  12.087  44.449   4.687
43471W        W 9880  21.614  29.390   3.596
43472W        W 9881  10.900   9.146  12.605
43473W        W 9882   7.215  35.961   0.944
43474W        W 9883  15.666   3.747  11.838
43475W        W 9884  43.443  41.492   2.149
43476W        W 9885   8.871  24.134   4.179
43477W        W 9886  33.113  34.950  14.989
43478W        W 9887  36.756  11.786   1.362
43479W        W 9888   3.684  19.275   2.681
43480W        W 9889   9.406  31.652  12.149
43481W        W 9890  13.267  37.059   1.447
43482W        W 9891  44.023   1.940   1.807
43483W        W 9892  29.878   3.193   5.015
43484W        W 9893   0.328  21.799  12.076
43485W        W 9894  28.234  34.494   2.417
43486W        W 9895   5.106  44.892  14.471
43487W        W 9896  37.424  37.164  12.623
43488W        W 9897   9.594  28.376   2.246
43489W        W 9898  32.026   6.793   1.970
43490W        W 9899  34.087  23.254   4.505
43491W        W 9900  33.647   8.355   0.837
43492W        W 9901  32.945   6.848  10.619
43493W        W 9902  30.481   0.682   2.726
43494W        W 9903  36.550   7.926   0.671
43495W        W 9904  26.223  17.194  14.948
43496W        W 9905  34.549  23.359   4.700
43497W        W 9906   6.361  21.178   0.392
43498W        W 9907  10.220   8.977  11.871
43499W        W 9908   0.525  14.776   3.061
43500W        W 9909  35.889  13.420   4.201
43501W        W 9910  19.111  16.103  12.980
43502W        W 9911  38.391  17.015   0.846
43503W        W 9912  35.506  37.588  12.380
43504W        W 9913  37.149  16.393   0.114
43505W        W 9914   2.815  41.979   3.195
43506W        W 9915   5.720  30.146   2.654
43507W        W 9916  39.050   0.387   4.441
43508W        W 9917  17.804  15.777   4.578
43509W        W 9918   1.206  20.163  11.128
43510W        W 9919   0.692  40.179  10.684
43511W        W 9920  26.952   0.309  12.873
43512W        W 9921  25.866   4.403  12.885
43513W        W 9922  24.744  34.173   3.293
43514W        W 9923  37.995  26.764   4.243
43515W        W 9924  31.751  10.145  10.697
43516W        W 9925  19.907  32.476  14.463
43517W        W 9926  41.604  30.078   0.727
43518W        W 9927  41.982   2.876  10.831
43519W        W 9928  41.387  17.183  13.741
43520W        W 9929   2.938  10.898  13.719
43521W        W 9930   1.562  34.391   0.382
43522W        W 9931  34.134  17.321   4.824
43523W        W 9932   2.508  31.706  14.114
43524W        W 9933  44.963  18.332   0.270
43525W        W 9934  28.954  16.614   4.464
43526W        W 9935   8.727  25.120  10.190
43527W        W 9936   7.407  30.366   3.739
43528W        W 9937  12.362  15.900  11.198
43529W        W 9938   3.940  37.570   2.249
43530W        W 9939  16.071  34.377   0.961
43531W        W 9940   4.912  32.964   3.186
43532W        W 9941  19.158   5.481   0.049
43533W        W 9942  10.004  27.686  14.260
43534W        W 9943  21.141  15.219   3.315
43535W        W 9944  26.485  44.354   1.974
43536W        W 9945  22.332   3.212   3.784
43537W        W 9946   4.450  13.222  13.332
43538W        W 9947  34.115  43.870   4.121
43539W        W 9948  33.521  29.492   3.178
43540W        W 9949  23.176  26.105  10.393
43541W        W 9950  33.411  44.733  11.859
43542W        W 9951  23.024  19.269   2.842
43543W        W 9952  11.448   4.906  14.896
43544W        W 9953  24.367   8.618  14.415
43545W        W 9954  23.733  42.892  13.735
43546W        W 9955  12.767   3.166   0.800
43547W        W 9956  32.614   5.738  11.668
43548W        W 9957   3.876  37.502  12.072
43549W        W 9958  29.955  30.233  13.104
43550W        W 9959  28.932  21.047   3.849
43551W        W 9960  35.186  43.697   1.249
43552W        W 9961  35.901  34.071   1.353
43553W        W 9962  29.683  15.707  13.106
43554W        W 9963  22.466   5.433   3.617
43555W        W 9964   6.489   1.019  11.124
43556W        W 9965  29.104  33.982   2.617
43557W        W 9966  31.488  33.460  13.606
43558W        W 9967  39.006  13.090   1.778
43559W        W 9968  22.414  15.141  13.503
43560W        W 9969  32.057  12.203   1.310
43561W        W 9970  30.951  29.466   3.193
43562W        W 9971  35.555  19.641  14.068
43563W        W 9972   1.729  15.918  12.358
43564W        W 9973  35.981   1.888  10.190
43565W        W 9974  20.048   3.891   4.614
43566W        W 9975  16.212  41.732  14.291
43567W        W 9976  38.603  31.969   3.686
43568W        W 9977  23.247  28.404  14.397
43569W        W 9978   1.664  19.545   0.718
43570W        W 9979  42.591  26.399  11.579
43571W        W 9980   0.898  29.614   2.219
43572W        W 9981  22.302  22.147  11.195
43573W        W 9982  38.775   8.335   3.254
43574W        W 9983  10.365  43.638  13.273
43575W        W 9984   0.265  23.749   3.484
43576W        W 9985   7.876  32.921  12.011
43577W        W 9986  12.090  39.622  11.175
43578W        W 9987  15.216  30.019   4.461
43579W        W 9988  32.642   0.893   0.776
43580W        W 9989   3.241  28.079  14.584
43581W        W 9990  21.010   1.413   1.986
43582W        W 9991  44.470  34.825   1.166
43583W        W 9992  34.041  10.841   3.412
43584W        W 9993  38.794   7.618  13.141
43585W        W 9994  17.501   3.265  14.449
43586W        W 9995  36.142  23.655  12.999
43587W        W 9996  33.578  28.160  12.052
43588W        W 9997  33.147   8.698  12.001
43589W        W 9998  29.272  20.722   2.208
43590W        W 9999  19.501  16.178  11.401
43591W        W10000   0.457  26.600  11.530
43592W        W10001  23.490  22.703  12.633
43593W        W10002  36.491  25.002  14.495
43594W        W10003   3.285  33.969  14.581
43595W        W10004   1.331   9.796  11.442
43596W        W10005   4.246  34.329  12.081
43597W        W10006   2.878  40.609  14.429
43598W        W10007  27.402   7.171   3.303
43599W        W10008   4.701  41.235   3.159
43600W        W10009  15.256  18.212  11.701
43601W        W10010  43.895  22.619   4.581
43602W        W10011   6.959  35.825  12.906
43603W        W10012  44.956   2.506  13.542
43604W        W10013  13.341  36.060   1.351
43605W        W10014  31.866  35.991   0.401
43606W        W10015  36.087  28.363   4.747
43607W        W10016   7.276  11.041   2.640
43608W        W10017  37.608  44.305  10.540
43609W        W10018   3.222  30.905  14.862
43610W        W10019  28.869  42.743   0.489
43611W        W10020  39.821   2.179  12.951
43612W        W10021   8.203  16.700   0.273
43613W        W10022  13.112  35.854  10.912
43614W        W10023   5.299  24.956   0.250
43615W        W10024  36.842  23.398  10.071
43616W        W10025  36.476   4.994   0.958
43617W        W10026   3.020  23.651   1.589
43618W        W10027  30.507  40.073   0.545
43619W        W10028  32.169  24.661   0.299
43620W        W10029  19.753  17.887   1.871
43621W        W10030  35.419  14.127  12.978
43622W        W10031  37.611  25.796  13.838
43623W        W10032  38.856  13.014   3.978
43624W        W10033  25.946  38.911  11.554
43625W        W10034   9.365  17.217  12.072
43626W        W10035  14.209  26.594   1.446
43627W        W10036  42.720   4.340   3.346
43628W        W10037  25.668  42.820  12.112
43629W        W10038  25.225  19.549   4.124
43630W        W10039  34.944  33.056   3.986
43631W        W10040  44.000   5.280  11.162
43632W        W10041   3.834  37.891   0.715
43633W        W10042  40.034  31.096  11.885
43634W        W10043  31.758  23.185   1.371
43635W        W10044  36.779   1.042   4.155
43636W        W10045  11.253  40.143   4.113
43637W        W10046  42.411  26.691   3.616
43638W        W10047  10.311  29.977   5.379
43639W        W10048  42.040  32.974  11.007
43640W        W10049   8.689  25.189   2.429
43641W        W10050  32.592  22.788   0.523
43642W        W10051  34.894   9.089  14.500
43643W        W10052   4.692  30.476  10.191
43644W        W10053  20.172  33.965   2.940
43645W        W10054  35.665  34.941   1.902
43646W        W10055  20.698  29.929   2.711
43647W        W10056  34.369  39.006  10.742
43648W        W10057  10.851  15.726  11.103
43649W        W10058   6.498  39.439  14.181
43650W        W10059  14.341  27.282   0.826
43651W        W10060  37.291  16.256  12.628
43652W        W10061  23.241  29.857   0.993
43653W        W10062  38.164  10.236   0.319
43654W        W10063   9.745  43.362   5.691
43655W        W10064  37.396   0.927  12.844
43656W        W10065  24.308  17.150   3.628
43657W        W10066  28.059   9.272  13.863
43658W        W10067   1.880  11.900   2.165
43659W        W10068  15.669  18.124   5.078
43660W        W10069  30.035   8.873   3.727
43661W        W10070  29.209  22.467  14.158
43662W        W10071   7.156  21.661  13.793
43663W        W10072  17.422  32.528   4.644
43664W        W10073  34.077  43.480  11.621
43665W        W10074  26.797   4.440   2.186
43666W        W10075  30.093   2.701  12.115
43667W        W10076   0.362  42.406  12.026
43668W        W10077   4.816   3.718  10.219
43669W        W10078  16.570  35.674   1.357
43670W        W10079  14.425   3.402   3.717
43671W        W10080  35.018  19.666  14.109
43672W        W10081   1.899  35.735   1.438
43673W        W10082  11.873   7.719   3.846
43674W        W10083  19.459  26.955   0.907
43675W        W10084  34.996   6.016  11.123
43676W        W10085   7.900  44.333   1.710
43677W        W10086  39.987  33.225  12.945
43678W        W10087   3.422   5.339  10.824
43679W        W10088  33.455  27.235   0.277
43680W        W10089  20.294  35.003  13.615
43681W        W10090   7.769  42.129  12.251
43682W        W10091  21.638  22.092  11.518
43683W        W10092  41.470  17.700   3.830
43684W        W10093  27.437  44.046   1.700
43685W        W10094   8.944  26.648  14.353
43686W        W10095  14.337  15.949   0.493
43687W        W10096  16.384   8.212  14.212
43688W        W10097  23.412  26.012   3.325
43689W        W10098  26.195  30.890  12.952
43690W        W10099  15.094  34.225   2.259
43691W        W10100  14.537   0.405  11.471
43692W        W10101  39.951  21.681   1.665
43693W        W10102  26.166  35.063  14.490
43694W        W10103  16.520  26.507   1.765
43695W        W10104  39.856  12.431  11.575
43696W        W10105  13.746  44.855  10.666
43697W        W10106  39.269  28.680   4.085
43698W        W10107  37.687   0.420   0.879
43699W        W10108   8.354  15.832  14.739
43700W        W10109  14.099  43.728  11.862
43701W        W10110  44.846  27.002   2.122
43702W        W10111  39.468  13.306  13.402
43703W        W10112  24.218  11.297   0.837
43704W        W10113   0.600   6.910  12.940
43705W        W10114  44.850  21.716  14.437
43706W        W10115  40.794  33.525   1.821
43707W        W10116  26.360  24.038   2.602
43708W        W10117  11.766  31.037   1.747
43709W        W10118   4.236  27.501   0.823
43710W        W10119  30.717   1.033  10.634
43711W        W10120  23.781  31.835  14.439
43712W        W10121   4.803   8.730   0.848
43713W        W10122  35.901   7.173  11.417
43714W        W10123  33.362   4.918   3.119
43715W        W10124  28.977  28.701  12.059
43716W        W10125  27.741  30.169  14.906
43717W        W10126   7.688  14.803   2.824
43718W        W10127  29.545   0.511   3.135
43719W        W10128   2.101   0.910  14.779
43720W        W10129  27.217  34.784  13.842
43721W        W10130  22.708  28.213   2.761
43722W        W10131  36.496  20.418   3.598
43723W        W10132   6.804  36.918   2.885
43724W        W10133  38.242  29.563   3.328
43725W        W10134  42.562  16.886   1.871
43726W        W10135  32.892   3.202   0.682
43727W        W10136  21.579  43.451  12.188
43728W        W10137  44.901   6.214  14.835
43729W        W10138  19.656  25.503  10.853
43730W        W10139  12.819  13.774  14.805
43731W        W10140  27.009  24.958  11.648
43732W        W10141  32.096   2.379   3.085
43733W        W10142   7.668  34.579  14.395
43734W        W10143  13.564  27.724  14.480
43735W        W10144  25.232  18.549   4.992
43736W        W10145  23.416  32.572  11.967
43737W        W10146  40.303  20.955   0.341
43738W        W10147  44.405  15.245   4.070
43739W        W10148  13.413  14.497  14.444
43740W        W10149  44.478   5.807   3.573
43741W        W10150  37.606  37.409   0.713
43742W        W10151  13.669  38.011  11.561
43743W        W10152   5.368  28.192   3.994
43744W        W10153   8.754  36.134  10.783
43745W        W10154  27.301  38.353  13.499
43746W        W10155  28.384  25.782   3.206
43747W        W10156  22.446  16.644  11.405
43748W        W10157  32.154  32.553   2.953
43749W        W10158  26.626  18.080   1.125
43750W        W10159   8.830  39.010   0.741
43751W        W10160  15.496  21.055  14.675
43752W        W10161  25.106   8.370   0.112
43753W        W10162   4.420   1.280   0.680
43754W        W10163  22.014  17.245  12.549
43755W        W10164  30.596  31.427  13.202
43756W        W10165  28.153  15.098   0.942
43757W        W10166  28.050   5.715  14.981
43758W        W10167  27.647   0.340   1.503
43759W        W10168  36.427  12.892  10.566
43760W        W10169  28.970  30.222   3.713
43761W        W10170  14.395  13.294   2.804
43762W        W10171  37.541  10.878  13.903
43763W        W10172  38.933  21.769   3.606
43764W        W10173  17.096  36.958  11.959
43765W        W10174  39.233   4.117  11.949
43766W        W10175  21.096  43.860  13.340
43767W        W10176  19.059  13.228  13.442
43768W        W10177  33.818  28.158   5.012
43769W        W10178  16.267  21.130   1.084
43770W        W10179  25.413  35.970   3.775
43771W        W10180   2.213   9.357   1.775
43772W        W10181   9.395  39.345   3.227
43773W        W10182   4.839  35.503   3.766
43774W        W10183  42.372  32.392  14.469
43775W        W10184   9.876  19.708   2.094
43776W        W10185  38.344   0.214  13.506
43777W        W10186   8.513  18.681  14.019
43778W        W10187  12.852  28.062  11.585
43779W        W10188  29.729  28.461  13.092
43780W        W10189  27.670  20.344  11.861
43781W        W10190  18.343   1.895   0.319
43782W        W10191   6.024  29.874   4.035
43783W        W10192   0.219  24.439   2.771
43784W        W10193   8.848  34.128   3.944
43785W        W10194  38.523   8.141   2.267
43786W        W10195  13.939   3.951   3.209
43787W        W10196   4.305   3.745  12.055
43788W        W10197   2.282  33.558   4.267
43789W        W10198  42.954  37.818   3.083
43790W        W10199  10.409   9.138  13.937
43791W        W10200  22.970  10.151   2.706
43792W        W10201  31.145  17.224   1.665
43793W        W10202  21.688  22.194  10.542
43794W        W10203  40.899   1.845   4.411
43795W        W10204   4.205  28.961  14.545
43796W        W10205  15.513  23.761   1.694
43797W        W10206  33.983  36.558   3.386
43798W        W10207  22.171  17.395   4.594
43799W        W10208  10.310  34.560   0.307
43800W        W10209  21.635  10.208   1.220
43801W        W10210  31.549  22.123  10.400
43802W        W10211  12.893  41.822   1.883
43803W        W10212   3.983   4.603   3.643
43804W        W10213  12.320  20.122  14.788
43805W        W10214  38.913  21.192   4.696
43806W        W10215  41.526  29.685  11.503
43807W        W10216  27.758   0.898   0.276
43808W        W10217   8.603  12.702  13.305
43809W        W10218  40.825  11.300  11.506
43810W        W10219  24.758  44.422   2.248
43811W        W10220  33.852  41.576   5.114
43812W        W10221  42.984   0.378   3.883
43813W        W10222  18.750   4.017   2.722
43814W        W10223  21.937  42.934   1.901
43815W        W10224  31.880  14.167   2.976
43816W        W10225  32.041  27.917  13.513
43817W        W10226  42.675  24.001   2.084
43818W        W10227   1.985  24.840   4.118
43819W        W10228   9.668  44.399  11.507
43820W        W10229  43.481  26.986   1.641
43821W        W10230  28.945  22.076  12.973
43822W        W10231  15.619  44.674   5.141
43823W        W10232   7.174   6.362  12.574
43824W        W10233   6.403  24.685   3.674
43825W        W10234   7.134   5.647   3.277
43826W        W10235   2.427  29.670   1.720
43827W        W10236   8.728  12.779   4.620
43828W        W10237  14.471   4.578   2.083
43829W        W10238  12.835  26.978   0.441
43830W        W10239  26.409   0.991   2.683
43831W        W10240  41.207  20.157   0.449
43832W        W10241  32.836  32.101   4.205
43833W        W10242   6.812  35.537   2.694
43834W        W10243  17.698  11.892  12.327
43835W        W10244   2.853   5.633  14.383
43836W        W10245  10.809  26.116   2.597
43837W        W10246  14.723  15.110  13.543
43838W        W10247   4.816   1.075   2.282
43839W        W10248  42.713   1.339   2.428
43840W        W10249  36.065   8.372   1.769
43841W        W10250  15.056  18.631   3.602
43842W        W10251  22.518  36.311   4.844
43843W        W10252   2.816  26.254   1.750
43844W        W10253  36.188  20.093   4.797
43845W        W10254  10.551  19.140  14.474
43846W        W10255  25.107  25.454   2.247
43847W        W10256  31.211   0.519  13.052
43848W        W10257   6.914  42.602   4.804
43849W        W10258   2.728   0.963   4.100
43850W        W10259  11.023   4.886   0.724
43851W        W10260  39.855   9.120   1.743
43852W        W10261   3.037  12.436  14.318
43853W        W10262  12.192  41.944   3.388
43854W        W10263  36.863  42.346  14.743
43855W        W10264  42.838  11.887   0.927
43856W        W10265  34.157  33.638   0.759
43857W        W10266  11.885  17.676   1.309
43858W        W10267  10.507  38.268   2.328
43859W        W10268   0.958  18.419   0.507
43860W        W10269   5.385  26.573   2.902
43861W        W10270  37.373  40.397  13.947
43862W        W10271  24.125   5.834  13.166
43863W        W10272  39.263  35.053  12.003
43864W        W10273  44.055  20.394  14.529
43865W        W10274  29.434  40.318  11.480
43866W        W10275  24.494  41.989   2.156
43867W        W10276  10.380  37.812   2.778
43868W        W10277  12.259  39.636   4.284
43869W        W10278  32.144   9.579   1.918
43870W        W10279  10.692  26.520  11.979
43871W        W10280  20.552  19.112   4.256
43872W        W10281  11.614  38.296  12.076
43873W        W10282  42.801  17.243  11.032
43874W        W10283  19.669  26.914   1.410
43875W        W10284  16.307   6.875   4.653
43876W        W10285   0.504  23.023  12.609
43877W        W10286   2.301  32.882   3.484
43878W        W10287  42.385  19.258   4.132
43879W        W10288  18.999  29.538   0.797
43880W        W10289  14.757  15.557   3.115
43881W        W10290   8.736  13.752  11.242
43882W        W10291  10.857  10.339   1.970
43883W        W10292  33.937  31.371   3.176
43884W        W10293  35.024   2.337  10.058
43885W        W10294  16.707  43.557  14.966
43886W        W10295  42.387  24.195   4.657
43887W        W10296  29.772  21.444   3.340
43888W        W10297  36.720  33.003   3.260
43889W        W10298  25.914  44.245   2.843
43890W        W10299  40.330  31.105   1.748
43891W        W10300  33.970  35.632   4.144
43892W        W10301  44.406  10.820   2.644
43893W        W10302  18.774  27.757   1.381
43894W        W10303  30.276  37.778  12.875
43895W        W10304  35.619  19.778   1.354
43896W        W10305  24.691  25.698  12.146
43897W        W10306  29.926  44.847  13.036
43898W        W10307  25.094  26.445  10.389
43899W        W10308  37.964  35.260   2.461
43900W        W10309  27.133  23.007   9.898
43901W        W10310  23.334  29.489   1.383
43902W        W10311  20.209  37.482   5.084
43903W        W10312  34.460   6.190  13.057
43904W        W10313   3.788  43.993  12.344
43905W        W10314  10.386  38.862  14.929
43906W        W10315  24.964  26.611   0.983
43907W        W10316  14.401  30.547  11.699
43908W        W10317  40.674   5.372   3.856
43909W        W10318  32.176  44.523   2.743
43910W        W10319  42.214  24.723  11.089
43911W        W10320  13.579  40.000  14.856
43912W        W10321   3.806  31.600  11.464
43913W        W10322   5.388   7.263  10.721
43914W        W10323  37.336  12.255  12.335
43915W        W10324  38.101   6.829   0.512
43916W        W10325  31.504  31.995  14.368
43917W        W10326   3.792  28.179   0.834
43918W        W10327  37.304  35.592   1.311
43919W        W10328   6.553   1.786  12.040
43920W        W10329  42.954   5.779   0.204
43921W        W10330  16.099  31.129  12.964
43922W        W10331  41.892  23.917  11.318
43923W        W10332  15.465  34.409   4.120
43924W        W10333  38.894   7.740  11.615
43925W        W10334  33.515  25.806  14.799
43926W        W10335  27.649  44.469   2.397
43927W        W10336  38.997  39.038   3.592
43928W        W10337  25.699  42.510   2.251
43929W        W10338  21.633  11.744   4.097
43930W        W10339   7.131   4.947  10.089
43931W        W10340  30.362  43.028  12.414
43932W        W10341  36.512  11.441   3.967
43933W        W10342   0.234  20.448   3.235
43934W        W10343  23.663   9.287   3.735
43935W        W10344  31.679  17.571  10.587
43936W        W10345  23.406  35.184  12.071
43937W        W10346  13.807  37.367  14.619
43938W        W10347  38.100  35.387  13.422
43939W        W10348  40.510  29.200   1.270
43940W        W10349  15.705  27.502  11.479
43941W        W10350   3.360  44.081   2.766
43942W        W10351  33.150  18.884  14.962
43943W        W10352  19.653  26.721  13.800
43944W        W10353   3.145   9.695  14.879
43945W        W10354   7.267  21.300   4.500
43946W        W10355  16.134   4.480  13.087
43947W        W10356  22.976  32.227   1.233
43948W        W10357  40.337   4.754   3.672
43949W        W10358  38.610  19.021  12.852
43950W        W10359  20.617  28.898  10.838
43951W        W10360  23.988  41.377  11.272
43952W        W10361  38.492   2.289  14.830
43953W        W10362  24.623   0.276   4.541
43954W        W10363  24.556  18.214  11.924
43955W        W10364  31.174  18.575  12.156
43956W        W10365  12.204  15.292   2.369
43957W        W10366   3.780  25.207   4.781
43958W        W10367  21.174  23.619   0.384
43959W        W10368  35.648  37.090  10.903
43960W        W10369  40.805  35.846   0.460
43961W        W10370  33.952  16.532   0.032
43962W        W10371  20.281  19.726  11.580
43963W        W10372   5.866  24.828   1.384
43964W        W10373  18.721  19.296  11.980
43965W        W10374  25.181  20.290   2.628
43966W        W10375  11.735  20.796   4.542
43967W        W10376  12.864  31.259  12.639
43968W        W10377   4.774   0.688   0.872
43969W        W10378  13.660  34.019  14.506
43970W        W10379  13.446  38.170   3.454
43971W        W10380   2.975  18.712  10.662
43972W        W10381   8.040  16.827   4.779
43973W        W10382  25.468  17.484   3.206
43974W        W10383  40.942  34.205  12.168
43975W        W10384  26.387  30.278  12.374
43976W        W10385   7.114   2.829  11.253
43977W        W10386  20.267  12.172  11.988
43978W        W10387  19.144  28.464   2.138
43979W        W10388  10.230  38.787   5.256
43980W        W10389   4.424  15.188  10.343
43981W        W10390  33.820   6.874  10.869
43982W        W10391   2.243  13.274   0.314
43983W        W10392  25.355  39.910   0.397
43984W        W10393  27.435  15.495   1.136
43985W        W10394  23.147  41.566   2.940
43986W        W10395  22.495  40.596  12.540
43987W        W10396  22.849  25.059   4.996
43988W        W10397  30.520  35.011  12.527
43989W        W10398   3.694  25.685  14.646
43990W        W10399   4.423  14.277   3.128
43991W        W10400  11.650   1.413  14.350
43992W        W10401  35.241  36.607  14.295
43993W        W10402  31.519  23.432   0.525
43994W        W10403  34.958  12.824  14.439
43995W        W10404  31.104  16.224   1.815
43996W        W10405   8.919   1.571   2.619
43997W        W10406  12.160  25.213  12.858
43998W        W10407  19.373  43.834  12.430
43999W        W10408   9.433   4.358   0.872
44000W        W10409  16.319  13.360  14.755
44001W        W10410  10.723   5.176   0.416
44002W        W10411  20.101  39.100   1.318
44003W        W10412  26.654  11.757   3.095
44004W        W10413   5.332  20.749  13.335
44005W        W10414  14.130  18.552   1.976
44006W        W10415  42.432  26.216   0.850
44007W        W10416  20.696  22.623   0.586
44008W        W10417   2.633  26.068  11.163
44009W        W10418   3.857  14.082   2.189
44010W        W10419  24.922  26.653   3.678
44011W        W10420  28.798  15.949  12.848
44012W        W10421  43.329  10.123  14.382
44013W        W10422  21.612  11.148   3.065
44014W        W10423  30.420   6.874  13.841
44015W        W10424  30.674  33.486  10.462
44016W        W10425  18.188  33.710   2.000
44017W        W10426   2.317  12.844  11.252
44018W        W10427  40.049  41.094   1.680
44019W        W10428  33.514  38.255  14.471
44020W        W10429  41.306  13.680  10.608
44021W        W10430   7.583   8.781   3.588
44022W        W10431  20.121  21.255  14.863
44023W        W10432  38.811  11.275  14.847
44024W        W10433  11.602   7.303  10.550
44025W        W10434  33.444  29.443  14.058
44026W        W10435  29.569   4.834   4.501
44027W        W10436  35.973   8.412   4.576
44028W        W10437  33.918  21.825   1.291
44029W        W10438  30.268  17.601  13.844
44030W        W10439   4.689  14.353  14.281
44031W        W10440  25.633   6.751  12.012
44032W        W10441  14.412  26.969   0.254
44033W        W10442  11.212  42.805  13.669
44034W        W10443  42.914  16.284   1.233
44035W        W10444  27.018  12.198  12.115
44036W        W10445   2.378  25.354   0.987
44037W        W10446  30.021  40.182  13.376
44038W        W10447  14.734   8.821   1.511
44039W        W10448  44.669   6.155  14.082
44040W        W10449  25.804  28.163   3.742
44041W        W10450   4.985  13.371   1.694
44042W        W10451  33.015  27.084   2.984
44043W        W10452  17.526  20.517  11.620
44044W        W10453  14.523  40.759   2.787
44045W        W10454  30.966  10.983  14.991
44046W        W10455   8.243  24.973  14.241
44047W        W10456  11.160  29.104  13.624
44048W        W10457  14.099  19.137   1.369
44049W        W10458  34.692  32.549  14.054
44050W        W10459  38.346  19.839   2.705
44051W        W10460  17.249  42.432  12.554
44052W        W10461  27.956   7.879  13.931
44053W        W10462  20.567  14.593   4.101
44054W        W10463  41.514  28.167   2.755
44055W        W10464  31.676  25.120  10.119
44056W        W10465  20.708  12.844   2.401
44057W        W10466  34.525   2.562   0.182
44058W        W10467  30.530   0.104  14.688
44059W        W10468  30.688  40.343   3.670
44060W        W10469  33.837  19.949   0.724
44061W        W10470  29.511  10.274  10.705
44062W        W10471  28.899   0.647  13.336
44063W        W10472  15.294  21.964  13.954
44064W        W10473  34.168  41.648   4.241
44065W        W10474  11.919  37.473   3.053
44066W        W10475  21.289   2.931   4.851
44067W        W10476  30.572  17.680   0.524
44068W        W10477  16.294  40.903   2.282
44069W        W10478  31.579  20.114  13.038
44070W        W10479   3.470  33.469   1.960
44071W        W10480  21.231  21.735  12.109
44072W        W10481   9.225   8.884   4.696
44073W        W10482   6.953  22.736   1.169
44074W        W10483  16.006  17.378  14.054
44075W        W10484  42.620  43.310  13.930
44076W        W10485   5.063  24.567   2.096
44077W        W10486   2.215  12.196   1.261
44078W        W10487  20.275   1.061  14.473
44079W        W10488  14.269   3.588  12.134
44080W        W10489  16.340   3.007   3.724
44081W        W10490  39.757   4.285  14.400
44082W        W10491  35.174  10.487  11.042
44083W        W10492   6.590   7.192  12.902
44084W        W10493  25.818  31.748   5.314
44085W        W10494   2.545  18.377  14.978
44086W        W10495  34.800  22.510  11.627
44087W        W10496  44.977  43.453   4.548
44088W        W10497   4.725  20.157  13.832
44089W        W10498  36.981   8.235   2.199
44090W        W10499   6.675  44.912   1.855
44091W        W10500   2.927  13.660  11.972
44092W        W10501  38.905  37.022  12.834
44093W        W10502  35.900  33.905  13.982
44094W        W10503  43.296  34.424  14.322
44095W        W10504   2.860  10.703  11.220
44096W        W10505  17.599  10.788  14.620
44097W        W10506  42.925  17.295  13.708
44098W        W10507  41.561  28.203   2.132
44099W        W10508  36.470   0.811   0.665
44100W        W10509   3.749  42.075  13.117
44101W        W10510  29.994  43.825  11.175
44102W        W10511  11.828  21.751  13.136
44103W        W10512  36.844  32.104  11.910
44104W        W10513  14.909  29.924   2.371
44105W        W10514  31.776  32.648  14.037
44106W        W10515   9.730  43.151   4.129
44107W        W10516  23.883  14.728   2.680
44108W        W10517  12.080  24.512   2.718
44109W        W10518   5.278   1.263  14.039
44110W        W10519   7.297  26.228   3.766
44111W        W10520  41.351  10.661   2.591
44112W        W10521  27.850  38.036   3.416
44113W        W10522  14.879  27.506  13.937
44114W        W10523  40.115  10.545  13.342
44115W        W10524   4.700  37.007   2.840
44116W        W10525   1.978  36.891  11.713
44117W        W10526  28.241   4.244  11.180
44118W        W10527  18.176  35.856  11.519
44119W        W10528  24.741  32.753   0.860
44120W        W10529  42.006  39.403   1.762
44121W        W10530  41.843  18.703   1.588
44122W        W10531  38.289  41.311   1.413
44123W        W10532   6.208   2.256   4.414
44124W        W10533  34.071  43.180  13.099
44125W        W10534  40.551  16.197   0.817
44126W        W10535   7.650  16.278   4.159
44127W        W10536  14.076   8.446   3.006
44128W        W10537  23.415   1.870   4.756
44129W        W10538   4.936  15.312   0.859
44130W        W10539   6.682  19.639   3.437
44131W        W10540   4.634   4.348   1.444
44132W        W10541   0.712  11.656   3.664
44133W        W10542  41.367  38.716  11.182
44134W        W10543  43.979   3.233  12.919
44135W        W10544  14.662   5.735  12.472
44136W        W10545  37.112   5.287   2.862
44137W        W10546   4.809  15.196  14.318
44138W        W10547  31.908   9.670   0.021
44139W        W10548  21.711  27.121  10.710
44140W        W10549  39.180  21.150  12.380
44141W        W10550   0.229  17.194   1.224
44142W        W10551  31.542  39.241   2.886
44143W        W10552   9.149  10.437   0.959
44144W        W10553   9.440  26.792  11.546
44145W        W10554  12.117  21.497   2.867
44146W        W10555  16.812   1.258  10.641
44147W        W10556   7.277   1.175   4.660
44148W        W10557   1.748  23.909   3.361
44149W        W10558  34.072  34.916  12.451
44150W        W10559  31.162   5.810  10.999
44151W        W10560  29.582  24.421   4.537
44152W        W10561  39.277  33.548   0.037
44153W        W10562  33.101   6.854   0.063
44154W        W10563  25.517   6.224  11.947
44155W        W10564  39.217  41.594   4.963
44156W        W10565  18.331  33.472   2.434
44157W        W10566  19.707  22.968  13.948
44158W        W10567  15.687   8.825   2.275
44159W        W10568  17.566  36.030   1.614
44160W        W10569  34.784  16.507  12.000
44161W        W10570  20.530  21.689   1.791
44162W        W10571  25.579  18.683   3.344
44163W        W10572  10.709   2.464  10.782
44164W        W10573  24.590  13.410   2.794
44165W        W10574   4.924  35.307  12.468
44166W        W10575  21.832  26.184  10.567
44167W        W10576  26.959  15.837   0.291
44168W        W10577  27.735  15.417   0.737
44169W        W10578  30.744   0.843   2.301
44170W        W10579   7.650  20.099   0.856
44171W        W10580  15.880   5.374   1.784
44172W        W10581  40.606  17.250  11.326
44173W        W10582  15.804  19.082  11.784
44174W        W10583  23.988  41.595   3.178
44175W        W10584  33.420   0.289   1.923
44176W        W10585  12.630   7.226   2.278
44177W        W10586   2.186  30.585  11.306
44178W        W10587  29.104   4.071   0.718
44179W        W10588  20.104  31.894   0.965
44180W        W10589   4.245  40.824  11.983
44181W        W10590  21.519  30.029  14.934
44182W        W10591  12.055  17.345   3.276
44183W        W10592  34.865  44.817   4.311
44184W        W10593   9.988  19.655  14.358
44185W        W10594  13.713   4.336   4.527
44186W        W10595  32.808   4.769  12.385
44187W        W10596  19.217  12.345  11.953
44188W        W10597  29.110  28.948   3.865
44189W        W10598  42.015   0.753  10.815
44190W        W10599  40.068  10.410  14.076
44191W        W10600  28.436  12.392   0.452
44192W        W10601  12.104  42.048  12.493
44193W        W10602  16.694  22.249  11.553
44194W        W10603   6.599  30.003  14.505
44195W        W10604  23.146  44.001   2.778
44196W        W10605  13.162  42.461   1.873
44197W        W10606   5.227  11.066  10.866
44198W        W10607  24.025  31.176  10.715
44199W        W10608  41.218  44.534  14.856
44200W        W10609  32.685   1.703   2.146
44201W        W10610   4.307  18.198   1.235
44202W        W10611  32.051  31.980   0.912
44203W        W10612  40.995   1.260  11.548
44204W        W10613  32.442  39.993  13.375
44205W        W10614  22.591  13.091  13.203
44206W        W10615  28.239  31.490   4.594
44207W        W10616  12.884  36.795   4.195
44208W        W10617  29.688  43.472  10.980
44209W        W10618   1.819   5.387   0.060
44210W        W10619  18.798  43.071  12.886
44211W        W10620   0.356  12.822  11.701
44212W        W10621   7.723  11.162   3.623
44213W        W10622  11.376  41.220   3.273
44214W        W10623  11.590  34.381   0.752
44215W        W10624  33.025  18.229   2.193
44216W        W10625  38.726  20.472  11.324
44217W        W10626  23.576  37.386  14.737
44218W        W10627  27.055  24.971   3.194
44219W        W10628  20.555   0.244  12.382
44220W        W10629  36.987  17.092   2.688
44221W        W10630  28.463   7.425  14.839
44222W        W10631  41.958  42.504  10.650
44223W        W10632  36.883   8.622   1.764
44224W        W10633  11.809  29.382  12.891
44225W        W10634  23.599  37.460  14.199
44226W        W10635   6.661  10.152   0.433
44227W        W10636  10.644  13.715   0.785
44228W        W10637  13.191   4.974  12.090
44229W        W10638   0.790  17.837   4.583
44230W        W10639   8.203  27.553   0.502
44231W        W10640   3.477  43.249  10.953
44232W        W10641  44.251  27.559  12.555
44233W        W10642   5.511  33.153  11.414
44234W        W10643  18.485  40.012   0.631
44235W        W10644  14.888  28.647  13.413
44236W        W10645  36.550  19.281   3.161
44237W        W10646  27.101  27.217  11.129
44238W        W10647  23.001  36.302  12.455
44239W        W10648  19.784  22.235  11.151
44240W        W10649  12.249  38.809   2.901
44241W        W10650  24.081  32.159  13.255
44242W        W10651   2.974  34.478  11.692
44243W        W10652  19.944  38.890   3.282
44244W        W10653  32.623   8.510   2.770
44245W        W10654  39.392  21.740  14.527
44246W        W10655  28.992   2.308   2.330
44247W        W10656   7.358   3.661  14.756
44248W        W10657   4.771  38.391  11.614
44249W        W10658  34.987  32.411  14.930
44250W        W10659  42.097  23.514  14.537
44251W        W10660  40.790  22.525   3.295
44252W        W10661  14.128   5.543   4.858
44253W        W10662  33.484  26.499   2.877
44254W        W10663   2.361  30.861  13.788
44255W        W10664  13.050  31.667  10.968
44256W        W10665  24.587  12.579  14.637
44257W        W10666  20.520  22.555   3.197
44258W        W10667   9.265   8.697   2.413
44259W        W10668  35.911  14.623   3.285
44260W        W10669  14.816  34.032   4.381
44261W        W10670  25.025  28.509   3.659
44262W        W10671  11.973   2.841  10.233
44263W        W10672  19.196  32.469  10.806
44264W        W10673  40.132  41.031  12.828
44265W        W10674   9.117  40.417   3.656
44266W        W10675  33.539  32.742   3.263
44267W        W10676  24.463   1.526  10.543
44268W        W10677  32.882  22.505   0.879
44269W        W10678  34.867  32.989   3.485
44270W        W10679  28.257   5.729   0.464
44271W        W10680  42.145  30.549   2.395
44272W        W10681  24.919  13.687   4.016
44273W        W10682  40.803   9.699   3.692
44274W        W10683   1.330  34.002   0.090
44275W        W10684  32.593   8.247   4.258
44276W        W10685  16.631  33.938   2.422
44277W        W10686  11.399  10.574  14.599
44278W        W10687   1.934  16.886  14.705
44279W        W10688  30.943  12.710   2.120
44280W        W10689  14.915  28.460   4.838
44281W        W10690  18.704  25.172  11.587
44282W        W10691  32.288   4.597  14.776
44283W        W10692  23.137  20.197  14.381
44284W        W10693  16.212  40.980  11.543
44285W        W10694  27.334   9.218   2.780
44286W        W10695  23.966  34.356   1.778
44287W        W10696  43.723   4.311   4.749
44288W        W10697  31.488   1.831  13.540
44289W        W10698  12.713  10.939  12.915
44290W        W10699  20.770  41.357  14.349
44291W        W10700  15.960  19.688   4.292
44292W        W10701  37.810  43.983  11.587
44293W        W10702   3.863  23.464  12.108
44294W        W10703  19.043  40.572  13.018
44295W        W10704  16.723  21.001   0.337
44296W        W10705   0.031  13.926  11.167
44297W        W10706  31.669   2.885  12.093
44298W        W10707   7.852  12.607  10.574
44299W        W10708  16.188   3.225   1.311
44300W        W10709  26.135  28.594  12.508
44301W        W10710  19.498  36.394   4.216
44302W        W10711  11.332  10.568   0.517
44303W        W10712  34.679   4.312  13.349
44304W        W10713  38.490  40.710   0.558
44305W        W10714  31.408   1.875   4.517
44306W        W10715  37.828  40.105  14.587
44307W        W10716  35.768  31.002  14.383
44308W        W10717  18.561  21.971  13.584
44309W        W10718  22.394  14.261   4.811
44310W        W10719   4.339  19.035  11.358
44311W        W10720  33.130  16.508  12.738
44312W        W10721  26.466   2.244   2.363
44313W        W10722  11.869   0.870   3.101
44314W        W10723  36.332  28.152  12.654
44315W        W10724  35.396  38.253  14.179
44316W        W10725  21.942  34.588   4.049
44317W        W10726   7.201  13.933  12.357
44318W        W10727  38.805  35.577  12.460
44319W        W10728   5.872  37.382  12.449
44320W        W10729  38.439  31.999  14.499
44321W        W10730  25.622  36.492  14.347
44322W        W10731   1.751   9.955   3.648
44323W        W10732  22.262  26.265   2.003
44324W        W10733  37.017   1.531   0.484
44325W        W10734  26.697  44.493   1.422
44326W        W10735   6.722  34.187   1.237
44327W        W10736   6.590  20.628   4.295
44328W        W10737  41.893  20.585  11.816
44329W        W10738  33.122  18.119   2.676
44330W        W10739  24.960  11.085   2.802
44331W        W10740   7.273  28.453   4.107
44332W        W10741   6.154   7.846  10.660
44333W        W10742  25.463  18.378   3.743
44334W        W10743  11.313  12.345   4.489
44335W        W10744  11.059   4.228  13.964
44336W        W10745  16.026  12.576   0.348
44337W        W10746  21.611   1.930   1.748
44338W        W10747  31.912  40.428  14.403
44339W        W10748  14.586  20.794  13.891
44340W        W10749  34.362  38.439   3.364
44341W        W10750  42.279  41.088   1.293
44342W        W10751  34.311  32.458  13.686
44343W        W10752  40.845  27.063   0.520
44344W        W10753  19.496  41.949   2.758
44345W        W10754  11.103  39.264  12.030
44346W        W10755   4.017  34.410  14.441
44347W        W10756  10.620  40.576   3.665
44348W        W10757  26.202  36.023  14.289
44349W        W10758  14.478  33.148   1.251
44350W        W10759   6.970  44.955  10.591
44351W        W10760  38.002   9.183  14.413
44352W        W10761  30.747  11.653   5.175
44353W        W10762  12.557  37.823   3.177
44354W        W10763  14.148   2.211   3.168
44355W        W10764   0.599  14.691   0.497
44356W        W10765  15.059  39.581  11.233
44357W        W10766  23.668   3.975   2.969
44358W        W10767  19.185  19.629  10.715
44359W        W10768  32.002  15.070  10.738
44360W        W10769   3.884   5.808  14.303
44361W        W10770  29.545  11.157   4.985
44362W        W10771  26.870  41.342   9.956
44363W        W10772  31.746  38.120   0.768
44364W        W10773  42.458  41.750   2.230
44365W        W10774  33.529  40.860   1.315
44366W        W10775  37.370  11.568   2.384
44367W        W10776   1.868  40.444   4.252
44368W        W10777  16.781  32.855  11.485
44369W        W10778  10.565  40.034  11.672
44370W        W10779  32.668  23.411  13.488
44371W        W10780  44.608  44.383   2.906
44372W        W10781  39.139   4.004  13.481
44373W        W10782   3.050  11.672  11.594
44374W        W10783  26.718  15.724   3.682
44375W        W10784  40.445  15.803  13.564
44376W        W10785   1.212  44.594  14.296
44377W        W10786  15.016  19.957   4.913
44378W        W10787  35.626  18.659  11.504
44379W        W10788   8.289   0.223  12.122
44380W        W10789   3.371  15.020  12.484
44381W        W10790  16.137  35.978   2.722
44382W        W10791  21.401   4.074   5.112
44383W        W10792  12.167   8.197  13.023
44384W        W10793  14.927  22.616   4.149
44385W        W10794  28.754  24.951   4.146
44386W        W10795  15.559  16.510   1.694
44387W        W10796  20.651  20.536  12.368
44388W        W10797  38.509  40.765  12.369
44389W        W10798  10.368  35.435   0.689
44390W        W10799  41.497   5.464   2.417
44391W        W10800  44.966  24.289   4.586
44392W        W10801  42.791  27.662   4.629
44393W        W10802  38.984   6.236  12.504
44394W        W10803  25.546   1.511   2.437
44395W        W10804  31.221   6.249   3.745
44396W        W10805  24.023  21.233   1.270
44397W        W10806  12.053  44.991   2.639
44398W        W10807   9.208  15.810  13.481
44399W        W10808  16.800  34.344   2.737
44400W        W10809  14.875  30.550  14.551
44401W        W10810   7.901  22.152   2.448
44402W        W10811   0.832  26.756   4.706
44403W        W10812  26.705   0.779  10.958
44404W        W10813  17.786  37.144  12.460
44405W        W10814  33.004  27.560   3.205
44406W        W10815  22.198  13.193  13.541
44407W        W10816  13.170  12.263  10.695
44408W        W10817  17.528  14.251  11.613
44409W        W10818   4.154   6.904   3.181
44410W        W10819  32.604  31.530  13.968
44411W        W10820  13.544  30.126   0.746
44412W        W10821  21.454   6.623   2.327
44413W        W10822  21.224  14.687   4.585
44414W        W10823   1.455  28.985   4.271
44415W        W10824  31.035  14.161   0.482
44416W        W10825   6.563   7.221   2.199
44417W        W10826  26.415  43.008   1.646
44418W        W10827   4.266  19.940  11.705
44419W        W10828  21.712  41.790  11.591
44420W        W10829   6.398   8.369  12.384
44421W        W10830  30.434   0.269   2.419
44422W        W10831  33.893  13.535  10.970
44423W        W10832   2.935  10.190  11.066
44424W        W10833  23.657  36.860  11.641
44425W        W10834   6.975  26.418   4.146
44426W        W10835  13.601  27.872   4.739
44427W        W10836   2.890  44.347  12.513
44428W        W10837  42.712  33.547   0.904
44429W        W10838  14.656   8.312   1.342
44430W        W10839   6.763  30.040   2.903
44431W        W10840   0.222  35.125  14.563
44432W        W10841  15.035  11.608   2.802
44433W        W10842  10.631  43.689  12.680
44434W        W10843   4.545  39.977  13.339
44435W        W10844  35.570  11.856  12.108
44436W        W10845  10.789  32.791   1.307
44437W        W10846  29.518  29.595  14.430
44438W        W10847   4.119  26.398  10.944
44439W        W10848  29.104  20.121   3.891
44440W        W10849   1.893  18.221   4.464
44441W        W10850  28.535  13.001  13.462
44442W        W10851  41.049  44.493  13.911
44443W        W10852   9.844   9.483   1.951
44444W        W10853   8.871  21.164   4.157
44445W        W10854   3.692  40.584   4.293
44446W        W10855  37.891   1.333   3.280
44447W        W10856  26.582   8.383   0.353
44448W        W10857  30.946  25.546   4.688
44449W        W10858  33.894  28.128  14.434
44450W        W10859  24.667  28.631   0.783
44451W        W10860  20.601  39.808   0.479
44452W        W10861  22.357  43.910  10.618
44453W        W10862  22.171  10.637   3.672
44454W        W10863  21.344  21.312  11.825
44455W        W10864  10.914  43.389  14.486
44456W        W10865  36.785  16.780  10.590
44457W        W10866  20.722  27.021  12.182
44458W        W10867   0.794  19.540   3.667
44459W        W10868   4.673  14.710  12.979
44460W        W10869  23.028  38.457  13.840
44461W        W10870   6.680  41.588   3.148
44462W        W10871  39.142   1.865  11.959
44463W        W10872  24.518  21.363   1.239
44464W        W10873  35.983  14.244   3.666
44465W        W10874  26.653  39.380  11.660
44466W        W10875  21.210  11.451  13.551
44467W        W10876  44.281   1.974   3.366
44468W        W10877  33.153  39.889  14.004
44469W        W10878  18.051   8.059   0.929
44470W        W10879   7.945  44.365  12.529
44471W        W10880   1.385   3.489   2.790
44472W        W10881  26.091  17.278  14.063
44473W        W10882   4.182  21.401  11.515
44474W        W10883  24.600  18.792   3.188
44475W        W10884  15.342  44.800   4.429
44476W        W10885   3.146   0.320   2.681
44477W        W10886  37.038  14.993   3.515
44478W        W10887  17.521  24.541  12.495
44479W        W10888  33.053  38.088  13.752
44480W        W10889   4.391  14.494   0.206
44481W        W10890  41.011  18.439   1.899
44482W        W10891  24.595  31.581  14.045
44483W        W10892  19.479   2.346  11.936
44484W        W10893  17.707  32.952  13.990
44485W        W10894  43.269   9.606   3.578
44486W        W10895  28.064  21.981   4.141
44487W        W10896  44.452   7.316  13.544
44488W        W10897   1.256   9.882   4.404
44489W        W10898   8.858  16.366  11.080
44490W        W10899   9.574  16.851   3.613
44491W        W10900  32.042  40.424   3.310
44492W        W10901  40.542  24.148   3.362
44493W        W10902  30.777  39.402   1.297
44494W        W10903  36.636  30.695  14.562
44495W        W10904  27.140  20.123  11.177
44496W        W10905   9.648  27.880  14.582
44497W        W10906  41.557  38.925  12.943
44498W        W10907  31.544  31.538   4.379
44499W        W10908  33.688  15.853  12.056
44500W        W10909  34.767  35.294  14.932
44501W        W10910   0.515  18.104   1.413
44502W        W10911  30.010  44.502   3.864
44503W        W10912  33.783  34.018  10.172
44504W        W10913  16.684   0.307   0.066
44505W        W10914   1.228  20.553  12.352
44506W        W10915  41.860  20.499   4.197
44507W        W10916  40.358  22.238   3.694
44508W        W10917  22.089  42.690  12.430
44509W        W10918   5.810  24.168   0.696
44510W        W10919   6.356  27.390  11.685
44511W        W10920   2.791   4.435  13.194
44512W        W10921  25.704  14.847  13.381
44513W        W10922  31.704  32.095  11.568
44514W        W10923  13.500   5.387  13.187
44515W        W10924  34.964  10.117  12.109
44516W        W10925  27.455  32.641  14.371
44517W        W10926   6.776  39.738   3.659
44518W        W10927   4.912  13.880   1.705
44519W        W10928  26.049   3.209  13.629
44520W        W10929  15.191   6.611   3.908
44521W        W10930  11.988   4.168  12.155
44522W        W10931  19.801  13.016  10.752
44523W        W10932  13.607  19.638   2.676
44524W        W10933  27.000  40.742   3.753
44525W        W10934  16.331  35.570   1.790
44526W        W10935  28.885  10.033   0.374
44527W        W10936  13.421  22.863  14.277
44528W        W10937  33.912  10.651  13.860
44529W        W10938  29.144  44.906  14.717
44530W        W10939  17.697  18.096  14.840
44531W        W10940  17.048   6.549   0.758
44532W        W10941  16.235  32.405   1.900
44533W        W10942  22.754  42.633  13.609
44534W        W10943  12.819  32.063  11.836
44535W        W10944   6.992  36.478   0.956
44536W        W10945  20.988  10.772  11.553
44537W        W10946   6.139  27.571  13.752
44538W        W10947   9.881  13.603  13.927
44539W        W10948  43.960  31.519  10.847
44540W        W10949  10.005  33.426  12.814
44541W        W10950  25.685   9.801  13.899
44542W        W10951  44.288  17.179  14.784
44543W        W10952  13.252  22.035  14.883
44544W        W10953  41.470  42.703   1.511
44545W        W10954  10.138  15.153  11.709
44546W        W10955   8.408  40.843   2.819
44547W        W10956  18.873  31.604  14.381
44548W        W10957  43.860   0.892  12.142
44549W        W10958  13.932  28.026  12.682
44550W        W10959  41.373  38.737   0.257
44551W        W10960  44.092   7.348  14.503
44552W        W10961  38.005   3.867   3.192
44553W        W10962  11.873  15.253   1.943
44554W        W10963  12.001   1.435  11.978
44555W        W10964  14.326  36.048  11.218
44556W        W10965  33.842  29.078   3.177
44557W        W10966  32.915  40.284  13.086
44558W        W10967  33.544   6.686  13.745
44559W        W10968  28.258  14.769   4.143
44560W        W10969  41.846  19.996  14.870
44561W        W10970  43.464  36.873   1.466
44562W        W10971  30.097  16.751   1.420
44563W        W10972  44.192  39.886   2.390
44564W        W10973   9.414  21.695   0.327
44565W        W10974  32.199  14.650   1.234
44566W        W10975   5.640  32.476  13.982
44567W        W10976  25.747  11.682   1.277
44568W        W10977  15.563  10.857  11.581
44569W        W10978  19.078  37.132  12.039
44570W        W10979  27.814   3.770   1.973
44571W        W10980  18.531  22.369   4.613
44572W        W10981  16.750  44.979   4.773
44573W        W10982  20.564  17.519   4.224
44574W        W10983  24.386  44.808   4.507
44575W        W10984  39.495  26.418   3.807
44576W        W10985  29.995  29.856   4.181
44577W        W10986  37.798   5.300  10.897
44578W        W10987  33.521  26.626   2.366
44579W        W10988  24.563  43.242   0.933
44580W        W10989  17.097  27.091   2.063
44581W        W10990  34.484   7.334   4.021
44582W        W10991  27.880   8.217  12.345
44583W        W10992   0.530  25.635  14.325
44584W        W10993  33.988   1.705  12.791
44585W        W10994  34.413  16.691   2.766
44586W        W10995  26.437  26.355   4.818
44587W        W10996  18.911  42.821   2.849
44588W        W10997  40.442  16.688   3.751
44589W        W10998   4.510  27.733  13.422
44590W        W10999   6.223   7.018   0.660
44591W        W11000  11.795  26.191  14.279
44592W        W11001  24.687  16.037   3.141
44593W        W11002  17.515   9.082  12.724
44594W        W11003   4.871  39.445   2.102
44595W        W11004  15.673   9.868   3.286
44596W        W11005  21.929  39.345   0.474
44597W        W11006  24.183  14.255  12.216
44598W        W11007  17.908  37.942   0.831
44599W        W11008  11.973  21.599  13.978
44600W        W11009   3.710   4.645   4.183
44601W        W11010  16.243  23.279  10.586
44602W        W11011   8.410   7.402  10.826
44603W        W11012  38.820   4.821   2.875
44604W        W11013   6.901  19.709  14.719
44605W        W11014  15.628  38.580  13.656
44606W        W11015  15.930  32.697   4.274
44607W        W11016   3.992  26.597  10.191
44608W        W11017  14.180  43.832   0.382
44609W        W11018  43.886  30.896  12.999
44610W        W11019  19.001   3.864  11.279
44611W        W11020   8.427  10.768   0.455
44612W        W11021  11.783  16.289   1.780
44613W        W11022  25.550   3.000  13.526
44614W        W11023  31.614   9.260  11.233
44615W        W11024  21.049   0.888   2.096
44616W        W11025  19.554   2.748  10.713
44617W        W11026  16.116  40.825  14.335
44618W        W11027  32.224  17.306  11.598
44619W        W11028  10.799   5.876   1.804
44620W        W11029  22.443  18.189  14.034
44621W        W11030  15.767  42.549   1.390
44622W        W11031  44.206   9.863   1.277
44623W        W11032   3.086   6.833   0.465
44624W        W11033   9.675  27.369  14.508
44625W        W11034   8.213  19.073  10.473
44626W        W11035  32.359   4.312  13.039
44627W        W11036   1.973  19.465  13.070
44628W        W11037  32.008  23.852  11.505
44629W        W11038  34.124  43.924   2.061
44630W        W11039  31.023   4.226  14.038
44631W        W11040  26.441  28.579  12.078
44632W        W11041  31.427  22.123   0.851
44633W        W11042  40.771   2.837   4.121
44634W        W11043  18.715  23.135   2.715
44635W        W11044  12.092  15.796  10.763
44636W        W11045  19.802  37.008   0.284
44637W        W11046  10.411   2.777   4.265
44638W        W11047   7.399  25.593   4.988
44639W        W11048  21.004  13.669   4.797
44640W        W11049  21.945  44.909  13.909
44641W        W11050  31.014   5.829  12.690
44642W        W11051  30.952  44.085   4.768
44643W        W11052   0.918  17.992  11.091
44644W        W11053  10.329   8.124   1.408
44645W        W11054   2.833  28.134   2.370
44646W        W11055  27.713  26.819  13.398
44647W        W11056  33.075   8.657  14.507
44648W        W11057  44.355  20.325   0.398
44649W        W11058  33.560  22.956  10.952
44650W        W11059   8.228  21.279   1.786
44651W        W11060  39.320  32.607   2.735
44652W        W11061  10.402   4.408   3.952
44653W        W11062  42.549  44.337  11.488
44654W        W11063  33.829  10.834   0.234
44655W        W11064  39.580  17.514  13.805
44656W        W11065  30.972   4.657  14.323
44657W        W11066  40.416  38.009  11.593
44658W        W11067   1.722  10.881   2.898
44659W        W11068  16.220  16.673   3.427
44660W        W11069   3.871   2.269  14.458
44661W        W11070  15.474  23.225   1.749
44662W        W11071   4.772  37.902  13.020
44663W        W11072  19.885  11.759   4.112
44664W        W11073  27.479  25.505  11.004
44665W        W11074   0.827  21.785   1.702
44666W        W11075  43.219   1.059  12.971
44667W        W11076  23.526  26.717  14.100
44668W        W11077   1.754   6.476   2.193
44669W        W11078   8.958  24.979   4.139
44670W        W11079  40.085   1.018   3.683
44671W        W11080  43.230   8.639   4.280
44672W        W11081  39.380  11.382   1.698
44673W        W11082  43.980  34.204  14.351
44674W        W11083  33.912   7.171   4.592
44675W        W11084  30.938   1.755   4.742
44676W        W11085   5.089  21.621   4.454
44677W        W11086   1.679  27.031   3.153
44678W        W11087  10.677   4.324  12.007
44679W        W11088   3.548   2.240  13.827
44680W        W11089  26.747  40.866  12.317
44681W        W11090  20.809  14.691  10.584
44682W        W11091  33.205   9.125   3.187
44683W        W11092  38.430  34.673  14.599
44684W        W11093  17.472   4.794  12.589
44685W        W11094  28.619  19.779   2.884
44686W        W11095  38.395  41.264  12.221
44687W        W11096  23.594  34.903   2.437
44688W        W11097  21.034  15.086  12.513
44689W        W11098  30.372  22.115  10.443
44690W        W11099   6.676  33.875  14.873
44691W        W11100  34.756  39.952  10.567
44692W        W11101  25.543   7.556   3.288
44693W        W11102  11.154   6.724   3.740
44694W        W11103  38.774  13.366   5.004
44695W        W11104   5.311   9.369   0.717
44696W        W11105  22.779  12.570   0.298
44697W        W11106  30.342  16.515  10.783
44698W        W11107  39.719  16.839   0.812
44699W        W11108  19.260  29.770   2.630
44700W        W11109  44.960  32.460  11.643
44701W        W11110   1.498   0.948  10.745
44702W        W11111  27.100  35.033  14.268
44703W        W11112   8.828  15.005   4.542
44704W        W11113  15.771  28.771   4.860
44705W        W11114   6.716  29.608  12.412
44706W        W11115  22.684   0.948   0.531
44707W        W11116  22.595  29.045  10.521
44708W        W11117  43.922   4.268   2.306
44709W        W11118  11.713  30.883   2.294
44710W        W11119  22.670  39.739  10.136
44711W        W11120  22.700  24.460   4.107
44712W        W11121  31.452  12.635   4.541
44713W        W11122   3.742   5.214  11.963
44714W        W11123  18.878   1.789   0.367
44715W        W11124  17.472  33.531  11.684
44716W        W11125   3.417  44.520  12.459
44717W        W11126   0.757  33.613   0.036
44718W        W11127   6.381  18.141   3.320
44719W        W11128  12.385   7.097   3.708
44720W        W11129  37.081  42.453   4.767
44721W        W11130  21.169  21.637   4.914
44722W        W11131  43.962  19.633   0.818
44723W        W11132  15.013   4.337  14.760
44724W        W11133  39.731   7.301   2.264
44725W        W11134  28.183  42.062   0.594
44726W        W11135  31.091  26.742   1.687
44727W        W11136  10.236  13.278  11.210
44728W        W11137  31.590  29.675   3.563
44729W        W11138   0.895  34.082  12.988
44730W        W11139  16.305  30.961  10.720
44731W        W11140  30.080   1.306  12.604
44732W        W11141  30.688  38.706   2.650
44733W        W11142  38.398  21.695  13.988
44734W        W11143  44.066  16.280  11.876
44735W        W11144   6.470  26.464   4.073
44736W        W11145   6.871  22.994  14.907
44737W        W11146   1.123  11.604   3.314
44738W        W11147  35.030   5.913   2.763
44739W        W11148  14.547   1.798  11.700
44740W        W11149  33.040  38.029  14.281
44741W        W11150  41.694  14.715   0.878
44742W        W11151   5.760   7.556  12.410
44743W        W11152  10.054  16.596   2.675
44744W        W11153  10.087  34.685  12.756
44745W        W11154  41.892  17.711  10.399
44746W        W11155  23.732  37.863   4.106
44747W        W11156  23.107  26.353  14.228
44748W        W11157  30.213  28.195  11.980
44749W        W11158   8.902   7.234  10.702
44750W        W11159  15.117  33.730  14.923
44751W        W11160  37.668  23.618  12.959
44752W        W11161  42.239  36.688  14.920
44753W        W11162  41.504   8.812  10.777
44754W        W11163  21.571  31.905   2.760
44755W        W11164   8.195  40.783   0.946
44756W        W11165  42.329  39.656  12.538
44757W        W11166  15.024  27.127  10.759
44758W        W11167   9.175  35.405  11.214
44759W        W11168  14.688  28.394   0.566
44760W        W11169  35.126  37.302  14.803
44761W        W11170  39.083  42.711   4.306
44762W        W11171  39.628  34.401   4.238
44763W        W11172  17.707  44.729  13.015
44764W        W11173  17.975  21.236   1.946
44765W        W11174  39.764  18.705   2.748
44766W        W11175  23.232  33.675   2.927
44767W        W11176  44.039  29.595   0.397
44768W        W11177  34.048   5.655   4.526
44769W        W11178   7.788  22.046   3.759
44770W        W11179  41.276   8.607   4.647
44771W        W11180   0.669  39.858   4.119
44772W        W11181  41.501  30.372  12.967
44773W        W11182   2.476  20.648  12.103
44774W        W11183   3.716  21.129  13.029
44775W        W11184  36.442   2.806   3.383
44776W        W11185  12.623  38.314   5.012
44777W        W11186  41.653  10.684  10.733
44778W        W11187  43.150  36.942   2.548
44779W        W11188   3.014  36.111   2.723
44780W        W11189  20.870  28.585  13.756
44781W        W11190  15.860   5.533   4.715
44782W        W11191  40.625  31.858   4.286
44783W        W11192   0.386  43.792  10.413
44784W        W11193   5.157  42.574   2.838
44785W        W11194  15.848  12.702   3.385
44786W        W11195  39.878   0.065   3.822
44787W        W11196  26.738   5.859  12.939
44788W        W11197   5.749  11.881  14.457
44789W        W11198  17.257   7.190  12.600
44790W        W11199  24.155  31.132   0.396
44791W        W11200  13.645  28.060   2.185
44792W        W11201  27.520  12.249  10.489
44793W        W11202   7.392  42.853  10.810
44794W        W11203  24.587  23.984   0.768
44795W        W11204  18.578   8.946  11.214
44796W        W11205  19.809  17.556   0.604
44797W        W11206  12.612   3.936   4.978
44798W        W11207  22.802  36.677  14.370
44799W        W11208  38.752   3.483  10.693
44800W        W11209  26.942  33.843  12.159
44801W        W11210   0.055  11.690   1.228
44802W        W11211  25.094  17.815  12.427
44803W        W11212  37.077  43.350   0.740
44804W        W11213  13.525  29.913  10.985
44805W        W11214  11.135  31.995  12.459
44806W        W11215  17.078  14.585  11.961
44807W        W11216   0.283  33.482  14.830
44808W        W11217  19.265  19.285  11.983
44809W        W11218  31.411  36.544  13.671
44810W        W11219  21.956  30.397   2.148
44811W        W11220   2.992  14.302   3.680
44812W        W11221   0.478  33.001   4.088
44813W        W11222   8.750  18.195  14.890
44814W        W11223  39.281  37.515  12.402
44815W        W11224  13.865  27.943   1.740
44816W        W11225  37.365  39.974  11.000
44817W        W11226   0.656  10.736   3.689
44818W        W11227  39.581   5.791   1.272
44819W        W11228  15.642  43.842   4.732
44820W        W11229  17.533  44.759   2.925
44821W        W11230  40.484  17.362  11.823
44822W        W11231  22.690  27.749  14.524
44823W        W11232  42.389   3.655   3.734
44824W        W11233  14.097  43.760  11.309
44825W        W11234   6.718  26.736  13.980
44826W        W11235  11.613   9.774   4.737
44827W        W11236  44.274  42.805  12.061
44828W        W11237   2.942  10.104  10.490
44829W        W11238  35.606  26.559   0.202
44830W        W11239  15.865  35.309   4.307
44831W        W11240  29.590  31.390  10.862
44832W        W11241   7.865   7.123  12.568
44833W        W11242   3.682  23.504  11.622
44834W        W11243  38.529  32.855   2.193
44835W        W11244  21.483  20.400   1.125
44836W        W11245   1.570  29.723   1.077
44837W        W11246  19.829   5.659  13.451
44838W        W11247   7.939  13.356  11.890
44839W        W11248   1.937   7.011  13.848
44840W        W11249  17.082  39.803   3.158
44841W        W11250  32.935  23.498   4.290
44842W        W11251  23.309   4.376   2.249
44843W        W11252  27.986  37.520   2.185
44844W        W11253  38.046  21.507   2.173
44845W        W11254  41.252   2.256  11.898
44846W        W11255  43.530  32.962   4.551
44847W        W11256  37.926   5.943  11.744
44848W        W11257   3.643  26.486   4.289
44849W        W11258  11.124  30.673  12.003
44850W        W11259  26.367  13.730  14.471
44851W        W11260   3.352  44.229  10.725
44852W        W11261   5.091  29.465   2.780
44853W        W11262  33.785  29.576   1.113
44854W        W11263   3.984   7.285  13.541
44855W        W11264  43.188  29.683  12.030
44856W        W11265  12.060   7.691  14.298
44857W        W11266  20.073   1.643  12.190
44858W        W11267  33.954  33.103   4.204
44859W        W11268  37.762  19.628  14.559
44860W        W11269  22.081  29.074  14.381
44861W        W11270  32.128  17.503   4.099
44862W        W11271  43.935  16.748   4.077
44863W        W11272  44.378  16.623   3.628
44864W        W11273   5.119   4.342   2.817
44865W        W11274  33.917  26.431  10.691
44866W        W11275  35.836   2.151   1.720
44867W        W11276  19.590  43.752  13.134
44868W        W11277   9.897   3.874   4.189
44869W        W11278   4.873  19.785   4.944
44870W        W11279   0.842  34.438  12.008
44871W        W11280  12.318  21.600  12.983
44872W        W11281   2.165   8.218  13.618
44873W        W11282  20.485   3.697   4.828
44874W        W11283  21.557   3.432  12.573
44875W        W11284  13.352  34.077   3.320
44876W        W11285  11.463  12.846  14.997
44877W        W11286   0.229  15.618  14.553
44878W        W11287  26.925  13.738   3.575
44879W        W11288  28.495  38.569  12.940
44880W        W11289  16.327  41.718   4.139
44881W        W11290  16.170  15.980  10.776
44882W        W11291  33.084  40.139   3.663
44883W        W11292  37.609  23.134   0.985
44884W        W11293  30.014  39.793   2.177
44885W        W11294  11.962  34.016   2.646
44886W        W11295   2.405  27.503  10.477
44887W        W11296  42.318  36.054  12.734
44888W        W11297  29.911   8.397   0.317
44889W        W11298  20.307  35.164   0.403
44890W        W11299  44.353  13.565   1.763
44891W        W11300   8.259  18.246   3.311
44892W        W11301  10.554  27.733   4.168
44893W        W11302   2.724  43.381  12.667
44894W        W11303  12.198  22.586  13.096
44895W        W11304  24.263  37.385  13.369
44896W        W11305  28.705   2.213   3.961
44897W        W11306   2.809  30.712  14.022
44898W        W11307  37.270  37.284   1.702
44899W        W11308  20.638  15.654   1.728
44900W        W11309  17.075   1.816   3.191
44901W        W11310  29.157  39.321   0.400
44902W        W11311  31.508  43.093  13.617
44903W        W11312   1.304   3.405   0.772
44904W        W11313  31.433  35.959  14.478
44905W        W11314  33.075  12.278  11.228
44906W        W11315  19.989  13.252  14.301
44907W        W11316  20.944   1.500   0.751
44908W        W11317  27.711  15.912   0.878
44909W        W11318  25.087  37.056   1.335
44910W        W11319  23.994   3.376   0.246
44911W        W11320  36.686   3.068   4.108
44912W        W11321  18.778  28.021  13.593
44913W        W11322  21.269  38.330  14.791
44914W        W11323  44.370   6.726   3.098
44915W        W11324  14.302   2.196  14.451
44916W        W11325  26.968  30.255  12.535
44917W        W11326  31.410  10.314  14.618
44918W        W11327  23.654  43.325   2.954
44919W        W11328  31.730   6.628  11.316
44920W        W11329  39.046   3.021  10.687
44921W        W11330  27.143  29.050   2.951
44922W        W11331   1.133  25.037   2.670
44923W        W11332   6.539   6.250  11.101
44924W        W11333  37.431   2.756   3.656
44925W        W11334  29.487  15.309   4.103
44926W        W11335  15.553  38.372  12.207
44927W        W11336  21.237   5.936  13.996
44928W        W11337  23.167  34.043   0.940
44929W        W11338  34.824  29.308  14.317
44930W        W11339  41.791   9.073   3.152
44931W        W11340  13.783  16.836   1.993
44932W        W11341   9.647  20.744   1.953
44933W        W11342   3.153  43.056  12.732
44934W        W11343  27.961  30.925   2.552
44935W        W11344  28.052  34.935   1.150
44936W        W11345  20.527  20.349  11.138
44937W        W11346   4.706   1.937   3.072
44938W        W11347  18.013   8.844  11.168
44939W        W11348  16.203   8.885   0.958
44940W        W11349   8.252  11.204  11.136
44941W        W11350  29.916  10.339  14.876
44942W        W11351  30.097  43.472  12.320
44943W        W11352  17.268  28.456  13.709
44944W        W11353   8.574  10.235  13.248
44945W        W11354   9.369  24.119  10.745
44946W        W11355  25.009   8.742   3.733
44947W        W11356  17.622  36.851  11.119
44948W        W11357  35.363  19.959   1.758
44949W        W11358  22.692  39.495   0.865
44950W        W11359  19.521   6.618   4.549
44951W        W11360  29.281  37.530   3.744
44952W        W11361  25.414  16.768   4.271
44953W        W11362  37.999  26.142  11.952
44954W        W11363   2.759  40.062  13.464
44955W        W11364  39.363  32.082  12.603
44956W        W11365  23.071  21.794   3.632
44957W        W11366  38.625  43.189  10.575
44958W        W11367  32.540  43.256  10.550
44959W        W11368   7.186  15.176  14.193
44960W        W11369   4.183  38.086  10.632
44961W        W11370  42.406  37.232   4.623
44962W        W11371  42.397  37.746   4.769
44963W        W11372  34.941  23.399   4.132
44964W        W11373  15.157  12.661  11.555
44965W        W11374  30.229  37.382  14.850
44966W        W11375  37.509  41.028   3.101
44967W        W11376  15.578   0.224  11.888
44968W        W11377  17.120   5.465  11.632
44969W        W11378   4.599  15.066   4.947
44970W        W11379  12.636   0.001  13.223
44971W        W11380  27.786  37.338  11.483
44972W        W11381   1.986   4.950   5.080
44973W        W11382  22.224  27.315  12.449
44974W        W11383  15.653  16.861   0.729
44975W        W11384  38.214  25.606  11.219
44976W        W11385  26.932  42.799  13.522
44977W        W11386  43.235  26.970   4.149
44978W        W11387  41.902   1.991  11.129
44979W        W11388  44.347  29.617  13.996
44980W        W11389  24.004  40.572  10.738
44981W        W11390  36.455   4.549   2.473
44982W        W11391  41.582  40.824   2.005
44983W        W11392  38.285  14.215   4.160
44984W        W11393  21.055   0.415   0.735
44985W        W11394   2.327   8.676   1.946
44986W        W11395  18.151   6.100   1.239
44987W        W11396   2.738  25.025  11.206
44988W        W11397  18.271  32.493  13.636
44989W        W11398  43.923   1.098   2.622
44990W        W11399  10.898  22.727  13.856
44991W        W11400  25.425  37.423  11.895
44992W        W11401  25.920  37.060  11.610
44993W        W11402  14.787  29.929  14.997
44994W        W11403  35.611  12.700  13.424
44995W        W11404   2.905  23.699   0.631
44996W        W11405  36.997  14.238   3.819
44997W        W11406  22.934   3.406   1.172
44998W        W11407  18.944  33.603   5.046
44999W        W11408  36.449  33.255   4.111
45000W        W11409  26.330  10.070   1.932
45001W        W11410  24.365  13.560  11.242
45002W        W11411  11.014  14.340   3.972
45003W        W11412  17.819  26.506   2.886
45004W        W11413   8.398  20.533   4.389
45005W        W11414  23.662  12.060   2.689
45006W        W11415  24.196  14.899   1.338
45007W        W11416  11.667  27.595   0.287
45008W        W11417  31.677  13.824  11.169
45009W        W11418   8.121  23.339  14.256
45010W        W11419  19.569  36.943   4.709
45011W        W11420  29.303   8.261  10.214
45012W        W11421  22.154  41.065   1.228
45013W        W11422  27.568  23.939   2.131
45014W        W11423  20.662  10.861   1.909
45015W        W11424  19.685   6.074   3.809
45016W        W11425  28.193  15.644   0.865
45017W        W11426  38.297  32.302  13.792
45018W        W11427  14.306  37.780   1.356
45019W        W11428   3.340  41.317   3.679
45020W        W11429  43.398  24.018  13.511
45021W        W11430   3.787  17.631  13.969
45022W        W11431  35.981  22.402  14.882
45023W        W11432  23.704   9.519   2.822
45024W        W11433  17.648  33.106   3.549
45025W        W11434  25.456  10.676  11.135
45026W        W11435  29.885   3.249  11.030
45027W        W11436  12.456  22.580   1.453
45028W        W11437   9.049  27.111   4.558
45029W        W11438  19.219  41.052  13.881
45030W        W11439  10.360  10.334   1.835
45031W        W11440  39.598  31.453  11.411
45032W        W11441  28.213  40.759  14.305
45033W        W11442  20.260   3.389  11.519
45034W        W11443   8.873   5.330   2.762
45035W        W11444  35.575  24.089   0.452
45036W        W11445   8.392  38.768  12.041
45037W        W11446  40.300  11.518   0.295
45038W        W11447  17.205  43.031   0.761
45039W        W11448  14.632  40.777   4.244
45040W        W11449  26.073  16.356  12.856
45041W        W11450  18.339   9.174   0.952
45042W        W11451  34.004  23.680  13.320
45043W        W11452  40.844   9.018  10.168
45044W        W11453  18.428  31.970   2.680
45045W        W11454  20.308  26.912  12.476
45046W        W11455  22.865  19.628  10.287
45047W        W11456   1.306   9.719   1.932
45048W        W11457  28.758  32.058   1.663
45049W        W11458   5.375  42.830  14.347
45050W        W11459  16.581  28.173   3.928
45051W        W11460  39.381  19.745  14.825
45052W        W11461   7.953  39.253   1.685
45053W        W11462  11.074  15.364   0.771
45054W        W11463  23.217  27.088   2.551
45055W        W11464  21.359  12.347  12.867
45056W        W11465   3.222  31.194  14.412
45057W        W11466  32.625  28.641   0.577
45058W        W11467  36.389  42.474   4.138
45059W        W11468  21.271  36.588   3.637
45060W        W11469  26.179  34.478  13.083
45061W        W11470   0.710  15.066   3.870
45062W        W11471  12.575  14.051  13.494
45063W        W11472  17.831  11.802   1.651
45064W        W11473  11.253  43.441  10.115
45065W        W11474  44.822  21.823   1.737
45066W        W11475  14.752  29.085  12.492
45067W        W11476  34.157  23.391   5.028
45068W        W11477  12.124  39.700  12.953
45069W        W11478  27.859  31.841  11.994
45070W        W11479  14.424   4.648   0.341
45071W        W11480  29.670  32.069  14.878
45072W        W11481   8.797  18.230   3.216
45073W        W11482  32.314  11.439   2.663
45074W        W11483  37.508   4.738  10.336
45075W        W11484  22.017  25.477  11.698
45076W        W11485  29.971  18.323  12.485
45077W        W11486   2.722  15.824  14.419
45078W        W11487  37.974   2.684   0.957
45079W        W11488  25.517  42.508  14.433
45080W        W11489  38.781  35.913   3.119
45081W        W11490   4.029  29.438  14.456
45082W        W11491   8.365  41.036  14.362
45083W        W11492  34.101  32.463  11.377
45084W        W11493  23.526   1.088   2.624
45085W        W11494  20.491  25.264  12.469
45086W        W11495  28.373   3.037   0.078
45087W        W11496   8.775  35.948   4.092
45088W        W11497  19.915   9.547   5.007
45089W        W11498  15.138  23.084   2.695
45090W        W11499  31.720  27.411  11.411
45091W        W11500   3.123  20.079   2.973
45092W        W11501  25.002   1.136   0.854
45093W        W11502  41.444  25.053   2.399
45094W        W11503   6.645  19.634   4.258
45095W        W11504  22.516  27.578  11.679
45096W        W11505  39.597  18.551   1.871
45097W        W11506  37.689  12.333  11.031
45098W        W11507  18.352  10.769  10.629
45099W        W11508  41.879  12.133  11.866
45100W        W11509   3.919  38.132  11.901
45101W        W11510  10.622  17.530   0.496
45102W        W11511   8.422  25.642   2.365
45103W        W11512  28.780  21.183   2.522
45104W        W11513   6.328  30.414   1.399
45105W        W11514  13.945   6.990   0.506
45106W        W11515   5.712  39.895  14.357
45107W        W11516  21.100  29.591  13.703
45108W        W11517  25.169  37.841   4.420
45109W        W11518  32.250  30.998   0.845
45110W        W11519  31.569  23.481   2.269
45111W        W11520   8.374  18.751   0.772
45112W        W11521  38.941  44.749  11.124
45113W        W11522  42.478  41.756  11.456
45114W        W11523  38.596  15.432   9.775
45115W        W11524   4.217  36.523  11.526
45116W        W11525  27.505  32.437   5.052
45117W        W11526  26.020  40.898   2.729
45118W        W11527  19.586  10.104   4.172
45119W        W11528  43.744   4.440  11.596
45120W        W11529  34.779  14.786   4.447
45121W        W11530  44.069   0.312  10.708
45122W        W11531  38.376  29.436   2.162
45123W        W11532  15.027  15.765  14.045
45124W        W11533   9.908  26.617  10.440
45125W        W11534  27.762  31.606   3.560
45126W        W11535  12.187  32.029  12.521
45127W        W11536  29.708  16.790   2.811
45128W        W11537  12.644  22.425  12.329
45129W        W11538  21.188   7.334   4.137
45130W        W11539  23.328   6.151  14.320
45131W        W11540  10.230  39.502   2.786
45132W        W11541  15.546  34.976   4.570
45133W        W11542   1.861  43.934   0.736
45134W        W11543   6.844  25.970   0.804
45135W        W11544   4.659   0.148  14.519
45136W        W11545   7.373  19.110  13.329
45137W        W11546  32.074  10.192  12.973
45138W        W11547  34.835  33.329  11.590
45139W        W11548   1.860   8.147  10.652
45140W        W11549   1.356  38.398  14.999
45141W        W11550  28.222  16.140  11.407
45142W        W11551  32.088  44.566  12.566
45143W        W11552  28.929  41.384   1.708
45144W        W11553  30.426  37.496  13.913
45145W        W11554  13.907  20.590  12.538
45146W        W11555   6.330   9.719  13.614
45147W        W11556   3.931  41.352  12.564
45148W        W11557  35.955  42.728   4.082
45149W        W11558   2.377  29.028   0.860
45150W        W11559  20.632  14.780   1.843
45151W        W11560  30.710  29.466  11.156
45152W        W11561   3.463  10.916  10.670
45153W        W11562  16.989  30.579   3.189
45154W        W11563  34.221  10.740   2.101
45155W        W11564  44.689  10.899  13.619
45156W        W11565  40.839  17.837   0.574
45157W        W11566   1.971  19.125   0.908
45158W        W11567  27.009  31.886  14.693
45159W        W11568  43.468  12.099   3.769
45160W        W11569  38.917   1.842  11.171
45161W        W11570   8.188  38.020  12.405
45162W        W11571  11.109  15.234   3.732
45163W        W11572  41.302  29.931   1.137
45164W        W11573  25.868  41.410  14.537
45165W        W11574  28.943   4.478   2.122
45166W        W11575  20.831  43.947  10.615
45167W        W11576  14.150  10.800   4.418
45168W        W11577  27.839  41.736   2.659
45169W        W11578   5.220  30.452  13.479
45170W        W11579  27.641  16.944  14.039
45171W        W11580   6.133  12.920  14.136
45172W        W11581  40.089  39.260  11.389
45173W        W11582  44.819  29.395  14.833
45174W        W11583  30.094  24.662   4.275
45175W        W11584  42.906   2.906   1.138
45176W        W11585  24.492  43.925  13.521
45177W        W11586   4.285  43.754  11.515
45178W        W11587   2.330  26.302   5.045
45179W        W11588  42.924  15.371   0.446
45180W        W11589  17.345  20.661  14.357
45181W        W11590  19.748  16.625  13.506
45182W        W11591   2.369  22.993   2.296
45183W        W11592  42.714  23.018   1.424
45184W        W11593  38.222  29.710  10.353
45185W        W11594  18.529  23.475  11.204
45186W        W11595  19.668  27.261  11.621
45187W        W11596  27.111  42.057  12.993
45188W        W11597  44.733  43.438   4.107
45189W        W11598  23.928  19.842  12.275
45190W        W11599  35.917  12.377  14.559
45191W        W11600  34.394   8.859  12.137
45192W        W11601  19.681  21.887  12.512
45193W        W11602  31.729  16.880  14.973
45194W        W11603  17.294  21.665   2.902
45195W        W11604  40.263  31.185   4.754
45196W        W11605  43.902  12.757   2.891
45197W        W11606  35.169  30.105   2.663
45198W        W11607  17.983   7.909  10.755
45199W        W11608  31.432  17.675  11.381
45200W        W11609  30.621   5.914   2.318
45201W        W11610  26.084   4.448   2.851
45202W        W11611  31.109  11.369  10.630
45203W        W11612   2.479  11.382   2.809
45204W        W11613  17.851  37.470  10.928
45205W        W11614   3.394  39.563  14.974
45206W        W11615  43.428  22.531   0.957
45207W        W11616  32.160  15.899  14.245
45208W        W11617  27.204  20.057   1.886
45209W        W11618   8.331  42.382   4.081
45210W        W11619  31.844   4.400   1.914
45211W        W11620  26.543  16.395  12.662
45212W        W11621  41.851   2.716  12.035
45213W        W11622   7.727  25.189   2.211
45214W        W11623   9.229  22.024   3.530
45215W        W11624   0.103  32.061  11.382
45216W        W11625  27.962   5.885  10.105
45217W        W11626  29.630   1.555  13.229
45218W        W11627  15.907  19.808   1.633
45219W        W11628  32.422  29.128  11.116
45220W        W11629   8.865   6.277  14.111
45221W        W11630  15.237  12.536   4.121
45222W        W11631  42.554  16.855   9.808
45223W        W11632  29.725  27.143   3.181
45224W        W11633  13.173  27.678   3.864
45225W        W11634   4.125  33.811   4.805
45226W        W11635   2.995  25.331   4.066
45227W        W11636  16.812  30.129   3.431
45228W        W11637  15.349  36.333   0.936
45229W        W11638  26.260  30.788  12.442
45230W        W11639  12.574  15.210  12.494
45231W        W11640  32.481   4.960   3.082
45232W        W11641  36.549  16.654  12.440
45233W        W11642  20.768  32.394   0.546
45234W        W11643   4.797   7.436  11.946
45235W        W11644   9.653  34.864  12.532
45236W        W11645  24.118  17.965   0.472
45237W        W11646  13.657  42.231   1.877
45238W        W11647  39.423  11.645   0.311
45239W        W11648  33.927  13.623  13.602
45240W        W11649  22.340  30.729   2.835
45241W        W11650  40.713  26.501   0.163
45242W        W11651  32.682  31.711  11.417
45243W        W11652   9.387  30.998  11.604
45244W        W11653  33.199  31.409  10.713
45245W        W11654  22.042   0.902   2.333
45246W        W11655  34.622  27.859  14.913
45247W        W11656  15.165  40.064  12.479
45248W        W11657   1.810  32.891   1.341
45249W        W11658   4.468  43.310  11.248
45250W        W11659   3.380  37.426  12.172
45251W        W11660  36.308  38.289  10.797
45252W        W11661  42.021  32.299  14.097
45253W        W11662  17.559   1.799   0.713
45254W        W11663   5.563  28.157   0.983
45255W        W11664  39.653  42.443   0.209
45256W        W11665  19.686  32.400  10.612
45257W        W11666  43.540  29.072  13.021
45258W        W11667   7.233  15.380   0.159
45259W        W11668  20.171  40.534  13.915
45260W        W11669   5.942  10.196  14.323
45261W        W11670  41.403  40.394   2.192
45262W        W11671  21.729  40.381  11.660
45263W        W11672   3.942  43.220   2.496
45264W        W11673  20.580  19.753  12.994
45265W        W11674   2.908  40.925  11.296
45266W        W11675  13.095   2.107   5.012
45267W        W11676  31.243  13.732  11.440
45268W        W11677  26.358  37.886  10.543
45269W        W11678  22.038  35.631  12.532
45270W        W11679  11.545  34.539   4.822
45271W        W11680  24.547  32.011   2.881
45272W        W11681  17.361   5.095  14.926
45273W        W11682  39.389   5.679   0.404
45274W        W11683  10.451   4.827   5.103
45275W        W11684   4.362  29.068   4.176
45276W        W11685  10.878  18.751  12.092
45277W        W11686   2.495   4.116  12.898
45278W        W11687  30.217  43.853   0.902
45279W        W11688   1.745  35.807   3.116
45280W        W11689   6.921  30.731  10.645
45281W        W11690  44.465  17.816   1.442
45282W        W11691  35.597  41.906  11.615
45283W        W11692  42.528   8.228  14.755
45284W        W11693  16.027  43.954  10.449
45285W        W11694  14.417  23.068   3.759
45286W        W11695  33.067  32.056   3.748
45287W        W11696  16.572  12.568  13.103
45288W        W11697  23.120   1.302  14.417
45289W        W11698  11.769  39.890  11.996
45290W        W11699  37.839  20.091   4.683
45291W        W11700  42.499  28.572  12.588
45292W        W11701  22.474  22.456  10.806
45293W        W11702  36.541  42.694  13.085
45294W        W11703   6.755   1.763   0.017
45295W        W11704  15.779  32.272   1.454
45296W        W11705  16.118  42.965  10.901
45297W        W11706  40.412  21.541   1.815
45298W        W11707   3.733  33.918  12.439
45299W        W11708  27.033  42.493   4.079
45300W        W11709  17.655   7.055  11.140
45301W        W11710  18.140  12.689   4.072
45302W        W11711  25.147  21.014  13.409
45303W        W11712  20.688  15.304  11.735
45304W        W11713  28.184  13.682  12.814
45305W        W11714  39.890   2.004   0.365
45306W        W11715   7.851  15.826   1.742
45307W        W11716  16.095  14.184   0.831
45308W        W11717  37.697   4.350  13.479
45309W        W11718  22.450  11.412   1.427
45310W        W11719  19.526   8.892   2.195
45311W        W11720  44.222  33.993  11.213
45312W        W11721  44.461  23.761  14.444
45313W        W11722  27.549   9.182  12.509
45314W        W11723  10.891  10.730   3.294
45315W        W11724  24.410  27.060   3.395
45316W        W11725  25.946  17.061   2.483
45317W        W11726  15.082  32.548  14.929
45318W        W11727  30.474  19.156  14.336
45319W        W11728   4.379  41.324  12.880
45320W        W11729   9.460  26.199  14.870
45321W        W11730  18.728  27.029   2.286
45322W        W11731   0.753  10.573   4.988
45323W        W11732  40.343  28.699  12.191
45324W        W11733  35.123  13.078   1.260
45325W        W11734   7.519  21.598   4.122
45326W        W11735   2.794  13.825  14.329
45327W        W11736  18.689  27.483  13.191
45328W        W11737   0.281  33.275  13.850
45329W        W11738  38.452  35.438   2.244
45330W        W11739  16.789   2.883   2.315
45331W        W11740  28.502  14.768  12.965
45332W        W11741   8.761  15.616  12.572
45333W        W11742   9.796  20.322  12.338
45334W        W11743  39.757   3.280   2.319
45335W        W11744  38.955  38.594  10.613
45336W        W11745   2.747   2.273  13.491
45337W        W11746  30.056  28.437  13.980
45338W        W11747  44.194  36.293   1.035
45339W        W11748  29.457  16.665  12.826
45340W        W11749   5.525  24.266   3.425
45341W        W11750  42.936  33.995  10.571
45342W        W11751  18.590  22.971  11.228
45343W        W11752  35.872   4.369  14.907
45344W        W11753  17.693  29.921  10.692
45345W        W11754  42.461  16.868   5.030
45346W        W11755  36.661  23.770  13.026
45347W        W11756  28.220   6.591   2.508
45348W        W11757  10.649  37.002  10.743
45349W        W11758  21.792   9.485   4.423
45350W        W11759  42.486  30.484  12.942
45351W        W11760  16.161   7.420  14.414
45352W        W11761  42.945   1.781   2.621
45353W        W11762  36.805  13.662   1.984
45354W        W11763  19.395  38.747   2.202
45355W        W11764  38.413  17.240   1.328
45356W        W11765  15.107  32.107   3.236
45357W        W11766  15.118  21.199  14.336
45358W        W11767  38.987   2.690  12.961
45359W        W11768  38.846  15.088   4.227
45360W        W11769   3.044  40.892  11.782
45361W        W11770  44.298   1.122   0.814
45362W        W11771  30.479  12.892   4.897
45363W        W11772  26.116  26.980   2.813
45364W        W11773   1.865   5.244  13.027
45365W        W11774  21.229   3.165   1.947
45366W        W11775   3.284  43.398   4.174
45367W        W11776  38.067   2.164   0.171
45368W        W11777  20.304  41.495   4.040
45369W        W11778  28.711  13.700   3.636
45370W        W11779  12.113  37.468  11.565
45371W        W11780  26.555  40.457   0.462
45372W        W11781  15.616  14.013   0.719
45373W        W11782  21.741   2.195   2.900
45374W        W11783  43.805  31.209   2.226
45375W        W11784  22.527  15.869  10.613
45376W        W11785  29.552  33.184   4.084
45377W        W11786   6.375   8.263   1.341
45378W        W11787  26.459  23.896   1.832
45379W        W11788  35.298  19.573  14.533
45380W        W11789  33.400  38.655   2.279
45381W        W11790  26.749  29.889   4.032
45382W        W11791  40.328  17.327  14.301
45383W        W11792  30.664  13.690   3.371
45384W        W11793  24.857  12.228  13.411
45385W        W11794   2.423  19.352   0.819
45386W        W11795  25.850  33.661  11.668
45387W        W11796  44.421   8.207  12.373
45388W        W11797  43.327  19.510  10.649
45389W        W11798  16.232   4.281   4.343
45390W        W11799  13.591  12.183   3.197
45391W        W11800   3.367  25.557   1.916
45392W        W11801  43.295   8.474  11.575
45393W        W11802  26.180  40.991  12.123
45394W        W11803  32.366  32.149   2.699
45395W        W11804  31.660   3.378  14.358
45396W        W11805  35.628   9.431  12.487
45397W        W11806  42.335   2.430   1.646
45398W        W11807  40.887  13.491   3.216
45399W        W11808  18.685  26.245   4.609
45400W        W11809  13.643  37.335   2.543
45401W        W11810  28.169  16.749   5.246
45402W        W11811  13.808  25.637   1.578
45403W        W11812  18.676  22.079   3.646
45404W        W11813   4.582  30.136  13.921
45405W        W11814   6.690  22.981  13.067
45406W        W11815   5.992  23.098  11.658
45407W        W11816  25.464   8.130   1.374
45408W        W11817  22.274  22.907  12.975
45409W        W11818  43.253  25.567   3.822
45410W        W11819  44.259  15.116  12.516
45411W        W11820  23.589   3.174  12.117
45412W        W11821  44.796  11.202   1.363
45413W        W11822  20.252  42.301  12.382
45414W        W11823  20.430  31.545   3.696
45415W        W11824   8.745   1.647   1.178
45416W        W11825  19.687  23.574   4.945
45417W        W11826   9.929   0.626  14.050
45418W        W11827  41.156   1.334   0.885
45419W        W11828  29.837  19.682  13.707
45420W        W11829  42.758   7.752   4.498
45421W        W11830  36.471  40.698   3.554
45422W        W11831  43.240   7.281  10.320
45423W        W11832  21.000   0.824  11.767
45424W        W11833  26.346  33.825   5.097
45425W        W11834  14.988  22.062   0.204
45426W        W11835   0.739   8.367  14.290
45427W        W11836  21.557   8.239  12.674
45428W        W11837  36.779  14.300   4.276
45429W        W11838  32.845   6.595   5.409
45430W        W11839   4.667  40.959  10.660
45431W        W11840  23.013  43.046  11.524
45432W        W11841  44.550   9.247  13.533
45433W        W11842  26.095  30.515  10.714
45434W        W11843  19.609  19.802   0.793
45435W        W11844  30.384   0.338   4.643
45436W        W11845  36.564  42.733   2.415
45437W        W11846  23.131  34.118   4.152
45438W        W11847  44.477  20.180   2.277
45439W        W11848   4.938  35.596   4.270
45440W        W11849  15.600  19.772   2.442
45441W        W11850  29.767  31.403  11.531
45442W        W11851  28.013  20.210  12.602
45443W        W11852   7.946  44.512  14.339
45444W        W11853  40.949  19.271   3.031
45445W        W11854  35.361  23.863  11.899
45446W        W11855  37.207  17.543   1.431
45447W        W11856  40.273  22.203  12.577
45448W        W11857  36.871  44.002   2.085
45449W        W11858  12.387  36.371   2.918
45450W        W11859   8.296  15.955  13.554
45451W        W11860  40.337   1.162  14.396
45452W        W11861  41.379  36.124  14.824
45453W        W11862   5.682  23.189   0.964
45454W        W11863   7.891  36.691   3.913
45455W        W11864  29.995  39.314  10.753
45456W        W11865  27.076  13.387  12.503
45457W        W11866  21.407  43.430   1.460
45458W        W11867   0.196  30.127  13.561
45459W        W11868  41.313  33.857  11.652
45460W        W11869  44.106  38.449   4.238
45461W        W11870   4.857   4.255   4.802
45462W        W11871  41.024  16.949  10.754
45463W        W11872  21.528  41.009  14.031
45464W        W11873   7.295  19.526   2.262
45465W        W11874  27.967   4.166   1.693
45466W        W11875  20.712  28.056   3.744
45467W        W11876  44.383  29.564  13.373
45468W        W11877  13.721  33.500  11.884
45469W        W11878  29.966  36.269  11.506
45470W        W11879  17.171  35.354  10.580
45471W        W11880   5.554   5.856   4.571
45472W        W11881   0.487  28.618  12.636
45473W        W11882  43.563  33.360   4.213
45474W        W11883   0.817   4.152   0.808
45475W        W11884   5.745  17.136   2.722
45476W        W11885  23.521  25.141   1.192
45477W        W11886   9.896  12.568  12.839
45478W        W11887  34.495   1.715  11.998
45479W        W11888  14.296   8.640   3.976
45480W        W11889  39.502  26.256  13.021
45481W        W11890  15.327   9.285  13.647
45482W        W11891  42.112  20.151  10.595
45483W        W11892  10.440  39.564  14.308
45484W        W11893  27.105  36.766   0.028
45485W        W11894   9.364  40.338   1.250
45486W        W11895  21.483  37.848  14.782
45487W        W11896   0.804  12.968   1.130
45488W        W11897  35.536  33.157   1.853
45489W        W11898  16.064   0.974  11.896
45490W        W11899  34.163  34.132  10.519
45491W        W11900  17.335  16.156  14.857
45492W        W11901  18.081   2.818  14.403
45493W        W11902  19.280  43.538  10.870
45494W        W11903  44.506  26.350  14.714
45495W        W11904  19.660   9.649  14.460
45496W        W11905  30.697  41.749  12.022
45497W        W11906  18.296  13.123   1.197
45498W        W11907  42.099  42.110   0.249
45499W        W11908  32.075  15.345   4.994
45500W        W11909  10.262  43.164  10.540
45501W        W11910  37.014  34.557   3.809
45502W        W11911  23.722  39.556   1.997
45503W        W11912  23.739  37.956   0.959
45504W        W11913  11.575  25.127   1.855
45505W        W11914  13.837  25.598   3.348
45506W        W11915  34.244  41.344  14.976
45507W        W11916  40.064  36.908   2.305
45508W        W11917  35.033   6.418   2.823
45509W        W11918   8.187   0.673  13.504
45510W        W11919  20.066  28.705   1.094
45511W        W11920   2.422  20.298  12.967
45512W        W11921   8.127  38.841  13.741
45513W        W11922   5.500  41.476  13.843
45514W        W11923  40.915   6.208   1.202
45515W        W11924  30.071   4.019  12.786
45516W        W11925  17.957  26.521   4.937
45517W        W11926  18.796  25.528   0.271
45518W        W11927   4.873  19.059  10.388
45519W        W11928  29.922  23.573  11.096
45520W        W11929  32.202  25.661  12.588
45521W        W11930   6.995  42.928  14.964
45522W        W11931  29.984  30.483   3.051
45523W        W11932  17.175   4.873   1.330
45524W        W11933  36.680  35.798   3.133
45525W        W11934  16.292  42.122   3.372
45526W        W11935   9.849  19.054   1.902
45527W        W11936  16.368  44.397  11.200
45528W        W11937  41.642  30.895  10.719
45529W        W11938  28.856   1.322   4.348
45530W        W11939   4.131   6.943  12.158
45531W        W11940  32.635  12.609  11.510
45532W        W11941   3.608   3.852  11.660
45533W        W11942  30.958  31.729  11.172
45534W        W11943  17.032   6.891  14.522
45535W        W11944  19.678  26.481  12.283
45536W        W11945   2.407  10.254   0.901
45537W        W11946  43.866  23.306   0.077
45538W        W11947  42.813   3.717   0.355
45539W        W11948  20.549   6.729   3.735
45540W        W11949  14.483  36.436  10.313
45541W        W11950  23.481  11.797   0.824
45542W        W11951  43.308  33.829   3.677
45543W        W11952  22.446  21.709   3.056
45544W        W11953   6.506  34.436  11.576
45545W        W11954  42.492  14.615   3.378
45546W        W11955  43.424  21.555   1.824
45547W        W11956  38.340  42.565  14.761
45548W        W11957  17.031  36.039  11.959
45549W        W11958  30.781   2.335   5.331
45550W        W11959  29.500  16.463   4.328
45551W        W11960  34.950  40.166  12.682
45552W        W11961  21.032   9.197   4.685
45553W        W11962  30.570  14.165   3.556
45554W        W11963   1.946  24.490   0.422
45555W        W11964  40.159  15.744  13.124
45556W        W11965  34.415  37.399   0.405
45557W        W11966  36.326  10.385  11.957
45558W        W11967  28.774   0.955   1.145
45559W        W11968  39.323  23.930   2.744
45560W        W11969  37.101  25.564  12.992
45561W        W11970   0.280  20.893  14.066
45562W        W11971  41.964  28.456  11.682
45563W        W11972   2.072   6.981  11.471
45564W        W11973  35.097  42.611  12.017
45565W        W11974  27.890  42.931  13.630
45566W        W11975  11.433  27.646   3.147
45567W        W11976  20.811  20.175   3.915
45568W        W11977   3.969  12.705  11.354
45569W        W11978   3.494   9.305  11.892
45570W        W11979   3.716  40.840  11.862
45571W        W11980  37.570  11.750   1.944
45572W        W11981  32.608  33.998   4.321
45573W        W11982  18.756   9.975  12.989
45574W        W11983   3.652  30.967  14.226
45575W        W11984  21.326   6.822   4.178
45576W        W11985   9.765   1.553   1.967
45577W        W11986   0.960  10.233   2.779
45578W        W11987  34.264  25.211   4.665
45579W        W11988  35.019  33.431   4.350
45580W        W11989  23.660  23.209  14.576
45581W        W11990  10.193  18.828  14.693
45582W        W11991  38.045   0.339  10.938
45583W        W11992   4.241  15.706  11.658
45584W        W11993  21.602  37.444  13.820
45585W        W11994   0.385  33.696   3.407
45586W        W11995   5.762   1.436   3.829
45587W        W11996   3.677  29.038   1.771
45588W        W11997  22.939   7.733   0.268
45589W        W11998  14.373  42.603   3.638
45590W        W11999  29.408  34.373   1.801
45591W        W12000  15.305   1.299  14.974
45592W        W12001  19.410  37.310  12.395
45593W        W12002   2.825  28.566  10.660
45594W        W12003  43.864  44.169  11.453
45595W        W12004  29.952  28.321   0.919
45596W        W12005  13.703  19.356   2.267
45597W        W12006  15.991  32.584  13.194
45598W        W12007  42.111   4.114   1.028
45599W        W12008   6.495  31.573  13.965
45600W        W12009  14.784  43.249   1.819
45601W        W12010   4.379  11.413  11.519
45602W        W12011  36.030  21.259  11.549
45603W        W12012  43.510   5.552   4.132
45604W        W12013  17.686  34.953  10.686
45605W        W12014  43.503  25.462  13.013
45606W        W12015  30.347  13.114   1.764
45607W        W12016  38.499  24.820   1.162
45608W        W12017   3.921  28.544  10.777
45609W        W12018  40.740  24.124   4.478
45610W        W12019  16.194   2.955  14.074
45611W        W12020  38.753  34.220   4.173
45612W        W12021  15.462  42.161   4.840
45613W        W12022   2.401  23.966   1.141
45614W        W12023   9.853   9.220  14.952
45615W        W12024   9.425   4.164   2.314
45616W        W12025   7.474  22.908  11.496
45617W        W12026  14.547  19.528  10.663
45618W        W12027  29.977   2.469   3.566
45619W        W12028  38.841  24.038  12.886
45620W        W12029  43.982  35.484  13.906
45621W        W12030  36.540  20.529  13.425
45622W        W12031  18.312  16.435  12.519
45623W        W12032   9.432  17.082   0.045
45624W        W12033  24.708  35.024   0.542
45625W        W12034  22.602  22.644  13.804
45626W        W12035   6.430  39.989  14.146
45627W        W12036  29.164  32.789  13.608
45628W        W12037  10.315  26.722  11.095
45629W        W12038  19.727  14.767   3.898
45630W        W12039  26.456  19.669   4.662
45631W        W12040   7.620   4.732  13.092
45632W        W12041  44.001   7.893  14.979
45633W        W12042  17.345  10.415   2.274
45634W        W12043  22.070  32.640   0.868
45635W        W12044   2.540  14.423   0.879
45636W        W12045  44.690  37.468   0.935
45637W        W12046  42.983   4.490   3.803
45638W        W12047  43.469  13.358   4.155
45639W        W12048  12.307  14.361  11.508
45640W        W12049  29.064  20.490  14.408
45641W        W12050  35.094  22.029  13.001
45642W        W12051  10.260  42.903  14.498
45643W        W12052  14.750  40.853  13.569
45644W        W12053  15.252   2.451   2.698
45645W        W12054   3.741  26.437   1.694
45646W        W12055   7.171  41.796   1.391
45647W        W12056  26.777  33.967  10.743
45648W        W12057  35.967  11.456   0.186
45649W        W12058   6.191  15.637  10.739
45650W        W12059  32.051  36.033  14.794
45651W        W12060   5.644  10.855   0.900
45652W        W12061  15.776  30.994   1.110
45653W        W12062  15.112  30.991  14.585
45654W        W12063  17.071  22.841   3.859
45655W        W12064  33.573  39.482  10.529
45656W        W12065   8.621  24.535  13.004
45657W        W12066  34.291  42.744  14.878
45658W        W12067  37.816  43.507  10.789
45659W        W12068  31.900   4.314  14.022
45660W        W12069  16.173  33.061  13.012
45661W        W12070  18.204  11.375  11.298
45662W        W12071   1.832  23.646   1.394
45663W        W12072  25.106   1.652  13.559
45664W        W12073  24.766  27.806  14.598
45665W        W12074  44.762  37.034   0.683
45666W        W12075  12.729  37.633   3.642
45667W        W12076  12.249   2.020   4.984
45668W        W12077  31.049  44.329  11.319
45669W        W12078  12.318  11.774   3.394
45670W        W12079   1.869  38.873   3.348
45671W        W12080   2.928   5.686  12.995
45672W        W12081  31.072  12.705   3.154
45673W        W12082  37.360  19.299  12.395
45674W        W12083  42.279  33.195   0.862
45675W        W12084  20.211  42.181   3.183
45676W        W12085  13.684  11.870   0.302
45677W        W12086  21.070  32.038  14.738
45678W        W12087  36.895  15.803  10.423
45679W        W12088  12.133  24.266   1.393
45680W        W12089  41.849  40.130  11.098
45681W        W12090  33.698  35.422   1.445
45682W        W12091  30.103   2.234   0.522
45683W        W12092  23.317  42.476  12.332
45684W        W12093  39.057  27.467  10.632
45685W        W12094  25.193  17.175   1.428
45686W        W12095   7.857  41.012  14.298
45687W        W12096  23.540  38.376  13.833
45688W        W12097  36.011  28.700   2.589
45689W        W12098  30.331  22.804   0.837
45690W        W12099   2.357  16.633   0.382
45691W        W12100  26.408  23.723  13.316
45692W        W12101  42.022  14.340  10.855
45693W        W12102   1.276  14.167  11.680
45694W        W12103  34.424  30.910   0.926
45695W        W12104   0.489  39.964  14.746
45696W        W12105   0.342   9.032   4.041
45697W        W12106  10.329  19.226  12.622
45698W        W12107   1.135  41.601   3.402
45699W        W12108  44.748  26.232   0.796
45700W        W12109  17.160  21.011  13.080
45701W        W12110  31.062   8.137  11.000
45702W        W12111  42.307  16.834   0.073
45703W        W12112  15.287  39.116   0.760
45704W        W12113  30.578  26.103  14.416
45705W        W12114  35.678  30.880   3.123
45706W        W12115  16.467  24.632   1.242
45707W        W12116   4.334  20.441  11.594
45708W        W12117  10.865  38.980  13.024
45709W        W12118  24.768  20.256   0.682
45710W        W12119  31.819  27.172  14.480
45711W        W12120   5.181   8.307  11.297
45712W        W12121  37.787  37.606  13.075
45713W        W12122  27.443   7.070   1.777
45714W        W12123  41.781  38.375  11.210
45715W        W12124  36.970  41.884  12.103
45716W        W12125  42.375   4.769  10.132
45717W        W12126  14.496  20.539   0.296
45718W        W12127   2.315  35.311   3.778
45719W        W12128  29.521  12.654  13.098
45720W        W12129  34.155  32.873  14.903
45721W        W12130   6.423   1.290   0.921
45722W        W12131   4.419  26.866  14.283
45723W        W12132  24.728  42.865  12.599
45724W        W12133  32.863  13.307  13.082
45725W        W12134  23.459  19.191  14.446
45726W        W12135  44.455  17.302   2.833
45727W        W12136   8.043  41.556  11.646
45728W        W12137   3.018  37.409   4.507
45729W        W12138  40.961  43.234  10.976
45730W        W12139  44.377   5.289   1.335
45731W        W12140   3.547  37.362   4.583
45732W        W12141  32.454  16.277  14.460
45733W        W12142  24.673  11.369   0.545
45734W        W12143  37.332  42.083  11.167
45735W        W12144  36.037   2.772  13.975
45736W        W12145  39.361   9.882  11.082
45737W        W12146  30.042  34.989   1.945
45738W        W12147   4.080  44.273  12.058
45739W        W12148  15.785  12.391   4.563
45740W        W12149  17.226  15.023   1.875
45741W        W12150  40.999   0.246  11.421
45742W        W12151  24.035  21.294  12.213
45743W        W12152  11.501   3.045   4.688
45744W        W12153  24.445  10.893   3.685
45745W        W12154  43.534  23.670   0.284
45746W        W12155   2.082  11.305  14.559
45747W        W12156  21.237  29.880  11.675
45748W        W12157  33.235  19.684  10.288
45749W        W12158  17.058  14.052  10.721
45750W        W12159  16.247  27.243  14.928
45751W        W12160  27.711  29.619  12.675
45752W        W12161  10.873  17.046   2.269
45753W        W12162   6.410  12.120  13.397
45754W        W12163  27.566   9.152  13.842
45755W        W12164  15.531  19.290   2.234
45756W        W12165  42.758  20.593  12.143
45757W        W12166  32.369  11.783  11.273
45758W        W12167  36.383   0.409  13.392
45759W        W12168  19.743   7.152   2.675
45760W        W12169  28.376  41.775  12.034
45761W        W12170  20.667   1.513   3.306
45762W        W12171  34.680  32.007  11.935
45763W        W12172  16.325  36.339  14.774
45764W        W12173  24.122  36.888   4.116
45765W        W12174  15.627  39.908  11.923
45766W        W12175   7.385  16.054   4.556
45767W        W12176  23.956  22.188  12.172
45768W        W12177   6.887  35.778   2.188
45769W        W12178  11.666  34.496   2.264
45770W        W12179  22.844  13.602  11.046
45771W        W12180   8.834  40.919   1.866
45772W        W12181  44.999  31.957  12.871
45773W        W12182  40.022  28.032   4.332
45774W        W12183  27.533  35.278   4.717
45775W        W12184  14.587  34.061   1.354
45776W        W12185  27.641   9.869   4.212
45777W        W12186  43.633  12.333   4.689
45778W        W12187  12.421  18.633  11.077
45779W        W12188  27.419   5.671  14.642
45780W        W12189  32.072  44.477  10.638
45781W        W12190  20.219  39.567   1.136
45782W        W12191  31.064  17.511   0.397
45783W        W12192  36.237  19.031   4.118
45784W        W12193  34.852  18.256  11.580
45785W        W12194   9.887  20.169  14.190
45786W        W12195  11.730  22.280  13.954
45787W        W12196  16.573  16.667   4.950
45788W        W12197   4.201  12.293   3.062
45789W        W12198  19.342  11.563   0.683
45790W        W12199  19.006  13.124   0.259
45791W        W12200  18.259  42.807  13.275
45792W        W12201  16.524  41.340   2.443
45793W        W12202  22.076  31.189  13.381
45794W        W12203  13.664  37.711   3.465
45795W        W12204  30.955  41.018   2.858
45796W        W12205  14.748  25.229  12.469
45797W        W12206   8.151  39.881  12.561
45798W        W12207  10.209  40.988   4.117
45799W        W12208   2.230  42.825  12.615
45800W        W12209  17.357  14.780  12.364
45801W        W12210  41.754  22.604   4.155
45802W        W12211  22.015  13.193   2.319
45803W        W12212  27.199   5.863   3.214
45804W        W12213  33.852   0.539  11.902
45805W        W12214  28.246  18.334   2.231
45806W        W12215  42.388  21.275  14.407
45807W        W12216  15.075   4.400   1.897
45808W        W12217  32.027   0.037   1.637
45809W        W12218  10.344  40.389   1.839
45810W        W12219  40.968   1.064  10.870
45811W        W12220  14.208  44.709  13.847
45812W        W12221  15.420  23.842  10.818
45813W        W12222  44.589  10.552   3.049
45814W        W12223  23.121  37.392  11.627
45815W        W12224  12.061   6.815  13.985
45816W        W12225  32.237  39.775   3.929
45817W        W12226  22.244  28.087   0.233
45818W        W12227  21.126  31.521  13.290
45819W        W12228   2.463   7.112  12.988
45820W        W12229  12.138  20.373  10.227
45821W        W12230  19.754  11.321   0.958
45822W        W12231  14.730  21.745  14.824
45823W        W12232  21.268  24.986   1.875
45824W        W12233   2.899  36.994  11.365
45825W        W12234  38.068  16.693  14.731
45826W        W12235  23.274   5.543  11.226
45827W        W12236  35.442  40.439   4.880
45828W        W12237   7.619  19.632   1.104
45829W        W12238  37.626  34.846   0.909
45830W        W12239  20.116  35.459   0.007
45831W        W12240   4.327  42.067  11.458
45832W        W12241  19.045  21.543  11.999
45833W        W12242  16.237  30.191  12.506
45834W        W12243   0.953  43.804   0.613
45835W        W12244  27.649  22.684   3.957
45836W        W12245  36.465  17.258   1.384
45837W        W12246  41.980  10.147   2.308
45838W        W12247  28.203  27.092   0.913
45839W        W12248  42.513  33.008   4.501
45840W        W12249  36.507  38.804  10.730
45841W        W12250   0.652  26.653   1.085
45842W        W12251  32.126  17.169   4.744
45843W        W12252  29.634  33.993   0.901
45844W        W12253  22.484  43.009  12.432
45845W        W12254  26.741  27.376   0.935
45846W        W12255  28.726  20.080   1.348
45847W        W12256   4.032  21.321  12.432
45848W        W12257  12.367  39.646   3.745
45849W        W12258  30.324   9.922   5.172
45850W        W12259  25.467  19.560  12.376
45851W        W12260  37.401  25.353  12.326
45852W        W12261   4.849  34.107   1.411
45853W        W12262  26.328  32.710   2.243
45854W        W12263  39.162  14.348  10.260
45855W        W12264  12.970  16.073  10.546
45856W        W12265   3.857  24.549   1.212
45857W        W12266   2.893  31.654  14.942
45858W        W12267  40.466  20.143   1.311
45859W        W12268  12.560   2.379  13.956
45860W        W12269  10.140  20.986  14.190
45861W        W12270  25.337  13.000  11.247
45862W        W12271  23.847  19.252  12.058
45863W        W12272   4.480   2.724   0.906
45864W        W12273  11.249  42.904  10.753
45865W        W12274  27.358  31.836  13.584
45866W        W12275  13.117  30.215  14.203
45867W        W12276  44.030  42.427  13.031
45868W        W12277  10.614   7.774  12.193
45869W        W12278  28.945  44.432   0.075
45870W        W12279  19.025  30.368   4.330
45871W        W12280  35.516   9.156   0.909
45872W        W12281  12.269  26.496  11.121
45873W        W12282  41.821  30.941  12.485
45874W        W12283  13.168  43.519  10.641
45875W        W12284   0.964  30.992  14.872
45876W        W12285  43.310  41.113  13.836
45877W        W12286  20.056  43.994  11.162
45878W        W12287  12.264  37.484   1.957
45879W        W12288  26.521  10.154  14.834
45880W        W12289  31.586  31.553  12.249
45881W        W12290  40.916  41.788   4.705
45882W        W12291   8.141  25.774   4.555
45883W        W12292  24.663  20.590  11.216
45884W        W12293   9.916  26.708   2.716
45885W        W12294  34.546  16.553   2.261
45886W        W12295  24.574  12.010   0.423
45887W        W12296  32.616  19.914   2.364
45888W        W12297  35.840   5.326  12.200
45889W        W12298  44.370  32.593   5.055
45890W        W12299  26.533  43.799   2.097
45891W        W12300  11.126  43.270   4.637
45892W        W12301  35.138  11.643   3.893
45893W        W12302   4.988  40.759   3.609
45894W        W12303  37.305  25.113  14.877
45895W        W12304  34.629  33.004  12.394
45896W        W12305  15.063   9.677  12.126
45897W        W12306  38.378  34.683  11.909
45898W        W12307   2.952  12.642  10.633
45899W        W12308   5.646   8.360  13.090
45900W        W12309  38.427  24.705  10.651
45901W        W12310  18.246  11.127  14.040
45902W        W12311  37.886   4.462   2.101
45903W        W12312  40.476  39.031  11.604
45904W        W12313   2.024  43.822  12.951
45905W        W12314  28.525   0.902  11.047
45906W        W12315   3.830  39.955   1.370
45907W        W12316  31.595  18.591  11.830
45908W        W12317  35.425   7.307   3.391
45909W        W12318   9.965  21.044   2.265
45910W        W12319  18.519   5.763   4.298
45911W        W12320  20.285  14.026  10.311
45912W        W12321  19.175  35.972   3.591
45913W        W12322  40.276  31.877  11.591
45914W        W12323   8.775  32.182  14.299
45915W        W12324  10.874  28.625  13.573
45916W        W12325  16.228  15.206   1.638
45917W        W12326   5.101  33.419  11.007
45918W        W12327  28.206  37.140   2.603
45919W        W12328  30.305   9.259  12.954
45920W        W12329  19.487  17.040  11.214
45921W        W12330  26.577   5.969  13.485
45922W        W12331  23.099  34.606   1.631
45923W        W12332  43.814  16.243   2.581
45924W        W12333   3.904  30.094   1.281
45925W        W12334  29.407  17.067  11.929
45926W        W12335   0.490   5.962  11.581
45927W        W12336  23.285  19.781   2.835
45928W        W12337  41.035  36.024   2.961
45929W        W12338  34.542  22.210  13.584
45930W        W12339  38.141   5.406  12.904
45931W        W12340  21.600  27.500   4.510
45932W        W12341  21.853  26.343   0.839
45933W        W12342  32.599  42.966  13.548
45934W        W12343  22.911  26.982   0.335
45935W        W12344  33.130  23.059  14.102
45936W        W12345  32.021  44.152  14.493
45937W        W12346  14.053  24.160  13.326
45938W        W12347   6.794  32.154  10.533
45939W        W12348  42.148  15.509   2.957
45940W        W12349  44.694  12.805   2.395
45941W        W12350  23.208  36.943   2.369
45942W        W12351  16.546  16.238   3.548
45943W        W12352  19.131  28.114   1.609
45944W        W12353   7.842  37.905   2.168
45945W        W12354  27.117  40.778   0.897
45946W        W12355   7.115  42.560  14.405
45947W        W12356  25.971  25.172   0.078
45948W        W12357  10.671  32.812  13.351
45949W        W12358  35.021  38.937   1.814
45950W        W12359  32.940  10.590   4.146
45951W        W12360   6.526  39.004  11.947
45952W        W12361  32.085  43.279   3.331
45953W        W12362  21.334  31.673   0.823
45954W        W12363  39.874  19.504  12.014
45955W        W12364  41.320  39.043   0.670
45956W        W12365   1.828  17.183  10.550
45957W        W12366  28.482  44.521  14.291
45958W        W12367   8.293   8.781   1.019
45959W        W12368  42.015  34.496   1.759
45960W        W12369   6.622   5.116   9.942
45961W        W12370   1.873  35.029   3.676
45962W        W12371  10.456   1.955  10.450
45963W        W12372  35.245  30.678   1.437
45964W        W12373   5.800  40.954   3.627
45965W        W12374  15.646  18.597  11.924
45966W        W12375  31.488  19.061  12.076
45967W        W12376   0.326   8.843   4.509
45968W        W12377  39.555  32.316   3.136
45969W        W12378  32.295  43.801   3.134
45970W        W12379  28.079  21.103   3.195
45971W        W12380   3.915  30.631  10.668
45972W        W12381  16.762  36.012  12.906
45973W        W12382   7.932  29.373   2.588
45974W        W12383  10.322  14.899  14.008
45975W        W12384  34.608   0.933   4.079
45976W        W12385   7.770  26.171  13.839
45977W        W12386  14.372  37.336  13.890
45978W        W12387  37.662   4.803  10.845
45979W        W12388  27.565  44.362  14.513
45980W        W12389   5.498  30.408   0.921
45981W        W12390   9.081  31.486  13.051
45982W        W12391   2.318  32.558   0.258
45983W        W12392  44.909   5.296  11.161
45984W        W12393  11.885  38.708   1.957
45985W        W12394  29.914  26.133   0.275
45986W        W12395  30.068   7.745  11.121
45987W        W12396  21.986  30.574  11.086
45988W        W12397   1.266  30.082   3.826
45989W        W12398  39.811  42.594  13.907
45990W        W12399  25.959  20.511  14.339
45991W        W12400  26.556   9.438  12.344
45992W        W12401  21.230  21.147   5.111
45993W        W12402  36.903  11.213   0.841
45994W        W12403  25.011  38.807   3.370
45995W        W12404  23.902  38.619   2.317
45996W        W12405  13.403  34.010   0.662
45997W        W12406  43.873  31.167   1.290
45998W        W12407  33.955  32.624  14.070
45999W        W12408   7.125  16.552   4.542
46000W        W12409  17.613   9.649  13.540
46001W        W12410  22.039  27.031  11.115
46002W        W12411   1.696  37.349   2.758
46003W        W12412  42.642  33.192   0.087
46004W        W12413  29.558  19.341  12.099
46005W        W12414  34.355  42.800  11.617
46006W        W12415   4.397  43.881   2.393
46007W        W12416  44.292  40.543  13.452
46008W        W12417  22.581   1.306  12.910
46009W        W12418  12.213  17.227   4.686
46010W        W12419  27.138  11.712  13.361
46011W        W12420  22.501   2.642  13.821
46012W        W12421  21.150  38.256   2.151
46013W        W12422  19.042  36.971  14.425
46014W        W12423  11.749   5.302  12.391
46015W        W12424  31.645  26.507  13.397
46016W        W12425  39.886  44.220  13.028
46017W        W12426  38.208  23.620   4.956
46018W        W12427   4.266   7.688  11.115
46019W        W12428  28.064  23.923  11.618
46020W        W12429  33.012  13.648   2.813
46021W        W12430  40.023  36.629  10.735
46022W        W12431  36.356  18.473   2.871
46023W        W12432  13.085   1.554  14.448
46024W        W12433  29.169  27.001  12.639
46025W        W12434  13.810  42.773  13.040
46026W        W12435  12.652  11.556   3.752
46027W        W12436  15.696  44.324  14.908
46028W        W12437   1.758  31.357  11.225
46029W        W12438  10.308  19.460   0.869
46030W        W12439  16.643   8.641  14.881
46031W        W12440  24.924  14.131  12.974
46032W        W12441  15.433  39.957  14.544
46033W        W12442  41.437   6.878   1.044
46034W        W12443  38.314  25.112  11.121
46035W        W12444  40.095  41.432   4.848
46036W        W12445  43.469  25.195   2.810
46037W        W12446  36.123  31.304   4.961
46038W        W12447  25.581  32.624   1.727
46039W        W12448  37.382   7.873   1.164
46040W        W12449  28.571  34.393  10.769
46041W        W12450  21.472  23.895  11.267
46042W        W12451  31.548  24.056  11.646
46043W        W12452  37.094  32.135   4.371
46044W        W12453  14.275  26.041   0.253
46045W        W12454  34.147  26.565  14.505
46046W        W12455   6.160  33.548  11.630
46047W        W12456  11.221  30.385  11.124
46048W        W12457  37.176  22.967  12.470
46049W        W12458  19.144   4.430   0.142
46050W        W12459  44.381   3.824  12.391
46051W        W12460  14.160  36.839   3.684
46052W        W12461  26.773  38.442   1.728
46053W        W12462  15.673  15.138   1.450
46054W        W12463  24.106  29.196  10.730
46055W        W12464  31.441  17.081   1.266
46056W        W12465  15.877  42.354   1.863
46057W        W12466  26.446   8.211  11.508
46058W        W12467   6.154  15.540  12.120
46059W        W12468  42.409  41.728  10.424
46060W        W12469  21.711  35.078   4.695
46061W        W12470  11.615  30.846  13.793
46062W        W12471  32.596  40.071  12.452
46063W        W12472  18.022  32.860  11.940
46064W        W12473   5.885  13.739   3.233
46065W        W12474  34.534  21.207  11.434
46066W        W12475  44.457  16.579   2.228
46067W        W12476  29.045   3.900   2.846
46068W        W12477   4.688  37.449  14.061
46069W        W12478  13.591  22.722   0.341
46070W        W12479  41.858   9.726   0.559
46071W        W12480   5.821  13.360   5.016
46072W        W12481  39.515  12.295  11.101
46073W        W12482  32.165  23.123   0.481
46074W        W12483  29.289  41.400  14.894
46075W        W12484  42.301  16.078  10.942
46076W        W12485  27.754  16.353   4.471
46077W        W12486  28.588  17.194  13.966
46078W        W12487  26.993  16.192  13.461
46079W        W12488  16.818   6.831   3.157
46080W        W12489  17.849  14.048  12.049
46081W        W12490   3.815   4.307  11.789
46082W        W12491  24.720  30.006  12.047
46083W        W12492  39.794  19.174  11.493
46084W        W12493  44.477  44.995  10.827
46085W        W12494  44.209  25.537  14.877
46086W        W12495  27.940  19.594  10.176
46087W        W12496  12.665  14.882   3.424
46088W        W12497   4.775  31.415  10.775
46089W        W12498  28.042  40.796  13.426
46090W        W12499   8.703  22.858   0.929
46091W        W12500   4.347  39.572   4.849
46092W        W12501  13.547  38.861  11.581
46093W        W12502  33.188  12.054   4.117
46094W        W12503  25.549  24.542  11.532
46095W        W12504  44.203  15.189   2.135
46096W        W12505  10.175  15.384  10.758
46097W        W12506  31.466  19.169   4.753
46098W        W12507  37.497  16.639   4.157
46099W        W12508  14.250  40.765  14.387
46100W        W12509  19.107  36.045  10.145
46101W        W12510  24.697   0.876  14.795
46102W        W12511  37.335  17.277   1.862
46103W        W12512  28.584  14.377  13.786
46104W        W12513  44.958  13.589   0.967
46105W        W12514  39.674  14.762   1.740
46106W        W12515  42.076  16.516  12.108
46107W        W12516  38.106  44.780  14.791
46108W        W12517  14.847  10.568  12.041
46109W        W12518  15.856  32.141   0.942
46110W        W12519  35.642  27.446   4.563
46111W        W12520  31.100  44.317   0.736
46112W        W12521   7.738  30.694  12.138
46113W        W12522  35.256  31.193  11.617
46114W        W12523   5.008   6.300   1.306
46115W        W12524  36.825  24.264  13.093
46116W        W12525   1.311   5.347   4.114
46117W        W12526  36.062  11.168   1.407
46118W        W12527  23.499   6.747  13.486
46119W        W12528   0.446  13.305  11.890
46120W        W12529  27.408  41.850   2.420
46121W        W12530  20.203  37.165   1.193
46122W        W12531   4.909  44.882  13.830
46123W        W12532  18.574  15.869  14.609
46124W        W12533  42.019  33.425  13.990
46125W        W12534  44.026  20.656  14.058
46126W        W12535  42.009  17.556   2.169
46127W        W12536   7.171  26.883  14.276
46128W        W12537   8.473   0.976   2.395
46129W        W12538  37.323   1.079   4.976
46130W        W12539  43.038   7.331   3.747
46131W        W12540   2.034  10.405   3.684
46132W        W12541  32.078  25.274  13.961
46133W        W12542   6.361  38.542  11.812
46134W        W12543  16.641  42.203   4.934
46135W        W12544  31.000  18.587  13.906
46136W        W12545  28.277   6.887  13.103
46137W        W12546  23.714  18.550   3.180
46138W        W12547   6.786   6.726  14.429
46139W        W12548  39.888  20.048   3.238
46140W        W12549  38.906  37.043  10.293
46141W        W12550  27.720  23.233   5.052
46142W        W12551  26.133   0.780  12.354
46143W        W12552  23.279   3.679   2.748
46144W        W12553  14.211  42.826   4.519
46145W        W12554  22.377  33.585  13.316
46146W        W12555  22.281  36.248  11.628
46147W        W12556  36.343  32.201  13.172
46148W        W12557  18.227  29.073   4.582
46149W        W12558  18.146  22.799   0.266
46150W        W12559  21.610  28.029   4.487
46151W        W12560   1.432   5.626   0.314
46152W        W12561  11.813   5.055  11.954
46153W        W12562  13.775  44.816   0.534
46154W        W12563   8.465  35.904  11.140
46155W        W12564   1.868  37.930  10.498
46156W        W12565  22.442  28.581  12.126
46157W        W12566  18.100   5.366   4.290
46158W        W12567  12.440  38.932  12.503
46159W        W12568  17.103   2.404  10.700
46160W        W12569  10.643  38.036   3.187
46161W        W12570   3.871  23.689  12.959
46162W        W12571  10.002  44.775   3.670
46163W        W12572  32.426  18.139   4.262
46164W        W12573   1.459  31.870  14.923
46165W        W12574  14.364  33.831   4.560
46166W        W12575  32.382  26.145  12.223
46167W        W12576   7.331  34.869  13.406
46168W        W12577  15.963   3.339   4.643
46169W        W12578  35.991  40.048  10.720
46170W        W12579  12.923  33.819  10.229
46171W        W12580  11.925   7.681   1.463
46172W        W12581  11.252  11.516   1.769
46173W        W12582   6.143   5.960  10.390
46174W        W12583   3.705  29.663   4.322
46175W        W12584  43.037  22.567  13.847
46176W        W12585  20.544  30.940   4.804
46177W        W12586  39.935   5.138  13.803
46178W        W12587  12.302  43.539   1.811
46179W        W12588  13.920  41.368   1.412
46180W        W12589  24.943  20.231   3.325
46181W        W12590  43.543  13.665   1.392
46182W        W12591  24.183  39.983  11.294
46183W        W12592  15.943  19.566  10.516
46184W        W12593  43.305  10.745   4.030
46185W        W12594  39.643   2.514  11.104
46186W        W12595  19.209  24.177  14.311
46187W        W12596   1.306  42.378  11.395
46188W        W12597  25.159  10.089  14.297
46189W        W12598  26.699  16.246   0.049
46190W        W12599   9.769  44.767   1.452
46191W        W12600  21.238  39.796  14.744
46192W        W12601  38.120  14.142   4.638
46193W        W12602  29.272  11.793   3.804
46194W        W12603  39.534  21.496   0.768
46195W        W12604  37.612   5.249   2.858
46196W        W12605  16.684   0.257  10.725
46197W        W12606   2.886   3.257   3.553
46198W        W12607  30.013  42.008   2.999
46199W        W12608  38.789  22.091  12.356
46200W        W12609  15.559  29.232   9.913
46201W        W12610  31.611  30.348   1.370
46202W        W12611  18.344  31.915  10.822
46203W        W12612  35.435  34.839   1.447
46204W        W12613  22.556   2.391  12.455
46205W        W12614  19.720  24.413   0.226
46206W        W12615  29.976   0.408   3.409
46207W        W12616   3.337  16.165   1.722
46208W        W12617  19.599  23.700  12.160
46209W        W12618   3.139   0.964  14.888
46210W        W12619   5.191  13.226  13.790
46211W        W12620  35.111  17.526  10.521
46212W        W12621  23.234  40.094   2.209
46213W        W12622  15.101   8.831  13.891
46214W        W12623  44.949  15.702  12.935
46215W        W12624  24.568  29.253   4.255
46216W        W12625   5.891  17.143   3.629
46217W        W12626  17.971  16.870  13.399
46218W        W12627  24.092   6.509  14.927
46219W        W12628  20.685  42.057   5.024
46220W        W12629  17.665  39.965  13.499
46221W        W12630   1.189  17.018   0.070
46222W        W12631  37.636   4.126  11.668
46223W        W12632  43.399   7.762  10.287
46224W        W12633   1.448  23.575  13.534
46225W        W12634  28.904  32.843   3.201
46226W        W12635   7.951  37.408   2.302
46227W        W12636  15.287  14.781  11.534
46228W        W12637  10.223  41.235  12.430
46229W        W12638  14.647  10.813   1.102
46230W        W12639   9.372   0.369  11.568
46231W        W12640  30.018   4.621  12.581
46232W        W12641  41.923  20.924   3.396
46233W        W12642  36.843   0.459  11.109
46234W        W12643   5.314  43.507   1.843
46235W        W12644  33.030  34.161   0.311
46236W        W12645  26.186  21.414  13.084
46237W        W12646  24.645  20.757  14.491
46238W        W12647  27.534  14.290   3.503
46239W        W12648   0.536   1.510   0.194
46240W        W12649  12.226  11.806   4.389
46241W        W12650  26.235  13.043  11.944
46242W        W12651  16.486  26.408   1.251
46243W        W12652   5.231  44.893   0.826
46244W        W12653  25.303   2.775   0.200
46245W        W12654   7.293  37.324  11.454
46246W        W12655  18.896  31.570   1.704
46247W        W12656  27.168   9.146  14.348
46248W        W12657  13.154  32.351   3.738
46249W        W12658  18.207   7.450  12.393
46250W        W12659  37.107  25.674   1.764
46251W        W12660   0.331  35.016  10.728
46252W        W12661   0.526   6.243   3.692
46253W        W12662  42.904  16.701  11.022
46254W        W12663  31.906   7.518  11.557
46255W        W12664  18.450  27.065   1.817
46256W        W12665  34.257   5.363  11.199
46257W        W12666  14.853  42.786   3.669
46258W        W12667   7.710  36.976   0.352
46259W        W12668  12.086  30.695   4.823
46260W        W12669  41.339   3.031  11.610
46261W        W12670   6.357  42.839   2.497
46262W        W12671  26.652   1.531   3.170
46263W        W12672  15.667  22.685  13.811
46264W        W12673  22.063  38.430   0.487
46265W        W12674  20.253   6.279   3.747
46266W        W12675   6.224  30.447   4.939
46267W        W12676  37.299  31.222  14.362
46268W        W12677  21.260  43.766  11.917
46269W        W12678  41.772  41.481   1.666
46270W        W12679  12.227  20.669   2.188
46271W        W12680  44.981   0.103  10.711
46272W        W12681  29.309  27.406  11.595
46273W        W12682  19.545   4.106   1.806
46274W        W12683   3.963  12.657   0.979
46275W        W12684   7.693  15.514   3.587
46276W        W12685  26.544  23.165   2.664
46277W        W12686   8.157   6.261  14.539
46278W        W12687  15.833  21.998  14.439
46279W        W12688  43.667   8.205  11.821
46280W        W12689  28.492  21.355   9.658
46281W        W12690  13.681  36.972  12.376
46282W        W12691  29.013  38.806  12.877
46283W        W12692  37.069   7.282  13.977
46284W        W12693  30.353  34.900   0.917
46285W        W12694  24.828  26.247   9.956
46286W        W12695  41.052  24.044  10.381
46287W        W12696  37.953   7.320   3.144
46288W        W12697   4.810   3.877   1.282
46289W        W12698   3.400  24.396  12.383
46290W        W12699  10.604  12.321  13.915
46291W        W12700  40.907  19.733  11.727
46292W        W12701  26.645  26.927  11.054
46293W        W12702  24.611  20.336  10.183
46294W        W12703  11.387  24.006   4.999
46295W        W12704  15.238  21.803  14.842
46296W        W12705  13.746  10.359   0.719
46297W        W12706  17.823  13.354  13.992
46298W        W12707  41.247  20.388  13.274
46299W        W12708  39.414  28.180  10.848
46300W        W12709  40.029   2.468  14.376
46301W        W12710  15.635  27.023  12.546
46302W        W12711   2.740  17.076  13.071
46303W        W12712  16.197  34.423  10.276
46304W        W12713   3.554  28.320   4.165
46305W        W12714  19.593  29.596  12.341
46306W        W12715   4.503  34.771  11.063
46307W        W12716   9.307  14.639  11.710
46308W        W12717  36.095  21.636   3.181
46309W        W12718  27.501  43.129   3.629
46310W        W12719  24.563   4.795  12.247
46311W        W12720  31.565  40.249   2.756
46312W        W12721  16.992  17.319  13.314
46313W        W12722   5.466  17.985  14.881
46314W        W12723  19.246  23.471  10.683
46315W        W12724  24.515   8.886   9.858
46316W        W12725  22.270   1.266   3.247
46317W        W12726  21.753  43.851  14.845
46318W        W12727  19.136  29.475  12.131
46319W        W12728  30.050   4.163  14.562
46320W        W12729  16.794  19.548  11.183
46321W        W12730  37.839  28.690  14.026
46322W        W12731  18.770  14.339  14.604
46323W        W12732  40.692  12.842   2.282
46324W        W12733  13.736  25.780  12.344
46325W        W12734  10.563  36.054   2.423
46326W        W12735   5.071   9.483   4.106
46327W        W12736  43.205  38.666   4.053
46328W        W12737  39.265   8.848  13.877
46329W        W12738  10.196  10.274   4.310
46330W        W12739  34.900  40.248   2.377
46331W        W12740  19.046   8.469  14.921
46332W        W12741  35.903  27.025  14.559
46333W        W12742  41.993  40.871   4.609
46334W        W12743  40.501  12.199  12.456
46335W        W12744  30.533   9.138   3.755
46336W        W12745  34.472  34.562   2.179
46337W        W12746  44.408  31.331  11.155
46338W        W12747  28.503  40.093   3.574
46339W        W12748   8.895  10.688  14.670
46340W        W12749  23.693  33.618  11.104
46341W        W12750  10.431  21.660   0.310
46342W        W12751   3.447   0.758   2.666
46343W        W12752   6.419  16.617   3.349
46344W        W12753   5.245  27.179  14.751
46345W        W12754  36.493   0.408   3.091
46346W        W12755  11.110  34.406   0.945
46347W        W12756  39.383  28.448  13.023
46348W        W12757  17.988   5.251  14.445
46349W        W12758  27.688  36.405  12.918
46350W        W12759  33.573  18.187  10.068
46351W        W12760   6.771  15.937  13.188
46352W        W12761  12.577  40.621   3.644
46353W        W12762  19.080   9.181  10.429
46354W        W12763  11.157   6.520   0.266
46355W        W12764  28.501   4.940  14.266
46356W        W12765  33.628  26.386  11.473
46357W        W12766  26.898  35.783  13.870
46358W        W12767  13.701   5.706  14.903
46359W        W12768  37.190  33.179   0.242
46360W        W12769  13.777  22.731  13.388
46361W        W12770  40.436  20.593   1.631
46362W        W12771  39.010   9.099   4.183
46363W        W12772   0.918   9.241  10.265
46364W        W12773  27.698   4.274  11.990
46365W        W12774  34.708  34.732   0.891
46366W        W12775  12.125  42.075   0.861
46367W        W12776  29.383   6.273  14.475
46368W        W12777  39.189   9.596   2.473
46369W        W12778  41.326  34.387  11.614
46370W        W12779  29.370   9.875  13.864
46371W        W12780  23.330  14.176  14.033
46372W        W12781  14.391  33.915  10.898
46373W        W12782  39.825  36.958  12.952
46374W        W12783  40.142   1.115  12.879
46375W        W12784  43.917  10.325  11.711
46376W        W12785  37.881  15.014   4.418
46377W        W12786  18.470  41.511   3.786
46378W        W12787  13.116  41.189  11.702
46379W        W12788  42.933  10.790   0.044
46380W        W12789  19.185  37.236  11.153
46381W        W12790   3.023  22.292  13.905
46382W        W12791  20.562  16.996  11.204
46383W        W12792   9.649  41.379  10.754
46384W        W12793  19.942  40.352  14.906
46385W        W12794  36.861  43.208  12.490
46386W        W12795  23.597  24.991   0.389
46387W        W12796  14.866   4.948   4.793
46388W        W12797  33.836  16.766  12.153
46389W        W12798  13.226  28.372   0.640
46390W        W12799  17.172   0.376   3.275
46391W        W12800  19.112   6.916  11.934
46392W        W12801  41.961   9.784  14.587
46393W        W12802  31.637  13.307  11.167
46394W        W12803   7.506   6.206   2.235
46395W        W12804   0.431  44.929  12.574
46396W        W12805   3.839  16.633   4.226
46397W        W12806   7.225  21.281   3.685
46398W        W12807  35.010   4.694   2.173
46399W        W12808  12.059  21.563   1.518
46400W        W12809  23.807  14.037  11.934
46401W        W12810   4.036  44.738  11.198
46402W        W12811  29.468  42.562  13.240
46403W        W12812   6.274  35.863   5.066
46404W        W12813  35.332  25.647  13.568
46405W        W12814  13.717  17.091  14.969
46406W        W12815  18.508   7.485   2.734
46407W        W12816  23.302  29.043   3.710
46408W        W12817  22.504  33.627  14.838
46409W        W12818  30.786  43.959  10.528
46410W        W12819   5.688   7.517   2.690
46411W        W12820  20.498  44.229  14.952
46412W        W12821   0.004  30.456   4.642
46413W        W12822  32.586   8.793   3.553
46414W        W12823  15.755  31.459   1.810
46415W        W12824  12.208  33.569  12.526
46416W        W12825  29.803   8.458   2.222
46417W        W12826  39.078  36.932  14.082
46418W        W12827  40.399   5.326   1.983
46419W        W12828  34.364  31.896  14.577
46420W        W12829  39.352   7.901   2.489
46421W        W12830   7.629  21.804   0.921
46422W        W12831  15.867  36.250  14.523
46423W        W12832  33.615  22.290   3.772
46424W        W12833  21.654   7.148  11.488
46425W        W12834  32.770  10.598  14.172
46426W        W12835  41.944  29.986  10.666
46427W        W12836  32.897   3.258  10.784
46428W        W12837  31.210  30.876  13.714
46429W        W12838  28.286   7.381   4.630
46430W        W12839  44.481  35.942   0.093
46431W        W12840  22.742  22.614  13.290
46432W        W12841  38.979  39.007   2.557
46433W        W12842  24.513  35.227  13.869
46434W        W12843   6.311  27.684   1.384
46435W        W12844  32.396  41.097   2.645
46436W        W12845   2.379  22.004   2.317
46437W        W12846  13.221  43.273  11.090
46438W        W12847  39.466  34.957  11.531
46439W        W12848  34.439  10.397   4.441
46440W        W12849  31.648  16.713  12.165
46441W        W12850  20.295  20.345  12.030
46442W        W12851  25.862  30.767   1.523
46443W        W12852  40.389  39.505   0.359
46444W        W12853  12.307  41.911   2.707
46445W        W12854  14.189  14.810   0.458
46446W        W12855   4.830   6.611  10.699
46447W        W12856   9.176  18.674  13.434
46448W        W12857  10.666  19.839  11.998
46449W        W12858  11.703  25.943   1.165
46450W        W12859  41.819  14.123   0.675
46451W        W12860  43.817   7.297  13.819
46452W        W12861  27.154  30.412  10.677
46453W        W12862  17.676   2.280   1.868
46454W        W12863  10.285   7.279  13.988
46455W        W12864  14.560   0.390   2.111
46456W        W12865  43.233  42.406   2.213
46457W        W12866   1.426   2.409  10.699
46458W        W12867  41.432  35.846   2.654
46459W        W12868   4.180  40.623  14.353
46460W        W12869  25.120  25.111   1.218
46461W        W12870  24.017  19.764   3.197
46462W        W12871  39.467  23.141   3.346
46463W        W12872  12.233  21.038  14.643
46464W        W12873   5.313   1.874  14.793
46465W        W12874  43.006  13.550  11.265
46466W        W12875  34.391  42.923   3.191
46467W        W12876  36.402  26.990   0.882
46468W        W12877  28.406   1.678   2.743
46469W        W12878   7.564  19.102  11.104
46470W        W12879   5.421  25.421   4.462
46471W        W12880  20.248  29.632  10.656
46472W        W12881  18.015  31.351   0.339
46473W        W12882  20.901  32.977  13.212
46474W        W12883  41.398  31.268   3.616
46475W        W12884  22.200  16.814   1.437
46476W        W12885  39.131  33.882  11.462
46477W        W12886  23.222  19.705   1.437
46478W        W12887  42.528  17.325  10.022
46479W        W12888  12.948  14.280  14.856
46480W        W12889   6.570  43.420  13.441
46481W        W12890  22.999  26.449   4.230
46482W        W12891   6.772  11.613   0.447
46483W        W12892  35.895  11.089  11.107
46484W        W12893  22.494  21.573   0.600
46485W        W12894   9.668  36.372  12.627
46486W        W12895  40.317  41.416  14.800
46487W        W12896  12.168   9.010   3.196
46488W        W12897  42.740  21.194   3.261
46489W        W12898  28.346  43.353   2.150
46490W        W12899   5.359  36.048   0.836
46491W        W12900   3.633  28.217  11.587
46492W        W12901  20.891  13.012  11.059
46493W        W12902  30.813   8.606   1.889
46494W        W12903  11.769   5.826  14.020
46495W        W12904  40.865   7.410   0.490
46496W        W12905  42.868  20.254   4.796
46497W        W12906  17.973  12.973   1.805
46498W        W12907   0.202  42.906  11.173
46499W        W12908  15.231  44.779   1.553
46500W        W12909  26.160   0.002   2.175
46501W        W12910  17.529  12.251   2.363
46502W        W12911  37.027  12.120   3.629
46503W        W12912  36.809  23.010  12.112
46504W        W12913  24.544  25.045   1.100
46505W        W12914   3.707  24.398  11.978
46506W        W12915  21.546  19.944  14.843
46507W        W12916  21.243  44.027  14.844
46508W        W12917  31.990  18.348  12.090
46509W        W12918  33.579  11.415  10.694
46510W        W12919  40.099   5.738   2.126
46511W        W12920   7.648  39.008   0.405
46512W        W12921  37.635  10.264   1.193
46513W        W12922  21.479  24.197  13.042
46514W        W12923  29.282  33.072   4.535
46515W        W12924  30.027  11.900  11.595
46516W        W12925   4.179  31.404   3.586
46517W        W12926  20.510  10.236   4.065
46518W        W12927   5.091  15.222   4.934
46519W        W12928  25.436   5.776  12.704
46520W        W12929  12.626  11.282   3.326
46521W        W12930  23.931  18.812  12.825
46522W        W12931  13.720   3.491   3.293
46523W        W12932  18.980  33.759   3.111
46524W        W12933  23.044  36.021  12.881
46525W        W12934  25.711  30.142  11.987
46526W        W12935   4.735  12.644  13.043
46527W        W12936  43.274  25.749  14.076
46528W        W12937  40.404  21.055  13.873
46529W        W12938  43.936  11.325   2.374
46530W        W12939  11.351   3.631   3.758
46531W        W12940  35.948  19.171   3.647
46532W        W12941   0.061  37.035  10.784
46533W        W12942  11.823   6.305   0.694
46534W        W12943   3.675  41.250   4.064
46535W        W12944  43.164  37.405  12.412
46536W        W12945   5.821  17.717  14.040
46537W        W12946  26.907   7.668  10.957
46538W        W12947  18.677  11.476   3.230
46539W        W12948   9.353  17.174   4.686
46540W        W12949   0.539   3.160  13.427
46541W        W12950  16.733  18.274  13.833
46542W        W12951  28.906   8.962   3.070
46543W        W12952  39.372  34.648  12.836
46544W        W12953   3.312   1.782  13.922
46545W        W12954   6.334  38.413   4.627
46546W        W12955  12.277  32.659   2.044
46547W        W12956  40.475  32.469   3.220
46548W        W12957   0.584  14.006   2.756
46549W        W12958  36.179  25.611  11.853
46550W        W12959  27.272  27.465  10.726
46551W        W12960   7.372  44.190  14.433
46552W        W12961   5.162  19.984   1.317
46553W        W12962  30.316  29.183  11.050
46554W        W12963   2.382  36.952   1.870
46555W        W12964   3.392  25.641  12.895
46556W        W12965  44.046  34.985  14.019
46557W        W12966   7.139  39.822  14.874
46558W        W12967  33.944  14.133  14.311
46559W        W12968   7.150  38.601   4.128
46560W        W12969  28.629  27.690   3.828
46561W        W12970  19.769  43.281   3.187
46562W        W12971   5.902  40.758  12.054
46563W        W12972  40.297  28.637   5.034
46564W        W12973  44.846  43.090  14.981
46565W        W12974  15.817  17.342   0.837
46566W        W12975  19.182  18.675  10.768
46567W        W12976  18.113  33.035   3.326
46568W        W12977  25.669  40.384   4.429
46569W        W12978  42.218   6.435   0.985
46570W        W12979   1.447  23.772   1.036
46571W        W12980  36.763  26.132  13.852
46572W        W12981  14.998  31.656   0.087
46573W        W12982   4.603  19.201   2.310
46574W        W12983   7.640  42.493  13.607
46575W        W12984  28.865   6.451   1.890
46576W        W12985  34.294  26.139   0.931
46577W        W12986  25.883  36.447  11.078
46578W        W12987  21.948  38.461  11.034
46579W        W12988  30.410   9.141  10.784
46580W        W12989  10.380   9.666   1.335
46581W        W12990  12.668   0.212   0.952
46582W        W12991   1.853  38.374   3.032
46583W        W12992  12.014   7.342   0.026
46584W        W12993  35.019  43.406   4.384
46585W        W12994  30.652  38.418   3.330
46586W        W12995  40.535  32.600   4.815
46587W        W12996  39.774  21.491  14.793
46588W        W12997  21.777   7.541   2.251
46589W        W12998  19.074  10.247   0.317
46590W        W12999   7.934   1.054  12.823
46591W        W13000  33.073  38.528  14.501
46592W        W13001  27.342   8.405   2.240
46593W        W13002  15.688  17.968   4.065
46594W        W13003  36.812  44.949   2.896
46595W        W13004  29.206  30.860  13.191
46596W        W13005  14.709  10.626  10.687
46597W        W13006   8.683  16.530   4.497
46598W        W13007  32.431  17.331  13.542
46599W        W13008  10.295  17.268   1.425
46600W        W13009  31.477  16.338  13.972
46601W        W13010  20.696  40.939  11.963
46602W        W13011  39.453  43.139   1.393
46603W        W13012  25.208   6.169  11.531
46604W        W13013  23.213   2.390  12.053
46605W        W13014  14.266  24.556  14.050
46606W        W13015  30.143   2.276  13.560
46607W        W13016  16.088   5.705   3.119
46608W        W13017   1.049   0.613  12.113
46609W        W13018  29.666  13.344  14.295
46610W        W13019   8.279   3.379  12.963
46611W        W13020  26.616  39.405   0.463
46612W        W13021  19.508  14.331   4.814
46613W        W13022   4.283  30.416  13.526
46614W        W13023   9.907   9.445   1.441
46615W        W13024  32.334   5.101  10.199
46616W        W13025  21.071  12.140   0.838
46617W        W13026  22.361  42.467   2.166
46618W        W13027  15.812  33.628  14.556
46619W        W13028  41.472  18.822  11.139
46620W        W13029  34.074  16.752  14.307
46621W        W13030  17.781  42.208   3.461
46622W        W13031  38.836  37.923   4.347
46623W        W13032  31.106   6.372   0.245
46624W        W13033  38.070   2.679   3.673
46625W        W13034  43.358  19.860  13.470
46626W        W13035  18.110  27.035   3.386
46627W        W13036  34.164  13.555  11.406
46628W        W13037  41.773  16.124   1.415
46629W        W13038  37.233  26.869  12.934
46630W        W13039  14.238  10.553   3.997
46631W        W13040  18.255  44.318  11.124
46632W        W13041  18.979   9.277   1.750
46633W        W13042  43.237  21.636  12.842
46634W        W13043   5.970  37.463   0.275
46635W        W13044  20.161  34.442   2.765
46636W        W13045  28.527  42.520  13.292
46637W        W13046  17.814   4.949   1.782
46638W        W13047  13.730  19.848  11.961
46639W        W13048   3.803   2.439   1.810
46640W        W13049  26.069  44.987  14.896
46641W        W13050  14.293  14.786  14.951
46642W        W13051  18.486  11.062   4.126
46643W        W13052   4.960   5.878   0.137
46644W        W13053   1.768  30.489  10.989
46645W        W13054  15.818  10.568  11.239
46646W        W13055  30.942  43.304   0.855
46647W        W13056   8.335  13.675   1.896
46648W        W13057  29.345  36.296  13.787
46649W        W13058   2.747  32.349   4.218
46650W        W13059  31.076  44.568  12.989
46651W        W13060   1.646  44.469  13.441
46652W        W13061  33.552  29.355  14.765
46653W        W13062  19.511  38.717   1.683
46654W        W13063  12.424   5.155   0.611
46655W        W13064  31.065  40.018   2.282
46656W        W13065  39.244  17.933  14.744
46657W        W13066   5.378  15.002   3.185
46658W        W13067  30.928   7.430  11.570
46659W        W13068  36.041  31.413   1.761
46660W        W13069   0.760  21.271   3.339
46661W        W13070  41.966   3.975   3.036
46662W        W13071  21.453  19.630   1.356
46663W        W13072  20.558  20.167  11.617
46664W        W13073  36.379  25.157   3.064
46665W        W13074  19.974  24.210  13.927
46666W        W13075   0.246  32.536  11.062
46667W        W13076   0.964  34.585  14.737
46668W        W13077  40.800   2.250   2.325
46669W        W13078  21.526   8.982   4.547
46670W        W13079  33.566   3.784  14.966
46671W        W13080   8.769  22.329  11.562
46672W        W13081  21.595  23.667   0.698
46673W        W13082   1.818  13.323  11.084
46674W        W13083  17.351  12.639  14.467
46675W        W13084  44.041  26.881  13.786
46676W        W13085  18.190  24.013  10.857
46677W        W13086  32.622  22.280   0.493
46678W        W13087  27.376  42.968  11.573
46679W        W13088  21.778  34.564   1.732
46680W        W13089  42.129  23.492   4.592
46681W        W13090  40.476  17.856  12.706
46682W        W13091  22.622  24.241   4.569
46683W        W13092  44.369  40.267   0.441
46684W        W13093  39.548  24.721  11.858
46685W        W13094   7.799  31.853  11.685
46686W        W13095  35.439  16.173  12.385
46687W        W13096  10.826  21.121  14.869
46688W        W13097   2.724  27.937  11.907
46689W        W13098   3.213  21.121  12.130
46690W        W13099  33.059  42.489   3.283
46691W        W13100  17.230  38.619  13.620
46692W        W13101  10.263  36.141  10.466
46693W        W13102  15.373  28.177  10.640
46694W        W13103  21.006  43.704   2.446
46695W        W13104  39.387  42.125   0.518
46696W        W13105  44.265  35.427  10.466
46697W        W13106   7.276  24.042  14.879
46698W        W13107  20.201  18.635  14.739
46699W        W13108  10.493  27.696  11.134
46700W        W13109   8.364  21.441   1.304
46701W        W13110   2.292   3.822   3.197
46702W        W13111   9.815   6.395   0.211
46703W        W13112  43.804  42.092  12.226
46704W        W13113  25.244  34.220  13.506
46705W        W13114   6.260   1.894  14.956
46706W        W13115  22.296  24.079   4.153
46707W        W13116  14.793   5.918   0.317
46708W        W13117   5.332  38.034   1.910
46709W        W13118   8.995  37.510  14.404
46710W        W13119  15.300  40.572   0.983
46711W        W13120   1.760  12.124  13.770
46712W        W13121  33.071  34.124  13.061
46713W        W13122  26.670  27.844   0.683
46714W        W13123  19.264  18.201   4.701
46715W        W13124  31.504  26.174   2.312
46716W        W13125  11.109  21.637  14.841
46717W        W13126  41.932  43.911   2.168
46718W        W13127  21.311  39.916   4.629
46719W        W13128   0.495   4.274   3.341
46720W        W13129  40.336  11.362   1.718
46721W        W13130  15.777  34.177  12.437
46722W        W13131  39.254  41.891  10.518
46723W        W13132  34.521   8.230   3.737
46724W        W13133  31.442   9.706   2.379
46725W        W13134  35.899  26.244   3.662
46726W        W13135  12.722  20.975   9.832
46727W        W13136   0.980  11.743  12.883
46728W        W13137  18.140   2.366   4.562
46729W        W13138  12.224  11.644  12.035
46730W        W13139  27.293  34.054  10.823
46731W        W13140  36.850  33.341  12.036
46732W        W13141   7.354  32.933  14.507
46733W        W13142  18.303  32.688   1.905
46734W        W13143  38.669  29.981   3.173
46735W        W13144  38.737  26.171   0.764
46736W        W13145   0.846  42.549   4.405
46737W        W13146  15.077   1.315   1.196
46738W        W13147  37.442  29.887   4.553
46739W        W13148  32.111  12.369  12.057
46740W        W13149  11.880   5.397  14.753
46741W        W13150  28.962  39.343   3.355
46742W        W13151  11.000  19.630  12.772
46743W        W13152  27.255   6.477  11.684
46744W        W13153  44.381   3.612   4.268
46745W        W13154  44.092  19.279   4.132
46746W        W13155  41.530  39.798   3.226
46747W        W13156  39.397  25.893   0.210
46748W        W13157  42.537  39.786   3.308
46749W        W13158   8.185  41.992   1.407
46750W        W13159  26.960  33.895  14.820
46751W        W13160  39.254  19.056   3.230
46752W        W13161   7.764  27.007   2.083
46753W        W13162  14.778  20.976   0.295
46754W        W13163   4.218   7.624  12.612
46755W        W13164  43.853  12.260  14.951
46756W        W13165   1.545  28.173   1.757
46757W        W13166  27.812  27.135   3.249
46758W        W13167  44.243  25.593  13.783
46759W        W13168  39.138  18.193  13.390
46760W        W13169  15.562  25.359  14.769
46761W        W13170  10.399  43.384   4.120
46762W        W13171   6.384   4.977  12.363
46763W        W13172  36.614  16.616  11.084
46764W        W13173  11.099  25.301  11.243
46765W        W13174  43.250  39.883  13.986
46766W        W13175  17.225  32.216   4.254
46767W        W13176   2.981  21.537  11.927
46768W        W13177   8.288  42.971  12.888
46769W        W13178  29.396   3.762  13.849
46770W        W13179  15.071  11.764  12.050
46771W        W13180  15.906  43.790   3.564
46772W        W13181  31.254  33.715   0.838
46773W        W13182  43.407  15.681  13.697
46774W        W13183  12.763  22.033  12.600
46775W        W13184  43.856  42.083   0.981
46776W        W13185  17.127  44.211   2.310
46777W        W13186  20.042  38.626  12.177
46778W        W13187   0.182  39.899   2.751
46779W        W13188  27.236  17.793   0.515
46780W        W13189  32.646  19.467   3.150
46781W        W13190  27.625  19.045  10.621
46782W        W13191  17.309  18.108  11.713
46783W        W13192  31.914  44.488  13.586
46784W        W13193  42.456   7.551   4.854
46785W        W13194  21.232  42.210   0.315
46786W        W13195  27.975  16.497   1.740
46787W        W13196  35.162  28.707  13.057
46788W        W13197  10.336  14.608   2.326
46789W        W13198   5.793  44.545   3.839
46790W        W13199  27.465  19.111   0.023
46791W        W13200  10.834  29.993   5.522
46792W        W13201  36.908  17.023   3.237
46793W        W13202  23.134  22.006   3.163
46794W        W13203  27.582   7.422   4.626
46795W        W13204  23.060   2.473  13.851
46796W        W13205   5.227  42.026   4.566
46797W        W13206  20.347  33.134   1.827
46798W        W13207  30.087   1.664   2.328
46799W        W13208  19.096  40.746   0.643
46800W        W13209   0.859  30.820   4.458
46801W        W13210  20.595  16.202  13.305
46802W        W13211  30.587   8.649   0.765
46803W        W13212   1.847  33.299  11.121
46804W        W13213  13.352  40.802  11.471
46805W        W13214   5.680  11.265  11.249
46806W        W13215  34.717  29.012   4.523
46807W        W13216  12.871  31.382  10.582
46808W        W13217  25.063  34.367  10.801
46809W        W13218  30.046  36.393   4.772
46810W        W13219  44.184   6.032  14.258
46811W        W13220  17.692  41.959  11.563
46812W        W13221  19.228  20.534   3.808
46813W        W13222  12.578  42.046   0.554
46814W        W13223  18.744  43.448   2.591
46815W        W13224  38.190   6.280  12.959
46816W        W13225   7.458  13.181  12.027
46817W        W13226  36.622  14.239  13.955
46818W        W13227  13.000  33.426   0.385
46819W        W13228  26.532  40.022  12.802
46820W        W13229  41.148  43.939   1.437
46821W        W13230  33.220   6.555   5.023
46822W        W13231  24.825  33.368  12.518
46823W        W13232   7.208  33.536  10.022
46824W        W13233  31.661  23.157  11.175
46825W        W13234  26.752  38.992   4.537
46826W        W13235  22.242  26.647  11.884
46827W        W13236  36.761  16.934  14.323
46828W        W13237  11.442  41.972  14.295
46829W        W13238  14.017  24.161  14.281
46830W        W13239   1.909  19.188  10.756
46831W        W13240  33.674   3.235   3.130
46832W        W13241  11.646   0.470   3.342
46833W        W13242  34.881   4.424  14.853
46834W        W13243  38.460  21.193  14.805
46835W        W13244  16.030  33.411  14.967
46836W        W13245   9.822  30.541  11.139
46837W        W13246  40.552  15.494   0.286
46838W        W13247  32.708  24.578  11.387
46839W        W13248  16.797  15.313   2.606
46840W        W13249  29.529  24.578  14.810
46841W        W13250  39.023   5.218   1.866
46842W        W13251  32.406  14.166   3.827
46843W        W13252   5.729  18.159  13.570
46844W        W13253  26.516  35.570  14.960
46845W        W13254  23.107  38.869  10.705
46846W        W13255  29.700   3.920  14.245
46847W        W13256  37.029  28.244   2.608
46848W        W13257  11.385   9.368   3.154
46849W        W13258  44.905  24.999  12.774
46850W        W13259  16.781   4.805  11.164
46851W        W13260  24.655  21.539  14.925
46852W        W13261   7.328  13.297  14.520
46853W        W13262  12.557  38.458  12.997
46854W        W13263  39.567  43.356   1.889
46855W        W13264  31.205   9.106   4.358
46856W        W13265  41.791  19.645  11.094
46857W        W13266  29.716  24.610   0.305
46858W        W13267  34.979  32.536  13.487
46859W        W13268  37.441  13.932   9.843
46860W        W13269  31.461  26.692   2.069
46861W        W13270  29.983   4.701   3.195
46862W        W13271  34.004  26.052   2.698
46863W        W13272  37.958  30.461   1.318
46864W        W13273  25.948  37.467  10.634
46865W        W13274   5.680   2.404  13.057
46866W        W13275  35.195  34.995   4.952
46867W        W13276  27.666  19.144   3.340
46868W        W13277  36.201  32.348  10.713
46869W        W13278  44.486  28.475  12.252
46870W        W13279  18.829  39.298  11.464
46871W        W13280  16.278   1.452  13.902
46872W        W13281   9.625  36.953   1.243
46873W        W13282  31.681  44.375   2.665
46874W        W13283   5.754  41.068   3.103
46875W        W13284  24.622   4.781   2.274
46876W        W13285  12.837  41.032  14.399
46877W        W13286  11.680  17.759   4.803
46878W        W13287  34.176  20.006   2.702
46879W        W13288  25.207   8.238  13.272
46880W        W13289  35.680  20.291   4.733
46881W        W13290  33.915  37.903  12.097
46882W        W13291  20.618   7.760   2.155
46883W        W13292  24.947   3.273  14.438
46884W        W13293  12.797  35.988   2.277
46885W        W13294  35.493   7.676  14.384
46886W        W13295  33.056  31.877  12.962
46887W        W13296  33.886   4.831   1.346
46888W        W13297   9.486  19.439  11.158
46889W        W13298  31.576  19.445   0.471
46890W        W13299   3.265  44.958   0.651
46891W        W13300  19.854  20.665  14.914
46892W        W13301  21.248  16.066   4.937
46893W        W13302   8.247  35.369  13.395
46894W        W13303  22.045  42.055   2.970
46895W        W13304  34.181  24.112  11.203
46896W        W13305  29.486   7.830  13.883
46897W        W13306  13.655   6.736  11.124
46898W        W13307  33.179  18.202   3.697
46899W        W13308  21.448  32.660  11.508
46900W        W13309  43.179  31.879  11.000
46901W        W13310  13.052  20.572   1.502
46902W        W13311  16.727  12.622   4.617
46903W        W13312   7.211  23.628  13.524
46904W        W13313   1.829  10.130  11.053
46905W        W13314  32.031  20.268   0.736
46906W        W13315  22.890   3.400   2.596
46907W        W13316  21.641  24.641   1.702
46908W        W13317  43.360   7.163   1.928
46909W        W13318  29.210   6.733  14.618
46910W        W13319  37.703   9.128   4.098
46911W        W13320  28.935   9.131  14.280
46912W        W13321  14.189  31.896  12.041
46913W        W13322   6.247  12.999  12.872
46914W        W13323   1.334   9.025   3.738
46915W        W13324  21.255  18.703  11.191
46916W        W13325  17.063   4.289   0.204
46917W        W13326  11.647  22.600   2.760
46918W        W13327  24.419  27.707  12.915
46919W        W13328  38.660  13.925  11.566
46920W        W13329  44.726  38.531  12.492
46921W        W13330  21.223   5.825  12.624
46922W        W13331   5.521   0.664  11.857
46923W        W13332  34.938  40.762   2.322
46924W        W13333  24.717   0.440   3.227
46925W        W13334  15.656  29.158  13.615
46926W        W13335  28.130  15.284   0.454
46927W        W13336  15.199  23.041   4.086
46928W        W13337  40.907   5.879  14.009
46929W        W13338   9.898  37.561   4.556
46930W        W13339   1.461  44.872  11.503
46931W        W13340   2.189  28.767   0.416
46932W        W13341   6.809  32.374  14.431
46933W        W13342  15.354   4.187   3.801
46934W        W13343  19.098  41.110  11.242
46935W        W13344  28.644  35.697  13.861
46936W        W13345  34.639  13.236   3.276
46937W        W13346  32.431  38.667   2.328
46938W        W13347  16.259  24.102   2.022
46939W        W13348  27.850  30.416   2.622
46940W        W13349   2.844  35.483  13.799
46941W        W13350  42.380  35.937   4.844
46942W        W13351   4.343  24.041  14.758
46943W        W13352   5.629  36.897  12.552
46944W        W13353  15.326  12.988   1.809
46945W        W13354  33.675  34.983   1.770
46946W        W13355  18.528  12.654   1.181
46947W        W13356  22.632  36.103   9.856
46948W        W13357  11.554   4.287   5.043
46949W        W13358  29.722   5.896   0.498
46950W        W13359  39.022  11.818   3.718
46951W        W13360  34.258  11.597  11.520
46952W        W13361  29.701  12.827   0.256
46953W        W13362  17.433  30.045  13.047
46954W        W13363  26.448  23.529  12.466
46955W        W13364  11.874   9.156  11.981
46956W        W13365   4.939  40.504  10.710
46957W        W13366  35.515  13.061   0.428
46958W        W13367  38.696   6.664   3.347
46959W        W13368  26.097  33.420   0.473
46960W        W13369  22.706  42.853   2.296
46961W        W13370  14.178  13.652   2.397
46962W        W13371   9.160  43.047   2.283
46963W        W13372  34.935  41.273   1.282
46964W        W13373  18.606  39.032  10.537
46965W        W13374   3.763  40.469  12.635
46966W        W13375  30.866  19.778   1.873
46967W        W13376  28.804  42.769   4.206
46968W        W13377  27.817  42.486  13.893
46969W        W13378  28.633  17.580   2.748
46970W        W13379   3.749  10.301   4.058
46971W        W13380  41.835   5.778  14.326
46972W        W13381   6.158  26.654   4.524
46973W        W13382  22.028   3.667   1.643
46974W        W13383  37.794  20.018  12.128
46975W        W13384  43.134  16.466  13.891
46976W        W13385  21.708  10.672  13.382
46977W        W13386  15.727  26.065   0.236
46978W        W13387  38.342  37.600  11.896
46979W        W13388  27.873  15.135   1.401
46980W        W13389   6.230   7.546   0.799
46981W        W13390  15.581  18.276   2.291
46982W        W13391   5.648  40.265   1.464
46983W        W13392   0.684  39.159  11.528
46984W        W13393  26.660  28.274   2.698
46985W        W13394   5.336  28.930  10.653
46986W        W13395  17.599  29.691   3.784
46987W        W13396  14.287  23.054  14.823
46988W        W13397  17.635  29.164   1.211
46989W        W13398   8.946  27.448  11.154
46990W        W13399  37.488  21.203   1.712
46991W        W13400  38.103   4.764  12.410
46992W        W13401  16.927  32.051   2.914
46993W        W13402  24.452   6.984  13.441
46994W        W13403   5.657  29.955   1.679
46995W        W13404   3.349  21.020   0.232
46996W        W13405  29.008  39.363  12.879
46997W        W13406  30.414  27.011  10.673
46998W        W13407  44.672  40.560  11.414
46999W        W13408  23.712  19.139   3.522
47000W        W13409   6.360   9.945   3.114
47001W        W13410  22.076  42.489   1.276
47002W        W13411  25.642  17.308   1.189
47003W        W13412  12.274  28.405   1.453
47004W        W13413  14.317   9.097   3.595
47005W        W13414  12.742   0.433  14.220
47006W        W13415  44.644  25.244  12.353
47007W        W13416   1.234  24.633  14.862
47008W        W13417   9.308  24.368   4.396
47009W        W13418  42.987  40.302  13.756
47010W        W13419   4.681  12.144  14.823
47011W        W13420  32.118  19.876   2.183
47012W        W13421  14.910  26.755  14.590
47013W        W13422  31.086  40.645   3.801
47014W        W13423  29.895  14.817   1.820
47015W        W13424  43.562   6.570  12.795
47016W        W13425  23.998  12.798  13.299
47017W        W13426  26.797  30.176   3.253
47018W        W13427  20.826  18.825  13.026
47019W        W13428  24.319  10.792   0.538
47020W        W13429  34.147  32.862   2.314
47021W        W13430   1.206  27.587  13.963
47022W        W13431  19.803   0.409  13.471
47023W        W13432  13.543  29.053   3.229
47024W        W13433   6.678  16.592  11.695
47025W        W13434  15.710  17.369  13.394
47026W        W13435  22.973   3.521   0.632
47027W        W13436  22.178  35.120  10.775
47028W        W13437  20.991  10.964  14.929
47029W        W13438  26.046   5.592   3.740
47030W        W13439  33.910  24.624  10.742
47031W        W13440  37.100   1.025   0.474
47032W        W13441  43.929  40.599  10.758
47033W        W13442  18.889  37.047   2.271
47034W        W13443   1.490  43.208   0.207
47035W        W13444  26.041  26.544  14.527
47036W        W13445  44.819  41.888   0.274
47037W        W13446   3.915   0.513  12.449
47038W        W13447  34.863  41.781   3.212
47039W        W13448   4.160  13.086  13.739
47040W        W13449  20.702  40.694  13.376
47041W        W13450   3.330  21.729   2.742
47042W        W13451  20.742  33.897  11.562
47043W        W13452  14.678   2.323  13.521
47044W        W13453   2.883  16.214  14.780
47045W        W13454  27.402   5.927  11.095
47046W        W13455  15.157   2.347   1.731
47047W        W13456  25.641  17.266  10.595
47048W        W13457  36.217  35.898  12.695
47049W        W13458  12.644   4.722   2.255
47050W        W13459  40.380  20.318  14.466
47051W        W13460  12.894  15.213  11.628
47052W        W13461  22.532  24.144  13.835
47053W        W13462  25.395  15.392   2.256
47054W        W13463  10.329   3.624   0.700
47055W        W13464  26.030   6.381  11.929
47056W        W13465   7.782  40.455   3.177
47057W        W13466   6.378  32.926  13.982
47058W        W13467  26.075   0.661  14.319
47059W        W13468  13.728   5.002   5.032
47060W        W13469  21.759  24.507  14.360
47061W        W13470  10.691  31.414   5.235
47062W        W13471  11.762   8.468   4.107
47063W        W13472  43.382   7.473  11.613
47064W        W13473  38.697  25.661   0.766
47065W        W13474  38.437  13.335  10.735
47066W        W13475  34.851   4.928   0.287
47067W        W13476  16.798  43.226  13.910
47068W        W13477  26.447  13.206   3.065
47069W        W13478  21.784   4.196   4.165
47070W        W13479  28.724  29.108   0.250
47071W        W13480  25.052  17.990  12.917
47072W        W13481  30.206  40.819  14.484
47073W        W13482  18.931  18.592  11.626
47074W        W13483  22.182  38.581  13.415
47075W        W13484  39.942  29.241  11.311
47076W        W13485  17.920  21.390  10.169
47077W        W13486  19.767  23.927  14.321
47078W        W13487   0.774   1.593  13.124
47079W        W13488  24.654  24.428  12.249
47080W        W13489  33.184   6.653  11.523
47081W        W13490   7.668  34.989  10.410
47082W        W13491   5.427   0.710   3.957
47083W        W13492  25.994   4.850  13.898
47084W        W13493  39.406  37.051   1.355
47085W        W13494  44.902  26.675   0.508
47086W        W13495  20.621   3.078  14.091
47087W        W13496  33.466  33.420  13.960
47088W        W13497  17.723  12.348  12.597
47089W        W13498  27.659   3.349  13.257
47090W        W13499  29.849   5.521   2.198
47091W        W13500  36.981  22.447  12.764
47092W        W13501  12.505  43.444   4.575
47093W        W13502  24.960  10.337  13.807
47094W        W13503  37.939  24.265  13.785
47095W        W13504  15.065  11.244   2.136
47096W        W13505   7.150  43.926  12.834
47097W        W13506  20.960  12.289   0.343
47098W        W13507  12.579   4.687  11.178
47099W        W13508  27.693   5.712  12.995
47100W        W13509  11.501  29.146   4.110
47101W        W13510  12.284  19.821   0.545
47102W        W13511  44.493  22.220   3.222
47103W        W13512  39.771  40.407   4.678
47104W        W13513  22.996  13.287   1.361
47105W        W13514  25.401  27.032  11.488
47106W        W13515  23.634  13.161  10.661
47107W        W13516  22.268   1.856   0.781
47108W        W13517  24.984  36.501   0.080
47109W        W13518  26.741  31.087  11.141
47110W        W13519   3.207  42.823   3.312
47111W        W13520  11.702  41.857   0.618
47112W        W13521  36.024  26.900   0.514
47113W        W13522  32.085  38.081   3.466
47114W        W13523   6.317  21.548   1.899
47115W        W13524  17.386  29.594   0.948
47116W        W13525  24.766  34.817  14.070
47117W        W13526  26.650   7.994  10.623
47118W        W13527  34.656  25.756   0.909
47119W        W13528  16.909  42.517  12.167
47120W        W13529  44.078  24.145  12.002
47121W        W13530   5.354  40.852   4.398
47122W        W13531  26.408   2.004  10.638
47123W        W13532  38.360  20.395  11.722
47124W        W13533   9.611  39.887   1.417
47125W        W13534  41.858  37.802   0.376
47126W        W13535  10.394  35.917   1.935
47127W        W13536  43.754  39.989  14.862
47128W        W13537   0.810  31.129  11.527
47129W        W13538  44.395  35.739   2.436
47130W        W13539  41.503  33.266   3.625
47131W        W13540  14.948  29.728   3.235
47132W        W13541   7.270  14.582   4.566
47133W        W13542  22.955  28.841  14.409
47134W        W13543  10.056  33.456  13.861
47135W        W13544   1.059  41.008   1.746
47136W        W13545   8.801   0.130   2.399
47137W        W13546  12.823  26.900  14.093
47138W        W13547  34.575  44.445  10.467
47139W        W13548   7.613  33.064   9.721
47140W        W13549  31.982  44.838   1.153
47141W        W13550  13.596  27.447   3.495
47142W        W13551  28.644  35.120   4.247
47143W        W13552  23.641  37.112   2.692
47144W        W13553  43.210  26.159   4.502
47145W        W13554  18.218  15.712   3.656
47146W        W13555   7.879  11.641  12.971
47147W        W13556   3.729  26.213  14.532
47148W        W13557   8.146   6.790  14.244
47149W        W13558  39.501  33.009   3.936
47150W        W13559  16.617  28.188   2.692
47151W        W13560  31.313   0.288   4.110
47152W        W13561  24.810   6.309  13.747
47153W        W13562   0.035  11.906   2.117
47154W        W13563  24.622  31.047   3.881
47155W        W13564   2.780   8.070   3.641
47156W        W13565   8.290   1.689   4.853
47157W        W13566  28.719   4.506  14.755
47158W        W13567  16.729  40.439  12.997
47159W        W13568   2.645  34.035  11.573
47160W        W13569   9.342  36.863   3.111
47161W        W13570  43.074   4.565   4.297
47162W        W13571   4.357  18.852  13.839
47163W        W13572  38.541   6.918   1.464
47164W        W13573   1.484  28.733   3.053
47165W        W13574   5.830  12.618  11.607
47166W        W13575  19.484  27.561  10.792
47167W        W13576  33.080  32.646  10.382
47168W        W13577  19.279  29.428   1.224
47169W        W13578  42.729  22.666   4.966
47170W        W13579  22.032  22.973   2.903
47171W        W13580  13.761  12.274  14.368
47172W        W13581   0.819  28.978  11.537
47173W        W13582  30.939  27.104  10.670
47174W        W13583   5.127   2.408  14.818
47175W        W13584  18.630  20.544  13.768
47176W        W13585  12.158  43.313   3.668
47177W        W13586   0.992  31.210   4.845
47178W        W13587  37.825  36.562   0.267
47179W        W13588  26.749  29.607  14.383
47180W        W13589  34.029  17.074   0.243
47181W        W13590  27.249  26.935  12.476
47182W        W13591  41.626   1.500   3.072
47183W        W13592  15.543  32.365  11.563
47184W        W13593  12.314  20.080  14.266
47185W        W13594  10.173  40.450   0.282
47186W        W13595   7.479   7.815  11.271
47187W        W13596  12.622   5.487  13.022
47188W        W13597  18.739  32.553  13.839
47189W        W13598  12.527  26.957   0.008
47190W        W13599  27.548  35.811   4.682
47191W        W13600   0.363  30.566  12.731
47192W        W13601  13.247  34.380  13.846
47193W        W13602  27.365  40.054  12.580
47194W        W13603   8.827  31.641  13.467
47195W        W13604  22.334   7.522  12.925
47196W        W13605  12.797  43.989   0.373
47197W        W13606  26.237  25.731   1.282
47198W        W13607  32.208   8.894  14.836
47199W        W13608  25.608   6.399   2.163
47200W        W13609   6.642  10.279  12.002
47201W        W13610   0.436  40.026  13.353
47202W        W13611  23.253  35.103   2.097
47203W        W13612  13.239  31.922  13.808
47204W        W13613  20.753   6.439   3.356
47205W        W13614   6.161  36.618   1.241
47206W        W13615  10.036  35.522   1.090
47207W        W13616  38.694  41.014  12.776
47208W        W13617  25.381  20.752  10.085
47209W        W13618  36.723   2.007  11.763
47210W        W13619  25.984   1.433  11.146
47211W        W13620   4.770  32.706  13.124
47212W        W13621  43.023  27.545  11.970
47213W        W13622  18.655  20.163   1.138
47214W        W13623   1.560  35.499   1.833
47215W        W13624   2.098  16.118   0.847
47216W        W13625  33.465  24.904  10.697
47217W        W13626  28.824  38.466   4.485
47218W        W13627   3.530   9.694  14.008
47219W        W13628  10.615  34.339  13.324
47220W        W13629   0.489  24.784   4.075
47221W        W13630  28.601   2.626   4.238
47222W        W13631  43.576  18.939  11.515
47223W        W13632  42.007  14.065  12.182
47224W        W13633  36.817   0.060   4.081
47225W        W13634  39.577   5.498  13.927
47226W        W13635  10.697  33.599   1.765
47227W        W13636  32.664   7.475  11.379
47228W        W13637   3.490   7.723   2.448
47229W        W13638  26.925  30.876  14.944
47230W        W13639  22.061  25.023   1.122
47231W        W13640   2.654  22.298  12.976
47232W        W13641  31.657   5.521   1.191
47233W        W13642  37.985  28.262   0.255
47234W        W13643  15.661  38.303   0.778
47235W        W13644  12.789  15.437  12.088
47236W        W13645  33.020  37.892  11.741
47237W        W13646  23.115  36.798  12.517
47238W        W13647   4.259   2.947  13.420
47239W        W13648  10.541  16.752   1.432
47240W        W13649   2.395   0.557  14.383
47241W        W13650  27.225  23.422   5.158
47242W        W13651   9.202  21.056   4.825
47243W        W13652   0.597  20.768   3.687
47244W        W13653  21.736   9.674   3.080
47245W        W13654  10.624  37.640  12.556
47246W        W13655   1.830  42.870  10.922
47247W        W13656  27.536   2.230   1.259
47248W        W13657  26.205   6.262  10.557
47249W        W13658  21.601  10.442  12.941
47250W        W13659  12.679  22.520   0.453
47251W        W13660  34.210  35.732  11.519
47252W        W13661   5.650  18.596  12.625
47253W        W13662  41.838  29.419   1.854
47254W        W13663  14.618  15.526   1.849
47255W        W13664  12.052  30.010  11.104
47256W        W13665  20.036  26.769   4.231
47257W        W13666  39.646  44.463  12.591
47258W        W13667  14.351  15.664  12.551
47259W        W13668   6.405   4.931  13.960
47260W        W13669  39.465   8.872  10.852
47261W        W13670  27.820  12.289   5.491
47262W        W13671   3.759  15.778  12.603
47263W        W13672  24.707  38.630  13.397
47264W        W13673  27.125  36.100   4.911
47265W        W13674  23.702  37.595   3.655
47266W        W13675  39.799  34.113   1.358
47267W        W13676   3.288  24.862   2.158
47268W        W13677  23.581   3.690   1.485
47269W        W13678   2.884   1.764  13.608
47270W        W13679  30.893  39.641  14.925
47271W        W13680  24.974   5.456   2.747
47272W        W13681   5.668  15.587   2.820
47273W        W13682  23.790  28.597  12.480
47274W        W13683  32.841  44.273   0.388
47275W        W13684  26.002  25.338  10.691
47276W        W13685   8.393  10.628   3.198
47277W        W13686  11.157  35.635   4.328
47278W        W13687  12.172  27.447  13.361
47279W        W13688  36.792  36.468   0.751
47280W        W13689  13.689  35.847   0.458
47281W        W13690  14.034   8.598   4.473
47282W        W13691   5.334  41.340   2.651
47283W        W13692  33.947  30.877   3.274
47284W        W13693  29.000  43.804  12.745
47285W        W13694  13.817   2.120   4.970
47286W        W13695  43.119   3.338   4.087
47287W        W13696  32.565  28.894  12.124
47288W        W13697  13.604  39.905  14.030
47289W        W13698  13.240   1.801  14.008
47290W        W13699   3.274   9.348   2.263
47291W        W13700  23.586  23.263  10.435
47292W        W13701  29.889  39.953  12.903
47293W        W13702  39.029   4.529  11.603
47294W        W13703   6.740  43.609  12.188
47295W        W13704  41.029  16.877   4.918
47296W        W13705  36.491  15.666   0.404
47297W        W13706  18.999  17.679   1.383
47298W        W13707  32.944  22.936  13.563
47299W        W13708   0.372  21.266   4.745
47300W        W13709  13.055  27.079   1.313
47301W        W13710  34.649  17.323  10.725
47302W        W13711  33.052   0.834  14.962
47303W        W13712   7.952  23.822  14.188
47304W        W13713  40.518  43.344  11.511
47305W        W13714   1.406  11.697  11.497
47306W        W13715  39.308  37.410   2.203
47307W        W13716  10.767  12.742  11.667
47308W        W13717   8.190   0.061  12.790
47309W        W13718  20.577  14.773  13.315
47310W        W13719  41.911  22.118  12.863
47311W        W13720  42.155  16.137   3.381
47312W        W13721  19.094  26.484   4.402
47313W        W13722  23.198  40.869  13.395
47314W        W13723   5.457  25.012   3.179
47315W        W13724  11.961   4.759   0.898
47316W        W13725  17.144   9.460   2.674
47317W        W13726  23.609   5.886   4.181
47318W        W13727  38.322  25.666   1.141
47319W        W13728  27.635  33.860   4.269
47320W        W13729  10.759   7.841   0.426
47321W        W13730  22.215  19.255   0.040
47322W        W13731  16.961  31.612  11.994
47323W        W13732  21.664  36.669   0.514
47324W        W13733  42.445  30.485  14.357
47325W        W13734  31.379  14.875  12.029
47326W        W13735  30.641   5.829  13.584
47327W        W13736  12.858  38.416  11.102
47328W        W13737  30.375   6.185  12.783
47329W        W13738  12.851  32.399  14.333
47330W        W13739  21.777  36.027   3.236
47331W        W13740  22.246  37.022  14.915
47332W        W13741  29.035  23.962   0.186
47333W        W13742  11.277   6.218  11.584
47334W        W13743  18.011  17.069  13.952
47335W        W13744   3.909  36.800  13.076
47336W        W13745  43.893  13.152  10.687
47337W        W13746  10.394  17.673   3.678
47338W        W13747  31.490  15.619   0.389
47339W        W13748   5.956  21.552   0.362
47340W        W13749  26.705  19.233   4.542
47341W        W13750  17.586   5.236   1.167
47342W        W13751  15.856  10.836  14.469
47343W        W13752   0.965   0.696   4.829
47344W        W13753  39.994  13.296   3.584
47345W        W13754  10.394  25.619   0.791
47346W        W13755  24.241   1.953   0.026
47347W        W13756  43.732  32.265  13.636
47348W        W13757  43.675  28.665  13.373
47349W        W13758  13.808  22.710  12.399
47350W        W13759   6.247  42.997  13.329
47351W        W13760  15.579   6.342   0.797
47352W        W13761   5.343  26.341   4.659
47353W        W13762   1.917  42.957   3.378
47354W        W13763  31.205  44.375   2.910
47355W        W13764  28.633  44.041  13.018
47356W        W13765  17.770  36.485  10.795
47357W        W13766   9.159   6.798  12.042
47358W        W13767   0.856  23.204  10.699
47359W        W13768  22.316  34.890   3.860
47360W        W13769  44.628   3.814   4.916
47361W        W13770   7.600  19.617   4.278
47362W        W13771   6.875  13.247  12.075
47363W        W13772  28.537  15.607   0.447
47364W        W13773  23.136  40.244  11.686
47365W        W13774   0.339  41.929   0.366
47366W        W13775   7.433  14.700  14.377
47367W        W13776   0.934   7.711  11.915
47368W        W13777  15.632  31.012   4.978
47369W        W13778  43.998  13.293  10.210
47370W        W13779  25.450  33.918  14.787
47371W        W13780  18.647  26.550   0.783
47372W        W13781  24.253  36.982   3.220
47373W        W13782  34.633   6.285  11.531
47374W        W13783  14.206  29.585   2.896
47375W        W13784  36.961  43.437  11.205
47376W        W13785  33.966  12.744   4.074
47377W        W13786  12.237   6.064   3.701
47378W        W13787   3.509  15.376  12.859
47379W        W13788  10.071  19.603   5.049
47380W        W13789   8.781  26.465   4.317
47381W        W13790  32.991  42.378   4.636
47382W        W13791  42.328  42.178   1.704
47383W        W13792  38.022   4.229   0.856
47384W        W13793  15.623  16.109  14.513
47385W        W13794  15.759  17.200   4.972
47386W        W13795  35.981   4.853  14.774
47387W        W13796  40.279  16.109   0.350
47388W        W13797  18.767   2.803   1.171
47389W        W13798  12.290  29.907   3.875
47390W        W13799  29.649  34.622   1.394
47391W        W13800  44.881   2.384   4.376
47392W        W13801   9.183  21.510   1.392
47393W        W13802   7.024   7.257  13.789
47394W        W13803  31.042  12.813   2.621
47395W        W13804  24.653   0.015   4.080
47396W        W13805  16.538  44.730  10.798
47397W        W13806  44.908  43.246  14.510
47398W        W13807   7.432  34.478  12.598
47399W        W13808  18.067  25.501   1.993
47400W        W13809  41.081  15.563   0.374
47401W        W13810  37.731  33.932   1.795
47402W        W13811   8.915  42.957   2.744
47403W        W13812  13.537  40.457  14.241
47404W        W13813  12.605  25.088  11.065
47405W        W13814  39.642  41.892   0.894
47406W        W13815  37.951  12.073   4.581
47407W        W13816  44.487  37.749   4.576
47408W        W13817  38.356  26.298   4.931
47409W        W13818  42.337  39.399   2.181
47410W        W13819   1.838  44.470   1.468
47411W        W13820   2.775   0.330   4.800
47412W        W13821  28.060  42.869   4.761
47413W        W13822  44.357  31.656  14.033
47414W        W13823  36.438  27.236  10.521
47415W        W13824  31.700  27.587   5.013
47416W        W13825   5.666   3.141  13.500
47417W        W13826  40.491   9.352  13.049
47418W        W13827  44.948   1.256  12.572
47419W        W13828  21.281   3.450  10.635
47420W        W13829  16.713  19.629   1.030
47421W        W13830  27.515  35.428   3.057
47422W        W13831   4.098  44.483  14.720
47423W        W13832   7.738   6.715  12.255
47424W        W13833   8.318  29.113  14.030
47425W        W13834  30.982  14.079   4.676
47426W        W13835  12.828  42.596  14.380
47427W        W13836  19.125  23.003  13.356
47428W        W13837  26.936  31.548  14.317
47429W        W13838  34.966  37.972  13.131
47430W        W13839  29.789  19.629  11.454
47431W        W13840   9.054  26.966   2.786
47432W        W13841  13.300  30.495  13.735
47433W        W13842  22.468  44.432  12.628
47434W        W13843  29.877  33.877  14.283
47435W        W13844   3.750  41.684   0.677
47436W        W13845  19.374   0.344   3.197
47437W        W13846  18.309  36.525  13.543
47438W        W13847  41.338  13.091   4.657
47439W        W13848  15.872  26.197   1.274
47440W        W13849  17.080  25.170   4.587
47441W        W13850   2.352  16.400  11.606
47442W        W13851   0.992  28.914   3.134
47443W        W13852  44.629   0.205  14.472
47444W        W13853  16.580  20.430   1.694
47445W        W13854  24.185   7.182  14.365
47446W        W13855  16.406  35.330   4.367
47447W        W13856  29.544  29.640   1.435
47448W        W13857  16.694  33.829  13.107
47449W        W13858  24.649   1.702  12.036
47450W        W13859  31.404  16.784   0.834
47451W        W13860   5.128  20.558   1.720
47452W        W13861   8.428  38.148  14.336
47453W        W13862  36.309  36.572   1.596
47454W        W13863   6.399  23.096   4.969
47455W        W13864  23.762   8.733   0.343
47456W        W13865  17.019  41.313  14.036
47457W        W13866  25.581  14.103   1.624
47458W        W13867  14.244  42.510  11.173
47459W        W13868   9.942   5.898  11.054
47460W        W13869   1.356   4.720  10.198
47461W        W13870  28.442  20.933   2.172
47462W        W13871  25.432  29.915   0.908
47463W        W13872  43.787  15.649   3.225
47464W        W13873   3.924   0.990  10.329
47465W        W13874   6.450  26.657  12.417
47466W        W13875   8.248   1.868   3.372
47467W        W13876   4.324  27.062   4.080
47468W        W13877  34.206  27.829  10.969
47469W        W13878  26.850  31.957   2.791
47470W        W13879  28.273  41.883  11.459
47471W        W13880  19.732   4.889  11.167
47472W        W13881  38.825  11.121   2.328
47473W        W13882  44.256  37.405  12.052
47474W        W13883  28.654  25.701   4.585
47475W        W13884   0.434   4.874   4.790
47476W        W13885  24.032   4.002  12.281
47477W        W13886  20.269   4.359   4.146
47478W        W13887  23.585  42.439   1.960
47479W        W13888  35.762  26.644  10.595
47480W        W13889   3.520   7.639   0.467
47481W        W13890   6.271  11.233   2.435
47482W        W13891   5.236  26.505   4.188
47483W        W13892  28.507   8.555   0.591
47484W        W13893  10.102  22.342  10.046
47485W        W13894  33.906   2.234   2.731
47486W        W13895  28.906  14.027   0.822
47487W        W13896  15.679  22.459   2.086
47488W        W13897  39.940  42.298  13.507
47489W        W13898  44.525   5.200   2.298
47490W        W13899   9.891  36.586  11.918
47491W        W13900  37.093  28.810  14.452
47492W        W13901  35.861   1.948   2.594
47493W        W13902  31.601  35.948   4.099
47494W        W13903   4.010  37.351   1.320
47495W        W13904  21.946   8.529   3.390
47496W        W13905   8.089  22.036  14.343
47497W        W13906  12.219  40.523  12.426
47498W        W13907  17.547  21.134  10.524
47499W        W13908  25.057   5.806  11.865
47500W        W13909   4.514  16.702  13.597
47501W        W13910   3.010   1.009   2.447
47502W        W13911   0.883  33.071   0.021
47503W        W13912  14.192  27.481  10.723
47504W        W13913   6.542   5.694  10.605
47505W        W13914  30.561  32.917  11.605
47506W        W13915  41.498  26.612   3.543
47507W        W13916  41.551   6.707  10.674
47508W        W13917  41.999   7.209  14.519
47509W        W13918  44.291  17.164  13.816
47510W        W13919  21.599  20.956  12.247
47511W        W13920  27.473  24.047   1.467
47512W        W13921   7.532  22.174  10.736
47513W        W13922  17.605  10.409   1.820
47514W        W13923  26.194   0.209   4.887
47515W        W13924  37.585  28.995  12.924
47516W        W13925  32.861  36.816  12.830
47517W        W13926   3.427  38.893  11.518
47518W        W13927  42.349  32.814   1.221
47519W        W13928   6.973  29.086   4.389
47520W        W13929  38.578  22.209   5.086
47521W        W13930  17.470  30.021   1.225
47522W        W13931  18.988  40.518   3.103
47523W        W13932  32.513   0.739   3.649
47524W        W13933  32.093  33.511  14.921
47525W        W13934  27.408  44.318   4.901
47526W        W13935  31.676  10.144  12.615
47527W        W13936  38.361  12.574   0.424
47528W        W13937  28.752  15.749   3.163
47529W        W13938  44.277  26.030  11.150
47530W        W13939  35.802  19.298   4.175
47531W        W13940  31.454  13.591   4.521
47532W        W13941  11.137  20.721  13.937
47533W        W13942  30.224   1.643   2.810
47534W        W13943  30.241  17.326   1.988
47535W        W13944  17.787   0.268  12.100
47536W        W13945  12.890  16.283  13.878
47537W        W13946   0.816  32.553  14.052
47538W        W13947  20.140  33.658  12.581
47539W        W13948  10.722  30.066  11.567
47540W        W13949   1.997  33.430  11.593
47541W        W13950  23.485  32.484  14.574
47542W        W13951  23.596   0.804   0.696
47543W        W13952  30.246  18.616  12.067
47544W        W13953  10.924  30.182   2.221
47545W        W13954  38.008  37.693  14.475
47546W        W13955  24.261   0.194   3.189
47547W        W13956  35.644  43.232  11.648
47548W        W13957   0.019  29.342  12.561
47549W        W13958  13.458  24.509  10.993
47550W        W13959  40.291   5.674  14.528
47551W        W13960  28.944  22.045   2.905
47552W        W13961  22.959  15.327  14.818
47553W        W13962   6.084  26.160   0.240
47554W        W13963  23.871  38.953  14.061
47555W        W13964  22.655  15.862   0.379
47556W        W13965  41.937  10.182  13.339
47557W        W13966  11.593   9.667  12.064
47558W        W13967  12.840  14.936  12.115
47559W        W13968  41.867  22.272  10.920
47560W        W13969   3.277  22.724  13.733
47561W        W13970   1.948  43.390  12.011
47562W        W13971   9.208   2.677  12.815
47563W        W13972   6.180  28.600   0.472
47564W        W13973  10.928   4.934  14.931
47565W        W13974   0.014  12.586  12.440
47566W        W13975  43.248   2.523  12.051
47567W        W13976   9.254   5.452   1.354
47568W        W13977  19.860  25.867  11.140
47569W        W13978  31.870  39.412   3.744
47570W        W13979   9.432  29.979   3.665
47571W        W13980   4.433   1.177   2.646
47572W        W13981   6.261  22.597   3.212
47573W        W13982  35.875  22.199   1.813
47574W        W13983   4.478  34.701  14.572
47575W        W13984   7.901  34.461  13.946
47576W        W13985  42.249  41.669   1.772
47577W        W13986   0.094  10.533   4.512
47578W        W13987  39.303   7.358   0.949
47579W        W13988  44.485  11.728  13.111
47580W        W13989  29.197  22.935  12.852
47581W        W13990  12.779  38.056  14.385
47582W        W13991  23.783  28.569   4.537
47583W        W13992  22.751  35.948   4.567
47584W        W13993  20.128  12.841   5.171
47585W        W13994   6.207  28.294  14.482
47586W        W13995  34.012  20.457   1.779
47587W        W13996  37.780  39.479   0.371
47588W        W13997  21.597  17.375  13.380
47589W        W13998  15.356  26.265   2.647
47590W        W13999   9.269   6.198  13.809
47591W        W14000  18.983  24.582  13.579
47592W        W14001  31.181  24.663   0.755
47593W        W14002  16.986   4.744  14.831
47594W        W14003  29.124  26.885   2.401
47595W        W14004  29.653  36.339  10.733
47596W        W14005  11.184  37.412  13.485
47597W        W14006  35.852  35.865  11.140
47598W        W14007  22.623  34.505   3.739
47599W        W14008  23.642  30.977  13.764
47600W        W14009   6.674  20.978   4.827
47601W        W14010  38.346   7.761  12.273
47602W        W14011   3.074  26.646  10.454
47603W        W14012   0.439  26.703   0.515
47604W        W14013   6.117  11.694   2.637
47605W        W14014  33.068  22.307  12.238
47606W        W14015   1.781   8.806  10.368
47607W        W14016  12.423  20.547  14.480
47608W        W14017  44.997  28.408   4.548
47609W        W14018   4.401  16.435  14.046
47610W        W14019  20.220  15.379  11.579
47611W        W14020  13.965  39.191   3.751
47612W        W14021   0.478   7.064   0.954
47613W        W14022  11.069   4.197   2.754
47614W        W14023  12.900  26.933   2.880
47615W        W14024  31.396  20.953   1.472
47616W        W14025  13.192  13.426   1.318
47617W        W14026   5.445  13.619   2.941
47618W        W14027  17.192   4.731   5.131
47619W        W14028  11.951  10.158   9.970
47620W        W14029  32.188  24.565  11.176
47621W        W14030  18.282  20.733  11.559
47622W        W14031  16.331  14.648  13.225
47623W        W14032  27.022  17.138   1.254
47624W        W14033  26.542  26.502   4.338
47625W        W14034  23.059  12.313  10.651
47626W        W14035  37.579  42.809  13.383
47627W        W14036  15.251  26.217   0.080
47628W        W14037  24.701   1.058  12.596
47629W        W14038  35.894  16.284   3.737
47630W        W14039  12.662  26.698  14.544
47631W        W14040  24.799   5.711  10.695
47632W        W14041  34.209  25.537  11.612
47633W        W14042   3.676  38.767   0.649
47634W        W14043  26.114   8.663   0.326
47635W        W14044  22.215  33.096  11.682
47636W        W14045  11.783  42.156  10.785
47637W        W14046   2.797  23.991   0.193
47638W        W14047   3.386  38.683  13.682
47639W        W14048  22.790  44.006  11.962
47640W        W14049  32.132   9.330  11.204
47641W        W14050  31.001  23.425   9.914
47642W        W14051  37.924   8.890   2.281
47643W        W14052  33.712  33.694  14.884
47644W        W14053   1.321  19.339   0.360
47645W        W14054  11.133  38.153   3.133
47646W        W14055  23.344  25.638  11.065
47647W        W14056  12.347  25.492  14.843
47648W        W14057  19.888  15.589   2.947
47649W        W14058  22.818   6.335  13.878
47650W        W14059   7.277   7.261  14.247
47651W        W14060  13.370  26.645  12.529
47652W        W14061  34.866  20.196   1.732
47653W        W14062  34.983  32.538   4.195
47654W        W14063  20.643   7.672   1.286
47655W        W14064  15.614  25.204  12.066
47656W        W14065   4.717  26.146  13.905
47657W        W14066  43.291  13.849   0.041
47658W        W14067  30.571   3.936  11.107
47659W        W14068  21.735  40.894   3.187
47660W        W14069  42.041  25.121   4.090
47661W        W14070  28.399  21.651   3.832
47662W        W14071   4.277  38.522   1.781
47663W        W14072  11.185  26.885  13.068
47664W        W14073   3.388  28.456   2.786
47665W        W14074  22.290   2.930   4.639
47666W        W14075  39.048  22.018   3.172
47667W        W14076  30.619  11.684  11.005
47668W        W14077  18.796  28.981   0.336
47669W        W14078  24.505  26.633   2.514
47670W        W14079  12.165  29.776  11.582
47671W        W14080  15.485   3.069  12.602
47672W        W14081  13.197  21.860  10.341
47673W        W14082  18.998   2.727  14.959
47674W        W14083  35.451  31.767   4.779
47675W        W14084  15.635  13.388   1.917
47676W        W14085   5.239  39.365   3.916
47677W        W14086   1.548  15.914  14.793
47678W        W14087  18.242  19.111   4.470
47679W        W14088  18.651   4.441   1.788
47680W        W14089  15.627  20.984  12.808
47681W        W14090  35.875  21.978  13.460
47682W        W14091  38.856  33.047  14.059
47683W        W14092  13.800  38.503  12.430
47684W        W14093  16.758   7.644   1.188
47685W        W14094  21.225  19.013  13.943
47686W        W14095  41.072  21.159   1.322
47687W        W14096   1.804  42.733   3.832
47688W        W14097   1.896  13.299   2.412
47689W        W14098   0.928  37.992   1.775
47690W        W14099  28.043   4.640   1.885
47691W        W14100  19.282  40.417  10.745
47692W        W14101  20.753  24.289  14.327
47693W        W14102  14.575   6.240   0.856
47694W        W14103  33.750  39.569   3.751
47695W        W14104  27.482   0.083   2.809
47696W        W14105   8.817  27.432   0.931
47697W        W14106  29.957  21.918  13.890
47698W        W14107  29.982  21.988   0.968
47699W        W14108  44.031  13.588   4.520
47700W        W14109  41.967  42.955   4.502
47701W        W14110  34.545  34.963  11.566
47702W        W14111  16.536   7.303   3.196
47703W        W14112   6.510   3.394  11.497
47704W        W14113  27.085  22.102   3.004
47705W        W14114  33.444  30.014  13.350
47706W        W14115   0.333  29.347  12.108
47707W        W14116  37.617  29.145  13.851
47708W        W14117  35.105  32.069  13.295
47709W        W14118  17.009  33.143  11.130
47710W        W14119  42.682  20.233  12.986
47711W        W14120  29.462  18.053   1.171
47712W        W14121  29.345  30.445  12.510
47713W        W14122   7.735   6.195  12.535
47714W        W14123  16.155  44.035   1.137
47715W        W14124  10.640   4.526  14.045
47716W        W14125  30.894  42.805  13.869
47717W        W14126  42.396  42.563   0.243
47718W        W14127  16.600  20.625  14.877
47719W        W14128   9.130  23.090   3.820
47720W        W14129  22.830  15.482  11.540
47721W        W14130  27.031  15.620  14.407
47722W        W14131   1.731  38.407   3.536
47723W        W14132  24.569  31.882  12.516
47724W        W14133  37.065  31.197   1.186
47725W        W14134  40.266  32.326   2.791
47726W        W14135  11.831  25.641  11.274
47727W        W14136  11.638  32.884   0.677
47728W        W14137  27.110  18.553  14.405
47729W        W14138   7.198  44.320  11.686
47730W        W14139   9.820  44.977   4.548
47731W        W14140  37.898   0.093  13.278
47732W        W14141  29.984  14.196   3.897
47733W        W14142  41.074  18.267   3.266
47734W        W14143  25.131  44.744   1.337
47735W        W14144  38.644  26.087  13.522
47736W        W14145   2.268  32.553   4.386
47737W        W14146  39.676  10.748  11.105
47738W        W14147  10.378  10.003  10.361
47739W        W14148  30.678  22.200   3.790
47740W        W14149  11.394   5.789   0.976
47741W        W14150  13.451  26.105   2.306
47742W        W14151  29.062  33.857  12.315
47743W        W14152  36.435  23.507  14.345
47744W        W14153  36.586  38.485   1.215
47745W        W14154  21.591  38.150   0.211
47746W        W14155  25.679  43.009   3.047
47747W        W14156  28.872  22.362  14.986
47748W        W14157  25.544  41.199  14.901
47749W        W14158   5.369   8.107  11.745
47750W        W14159  43.392  33.501   1.907
47751W        W14160  27.985  12.258  10.729
47752W        W14161  14.185  10.829  13.533
47753W        W14162  30.767  31.867   2.697
47754W        W14163  30.426  38.253   0.862
47755W        W14164   6.477  22.785   3.713
47756W        W14165  40.600  22.698  14.611
47757W        W14166  22.433  16.787   4.132
47758W        W14167   3.626  32.540  11.149
47759W        W14168   2.409  10.923   4.098
47760W        W14169  21.742  41.166  11.064
47761W        W14170  31.296  43.377  11.662
47762W        W14171  42.579  31.922   1.453
47763W        W14172   0.939  28.050   1.153
47764W        W14173  41.966  26.647   3.303
47765W        W14174   9.475   6.433   3.714
47766W        W14175  34.922  23.046  11.397
47767W        W14176  20.350   5.862   2.772
47768W        W14177  32.500  24.513   2.744
47769W        W14178   8.680  21.000  12.341
47770W        W14179  15.129   6.716  14.906
47771W        W14180  33.495  40.492  12.400
47772W        W14181  12.903  39.102  12.381
47773W        W14182  18.324  26.198  14.021
47774W        W14183  31.010  38.968  10.361
47775W        W14184   1.372  32.375  14.831
47776W        W14185  30.830  33.352   0.812
47777W        W14186   5.772  41.425  13.387
47778W        W14187  43.814  25.764  11.083
47779W        W14188  26.926  35.010   1.966
47780W        W14189  25.004  38.504   5.176
47781W        W14190  35.418   8.777  11.972
47782W        W14191  31.596  25.665   2.329
47783W        W14192  33.049  24.875  14.815
47784W        W14193  25.241   8.279   3.644
47785W        W14194   6.948   7.214   1.845
47786W        W14195  11.636  30.549   1.757
47787W        W14196  23.704  11.590  12.887
47788W        W14197   5.092   6.493  11.939
47789W        W14198  24.492  26.591  12.406
47790W        W14199  38.922  27.864   0.457
47791W        W14200  17.044   3.394  14.212
47792W        W14201  19.080  23.651  13.069
47793W        W14202  40.885  31.977   4.770
47794W        W14203   0.226  27.156   1.789
47795W        W14204  42.984   3.170   2.633
47796W        W14205  44.246   6.141   1.733
47797W        W14206   3.810  10.725   0.303
47798W        W14207  29.545  42.479   3.328
47799W        W14208  14.699  18.423  11.981
47800W        W14209  27.492  22.019  13.130
47801W        W14210  16.158   4.951  12.076
47802W        W14211  12.760  25.637  14.518
47803W        W14212  37.219  35.657  12.948
47804W        W14213  24.020  27.652   3.436
47805W        W14214   9.931  22.508   1.265
47806W        W14215  24.687  32.588  14.975
47807W        W14216   8.725  18.194  14.013
47808W        W14217   5.220  41.043  13.051
47809W        W14218   7.157   2.578   4.611
47810W        W14219  10.609  17.028  11.772
47811W        W14220  39.050  10.565  13.366
47812W        W14221  11.280  13.613   3.695
47813W        W14222   0.168  40.333  12.365
47814W        W14223  38.789  41.776  10.671
47815W        W14224  35.068  35.849   0.311
47816W        W14225  11.887  19.108   1.755
47817W        W14226  40.290   7.839   2.199
47818W        W14227  17.243  27.063   2.554
47819W        W14228  41.887  35.076   2.437
47820W        W14229  11.763  28.379   2.648
47821W        W14230  22.542  38.488  14.084
47822W        W14231  27.909  41.365  14.282
47823W        W14232  39.827   7.780   1.266
47824W        W14233  44.767  22.866   1.669
47825W        W14234  41.418   1.267  13.530
47826W        W14235  11.706  44.200  10.078
47827W        W14236  36.295  16.833   0.468
47828W        W14237  39.357   4.824   4.513
47829W        W14238  27.305   2.974  13.068
47830W        W14239  12.870  31.599   2.569
47831W        W14240  35.515   2.816  14.271
47832W        W14241  38.333  43.423  14.784
47833W        W14242  20.748  43.170   4.567
47834W        W14243  37.389  38.605   3.227
47835W        W14244  24.493  15.656  14.084
47836W        W14245   6.708   6.014   4.112
47837W        W14246  33.139   6.139   3.319
47838W        W14247  35.363  17.897  13.225
47839W        W14248  24.932  24.185  12.965
47840W        W14249  28.352  34.674   4.936
47841W        W14250  31.985   3.742   2.227
47842W        W14251  23.249   3.008   2.682
47843W        W14252   9.468   5.191   0.900
47844W        W14253   1.728   1.270   1.613
47845W        W14254  29.842  42.219  14.839
47846W        W14255   2.836  44.065   3.993
47847W        W14256   4.094  39.041  14.425
47848W        W14257  23.002  32.081  10.389
47849W        W14258  15.559  31.464   0.212
47850W        W14259  21.864  20.500  13.774
47851W        W14260  34.249  33.858  13.268
47852W        W14261  38.288  28.083   1.232
47853W        W14262  29.447   5.164   2.243
47854W        W14263  27.641  33.677  14.302
47855W        W14264  38.633   6.844   0.513
47856W        W14265  33.059  19.063   2.807
47857W        W14266  12.840  23.703   0.825
47858W        W14267  32.952   5.288   5.001
47859W        W14268  29.016  14.552  14.906
47860W        W14269  22.078   2.162   0.405
47861W        W14270  23.425  23.567   3.572
47862W        W14271  44.764  41.077   3.648
47863W        W14272  41.866  11.504  10.678
47864W        W14273  39.364  12.810  12.256
47865W        W14274  40.970  10.727   0.357
47866W        W14275  43.948  39.167   2.927
47867W        W14276  33.064  31.453  11.647
47868W        W14277  44.858  14.233   3.321
47869W        W14278  31.831  34.493  10.763
47870W        W14279   5.258  18.811   2.136
47871W        W14280   6.222  14.788   4.597
47872W        W14281  28.123   4.214   3.282
47873W        W14282  44.846  10.955   3.244
47874W        W14283  30.163  17.035  14.510
47875W        W14284  16.978   6.552   4.850
47876W        W14285  41.836   3.355  10.997
47877W        W14286  39.482  39.398  10.897
47878W        W14287  16.464  26.656   0.765
47879W        W14288   2.666  29.048  14.492
47880W        W14289   2.487  19.771  11.145
47881W        W14290   9.149   4.239  11.188
47882W        W14291   4.812  12.597   1.233
47883W        W14292  28.038  31.055   4.926
47884W        W14293  10.161   8.750  10.827
47885W        W14294  17.148   5.236   4.341
47886W        W14295  31.633  42.585  13.534
47887W        W14296  41.586  10.689   4.574
47888W        W14297   8.273   3.758  13.349
47889W        W14298  24.713   0.059  13.786
47890W        W14299  21.575   5.450  12.471
47891W        W14300  37.182  32.394  12.160
47892W        W14301  31.627  21.476   3.260
47893W        W14302  11.405  38.541  14.482
47894W        W14303  37.297  37.990   1.396
47895W        W14304  16.798  22.315   4.869
47896W        W14305  35.076  33.582  14.306
47897W        W14306   7.805  44.398   2.217
47898W        W14307  38.986  36.734  10.689
47899W        W14308  12.757  32.718  13.929
47900W        W14309  40.328  27.751  14.979
47901W        W14310   9.856  16.021   0.857
47902W        W14311  35.437  22.215   0.006
47903W        W14312  12.284  15.555   1.937
47904W        W14313   2.724  37.071   1.060
47905W        W14314   9.805   0.276  10.818
47906W        W14315  34.443   5.225   1.993
47907W        W14316   8.267  25.631   1.742
47908W        W14317  23.106  15.251   1.177
47909W        W14318   7.895   5.904   1.317
47910W        W14319  20.452  18.595   0.224
47911W        W14320  21.141  10.217   9.965
47912W        W14321   7.183  22.315   4.650
47913W        W14322   7.814  37.116  12.471
47914W        W14323  41.550   6.341  13.448
47915W        W14324  21.746   6.434  11.980
47916W        W14325  16.905  43.394  11.856
47917W        W14326  35.140  20.553  12.396
47918W        W14327  40.410  11.271  12.400
47919W        W14328  13.170   8.490   0.557
47920W        W14329   0.520  13.816  13.886
47921W        W14330  23.212   1.626  13.505
47922W        W14331  14.183  41.580   3.663
47923W        W14332  24.994  15.785   1.264
47924W        W14333  44.504  27.801   2.862
47925W        W14334  26.743  44.459  10.295
47926W        W14335  37.015  16.592  11.502
47927W        W14336   7.625   8.397  13.008
47928W        W14337  18.807   0.979  11.634
47929W        W14338  37.593   3.830   4.491
47930W        W14339  16.079  40.969  14.844
47931W        W14340   6.741  39.405   2.345
47932W        W14341  35.449  20.549  13.917
47933W        W14342   1.896  43.783   3.736
47934W        W14343   7.430  29.312   3.773
47935W        W14344  30.457  31.169   0.391
47936W        W14345  10.848  28.044   0.961
47937W        W14346  42.096  40.453  13.996
47938W        W14347  38.144   4.331   0.341
47939W        W14348  40.774  14.730  11.836
47940W        W14349  11.586  28.081  12.116
47941W        W14350  13.191  10.262  10.748
47942W        W14351  15.584  13.659   4.632
47943W        W14352  16.713  23.118   3.110
47944W        W14353  15.274  34.623  11.930
47945W        W14354  30.596  20.336   2.236
47946W        W14355  34.435   0.831  13.060
47947W        W14356  44.342  25.113  14.627
47948W        W14357  13.803  35.144  13.425
47949W        W14358  23.241   4.710  12.154
47950W        W14359  39.723   1.678   3.252
47951W        W14360  31.138   6.218   2.801
47952W        W14361  37.118  30.395  10.547
47953W        W14362  41.702  26.297  12.538
47954W        W14363   7.949  38.900  11.121
47955W        W14364  36.709  26.662   1.849
47956W        W14365  15.031  11.093  13.056
47957W        W14366  32.968  31.189  14.159
47958W        W14367  26.991  27.640  13.011
47959W        W14368  16.082  24.555  12.442
47960W        W14369  37.569  20.884   4.404
47961W        W14370  22.863   6.213  10.127
47962W        W14371   2.067  32.491  14.451
47963W        W14372  14.517  42.468  14.164
47964W        W14373  12.278  34.602   4.511
47965W        W14374  28.227  19.185   1.496
47966W        W14375  18.102  43.839  11.241
47967W        W14376  30.916  31.215  11.174
47968W        W14377   4.916  12.576  11.692
47969W        W14378  43.476  13.718   3.158
47970W        W14379  32.968  17.122  13.781
47971W        W14380  36.528  28.356  11.429
47972W        W14381  16.865  38.591   0.007
47973W        W14382  17.200  21.665   0.549
47974W        W14383  11.178  43.741  13.872
47975W        W14384  39.745   2.592  13.917
47976W        W14385  23.036  33.688   1.316
47977W        W14386   8.937  27.630   4.806
47978W        W14387  28.569  43.884   3.364
47979W        W14388  34.692   3.817   0.832
47980W        W14389  15.437  18.829  11.528
47981W        W14390  42.807  43.908  11.587
47982W        W14391  31.444  28.899  14.847
47983W        W14392  36.224  25.164   0.856
47984W        W14393  31.935  35.436   1.541
47985W        W14394  40.095   4.387   1.701
47986W        W14395  14.660  33.630  10.157
47987W        W14396  30.811  27.680   2.228
47988W        W14397  24.792  22.060   0.665
47989W        W14398  19.660  19.682   4.059
47990W        W14399  36.635   1.490  11.675
47991W        W14400  38.587  30.444   3.380
47992W        W14401  19.053  15.861  14.362
47993W        W14402   6.684  39.481  11.943
47994W        W14403  16.561  40.735  14.081
47995W        W14404  21.259  43.944   0.715
47996W        W14405  30.177  20.915  14.018
47997W        W14406  31.947  17.961   4.333
47998W        W14407  30.197  13.889   2.689
47999W        W14408  20.000  29.071   1.421
48000W        W14409   3.217  27.369  11.087
48001W        W14410  37.018  11.089   1.847
48002W        W14411   6.193   2.729  12.289
48003W        W14412  25.521   4.499   0.762
48004W        W14413  44.042  15.828  10.542
48005W        W14414   2.320   6.648  11.961
48006W        W14415  21.422  26.232   1.082
48007W        W14416  17.071  42.227   4.659
48008W        W14417   4.640  36.212   0.309
48009W        W14418  34.031  39.862  12.193
48010W        W14419  29.374  44.300   0.369
48011W        W14420  41.107  32.142  14.933
48012W        W14421  37.431  22.482   0.442
48013W        W14422  14.140  19.849   1.657
48014W        W14423  12.146  16.019  12.889
48015W        W14424  43.795  36.080   1.809
48016W        W14425  16.308   3.861  14.349
48017W        W14426   0.223  24.341   4.118
48018W        W14427  33.531   6.809   0.833
48019W        W14428   4.414  16.078  14.421
48020W        W14429  10.875  35.103   1.908
48021W        W14430   4.039  13.239   3.714
48022W        W14431  20.997  40.394  14.549
48023W        W14432  37.515  33.405  11.449
48024W        W14433  39.855  39.555  13.870
48025W        W14434  38.558  28.569  12.213
48026W        W14435  13.252  16.142  13.116
48027W        W14436   6.689  34.404  12.926
48028W        W14437  34.936   6.626   4.185
48029W        W14438  33.974  13.894   1.958
48030W        W14439  33.358   0.335   0.552
48031W        W14440  17.910  28.248   2.301
48032W        W14441  43.254  22.679   4.275
48033W        W14442   5.687  39.392  14.272
48034W        W14443  42.569  28.166  11.036
48035W        W14444  27.493  20.008   2.328
48036W        W14445   7.314   4.849  12.047
48037W        W14446   2.455   0.858   3.679
48038W        W14447  16.695  17.406   2.837
48039W        W14448  29.935  19.559  12.848
48040W        W14449   5.270  20.905  11.043
48041W        W14450   1.315  21.230   4.031
48042W        W14451  23.764   8.795   2.306
48043W        W14452   3.339  20.799  12.922
48044W        W14453  15.917   7.111  13.034
48045W        W14454  26.312  25.567   5.007
48046W        W14455   4.887   5.363  13.393
48047W        W14456   7.971   9.239   0.148
48048W        W14457   8.421  30.071  12.132
48049W        W14458  22.218   8.379   1.357
48050W        W14459  11.662  30.471   4.599
48051W        W14460  42.481  38.880  12.089
48052W        W14461  35.580  17.493   1.665
48053W        W14462  34.599  35.081  10.747
48054W        W14463  44.697  27.683  11.561
48055W        W14464  22.076  40.595   2.903
48056W        W14465   6.485   2.197  13.483
48057W        W14466  18.285  26.639   0.428
48058W        W14467  26.467   3.511  14.984
48059W        W14468  28.342  17.387   2.350
48060W        W14469  23.114  22.932   1.365
48061W        W14470  27.070  12.209  13.114
48062W        W14471   0.853  29.456   2.853
48063W        W14472  15.391  35.890   4.109
48064W        W14473   0.258   4.775  14.062
48065W        W14474  21.836  22.596  13.124
48066W        W14475  43.029  38.529  10.771
48067W        W14476  31.067  37.309   0.191
48068W        W14477  21.559  17.806  10.618
48069W        W14478  42.946  30.470  14.462
48070W        W14479   1.491  42.733   3.235
48071W        W14480  16.503  31.817  12.095
48072W        W14481  23.998  12.159  14.554
48073W        W14482   4.943  11.678  10.378
48074W        W14483  42.731   5.451  14.875
48075W        W14484   5.747  41.932   3.097
48076W        W14485   8.869  38.928   4.408
48077W        W14486  13.726   6.395  11.889
48078W        W14487  39.483  40.003  11.911
48079W        W14488  37.807   6.490   1.834
48080W        W14489  38.152  21.496  13.574
48081W        W14490  32.574   2.475   3.301
48082W        W14491  36.621  40.407  13.583
48083W        W14492  21.616  23.264   1.365
48084W        W14493   8.010   6.078   2.453
48085W        W14494  27.563  24.019  13.968
48086W        W14495  37.794  15.278  14.982
48087W        W14496  13.334  10.649  12.175
48088W        W14497  36.480  14.652  12.705
48089W        W14498  31.707  12.245  10.854
48090W        W14499   3.465  17.085   2.246
48091W        W14500  20.469  37.191   3.158
48092W        W14501   9.325  24.461  12.403
48093W        W14502   6.225  18.071   4.464
48094W        W14503  39.538   9.912  13.317
48095W        W14504  20.438  26.712  14.852
48096W        W14505   9.821   0.031   1.938
48097W        W14506  39.470  30.821  14.032
48098W        W14507  15.844  31.224   3.677
48099W        W14508  18.171  26.957   0.941
48100W        W14509   4.150  42.941   4.492
48101W        W14510  20.019  28.538  11.440
48102W        W14511  43.533  41.597  13.833
48103W        W14512  19.507  15.640   3.960
48104W        W14513  14.659   3.515   4.184
48105W        W14514  43.012  11.973   9.745
48106W        W14515   4.673  17.244   2.791
48107W        W14516  36.435  12.639  11.564
48108W        W14517  24.015  40.890  12.999
48109W        W14518  11.149  29.072   1.637
48110W        W14519  37.692  17.975   9.710
48111W        W14520  14.794  37.405  12.954
48112W        W14521  33.171  24.210  14.532
48113W        W14522   0.581  41.361   0.395
48114W        W14523  17.505  10.658   0.492
48115W        W14524  25.207  31.047  12.167
48116W        W14525   1.050  37.407   4.168
48117W        W14526  15.375  35.929   9.953
48118W        W14527  34.804  30.065  12.003
48119W        W14528  28.925   9.764   0.819
48120W        W14529  28.049  11.078   9.754
48121W        W14530  33.183  42.690   4.261
48122W        W14531  11.559  31.543  14.310
48123W        W14532  13.753  19.199  11.121
48124W        W14533  25.221  24.661   1.887
48125W        W14534  28.517  10.882  14.903
48126W        W14535   8.273  28.574  13.075
48127W        W14536  17.282  23.211   1.629
48128W        W14537  39.600  19.088   4.194
48129W        W14538  27.452   1.348   2.105
48130W        W14539   3.976  18.336   1.802
48131W        W14540   0.932  37.192  12.718
48132W        W14541  21.172  35.889  13.675
48133W        W14542   2.423  27.537   4.169
48134W        W14543  36.527   6.895   3.371
48135W        W14544   4.197   3.455   4.052
48136W        W14545  14.168  16.765   4.300
48137W        W14546  35.161  10.940   4.656
48138W        W14547  25.652  35.957   2.860
48139W        W14548  19.180   9.379   4.019
48140W        W14549  35.087   8.253   1.333
48141W        W14550  37.096  30.782   1.509
48142W        W14551  21.064  32.964  12.219
48143W        W14552  35.602   0.256   1.964
48144W        W14553  39.311  38.405   2.296
48145W        W14554  21.520  26.415  11.422
48146W        W14555  32.378  30.952   0.311
48147W        W14556  25.969   3.231   0.706
48148W        W14557   1.799  30.503  14.831
48149W        W14558  22.616   0.307  13.034
48150W        W14559  20.506  26.431  14.392
48151W        W14560  17.758  16.561  11.122
48152W        W14561  21.910  11.763  12.105
48153W        W14562  22.863  44.056  10.612
48154W        W14563  44.918   2.709   0.826
48155W        W14564  36.418  25.466  11.020
48156W        W14565   3.892  18.224   0.883
48157W        W14566  39.437  29.455   2.257
48158W        W14567  14.156  29.104   0.601
48159W        W14568  14.799   6.294  13.159
48160W        W14569  26.600   1.851  11.463
48161W        W14570   9.152  12.040  14.890
48162W        W14571  41.004   1.274   2.344
48163W        W14572   7.792  14.828  11.990
48164W        W14573  26.545  29.189  11.414
48165W        W14574  39.999  33.100   1.122
48166W        W14575  34.753  14.658  10.720
48167W        W14576   3.831  15.240  14.546
48168W        W14577   1.494  31.579  12.021
48169W        W14578  24.637  35.518   2.923
48170W        W14579  14.763  27.124  14.263
48171W        W14580  33.883  11.194  13.972
48172W        W14581  24.911  15.432  13.426
48173W        W14582  33.567   1.003  12.846
48174W        W14583  35.901   5.509   3.154
48175W        W14584  31.966  29.155  13.846
48176W        W14585  26.790  15.178   0.997
48177W        W14586  14.114  14.323   0.149
48178W        W14587  36.100  40.311   3.648
48179W        W14588  39.291  19.619  14.040
48180W        W14589  16.869   6.296  13.044
48181W        W14590  33.557  21.559  10.410
48182W        W14591  22.735  28.271  14.487
48183W        W14592   7.420  12.805  12.886
48184W        W14593  26.729   1.400   2.665
48185W        W14594   2.453  25.364  11.983
48186W        W14595  31.603  37.956  12.246
48187W        W14596   0.447   5.514  12.938
48188W        W14597   1.243  10.632   2.998
48189W        W14598  38.968  16.750   3.772
48190W        W14599  20.992   8.122   2.149
48191W        W14600  23.724  11.641   1.257
48192W        W14601  12.430   3.652   4.588
48193W        W14602  15.296  19.808  10.146
48194W        W14603  44.384  18.980   1.925
48195W        W14604  22.901  17.263  11.153
48196W        W14605  15.598  37.949   3.656
48197W        W14606  16.715  40.887  11.657
48198W        W14607   2.315  30.922  10.523
48199W        W14608  13.019   4.939   3.664
48200W        W14609  29.228  14.400   4.533
48201W        W14610   0.336   7.371  11.836
48202W        W14611  24.464   7.875   0.284
48203W        W14612  26.650  16.242  14.520
48204W        W14613   3.821  16.377   1.776
48205W        W14614  37.791   9.084  12.043
48206W        W14615  39.415   5.368  14.972
48207W        W14616  34.080  42.445   4.611
48208W        W14617  32.080  21.049  14.549
48209W        W14618  22.800  17.997  11.725
48210W        W14619   0.685  31.151   2.303
48211W        W14620  25.206  14.632   4.233
48212W        W14621  14.737   3.149  11.935
48213W        W14622  23.697  12.130  11.513
48214W        W14623   4.749  14.316  10.407
48215W        W14624  15.953  39.553   5.027
48216W        W14625  22.587  33.798   3.250
48217W        W14626  14.710  28.791   0.904
48218W        W14627  23.512  40.960  12.995
48219W        W14628  29.635   9.813  11.955
48220W        W14629   4.475  28.381   0.209
48221W        W14630  43.394  17.686  12.561
48222W        W14631  35.859  22.084   0.289
48223W        W14632   3.293  43.556   3.694
48224W        W14633  27.093  23.253   0.433
48225W        W14634  25.975   4.206   0.718
48226W        W14635   4.955   4.802  12.222
48227W        W14636  40.674   5.079   3.439
48228W        W14637   1.779  12.298  13.270
48229W        W14638  43.823  44.453   1.879
48230W        W14639  32.332  36.856   3.737
48231W        W14640   1.934  13.761   5.185
48232W        W14641  11.660  18.896  12.864
48233W        W14642   8.259  32.338   3.260
48234W        W14643  24.506  18.500   1.236
48235W        W14644   0.756  14.166  11.370
48236W        W14645  23.038  10.873   4.471
48237W        W14646  11.412  29.983   3.935
48238W        W14647  33.395  34.559   0.271
48239W        W14648  28.632  27.229   4.090
48240W        W14649  35.143   2.209  13.930
48241W        W14650  13.216  42.257  12.596
48242W        W14651  18.157   8.922   0.541
48243W        W14652  32.692  35.116   0.411
48244W        W14653  39.013   3.389  13.469
48245W        W14654  25.380  30.456  11.183
48246W        W14655  30.540  17.662  11.410
48247W        W14656  38.724   0.541   0.945
48248W        W14657  32.392  11.895   2.924
48249W        W14658  10.402  11.262  11.966
48250W        W14659  32.828   9.142  14.544
48251W        W14660  33.586   5.930  11.189
48252W        W14661  11.285  44.539   3.722
48253W        W14662  28.653   6.516  13.036
48254W        W14663   1.438   5.977  12.803
48255W        W14664  37.890  14.580  11.298
48256W        W14665  37.483  37.371   4.646
48257W        W14666   0.185  44.041   2.180
48258W        W14667  32.722  21.805   1.301
48259W        W14668  18.793  43.412   4.189
48260W        W14669  35.537  38.077  14.647
48261W        W14670   9.162  25.535   2.806
48262W        W14671   4.184  25.732  14.876
48263W        W14672   1.893   7.267  14.985
48264W        W14673  24.693  44.017   4.196
48265W        W14674  31.243   7.314  10.738
48266W        W14675  31.449  16.697  11.668
48267W        W14676  22.855   5.241  13.119
48268W        W14677  16.088  40.920  13.318
48269W        W14678  22.747   4.882   2.828
48270W        W14679  40.561  24.018  11.126
48271W        W14680  25.598  29.042  12.979
48272W        W14681  20.344  38.558   3.313
48273W        W14682  26.169   5.733  10.601
48274W        W14683   8.085  27.959  12.401
48275W        W14684  22.520   9.895  10.757
48276W        W14685  12.536  24.948   3.163
48277W        W14686   9.115   2.534   4.488
48278W        W14687  35.503   1.445   0.168
48279W        W14688  41.743  22.120  10.429
48280W        W14689  15.125  19.012   1.268
48281W        W14690   2.827   6.073   2.366
48282W        W14691  17.756  30.968   0.102
48283W        W14692   7.929  13.690   1.114
48284W        W14693  15.685  24.523   2.138
48285W        W14694  12.852  18.517   0.008
48286W        W14695  28.561  23.413   4.653
48287W        W14696  36.516  29.132  10.996
48288W        W14697  16.498  30.312   1.444
48289W        W14698  14.664   4.483  11.594
48290W        W14699   0.577  31.015   4.068
48291W        W14700  36.011  39.837  13.828
48292W        W14701  32.933  25.117  12.400
48293W        W14702  23.209  38.654   4.516
48294W        W14703  12.130  39.628   3.257
48295W        W14704  19.080  30.837  14.946
48296W        W14705  15.275  17.324  10.404
48297W        W14706  26.456  33.938  11.159
48298W        W14707  42.876  37.894  13.820
48299W        W14708  22.014  31.917  12.933
48300W        W14709  14.448  40.033   1.986
48301W        W14710  37.911  27.134   4.583
48302W        W14711  18.622  34.836   0.178
48303W        W14712   9.338   8.652   3.343
48304W        W14713  30.730  24.550   0.502
48305W        W14714  40.908  41.880   3.783
48306W        W14715  10.313   9.724  11.172
48307W        W14716  27.505  23.962  10.792
48308W        W14717  17.532  24.673  11.532
48309W        W14718  14.640   9.877   3.847
48310W        W14719  34.812  19.535   0.947
48311W        W14720  36.826   8.915  12.149
48312W        W14721  25.925   1.745  12.015
48313W        W14722  27.701  13.203   1.144
48314W        W14723  44.858  36.737   3.593
48315W        W14724  35.870  41.048  13.356
48316W        W14725  17.149  24.290  14.744
48317W        W14726  42.285   2.649  14.864
48318W        W14727   9.631  36.490   5.183
48319W        W14728   9.121  11.694  10.187
48320W        W14729  39.709  35.198   0.343
48321W        W14730  21.127  35.732  11.259
48322W        W14731   3.393  41.442  10.754
48323W        W14732   2.770  20.866   3.241
48324W        W14733  27.502  23.257  12.961
48325W        W14734   6.946  38.856  12.595
48326W        W14735  40.000  37.325  12.645
48327W        W14736  24.927  27.247   1.840
48328W        W14737  38.158  13.893   1.307
48329W        W14738  30.450  25.583   1.161
48330W        W14739  26.568   5.322   1.170
48331W        W14740  34.845  30.093  14.038
48332W        W14741   4.598  16.535   4.528
48333W        W14742  26.593  20.921  10.490
48334W        W14743   3.894  14.976  14.977
48335W        W14744  17.845  16.684  12.439
48336W        W14745  14.149  15.718  13.413
48337W        W14746  17.557  44.895   0.774
48338W        W14747  17.206   3.962  12.893
48339W        W14748   3.369  18.403  10.536
48340W        W14749  32.872  40.910  13.915
48341W        W14750  42.949  36.134  10.520
48342W        W14751  22.199  16.303   2.621
48343W        W14752   7.884  15.341   4.968
48344W        W14753  26.574  41.533   3.692
48345W        W14754  42.295  35.707  14.009
48346W        W14755  30.590  37.547   4.506
48347W        W14756  17.864   9.812  11.507
48348W        W14757  44.181  11.109   3.628
48349W        W14758  38.920  12.226  14.448
48350W        W14759  19.683  29.550   2.874
48351W        W14760  19.534   4.013   0.875
48352W        W14761  23.115   8.518  14.799
48353W        W14762  44.598  30.871  11.234
48354W        W14763   4.332  17.148  13.358
48355W        W14764  35.350  42.817  11.631
48356W        W14765   5.753  11.121   1.836
48357W        W14766  11.829  18.122   3.690
48358W        W14767  32.584  37.982  10.641
48359W        W14768  35.500  28.215   0.831
48360W        W14769  17.647  15.530   0.474
48361W        W14770  31.660  28.957   3.921
48362W        W14771  25.233   4.762   0.393
48363W        W14772   7.079  32.141   1.286
48364W        W14773  43.890  22.552  10.429
48365W        W14774  14.885  27.998   3.302
48366W        W14775  23.243  18.983  11.011
48367W        W14776  40.642  34.531   4.392
48368W        W14777  42.795  26.806  11.295
48369W        W14778  34.492  39.895   3.245
48370W        W14779  25.701  32.744  12.067
48371W        W14780  22.166   4.982   4.364
48372W        W14781  36.072  19.754  12.127
48373W        W14782  30.209  34.612   3.963
48374W        W14783  26.546  35.941  11.152
48375W        W14784  35.995  23.130  12.866
48376W        W14785   7.137  22.192  12.030
48377W        W14786   9.914  35.453   2.922
48378W        W14787  31.839  40.729   4.696
48379W        W14788  44.839  20.216   0.238
48380W        W14789  23.675  30.382  12.850
48381W        W14790  24.435  13.544   1.734
48382W        W14791  20.947  20.415  11.899
48383W        W14792  29.384  43.119  11.577
48384W        W14793  43.301  37.829   4.712
48385W        W14794  44.459  43.368  14.289
48386W        W14795  40.336   6.142   0.356
48387W        W14796  25.512  36.469   2.408
48388W        W14797  38.312  33.388  10.748
48389W        W14798   3.927   1.019  12.277
48390W        W14799  24.886  21.759   1.694
48391W        W14800  29.607  42.022  12.422
48392W        W14801  16.577   4.831   3.162
48393W        W14802  25.970  26.506   5.016
48394W        W14803  35.506  15.755  13.787
48395W        W14804  12.289  33.318  12.065
48396W        W14805  30.507  19.036  13.348
48397W        W14806  27.079   6.357   1.220
48398W        W14807  36.033   2.549  11.378
48399W        W14808  39.648  31.611   0.684
48400W        W14809   8.260  34.544   1.317
48401W        W14810  24.953  37.033   3.809
48402W        W14811   2.496  13.385  12.905
48403W        W14812  33.176  18.807   3.277
48404W        W14813  27.547  34.495  10.702
48405W        W14814  23.863  43.168  14.494
48406W        W14815  19.110   1.959  10.633
48407W        W14816  14.130  41.106  14.770
48408W        W14817  33.104  41.870  11.366
48409W        W14818   3.448   3.847   1.751
48410W        W14819  25.204  25.065   4.825
48411W        W14820  16.822  42.825  13.098
48412W        W14821  24.917  44.427  14.460
48413W        W14822  22.777  15.276   2.506
48414W        W14823  14.474   1.977  14.904
48415W        W14824  43.761  31.623  14.396
48416W        W14825   3.430  14.104   3.903
48417W        W14826  15.811   6.000   1.194
48418W        W14827  14.905  16.345   1.480
48419W        W14828  41.994  28.682  14.474
48420W        W14829  15.055  25.923  11.158
48421W        W14830   6.419  18.778   1.153
48422W        W14831  31.079  28.894  11.722
48423W        W14832   3.499  31.230  11.157
48424W        W14833  28.680  19.968   2.224
48425W        W14834   1.398  35.519  14.748
48426W        W14835  31.692  30.373  13.115
48427W        W14836  27.499  43.889  13.460
48428W        W14837  26.465  35.309   4.195
48429W        W14838  38.770  31.804  12.082
48430W        W14839  43.081   1.417  13.570
48431W        W14840  44.740  10.544   4.919
48432W        W14841  35.155  15.567  10.655
48433W        W14842   4.989  13.468   0.880
48434W        W14843  12.253  17.960  12.056
48435W        W14844   4.418  15.852   1.244
48436W        W14845  24.578  16.639   3.886
48437W        W14846  40.007  19.198  12.878
48438W        W14847   0.027   1.570   0.280
48439W        W14848  24.627  34.409   3.730
48440W        W14849   3.676  39.887  10.694
48441W        W14850  27.984  39.434  10.335
48442W        W14851  19.806  34.834  11.886
48443W        W14852  21.315  31.628   0.263
48444W        W14853  28.707  33.005  12.976
48445W        W14854  33.331  20.292  11.155
48446W        W14855  22.717  26.534   5.030
48447W        W14856  31.400  23.215   2.685
48448W        W14857  17.560  34.364  12.931
48449W        W14858  14.815  14.812  13.120
48450W        W14859  14.351   2.997  10.444
48451W        W14860  42.265  35.963  14.462
48452W        W14861  33.625  33.398  14.454
48453W        W14862  39.277   8.684   0.327
48454W        W14863   3.977   8.629  12.400
48455W        W14864  25.234   9.892  12.928
48456W        W14865   0.341  12.344  10.270
48457W        W14866  27.475  38.642   2.251
48458W        W14867  23.252  41.453   1.888
48459W        W14868  39.762  30.674  13.613
48460W        W14869  33.034  32.729  14.301
48461W        W14870  39.836  42.854  10.443
48462W        W14871  29.529  38.075   1.346
48463W        W14872  31.779   1.474   3.740
48464W        W14873   1.788  32.942  14.707
48465W        W14874  35.202  38.601  13.806
48466W        W14875  17.506  26.772   2.049
48467W        W14876   5.774  39.706   4.593
48468W        W14877  30.749  13.827  11.521
48469W        W14878  27.309  34.493  11.162
48470W        W14879  33.363  30.567   2.656
48471W        W14880  21.540  32.378  10.831
48472W        W14881  31.931   3.851   1.359
48473W        W14882  20.011  43.298   4.672
48474W        W14883   3.873  35.961   0.718
48475W        W14884   1.821   9.433   2.822
48476W        W14885  15.151  34.827   4.169
48477W        W14886  36.500  15.635  14.487
48478W        W14887   1.028  14.005   1.815
48479W        W14888  23.991   9.718   3.778
48480W        W14889  37.081  19.739  12.505
48481W        W14890  33.874  37.574   4.194
48482W        W14891  26.072  22.476  12.070
48483W        W14892  30.082   6.779   4.925
48484W        W14893  42.871   3.464   0.816
48485W        W14894  36.582  37.341  14.774
48486W        W14895  32.162  20.155  10.609
48487W        W14896  24.343   1.707   3.739
48488W        W14897   2.802  44.310  13.445
48489W        W14898  13.150   4.428   1.908
48490W        W14899  14.505  43.385   0.414
48491W        W14900  34.809   5.295  13.409
48492W        W14901  17.241  24.801  14.804
48493W        W14902  22.740   8.868  12.448
48494W        W14903  20.851  34.380   2.268
48495W        W14904  33.551   5.853   0.338
48496W        W14905  26.958  14.721   0.831
48497W        W14906  35.886  28.112   0.102
48498W        W14907  38.792  22.912  11.499
48499W        W14908  18.822  31.086   3.287
48500W        W14909  19.099  18.671   4.409
48501W        W14910  36.149  43.055  11.143
48502W        W14911  17.889   3.500  10.702
48503W        W14912  13.279  42.892   3.182
48504W        W14913  12.751  35.122   3.297
48505W        W14914  25.614  33.924  13.772
48506W        W14915  12.619  24.034   3.376
48507W        W14916   0.209  42.468  13.649
48508W        W14917  30.919  39.308  12.569
48509W        W14918   9.087  38.015  10.805
48510W        W14919  38.119   9.895  12.388
48511W        W14920  10.921  38.831  14.948
48512W        W14921  23.028  27.584  14.969
48513W        W14922  44.461  12.284   0.787
48514W        W14923  19.272  25.529   3.669
48515W        W14924  30.916  16.202  12.408
48516W        W14925  18.249  43.785   3.609
48517W        W14926   2.435  25.134  10.810
48518W        W14927  24.110   7.476   1.637
48519W        W14928  32.347   2.099  14.213
48520W        W14929  31.693  32.636   1.189
48521W        W14930   6.371  11.564  10.811
48522W        W14931   5.608   8.928   1.525
48523W        W14932   7.888   2.865   4.209
48524W        W14933  19.880  19.287  14.965
48525W        W14934   1.676  35.941  14.855
48526W        W14935   2.440  33.552   1.715
48527W        W14936  32.376  23.039   3.218
48528W        W14937  15.906  43.350  12.439
48529W        W14938   0.503  21.426  12.394
48530W        W14939   2.571  37.306   0.589
48531W        W14940   5.448   7.497   4.589
48532W        W14941  44.634  41.912  12.090
48533W        W14942  22.489  11.711  14.451
48534W        W14943  18.396  21.063  13.956
48535W        W14944   1.525  33.092  13.335
48536W        W14945  43.210  29.263  14.989
48537W        W14946   7.762  21.510   1.774
48538W        W14947   8.340  15.896   2.473
48539W        W14948  16.881  39.479  11.609
48540W        W14949  24.178   6.311   0.846
48541W        W14950  12.977  40.299   2.366
48542W        W14951  11.588  34.771  14.276
48543W        W14952  22.180  30.460   1.208
48544W        W14953   1.807  30.560   0.718
48545W        W14954   3.109  41.881   1.972
48546W        W14955   8.400  42.982   2.742
48547W        W14956   4.459   1.738  13.879
48548W        W14957  25.596  35.937   2.306
48549W        W14958  30.738  35.803  12.049
48550W        W14959  10.234  35.213  10.689
48551W        W14960  34.162  44.247  10.721
48552W        W14961  40.352   3.154  11.192
48553W        W14962   5.246  39.165  12.449
48554W        W14963  36.919   6.497   4.055
48555W        W14964  29.975  41.881  13.360
48556W        W14965  26.651   7.263   1.429
48557W        W14966  16.957  18.626  12.014
48558W        W14967  32.611  41.557  13.833
48559W        W14968  18.980   9.963  13.872
48560W        W14969  39.941  14.713   2.210
48561W        W14970  44.776  33.448  11.275
48562W        W14971   7.396  18.703  10.744
48563W        W14972   0.409  26.621  13.127
48564W        W14973   5.421  15.141  10.592
48565W        W14974  22.622  29.450  11.733
48566W        W14975  17.273  22.202   3.624
48567W        W14976  23.212  33.430  14.293
48568W        W14977  39.026  28.902   1.451
48569W        W14978   7.662   9.649   1.898
48570W        W14979   7.777   6.759  10.846
48571W        W14980  34.852  14.858   3.407
48572W        W14981  37.886  29.456  14.239
48573W        W14982   3.047   2.402   4.197
48574W        W14983  24.363  14.402   1.336
48575W        W14984  30.644  37.767  11.190
48576W        W14985   2.942  22.930  12.185
48577W        W14986  10.096  12.184   2.187
48578W        W14987  15.188  12.855  13.329
48579W        W14988  27.874  24.944  11.610
48580W        W14989  44.402  35.896   1.362
48581W        W14990  33.285  15.315  13.774
48582W        W14991  39.395  19.033   3.733
48583W        W14992  13.402  42.796  10.955
48584W        W14993   8.620  34.051   4.787
48585W        W14994  27.108  27.851  10.429
48586W        W14995   0.372  21.752  14.362
48587W        W14996   4.504   4.753   1.827
48588W        W14997   5.379  26.150  10.763
48589W        W14998  13.842  16.848   0.447
48590W        W14999  25.507  34.157  11.525
48591W        W15000  27.966  27.415   1.263
48592W        W15001  40.300  41.545   3.626
48593W        W15002  13.097  31.913  11.431
48594W        W15003  25.709  42.036  14.390
48595W        W15004  15.041  36.317   4.976
48596W        W15005  20.190  35.613   1.338
48597W        W15006   7.586   0.107   4.543
48598W        W15007  16.125  25.511  12.487
48599W        W15008   2.033  27.494  14.280
48600W        W15009  16.779  23.957  11.545
48601W        W15010  29.612   9.857  13.052
48602W        W15011  21.005   7.269   1.772
48603W        W15012  40.478   0.089  14.443
48604W        W15013  26.902   0.316  13.980
48605W        W15014  17.652   2.453  11.587
48606W        W15015  11.907  23.530  11.063
48607W        W15016   9.126   4.013   0.146
48608W        W15017   1.510  22.313   2.346
48609W        W15018  31.835   9.895   4.127
48610W        W15019  43.061  15.527   4.203
48611W        W15020  29.410   2.913   5.713
48612W        W15021   4.955   2.639   4.985
48613W        W15022  19.796  25.054   4.952
48614W        W15023  35.788  30.388  11.062
48615W        W15024  42.827  13.368  13.875
48616W        W15025  17.559  11.816   3.625
48617W        W15026   2.357  19.205   2.737
48618W        W15027  29.859  41.389   3.635
48619W        W15028  18.327   5.475  10.149
48620W        W15029  31.414   5.935  14.484
48621W        W15030  16.161  28.407   4.778
48622W        W15031  43.341  23.030  13.838
48623W        W15032  25.512  43.992   0.311
48624W        W15033  42.294   3.927  13.103
48625W        W15034  40.506   4.134  11.222
48626W        W15035  23.291  35.451  14.947
48627W        W15036  18.996  44.024   2.340
48628W        W15037   1.819  36.544   2.339
48629W        W15038  25.948  24.615  13.594
48630W        W15039  14.330  41.996   4.589
48631W        W15040  21.560  39.038   3.648
48632W        W15041  38.425  41.990   0.420
48633W        W15042   2.903  22.716   2.674
48634W        W15043  27.937  11.122  10.981
48635W        W15044  38.978  29.103  13.408
48636W        W15045  16.602  39.638   0.818
48637W        W15046  27.646  43.369   1.407
48638W        W15047  32.147  43.208  14.386
48639W        W15048  26.963   8.747   1.423
48640W        W15049   2.268  29.927  13.363
48641W        W15050  12.743   5.210  11.958
48642W        W15051  22.484  44.481   2.328
48643W        W15052   3.647   0.476  10.799
48644W        W15053  32.929   5.755   1.973
48645W        W15054  42.218  19.005  12.442
48646W        W15055   2.139   5.280  12.068
48647W        W15056  18.512  23.069   0.538
48648W        W15057   2.395  28.720  12.304
48649W        W15058  12.367  14.124  11.045
48650W        W15059  17.918  36.162   0.291
48651W        W15060   2.504  11.227  12.097
48652W        W15061  29.047  29.455   1.919
48653W        W15062   5.114  26.107   2.237
48654W        W15063  38.609   5.766  13.770
48655W        W15064  37.472  26.203  12.122
48656W        W15065  11.538  35.519   1.350
48657W        W15066  37.415  36.661  12.564
48658W        W15067  30.068  13.221  11.337
48659W        W15068  14.598  11.475  12.111
48660W        W15069   2.690   1.031   3.239
48661W        W15070  41.856  27.182  14.210
48662W        W15071  15.152  39.727  12.076
48663W        W15072   4.690  32.186  13.913
48664W        W15073  21.246  12.696  12.536
48665W        W15074  27.456  23.569  13.371
48666W        W15075   8.227  10.164   4.542
48667W        W15076   8.922  22.536   2.764
48668W        W15077  38.362  40.493  10.327
48669W        W15078  12.931  39.001  11.199
48670W        W15079  22.665  16.240   1.227
48671W        W15080  33.185  30.085  14.460
48672W        W15081   8.420  27.568   3.257
48673W        W15082  20.079  28.654  10.924
48674W        W15083  41.800  10.931   1.870
48675W        W15084  40.733  32.331   4.429
48676W        W15085  17.164  12.324  12.008
48677W        W15086  31.561  43.956  11.915
48678W        W15087  20.792   1.255   3.758
48679W        W15088  21.127  34.127  12.536
48680W        W15089  30.408   3.098   3.971
48681W        W15090  32.977  20.592   0.076
48682W        W15091  26.385  25.333   3.206
48683W        W15092  15.750  26.482  11.644
48684W        W15093  30.622  37.542   2.241
48685W        W15094  14.804  34.914  14.368
48686W        W15095   6.873  27.670  13.560
48687W        W15096   5.369  21.038   1.638
48688W        W15097  32.513  26.234   4.116
48689W        W15098  37.326  19.795  12.067
48690W        W15099  22.224  25.098  11.976
48691W        W15100  30.976  11.886  10.674
48692W        W15101   2.220  20.034   4.285
48693W        W15102   3.249   4.300   3.821
48694W        W15103  23.247  42.840   4.456
48695W        W15104   4.671  25.536  10.498
48696W        W15105  42.352  10.308   1.727
48697W        W15106  42.786  20.850   0.475
48698W        W15107  36.366  26.062   3.589
48699W        W15108  28.118  36.219  10.427
48700W        W15109  13.365  26.087   0.339
48701W        W15110  40.821  12.649  12.471
48702W        W15111  22.833  27.406  13.598
48703W        W15112  29.609   4.176   4.159
48704W        W15113  37.143  22.832  14.213
48705W        W15114  38.904  17.097  10.159
48706W        W15115   7.459  39.496   4.595
48707W        W15116  22.603  33.821  10.754
48708W        W15117  14.082  43.284   1.279
48709W        W15118  20.072  37.676   1.146
48710W        W15119  20.468  29.866  11.157
48711W        W15120  31.411  37.091  13.631
48712W        W15121  22.894  42.252  13.290
48713W        W15122   3.657  39.077   3.699
48714W        W15123  39.947  25.589   4.165
48715W        W15124  22.206  27.498  14.478
48716W        W15125  34.635  38.447   0.049
48717W        W15126  44.900   6.493  14.383
48718W        W15127   1.454  37.941   1.761
48719W        W15128  37.916  22.136   4.374
48720W        W15129  16.711  28.658   3.701
48721W        W15130   6.658  25.398  12.581
48722W        W15131  35.512   6.235   2.876
48723W        W15132  19.557  22.923   2.556
48724W        W15133  20.015  20.149  10.604
48725W        W15134  23.563  38.535   0.219
48726W        W15135  40.207  32.374   1.600
48727W        W15136  10.669  15.580   1.256
48728W        W15137  14.593  34.834  13.039
48729W        W15138  18.221   5.708   0.259
48730W        W15139  42.717  15.668  14.082
48731W        W15140   4.920  14.567   2.397
48732W        W15141  42.559  42.009   2.653
48733W        W15142  38.253  17.165  13.871
48734W        W15143  24.195   9.588  12.984
48735W        W15144  33.134  21.518  14.693
48736W        W15145  13.144  11.140  12.170
48737W        W15146  33.437  42.909  11.767
48738W        W15147  31.043  25.962   4.396
48739W        W15148  18.979  21.662  13.500
48740W        W15149  32.807  44.419  14.868
48741W        W15150  12.325  16.760   4.871
48742W        W15151  38.319   5.434  10.805
48743W        W15152   0.936   9.214  12.856
48744W        W15153  33.495  15.320   1.390
48745W        W15154   6.473  13.191  11.174
48746W        W15155   7.386  38.931   1.406
48747W        W15156   7.687  20.548   3.399
48748W        W15157   6.213  32.901   3.648
48749W        W15158  31.244   9.908  10.665
48750W        W15159  42.484  43.484  11.590
48751W        W15160  10.615  44.132  14.891
48752W        W15161  31.428   8.983  13.568
48753W        W15162  21.030  26.238   2.194
48754W        W15163   5.408  13.612  14.104
48755W        W15164  29.416  24.906   3.235
48756W        W15165  28.001  35.716  10.697
48757W        W15166  23.410  38.787   2.197
48758W        W15167  19.046   4.964  10.716
48759W        W15168   0.399  18.616  12.167
48760W        W15169  12.978   0.956  14.163
48761W        W15170  13.866  35.992   3.287
48762W        W15171  26.024  43.282  11.505
48763W        W15172   7.593  15.727  13.009
48764W        W15173  20.792  19.595  12.538
48765W        W15174  24.026  29.539   0.291
48766W        W15175  23.452  35.979  11.152
48767W        W15176  31.565  14.715   4.621
48768W        W15177  14.333  25.578   3.146
48769W        W15178  11.112  16.210   3.309
48770W        W15179  14.652  27.417   0.451
48771W        W15180  34.828  18.365  13.816
48772W        W15181  41.234  14.827   1.674
48773W        W15182  20.775  22.160  12.097
48774W        W15183  20.572  40.852  12.452
48775W        W15184  32.402  38.074   4.474
48776W        W15185   1.414  35.098   0.303
48777W        W15186  40.503  32.268  10.114
48778W        W15187  12.121  14.514  12.027
48779W        W15188  36.563   7.145  13.791
48780W        W15189  38.551   8.254  12.177
48781W        W15190  29.427  14.723  14.535
48782W        W15191  33.069   5.613   0.549
48783W        W15192   8.662  22.583  12.510
48784W        W15193   9.185  19.291   4.273
48785W        W15194  11.255  42.043   1.727
48786W        W15195   4.985   3.602   3.679
48787W        W15196  42.319   0.458   2.329
48788W        W15197  28.356  22.530   0.961
48789W        W15198  32.521  27.089  11.567
48790W        W15199  31.172  17.277   2.166
48791W        W15200   9.439  30.198  10.048
48792W        W15201   7.340   4.860   0.176
48793W        W15202   9.339  34.504   4.618
48794W        W15203  24.173  36.588  12.783
48795W        W15204   4.425  26.911   2.188
48796W        W15205   0.994   9.636   0.902
48797W        W15206   3.524   6.784  12.908
48798W        W15207  23.574  43.311  11.154
48799W        W15208   2.221  14.001  11.600
48800W        W15209  12.690  10.960   4.594
48801W        W15210  38.064   3.420  12.438
48802W        W15211  14.701  36.542   9.838
48803W        W15212  23.160  24.747   0.498
48804W        W15213  10.798  29.177   2.001
48805W        W15214   2.461  42.980   4.976
48806W        W15215  17.291  43.491   2.806
48807W        W15216  23.608  26.312  14.417
48808W        W15217  10.800  10.253   3.569
48809W        W15218  25.554  27.471   0.884
48810W        W15219  36.026  28.019  10.689
48811W        W15220   6.998   0.889  14.851
48812W        W15221  22.293   2.673  13.320
48813W        W15222   7.972   9.347  12.815
48814W        W15223  39.939  29.422   4.770
48815W        W15224  32.593  17.605   4.315
48816W        W15225  31.032  25.699   0.513
48817W        W15226  16.796  34.926  14.024
48818W        W15227   8.696   5.916   0.836
48819W        W15228  32.824   5.086  11.096
48820W        W15229  37.254  35.678  14.851
48821W        W15230  44.337  42.755   9.878
48822W        W15231  32.642  27.391   4.455
48823W        W15232  43.116  28.410  11.722
48824W        W15233  25.021  44.528   0.846
48825W        W15234   9.351  40.491  11.481
48826W        W15235  13.468  42.410  12.175
48827W        W15236  12.372  23.594  13.943
48828W        W15237  14.553  10.118  11.055
48829W        W15238  20.239  13.106   3.780
48830W        W15239  20.249  27.123   3.638
48831W        W15240   1.105  27.629  13.054
48832W        W15241  28.625   3.276  10.673
48833W        W15242  43.895  22.975  12.261
48834W        W15243  42.336  24.752  12.964
48835W        W15244  37.377  42.765   0.655
48836W        W15245  40.449  22.747  11.978
48837W        W15246   0.804  39.391  12.889
48838W        W15247  41.375   1.350   4.872
48839W        W15248  16.650  43.998   2.297
48840W        W15249  20.100  18.951   2.453
48841W        W15250  21.261  28.201  11.942
48842W        W15251  29.449  35.509   2.782
48843W        W15252  36.375  19.248   0.227
48844W        W15253   6.642  10.773  12.137
48845W        W15254  15.559  42.411   0.423
48846W        W15255  26.664  23.600   1.422
48847W        W15256   6.599   1.338  10.731
48848W        W15257  40.074  27.086  12.422
48849W        W15258  14.766  16.029  10.628
48850W        W15259  27.993   1.808  12.926
48851W        W15260  16.848  42.980   2.126
48852W        W15261   2.943  11.321  12.376
48853W        W15262  14.527  21.298   0.001
48854W        W15263   6.951  13.644  10.755
48855W        W15264  27.634  43.318  14.520
48856W        W15265  33.462  23.607   4.287
48857W        W15266  12.140  32.131   4.165
48858W        W15267  21.315   9.389   4.300
48859W        W15268  22.782  24.742  14.558
48860W        W15269  43.443   2.319   3.149
48861W        W15270  25.568   4.657   2.646
48862W        W15271  29.373  37.068   1.898
48863W        W15272  35.298  11.767  11.194
48864W        W15273  26.929  40.054  10.746
48865W        W15274  42.033  30.624   3.794
48866W        W15275  33.392   2.218  14.931
48867W        W15276  36.919   0.710   4.522
48868W        W15277  43.673  12.111   0.460
48869W        W15278  24.744  20.709   3.668
48870W        W15279  42.969   0.572  13.066
48871W        W15280  44.354  21.887   3.606
48872W        W15281   3.763  34.760  14.120
48873W        W15282  44.156   3.886   4.661
48874W        W15283  42.517  38.518   1.148
48875W        W15284  20.586  28.631  12.939
48876W        W15285  18.826  11.754   2.288
48877W        W15286  27.077   3.912   2.795
48878W        W15287   4.955  13.832   2.825
48879W        W15288  43.093  12.931   3.593
48880W        W15289   8.733  21.788  11.574
48881W        W15290  26.939  17.556  12.052
48882W        W15291   4.464   9.721   0.840
48883W        W15292  12.180  14.192   3.732
48884W        W15293  13.181   4.804   2.283
48885W        W15294   1.858   8.697  11.370
48886W        W15295  15.535  20.239  14.267
48887W        W15296  39.090  14.253   4.726
48888W        W15297  37.029  17.484   3.035
48889W        W15298  22.380   7.013   5.196
48890W        W15299  38.393  12.828  10.941
48891W        W15300   5.252  30.718  12.991
48892W        W15301  27.199   4.784   3.610
48893W        W15302  36.498  17.192  10.724
48894W        W15303  41.652  34.526   4.246
48895W        W15304  27.095  24.446   4.055
48896W        W15305  35.453  29.367   1.441
48897W        W15306  29.987  15.800  11.117
48898W        W15307  16.323  15.850   1.075
48899W        W15308  25.379  12.721  10.422
48900W        W15309  13.724   3.554   1.232
48901W        W15310  29.445   9.573  13.461
48902W        W15311  17.467  41.788   2.451
48903W        W15312  24.100  33.937   3.238
48904W        W15313  22.536  20.602   0.023
48905W        W15314  26.592  13.255   4.392
48906W        W15315  29.990   6.774   2.834
48907W        W15316   4.722  25.067   2.469
48908W        W15317  35.305  37.616  14.366
48909W        W15318  18.753  32.579  13.315
48910W        W15319  28.393  10.396   2.849
48911W        W15320  15.537   1.162  10.634
48912W        W15321  15.735  41.003  11.372
48913W        W15322  42.312  34.543  13.334
48914W        W15323  44.834  14.087   1.042
48915W        W15324  39.575  19.087  11.942
48916W        W15325  15.117  34.599   0.379
48917W        W15326  39.513  34.560  13.301
48918W        W15327  13.378  12.527   2.367
48919W        W15328  25.517  32.945  13.562
48920W        W15329  23.974   5.006   1.719
48921W        W15330  19.770   5.232  12.410
48922W        W15331  13.285   3.741   1.446
48923W        W15332  14.387   0.696   2.950
48924W        W15333  39.808   9.060   4.093
48925W        W15334  34.789  12.281   3.088
48926W        W15335  25.213  15.551   4.154
48927W        W15336  28.610  22.519  10.979
48928W        W15337   8.525  33.125   3.572
48929W        W15338  42.380  39.058   1.309
48930W        W15339  31.237  36.029  12.037
48931W        W15340  36.035  33.541   1.260
48932W        W15341  26.538  41.813   2.857
48933W        W15342  16.389   6.197   2.905
48934W        W15343  22.969  23.642   1.324
48935W        W15344  25.981   5.963   0.910
48936W        W15345   2.125   2.085   0.338
48937W        W15346  24.936   5.201   3.185
48938W        W15347  13.630  10.142   3.303
48939W        W15348  29.471  10.683   4.810
48940W        W15349  38.492  43.139   0.989
48941W        W15350  43.284  17.039   1.414
48942W        W15351  17.641  15.795   2.135
48943W        W15352   8.546  24.208   2.391
48944W        W15353  32.726  16.256  13.542
48945W        W15354  11.312  13.185  12.811
48946W        W15355   7.000  20.611   4.600
48947W        W15356   9.342  16.565  11.186
48948W        W15357  24.442   8.953   4.224
48949W        W15358   3.680  24.143  10.102
48950W        W15359  36.550   9.499  14.387
48951W        W15360  23.123  30.823   1.231
48952W        W15361  43.259  43.470   4.247
48953W        W15362  34.029  41.254   2.736
48954W        W15363  34.079  18.741   3.214
48955W        W15364   8.954   6.617  11.110
48956W        W15365   8.156   8.879   4.607
48957W        W15366  28.128  43.393   2.606
48958W        W15367   8.260  21.780   1.731
48959W        W15368   9.432  39.779   4.257
48960W        W15369  43.294  28.670   2.884
48961W        W15370   9.978  38.511  10.196
48962W        W15371  41.782  27.938  10.800
48963W        W15372   6.012  30.976   0.272
48964W        W15373  35.178  44.869  13.568
48965W        W15374  20.133  33.404   4.546
48966W        W15375  25.010  13.213   1.209
48967W        W15376  39.360  25.227   2.361
48968W        W15377   0.408  36.932  13.520
48969W        W15378  22.674   1.882  10.114
48970W        W15379   0.369  32.473  13.409
48971W        W15380   7.987  14.326  14.844
48972W        W15381   5.567  11.982   3.187
48973W        W15382  41.787  43.740  11.924
48974W        W15383  36.226  22.971  13.646
48975W        W15384   3.955  30.541  14.378
48976W        W15385  25.552   9.300   1.748
48977W        W15386   6.913   2.693   3.278
48978W        W15387  12.609  24.646  11.912
48979W        W15388  44.927   6.106   3.632
48980W        W15389  33.721  23.269  13.286
48981W        W15390   6.239  28.144   1.118
48982W        W15391  20.088  12.388   4.844
48983W        W15392  30.710  13.337  10.764
48984W        W15393   9.750   2.849  12.103
48985W        W15394  15.386  37.318  14.828
48986W        W15395  31.492  38.945  10.585
48987W        W15396  14.275  28.135   2.578
48988W        W15397  12.816  26.562   3.612
48989W        W15398  16.222  16.081   2.646
48990W        W15399  25.007   3.217   1.001
48991W        W15400  21.233  24.009  14.175
48992W        W15401   0.303  42.916   4.375
48993W        W15402  40.891  16.174  12.543
48994W        W15403  28.262  32.360   4.592
48995W        W15404  10.155  39.445  13.332
48996W        W15405  37.468  22.532  12.519
48997W        W15406  16.342  27.139  13.380
48998W        W15407  24.584  37.381  12.948
48999W        W15408  17.019  24.543   1.953
49000W        W15409  15.308   9.416  14.824
49001W        W15410  35.491   6.344  13.108
49002W        W15411  42.847  17.262   2.368
49003W        W15412  44.360  23.795  13.934
49004W        W15413  30.999   5.124  14.595
49005W        W15414  33.284  19.198   2.052
49006W        W15415  21.309  36.153   0.329
49007W        W15416  21.020  44.393  10.356
49008W        W15417  31.657  17.232   4.050
49009W        W15418  28.636  31.486   3.306
49010W        W15419   5.866   6.295   3.063
49011W        W15420  10.356   0.916   3.121
49012W        W15421  29.562  29.866  14.894
49013W        W15422  20.620  32.890   3.409
49014W        W15423  10.125   3.647  10.763
49015W        W15424  30.733  34.684  13.932
49016W        W15425  13.586  12.875   2.708
49017W        W15426  42.307  29.175   3.638
49018W        W15427   4.958  30.924  14.512
49019W        W15428  11.302  17.299  10.608
49020W        W15429   3.315  12.128   3.843
49021W        W15430   5.842  37.921  14.478
49022W        W15431  33.344  41.038   2.291
49023W        W15432  25.139  24.975  14.810
49024W        W15433  24.034  26.574   4.535
49025W        W15434  19.763  42.169   4.114
49026W        W15435   5.550   8.759  12.389
49027W        W15436   4.404   5.981  13.021
49028W        W15437  27.949  16.252   3.243
49029W        W15438  28.404  38.194  11.998
49030W        W15439   2.277   0.307  11.051
49031W        W15440  23.525   0.507  12.576
49032W        W15441   8.392  12.558   2.873
49033W        W15442  38.879  14.286  12.986
49034W        W15443  28.239   7.913  14.872
49035W        W15444  12.371  11.623  11.011
49036W        W15445  38.026   2.641   1.473
49037W        W15446  24.957  12.782   1.487
49038W        W15447  25.357   0.249  12.494
49039W        W15448  40.833  17.493  14.412
49040W        W15449  26.139  16.238  14.328
49041W        W15450  30.450  39.632   1.889
49042W        W15451  34.917  24.698   3.683
49043W        W15452  18.052  17.566  10.699
49044W        W15453  28.860  43.464   2.163
49045W        W15454   4.721  17.994   3.554
49046W        W15455  36.959  43.821  14.918
49047W        W15456  21.683  24.733   0.210
49048W        W15457  18.028  23.672   2.712
49049W        W15458  34.495   0.773   2.133
49050W        W15459  26.692  26.085  14.828
49051W        W15460   9.845   6.297   4.915
49052W        W15461  10.640   4.153   3.532
49053W        W15462  21.851  42.536   2.266
49054W        W15463   3.457   5.823   4.624
49055W        W15464  23.032  25.276   2.370
49056W        W15465  16.914  29.620  13.549
49057W        W15466  18.335  43.797  14.351
49058W        W15467   3.465  21.999   4.565
49059W        W15468   7.625  21.647  12.821
49060W        W15469  16.738   6.698  11.610
49061W        W15470   3.207  32.073   2.599
49062W        W15471   0.878  31.414  10.638
49063W        W15472  41.790  29.396   2.802
49064W        W15473  21.777  28.204  14.889
49065W        W15474  21.024  40.218  12.002
49066W        W15475  12.204  33.954   3.546
49067W        W15476  18.160  22.008   4.691
49068W        W15477  16.170  43.444  11.165
49069W        W15478   4.552  38.988   0.485
49070W        W15479  11.041  35.830  14.876
49071W        W15480  24.939  12.843  14.917
49072W        W15481  30.692  43.942   2.280
49073W        W15482  30.335  18.871   3.834
49074W        W15483  12.298  28.794   4.946
49075W        W15484  25.773  12.882   2.623
49076W        W15485   0.742   4.462   0.380
49077W        W15486  13.880   0.389  14.262
49078W        W15487   4.890  14.107   3.288
49079W        W15488  15.076  14.669   1.691
49080W        W15489  39.645   1.276   4.480
49081W        W15490   8.304  35.036   1.494
49082W        W15491  41.339  31.889   0.972
49083W        W15492  26.072  43.420  10.992
49084W        W15493   8.891  24.161   0.053
49085W        W15494  38.730   5.476  12.023
49086W        W15495  32.496  17.315  14.062
49087W        W15496  28.595  22.467   2.229
49088W        W15497  32.847  30.460  12.490
49089W        W15498  40.893  19.811  13.543
49090W        W15499  24.880  28.929   3.943
49091W        W15500  11.920  42.399  12.835
49092W        W15501  44.016  38.033   2.024
49093W        W15502  10.881  25.459  14.907
49094W        W15503  25.473  14.065   0.279
49095W        W15504  21.838  31.668   0.155
49096W        W15505  21.765   3.193   3.742
49097W        W15506  11.199  23.998  12.223
49098W        W15507   1.121  19.582   1.901
49099W        W15508  15.890  21.407   0.876
49100W        W15509  39.833   8.278   1.826
49101W        W15510  37.821   3.326   2.685
49102W        W15511  17.599  26.049  13.503
49103W        W15512  32.678  19.971   1.418
49104W        W15513  10.119  22.743  10.476
49105W        W15514  12.291  28.990   2.184
49106W        W15515  33.228  33.424  14.841
49107W        W15516  40.097  30.422  12.676
49108W        W15517  34.377  12.916   1.814
49109W        W15518  13.606  32.555   3.807
49110W        W15519  43.978  28.755   2.285
49111W        W15520  10.814  24.222  14.462
49112W        W15521  44.886  33.775  14.368
49113W        W15522  32.384  42.725   1.762
49114W        W15523  44.163  38.460  10.026
49115W        W15524  24.955  10.290   1.550
49116W        W15525   4.825  19.285  11.925
49117W        W15526  16.290   2.322  13.589
49118W        W15527  25.514  30.619  12.096
49119W        W15528  12.194   6.783   1.710
49120W        W15529  12.629   1.989   3.166
49121W        W15530  42.365  35.623   1.221
49122W        W15531  18.980  25.684   1.846
49123W        W15532  22.673  12.754  11.339
49124W        W15533  30.179   9.441   5.119
49125W        W15534  15.435  14.385   0.385
49126W        W15535  24.816  18.209  14.313
49127W        W15536  21.244  34.666   2.429
49128W        W15537   4.163  39.002  13.360
49129W        W15538  18.267  18.069   3.072
49130W        W15539   3.694  37.850  10.718
49131W        W15540  28.505  33.562  14.508
49132W        W15541  25.217   5.761   1.298
49133W        W15542   1.957  26.635   2.107
49134W        W15543  39.883  19.222   3.632
49135W        W15544  44.497  12.356   3.311
49136W        W15545  28.471  40.359   0.040
49137W        W15546   4.160  44.946  14.471
49138W        W15547   2.921  29.105  10.558
49139W        W15548   1.076  14.671   0.656
49140W        W15549   1.893  40.802  12.330
49141W        W15550   8.381  35.590  12.906
49142W        W15551  25.211  33.032  12.607
49143W        W15552  24.688  30.801  12.375
49144W        W15553  33.092  43.643   4.112
49145W        W15554  34.905  26.779   0.830
49146W        W15555  38.641  27.062   3.645
49147W        W15556  35.957  44.305  11.595
49148W        W15557  18.579   5.957   2.947
49149W        W15558  29.910  35.283   2.753
49150W        W15559  22.592  22.545   3.760
49151W        W15560  39.624   1.800  13.716
49152W        W15561   4.305  15.327  14.854
49153W        W15562  28.088  36.849   4.067
49154W        W15563  13.311  38.655  11.165
49155W        W15564   8.050  31.124   1.518
49156W        W15565  27.209  11.644  11.545
49157W        W15566  17.141  36.791   1.824
49158W        W15567  11.263  33.003  14.775
49159W        W15568  38.880  41.834  11.473
49160W        W15569  19.289  27.456   4.753
49161W        W15570   1.394   7.311   3.257
49162W        W15571  42.295   0.414  13.823
49163W        W15572  19.586  22.535   1.390
49164W        W15573  17.462  20.783  12.147
49165W        W15574  11.043  35.590   1.254
49166W        W15575  40.458  10.361  12.984
49167W        W15576   2.694  17.297   3.226
49168W        W15577  35.828   8.879  11.622
49169W        W15578   8.054  13.062  13.880
49170W        W15579  31.142  10.753   4.641
49171W        W15580  42.174  11.828   4.425
49172W        W15581  36.964  27.203   4.583
49173W        W15582   5.213  14.981   2.315
49174W        W15583  19.264  35.855   3.078
49175W        W15584  22.152  23.393   2.014
49176W        W15585   4.673  20.065   1.444
49177W        W15586  16.617   6.655  14.340
49178W        W15587   3.761   7.077  10.853
49179W        W15588  27.619  35.963   0.714
49180W        W15589  35.889  32.000   3.093
49181W        W15590   5.699  26.285   2.138
49182W        W15591  32.344   7.157   0.980
49183W        W15592  39.630  34.505   2.300
49184W        W15593  33.995  25.675  12.113
49185W        W15594  21.587  14.504   2.898
49186W        W15595  31.673  44.710  14.056
49187W        W15596   2.681  21.190  12.963
49188W        W15597  38.354  24.254  12.936
49189W        W15598  24.465   6.152  10.821
49190W        W15599   9.717  40.076  14.368
49191W        W15600   8.609  11.230   3.748
49192W        W15601  22.783  19.801  13.552
49193W        W15602  23.217  30.738  12.515
49194W        W15603  17.498  21.041   5.080
49195W        W15604   8.723  42.854  14.469
49196W        W15605   2.348  39.529   2.905
49197W        W15606  31.977   6.039  14.964
49198W        W15607  27.679  22.066  10.702
49199W        W15608  12.570  31.931  11.000
49200W        W15609  23.069  37.462  13.435
49201W        W15610   9.630  28.296   3.502
49202W        W15611  44.167  39.725  13.868
49203W        W15612   0.015   9.962   3.392
49204W        W15613  25.751   2.848  13.994
49205W        W15614  20.836  34.570   1.672
49206W        W15615  11.740  12.390   1.725
49207W        W15616   2.297  14.801   3.732
49208W        W15617  22.086  22.945  12.351
49209W        W15618   0.823  39.417  10.608
49210W        W15619  38.084  41.243   2.978
49211W        W15620  38.301  12.702   4.214
49212W        W15621  42.939  35.756  14.297
49213W        W15622  39.168  33.575  14.528
49214W        W15623  37.670  24.901  12.461
49215W        W15624  35.339  18.349   2.090
49216W        W15625   4.503   4.966   4.476
49217W        W15626   8.826   0.930   1.835
49218W        W15627  43.324  19.063   2.785
49219W        W15628  34.372  15.736   1.756
49220W        W15629  41.075   0.709   0.926
49221W        W15630  13.292  24.278  10.202
49222W        W15631   2.841  33.956   3.048
49223W        W15632  41.677  32.364   2.338
49224W        W15633  11.369  17.549   3.864
49225W        W15634  37.921  28.072  11.435
49226W        W15635  19.414  41.981  12.419
49227W        W15636  23.073   6.746   0.255
49228W        W15637  12.598  28.148   2.258
49229W        W15638  22.168   2.433  14.148
49230W        W15639   6.230  38.648   3.252
49231W        W15640   2.320   7.287  14.063
49232W        W15641   5.983  10.345   4.217
49233W        W15642  19.089  15.610  13.919
49234W        W15643  36.813  20.126   3.299
49235W        W15644   2.962   6.473   0.882
49236W        W15645   1.261  27.157   2.236
49237W        W15646  40.406  20.803   4.126
49238W        W15647  12.158   0.001   0.889
49239W        W15648  42.872  28.472   3.950
49240W        W15649  42.826  36.846  11.193
49241W        W15650   4.009  37.105  14.410
49242W        W15651  18.287   1.871  11.731
49243W        W15652  31.181  23.091   2.224
49244W        W15653  28.546  16.820   0.974
49245W        W15654  35.055  40.027   3.697
49246W        W15655  17.243  29.063  11.093
49247W        W15656  38.131  21.750   4.071
49248W        W15657  18.840  23.520   3.118
49249W        W15658  29.414  33.609  14.444
49250W        W15659  29.290   7.212   3.852
49251W        W15660  38.895  37.007   1.288
49252W        W15661  33.378  14.374   1.607
49253W        W15662  22.514  22.489  10.264
49254W        W15663  21.142  20.299  13.278
49255W        W15664  19.704  11.187  11.181
49256W        W15665  14.634   9.881   3.333
49257W        W15666  28.710   1.239  12.504
49258W        W15667   2.155  20.762   0.852
49259W        W15668  15.216  33.239   1.886
49260W        W15669  25.431   2.446   3.263
49261W        W15670  21.135  29.725  12.349
49262W        W15671  30.490  24.361   4.469
49263W        W15672   0.384  41.157   4.311
49264W        W15673  24.649  44.366   4.656
49265W        W15674  26.233   6.223  14.984
49266W        W15675   2.810  16.795   0.558
49267W        W15676  19.515  31.521   1.134
49268W        W15677  20.668  32.675   2.942
49269W        W15678  30.473  31.874  14.851
49270W        W15679  30.112   0.802   3.122
49271W        W15680  44.505  21.517   2.627
49272W        W15681  35.101  17.503   1.952
49273W        W15682  40.450  41.776  13.908
49274W        W15683  13.251  18.461  10.081
49275W        W15684  20.188  34.958   2.729
49276W        W15685  21.233  20.932   0.220
49277W        W15686  42.375  40.984  13.425
49278W        W15687  14.321   8.781  14.868
49279W        W15688  31.591  25.056  14.026
49280W        W15689  31.187  17.022  14.388
49281W        W15690  40.079  34.948   3.139
49282W        W15691  39.811  27.950   3.849
49283W        W15692  11.752  14.847   3.332
49284W        W15693  11.919  19.165   1.253
49285W        W15694  22.524  39.451   2.679
49286W        W15695  11.247  37.537   3.712
49287W        W15696  44.929  12.241   3.013
49288W        W15697  38.341  15.075   4.146
49289W        W15698  44.482  43.388  10.569
49290W        W15699  41.233  27.029   0.879
49291W        W15700  14.152  32.754   1.346
49292W        W15701  16.656  35.571   2.185
49293W        W15702  38.224  12.975   3.787
49294W        W15703   5.563   6.488   3.901
49295W        W15704  30.321  24.628  11.625
49296W        W15705  42.386  25.122  11.998
49297W        W15706  29.736  24.179  12.234
49298W        W15707  31.161  13.789  14.579
49299W        W15708  26.810  12.722   1.396
49300W        W15709  10.584   7.112   1.396
49301W        W15710  18.255  35.557   4.435
49302W        W15711  41.453  23.018   4.093
49303W        W15712  14.813  13.774  12.894
49304W        W15713  11.790  11.746   4.098
49305W        W15714  43.964  19.225   1.787
49306W        W15715  17.826   7.638  11.981
49307W        W15716  40.979  22.124   0.148
49308W        W15717  19.334  31.930   2.961
49309W        W15718  42.300  38.676   4.239
49310W        W15719  18.624  24.168   2.014
49311W        W15720  19.465  24.031  13.881
49312W        W15721  11.972  41.779   4.252
49313W        W15722  28.293  24.125   1.856
49314W        W15723  24.468  39.538   1.018
49315W        W15724  13.885  32.190   1.828
49316W        W15725   6.812  26.597   1.933
49317W        W15726  10.122  25.621   9.617
49318W        W15727   2.985  37.551  11.874
49319W        W15728   6.832  23.343  10.732
49320W        W15729  19.821   2.178   0.403
49321W        W15730  41.781   7.522  10.929
49322W        W15731  11.705  14.833  11.865
49323W        W15732  28.071  15.383  12.401
49324W        W15733   4.379  20.477  13.450
49325W        W15734  26.752  27.975   3.118
49326W        W15735  42.827  21.986  14.413
49327W        W15736  30.214  37.083   2.118
49328W        W15737  26.178  16.762  12.583
49329W        W15738  27.546   4.487   1.688
49330W        W15739   2.055   3.393  12.500
49331W        W15740   5.697  11.751  11.083
49332W        W15741  25.537  36.903   0.378
49333W        W15742  33.515  15.611  10.386
49334W        W15743  23.728  42.695  13.263
49335W        W15744   6.315  14.552   3.298
49336W        W15745  21.285  15.469  13.508
49337W        W15746  24.081  37.302  11.041
49338W        W15747   8.248  10.319  10.947
49339W        W15748  35.036   6.332  10.644
49340W        W15749  11.825   6.752  10.935
49341W        W15750   4.243   4.317   0.183
49342W        W15751  11.709  30.959   3.706
49343W        W15752   3.203  27.696   1.404
49344W        W15753  12.342   3.667   2.815
49345W        W15754  20.835   0.819  10.858
49346W        W15755  38.111  42.849  12.057
49347W        W15756  39.083  29.171  12.374
49348W        W15757  10.127  14.288  11.665
49349W        W15758  29.957  40.735   4.102
49350W        W15759  43.967  40.584   4.618
49351W        W15760  29.017  22.572   2.835
49352W        W15761  26.267   7.134   5.050
49353W        W15762  18.004   3.366  14.330
49354W        W15763  42.248  22.962   1.151
49355W        W15764  32.609  30.223   2.894
49356W        W15765  15.373   5.389   1.854
49357W        W15766  21.532  35.342   3.901
49358W        W15767  39.856  40.531   2.194
49359W        W15768  26.330  36.588   0.879
49360W        W15769   5.203  24.704   3.546
49361W        W15770  36.552  37.376   0.712
49362W        W15771   9.633  30.191   3.240
49363W        W15772  24.094  13.885  10.921
49364W        W15773   7.889  17.792  13.910
49365W        W15774  25.026   0.021   3.054
49366W        W15775  34.890  17.719  10.943
49367W        W15776  38.464  28.116  13.955
49368W        W15777   2.442   4.450  12.454
49369W        W15778  42.885  43.412  13.441
49370W        W15779   5.793  24.731  13.554
49371W        W15780  33.320  27.709   0.108
49372W        W15781  32.970  10.380  10.224
49373W        W15782  19.992  19.942  14.396
49374W        W15783  43.128  20.484   3.790
49375W        W15784  25.304   4.086  13.472
49376W        W15785  25.116  14.326  12.526
49377W        W15786  20.467  43.941   4.133
49378W        W15787  17.577   3.081   2.834
49379W        W15788  17.231  37.056   1.350
49380W        W15789  35.539  22.712  14.373
49381W        W15790   6.357  16.721  11.286
49382W        W15791   2.749   8.450   4.613
49383W        W15792   3.058   4.206  11.219
49384W        W15793   7.449  22.209   2.686
49385W        W15794  29.654  37.491  11.750
49386W        W15795  23.508  17.797   2.655
49387W        W15796  27.477  28.826  13.313
49388W        W15797  44.285  27.638   1.756
49389W        W15798  40.381   0.916   3.286
49390W        W15799   9.223  12.891   4.743
49391W        W15800  38.754  42.427   3.574
49392W        W15801  18.052  41.986   4.659
49393W        W15802  16.611  34.083   0.509
49394W        W15803   4.873  17.139   3.259
49395W        W15804   1.695  15.467   2.974
49396W        W15805  39.423  28.034  13.985
49397W        W15806  17.177  34.488   1.720
49398W        W15807  23.308  27.730   1.838
49399W        W15808  11.078  21.632  13.740
49400W        W15809  29.516  32.992  14.357
49401W        W15810  44.877  14.729  12.659
49402W        W15811  22.509  31.897  10.458
49403W        W15812  26.169  15.097  11.984
49404W        W15813   3.852  31.166  12.432
49405W        W15814  11.217  34.619   0.447
49406W        W15815  25.965  12.053   4.278
49407W        W15816  42.016  15.024  13.681
49408W        W15817  18.505   8.324  11.916
49409W        W15818  30.200  37.544  11.149
49410W        W15819  26.608  25.204  11.828
49411W        W15820   5.909  27.191   1.809
49412W        W15821  38.838   1.153   4.053
49413W        W15822   2.326  25.290  13.207
49414W        W15823  29.823  36.574   0.322
49415W        W15824  30.894  16.038  11.187
49416W        W15825  37.468  20.699  13.499
49417W        W15826  13.691  11.215   3.646
49418W        W15827   3.474  31.988   3.647
49419W        W15828  21.755  43.483   3.608
49420W        W15829  34.150  36.350  13.547
49421W        W15830  22.862  13.638   3.660
49422W        W15831  40.415  19.301  14.627
49423W        W15832  30.333  25.868  11.160
49424W        W15833  11.070  43.773  12.417
49425W        W15834   1.794   4.690  13.161
49426W        W15835   9.761  23.700  13.801
49427W        W15836  28.713   1.787   0.457
49428W        W15837  27.901  18.382   0.484
49429W        W15838  27.931   6.150   4.211
49430W        W15839  17.357  41.025   1.782
49431W        W15840  29.402  38.937   1.185
49432W        W15841  11.679  14.045   5.004
49433W        W15842   8.906  16.049   4.597
49434W        W15843   1.093  30.899   3.624
49435W        W15844   2.554   4.970   2.834
49436W        W15845  20.000  22.042   0.071
49437W        W15846   9.851  31.663  10.360
49438W        W15847   2.300   6.810   2.129
49439W        W15848   6.802  43.254   3.227
49440W        W15849  22.027  34.683  14.941
49441W        W15850  19.799  26.569   1.049
49442W        W15851  34.754  42.583   0.263
49443W        W15852  38.455  28.435  13.100
49444W        W15853   5.902  41.273  12.073
49445W        W15854  26.253  28.039   2.985
49446W        W15855   4.396  22.376   4.549
49447W        W15856  13.576  14.216   5.293
49448W        W15857  13.674  20.523  14.953
49449W        W15858  43.797   2.441   1.764
49450W        W15859  17.610  40.305   0.176
49451W        W15860  17.645  21.139   9.830
49452W        W15861   7.756   3.716   4.845
49453W        W15862  29.599  42.814  12.806
49454W        W15863   0.830  10.752   2.633
49455W        W15864  29.488  29.561  13.122
49456W        W15865  41.452  21.267  11.402
49457W        W15866  21.151  17.758   0.392
49458W        W15867  17.867  14.784   4.249
49459W        W15868  14.556  10.641  13.864
49460W        W15869   5.909  31.722  13.248
49461W        W15870  13.827   0.333  10.382
49462W        W15871   5.085  20.769  10.394
49463W        W15872   9.308   7.134   4.189
49464W        W15873   7.393  17.560   4.347
49465W        W15874  27.922   7.306  13.180
49466W        W15875  10.602  18.919   0.896
49467W        W15876  18.239  21.888   5.191
49468W        W15877  11.015  14.713   4.817
49469W        W15878  29.940   9.932  13.428
49470W        W15879   9.203  35.207  14.905
49471W        W15880  28.235  26.092   0.814
49472W        W15881  23.998  37.442  11.975
49473W        W15882  30.127   7.181  11.184
49474W        W15883   5.860   5.231   2.754
49475W        W15884  13.038  13.579   0.236
49476W        W15885  12.693  17.267  11.479
49477W        W15886  22.639  22.595  12.785
49478W        W15887  22.508  37.376   0.760
49479W        W15888  33.955  17.848   0.144
49480W        W15889  42.615  12.727  12.427
49481W        W15890  32.857   8.176  14.338
49482W        W15891   9.821  43.550  13.311
49483W        W15892  43.502   0.819   3.929
49484W        W15893  16.239   2.749  14.538
49485W        W15894  20.973  27.931   0.783
49486W        W15895  42.037  44.498  10.702
49487W        W15896  35.055  39.502   3.654
49488W        W15897  24.614  39.459   2.921
49489W        W15898  42.647  42.221   3.098
49490W        W15899   2.728   2.796   4.336
49491W        W15900  29.018  32.005  10.664
49492W        W15901  11.589  15.060  14.356
49493W        W15902   0.929  28.839   1.773
49494W        W15903  24.989  36.112  12.110
49495W        W15904  21.094   4.705  13.442
49496W        W15905  10.414   9.253  12.917
49497W        W15906  43.398  17.595   3.109
49498W        W15907  21.613  44.496   0.943
49499W        W15908  31.517  36.851   3.204
49500W        W15909  33.494  38.809  11.094
49501W        W15910  20.166   9.782  13.212
49502W        W15911  44.030  17.178   4.853
49503W        W15912   2.903  19.124   1.970
49504W        W15913  26.025  43.415   3.172
49505W        W15914  44.145  12.075  11.597
49506W        W15915  27.518   4.676  10.071
49507W        W15916  31.178  25.588  11.345
49508W        W15917  32.489  39.964  11.954
49509W        W15918  25.231  29.468   2.963
49510W        W15919  44.022   2.558   2.692
49511W        W15920  42.352  39.003   3.637
49512W        W15921  38.247  11.621  12.941
49513W        W15922  33.682  38.812  11.979
49514W        W15923  38.881  14.981   1.280
49515W        W15924  43.858  27.414  14.773
49516W        W15925  26.642  39.562   2.317
49517W        W15926  40.869  15.575   3.125
49518W        W15927  38.676  27.592  13.420
49519W        W15928  18.543  24.812   4.542
49520W        W15929   3.696  29.569   4.848
49521W        W15930  40.912  25.617  11.497
49522W        W15931  27.160   4.985  13.036
49523W        W15932  11.327  32.669   2.380
49524W        W15933   5.498  16.328   3.548
49525W        W15934  38.884  38.334   0.418
49526W        W15935   3.274  36.914   2.371
49527W        W15936  26.181   5.770   2.288
49528W        W15937  12.032  33.521   1.920
49529W        W15938  36.080   1.421   1.382
49530W        W15939   8.333  19.827   3.217
49531W        W15940  42.900  11.081   4.061
49532W        W15941  22.804  25.542   0.005
49533W        W15942  32.143   5.339  12.647
49534W        W15943  13.354  44.023   1.713
49535W        W15944   6.795   7.424   1.322
49536W        W15945   6.620  37.125   1.292
49537W        W15946  29.525  13.581   4.773
49538W        W15947  24.585   4.181   3.780
49539W        W15948  12.184  13.212   3.311
49540W        W15949  27.545  40.857  12.085
49541W        W15950  33.826  38.407   2.111
49542W        W15951  43.806  12.091  10.678
49543W        W15952  33.611  39.480   1.688
49544W        W15953  27.668   4.755  13.044
49545W        W15954  23.375  42.301  13.159
49546W        W15955  39.257   1.646  11.501
49547W        W15956   1.196  37.342   2.737
49548W        W15957  15.067   8.804   4.554
49549W        W15958  26.420  20.026  14.928
49550W        W15959  21.246  30.937   2.664
49551W        W15960  40.028   7.276  13.360
49552W        W15961  36.749   0.803   2.349
49553W        W15962  10.165  15.662  12.545
49554W        W15963  31.082  27.420   3.203
49555W        W15964  15.502   4.688  11.339
49556W        W15965  30.228  11.297   4.539
49557W        W15966  21.243  20.954  10.662
49558W        W15967   3.244  34.867   3.322
49559W        W15968  43.414  18.561   1.291
49560W        W15969  33.023  16.232   0.652
49561W        W15970  26.493  12.873  14.066
49562W        W15971  14.637   3.913  13.884
49563W        W15972  19.818  24.952  13.442
49564W        W15973  26.457   0.363  12.616
49565W        W15974   2.829  12.349  14.791
49566W        W15975  17.684  35.285  12.122
49567W        W15976  16.129  39.144   1.768
49568W        W15977  13.663  10.486   2.944
49569W        W15978   1.382  25.867  12.048
49570W        W15979  17.092   9.764  11.191
49571W        W15980  28.134  14.921  12.127
49572W        W15981   2.811  34.865  10.771
49573W        W15982   8.761   3.204   3.325
49574W        W15983  43.388  17.585  11.650
49575W        W15984  31.814  19.759   2.957
49576W        W15985  11.138  13.036   3.355
49577W        W15986  20.657   2.561  13.969
49578W        W15987  43.962  30.172  11.233
49579W        W15988  11.742  43.746  12.391
49580W        W15989   6.906  28.483   1.540
49581W        W15990  30.216  26.048   1.926
49582W        W15991  43.308  12.256  11.852
49583W        W15992   8.938  12.586  12.559
49584W        W15993   2.448  20.921   3.766
49585W        W15994  31.878  15.606   4.596
49586W        W15995  26.226  22.819  12.897
49587W        W15996   4.310  27.457   3.734
49588W        W15997   7.710  39.063   2.155
49589W        W15998  18.518  25.782   2.968
49590W        W15999  11.146  38.780   1.315
49591W        W16000  20.597  25.441  14.145
49592W        W16001  38.510  40.551  14.234
49593W        W16002  43.513   5.883  10.561
49594W        W16003   5.110  31.882   1.608
49595W        W16004  31.421  28.728   3.365
49596W        W16005  32.795   6.314  10.241
49597W        W16006  41.029  22.046   4.259
49598W        W16007  28.056  14.583  11.733
49599W        W16008  42.469  37.173   1.298
49600W        W16009  26.644  29.851  12.552
49601W        W16010  12.165  29.784   0.521
49602W        W16011  14.299  42.217   2.653
49603W        W16012  42.233  42.569  13.471
49604W        W16013  33.924  30.126  13.530
49605W        W16014  25.168  26.438   4.092
49606W        W16015   3.185  23.351   3.983
49607W        W16016  11.455  30.696   0.426
49608W        W16017   9.671   8.712   0.276
49609W        W16018  23.492  12.824   3.153
49610W        W16019   2.906  25.999  12.160
49611W        W16020   7.921  22.296  11.152
49612W        W16021   4.752  36.177   3.119
49613W        W16022  32.731  24.932   4.289
49614W        W16023   6.193  27.962   4.958
49615W        W16024   6.057  17.762  13.586
49616W        W16025  41.876   3.227   4.597
49617W        W16026   3.697  22.982   1.738
49618W        W16027   1.389   3.481  11.550
49619W        W16028  26.425  20.085   3.187
49620W        W16029   0.214   3.884   4.704
49621W        W16030  44.931  42.207  14.545
49622W        W16031  14.586   3.819   0.223
49623W        W16032  43.282  33.862   4.577
49624W        W16033  19.702  30.866  14.334
49625W        W16034   9.776  29.050  12.575
49626W        W16035   2.505  40.546   1.232
49627W        W16036  11.187  44.485   5.043
49628W        W16037  17.683  14.188   2.351
49629W        W16038  30.675  44.813  11.409
49630W        W16039  11.509  42.221   0.962
49631W        W16040  13.152  37.934   3.827
49632W        W16041  14.227   4.872   0.795
49633W        W16042  35.586   1.640  14.613
49634W        W16043  33.336   3.363   2.260
49635W        W16044  33.158  43.377   0.205
49636W        W16045  41.925  21.482  14.552
49637W        W16046  32.493  27.050  10.703
49638W        W16047  37.746  24.240  11.156
49639W        W16048  10.104   4.876   4.104
49640W        W16049   1.967  37.892   1.755
49641W        W16050   4.689  19.625   1.721
49642W        W16051  18.292  29.613  11.609
49643W        W16052  22.550  25.490  13.477
49644W        W16053  28.512  41.000  10.697
49645W        W16054  24.417  27.892   3.190
49646W        W16055   5.211  35.920  10.937
49647W        W16056  39.561   8.324   2.285
49648W        W16057  13.409  13.777   1.664
49649W        W16058  35.826  40.667  11.430
49650W        W16059  22.260  17.191   2.714
49651W        W16060  38.025  11.103   2.778
49652W        W16061  39.496  44.921  14.595
49653W        W16062  19.707  21.098   0.154
49654W        W16063  31.841  10.628  13.165
49655W        W16064  37.750  35.565  13.062
49656W        W16065  13.137  19.021   1.470
49657W        W16066  41.619  42.330   4.232
49658W        W16067  32.510   0.875   2.832
49659W        W16068  25.446  43.945   1.218
49660W        W16069  20.627   6.104   1.421
49661W        W16070  14.166   7.869  10.776
49662W        W16071  36.049  34.509  12.231
49663W        W16072  23.834   7.213  11.533
49664W        W16073   9.679  27.142  10.687
49665W        W16074  34.702  40.121   1.910
49666W        W16075  28.033  37.129  14.893
49667W        W16076  15.084  35.568  12.264
49668W        W16077   8.668  30.887  12.131
49669W        W16078  24.421  19.039   2.297
49670W        W16079  35.511  32.626   1.811
49671W        W16080   8.970  12.482  14.695
49672W        W16081   8.811  42.416   4.497
49673W        W16082  14.260  30.030  11.570
49674W        W16083  43.311  33.382   4.762
49675W        W16084   6.686  16.094  11.612
49676W        W16085  39.821  20.590  14.311
49677W        W16086  19.652  20.701  13.259
49678W        W16087  16.463   2.194  10.847
49679W        W16088   7.876   7.260  14.972
49680W        W16089  28.535  38.358   2.327
49681W        W16090  26.110   6.992  14.387
49682W        W16091  30.294  11.259   2.806
49683W        W16092  22.818  34.913  14.337
49684W        W16093  39.461   6.398   0.783
49685W        W16094  20.210  43.826   2.188
49686W        W16095  28.725  33.498  14.981
49687W        W16096  29.515  23.202  13.924
49688W        W16097  17.413  26.013   4.192
49689W        W16098  43.050  37.423   4.985
49690W        W16099  43.644  41.036  12.009
49691W        W16100  20.604  12.256   1.214
49692W        W16101  19.222  20.984  10.711
49693W        W16102  20.134   1.507  14.708
49694W        W16103  21.815  26.687  10.440
49695W        W16104  19.276  42.997  13.078
49696W        W16105  28.004  13.681   1.786
49697W        W16106  13.587  13.139  14.998
49698W        W16107  25.619   8.315   5.258
49699W        W16108   0.541  10.340   0.346
49700W        W16109   5.417  23.584  11.171
49701W        W16110  25.970  29.475  12.259
49702W        W16111  29.403  15.968   3.260
49703W        W16112  16.137  40.522   2.622
49704W        W16113  31.091   6.702  12.605
49705W        W16114  31.373  30.034   4.332
49706W        W16115  32.558  18.509   1.059
49707W        W16116  35.110  34.673  13.390
49708W        W16117  17.108  13.749   3.337
49709W        W16118  19.183  24.914   2.188
49710W        W16119  37.625  40.978  11.363
49711W        W16120  18.725   9.335   3.697
49712W        W16121   3.875  20.307   0.552
49713W        W16122  18.462   3.925  12.903
49714W        W16123   3.905  35.390  12.490
49715W        W16124  20.620  39.756   1.432
49716W        W16125  42.106  28.231   4.765
49717W        W16126  22.030  43.388  11.974
49718W        W16127   4.952  43.672  14.311
49719W        W16128  43.479   8.264   3.674
49720W        W16129   8.758  29.215  13.380
49721W        W16130  17.723  15.835  14.977
49722W        W16131   5.888  36.921  14.480
49723W        W16132  40.065  40.242  11.091
49724W        W16133   6.428  13.010   3.232
49725W        W16134   6.716  42.938   0.814
49726W        W16135  39.124  44.485  12.576
49727W        W16136   3.780   1.359  13.053
49728W        W16137  21.224   2.989  13.294
49729W        W16138  31.780  33.792   0.841
49730W        W16139   4.444  11.117  12.529
49731W        W16140  44.597  40.869   4.091
49732W        W16141  43.318  13.332   4.645
49733W        W16142  22.712  25.253   2.801
49734W        W16143  25.843  15.781   0.048
49735W        W16144  10.906  21.212   2.110
49736W        W16145  35.486  14.659   0.246
49737W        W16146  38.562   8.814   1.714
49738W        W16147   7.102  11.588  13.279
49739W        W16148   1.778  36.155   3.621
49740W        W16149  24.781  22.408   2.794
49741W        W16150  28.169  24.934   2.751
49742W        W16151  11.580  37.005  14.962
49743W        W16152  40.009  43.270  12.004
49744W        W16153   7.678  32.593  14.219
49745W        W16154  33.547  16.249  12.875
49746W        W16155  12.271  21.043  11.083
49747W        W16156  32.102  20.141   3.177
49748W        W16157  24.911  22.067   3.610
49749W        W16158  29.442  43.619  11.601
49750W        W16159  15.856  11.256  13.534
49751W        W16160  24.110  26.204  12.342
49752W        W16161  19.013   4.184  14.718
49753W        W16162  30.548  22.859  13.581
49754W        W16163  10.412   4.359  12.445
49755W        W16164  29.966   6.231   4.325
49756W        W16165   0.227  38.823  10.768
49757W        W16166  11.389  32.131   0.208
49758W        W16167  17.102  32.607  12.247
49759W        W16168  39.877   1.791   4.681
49760W        W16169   2.506  12.603   1.430
49761W        W16170  11.670  22.132  13.459
49762W        W16171  43.669  35.645   0.267
49763W        W16172  27.138  44.390   2.318
49764W        W16173   6.391  39.043  12.895
49765W        W16174   6.112  18.170  13.936
49766W        W16175   9.791  15.977  11.110
49767W        W16176   6.741  13.804  12.144
49768W        W16177   3.314  11.836   0.933
49769W        W16178  28.193   3.169  13.514
49770W        W16179  10.215  12.254   1.252
49771W        W16180  43.312   3.185   0.926
49772W        W16181  36.032   6.652  12.559
49773W        W16182  39.864   9.870   3.379
49774W        W16183  10.353  33.090   1.257
49775W        W16184  11.293  20.477   4.510
49776W        W16185  43.622  30.446  10.269
49777W        W16186  21.945  40.475   3.397
49778W        W16187  29.758   8.360   0.811
49779W        W16188  21.974  19.184  10.692
49780W        W16189   4.266  11.107  10.959
49781W        W16190   8.678  20.995  13.401
49782W        W16191   2.485  21.124  12.482
49783W        W16192  14.626  15.724  11.999
49784W        W16193   5.368  13.306   0.119
49785W        W16194  38.972  28.961   4.450
49786W        W16195  25.057  35.128   2.244
49787W        W16196   8.280  10.694  11.282
49788W        W16197  21.825  33.053  12.638
49789W        W16198  37.235  10.030  12.924
49790W        W16199  41.348  40.589   0.205
49791W        W16200  32.250   8.236  11.784
49792W        W16201  30.415  10.219  14.892
49793W        W16202  29.005  38.481   3.469
49794W        W16203   0.465  27.118  13.287
49795W        W16204   7.994  29.828   3.002
49796W        W16205   3.525   1.901  12.303
49797W        W16206  20.564  30.512  12.072
49798W        W16207   6.248  29.972  10.716
49799W        W16208  20.714  13.662   2.699
49800W        W16209  32.900  25.061  13.422
49801W        W16210  13.635  35.706  11.086
49802W        W16211   5.754  24.162   1.205
49803W        W16212  14.603  43.515   3.506
49804W        W16213  38.410  16.098   1.802
49805W        W16214   9.804  29.138  11.242
49806W        W16215  21.180   8.741  10.124
49807W        W16216  12.922  22.239   4.109
49808W        W16217  10.399   2.722  12.874
49809W        W16218  19.683   1.689  13.882
49810W        W16219  26.055  17.126   1.458
49811W        W16220   5.179  18.152   3.337
49812W        W16221   1.201  33.725  11.704
49813W        W16222  28.689  18.958   4.868
49814W        W16223  30.133   8.417  14.844
49815W        W16224  12.069  42.493   4.650
49816W        W16225  28.102  22.939   2.825
49817W        W16226  19.094  17.573   3.191
49818W        W16227  40.434  12.985   3.563
49819W        W16228  21.155   3.915   3.585
49820W        W16229  42.762  18.014  10.342
49821W        W16230  44.971  44.001   0.274
49822W        W16231  12.273   7.695   1.975
49823W        W16232  21.244  14.659   3.729
49824W        W16233  25.751  31.647   4.307
49825W        W16234  39.009  21.546   4.090
49826W        W16235  22.096  34.399   0.384
49827W        W16236  12.336   6.624  14.393
49828W        W16237  20.767   4.308  14.677
49829W        W16238  29.144  41.594  14.147
49830W        W16239  40.071  24.285  13.367
49831W        W16240  19.745  42.843  13.578
49832W        W16241  43.663  22.994   1.009
49833W        W16242   0.786  23.136  12.031
49834W        W16243  41.095  27.853  13.867
49835W        W16244  39.993  13.347  10.767
49836W        W16245  28.397  24.476  12.436
49837W        W16246  32.850   1.007  12.590
49838W        W16247  37.112  24.070  14.407
49839W        W16248  31.493  36.477  14.714
49840W        W16249  13.665  27.205  11.911
49841W        W16250  22.265   3.983   4.151
49842W        W16251  16.604  10.138  10.675
49843W        W16252  42.394  26.229   2.387
49844W        W16253  14.222  22.504   3.213
49845W        W16254  15.745  25.259  13.411
49846W        W16255  16.628   1.827  11.207
49847W        W16256   1.347  40.785  13.057
49848W        W16257  17.741  43.046  11.095
49849W        W16258  13.559  22.511   2.684
49850W        W16259  30.309  14.922   2.655
49851W        W16260  38.965  26.514   4.193
49852W        W16261   2.573   7.286   0.806
49853W        W16262  16.400  28.118  11.411
49854W        W16263   2.205  22.105  14.363
49855W        W16264   2.822  18.571   3.647
49856W        W16265  28.457  43.310   4.488
49857W        W16266  23.216  19.582  13.448
49858W        W16267  26.241   8.633  12.257
49859W        W16268   1.160  12.207  12.777
49860W        W16269  10.695  34.190   2.255
49861W        W16270  17.823   7.243   3.822
49862W        W16271  26.614  29.565   0.806
49863W        W16272  32.960  38.948  13.121
49864W        W16273  27.451   5.003   1.709
49865W        W16274   5.331  14.705   0.453
49866W        W16275   3.121  35.570   2.290
49867W        W16276  36.587  25.497  12.932
49868W        W16277  25.116  36.937  11.743
49869W        W16278  38.869   4.898   5.282
49870W        W16279   7.093  25.631   1.094
49871W        W16280  38.766   7.683  13.645
49872W        W16281  10.683  18.647   2.410
49873W        W16282  15.584   2.763   0.811
49874W        W16283   4.310  23.247  10.690
49875W        W16284   9.671  32.069   2.765
49876W        W16285  17.527  37.605  11.544
49877W        W16286  17.124  40.039  11.465
49878W        W16287  12.250  15.601   3.691
49879W        W16288  43.889   6.345   2.593
49880W        W16289   0.715   8.739  13.928
49881W        W16290  14.170   8.185   1.467
49882W        W16291  14.349   4.327   3.688
49883W        W16292  35.590  19.330   4.879
49884W        W16293   3.204  29.403   3.610
49885W        W16294   1.237  11.084  14.568
49886W        W16295   6.273  27.171   1.224
49887W        W16296  25.470   4.376   4.915
49888W        W16297  38.536   4.002   3.327
49889W        W16298  14.885  44.838   3.343
49890W        W16299  14.706  36.074   1.437
49891W        W16300  30.352  40.572  13.487
49892W        W16301  43.736  17.120   0.646
49893W        W16302   1.407  10.566   1.510
49894W        W16303  11.910  18.166   0.305
49895W        W16304   0.384  33.756   3.914
49896W        W16305  18.150  35.896   4.858
49897W        W16306   9.584   8.531   4.059
49898W        W16307  29.141  24.547   4.284
49899W        W16308  24.033  11.729   4.152
49900W        W16309  39.425  14.274  12.986
49901W        W16310  17.209  14.028   4.525
49902W        W16311  16.148  26.677  11.419
49903W        W16312  43.986   6.288  12.820
49904W        W16313  35.275  27.977  12.501
49905W        W16314  13.056  27.201  10.743
49906W        W16315   4.820  38.122   0.289
49907W        W16316  29.724  35.516   3.214
49908W        W16317  29.140   2.739  14.876
49909W        W16318  33.063   3.602  13.832
49910W        W16319  29.960   7.209   3.107
49911W        W16320  34.619  12.039  14.101
49912W        W16321   1.793  28.136   2.235
49913W        W16322  31.670   7.622   2.262
49914W        W16323  20.457   3.278   2.654
49915W        W16324   0.347  43.154  10.745
49916W        W16325  10.832   4.195   2.265
49917W        W16326   2.236  19.080   0.421
49918W        W16327  11.288  34.388  14.452
49919W        W16328  15.254  37.613  14.407
49920W        W16329  13.569  29.636   0.513
49921W        W16330   5.246  41.913  11.636
49922W        W16331  12.604   2.941   3.539
49923W        W16332  12.312  41.015   2.937
49924W        W16333  34.946  17.657   0.954
49925W        W16334  28.505   1.981  12.000
49926W        W16335  13.307  24.634  13.411
49927W        W16336  40.730  29.562  11.269
49928W        W16337   6.430   1.808   0.837
49929W        W16338  36.789   4.774  14.288
49930W        W16339  43.017  34.011  14.256
49931W        W16340  43.915  44.802  10.664
49932W        W16341  30.975  16.214  13.798
49933W        W16342  31.485  38.065   1.238
49934W        W16343  12.203  20.133   1.930
49935W        W16344  42.356   5.335   2.249
49936W        W16345  12.511  13.562  14.292
49937W        W16346  12.657  33.612   0.804
49938W        W16347  10.846  37.917  13.524
49939W        W16348  20.610   6.572   2.840
49940W        W16349  41.449  18.213   0.935
49941W        W16350  17.862  31.620   2.262
49942W        W16351   5.751  31.459  12.432
49943W        W16352  40.505  23.880  12.061
49944W        W16353  14.299   0.464  11.032
49945W        W16354   6.157  33.632   0.523
49946W        W16355  41.452  34.894  10.733
49947W        W16356  25.005  17.733   2.652
49948W        W16357  23.920  25.245   3.243
49949W        W16358  43.222  38.228   4.366
49950W        W16359  28.946  39.363   4.777
49951W        W16360   6.807  32.699   5.046
49952W        W16361   2.148  14.281   4.962
49953W        W16362  18.092  23.500  12.978
49954W        W16363  36.018  30.141   1.208
49955W        W16364  16.675   2.923  14.757
49956W        W16365  33.651  16.799   1.328
49957W        W16366  24.522  30.371  13.976
49958W        W16367  41.282  27.488  12.308
49959W        W16368  36.281   1.386  13.434
49960W        W16369  20.534  21.304   2.786
49961W        W16370  32.963  33.045  12.520
49962W        W16371  17.704  35.679  13.466
49963W        W16372   3.792  14.791   1.364
49964W        W16373  10.947  23.506   2.214
49965W        W16374  19.182   0.717  12.489
49966W        W16375  19.067  44.504  14.033
49967W        W16376  20.117  37.670  12.490
49968W        W16377   3.029  30.401  14.366
49969W        W16378  16.746   3.704  13.611
49970W        W16379  39.310  26.498   4.743
49971W        W16380  29.521  12.022  11.588
49972W        W16381  23.994  42.227   1.635
49973W        W16382  17.381  25.049  11.179
49974W        W16383  16.913   4.812   1.782
49975W        W16384  19.231  17.597  14.835
49976W        W16385   8.473  30.866   4.061
49977W        W16386  31.496  33.005   2.467
49978W        W16387  34.640   8.668  14.226
49979W        W16388  19.162  24.655   3.345
49980W        W16389  28.073   3.492  11.503
49981W        W16390   8.946  25.641   2.264
49982W        W16391   0.308  11.391   1.585
49983W        W16392  17.029   9.961   0.779
49984W        W16393  38.883  40.300   3.102
49985W        W16394  26.438  28.956   4.592
49986W        W16395  38.388  19.599   0.737
49987W        W16396  22.143  22.410  13.937
49988W        W16397  24.637  44.177   1.796
49989W        W16398  42.111  40.943  13.858
49990W        W16399  13.911  31.875  14.382
49991W        W16400  18.298  44.248  14.031
49992W        W16401  34.703  11.665   4.180
49993W        W16402  31.069  25.626  12.534
49994W        W16403  39.541   3.310   0.890
49995W        W16404  37.085  27.582   4.188
49996W        W16405  32.830  19.028   0.403
49997W        W16406  12.003   1.093   3.937
49998W        W16407  15.189   3.828  11.659
49999W        W16408  21.257   1.874   1.034
50000W        W16409   8.159  19.333   2.375
50001W        W16410  18.180  24.086  12.448
50002W        W16411  29.013  36.245   1.478
50003W        W16412  32.693  39.347  12.952
50004W        W16413  17.147  17.444   2.557
50005W        W16414  28.121  36.317  14.503
50006W        W16415   9.457  38.469  10.338
50007W        W16416  28.649  15.732  10.388
50008W        W16417   9.140  28.160   2.185
50009W        W16418   6.692  28.063   2.303
50010W        W16419  24.930  26.239   2.738
50011W        W16420  12.134  23.945   3.177
50012W        W16421  34.886   2.007   1.871
50013W        W16422  24.670   7.282  10.934
50014W        W16423  20.528  19.444  12.115
50015W        W16424  43.688  39.888  13.100
50016W        W16425  14.293   2.536   0.471
50017W        W16426  42.389  33.123  12.955
50018W        W16427   5.849  31.733   0.758
50019W        W16428  12.182  17.722   0.340
50020W        W16429  35.115  39.429  10.770
50021W        W16430  39.478  14.539   3.650
50022W        W16431  15.094   6.536   0.873
50023W        W16432   7.317  39.316  10.737
50024W        W16433  20.295  32.450   4.165
50025W        W16434  32.069  13.544  13.474
50026W        W16435   2.779  18.223   2.818
50027W        W16436  44.332  37.974  11.147
50028W        W16437  34.861  24.981   1.901
50029W        W16438   5.824   5.161   1.837
50030W        W16439  20.951  18.275  11.098
50031W        W16440   8.305  13.113   2.821
50032W        W16441  44.255  34.449   2.157
50033W        W16442  34.016   9.411  11.347
50034W        W16443   0.672  42.737  11.068
50035W        W16444  43.035   0.951  10.667
50036W        W16445  40.126  30.929  12.875
50037W        W16446  28.243  32.882  12.069
50038W        W16447   3.732   7.250  10.379
50039W        W16448  38.473  14.341   4.999
50040W        W16449  17.216   5.329   0.390
50041W        W16450   6.944   3.796   4.378
50042W        W16451  19.189   3.772  13.537
50043W        W16452  41.312  19.732   0.146
50044W        W16453  15.901   1.903  12.888
50045W        W16454  17.984  30.913   2.646
50046W        W16455   1.788  43.045  12.486
50047W        W16456   3.686  43.953   1.781
50048W        W16457   7.284  12.994  11.197
50049W        W16458  29.297   0.983   1.306
50050W        W16459  18.122   9.815   3.231
50051W        W16460  35.845   4.794   4.111
50052W        W16461  13.128   9.869  12.490
50053W        W16462  22.475  13.269   1.371
50054W        W16463  20.607  12.736  11.364
50055W        W16464  44.498  18.437  11.688
50056W        W16465  36.036  14.482   0.255
50057W        W16466   9.769   1.941   4.960
50058W        W16467  38.924  43.254   2.862
50059W        W16468  28.669  40.016  13.422
50060W        W16469  39.470   9.466   3.871
50061W        W16470  15.252  14.697  10.517
50062W        W16471  38.791   0.838   4.478
50063W        W16472  38.294   0.921   3.245
50064W        W16473   8.024   9.934  11.937
50065W        W16474  15.187   8.128   2.215
50066W        W16475  35.304   5.394  10.229
50067W        W16476  39.033  23.666  10.361
50068W        W16477  20.225  30.192  10.630
50069W        W16478   1.343  40.470   4.252
50070W        W16479   2.697  33.382  10.792
50071W        W16480  12.104  44.558  10.261
50072W        W16481  34.365  41.451   3.085
50073W        W16482  40.054  16.493  14.019
50074W        W16483  32.481  25.222   0.897
50075W        W16484  19.118  21.180  12.383
50076W        W16485  35.650  10.183   1.360
50077W        W16486  31.919  29.944  13.399
50078W        W16487  34.547  42.338  11.483
50079W        W16488  36.854  40.341  14.284
50080W        W16489  28.442  37.165   4.321
50081W        W16490   5.235  17.990  10.835
50082W        W16491  27.909  37.755   3.851
50083W        W16492  39.142  21.804   0.937
50084W        W16493  26.223  41.348  14.165
50085W        W16494  25.434  44.525   3.148
50086W        W16495  25.139  11.384   0.810
50087W        W16496   7.294  32.163   1.785
50088W        W16497   5.029   7.884  12.087
50089W        W16498  37.094  43.925  13.415
50090W        W16499  35.796  36.104  14.882
50091W        W16500   9.592  27.204   4.588
50092W        W16501  13.788  40.583   3.335
50093W        W16502   5.807   5.490   2.274
50094W        W16503  29.443  39.401   0.910
50095W        W16504   4.474  36.464   1.657
50096W        W16505  33.003  19.240  10.455
50097W        W16506   1.504  35.378   3.305
50098W        W16507  44.305   1.012   1.682
50099W        W16508  33.887   9.822  13.650
50100W        W16509   3.175  44.830   1.746
50101W        W16510  23.043  32.261   4.034
50102W        W16511   1.364  27.704   1.047
50103W        W16512  31.412  15.089   1.293
50104W        W16513   4.588  20.954   4.867
50105W        W16514   4.761  30.210  13.406
50106W        W16515  31.628  21.040  13.064
50107W        W16516  35.087  24.381   0.367
50108W        W16517   7.991   2.955  14.871
50109W        W16518  43.419  12.371  10.467
50110W        W16519  26.989  21.646  13.446
50111W        W16520  14.808  16.259   2.373
50112W        W16521  17.015  18.719  13.887
50113W        W16522  31.813   5.197   0.785
50114W        W16523  32.214   0.772   4.097
50115W        W16524  40.814  39.569   2.308
50116W        W16525  39.735   3.098  13.805
50117W        W16526  31.044  39.918  12.149
50118W        W16527  26.242  20.169  12.592
50119W        W16528  40.763   0.838  14.924
50120W        W16529  23.135  29.146  10.564
50121W        W16530  18.496  20.636  12.072
50122W        W16531   4.274  44.435  13.753
50123W        W16532  13.671   2.632  14.995
50124W        W16533  37.108   7.506   3.627
50125W        W16534  27.227  23.714  12.911
50126W        W16535   3.456  35.660  12.485
50127W        W16536  21.259  29.058  14.522
50128W        W16537   8.626  18.464  12.543
50129W        W16538  19.600  18.626   3.646
50130W        W16539  29.402  24.291  13.182
50131W        W16540  17.143  21.136  14.311
50132W        W16541   6.640  22.041  11.150
50133W        W16542   8.175  34.868   2.425
50134W        W16543  13.698  13.964  11.185
50135W        W16544  13.770   6.354  14.543
50136W        W16545  22.616  31.736  13.394
50137W        W16546  43.402  19.754  12.984
50138W        W16547   5.621  21.638  13.986
50139W        W16548   7.633  41.380   0.686
50140W        W16549  38.765  33.498  12.420
50141W        W16550  43.903   0.314  13.864
50142W        W16551  10.085  41.773  13.020
50143W        W16552   6.702   3.045   2.920
50144W        W16553  28.437  28.996   4.653
50145W        W16554  27.445   4.087  11.583
50146W        W16555   9.796  10.277   3.992
50147W        W16556   6.922  26.920  12.475
50148W        W16557   3.711  37.602   3.284
50149W        W16558  41.420  27.288   2.748
50150W        W16559  21.917  38.934  12.470
50151W        W16560  23.710  34.450  11.575
50152W        W16561  29.765  11.646  14.836
50153W        W16562  14.166  32.940   4.024
50154W        W16563   4.742  18.319  11.606
50155W        W16564  16.578  32.989   4.464
50156W        W16565   1.738  10.411   1.141
50157W        W16566  35.391  41.443  14.496
50158W        W16567   0.377  40.732   0.321
50159W        W16568  10.807  27.469  11.937
50160W        W16569  24.095  37.867   1.877
50161W        W16570   1.241  13.200   2.686
50162W        W16571  14.935   8.907  13.398
50163W        W16572  19.152   3.489  11.600
50164W        W16573  17.757  39.350   4.523
50165W        W16574  32.888  15.981  11.147
50166W        W16575   3.987  12.795   4.950
50167W        W16576  10.026  17.305  12.986
50168W        W16577  30.830  39.022   0.905
50169W        W16578   9.582   2.224   1.378
50170W        W16579  28.042   4.237   0.426
50171W        W16580  42.402  38.647  13.791
50172W        W16581  11.302  33.315  12.493
50173W        W16582  12.673   7.615   0.753
50174W        W16583  22.064  20.561  14.368
50175W        W16584  42.867  40.224   2.946
50176W        W16585  43.059  23.900   0.279
50177W        W16586  18.648  23.052   3.216
50178W        W16587  20.223  19.248   4.688
50179W        W16588   8.289  39.268  11.913
50180W        W16589  11.396   3.270  13.605
50181W        W16590   9.160   5.623   4.044
50182W        W16591   8.354  18.998   3.656
50183W        W16592   5.022  27.721  13.383
50184W        W16593  27.679   3.935  13.362
50185W        W16594  26.115   3.526   4.204
50186W        W16595  13.864  27.607  14.899
50187W        W16596  32.350  18.284   0.006
50188W        W16597  36.415  30.182   3.352
50189W        W16598   7.915  33.695   3.109
50190W        W16599  32.961  31.755   0.475
50191W        W16600  12.950  26.109   3.782
50192W        W16601   9.755  30.562   2.871
50193W        W16602   8.665  35.672  13.337
50194W        W16603  16.506  30.603  13.967
50195W        W16604   8.441  20.813   3.298
50196W        W16605  13.549  30.690   1.660
50197W        W16606   3.867  25.309  11.107
50198W        W16607  29.560  39.962  13.315
50199W        W16608  26.366  19.167   1.785
50200W        W16609   2.409  22.537   3.247
50201W        W16610  18.163  22.646   3.133
50202W        W16611  41.389  27.182   4.659
50203W        W16612  31.715  28.839   0.319
50204W        W16613   1.792  13.056   0.423
50205W        W16614  36.510   9.653  14.899
50206W        W16615  44.796  20.815   4.903
50207W        W16616   1.320  33.446   2.197
50208W        W16617  15.797   7.804  13.640
50209W        W16618   9.251  26.934   0.470
50210W        W16619   6.406  12.731  14.554
50211W        W16620  24.314  11.212  11.737
50212W        W16621  21.721   9.242   3.390
50213W        W16622  32.623  30.801   3.675
50214W        W16623   3.239  23.405   0.907
50215W        W16624  20.772  33.175   3.853
50216W        W16625  18.788  37.012   4.220
50217W        W16626  17.675  20.553   4.146
50218W        W16627  25.081   9.675   5.227
50219W        W16628  36.531  27.514  14.922
50220W        W16629   2.714  26.871  14.697
50221W        W16630   2.450  39.997   3.146
50222W        W16631  44.951  29.670  12.158
50223W        W16632  10.879  21.511  14.355
50224W        W16633  22.419  26.458  14.991
50225W        W16634  10.653  14.053  14.350
50226W        W16635   0.242  34.227   0.392
50227W        W16636  16.819  19.596  11.963
50228W        W16637   0.671  18.178   3.767
50229W        W16638  24.479   1.692  12.902
50230W        W16639  42.805  10.537   0.475
50231W        W16640  19.661  25.489   0.312
50232W        W16641  25.414  37.581   1.623
50233W        W16642  38.339  30.881  11.161
50234W        W16643   2.017   6.345   3.632
50235W        W16644  37.632  24.723  14.915
50236W        W16645  26.553   5.116  12.390
50237W        W16646  32.639  12.794  11.980
50238W        W16647  18.013  22.865   4.100
50239W        W16648  44.256  24.503   2.789
50240W        W16649  37.783  33.685  14.829
50241W        W16650  28.795  29.074   1.653
50242W        W16651  35.394  39.497   2.456
50243W        W16652  34.884  39.454   1.716
50244W        W16653  11.374  36.009  13.611
50245W        W16654  24.560  15.252  11.881
50246W        W16655  38.733  42.531   3.071
50247W        W16656  24.191  15.789  14.910
50248W        W16657  18.507  19.726   0.906
50249W        W16658  29.167   8.873  11.960
50250W        W16659  42.692  30.952  14.453
50251W        W16660  26.337  33.816  11.634
50252W        W16661  24.986  13.666   0.420
50253W        W16662  24.674   7.806   3.026
50254W        W16663  12.690  40.336   4.055
50255W        W16664   9.323  17.586   1.890
50256W        W16665   4.979  16.367  11.850
50257W        W16666   3.804  44.374  10.094
50258W        W16667  33.811  11.056  14.467
50259W        W16668  21.982  29.301   3.244
50260W        W16669  25.482   3.385   2.332
50261W        W16670  34.686  13.542   3.692
50262W        W16671  11.295  10.309   0.054
50263W        W16672  12.000  37.355  12.924
50264W        W16673  32.833  32.356  12.883
50265W        W16674  22.045  11.141   2.741
50266W        W16675  22.130   9.321   2.439
50267W        W16676  44.370  31.557  13.510
50268W        W16677   3.857   9.436  13.025
50269W        W16678  31.086   2.359  12.605
50270W        W16679  29.084  29.771  10.329
50271W        W16680  20.106  22.059  11.522
50272W        W16681  18.790  19.677   0.442
50273W        W16682  41.236   2.523  10.729
50274W        W16683  44.586  12.399  14.418
50275W        W16684  31.538  26.958  11.655
50276W        W16685  43.566   4.707  12.300
50277W        W16686   7.092   5.528   1.699
50278W        W16687  16.247  35.583   3.941
50279W        W16688  17.106  17.654  10.784
50280W        W16689   7.787  17.344   1.979
50281W        W16690  38.102   9.313   2.550
50282W        W16691  35.415  28.087   2.352
50283W        W16692   1.281  42.135  11.872
50284W        W16693  18.728   1.013   3.363
50285W        W16694   6.261  23.548  11.545
50286W        W16695  43.617  37.539  14.720
50287W        W16696  34.996   8.529  11.382
50288W        W16697   5.270  38.995   4.647
50289W        W16698  33.074  31.031   4.803
50290W        W16699   2.394  18.058  10.746
50291W        W16700   5.366  31.951   4.582
50292W        W16701  19.710  37.275  14.855
50293W        W16702   7.118  21.748  14.314
50294W        W16703  32.207  24.673   1.220
50295W        W16704  37.530  28.474   1.771
50296W        W16705  33.365  16.586   0.918
50297W        W16706  33.846  43.535   3.212
50298W        W16707  30.719  20.052   5.293
50299W        W16708  12.307  21.180   1.813
50300W        W16709  32.426  19.415   2.247
50301W        W16710   4.402  21.463   2.754
50302W        W16711  10.376  23.900   0.157
50303W        W16712   8.306  11.187  14.044
50304W        W16713   2.722   0.373   3.559
50305W        W16714  33.662  29.630  13.634
50306W        W16715  26.550  28.713   3.548
50307W        W16716  18.854  30.481  10.744
50308W        W16717  20.576   3.137  11.176
50309W        W16718  33.718  29.014  13.975
50310W        W16719   3.645  16.236   2.710
50311W        W16720  30.692   0.549  13.006
50312W        W16721   3.446  28.577  12.100
50313W        W16722  28.733  36.548  12.009
50314W        W16723  33.576  23.249   0.022
50315W        W16724  20.419  41.399   2.260
50316W        W16725  40.565  13.281  13.097
50317W        W16726  33.187  28.976  13.901
50318W        W16727  19.296   2.455  14.091
50319W        W16728  21.087  31.044  14.922
50320W        W16729   3.638  11.729   5.030
50321W        W16730   1.857  31.391  13.498
50322W        W16731  19.692  33.442  10.599
50323W        W16732  19.361   9.465   3.098
50324W        W16733  25.067  13.282  14.693
50325W        W16734  23.653  10.358  13.524
50326W        W16735  17.118   3.325  14.791
50327W        W16736  17.339  27.175  14.828
50328W        W16737  14.352  34.531  10.364
50329W        W16738  28.556  43.666   2.905
50330W        W16739  17.778  20.259   0.748
50331W        W16740  24.180  30.616   3.771
50332W        W16741  30.911   7.235   3.625
50333W        W16742   4.341  42.948   2.697
50334W        W16743  13.725  18.522   4.587
50335W        W16744   7.790   4.217   4.901
50336W        W16745  31.563  44.684   1.385
50337W        W16746  35.741   9.312  13.406
50338W        W16747  27.956  21.441  14.389
50339W        W16748  30.392  30.151   3.873
50340W        W16749  33.992  14.108   2.861
50341W        W16750  37.358   9.574  12.123
50342W        W16751   8.696  38.516  13.630
50343W        W16752   5.878  39.340  11.432
50344W        W16753  36.512   7.108  13.274
50345W        W16754  33.189  30.831   0.957
50346W        W16755  43.801  17.722   1.722
50347W        W16756   8.122  27.405   1.388
50348W        W16757  11.370  24.943   2.299
50349W        W16758   1.840  40.046   1.992
50350W        W16759  15.347  35.313   4.225
50351W        W16760   6.158  43.694   3.588
50352W        W16761  38.064  34.580   0.888
50353W        W16762   1.435  32.359  11.714
50354W        W16763  25.851  11.541   4.186
50355W        W16764   0.252  11.202   1.116
50356W        W16765   9.814  16.020  11.878
50357W        W16766  35.757  44.500  12.692
50358W        W16767  38.818  42.033   3.257
50359W        W16768   2.818   0.961   1.400
50360W        W16769  16.083   1.353  11.556
50361W        W16770   7.196   5.318  14.969
50362W        W16771  10.921  32.188  14.906
50363W        W16772  39.653  14.284  12.478
50364W        W16773  23.220  39.606  12.949
50365W        W16774  29.552  15.703   0.271
50366W        W16775  34.025  25.164   2.612
50367W        W16776  12.878  20.695   3.591
50368W        W16777  38.127  40.723   3.837
50369W        W16778   1.557  41.779   4.083
50370W        W16779  24.272  10.257  12.145
50371W        W16780  20.200  15.357   4.363
50372W        W16781  11.751  23.853   2.396
50373W        W16782  21.214   8.464  14.464
50374W        W16783   2.743  32.863   1.402
50375W        W16784  44.686  26.449  13.593
50376W        W16785  12.274  32.897   3.680
50377W        W16786  26.456  19.110  11.597
50378W        W16787  21.184  17.016   4.685
50379W        W16788   7.814  37.715   2.706
50380W        W16789   2.558  30.473  10.366
50381W        W16790  39.797  35.378   1.875
50382W        W16791  43.550   3.245  13.388
50383W        W16792  13.057   9.558   0.510
50384W        W16793  34.869  21.434   1.325
50385W        W16794  24.616   9.438  11.229
50386W        W16795  43.299  37.741   4.200
50387W        W16796   4.905  11.320   9.963
50388W        W16797  24.808   3.854   4.086
50389W        W16798  34.843  12.753   2.872
50390W        W16799   5.763   4.125  12.175
50391W        W16800   8.449   5.350   0.901
50392W        W16801  42.500  40.993   4.590
50393W        W16802  29.267   6.705   1.674
50394W        W16803  31.587  17.628   0.475
50395W        W16804  15.430  26.176  10.862
50396W        W16805  44.761   8.374   2.348
50397W        W16806   5.443  37.404   2.596
50398W        W16807  28.822   4.476  13.993
50399W        W16808  18.555   2.651  11.669
50400W        W16809  20.273  35.750   4.343
50401W        W16810  28.340  30.425   0.698
50402W        W16811   1.245  21.009   1.922
50403W        W16812  29.625   8.147  10.596
50404W        W16813  12.251  23.515  11.462
50405W        W16814  33.092  11.599  10.634
50406W        W16815  31.283   1.828  10.570
50407W        W16816  43.358  14.124  10.721
50408W        W16817   9.717  29.922  11.721
50409W        W16818   4.862  17.563   1.392
50410W        W16819  29.544  17.536  12.078
50411W        W16820   1.262  33.042  12.891
50412W        W16821  12.789  20.126  14.553
50413W        W16822  26.099  43.568   3.685
50414W        W16823  37.900  41.983   2.298
50415W        W16824   5.621  18.121  11.146
50416W        W16825  16.682  23.643   0.441
50417W        W16826  41.754  23.089  10.741
50418W        W16827  42.771  18.999  14.544
50419W        W16828  14.330  42.953  12.414
50420W        W16829  42.058   2.235   1.111
50421W        W16830  35.853  12.927  12.412
50422W        W16831   2.856  14.659   4.422
50423W        W16832  29.906  29.584  13.462
50424W        W16833   4.208  25.130   5.050
50425W        W16834  37.501   9.172  14.260
50426W        W16835  35.144  36.175  10.667
50427W        W16836  14.684   8.055  12.997
50428W        W16837  20.552  43.737  14.045
50429W        W16838   6.357   5.578   0.819
50430W        W16839  17.335  38.581  14.277
50431W        W16840  22.469  40.562  13.527
50432W        W16841  16.209   5.224  10.739
50433W        W16842  21.251   8.187   1.714
50434W        W16843  40.808   6.528   1.604
50435W        W16844  18.512  39.060   0.305
50436W        W16845  26.976  16.719  13.580
50437W        W16846  18.213  11.116   4.667
50438W        W16847   9.639  27.979   3.107
50439W        W16848  30.484   3.893  14.576
50440W        W16849   7.296   8.675  14.532
50441W        W16850   8.307  33.140  13.326
50442W        W16851  12.379  35.012  10.484
50443W        W16852   8.826   1.988   0.801
50444W        W16853  25.525  30.532   3.309
50445W        W16854  31.153  44.978   1.398
50446W        W16855  21.722   5.936  12.466
50447W        W16856  27.705  39.853   3.980
50448W        W16857  29.499  28.186   2.572
50449W        W16858  33.885  26.561  14.062
50450W        W16859  33.017  40.053   2.598
50451W        W16860   9.419  30.677   9.863
50452W        W16861  27.086   1.727   4.883
50453W        W16862  30.854  13.776  10.487
50454W        W16863  41.608  12.801   1.784
50455W        W16864  10.021  11.548  12.376
50456W        W16865  39.320  23.148  13.457
50457W        W16866  21.265  10.038   3.707
50458W        W16867  12.491  33.669  11.143
50459W        W16868   8.633  41.991  12.895
50460W        W16869   4.818  23.532   0.070
50461W        W16870  27.531  16.382   2.809
50462W        W16871  15.871  33.512  14.053
50463W        W16872   2.712  23.246  11.321
50464W        W16873  44.232  16.970   1.287
50465W        W16874  12.417  33.511  14.575
50466W        W16875   0.098  35.329   2.625
50467W        W16876   3.565  12.613   1.367
50468W        W16877  43.979  38.934   4.382
50469W        W16878  35.837  38.599   4.462
50470W        W16879   5.747  15.253  12.038
50471W        W16880  30.997  11.749   0.729
50472W        W16881   3.272   8.062   0.808
50473W        W16882  37.257   6.723  10.747
50474W        W16883   8.429  10.801  14.936
50475W        W16884  16.816  20.316   0.891
50476W        W16885  39.529   3.456   4.486
50477W        W16886  36.826  35.621  13.937
50478W        W16887  39.806   6.935  14.948
50479W        W16888  39.461  17.296   0.929
50480W        W16889  14.342  15.283  11.945
50481W        W16890  11.805  38.808  13.722
50482W        W16891  23.187  21.219  14.611
50483W        W16892  18.003  29.529  11.187
50484W        W16893  10.309  18.290   2.580
50485W        W16894  41.865  31.341  14.411
50486W        W16895   2.446  40.464   2.812
50487W        W16896  10.076  15.615  11.514
50488W        W16897  12.651  14.637   2.664
50489W        W16898  14.298  19.751   3.012
50490W        W16899  19.702  40.905   1.499
50491W        W16900  36.335  31.168  12.019
50492W        W16901  44.561  12.927  14.462
50493W        W16902  21.296  19.112   3.750
50494W        W16903  29.401   7.421  12.417
50495W        W16904  14.573  43.893  11.714
50496W        W16905  20.918  44.808   1.683
50497W        W16906   7.433  14.626   1.242
50498W        W16907   4.507  13.764   3.129
50499W        W16908   0.088  19.278   4.685
50500W        W16909  20.716   6.043  13.361
50501W        W16910  32.086  21.265   0.961
50502W        W16911  16.572  22.425   1.739
50503W        W16912   1.465   3.743  14.402
50504W        W16913  27.988   5.882   3.559
50505W        W16914   5.266   2.019   2.657
50506W        W16915  44.449  12.901  13.018
50507W        W16916  37.888   0.550  13.002
50508W        W16917  32.953   9.053  12.964
50509W        W16918  28.567   3.698  14.228
50510W        W16919  43.569   4.239  12.991
50511W        W16920  38.015  24.698  11.252
50512W        W16921   5.481   9.685  12.535
50513W        W16922  35.039  21.784  12.504
50514W        W16923  22.595  23.666   1.781
50515W        W16924   9.299  24.552  11.452
50516W        W16925  13.339  14.545   3.767
50517W        W16926  14.164  41.757  12.437
50518W        W16927  21.701  36.392   4.206
50519W        W16928   8.437   0.922  11.633
50520W        W16929  32.736  16.739  12.339
50521W        W16930  12.612  44.707   0.854
50522W        W16931   7.328  41.489  11.185
50523W        W16932  19.237  26.451  13.960
50524W        W16933  16.329   1.876   2.590
50525W        W16934   8.404  30.575   3.642
50526W        W16935  16.796   9.910   4.100
50527W        W16936  34.286  23.075   2.505
50528W        W16937  22.584   8.541   1.911
50529W        W16938  11.932  10.012  11.818
50530W        W16939  43.154  35.719  11.217
50531W        W16940   6.927   8.306  13.778
50532W        W16941  11.827  43.389  14.542
50533W        W16942   1.375   3.387  12.935
50534W        W16943  24.170  23.305   0.759
50535W        W16944  31.349  39.539   3.744
50536W        W16945  37.971  19.529   2.895
50537W        W16946  21.565  36.845  14.769
50538W        W16947  44.503  32.072  14.857
50539W        W16948  44.812   2.238   0.996
50540W        W16949  13.337  20.073   2.773
50541W        W16950  21.292  40.850  12.794
50542W        W16951  17.088  27.586  11.887
50543W        W16952  34.433  13.750   4.583
50544W        W16953   9.119  14.685   1.971
50545W        W16954  29.565  10.753  11.822
50546W        W16955  25.831  20.172  12.910
50547W        W16956  41.839  27.949  11.699
50548W        W16957  28.174   9.220   3.701
50549W        W16958  23.922   1.906   4.067
50550W        W16959  16.162  26.477  14.483
50551W        W16960  32.871   9.117   3.831
50552W        W16961  27.249   3.314  13.890
50553W        W16962  30.902  25.003   4.652
50554W        W16963  27.472  43.103   4.765
50555W        W16964  41.213   1.157   2.865
50556W        W16965  14.986   7.557   4.191
50557W        W16966  40.341  17.012   0.423
50558W        W16967  22.272  20.692   1.427
50559W        W16968   9.755  26.358  12.394
50560W        W16969  12.554  21.609  13.881
50561W        W16970  14.201  38.086  14.759
50562W        W16971   5.330  14.618  12.600
50563W        W16972  24.654  12.873   3.635
50564W        W16973  32.609  41.321   3.058
50565W        W16974   1.562  22.991  13.254
50566W        W16975   8.868  13.177  13.507
50567W        W16976  14.575  22.294   0.385
50568W        W16977  37.871  31.583  12.954
50569W        W16978   0.470  11.726  12.999
50570W        W16979   5.492  27.802  12.620
50571W        W16980  16.744  35.497  11.023
50572W        W16981   2.890  12.730  12.924
50573W        W16982   8.157  10.426   3.645
50574W        W16983  27.606  30.384   3.465
50575W        W16984   3.175  26.618  12.967
50576W        W16985  37.438  19.792   1.058
50577W        W16986  33.408  32.076  12.508
50578W        W16987  28.885  11.325   3.034
50579W        W16988   6.484  35.601  10.665
50580W        W16989   5.249  15.257   1.420
50581W        W16990   1.351   6.880   2.188
50582W        W16991  16.569  41.985  13.557
50583W        W16992  15.266  42.480   2.799
50584W        W16993  36.196  25.461   2.680
50585W        W16994  40.785   3.866   4.121
50586W        W16995   9.709  34.557   1.028
50587W        W16996   4.440  20.971  11.619
50588W        W16997  25.081  14.131   1.738
50589W        W16998   7.799  41.633  12.087
50590W        W16999  30.700  39.775  11.228
50591W        W17000  39.773  17.835   3.703
50592W        W17001  37.511  19.592   3.637
50593W        W17002  37.371  21.590  10.922
50594W        W17003  36.450  31.444  10.722
50595W        W17004  22.153  43.912   1.787
50596W        W17005  31.626  15.478   2.898
50597W        W17006   0.218  33.167   5.012
50598W        W17007  12.829  22.222  14.590
50599W        W17008  27.056   1.487   0.803
50600W        W17009   9.681   6.802  11.949
50601W        W17010  39.400  16.780  13.068
50602W        W17011  32.339  14.598  12.101
50603W        W17012  11.799   3.675   0.870
50604W        W17013  30.942  27.385  13.444
50605W        W17014  38.473  22.457   1.462
50606W        W17015   6.240   1.084   1.382
50607W        W17016   0.929  31.595  11.668
50608W        W17017  11.647  40.867   2.198
50609W        W17018  12.779  42.916  11.546
50610W        W17019  44.729  18.518   0.926
50611W        W17020   9.435   1.883  14.469
50612W        W17021  41.834  13.663   4.145
50613W        W17022   4.887   6.388   3.281
50614W        W17023  36.424  43.184  12.937
50615W        W17024   9.170  14.156   0.236
50616W        W17025  16.217   6.452  13.527
50617W        W17026  38.008  28.699   1.770
50618W        W17027  16.225  31.450   0.317
50619W        W17028  32.123  11.186   0.992
50620W        W17029  23.685   7.707  11.545
50621W        W17030  18.603  18.531   1.814
50622W        W17031  42.226  13.423  11.517
50623W        W17032  28.947  23.013  10.403
50624W        W17033  11.948  40.892  12.118
50625W        W17034  11.282   8.037   0.430
50626W        W17035  18.654   4.426  12.148
50627W        W17036  34.394  10.265   2.193
50628W        W17037   4.918  44.250   0.298
50629W        W17038  14.551  34.404  10.836
50630W        W17039  43.000   8.651  11.169
50631W        W17040  26.189  10.958  12.888
50632W        W17041  41.110   7.042   4.051
50633W        W17042  22.567   4.437  11.739
50634W        W17043  31.365   5.174   2.466
50635W        W17044  15.229   4.644   2.327
50636W        W17045   0.893  44.772  11.551
50637W        W17046  27.714  34.457  13.001
50638W        W17047  30.834   8.746   0.307
50639W        W17048  43.912  25.110   3.426
50640W        W17049  35.013  41.239   0.365
50641W        W17050  23.944  33.633   4.044
50642W        W17051  40.780   4.795  11.687
50643W        W17052   4.028  34.782   4.404
50644W        W17053  37.714  36.552  14.742
50645W        W17054  33.727   1.316  14.526
50646W        W17055  34.810   8.605   4.074
50647W        W17056  30.579  33.511  10.981
50648W        W17057  34.302   9.399  13.411
50649W        W17058  33.482  40.105   2.783
50650W        W17059   2.008  28.421  12.483
50651W        W17060  40.957  25.095   3.217
50652W        W17061  43.387  15.406   1.902
50653W        W17062  38.504  39.242  12.589
50654W        W17063  10.546  30.140  10.657
50655W        W17064  25.641   7.397  11.060
50656W        W17065   2.076  41.935   4.756
50657W        W17066  21.194   8.745  11.137
50658W        W17067  17.744  10.532  12.061
50659W        W17068  11.910   2.000   3.688
50660W        W17069  32.067  30.357  10.867
50661W        W17070  38.412  20.365   5.618
50662W        W17071  19.777  35.887   2.596
50663W        W17072  26.244   4.919   0.225
50664W        W17073  22.701  29.461  11.219
50665W        W17074  29.126   5.489  14.066
50666W        W17075  27.752  37.376   2.665
50667W        W17076  25.484  17.674  13.707
50668W        W17077   9.961  15.673  13.694
50669W        W17078  25.483  30.196   4.541
50670W        W17079   5.258  11.410  14.694
50671W        W17080  16.067  43.865   4.356
50672W        W17081  43.147   5.214  14.000
50673W        W17082   9.243  29.766  11.022
50674W        W17083  21.964  28.251   2.318
50675W        W17084  10.608  21.707   1.260
50676W        W17085   7.509  19.575   0.580
50677W        W17086  36.026  29.598   4.135
50678W        W17087  20.764  38.903   3.331
50679W        W17088  23.531   0.508  10.518
50680W        W17089  12.820  39.820   4.144
50681W        W17090  32.946  11.539   0.904
50682W        W17091  15.308  18.102  13.842
50683W        W17092  37.494  16.735  12.749
50684W        W17093  43.280   2.282   1.651
50685W        W17094  26.768  31.082  14.446
50686W        W17095  30.858   9.783   0.671
50687W        W17096  15.711  43.498  13.341
50688W        W17097  41.070  42.545   3.110
50689W        W17098  43.257   5.416  14.936
50690W        W17099  22.640  29.208   1.257
50691W        W17100  29.460  17.120  13.412
50692W        W17101   4.846  32.983   2.200
50693W        W17102  42.259  13.181  11.053
50694W        W17103  20.091   7.289   3.911
50695W        W17104  39.008  40.199   1.847
50696W        W17105  30.849  12.952   1.670
50697W        W17106  19.681  27.993   2.737
50698W        W17107  28.157  14.062  10.746
50699W        W17108   1.006   0.366  14.592
50700W        W17109  38.971  12.499  13.280
50701W        W17110   9.839  17.131  13.458
50702W        W17111  27.989   7.727   3.181
50703W        W17112  40.393  19.871  10.902
50704W        W17113  43.284  11.154   1.768
50705W        W17114   1.922  29.174   2.256
50706W        W17115  14.336   7.220  11.119
50707W        W17116  41.957  14.089  13.453
50708W        W17117   1.537  13.892   1.719
50709W        W17118  16.657   6.676   2.145
50710W        W17119  24.527   2.449   0.820
50711W        W17120  37.095  15.885   0.231
50712W        W17121  21.341   0.783   3.092
50713W        W17122   0.240   1.530  13.083
50714W        W17123  42.662  19.717  14.114
50715W        W17124  12.575  18.281   1.819
50716W        W17125  37.027  33.138   2.848
50717W        W17126  29.293  31.085   4.002
50718W        W17127  26.426   3.356   0.884
50719W        W17128  42.988  13.160  10.377
50720W        W17129   6.134   2.768   3.719
50721W        W17130  20.705  37.844  10.946
50722W        W17131  12.932  29.641  14.930
50723W        W17132  14.745  18.138   1.978
50724W        W17133  41.726  22.980  11.713
50725W        W17134  37.071  28.177   1.653
50726W        W17135  11.907   6.202   5.094
50727W        W17136   7.428  15.728   1.008
50728W        W17137  16.516  17.386  14.832
50729W        W17138  35.629  24.194  11.624
50730W        W17139  43.081  32.657   0.727
50731W        W17140  34.111  21.118  12.964
50732W        W17141  28.267  32.143   1.575
50733W        W17142  31.819  12.188   3.734
50734W        W17143   7.622  43.865   3.576
50735W        W17144  42.879  37.379  10.303
50736W        W17145  25.096  41.065   0.147
50737W        W17146   0.546  24.010  12.426
50738W        W17147  26.472  15.732   4.607
50739W        W17148  35.611  20.190   2.434
50740W        W17149  27.128  40.052   3.169
50741W        W17150  28.461  19.843  11.906
50742W        W17151  11.432  27.126   0.224
50743W        W17152   5.146  20.316  13.036
50744W        W17153  28.815  11.363   3.618
50745W        W17154   2.843  39.824   2.842
50746W        W17155  23.300  43.858  11.936
50747W        W17156  44.307  26.612  12.634
50748W        W17157  26.204  34.083   2.668
50749W        W17158  26.037  28.297  14.524
50750W        W17159   3.900  15.470   3.313
50751W        W17160  14.688  22.303   2.213
50752W        W17161  41.392  29.961  10.657
50753W        W17162   4.689  29.263   0.669
50754W        W17163  32.011  25.448   2.133
50755W        W17164  33.050  43.569  13.809
50756W        W17165  10.760  15.663   4.091
50757W        W17166  14.782  19.207   0.917
50758W        W17167  11.085  29.572   1.772
50759W        W17168  27.930   2.279   2.219
50760W        W17169  32.969   7.841  12.498
50761W        W17170  14.100   5.430   1.711
50762W        W17171  30.408  24.825   4.677
50763W        W17172   2.747  28.444   3.639
50764W        W17173  43.040   6.562  12.831
50765W        W17174  42.389  17.737  13.680
50766W        W17175  44.848  16.815   1.971
50767W        W17176  33.504  17.883  11.766
50768W        W17177  40.228  16.474   4.481
50769W        W17178   6.084  16.725   4.728
50770W        W17179  36.113  31.902   2.191
50771W        W17180   0.532  32.310  14.865
50772W        W17181   8.276   7.886  13.418
50773W        W17182  36.026  19.527   1.543
50774W        W17183  38.579   6.399   4.569
50775W        W17184   5.414  33.691   2.388
50776W        W17185  35.399  44.469  13.855
50777W        W17186  32.970  10.074   3.023
50778W        W17187  35.151  26.912  11.177
50779W        W17188  13.789  29.141  11.550
50780W        W17189   9.812   4.360  12.457
50781W        W17190  34.518  25.675  12.205
50782W        W17191   3.784  27.922   2.210
50783W        W17192   7.510  28.366   4.568
50784W        W17193  10.741  43.785   1.887
50785W        W17194  15.350  43.036  11.594
50786W        W17195  44.032  12.995   2.119
50787W        W17196  43.555  28.968   3.227
50788W        W17197  32.523   0.199   3.589
50789W        W17198   3.319  18.311   3.620
50790W        W17199  18.512  25.478   1.704
50791W        W17200  20.910  41.166   0.579
50792W        W17201  34.354   8.916   1.919
50793W        W17202  32.097  20.176   4.607
50794W        W17203  34.843  25.654   2.406
50795W        W17204   6.049   8.276   1.787
50796W        W17205   4.409   6.721  13.431
50797W        W17206  24.502  30.563   2.301
50798W        W17207  23.538  43.890   4.578
50799W        W17208  42.725  18.827   4.132
50800W        W17209  44.703  41.120   4.786
50801W        W17210  11.710  21.653   4.429
50802W        W17211   8.328   3.157  12.388
50803W        W17212  19.858  10.787   3.273
50804W        W17213   7.122   6.913   2.855
50805W        W17214  14.067  29.637   2.387
50806W        W17215  20.113   7.785  12.537
50807W        W17216  18.160  10.969   2.901
50808W        W17217  16.033  33.912  10.642
50809W        W17218  11.524  29.997  10.958
50810W        W17219  11.773  15.759   4.493
50811W        W17220  19.475  41.163   3.763
50812W        W17221  42.379  11.318   1.283
50813W        W17222   8.669   4.680   0.323
50814W        W17223  38.356  40.389   3.154
50815W        W17224  43.824   9.858   2.240
50816W        W17225  23.911   4.224  13.513
50817W        W17226  32.853  20.055   3.804
50818W        W17227  44.995  41.882   0.756
50819W        W17228   4.140  42.461   2.678
50820W        W17229  33.678   7.183   4.115
50821W        W17230  38.427  15.611  14.533
50822W        W17231  21.049  33.624  12.439
50823W        W17232  40.867  44.492   2.798
50824W        W17233  13.781  40.953  14.295
50825W        W17234  22.541  17.174   2.218
50826W        W17235   9.391  16.341   2.917
50827W        W17236  14.923  40.915   3.831
50828W        W17237   0.791   3.818   3.182
50829W        W17238  40.740  16.143  14.441
50830W        W17239  41.368  41.389  14.073
50831W        W17240   7.448  37.557   2.344
50832W        W17241  25.056  29.549   0.828
50833W        W17242  38.125  30.487  10.736
50834W        W17243  37.892   5.242   3.291
50835W        W17244  13.062  19.993  11.502
50836W        W17245  29.356  44.671   0.762
50837W        W17246   4.616  44.727   3.676
50838W        W17247  37.605   5.906   1.220
50839W        W17248  29.317  41.747  12.088
50840W        W17249   2.784  29.955  14.264
50841W        W17250  24.981  31.996   0.324
50842W        W17251  26.604   3.247   2.774
50843W        W17252  42.804  12.112   4.837
50844W        W17253  16.138   6.344  11.609
50845W        W17254  33.894  25.943  11.566
50846W        W17255  14.164  42.577  11.696
50847W        W17256   7.801   5.875  13.258
50848W        W17257   0.910  44.066   2.618
50849W        W17258  33.885  25.031  11.487
50850W        W17259  27.071  25.563  14.507
50851W        W17260  40.627  20.362  12.667
50852W        W17261  30.293  38.391  12.524
50853W        W17262  34.128   5.728  13.599
50854W        W17263  36.040  31.607  11.887
50855W        W17264  21.930  38.851  11.683
50856W        W17265  13.744  29.723   4.119
50857W        W17266  28.968  12.607   0.802
50858W        W17267  40.999   8.742   0.404
50859W        W17268  40.583  12.885  12.075
50860W        W17269  38.416  16.998  11.628
50861W        W17270   7.282  43.530   1.219
50862W        W17271  15.758  23.089   4.575
50863W        W17272  19.699  20.268  11.108
50864W        W17273  44.411   6.422  13.298
50865W        W17274  40.808   4.320   2.716
50866W        W17275   9.538  40.525  14.168
50867W        W17276  40.272  13.544   4.168
50868W        W17277  35.315  14.766  11.421
50869W        W17278  29.026  22.482   3.349
50870W        W17279  17.943  38.466   4.988
50871W        W17280  27.317  33.590   4.595
50872W        W17281  25.639   2.817   0.783
50873W        W17282   9.294  20.708  12.436
50874W        W17283  25.170  32.037   2.225
50875W        W17284  19.005   9.891  14.934
50876W        W17285  38.627  14.242   4.526
50877W        W17286  19.758  17.093  10.775
50878W        W17287  24.781  19.732   3.441
50879W        W17288  10.380  33.053  13.731
50880W        W17289   7.925  34.766  11.623
50881W        W17290   5.632  37.927   0.945
50882W        W17291   2.550  13.835  11.170
50883W        W17292  30.926  30.979   0.401
50884W        W17293   3.557  44.655   1.403
50885W        W17294  38.273  42.036   1.950
50886W        W17295  16.206  25.735   3.608
50887W        W17296  29.414  41.198  12.083
50888W        W17297  30.611  16.082  14.505
50889W        W17298  32.533  33.898  10.933
50890W        W17299  25.952  12.241   2.706
50891W        W17300   1.401  21.727   4.137
50892W        W17301  30.365  33.618  12.466
50893W        W17302   2.620  31.566   0.368
50894W        W17303   8.394   7.606   0.832
50895W        W17304   7.380  37.489   1.430
50896W        W17305  22.070  25.803   3.205
50897W        W17306   7.905  32.962   2.764
50898W        W17307  11.160  36.982   3.683
50899W        W17308  19.836  18.581  14.376
50900W        W17309   8.751  37.491  13.046
50901W        W17310  44.759  40.205   3.235
50902W        W17311   1.890  44.068  12.494
50903W        W17312  44.312  34.620  12.577
50904W        W17313  14.690   7.667  12.614
50905W        W17314  30.520  18.495  13.232
50906W        W17315   6.742   3.789  10.748
50907W        W17316   4.615  32.432   0.771
50908W        W17317  12.099  30.675   0.752
50909W        W17318  43.490  40.035   2.609
50910W        W17319  12.214  14.232   0.425
50911W        W17320  16.022  16.298   3.126
50912W        W17321  23.453  36.613  12.200
50913W        W17322  36.371  14.874   3.289
50914W        W17323  24.712  18.126  11.415
50915W        W17324  10.637  42.816  10.601
50916W        W17325  29.405   1.463   1.401
50917W        W17326  27.355  39.568  12.826
50918W        W17327  44.414  42.596   3.258
50919W        W17328  33.453  11.399   0.724
50920W        W17329  11.560  26.594  12.260
50921W        W17330   0.094  10.570   0.526
50922W        W17331  26.514   6.554   2.383
50923W        W17332  43.870  30.095   4.051
50924W        W17333  14.258  33.557   2.025
50925W        W17334  15.808  25.290   4.032
50926W        W17335  23.731   1.945   0.177
50927W        W17336  17.613  40.932   2.439
50928W        W17337   0.413  33.901  13.011
50929W        W17338  44.423  19.280   1.523
50930W        W17339   8.883  31.798  12.130
50931W        W17340   6.914   9.406   4.312
50932W        W17341  15.769  33.402   3.683
50933W        W17342  25.717  27.889   0.652
50934W        W17343  41.842   6.935   4.530
50935W        W17344  24.146  12.905   2.427
50936W        W17345  24.790  40.432   4.572
50937W        W17346   9.727  12.198   1.432
50938W        W17347  41.571   3.452  10.552
50939W        W17348  25.214  41.254  11.114
50940W        W17349  33.589  18.264   0.321
50941W        W17350   2.649  10.621   3.186
50942W        W17351   8.316  26.640   4.129
50943W        W17352  24.668  21.227   1.745
50944W        W17353  29.472  13.599   0.019
50945W        W17354  39.432  35.407   4.159
50946W        W17355  38.876  20.845   5.072
50947W        W17356  33.145  40.498   2.841
50948W        W17357  37.979   6.962  12.509
50949W        W17358  27.219  21.636  12.375
50950W        W17359  27.448  43.467   3.063
50951W        W17360  12.550  34.933   4.117
50952W        W17361  10.250   6.341   4.596
50953W        W17362  29.510   3.161  10.388
50954W        W17363  41.297  25.559   2.292
50955W        W17364  35.140  31.751   2.255
50956W        W17365  29.684  16.209  12.968
50957W        W17366  24.640  32.094  13.940
50958W        W17367  27.042  14.671  10.976
50959W        W17368   7.449   8.216  12.458
50960W        W17369  30.042  19.765   1.989
50961W        W17370  41.368  10.857  11.145
50962W        W17371  23.657  24.723   2.751
50963W        W17372  37.828  21.782   1.287
50964W        W17373  24.628  24.260   2.715
50965W        W17374  26.050  32.006  12.920
50966W        W17375  29.601  17.820   2.042
50967W        W17376  12.936  37.485  12.427
50968W        W17377  34.630  10.368  11.146
50969W        W17378  41.034  42.509   0.554
50970W        W17379  27.052  12.864  12.461
50971W        W17380  20.051   2.106  13.394
50972W        W17381  43.962   8.364   0.913
50973W        W17382  11.796  25.145   4.150
50974W        W17383  26.128  40.214   2.151
50975W        W17384  33.375  15.037   2.485
50976W        W17385  22.187   5.267   4.830
50977W        W17386  36.123  41.061  11.101
50978W        W17387  13.457   4.944   0.342
50979W        W17388  14.086  18.311  13.387
50980W        W17389  42.490   5.581   0.319
50981W        W17390  16.989   6.134  11.062
50982W        W17391   2.274  28.794   4.958
50983W        W17392  10.771   5.766  14.588
50984W        W17393   4.380  33.373   0.819
50985W        W17394  17.184  18.354  14.927
50986W        W17395   3.682   7.597  13.826
50987W        W17396   6.694  16.357   4.241
50988W        W17397  35.722  33.666   2.710
50989W        W17398  29.198  23.749   0.653
50990W        W17399  36.374  29.039   4.744
50991W        W17400   8.310  15.488  13.793
50992W        W17401  13.783  11.264   1.774
50993W        W17402  35.954  26.730  13.318
50994W        W17403  36.800  12.821   3.743
50995W        W17404   0.351   5.249  14.910
50996W        W17405  31.900  27.139   1.802
50997W        W17406  29.602  44.569   4.751
50998W        W17407  28.581  26.984  12.000
50999W        W17408  42.999  41.863  11.635
51000W        W17409   2.192  37.371   2.855
51001W        W17410  34.879  39.227   1.236
51002W        W17411  40.186  16.222  13.283
51003W        W17412  19.068  42.979   1.857
51004W        W17413  18.000  25.614   2.895
51005W        W17414  26.314   0.711   4.715
51006W        W17415   7.743   2.796  12.436
51007W        W17416  13.850  17.042  12.997
51008W        W17417  32.564  41.185  10.541
51009W        W17418  10.388  44.244  13.351
51010W        W17419   3.860  21.123   1.628
51011W        W17420  44.333  15.321   0.758
51012W        W17421  12.164  31.641  11.172
51013W        W17422  42.929  36.927  13.609
51014W        W17423   7.867   7.306  10.761
51015W        W17424  36.061  11.323   4.211
51016W        W17425  31.365   1.153  14.080
51017W        W17426  24.562  32.077   4.435
51018W        W17427   7.660   7.501   3.210
51019W        W17428  37.843  34.598   5.063
51020W        W17429  12.498   7.884  13.405
51021W        W17430   7.107  41.425   0.652
51022W        W17431  33.401  30.072  14.929
51023W        W17432  38.466  42.896   0.506
51024W        W17433   6.678  23.847  10.712
51025W        W17434   7.086  17.004  11.832
51026W        W17435  42.536  24.985  14.454
51027W        W17436   0.959  37.346   3.201
51028W        W17437  24.458  23.747  14.835
51029W        W17438  40.331  12.662  11.652
51030W        W17439  24.093   9.536   0.777
51031W        W17440  19.291  34.430   2.712
51032W        W17441  10.258  39.034   3.707
51033W        W17442  10.863  29.820  14.960
51034W        W17443  16.127   9.621   3.157
51035W        W17444  13.326  35.500  12.921
51036W        W17445  23.096  22.649   0.898
51037W        W17446  15.198  36.540  12.665
51038W        W17447  39.833  32.079   2.726
51039W        W17448  24.183   7.294  10.159
51040W        W17449  11.715   0.259  14.335
51041W        W17450   4.252   6.569  14.962
51042W        W17451  42.623   2.201   0.364
51043W        W17452  44.779  27.195  14.386
51044W        W17453  15.918  23.340  14.863
51045W        W17454  39.296   6.929  14.889
51046W        W17455  17.465   0.233   4.114
51047W        W17456  39.321  24.231   4.662
51048W        W17457  21.638   0.555  13.459
51049W        W17458  30.675   7.339  14.028
51050W        W17459   1.293   4.460   3.716
51051W        W17460  16.053  11.349   3.294
51052W        W17461   4.732  17.810  14.042
51053W        W17462   9.917  10.389   1.560
51054W        W17463  17.847   8.795  10.636
51055W        W17464  23.444  29.981  14.913
51056W        W17465  40.803   4.650  12.948
51057W        W17466   3.366  35.427   4.659
51058W        W17467  33.621   6.332   4.808
51059W        W17468  20.170  34.739   4.348
51060W        W17469  32.505  39.645   1.961
51061W        W17470   9.913  41.282  14.738
51062W        W17471  37.849  31.836  13.402
51063W        W17472  19.158  39.099  11.103
51064W        W17473  22.016  16.767   2.870
51065W        W17474  14.952  17.756  11.693
51066W        W17475  29.329   3.506   2.387
51067W        W17476  27.991  14.944  14.839
51068W        W17477  13.240  14.361  13.887
51069W        W17478  13.146  25.704   2.375
51070W        W17479  10.108  24.513  14.014
51071W        W17480  40.742  23.275  11.542
51072W        W17481   8.076  29.468   4.981
51073W        W17482   8.833  40.391   1.415
51074W        W17483  16.171  38.438   0.630
51075W        W17484  32.366   8.851   0.834
51076W        W17485  10.614  14.998   2.101
51077W        W17486  43.319   9.145  13.470
51078W        W17487  20.577   7.764   3.548
51079W        W17488  18.951  39.559  12.859
51080W        W17489  23.736  43.073  12.839
51081W        W17490  25.130   5.680  11.382
51082W        W17491  43.624  28.148  11.000
51083W        W17492  27.529  28.933   3.559
51084W        W17493  29.674  35.150   1.440
51085W        W17494  38.379  13.721  11.163
51086W        W17495  43.085  15.800   1.288
51087W        W17496  19.691  19.804  13.075
51088W        W17497   5.391  24.021  14.038
51089W        W17498  29.643   9.849   4.649
51090W        W17499  24.739  36.101   4.877
51091W        W17500  43.855  41.231  11.587
51092W        W17501  16.021  28.335   2.318
51093W        W17502  12.438  21.265   4.669
51094W        W17503  37.470   6.992  13.853
51095W        W17504  15.063  35.992  11.998
51096W        W17505  22.715   2.739  13.003
51097W        W17506  43.579   3.447   1.311
51098W        W17507  30.120   8.424   4.045
51099W        W17508  32.745   1.839   0.702
51100W        W17509  27.463   3.508  10.820
51101W        W17510  22.814   7.962  10.726
51102W        W17511  13.389  11.480   2.699
51103W        W17512  12.196  30.552   1.758
51104W        W17513   4.729   9.699  10.587
51105W        W17514  30.613   3.873   0.930
51106W        W17515  37.503  23.201  10.344
51107W        W17516  44.394  21.172   0.692
51108W        W17517  12.072  18.821   2.184
51109W        W17518  11.243  13.133   1.350
51110W        W17519   7.034  17.472  11.564
51111W        W17520  37.661  10.800   2.042
51112W        W17521   6.298  37.328   0.653
51113W        W17522  39.492  43.339  12.109
51114W        W17523  32.129  38.417  11.856
51115W        W17524  27.762  42.362   0.703
51116W        W17525  37.785  29.434  11.970
51117W        W17526   1.291  33.087   3.152
51118W        W17527  20.221  40.094   0.267
51119W        W17528  26.233  38.629   0.434
51120W        W17529  21.940   1.819  11.370
51121W        W17530  11.469  34.945  12.250
51122W        W17531  13.123  13.639  12.423
51123W        W17532  35.096  13.796  11.582
51124W        W17533  32.037  12.259   4.220
51125W        W17534  39.485  31.906  11.677
51126W        W17535  32.546  40.349  11.014
51127W        W17536  15.745  31.377  11.583
51128W        W17537   3.269  24.688  11.979
51129W        W17538  16.699  21.768   0.653
51130W        W17539   7.480  26.542   4.166
51131W        W17540  44.484  22.843   5.052
51132W        W17541  39.351  13.166   2.425
51133W        W17542  28.491  22.390   4.488
51134W        W17543  40.473  34.897  12.749
51135W        W17544  37.156  21.739  14.403
51136W        W17545  34.190  34.975   2.020
51137W        W17546  31.963  14.701  13.314
51138W        W17547  16.761  39.760   1.351
51139W        W17548  19.714   4.619   3.703
51140W        W17549  20.204  23.165  13.999
51141W        W17550  12.164  31.111  11.154
51142W        W17551  38.851  37.679  11.911
51143W        W17552  40.753  30.561  11.507
51144W        W17553  36.838  18.021  12.078
51145W        W17554   5.455  30.657  11.522
51146W        W17555  25.997  32.099   3.773
51147W        W17556   5.784   3.009  14.296
51148W        W17557  12.583   8.585   4.684
51149W        W17558  18.593  21.576   4.985
51150W        W17559  25.517  20.516  13.855
51151W        W17560   6.671  39.723   4.806
51152W        W17561  32.502  20.771   0.229
51153W        W17562  34.394  39.520  12.381
51154W        W17563  20.589  35.103  13.007
51155W        W17564  35.469  33.074   4.687
51156W        W17565  18.469   9.609   2.849
51157W        W17566   2.103  31.359   1.192
51158W        W17567  29.948  40.048  11.206
51159W        W17568  39.352  39.998   2.871
51160W        W17569  10.337  24.737   4.713
51161W        W17570  31.530   5.792   4.591
51162W        W17571  25.014  15.039  11.863
51163W        W17572   1.264  43.739   2.395
51164W        W17573  11.127  30.876   1.438
51165W        W17574  36.868  12.387   4.031
51166W        W17575   1.461   8.265   1.847
51167W        W17576  40.936   1.490   1.877
51168W        W17577  16.252  33.284   3.541
51169W        W17578  24.147   9.668   4.814
51170W        W17579  14.033  27.995  11.256
51171W        W17580  21.272  15.622  12.213
51172W        W17581  16.787  32.002  14.927
51173W        W17582   4.972   4.766  10.635
51174W        W17583  15.260  38.613  10.718
51175W        W17584   8.559  33.582  12.436
51176W        W17585  28.078   8.216  11.421
51177W        W17586  23.581   0.435   1.062
51178W        W17587  26.960  21.087  11.708
51179W        W17588  34.131  33.979  14.713
51180W        W17589  27.557  30.593  10.975
51181W        W17590  32.855   4.591  13.903
51182W        W17591  17.981   2.780   2.980
51183W        W17592  18.022   4.733  14.406
51184W        W17593  40.331   3.111  13.030
51185W        W17594  21.221  23.731   3.244
51186W        W17595  15.545  20.757   4.195
51187W        W17596  11.279  39.493   1.895
51188W        W17597   2.080   4.702   1.809
51189W        W17598   5.573  43.308  13.545
51190W        W17599  31.216  38.299   2.086
51191W        W17600  14.285  21.616   0.988
51192W        W17601  22.500   6.625  11.641
51193W        W17602  39.403  21.631   3.325
51194W        W17603  14.596  39.089   2.106
51195W        W17604   4.697  26.441   0.204
51196W        W17605  33.279  23.130   1.275
51197W        W17606   2.921  39.012  13.678
51198W        W17607  21.140   7.015  11.569
51199W        W17608  37.372   7.610   0.299
51200W        W17609  42.534  15.853  13.369
51201W        W17610  44.235  30.843   4.693
51202W        W17611  30.962  43.128  11.241
51203W        W17612  29.662  15.131  11.548
51204W        W17613  17.189  44.724  14.416
51205W        W17614   9.623  38.276   2.709
51206W        W17615  44.896  25.910  12.966
51207W        W17616  28.399  34.157  11.705
51208W        W17617  16.615   1.354  11.646
51209W        W17618  32.002  36.228   1.311
51210W        W17619  40.501   1.842   1.835
51211W        W17620  10.214   6.192  13.921
51212W        W17621  37.078   7.929   0.716
51213W        W17622  16.675   4.036   2.796
51214W        W17623   9.400  33.067   3.243
51215W        W17624  34.978   0.377  13.497
51216W        W17625  18.147  30.496   3.816
51217W        W17626  30.692  32.974   3.697
51218W        W17627  36.502  30.318  12.493
51219W        W17628  19.833  33.545   4.952
51220W        W17629  21.397   7.254  14.048
51221W        W17630  11.403  24.874   5.043
51222W        W17631  18.825  36.107   3.220
51223W        W17632   9.641   5.667   3.249
51224W        W17633  38.531  10.380  13.945
51225W        W17634  24.104   8.688   4.559
51226W        W17635  33.839  18.104  13.834
51227W        W17636   0.494  10.769  10.893
51228W        W17637  21.776  27.724   2.757
51229W        W17638   9.249  20.669  14.861
51230W        W17639  30.256   0.732   2.208
51231W        W17640  21.789  25.955   1.985
51232W        W17641   9.320  17.160  13.539
51233W        W17642  17.533  31.738  12.888
51234W        W17643   6.902  33.260  14.702
51235W        W17644  44.253  23.975   2.698
51236W        W17645  25.567  14.393  11.991
51237W        W17646   9.986  42.835   1.357
51238W        W17647  43.071   3.415  13.370
51239W        W17648  17.703  10.648  13.365
51240W        W17649  31.197   3.366   0.991
51241W        W17650  10.191  43.787  12.430
51242W        W17651  28.654  39.213  11.117
51243W        W17652   8.819   9.811   3.646
51244W        W17653  21.368   2.679  12.899
51245W        W17654  34.480  23.934   3.685
51246W        W17655  15.160  35.366   5.021
51247W        W17656  39.814  13.795  14.226
51248W        W17657  34.323  34.869   3.417
51249W        W17658  20.007  28.422  12.403
51250W        W17659   7.762  21.681  10.550
51251W        W17660  39.774   6.864  12.462
51252W        W17661  23.902   1.866   2.599
51253W        W17662  20.094  23.627   4.271
51254W        W17663  31.952  32.166  12.002
51255W        W17664  32.199   7.308  10.661
51256W        W17665  38.643  42.334   1.719
51257W        W17666  20.688   4.022  12.345
51258W        W17667  16.849   9.437   4.883
51259W        W17668  34.144  33.626   4.343
51260W        W17669  42.931   7.160   0.617
51261W        W17670  41.386  39.320  11.975
51262W        W17671  13.267  36.780   2.416
51263W        W17672  22.162  12.912  14.899
51264W        W17673  42.405   0.905   0.531
51265W        W17674   0.435  17.820  10.885
51266W        W17675   0.928   6.461  11.729
51267W        W17676  33.961  34.918   0.494
51268W        W17677  26.525   2.497  10.582
51269W        W17678  17.900  25.859   1.279
51270W        W17679   4.336  20.791  13.853
51271W        W17680  15.840  16.861  11.347
51272W        W17681   5.266  14.333  11.729
51273W        W17682  29.207   1.796   0.239
51274W        W17683  27.078   7.202  10.209
51275W        W17684  13.561   5.584   3.617
51276W        W17685  11.828  32.461   3.371
51277W        W17686   6.296  30.333  11.953
51278W        W17687  27.222  16.528   3.643
51279W        W17688  27.038  23.293  13.954
51280W        W17689  18.667  33.057  13.565
51281W        W17690  21.264  25.232  13.572
51282W        W17691  16.200  18.643   3.548
51283W        W17692  26.401  35.117   2.060
51284W        W17693  40.345   2.312   0.360
51285W        W17694  42.941  12.767   1.329
51286W        W17695  34.142  31.418  13.845
51287W        W17696  27.741   5.671   4.716
51288W        W17697   0.337   8.927  13.562
51289W        W17698  30.872   8.362  14.953
51290W        W17699  33.674  31.437  10.456
51291W        W17700  36.568  28.546   4.903
51292W        W17701  40.216  28.204  11.113
51293W        W17702  39.689  27.022   2.454
51294W        W17703  13.758  18.170  14.037
51295W        W17704  33.633  24.159   2.139
51296W        W17705   4.413  11.375  12.053
51297W        W17706  29.419  14.652  13.095
51298W        W17707  20.441  16.120   1.886
51299W        W17708   4.462  44.753   2.327
51300W        W17709  33.922   5.239  11.671
51301W        W17710  16.447  20.082   3.269
51302W        W17711  16.460  36.393   0.755
51303W        W17712  31.917  16.697   0.821
51304W        W17713   2.363  32.455   3.177
51305W        W17714  24.353   8.307  13.938
51306W        W17715  42.824  21.939  12.988
51307W        W17716  16.699   5.368  12.375
51308W        W17717  22.953  21.051   1.396
51309W        W17718  10.279  27.111  11.524
51310W        W17719  42.907  35.043  12.908
51311W        W17720  40.190  42.659   2.706
51312W        W17721   8.159  19.617  11.578
51313W        W17722  25.133   2.519  11.208
51314W        W17723   4.937  35.110   4.130
51315W        W17724  28.771   3.356   5.010
51316W        W17725  11.951  38.155  10.085
51317W        W17726   3.438  16.905  14.992
51318W        W17727  21.738  23.504   4.593
51319W        W17728   7.600   7.776  14.902
51320W        W17729  21.039   8.050   0.420
51321W        W17730  19.583  43.325  12.842
51322W        W17731  22.616   3.877  14.384
51323W        W17732  23.487  35.454  10.918
51324W        W17733   9.854  30.521  10.104
51325W        W17734  14.179  44.562  12.970
51326W        W17735  40.437  28.417   0.619
51327W        W17736  36.476   4.732   3.367
51328W        W17737   4.357  35.971  13.824
51329W        W17738  24.004  17.903   3.877
51330W        W17739  22.017  41.839   0.872
51331W        W17740  26.660   5.875  12.061
51332W        W17741  20.780   8.319  14.125
51333W        W17742  13.156  24.149  13.693
51334W        W17743   2.297  12.829  14.807
51335W        W17744  29.962  18.634   4.678
51336W        W17745  38.999   6.369  13.429
51337W        W17746  26.082  20.495   1.629
51338W        W17747  24.263  41.520   2.758
51339W        W17748  43.235  40.141   0.227
51340W        W17749   4.798  39.895   3.360
51341W        W17750  30.137  20.564  13.580
51342W        W17751   5.883  14.183   1.604
51343W        W17752   2.287  16.673   2.464
51344W        W17753   2.814  36.939   3.268
51345W        W17754   6.223  22.916   2.332
51346W        W17755  38.766  34.506   4.608
51347W        W17756  18.894  10.808  11.453
51348W        W17757  12.697  20.352  11.515
51349W        W17758  19.507  18.277  10.879
51350W        W17759   2.636  36.444   1.953
51351W        W17760   3.539  26.525  14.914
51352W        W17761  23.284  40.057   1.305
51353W        W17762  18.293  17.510  13.922
51354W        W17763  14.129   3.410  10.700
51355W        W17764  22.565  19.762   2.349
51356W        W17765  23.158   6.401   1.346
51357W        W17766  23.617  27.106   1.231
51358W        W17767  23.761  22.948   0.016
51359W        W17768  15.845  23.550   2.736
51360W        W17769  39.321  15.082  14.365
51361W        W17770   1.610   1.050   2.092
51362W        W17771  20.084   9.308  12.381
51363W        W17772  42.495  32.118  13.897
51364W        W17773  14.829  10.795  14.314
51365W        W17774  19.220  42.174   3.741
51366W        W17775  29.013   9.985   2.217
51367W        W17776  44.952  24.601   0.445
51368W        W17777  20.814  16.109  14.368
51369W        W17778  40.907   0.514   2.751
51370W        W17779  21.454  30.009  11.226
51371W        W17780   8.247  44.404  11.542
51372W        W17781   7.126   6.797   3.842
51373W        W17782   6.362  31.518  14.810
51374W        W17783  30.627  10.860   2.926
51375W        W17784  26.557  24.036  14.955
51376W        W17785  44.284  20.628   2.793
51377W        W17786  18.233  41.987   1.349
51378W        W17787  28.465  31.922   4.778
51379W        W17788  42.694  37.544  12.112
51380W        W17789  24.626  40.358   0.016
51381W        W17790   2.468   9.553  13.040
51382W        W17791  32.694  14.617   2.963
51383W        W17792  34.970   0.880  12.639
51384W        W17793  27.665  26.655   2.040
51385W        W17794   5.162   8.916   2.737
51386W        W17795  18.715  42.192   1.158
51387W        W17796  31.430  36.962   0.360
51388W        W17797  36.281  13.664  14.776
51389W        W17798  16.540  17.358   3.674
51390W        W17799  11.898  37.939  10.893
51391W        W17800   8.783  11.876   1.562
51392W        W17801  22.717  15.982  11.605
51393W        W17802  27.229  43.111   4.156
51394W        W17803  34.395  29.755  11.973
51395W        W17804  22.397   2.829  14.957
51396W        W17805  22.023  20.008   4.511
51397W        W17806  31.418  11.987   0.550
51398W        W17807  25.525  14.904  13.920
51399W        W17808  15.135  16.326   3.493
51400W        W17809  15.818  19.892   3.848
51401W        W17810  29.615  34.884  10.550
51402W        W17811   3.818  23.959  10.770
51403W        W17812  24.967  44.772  10.711
51404W        W17813  10.935  13.532   1.183
51405W        W17814  43.683  21.887  10.651
51406W        W17815   2.184   0.868   3.244
51407W        W17816  22.426  36.803  12.963
51408W        W17817  41.254  19.282   1.807
51409W        W17818   3.491  10.321   2.278
51410W        W17819  18.816   9.632  14.259
51411W        W17820   7.828  12.204   4.889
51412W        W17821  37.110  37.926   3.735
51413W        W17822  31.596   4.207  12.510
51414W        W17823  21.002  37.091   4.294
51415W        W17824  42.351  43.253  10.408
51416W        W17825  11.256  37.873  12.314
51417W        W17826  33.715  13.197   1.217
51418W        W17827  39.559   2.014  11.204
51419W        W17828   1.034  16.592  11.505
51420W        W17829   3.802  40.788  14.717
51421W        W17830   9.831  16.139   2.716
51422W        W17831  12.752  19.732   0.367
51423W        W17832  14.290  15.403   3.825
51424W        W17833  38.042  41.700  14.521
51425W        W17834  26.161  18.382   4.804
51426W        W17835  13.169  22.173   2.441
51427W        W17836  16.083  34.511  11.677
51428W        W17837   1.307   7.783   0.400
51429W        W17838  18.634  13.976  13.362
51430W        W17839  13.927  24.487  12.169
51431W        W17840  19.111  14.150  13.602
51432W        W17841  30.207  33.449  14.253
51433W        W17842  11.523   6.459  13.435
51434W        W17843   7.877  34.389   3.693
51435W        W17844  40.121   8.254   3.250
51436W        W17845  28.666  30.650  14.845
51437W        W17846  42.813   0.081   1.071
51438W        W17847  39.810  24.615  13.052
51439W        W17848  11.779  22.713  12.788
51440W        W17849  41.149   8.674  10.396
51441W        W17850  44.797  15.179  11.547
51442W        W17851   0.909  20.219  14.365
51443W        W17852  17.738  19.204  12.880
51444W        W17853  41.266  22.710   3.237
51445W        W17854  24.131  39.269  13.702
51446W        W17855  22.385  41.622   4.290
51447W        W17856  33.070   6.493   0.825
51448W        W17857  19.953   5.186  11.547
51449W        W17858  25.155  31.518   2.254
51450W        W17859  27.652  18.796  11.969
51451W        W17860  22.817  31.708   3.978
51452W        W17861  13.624  10.672   1.212
51453W        W17862  42.059  29.637  12.969
51454W        W17863  42.886  27.154  11.657
51455W        W17864  35.612  13.989  14.032
51456W        W17865  16.144  22.756   4.764
51457W        W17866  28.028  34.634   3.240
51458W        W17867   8.322  36.986  12.563
51459W        W17868  11.638   2.588  13.547
51460W        W17869  12.346  44.240  11.189
51461W        W17870  26.415  36.050  14.794
51462W        W17871  34.962   9.357   4.585
51463W        W17872   3.472  15.619  13.320
51464W        W17873  35.502  27.681   2.669
51465W        W17874  30.431  37.446  11.647
51466W        W17875  36.681   6.376   4.884
51467W        W17876  35.595   7.162  11.950
51468W        W17877  18.720   5.125   3.268
51469W        W17878  43.504  31.694  10.649
51470W        W17879  42.977   6.850  10.454
51471W        W17880  44.001  33.083  13.503
51472W        W17881  38.617   4.691  12.458
51473W        W17882  32.114  16.076   0.208
51474W        W17883  34.668  26.633  11.198
51475W        W17884  40.606  29.495  14.079
51476W        W17885   6.084   5.332   4.017
51477W        W17886  30.495   2.216   1.873
51478W        W17887  26.968  24.914  13.465
51479W        W17888   5.192  36.241   1.282
51480W        W17889   1.665  44.955   1.326
51481W        W17890   1.032  13.698  13.782
51482W        W17891  34.462  23.605   4.244
51483W        W17892  21.699  12.190   0.986
51484W        W17893  44.714  32.639   4.164
51485W        W17894  17.311  41.781   0.335
51486W        W17895  37.583  14.994  13.824
51487W        W17896  40.113  35.987   0.464
51488W        W17897  16.186   7.331  12.502
51489W        W17898  17.618  18.657   4.044
51490W        W17899  36.804  16.161  11.303
51491W        W17900  24.676  10.182   3.311
51492W        W17901  12.001  17.478  12.701
51493W        W17902   5.129   9.918   2.945
51494W        W17903   7.832  42.544   4.303
51495W        W17904   3.781  23.018   2.908
51496W        W17905  34.124   1.584  11.143
51497W        W17906  40.039  22.683   1.385
51498W        W17907  26.172  44.666  14.440
51499W        W17908  39.370   0.497   1.790
51500W        W17909   9.664   1.675  11.066
51501W        W17910  31.909  34.856  11.148
51502W        W17911  28.509  17.158   3.280
51503W        W17912  18.714  43.205   0.046
51504W        W17913  43.890  27.575   0.826
51505W        W17914  43.997  15.619   4.138
51506W        W17915  34.224  44.181   0.887
51507W        W17916  23.326  22.912   2.264
51508W        W17917   6.361  19.071  13.600
51509W        W17918  29.274  21.513   3.306
51510W        W17919   1.198  17.652  12.190
51511W        W17920   0.907  36.916  11.860
51512W        W17921  44.834  29.666   3.259
51513W        W17922   4.250  33.392   0.255
51514W        W17923  29.557  39.467  13.139
51515W        W17924  26.097   3.878   1.149
51516W        W17925  40.948   0.641  11.126
51517W        W17926  18.837  44.221   4.515
51518W        W17927  17.860   7.829   2.208
51519W        W17928  27.724  34.818  13.862
51520W        W17929  43.428  37.879  14.302
51521W        W17930  17.798  27.218  10.710
51522W        W17931  16.668  41.689  14.976
51523W        W17932  39.416  20.075   1.825
51524W        W17933  32.944  38.760   1.427
51525W        W17934  13.416   8.337  14.781
51526W        W17935  26.915  37.156  10.747
51527W        W17936  22.070  41.518   4.716
51528W        W17937   1.088  10.730   4.617
51529W        W17938  16.746  15.905   1.871
51530W        W17939   8.922  19.155   2.919
51531W        W17940   4.475  36.617   2.310
51532W        W17941  17.837  36.903  12.953
51533W        W17942  17.317  10.565  10.864
51534W        W17943   9.599  15.592   4.159
51535W        W17944  39.529  43.208  10.756
51536W        W17945   4.287   3.497  13.350
51537W        W17946  20.456  41.695  13.440
51538W        W17947  29.378  15.292   1.289
51539W        W17948   5.246   0.227  11.949
51540W        W17949   5.039  16.253   3.223
51541W        W17950  27.656  31.478  12.822
51542W        W17951  29.200   1.438  12.417
51543W        W17952  30.536   0.909  14.225
51544W        W17953  25.179   6.208   0.971
51545W        W17954   5.809   5.235   3.579
51546W        W17955  13.205   0.654  12.508
51547W        W17956  20.285  31.615  13.489
51548W        W17957   8.117   3.374  14.350
51549W        W17958  25.396   4.093  14.780
51550W        W17959  14.844  17.242   3.280
51551W        W17960   2.376  40.260  13.865
51552W        W17961  29.018  35.848   0.507
51553W        W17962  11.666  38.085  14.450
51554W        W17963  31.892   3.216  14.806
51555W        W17964  41.347   5.707   4.076
51556W        W17965   8.324   6.945  12.354
51557W        W17966  29.717  29.278  13.896
51558W        W17967  32.354  21.281  14.984
51559W        W17968  35.255  42.309   3.679
51560W        W17969  44.019  27.505  12.084
51561W        W17970  26.483  24.081  11.685
51562W        W17971  17.673  42.732  13.064
51563W        W17972  27.415  42.123  13.938
51564W        W17973  43.115  33.263   1.307
51565W        W17974  38.786  35.450  14.543
51566W        W17975  34.929  40.661  12.550
51567W        W17976  35.083  42.243   0.455
51568W        W17977  44.690  11.265  14.416
51569W        W17978  22.628   9.296   1.284
51570W        W17979  24.616  17.296   0.942
51571W        W17980  33.428  42.832   3.156
51572W        W17981   8.078  31.995   3.604
51573W        W17982  37.490  36.592  13.063
51574W        W17983   3.544  22.625   3.834
51575W        W17984  31.522  21.758  12.587
51576W        W17985  41.258  21.671   0.215
51577W        W17986  41.954  32.460  14.986
51578W        W17987  13.944  23.762   3.641
51579W        W17988  20.186  13.561  10.543
51580W        W17989  32.966  40.885  13.069
51581W        W17990  12.703   0.854   0.163
51582W        W17991  22.115   7.654  14.909
51583W        W17992  38.202  11.886   1.169
51584W        W17993  37.363   5.859  12.108
51585W        W17994  13.141  36.617  14.073
51586W        W17995  17.616  26.963   3.184
51587W        W17996  19.512  12.829   3.801
51588W        W17997  41.938  23.067   4.825
51589W        W17998  41.095   9.838  12.609
51590W        W17999  26.127  21.513   1.427
51591W        W18000  30.942  34.578   1.218
51592W        W18001  28.604  20.750   2.741
51593W        W18002  43.059  18.783   0.496
51594W        W18003   7.445  25.557  12.253
51595W        W18004  26.441  15.786   0.225
51596W        W18005  18.924  38.958   2.361
51597W        W18006  41.456  19.503   2.798
51598W        W18007  43.482  40.816   4.450
51599W        W18008  22.122  41.497  11.642
51600W        W18009  35.862  41.908   4.616
51601W        W18010   4.318  32.478  12.443
51602W        W18011   7.797   9.120   3.900
51603W        W18012   4.994   8.182  13.970
51604W        W18013   0.224  44.480   1.183
51605W        W18014  40.985  30.037   0.724
51606W        W18015   3.238   7.923  11.837
51607W        W18016  40.944  28.447   0.463
51608W        W18017  25.081  39.554  12.514
51609W        W18018   4.241  44.941   1.888
51610W        W18019  38.849   9.196  12.133
51611W        W18020  28.034  43.848   3.483
51612W        W18021   0.975   8.483  13.573
51613W        W18022  30.131  28.636   4.772
51614W        W18023   3.851  27.311   3.292
51615W        W18024  40.825  36.090  14.322
51616W        W18025  10.717  10.786  13.876
51617W        W18026  42.349  30.893   0.324
51618W        W18027  42.457  19.977  12.457
51619W        W18028  29.682  33.697   4.206
51620W        W18029  10.688  30.969  12.040
51621W        W18030  26.949  19.689   1.310
51622W        W18031   6.898  43.827  11.282
51623W        W18032  14.526  23.474  11.212
51624W        W18033  29.165  10.994   2.244
51625W        W18034  18.522  14.027  14.269
51626W        W18035  40.607   8.932   2.801
51627W        W18036  20.108  20.771   3.766
51628W        W18037  15.359  27.720   0.007
51629W        W18038  28.276  44.573  10.061
51630W        W18039  26.391  21.298  10.777
51631W        W18040  30.895  20.257   3.574
51632W        W18041  33.589   8.610   4.730
51633W        W18042  27.204  18.717   0.417
51634W        W18043  31.305  15.150   0.409
51635W        W18044   5.101  12.158   3.281
51636W        W18045   5.653  14.862   4.046
51637W        W18046  10.906  31.148  10.786
51638W        W18047  31.123  40.465   2.561
51639W        W18048  15.337  29.929   3.606
51640W        W18049   6.353  15.204  14.823
51641W        W18050  29.890  35.023   3.939
51642W        W18051  34.173  16.162   3.599
51643W        W18052  37.412  19.711  13.555
51644W        W18053   4.594   4.138   2.831
51645W        W18054  11.274  18.017   4.544
51646W        W18055  23.631  19.071   1.750
51647W        W18056  14.133  34.039   1.137
51648W        W18057  18.935  26.960   0.993
51649W        W18058  24.097  15.753   3.133
51650W        W18059  15.508   6.854  12.890
51651W        W18060   6.264  31.749   0.261
51652W        W18061  29.271  31.429  11.685
51653W        W18062  35.787  17.354   2.737
51654W        W18063  40.859   7.863   0.260
51655W        W18064  40.124  37.439  11.415
51656W        W18065   2.440   3.999   3.670
51657W        W18066  16.065   4.582  12.534
51658W        W18067  15.522  24.654   3.158
51659W        W18068  22.248  42.963   3.250
51660W        W18069   7.863  11.227  13.294
51661W        W18070  24.459  21.129   3.614
51662W        W18071  18.626   7.032  10.626
51663W        W18072  25.299  43.354   0.391
51664W        W18073   3.779   0.888  12.778
51665W        W18074  21.846  18.153  13.132
51666W        W18075   2.448  20.940   4.603
51667W        W18076  27.964  19.581   4.613
51668W        W18077  17.158  24.166  12.478
51669W        W18078   9.292  19.347  12.991
51670W        W18079  40.792  31.096  11.588
51671W        W18080  34.447  44.421  12.587
51672W        W18081  15.577  24.674   1.164
51673W        W18082  10.606  32.126   0.707
51674W        W18083  20.993   0.007  14.150
51675W        W18084  21.488  41.283   1.913
51676W        W18085  10.243  18.045  10.317
51677W        W18086  33.558  26.910   3.697
51678W        W18087  28.748  17.388  12.596
51679W        W18088  40.438  43.263  12.562
51680W        W18089  43.815  19.217  10.663
51681W        W18090  10.194  32.544  13.970
51682W        W18091  25.748  38.278  13.426
51683W        W18092  25.463  11.621   2.202
51684W        W18093   0.808  26.092   1.240
51685W        W18094  23.914   6.306   4.182
51686W        W18095  22.909   9.742   1.365
51687W        W18096  40.471   5.833   4.605
51688W        W18097  37.795   1.775   4.701
51689W        W18098  28.437  26.156   4.604
51690W        W18099   6.877   6.959  13.367
51691W        W18100  42.373  21.770  11.387
51692W        W18101   0.430  36.671   4.097
51693W        W18102  40.009  44.248   3.768
51694W        W18103  27.821  35.894  11.200
51695W        W18104   7.240  23.220   3.568
51696W        W18105  32.854  33.322   3.191
51697W        W18106   6.253  22.206   4.576
51698W        W18107   0.222  12.331   2.585
51699W        W18108   6.010  21.500  11.410
51700W        W18109  23.059   3.323  13.590
51701W        W18110  34.114  24.760   4.018
51702W        W18111   7.395  27.477   0.933
51703W        W18112  10.117  34.243   5.006
51704W        W18113  12.428  26.094   3.929
51705W        W18114  44.955  13.872   1.522
51706W        W18115  31.073  20.315   0.710
51707W        W18116  33.331  29.952  13.868
51708W        W18117  23.227  35.510   2.949
51709W        W18118   8.293  44.472   2.844
51710W        W18119  36.923  37.414  10.174
51711W        W18120  15.489  11.328   0.261
51712W        W18121  39.137   2.325  11.072
51713W        W18122  14.806  20.271   1.829
51714W        W18123   7.431   3.199  13.251
51715W        W18124  14.456  13.000   4.852
51716W        W18125  33.611  11.799   1.888
51717W        W18126  35.082  44.403   4.560
51718W        W18127  28.242  21.571  11.375
51719W        W18128  30.496  42.894  14.897
51720W        W18129  38.802  16.868   0.539
51721W        W18130  41.666  40.816  12.929
51722W        W18131  19.069   7.382  13.690
51723W        W18132  44.968  16.374  14.123
51724W        W18133  35.413  41.280  13.621
51725W        W18134  22.369  14.752   4.576
51726W        W18135  14.870  21.759   4.013
51727W        W18136  12.917  19.563  12.450
51728W        W18137  22.516  28.402   3.672
51729W        W18138  36.471  12.682   0.260
51730W        W18139  28.613  25.259   2.201
51731W        W18140  10.651   3.847   2.595
51732W        W18141  44.213   3.254   0.436
51733W        W18142  44.977  38.503   4.487
51734W        W18143  28.799  28.557   3.690
51735W        W18144  40.021  35.510  13.878
51736W        W18145  22.688  30.458  14.941
51737W        W18146  26.069  14.638   0.921
51738W        W18147  27.642  43.958   3.155
51739W        W18148   0.879  25.024  13.490
51740W        W18149  28.241  42.055   2.680
51741W        W18150  18.622   9.243   4.777
51742W        W18151  18.536  38.017   3.567
51743W        W18152  11.194  12.342  10.681
51744W        W18153  43.829   6.823   1.275
51745W        W18154  35.092  24.236  13.422
51746W        W18155  37.932  41.406  11.349
51747W        W18156   3.281  42.789  12.191
51748W        W18157   8.741  13.895  13.040
51749W        W18158  21.280  32.165   2.290
51750W        W18159  26.203  42.816  13.843
51751W        W18160  14.658  28.022   2.211
51752W        W18161  42.339   9.647  13.915
51753W        W18162  33.140  31.645  11.161
51754W        W18163  11.825  15.286  12.989
51755W        W18164  21.904  36.862   4.296
51756W        W18165  12.491  30.003  11.959
51757W        W18166  23.686  33.615  14.751
51758W        W18167   2.803  33.536   3.359
51759W        W18168  44.347  24.414  13.326
51760W        W18169  33.722  35.509  13.318
51761W        W18170  37.645   0.878  12.007
51762W        W18171   1.788  42.880   2.374
51763W        W18172  42.450  22.587  10.461
51764W        W18173  10.892  20.083  11.584
51765W        W18174  17.997  19.074  12.454
51766W        W18175  44.349  31.148   2.858
51767W        W18176  21.153  15.555   4.874
51768W        W18177  16.260  27.043  14.426
51769W        W18178  17.935   1.239  11.007
51770W        W18179   1.472  32.637   1.692
51771W        W18180  43.012  13.642   1.454
51772W        W18181  21.174  24.895  10.775
51773W        W18182   3.195  27.949  11.703
51774W        W18183  27.490  43.440  14.024
51775W        W18184  37.503   2.713   1.648
51776W        W18185  33.802   2.033  11.086
51777W        W18186  26.758  33.146  14.944
51778W        W18187  24.021  36.244   3.801
51779W        W18188  36.400  16.762   2.184
51780W        W18189  17.669   0.432   4.542
51781W        W18190   4.933  25.526   2.310
51782W        W18191  28.770  33.205   4.533
51783W        W18192  32.405  13.412  14.911
51784W        W18193  22.966  35.361  12.273
51785W        W18194  10.366  23.199  10.576
51786W        W18195  41.683  32.564  13.738
51787W        W18196  21.691  13.330   4.560
51788W        W18197  12.363  12.681   3.954
51789W        W18198  16.573  28.383   1.489
51790W        W18199  20.348  41.504  11.383
51791W        W18200  27.704   1.276  11.588
51792W        W18201  18.076  37.464   2.357
51793W        W18202   8.746   0.461  12.054
51794W        W18203  19.119  44.596  13.497
51795W        W18204  24.042  14.372  10.716
51796W        W18205   9.163  19.792   4.086
51797W        W18206  42.913  25.069  13.374
51798W        W18207   0.843  32.829   3.261
51799W        W18208   9.535  26.505  14.325
51800W        W18209   3.814  21.579   2.781
51801W        W18210   5.349  22.834  10.512
51802W        W18211  16.565  21.766  11.289
51803W        W18212  42.748  13.660  11.690
51804W        W18213  35.451  12.844   0.910
51805W        W18214  23.033  24.352  12.726
51806W        W18215  40.851   7.752  10.289
51807W        W18216  28.629  21.764   4.264
51808W        W18217  28.015   6.547  13.369
51809W        W18218  24.228  17.409  12.038
51810W        W18219  15.270  22.833  10.704
51811W        W18220   1.882   1.180  11.631
51812W        W18221  25.596  32.501  13.290
51813W        W18222   4.840  16.055  11.480
51814W        W18223  25.994  17.099   1.972
51815W        W18224  25.703  28.882   0.699
51816W        W18225   0.001  19.920  14.847
51817W        W18226  38.234   9.138  11.162
51818W        W18227   2.948  29.653  14.939
51819W        W18228  39.072  18.696   4.129
51820W        W18229  26.224  41.845   0.254
51821W        W18230  10.365  14.403  14.092
51822W        W18231   4.642  22.395  13.985
51823W        W18232  19.675  20.562   3.574
51824W        W18233   1.905   4.667  14.306
51825W        W18234  39.030  23.632   1.734
51826W        W18235  41.710   0.717   1.795
51827W        W18236  42.550  31.422   1.664
51828W        W18237  17.123  44.751   1.690
51829W        W18238  19.202   5.232   1.466
51830W        W18239  36.565  37.437  13.798
51831W        W18240  28.570  36.967  10.891
51832W        W18241  36.923  20.703   1.781
51833W        W18242  15.084  37.783   2.373
51834W        W18243   5.925  12.869   4.343
51835W        W18244  24.328  41.785  11.291
51836W        W18245  41.284  34.812  12.478
51837W        W18246  44.040  11.650   4.193
51838W        W18247  41.381  23.187   3.116
51839W        W18248   8.609  30.951  11.234
51840W        W18249  19.607  23.792  13.038
51841W        W18250   8.575   1.466  14.296
51842W        W18251  29.342  27.948  12.322
51843W        W18252  34.567  31.635   4.210
51844W        W18253  26.519  15.755  10.396
51845W        W18254  31.088  18.371   4.039
51846W        W18255  29.505  16.910  11.442
51847W        W18256  18.768  32.483   1.236
51848W        W18257  17.302  35.858  13.761
51849W        W18258  37.894  18.330   0.072
51850W        W18259   2.467  18.082  12.119
51851W        W18260  16.527   1.390  12.498
51852W        W18261  23.087  44.557  10.748
51853W        W18262  36.009  30.894   1.807
51854W        W18263  20.250   2.997   0.458
51855W        W18264   5.224  37.989  12.786
51856W        W18265   5.686  43.569  11.581
51857W        W18266  42.213  15.339   1.135
51858W        W18267  33.616  37.613  13.312
51859W        W18268  20.699   1.036   0.839
51860W        W18269  12.758   2.796  12.121
51861W        W18270  10.315  24.973  12.450
51862W        W18271  33.945   8.071   4.267
51863W        W18272  17.967   3.213   5.180
51864W        W18273  31.019   9.571  10.244
51865W        W18274  16.999  34.373   0.747
51866W        W18275  32.068  43.279   4.880
51867W        W18276   4.814  37.809  10.157
51868W        W18277  20.076  24.223   1.264
51869W        W18278  29.094  37.320   1.440
51870W        W18279  42.057  28.348  14.952
51871W        W18280  10.351  32.060   2.312
51872W        W18281   0.570  13.036   0.692
51873W        W18282  42.442  13.132  14.835
51874W        W18283  19.426   8.243   0.855
51875W        W18284  28.395   3.031  13.054
51876W        W18285  27.426  24.669  12.528
51877W        W18286  20.732  18.181   1.335
51878W        W18287  24.837  42.578  11.171
51879W        W18288  11.399  17.788   1.782
51880W        W18289  34.011  18.189  14.348
51881W        W18290  13.827   7.796  12.125
51882W        W18291   9.960   1.230  11.843
51883W        W18292  13.296   1.688   1.350
51884W        W18293  42.066  13.707   3.122
51885W        W18294  43.263   1.677  14.988
51886W        W18295  39.075   9.962   4.836
51887W        W18296   2.113   3.474   4.660
51888W        W18297  14.277  36.830   0.338
51889W        W18298  41.402   8.149  14.131
51890W        W18299   8.604  12.507   4.204
51891W        W18300   9.656   5.312  14.525
51892W        W18301  17.623  25.623   0.036
51893W        W18302  21.253   9.729   2.791
51894W        W18303  42.414  43.468  14.389
51895W        W18304   5.720  31.938  14.592
51896W        W18305   0.004   4.282  12.006
51897W        W18306  27.206   2.803   3.419
51898W        W18307  41.853  10.184  14.948
51899W        W18308  36.058  30.583   0.279
51900W        W18309  38.551  42.002   4.485
51901W        W18310  43.607  14.470   2.790
51902W        W18311  25.584  31.659  13.224
51903W        W18312  37.530  11.755  10.414
51904W        W18313  35.553  33.406   1.395
51905W        W18314  27.775  37.551  13.327
51906W        W18315  28.091   9.482  14.345
51907W        W18316  34.486  18.124  13.483
51908W        W18317  35.919  40.981   2.180
51909W        W18318   0.113   6.831  12.004
51910W        W18319   4.667  30.942  14.080
51911W        W18320  26.612  16.169   2.837
51912W        W18321  13.567  30.402  11.125
51913W        W18322  31.665   1.508  10.321
51914W        W18323  15.127  10.707  12.502
51915W        W18324  31.189  36.492  12.453
51916W        W18325  26.569   3.091   5.036
51917W        W18326  13.595  16.533   2.361
51918W        W18327   3.236   7.700  12.896
51919W        W18328  20.281  11.793   2.430
51920W        W18329  23.150  40.729  10.826
51921W        W18330   3.764   6.672  11.896
51922W        W18331  13.212  13.810  13.957
51923W        W18332  40.533  17.268  13.822
51924W        W18333  27.988  28.259   3.554
51925W        W18334  31.011  39.353  11.301
51926W        W18335  38.814  39.308  13.840
51927W        W18336  22.032  28.307   0.664
51928W        W18337  14.069  34.270  10.716
51929W        W18338   5.226  22.272  11.810
51930W        W18339  32.902  27.010   1.138
51931W        W18340  19.225  14.867   2.476
51932W        W18341   5.499  36.464   1.659
51933W        W18342  28.164  41.972   3.747
51934W        W18343  20.586  39.901  13.966
51935W        W18344  18.663  18.347   3.262
51936W        W18345   6.412  14.080   0.045
51937W        W18346  31.235  26.888   0.794
51938W        W18347   6.663  24.686  12.817
51939W        W18348  40.877  25.654   4.443
51940W        W18349   5.171  17.737   0.251
51941W        W18350  11.248  38.355  12.442
51942W        W18351  16.990  18.678  10.610
51943W        W18352  43.529   4.392   1.373
51944W        W18353  30.500  37.962  10.742
51945W        W18354  39.623  16.827  12.190
51946W        W18355  37.385   6.204  12.510
51947W        W18356  12.085   1.516   2.354
51948W        W18357  31.832  41.479  14.215
51949W        W18358   4.761  14.040   0.767
51950W        W18359  44.754  17.569  13.861
51951W        W18360  23.960  37.859   3.128
51952W        W18361   8.576  16.823   1.282
51953W        W18362  43.844   8.759   2.639
51954W        W18363  17.163  21.248   0.251
51955W        W18364  35.509  28.574   2.455
51956W        W18365  12.865   1.031  12.462
51957W        W18366  42.568  14.295   4.108
51958W        W18367  13.622  17.387   0.361
51959W        W18368  27.933  22.167   0.784
51960W        W18369  41.484  28.976   0.192
51961W        W18370  35.158  29.202  13.825
51962W        W18371   5.953   6.445  14.072
51963W        W18372  12.534  28.585  12.537
51964W        W18373  43.718  37.919   0.412
51965W        W18374   8.062  32.198  13.502
51966W        W18375  28.524  32.097  13.779
51967W        W18376  39.816  33.414  13.407
51968W        W18377  20.769  24.631  10.584
51969W        W18378  23.166   7.650  11.084
51970W        W18379  26.592   5.972  10.713
51971W        W18380  27.510   7.820  13.637
51972W        W18381   5.395  18.144   1.505
51973W        W18382  36.069  42.552  11.234
51974W        W18383  32.536  19.798   0.189
51975W        W18384   0.939  31.633  14.202
51976W        W18385  36.418  44.413  12.188
51977W        W18386  10.656  10.797   1.801
51978W        W18387  20.631  25.630  10.605
51979W        W18388  17.898   8.894  13.399
51980W        W18389  36.423  39.231  11.898
51981W        W18390   4.513  42.576  11.645
51982W        W18391  20.336  10.890   3.042
51983W        W18392  38.623  10.356   3.196
51984W        W18393   5.220  11.341  12.024
51985W        W18394   4.832   1.957   4.000
51986W        W18395   2.429  35.292   4.512
51987W        W18396   2.922  31.467  13.157
51988W        W18397  10.476   7.272  14.717
51989W        W18398  13.035  17.054  11.114
51990W        W18399  18.334  19.084   2.771
51991W        W18400  40.526  20.635   0.697
51992W        W18401  10.994  30.172  11.996
51993W        W18402  17.819   6.619  13.960
51994W        W18403  20.096  43.435   1.840
51995W        W18404  12.907  13.120   3.171
51996W        W18405   4.351  42.056   1.407
51997W        W18406  40.017  44.331   0.537
51998W        W18407  35.286  18.058  10.675
51999W        W18408  31.578  16.097  14.465
52000W        W18409  22.682  22.427  14.427
52001W        W18410  33.832   4.950   0.464
52002W        W18411  10.983  35.160   2.599
52003W        W18412  22.662  39.992   1.269
52004W        W18413  30.027  14.771   3.059
52005W        W18414   4.202  31.880  13.041
52006W        W18415  41.363   1.924   0.256
52007W        W18416  27.611   7.328   5.147
52008W        W18417  34.568  33.838  14.462
52009W        W18418  18.113  24.577   4.321
52010W        W18419   1.039   9.471   9.714
52011W        W18420  42.870  35.307  12.438
52012W        W18421  24.230  40.370  12.955
52013W        W18422  42.390  38.928  10.955
52014W        W18423  33.653   0.438  10.239
52015W        W18424  27.644  30.381   4.473
52016W        W18425   9.474  29.669  13.321
52017W        W18426  23.668  39.306  13.005
52018W        W18427  29.135   6.305   3.566
52019W        W18428  25.596   0.521  11.747
52020W        W18429  34.629  38.857   3.205
52021W        W18430  12.625   6.929   4.130
52022W        W18431  20.656  23.601   4.529
52023W        W18432  22.038   1.952   3.928
52024W        W18433   0.936  41.210  14.384
52025W        W18434   4.271   5.636  12.531
52026W        W18435  27.506  15.069  13.963
52027W        W18436   9.136  44.738   2.206
52028W        W18437  40.411  38.232  13.377
52029W        W18438  31.716  21.069   1.885
52030W        W18439  10.256   9.942   3.554
52031W        W18440   3.889  43.786  14.403
52032W        W18441   5.270   3.496  12.844
52033W        W18442  39.433   0.850  12.239
52034W        W18443  38.516  13.657  14.399
52035W        W18444  29.120  35.231  11.191
52036W        W18445   0.400  25.117  11.169
52037W        W18446  14.268   1.506  10.928
52038W        W18447  26.711  27.578  14.335
52039W        W18448  27.093  40.294  11.524
52040W        W18449  34.400  40.288  11.996
52041W        W18450  30.967  28.955   3.317
52042W        W18451  43.396  30.996  11.875
52043W        W18452  42.892  23.715  14.325
52044W        W18453  27.226  42.285   3.669
52045W        W18454  20.615  33.807   0.246
52046W        W18455  31.595  18.622   0.629
52047W        W18456   5.291   2.217  14.364
52048W        W18457  14.200  39.649  14.900
52049W        W18458  18.895   4.895   1.772
52050W        W18459  38.301  42.722   3.903
52051W        W18460  22.917  40.312   0.348
52052W        W18461  35.532  10.246  13.063
52053W        W18462  26.482  43.324   3.388
52054W        W18463  32.096  13.393  14.436
52055W        W18464  32.057  42.758   2.391
52056W        W18465   7.715  17.723  11.570
52057W        W18466  38.340   6.818  12.120
52058W        W18467  31.435  31.985  11.154
52059W        W18468  13.661   8.813  10.741
52060W        W18469  22.328   5.770  11.992
52061W        W18470  16.745  18.231   1.780
52062W        W18471  22.438  24.653  12.125
52063W        W18472  19.795   8.982  10.474
52064W        W18473   2.807  19.076   3.713
52065W        W18474   8.698   7.290   2.340
52066W        W18475  44.609   6.777  12.017
52067W        W18476  14.282  31.024  11.537
52068W        W18477  29.521  43.287  13.881
52069W        W18478   0.726  34.031   0.385
52070W        W18479   8.131  29.819  11.475
52071W        W18480  31.886  27.618   1.034
52072W        W18481   0.569  37.960  11.694
52073W        W18482  18.139  43.716   1.783
52074W        W18483  24.278  20.561  14.809
52075W        W18484   8.660  32.120  12.474
52076W        W18485  11.981  33.584  13.094
52077W        W18486  22.954  40.233  10.738
52078W        W18487  39.318  19.549   5.430
52079W        W18488  31.448  35.458   1.314
52080W        W18489  12.894  10.079   1.729
52081W        W18490   2.195  17.646  12.084
52082W        W18491   9.983  34.678  12.177
52083W        W18492  40.451   0.484   4.371
52084W        W18493   3.970   0.602  11.189
52085W        W18494  12.048  17.681   4.426
52086W        W18495  37.562  43.789  13.515
52087W        W18496  13.559  23.136   0.967
52088W        W18497  21.114   2.243  13.965
52089W        W18498  37.208   2.250   0.921
52090W        W18499  36.442   1.797   4.304
52091W        W18500   7.251  29.576  11.365
52092W        W18501  37.647   0.020   1.305
52093W        W18502  22.734  26.547  14.545
52094W        W18503  40.522  35.935  11.144
52095W        W18504  10.365  32.274   4.149
52096W        W18505  26.107  12.854   4.894
52097W        W18506  13.207   5.875   0.822
52098W        W18507   5.762  41.028  13.919
52099W        W18508  38.274  26.817   0.181
52100W        W18509   1.858  16.009  11.691
52101W        W18510  27.037  39.755   0.877
52102W        W18511   6.364  35.958  11.504
52103W        W18512  24.250  29.620  11.671
52104W        W18513  38.371  32.056  12.323
52105W        W18514  10.274  13.462   0.500
52106W        W18515  41.346   6.241  10.542
52107W        W18516   8.672  19.755  11.563
52108W        W18517  10.655   4.415  12.885
52109W        W18518  27.028  18.205   2.472
52110W        W18519   6.779  24.090  11.997
52111W        W18520  12.715  27.400   3.014
52112W        W18521  36.947  34.833  14.961
52113W        W18522  25.976  19.081   2.192
52114W        W18523   2.916  18.554  12.741
52115W        W18524  19.819  12.847  14.764
52116W        W18525  13.192  33.901  14.684
52117W        W18526  22.543  10.278  11.106
52118W        W18527  38.295  28.483   2.198
52119W        W18528  44.793  31.693  11.261
52120W        W18529  20.238  35.130   2.251
52121W        W18530  32.407  32.070  12.760
52122W        W18531  17.366  41.509  12.615
52123W        W18532  18.710  21.491   0.838
52124W        W18533   3.761  36.451   0.453
52125W        W18534  41.804  34.579  13.215
52126W        W18535   7.370   8.685   2.733
52127W        W18536  17.563  17.108   2.686
52128W        W18537  30.531   4.857  14.060
52129W        W18538  25.452  44.029   2.943
52130W        W18539  19.167  23.178  12.369
52131W        W18540   9.698   3.178  14.044
52132W        W18541  39.584  13.644   2.350
52133W        W18542   5.616  18.623  13.363
52134W        W18543   1.751  38.293  13.031
52135W        W18544  39.931  11.648  11.173
52136W        W18545  31.800  33.409   3.257
52137W        W18546  20.619  40.226   2.884
52138W        W18547  13.894  30.002   0.344
52139W        W18548  10.937  20.280   2.756
52140W        W18549  42.403  17.738  14.640
52141W        W18550  32.576   6.672   2.211
52142W        W18551  37.821  37.499  11.089
52143W        W18552  11.328   3.448  11.512
52144W        W18553  41.480  38.061  14.513
52145W        W18554   5.596  44.597   4.303
52146W        W18555   0.710  23.331   4.049
52147W        W18556  37.299  18.982  12.817
52148W        W18557  16.328  23.636  12.618
52149W        W18558  22.287  43.435   3.583
52150W        W18559  23.298  17.105   0.831
52151W        W18560  43.748  36.366  11.553
52152W        W18561  25.508  19.844   0.344
52153W        W18562  37.433  25.839  12.526
52154W        W18563  28.427  16.571  14.920
52155W        W18564  21.776   8.216  13.131
52156W        W18565  44.324  22.967   2.591
52157W        W18566  28.225  30.040   5.274
52158W        W18567  20.568  44.944  11.068
52159W        W18568  35.215   8.215   4.104
52160W        W18569  13.819  44.341  10.665
52161W        W18570  14.612  24.733   3.287
52162W        W18571  14.047  17.732   1.887
52163W        W18572   1.418  21.252   1.484
52164W        W18573   7.202   3.922   2.664
52165W        W18574  30.242  13.892   0.428
52166W        W18575  28.877   7.764   0.402
52167W        W18576  17.265  11.938  12.592
52168W        W18577  24.216  10.845  12.934
52169W        W18578   4.701   5.483   1.879
52170W        W18579  20.072   9.780  11.386
52171W        W18580  27.001  42.402  12.626
52172W        W18581  20.208   0.878  12.609
52173W        W18582  13.207  31.265  13.035
52174W        W18583  32.262  26.525   0.076
52175W        W18584   4.683  41.009   2.252
52176W        W18585  24.865   6.927  11.253
52177W        W18586   0.376  20.936   3.240
52178W        W18587  36.736   8.736  13.885
52179W        W18588   4.045  23.307   3.783
52180W        W18589   5.156  15.654  10.735
52181W        W18590  18.550  35.772  12.626
52182W        W18591  12.835  33.578   4.113
52183W        W18592  22.999  39.595   1.269
52184W        W18593  22.421   7.194   1.731
52185W        W18594  19.683  17.999  11.298
52186W        W18595  16.813   0.056   2.419
52187W        W18596  29.479  13.780   2.174
52188W        W18597  44.293  35.118   3.104
52189W        W18598   2.841   9.102   0.465
52190W        W18599   1.449   2.448   1.459
52191W        W18600  15.797  27.095   2.217
52192W        W18601  36.848  12.633   2.875
52193W        W18602  35.126  42.421   4.573
52194W        W18603  18.726  24.003  12.071
52195W        W18604  40.234   2.533  12.921
52196W        W18605  33.915  27.506  14.010
52197W        W18606  29.121  42.697  14.783
52198W        W18607  11.787  37.299   3.954
52199W        W18608  15.138  13.772   0.033
52200W        W18609  28.782  37.483   2.125
52201W        W18610  19.591  22.015   3.599
52202W        W18611  44.516  34.512   3.789
52203W        W18612  20.242  27.382   2.389
52204W        W18613  23.510  15.192   4.559
52205W        W18614  36.359  13.823   1.257
52206W        W18615  25.077  23.013   1.295
52207W        W18616  31.163  34.944   0.377
52208W        W18617  43.600  13.607  12.101
52209W        W18618  14.688  38.495  12.706
52210W        W18619  32.438  25.582   3.523
52211W        W18620   6.936  13.360  11.181
52212W        W18621  33.330  38.526  13.693
52213W        W18622  43.332   5.615   0.959
52214W        W18623  15.996  18.544  12.630
52215W        W18624  28.498   0.344   4.479
52216W        W18625   1.494  19.198   1.213
52217W        W18626  15.844  34.038   1.638
52218W        W18627  30.612  19.683   0.039
52219W        W18628  25.125  24.211  13.458
52220W        W18629  42.197  25.621   0.159
52221W        W18630  32.945  22.511  14.888
52222W        W18631  25.931   2.193  10.544
52223W        W18632  11.634  25.099   0.925
52224W        W18633   5.422  25.541  12.911
52225W        W18634  20.336   6.121   3.271
52226W        W18635  44.221   8.762  14.970
52227W        W18636   3.792  31.195  10.707
52228W        W18637  18.170  28.698   3.725
52229W        W18638  20.288  38.769   2.408
52230W        W18639   8.841  39.031   3.897
52231W        W18640  37.801  20.103  14.316
52232W        W18641  39.145  12.809   3.552
52233W        W18642   8.446  13.170  11.631
52234W        W18643  11.299  10.146   2.182
52235W        W18644   9.157  23.097   0.914
52236W        W18645   8.192  11.291  10.632
52237W        W18646  21.064  26.433   4.604
52238W        W18647  16.524  35.946  10.987
52239W        W18648  13.039  20.959   3.170
52240W        W18649   6.271   1.412   4.643
52241W        W18650  11.295  14.530   3.199
52242W        W18651  42.571  14.477  12.516
52243W        W18652  14.326  14.832   2.934
52244W        W18653  12.573  21.041   3.368
52245W        W18654  44.069  21.572  13.937
52246W        W18655  22.074  23.569   4.149
52247W        W18656  37.441  21.965   0.388
52248W        W18657  12.205  16.790   0.803
52249W        W18658  18.382  12.892   2.629
52250W        W18659  38.919  15.929   1.771
52251W        W18660   2.813  33.529   4.754
52252W        W18661  21.692  23.474   3.180
52253W        W18662  29.898  11.790   4.473
52254W        W18663  23.519  39.050  12.593
52255W        W18664  35.494   8.461  11.562
52256W        W18665  15.635  28.539  11.614
52257W        W18666  40.773  29.644   1.377
52258W        W18667   0.303  23.551  14.883
52259W        W18668  10.429  42.330  10.589
52260W        W18669   8.220  34.922   0.965
52261W        W18670  34.602  23.411  11.684
52262W        W18671  40.752  24.376   2.759
52263W        W18672  14.761   5.780  11.204
52264W        W18673   5.699  37.493  13.816
52265W        W18674  40.443   4.201   4.224
52266W        W18675  33.711  44.561  14.812
52267W        W18676  15.551  25.702   1.400
52268W        W18677  29.979   7.242   2.569
52269W        W18678  28.045   9.138  12.408
52270W        W18679  42.519  17.417   3.052
52271W        W18680  37.501   5.646   0.197
52272W        W18681  44.970  32.999   4.481
52273W        W18682  17.284  32.369   2.638
52274W        W18683  41.241   3.019  14.333
52275W        W18684  33.735  12.642  13.958
52276W        W18685  14.883   4.386   3.636
52277W        W18686  28.489   3.478   0.326
52278W        W18687  20.330   4.323   2.315
52279W        W18688   3.475   4.726   4.635
52280W        W18689  19.710  30.048   2.717
52281W        W18690   9.295  14.145  13.344
52282W        W18691  19.243   2.349  13.125
52283W        W18692  23.098  17.007   4.545
52284W        W18693  18.145   7.234  13.328
52285W        W18694  38.347  34.812  11.145
52286W        W18695  24.270  18.752  14.339
52287W        W18696  41.842  23.309   3.340
52288W        W18697  30.960   3.702   3.180
52289W        W18698  36.037  16.957  10.746
52290W        W18699  32.648  11.344  11.213
52291W        W18700  12.793  19.321   1.685
52292W        W18701  25.221   2.334   2.833
52293W        W18702   1.856  22.740   1.590
52294W        W18703  36.112  31.841  10.644
52295W        W18704   9.745  34.132   3.087
52296W        W18705  13.331  17.512   4.097
52297W        W18706  14.540  39.458   2.585
52298W        W18707  19.516  35.487   2.795
52299W        W18708  42.290  26.162   4.614
52300W        W18709  37.459  26.005   2.748
52301W        W18710  31.013  38.292  14.509
52302W        W18711  39.998  33.892   0.940
52303W        W18712  20.777  41.611   0.819
52304W        W18713  16.508  40.766   1.358
52305W        W18714   2.820  13.372   1.424
52306W        W18715  23.266  42.749  11.903
52307W        W18716  37.438  13.167   0.248
52308W        W18717   7.204  13.342   3.738
52309W        W18718   9.856  27.442  10.293
52310W        W18719  19.829  36.345   3.831
52311W        W18720  37.031  30.826  10.820
52312W        W18721  36.502  31.576   4.696
52313W        W18722  30.489   1.882   0.455
52314W        W18723  20.751   4.854   0.921
52315W        W18724   4.640   7.625  11.480
52316W        W18725  16.588  21.638  13.512
52317W        W18726  23.056  27.384  14.486
52318W        W18727  27.119  15.229  12.400
52319W        W18728  18.111   0.481   0.337
52320W        W18729   6.783  18.575   2.576
52321W        W18730   4.040  39.606  10.905
52322W        W18731   7.472   2.394  12.620
52323W        W18732  36.640  30.490  10.755
52324W        W18733  13.159  29.210  13.963
52325W        W18734  15.866  14.668   1.357
52326W        W18735  10.401  20.150  14.076
52327W        W18736  34.752  31.334   0.914
52328W        W18737  15.903  35.022   0.787
52329W        W18738  20.163  16.781  13.861
52330W        W18739  14.370  39.536   3.591
52331W        W18740  21.262  36.144  14.371
52332W        W18741  31.538   8.734   4.464
52333W        W18742  43.913  33.825  12.372
52334W        W18743  30.623  36.587   3.431
52335W        W18744  33.899   9.353  10.850
52336W        W18745  32.112  18.244  10.793
52337W        W18746  15.549  12.919  11.718
52338W        W18747   5.738  27.913  13.755
52339W        W18748  12.418  21.686  12.472
52340W        W18749  16.780  31.366  14.234
52341W        W18750  14.739  35.026  10.298
52342W        W18751  39.070   7.038   9.877
52343W        W18752  16.110  12.512   5.172
52344W        W18753   0.889  44.993  14.279
52345W        W18754  41.207  27.119   2.199
52346W        W18755  11.745  32.915   2.577
52347W        W18756  15.857  38.898  12.785
52348W        W18757  25.484   0.216   1.903
52349W        W18758  17.173  10.748   3.173
52350W        W18759  22.283  23.453  13.660
52351W        W18760  20.120  27.493  11.659
52352W        W18761   9.211  30.011   4.551
52353W        W18762   7.224  15.822  10.771
52354W        W18763  40.895  42.289  11.084
52355W        W18764   8.833  27.501  11.984
52356W        W18765  28.216  17.091   0.673
52357W        W18766   4.950  29.556   1.005
52358W        W18767  33.173  38.351   4.254
52359W        W18768   6.232  43.167  13.824
52360W        W18769  44.518  41.427  10.861
52361W        W18770  15.712  43.266  10.850
52362W        W18771  40.151  38.110  13.979
52363W        W18772   7.660  39.057   4.809
52364W        W18773  39.351   7.343  11.502
52365W        W18774   3.148  14.769   3.039
52366W        W18775   7.861  23.787   1.148
52367W        W18776   1.705  29.939   2.808
52368W        W18777  36.035  30.053   0.369
52369W        W18778  25.118  21.628  12.563
52370W        W18779  16.316  20.405  12.216
52371W        W18780  38.482   8.021  13.945
52372W        W18781  25.535  35.090  10.442
52373W        W18782  24.086  27.703   3.956
52374W        W18783  35.885  24.225   1.311
52375W        W18784  44.505  10.114  14.864
52376W        W18785  26.611  29.943   1.943
52377W        W18786  43.090   2.113   0.190
52378W        W18787  42.710  29.617   0.164
52379W        W18788  15.002  34.944   3.071
52380W        W18789  37.923  21.601   2.669
52381W        W18790   1.472  26.874   1.364
52382W        W18791  12.727  38.424  11.590
52383W        W18792   6.863  44.036  10.778
52384W        W18793   7.416  10.729   0.419
52385W        W18794   9.874  43.899   0.431
52386W        W18795   2.271  19.659   2.498
52387W        W18796  39.296   2.235  12.929
52388W        W18797  24.429  18.090   3.646
52389W        W18798   8.273  20.784   1.925
52390W        W18799  14.568   4.450  13.009
52391W        W18800  15.682  41.835  10.160
52392W        W18801   7.823  32.936   5.199
52393W        W18802   5.124  25.066  13.242
52394W        W18803  33.901  29.911  11.080
52395W        W18804  16.562  43.782  14.046
52396W        W18805  29.852  21.374   1.900
52397W        W18806  11.862  36.202   2.282
52398W        W18807  38.553  20.542   0.681
52399W        W18808   0.488  20.658   0.789
52400W        W18809  19.320  36.916  13.957
52401W        W18810  35.071  19.193  10.619
52402W        W18811  20.735  30.449   2.829
52403W        W18812  27.250  37.474   2.707
52404W        W18813  34.312  39.427  11.063
52405W        W18814   6.289  34.984   4.737
52406W        W18815  11.009  27.621  14.502
52407W        W18816  23.420   5.388  10.729
52408W        W18817  17.783  11.689  13.424
52409W        W18818  28.601  44.451   1.351
52410W        W18819  22.496   1.408   4.533
52411W        W18820  23.595  44.199   2.984
52412W        W18821  15.527  21.422   0.049
52413W        W18822  33.825   5.822   1.664
52414W        W18823  39.733  13.208  11.201
52415W        W18824  11.387   1.803  14.084
52416W        W18825  28.464  31.035   4.630
52417W        W18826  12.078  44.769  12.496
52418W        W18827  28.073  16.871  10.373
52419W        W18828  44.536   6.568  14.953
52420W        W18829  18.228  16.650  12.984
52421W        W18830  39.002  11.347   0.360
52422W        W18831  16.346  17.151  12.898
52423W        W18832  37.110  18.335  11.328
52424W        W18833   4.010   0.315   2.129
52425W        W18834  24.150   1.732   0.949
52426W        W18835  36.899   9.691   4.194
52427W        W18836  18.515  23.700  10.323
52428W        W18837  25.037   5.627   4.640
52429W        W18838  27.638  29.914   3.692
52430W        W18839  34.312  21.034  13.434
52431W        W18840   9.218   2.270   3.160
52432W        W18841  24.166  29.496   4.574
52433W        W18842   6.416   7.278   1.668
52434W        W18843  30.960  18.055  12.108
52435W        W18844  23.141   4.818   1.153
52436W        W18845   7.401  28.476  13.551
52437W        W18846  13.740  29.995  14.854
52438W        W18847  35.372  12.578  12.528
52439W        W18848  25.533  28.430  14.769
52440W        W18849  23.948  24.746   2.331
52441W        W18850   4.327  10.348   1.879
52442W        W18851  43.688   3.730   2.271
52443W        W18852   8.091  14.801   3.207
52444W        W18853   3.959  11.286  11.834
52445W        W18854   4.325  12.374   1.239
52446W        W18855  22.382  25.175  11.016
52447W        W18856  12.273  20.965  11.946
52448W        W18857  44.532   5.383   0.409
52449W        W18858   1.924  40.993  14.328
52450W        W18859   9.632  13.142  13.927
52451W        W18860  30.433  23.025  12.142
52452W        W18861  42.127  18.697   0.179
52453W        W18862  27.939  36.091   1.930
52454W        W18863  19.221  13.385   2.177
52455W        W18864  17.180   7.930   1.418
52456W        W18865  41.388  44.536  13.031
52457W        W18866  32.639   2.263  10.634
52458W        W18867  42.030  38.076  14.966
52459W        W18868  20.509  29.472   3.906
52460W        W18869   1.352   4.680   4.182
52461W        W18870   6.677  35.178  13.597
52462W        W18871  29.413  21.604   2.043
52463W        W18872  37.448   9.921   0.848
52464W        W18873  32.894  38.952  13.627
52465W        W18874  16.489   1.374   4.110
52466W        W18875  30.668  28.388  12.066
52467W        W18876   0.839  25.424   0.347
52468W        W18877  34.453  23.925   0.886
52469W        W18878  24.643  17.854  13.196
52470W        W18879  14.816  34.100   9.985
52471W        W18880   9.967  22.424  12.981
52472W        W18881  22.975  20.939  12.252
52473W        W18882  42.368  39.579  14.093
52474W        W18883  20.198  44.352  14.272
52475W        W18884   6.350  17.027  14.811
52476W        W18885   8.197   1.901   4.393
52477W        W18886  11.545  14.054   1.749
52478W        W18887  40.386   6.663   0.545
52479W        W18888   9.355  40.334   2.164
52480W        W18889  12.058  41.471   1.797
52481W        W18890  16.278  17.596  12.531
52482W        W18891  36.669  36.844   1.347
52483W        W18892  42.245  10.842  11.608
52484W        W18893  32.699  17.619   3.237
52485W        W18894  19.598  41.995  11.192
52486W        W18895   6.169  20.437   0.811
52487W        W18896  20.633   8.714   1.233
52488W        W18897  33.070  28.856   0.257
52489W        W18898  33.514   6.389  14.609
52490W        W18899  12.384  18.197   3.726
52491W        W18900  23.126  12.359   2.645
52492W        W18901  31.905  27.464   3.904
52493W        W18902  37.489  41.210  14.237
52494W        W18903  11.857  16.141   3.729
52495W        W18904  42.396  20.002   4.853
52496W        W18905  41.348  42.139   2.908
52497W        W18906   2.698  16.007  13.906
52498W        W18907  42.968  15.058   1.811
52499W        W18908  39.304  20.315  12.046
52500W        W18909  12.785  13.119   0.184
52501W        W18910   8.192   1.237   0.213
52502W        W18911   1.817  14.138  12.803
52503W        W18912  13.681  16.119   4.140
52504W        W18913  43.902  11.253  11.118
52505W        W18914  22.957  20.171  10.502
52506W        W18915  19.643   2.192  12.413
52507W        W18916  39.296   7.478  10.518
52508W        W18917   7.387  42.401   3.244
52509W        W18918  31.522   6.209   1.679
52510W        W18919  18.238  25.230  12.576
52511W        W18920  26.791   3.881  12.816
52512W        W18921   2.578  41.473  12.055
52513W        W18922  31.940  23.597  11.030
52514W        W18923   6.092  38.995   3.621
52515W        W18924   6.264  40.328  12.780
52516W        W18925  15.697  26.929  14.875
52517W        W18926  18.550  10.229   1.610
52518W        W18927  28.451  13.157   3.790
52519W        W18928   7.206  44.729  13.440
52520W        W18929   7.833  36.120   3.070
52521W        W18930  17.590  23.280  12.974
52522W        W18931  36.903  15.378  10.714
52523W        W18932  18.819  33.043  12.476
52524W        W18933  14.879  28.064  11.674
52525W        W18934  33.652  16.219  13.379
52526W        W18935  34.148  28.061  10.513
52527W        W18936   2.689   3.711   2.841
52528W        W18937   5.100   7.432  12.956
52529W        W18938  34.387  36.384  14.367
52530W        W18939  18.293   6.210   3.309
52531W        W18940  38.398  34.997   0.029
52532W        W18941   4.873  11.833  10.905
52533W        W18942  15.625   5.205  12.888
52534W        W18943  23.739  28.120   2.694
52535W        W18944  17.867  13.762   4.280
52536W        W18945  28.404  15.346   4.894
52537W        W18946   0.905  28.150   2.579
52538W        W18947  20.894   0.386  11.169
52539W        W18948  37.786   7.197  14.281
52540W        W18949  17.410  34.791   5.001
52541W        W18950  22.194  41.804   3.404
52542W        W18951   0.571   9.256   9.879
52543W        W18952  18.651  15.796  11.143
52544W        W18953  40.258  14.055  14.336
52545W        W18954  28.394  40.503   1.853
52546W        W18955  33.852  23.566  14.696
52547W        W18956   6.301  23.372   5.384
52548W        W18957  17.732  12.351  12.070
52549W        W18958  29.400   4.756   1.875
52550W        W18959  31.827  41.131  13.823
52551W        W18960  35.567  32.352   2.815
52552W        W18961  18.999  19.135  11.576
52553W        W18962  37.329  27.274  10.337
52554W        W18963  42.066   5.733   1.184
52555W        W18964  13.495  38.566   5.245
52556W        W18965  41.432  41.849   0.733
52557W        W18966  22.156  15.035  10.620
52558W        W18967  18.254   9.828   2.212
52559W        W18968   7.134  26.759  10.267
52560W        W18969  43.077  15.291  14.006
52561W        W18970  32.928  11.809  12.937
52562W        W18971  28.878  36.304  11.424
52563W        W18972  12.893  18.155   1.369
52564W        W18973   2.917  42.020  14.415
52565W        W18974  26.558  32.690  12.378
52566W        W18975  18.617  20.283   9.887
52567W        W18976  22.462  25.749  10.473
52568W        W18977  27.980  12.067  11.742
52569W        W18978   3.401   7.014   4.077
52570W        W18979  40.880   3.255   2.345
52571W        W18980  21.411  41.036   3.798
52572W        W18981  28.110  14.234   1.383
52573W        W18982  30.341  43.236   3.643
52574W        W18983  37.573  27.643  11.588
52575W        W18984  33.572  27.344   1.776
52576W        W18985   8.098  33.080   2.302
52577W        W18986  17.829  11.759   3.192
52578W        W18987  29.501   3.478  14.540
52579W        W18988  32.813   8.750   1.759
52580W        W18989  25.181  27.230   2.898
52581W        W18990   0.002  39.321  10.876
52582W        W18991   9.154  42.748  11.655
52583W        W18992  15.809   1.051   1.240
52584W        W18993  25.027   0.029  14.901
52585W        W18994   5.621   1.645   4.271
52586W        W18995  41.991  11.042   0.981
52587W        W18996  29.525  34.424  10.312
52588W        W18997   8.983   3.342  12.008
52589W        W18998   8.037  35.330   4.505
52590W        W18999   6.974  13.861   0.942
52591W        W19000  27.795  38.740  10.442
52592W        W19001   5.621  41.926   3.630
52593W        W19002  33.426  26.285  14.982
52594W        W19003  13.544  26.093  11.084
52595W        W19004  42.471   6.682  10.296
52596W        W19005  32.842  26.984  14.383
52597W        W19006  15.511  31.002  14.268
52598W        W19007  34.410  27.395  10.751
52599W        W19008  18.207  16.187   0.246
52600W        W19009   2.444   4.901   3.684
52601W        W19010  27.557  24.735   1.833
52602W        W19011  42.865   0.457  11.626
52603W        W19012  27.048  44.979   3.846
52604W        W19013   7.155  34.862   4.000
52605W        W19014  37.453  13.101   4.079
52606W        W19015   2.589   3.206  13.333
52607W        W19016  20.700  12.261   3.692
52608W        W19017  24.026   1.221   3.274
52609W        W19018   7.641  26.584  12.962
52610W        W19019  43.485   1.489  13.886
52611W        W19020  20.628  32.337  11.575
52612W        W19021  41.284  36.797   1.761
52613W        W19022  14.297  14.413   3.244
52614W        W19023   2.336   8.784   3.463
52615W        W19024  38.435  41.923  13.457
52616W        W19025  37.791  31.384  14.350
52617W        W19026   4.599  13.059   1.844
52618W        W19027  43.751  39.368  11.132
52619W        W19028   1.808  29.394   4.590
52620W        W19029  25.659  43.042   4.001
52621W        W19030   9.691  44.200   4.958
52622W        W19031  44.486  33.909  13.046
52623W        W19032  17.331  23.726  14.768
52624W        W19033  26.865  13.314   5.272
52625W        W19034   9.905  25.111   1.201
52626W        W19035  43.537  32.393  12.442
52627W        W19036  23.002  43.419   1.252
52628W        W19037  40.328  13.844  11.988
52629W        W19038  44.201  40.734   1.868
52630W        W19039  35.539  29.998   3.214
52631W        W19040  30.115  11.686  11.131
52632W        W19041  15.063   1.370   9.666
52633W        W19042  17.720   9.614   1.498
52634W        W19043  25.840   6.717   1.255
52635W        W19044  25.635  22.253   0.327
52636W        W19045  29.461  20.086  11.524
52637W        W19046  35.536  26.221   3.301
52638W        W19047  27.162   5.895  11.558
52639W        W19048  34.525  37.610   4.432
52640W        W19049  34.718   3.856  13.062
52641W        W19050  32.457   9.010  10.441
52642W        W19051  24.551  26.211  11.452
52643W        W19052   1.200  23.836  13.139
52644W        W19053   2.454  43.547  13.066
52645W        W19054  12.054  18.148   4.145
52646W        W19055  32.513   3.800  12.544
52647W        W19056  42.201  33.930   0.612
52648W        W19057  15.134  15.382  13.400
52649W        W19058  20.570  18.701  10.971
52650W        W19059  35.894  37.733  11.479
52651W        W19060  27.626  43.263  11.910
52652W        W19061   0.994   8.211  11.077
52653W        W19062   9.830  26.550   1.811
52654W        W19063  27.548  26.755   0.752
52655W        W19064   8.680  10.934   4.639
52656W        W19065  19.755   3.201   0.243
52657W        W19066  42.767  26.465   2.667
52658W        W19067  24.962  21.052   5.405
52659W        W19068  36.413   8.286   3.321
52660W        W19069  14.580  35.108  14.823
52661W        W19070  16.825   2.986  12.886
52662W        W19071  43.450  23.880   0.890
52663W        W19072  13.566  13.292   3.823
52664W        W19073  11.859  44.688   1.236
52665W        W19074  11.544  13.927  14.261
52666W        W19075  34.440  33.011  13.878
52667W        W19076  41.853   7.647  14.278
52668W        W19077  29.106  35.646  13.609
52669W        W19078  38.452  29.369   0.835
52670W        W19079  33.911   7.380   1.877
52671W        W19080  42.323  12.324  12.054
52672W        W19081  36.023  22.788  14.548
52673W        W19082  15.791  26.787  13.480
52674W        W19083   8.311  28.579  13.995
52675W        W19084  32.113   5.793  12.969
52676W        W19085  25.943  34.421   0.822
52677W        W19086  19.156  11.365  11.171
52678W        W19087  23.714  36.136  14.419
52679W        W19088   0.269   7.337  11.332
52680W        W19089  13.235  31.837   2.843
52681W        W19090  29.135  29.093  13.285
52682W        W19091   0.707  27.823   4.920
52683W        W19092  40.008  20.712  13.820
52684W        W19093  35.088   2.256   3.529
52685W        W19094  27.058  22.772   3.580
52686W        W19095  27.805  37.473  12.368
52687W        W19096  26.146   9.149  14.967
52688W        W19097   6.841   1.283   0.180
52689W        W19098  36.327  20.322   0.033
52690W        W19099  15.929  39.601  14.837
52691W        W19100  29.201  13.730   1.187
52692W        W19101  43.052  18.746   3.633
52693W        W19102  31.511  17.047  13.137
52694W        W19103   1.712  32.988   2.843
52695W        W19104  31.129   5.881   2.406
52696W        W19105  18.553  14.263  12.932
52697W        W19106  32.628   5.369   3.374
52698W        W19107  22.664  10.177   4.703
52699W        W19108  36.390  24.002  12.142
52700W        W19109  23.822  15.191  11.562
52701W        W19110   2.728  34.360  10.869
52702W        W19111  44.607  30.405  12.104
52703W        W19112  17.033  19.543  14.092
52704W        W19113   3.984  30.394  12.865
52705W        W19114   2.783  14.361  14.354
52706W        W19115  30.486  33.034   3.211
52707W        W19116   8.665  23.430  12.042
52708W        W19117  17.902   3.322  13.825
52709W        W19118  41.359  42.114   3.840
52710W        W19119  18.322  36.962   3.108
52711W        W19120  33.501  29.937   4.109
52712W        W19121   4.067  23.802   4.053
52713W        W19122   6.175  11.396  13.038
52714W        W19123  19.005   7.255   1.536
52715W        W19124   6.313   4.136  13.984
52716W        W19125  27.017  37.505   3.187
52717W        W19126  40.590   4.378   3.198
52718W        W19127   7.710  30.990   2.740
52719W        W19128   5.346  32.607   3.145
52720W        W19129   7.643   9.244   0.586
52721W        W19130  13.661  41.908  10.662
52722W        W19131  34.966  22.002  13.877
52723W        W19132  26.248   4.416  11.129
52724W        W19133   5.646  38.003  11.206
52725W        W19134  18.999  13.638  11.934
52726W        W19135  25.600   6.117   1.262
52727W        W19136   9.926  44.416   3.311
52728W        W19137  14.157  31.999  10.360
52729W        W19138  19.976  14.012  10.720
52730W        W19139  13.772  14.707   0.175
52731W        W19140  33.627  10.360  14.887
52732W        W19141  15.340  35.099   3.757
52733W        W19142   3.302   3.484   3.358
52734W        W19143  33.974   6.896   2.154
52735W        W19144  12.147  19.220  11.744
52736W        W19145  10.164   6.944  10.530
52737W        W19146  44.964  27.048   4.194
52738W        W19147   9.871  11.900  11.225
52739W        W19148  13.314  40.748  13.423
52740W        W19149  29.497  17.401  10.732
52741W        W19150  35.161  36.903   3.294
52742W        W19151  17.701  39.476  14.725
52743W        W19152  16.879  39.111   4.570
52744W        W19153  40.689  14.427  13.484
52745W        W19154  32.532  23.780   1.341
52746W        W19155   7.660  30.105   4.319
52747W        W19156   5.191  14.685  10.391
52748W        W19157   2.843  25.167   0.918
52749W        W19158  33.856  40.451  11.544
52750W        W19159  41.379  36.418   1.428
52751W        W19160   4.656  24.184  12.871
52752W        W19161  24.495   0.948  11.116
52753W        W19162  22.597  25.890   1.855
52754W        W19163  37.434   0.065  13.903
52755W        W19164   0.476  24.609  14.112
52756W        W19165  28.720   2.720  12.412
52757W        W19166   4.379  37.463  11.919
52758W        W19167  11.414  37.601  14.372
52759W        W19168  38.936  43.335   1.237
52760W        W19169  11.834  15.365   3.183
52761W        W19170  28.114  35.212  10.512
52762W        W19171  38.251  37.714   0.431
52763W        W19172  38.116   7.781   2.943
52764W        W19173  39.452  36.871  12.586
52765W        W19174  38.625  20.729  13.525
52766W        W19175  31.448  44.343   0.337
52767W        W19176   6.674  41.470   2.283
52768W        W19177  24.420  24.268  13.098
52769W        W19178  15.853   2.379   0.595
52770W        W19179  39.302  22.164  12.469
52771W        W19180  24.787  30.812   1.838
52772W        W19181  26.678  43.402   0.419
52773W        W19182  24.634  21.931   2.666
52774W        W19183   9.569  27.082   2.859
52775W        W19184  11.212  27.987   1.730
52776W        W19185   6.610   3.156   3.957
52777W        W19186  31.352   0.527   1.213
52778W        W19187  20.533  18.022  14.347
52779W        W19188  10.917  33.933  13.836
52780W        W19189  14.814  41.554   1.414
52781W        W19190  40.053  31.027  14.870
52782W        W19191  35.632  27.206  12.089
52783W        W19192   8.709  12.726   0.513
52784W        W19193  18.160  36.395  13.037
52785W        W19194   2.434  11.694  12.911
52786W        W19195  34.146  26.132   0.299
52787W        W19196   6.525  41.717  13.786
52788W        W19197  37.883  10.028  14.899
52789W        W19198  20.272   0.530   9.804
52790W        W19199  42.423  14.507   1.391
52791W        W19200  33.460  19.223   2.539
52792W        W19201  43.563  32.117   1.178
52793W        W19202   6.437   2.364   4.881
52794W        W19203  19.488  41.804   0.029
52795W        W19204  43.780   8.377  13.544
52796W        W19205  29.083  19.251   0.602
52797W        W19206  20.774  17.222   2.924
52798W        W19207  31.306  34.249   4.081
52799W        W19208  15.727   9.816   0.525
52800W        W19209  12.607  35.312   0.382
52801W        W19210  14.693  19.975   1.394
52802W        W19211  24.197   3.927   0.910
52803W        W19212  44.963  17.330  14.518
52804W        W19213  34.979  38.714   1.319
52805W        W19214  24.686  28.997   2.413
52806W        W19215  12.572   8.328   2.799
52807W        W19216   5.176  24.040  11.999
52808W        W19217  31.522  10.618  13.846
52809W        W19218  21.853  27.888  14.488
52810W        W19219   0.575  21.728   3.456
52811W        W19220  12.368  16.816   4.337
52812W        W19221   5.556  44.057  11.504
52813W        W19222  32.828   7.831   0.515
52814W        W19223  42.529  41.242  14.740
52815W        W19224  21.184  27.201   0.344
52816W        W19225  33.355  12.624   4.540
52817W        W19226  19.544   2.281   3.595
52818W        W19227   6.228   7.876  13.817
52819W        W19228   0.269  16.914  14.786
52820W        W19229  26.649   9.906   1.143
52821W        W19230  26.447   9.119   2.756
52822W        W19231  30.047  32.645   2.682
52823W        W19232  32.537  37.093   0.250
52824W        W19233  35.651  34.644   0.749
52825W        W19234   0.338  25.393  10.742
52826W        W19235  23.139  35.520   0.450
52827W        W19236  35.561   1.549  12.778
52828W        W19237  11.956  16.872  13.300
52829W        W19238  25.396  36.367  14.811
52830W        W19239  40.732   7.239  10.112
52831W        W19240  22.972  44.190  14.474
52832W        W19241  16.745  28.030  12.179
52833W        W19242  18.068  23.714  11.235
52834W        W19243   2.845  23.580  12.793
52835W        W19244  41.531  14.093  14.695
52836W        W19245  38.558  37.592   4.628
52837W        W19246  34.480   3.914   2.115
52838W        W19247  11.267  12.727   2.397
52839W        W19248   5.320  14.298  11.212
52840W        W19249  36.528   0.333   2.301
52841W        W19250  24.084   5.507   1.767
52842W        W19251  23.037  41.880  12.958
52843W        W19252  21.665  11.325  12.492
52844W        W19253  27.623  34.591  11.616
52845W        W19254   0.929  42.279  11.047
52846W        W19255  23.204  13.297  13.391
52847W        W19256  35.362   5.938   3.719
52848W        W19257   8.870  36.350   3.766
52849W        W19258   0.282  10.165  12.912
52850W        W19259  32.386   9.933   3.665
52851W        W19260  37.965  28.405   2.696
52852W        W19261  36.986   7.619  12.608
52853W        W19262  30.871   1.306  14.232
52854W        W19263   7.810  10.377  10.704
52855W        W19264  21.668  44.155  11.087
52856W        W19265  15.748   8.619  14.865
52857W        W19266  20.638   2.806   0.062
52858W        W19267   0.943  27.779   4.473
52859W        W19268   2.257  28.179   2.838
52860W        W19269   7.106  12.277   3.056
52861W        W19270  31.902  23.155   2.781
52862W        W19271  26.030  15.602   1.440
52863W        W19272   1.327  40.945   0.050
52864W        W19273  21.258  36.651   0.200
52865W        W19274  23.727   1.662   0.602
52866W        W19275  27.109   8.360   4.140
52867W        W19276  18.655  21.850   4.571
52868W        W19277  27.440  16.704   0.543
52869W        W19278  17.700   3.004  10.687
52870W        W19279  29.547  23.951  13.528
52871W        W19280  20.298  22.235   1.856
52872W        W19281  20.063  21.573   4.099
52873W        W19282  23.186  27.047  10.675
52874W        W19283  31.243   9.590  11.076
52875W        W19284   2.345  31.445  12.842
52876W        W19285  29.951  29.724  12.939
52877W        W19286  18.728  44.414   4.065
52878W        W19287  38.148   4.288  13.702
52879W        W19288   4.942  12.742   4.073
52880W        W19289  26.724  23.714  12.937
52881W        W19290  44.140  23.433   2.756
52882W        W19291  38.863  36.016   1.312
52883W        W19292  15.270  18.191  10.820
52884W        W19293   8.000  17.417   2.734
52885W        W19294  39.531  18.850   2.299
52886W        W19295  24.247  26.994  13.819
52887W        W19296  38.450  15.157  14.790
52888W        W19297  37.702  19.056   0.758
52889W        W19298  16.199  25.942  13.035
52890W        W19299  30.656  19.360  11.605
52891W        W19300  24.870  28.115   1.850
52892W        W19301  36.186  13.703   4.505
52893W        W19302   1.652  20.826  12.409
52894W        W19303  30.052  22.955  13.764
52895W        W19304  30.475  15.073   3.138
52896W        W19305  25.221  25.079  13.302
52897W        W19306  22.003  39.613   3.647
52898W        W19307  24.139  22.698  12.084
52899W        W19308  37.528  44.886  12.919
52900W        W19309  10.418  14.148   2.128
52901W        W19310  13.129  16.309  14.990
52902W        W19311  32.748  10.875   3.697
52903W        W19312  30.959  35.491   4.763
52904W        W19313  23.633  25.901  10.698
52905W        W19314  23.022  18.604  10.706
52906W        W19315   5.411  44.247  12.877
52907W        W19316   9.493  24.319   3.049
52908W        W19317  29.035  13.951  12.882
52909W        W19318   8.568   1.225   2.829
52910W        W19319  12.253  40.529   4.256
52911W        W19320  13.890  19.609   1.232
52912W        W19321  10.542   4.695   1.419
52913W        W19322   4.402  11.724   1.808
52914W        W19323   5.787  31.131   0.726
52915W        W19324  14.833   3.809  12.450
52916W        W19325  24.459  16.378  12.938
52917W        W19326  13.223  18.442  13.316
52918W        W19327   1.190  10.367  13.899
52919W        W19328  16.835  25.231   4.135
52920W        W19329  19.660   0.760  14.985
52921W        W19330  37.470  34.051   3.860
52922W        W19331  12.844  24.816   3.680
52923W        W19332  44.590  10.662   1.358
52924W        W19333  29.410  33.568   3.757
52925W        W19334  35.112  19.289   3.195
52926W        W19335   9.899  38.599   1.782
52927W        W19336   0.434   2.798   4.683
52928W        W19337  12.920  10.772   4.175
52929W        W19338  33.983  37.094   0.334
52930W        W19339  31.635   2.979  14.018
52931W        W19340  43.753  21.626   0.893
52932W        W19341  14.773   0.331   9.767
52933W        W19342   1.996   2.707   1.860
52934W        W19343  41.757  24.137   2.992
52935W        W19344  23.140  18.840   1.757
52936W        W19345   5.430  30.663  14.411
52937W        W19346  17.242   5.929   0.405
52938W        W19347  36.817  11.157  10.988
52939W        W19348  25.359  26.100  11.608
52940W        W19349  18.953  41.081   4.450
52941W        W19350   4.509  40.524   0.431
52942W        W19351  41.426  40.278   4.097
52943W        W19352  25.367  16.558  12.864
52944W        W19353  28.314   8.196  12.640
52945W        W19354  28.071  14.735   3.225
52946W        W19355  21.739  25.145  12.095
52947W        W19356  44.304  26.599  12.099
52948W        W19357  19.708  26.575  13.305
52949W        W19358   4.868  24.264   1.180
52950W        W19359  31.355  36.537  11.966
52951W        W19360  14.652  18.382   0.108
52952W        W19361  32.259  37.112   1.496
52953W        W19362  26.748  30.391  14.816
52954W        W19363  31.499  20.539   4.661
52955W        W19364  36.232  34.670   0.414
52956W        W19365  43.020  23.586   0.856
52957W        W19366  27.454  23.430   0.755
52958W        W19367  12.956  24.003   1.236
52959W        W19368   5.591   9.700   2.708
52960W        W19369  16.644  41.791   2.667
52961W        W19370  39.648  22.183  11.085
52962W        W19371  32.050  32.506   2.447
52963W        W19372   7.366  41.346  12.068
52964W        W19373  39.327  41.884   3.314
52965W        W19374  33.120  30.425   2.156
52966W        W19375  42.660  19.665   0.073
52967W        W19376  29.506   2.812  11.610
52968W        W19377  19.845  24.716  13.901
52969W        W19378  32.485  20.868  11.508
52970W        W19379  31.008  33.728   1.281
52971W        W19380   3.212   4.162  14.535
52972W        W19381  15.331  14.873  14.182
52973W        W19382  20.584  25.945   1.310
52974W        W19383  27.798  22.423  11.495
52975W        W19384  18.975   6.765   4.046
52976W        W19385   2.790  33.069  11.276
52977W        W19386  26.664  26.056  10.561
52978W        W19387  13.659  35.286   1.256
52979W        W19388  12.749   2.804   1.230
52980W        W19389  39.358  33.196   3.481
52981W        W19390  30.432  34.187  14.861
52982W        W19391   4.387  21.308  13.863
52983W        W19392  31.085   0.938  11.414
52984W        W19393  16.186   7.914   0.400
52985W        W19394  38.953   8.756  14.291
52986W        W19395  44.467   1.997   0.194
52987W        W19396  37.361  20.275   0.895
52988W        W19397   5.273  13.356  13.030
52989W        W19398  11.081  17.556  13.471
52990W        W19399  32.480  24.474  13.980
52991W        W19400  15.996  42.980   1.175
52992W        W19401  43.461   5.187  12.035
52993W        W19402   1.258  20.339   0.533
52994W        W19403  20.498  29.077  12.589
52995W        W19404  25.466  21.757   0.315
52996W        W19405  15.912  43.060   5.349
52997W        W19406  44.842  16.117  12.620
52998W        W19407  19.913  42.099   0.151
52999W        W19408  31.432  24.614   3.200
53000W        W19409  41.957   4.209  11.995
53001W        W19410  30.651   7.689  11.912
53002W        W19411  38.496  43.276  12.921
53003W        W19412  11.777  11.149  12.548
53004W        W19413  39.313  38.758   0.832
53005W        W19414  14.063  34.527  13.402
53006W        W19415  21.096   8.088  12.521
53007W        W19416  15.940   5.418   3.747
53008W        W19417   1.196  16.635  13.361
53009W        W19418  37.845   8.250  14.305
53010W        W19419   4.978   4.471  13.852
53011W        W19420   8.464  14.370   2.349
53012W        W19421  19.970  15.889  12.637
53013W        W19422  42.585  18.469  12.538
53014W        W19423   7.165  32.382  11.230
53015W        W19424  30.961  36.079   4.816
53016W        W19425  41.325  12.853  12.535
53017W        W19426  20.058  17.168   1.139
53018W        W19427  14.948  20.085  13.591
53019W        W19428  33.582  15.023  11.678
53020W        W19429  24.031  38.892  13.029
53021W        W19430  32.926  30.497   1.258
53022W        W19431  31.320  18.999   0.397
53023W        W19432  29.105   0.411  11.672
53024W        W19433  33.612  34.972  12.656
53025W        W19434   5.279  32.843   1.105
53026W        W19435  10.474  38.853   2.733
53027W        W19436  11.672  14.342  12.640
53028W        W19437   4.293  15.207   2.694
53029W        W19438  40.277  11.432   1.223
53030W        W19439  31.931  12.647  14.890
53031W        W19440  22.343  36.171   0.248
53032W        W19441   0.999  11.113  12.364
53033W        W19442  32.065  14.195  11.958
53034W        W19443  23.892  13.809   3.770
53035W        W19444  24.502  11.291   9.543
53036W        W19445  31.942  16.473  11.586
53037W        W19446  24.100  37.601  14.270
53038W        W19447  17.134  12.848  14.892
53039W        W19448  42.496   8.234   1.079
53040W        W19449  10.161  15.801   3.355
53041W        W19450  23.959   0.303  14.329
53042W        W19451  25.273  36.902  14.934
53043W        W19452   0.734  12.233   0.217
53044W        W19453   7.970  42.909   0.199
53045W        W19454   7.534   4.964  14.724
53046W        W19455  42.368   8.476  10.621
53047W        W19456  36.522  29.962  10.690
53048W        W19457   2.403  44.377   2.194
53049W        W19458   6.777  14.642  11.440
53050W        W19459  16.888  24.476   3.749
53051W        W19460  37.985  40.873   1.371
53052W        W19461   8.297  14.609   4.526
53053W        W19462  37.022  40.868  12.131
53054W        W19463   9.628  29.455   2.798
53055W        W19464  26.262  33.300  11.613
53056W        W19465  26.965  34.447  10.758
53057W        W19466   1.746  25.527  11.993
53058W        W19467   7.336  29.143  11.017
53059W        W19468  36.409  42.843  10.741
53060W        W19469  12.089  36.181  11.105
53061W        W19470  18.995  33.566   3.616
53062W        W19471  17.503  18.960  12.454
53063W        W19472  42.374  31.590  11.094
53064W        W19473  13.078  35.641   0.201
53065W        W19474   8.404   8.408   1.372
53066W        W19475  11.456   7.100  14.391
53067W        W19476  21.982  15.817  13.993
53068W        W19477   0.464  41.014  13.322
53069W        W19478  24.740  41.265   3.678
53070W        W19479  27.382   3.487   4.636
53071W        W19480  27.106   0.368   2.204
53072W        W19481  24.082   2.740  13.647
53073W        W19482  17.187  28.895   3.626
53074W        W19483  41.724  34.887  14.399
53075W        W19484  14.762  27.871  13.017
53076W        W19485  34.845   0.104  11.487
53077W        W19486  31.670   7.211  14.932
53078W        W19487   9.184  33.475   0.390
53079W        W19488  33.995  26.507   1.162
53080W        W19489  44.331  20.800  13.358
53081W        W19490  33.384  11.468   1.247
53082W        W19491  26.466   1.930  13.368
53083W        W19492   1.403  39.062  14.482
53084W        W19493  17.145   1.014   4.035
53085W        W19494  18.220  21.679   2.681
53086W        W19495   3.330  23.892  11.540
53087W        W19496  35.511  16.363   2.634
53088W        W19497  19.077   4.013   0.466
53089W        W19498  20.813   7.593   4.739
53090W        W19499   3.892  14.950  13.486
53091W        W19500  23.452  37.460   1.767
53092W        W19501  39.113  44.935   3.302
53093W        W19502  39.398   7.783   4.801
53094W        W19503  31.419  32.503  11.149
53095W        W19504  22.469  18.492   2.462
53096W        W19505  12.373   3.489   1.557
53097W        W19506  34.035  16.224  12.070
53098W        W19507  39.389  20.921  12.929
53099W        W19508  15.789  35.769   5.063
53100W        W19509  31.594   6.233   0.834
53101W        W19510  43.732   5.234   1.864
53102W        W19511  34.543  40.950   1.445
53103W        W19512  41.935  32.874  12.888
53104W        W19513  26.477   1.261   0.698
53105W        W19514  42.339  40.241   3.125
53106W        W19515  31.680  37.092   1.641
53107W        W19516  41.638  36.418  13.074
53108W        W19517  32.925  42.435  14.791
53109W        W19518  25.402   2.690   3.699
53110W        W19519   3.857   3.711   2.251
53111W        W19520  37.922  31.025  13.968
53112W        W19521   6.240  41.309   4.100
53113W        W19522   0.242  31.557  13.851
53114W        W19523   3.384   2.258  14.298
53115W        W19524  26.471  18.463   3.264
53116W        W19525  11.173  27.188   1.951
53117W        W19526   2.916  38.438   4.208
53118W        W19527  28.070   2.567   4.390
53119W        W19528  27.007  39.631  13.558
53120W        W19529  19.859  29.624  14.890
53121W        W19530   4.862  28.014   0.393
53122W        W19531  22.054  13.664   3.853
53123W        W19532  24.031  18.763   4.313
53124W        W19533   4.415  12.684   4.130
53125W        W19534  16.157  41.056   4.668
53126W        W19535  36.515  20.614  10.455
53127W        W19536  42.188   5.986   0.299
53128W        W19537   9.676  29.091   3.170
53129W        W19538   1.720  26.501   3.119
53130W        W19539  37.745  25.259   0.098
53131W        W19540  14.685   7.002  14.826
53132W        W19541  36.054  16.348  10.261
53133W        W19542  13.036   6.288   2.772
53134W        W19543  24.581   6.765   2.881
53135W        W19544   4.886   8.149   3.238
53136W        W19545  19.949   6.947   2.263
53137W        W19546   3.384  36.665  10.587
53138W        W19547  10.770  29.446  11.174
53139W        W19548  39.535  36.408   2.122
53140W        W19549   6.456   4.934  14.902
53141W        W19550  23.936   6.725   2.302
53142W        W19551  18.380  41.993   2.340
53143W        W19552   4.571  17.139  11.507
53144W        W19553   4.717  31.972   1.957
53145W        W19554  39.803  20.238   0.528
53146W        W19555   4.951   0.748   1.870
53147W        W19556   0.882  37.916  12.996
53148W        W19557  10.865   7.957  13.400
53149W        W19558  30.394  26.832  11.989
53150W        W19559  21.746  25.597   1.375
53151W        W19560  28.777   1.737  12.543
53152W        W19561  32.554   9.169  11.482
53153W        W19562  12.375   2.940  11.085
53154W        W19563  25.014  40.525   2.271
53155W        W19564  30.078   8.680  14.392
53156W        W19565  43.502  10.902   2.717
53157W        W19566   1.352  34.979  10.654
53158W        W19567   6.246  24.466  11.601
53159W        W19568  34.576  13.474  12.391
53160W        W19569  44.814  15.290   1.996
53161W        W19570  40.982   6.084   3.345
53162W        W19571  33.132  22.112   1.361
53163W        W19572  34.408   3.983   0.395
53164W        W19573  15.258  15.834   3.677
53165W        W19574  43.296  14.859   2.746
53166W        W19575  11.875   2.808   4.936
53167W        W19576  44.682  22.206  13.045
53168W        W19577  29.489   3.017   9.882
53169W        W19578   9.223  34.649  14.980
53170W        W19579  18.356  10.646  13.899
53171W        W19580   4.099   3.227  11.307
53172W        W19581  31.512   1.700  14.578
53173W        W19582  16.824   5.453   4.690
53174W        W19583   9.025  20.174  10.709
53175W        W19584   3.382   5.967   4.098
53176W        W19585  20.314   0.373  13.329
53177W        W19586   9.220   1.734  11.999
53178W        W19587   8.407   9.881   1.008
53179W        W19588   8.354  39.805  13.504
53180W        W19589  23.745  18.037  11.670
53181W        W19590  39.372   9.721  14.265
53182W        W19591  18.262  41.876   3.444
53183W        W19592  20.203   8.901  13.549
53184W        W19593  30.068  28.706  11.999
53185W        W19594  43.385  31.031  13.078
53186W        W19595   6.793  40.967   2.173
53187W        W19596  38.627  41.748  13.937
53188W        W19597  16.303   1.244   4.571
53189W        W19598  33.218  33.731  14.413
53190W        W19599  22.494  19.512   4.505
53191W        W19600  13.179   8.430   3.604
53192W        W19601  40.488  13.269   1.692
53193W        W19602  18.124  14.120   1.329
53194W        W19603  38.788  13.688  14.842
53195W        W19604  25.746  39.838   1.325
53196W        W19605  18.686  21.006  13.545
53197W        W19606  26.681  16.959  10.905
53198W        W19607  16.005  22.651  11.598
53199W        W19608  14.071   0.731  13.602
53200W        W19609  27.087  29.624   1.771
53201W        W19610  27.492   2.529  14.883
53202W        W19611  10.706  44.231  11.759
53203W        W19612   6.184  14.247   5.181
53204W        W19613  34.928  22.107   0.198
53205W        W19614  11.509  28.577  12.496
53206W        W19615  28.381  10.319  13.103
53207W        W19616  14.318  19.993  14.732
53208W        W19617  31.420  19.705   2.626
53209W        W19618  35.972  44.947  14.775
53210W        W19619  16.664  28.625  13.015
53211W        W19620  29.711  30.382   2.339
53212W        W19621  33.923  40.316  13.932
53213W        W19622  34.140   8.223   2.830
53214W        W19623   8.458  42.487  12.882
53215W        W19624  38.724  37.852   0.317
53216W        W19625  35.591   3.002   1.982
53217W        W19626  33.637  39.035   1.982
53218W        W19627  19.575  40.000  14.739
53219W        W19628  31.875  29.942   2.247
53220W        W19629  39.618  11.475  13.673
53221W        W19630  17.221   7.324  14.303
53222W        W19631  16.639   0.917   3.838
53223W        W19632   3.045  11.238   1.420
53224W        W19633  41.548   5.469   3.346
53225W        W19634   3.836  28.997   2.291
53226W        W19635  40.635   0.307  12.433
53227W        W19636  44.954  33.380   0.250
53228W        W19637  41.322  40.511  11.495
53229W        W19638   2.209  25.598   2.324
53230W        W19639  14.413   1.735   4.520
53231W        W19640   1.327  41.645  10.679
53232W        W19641   4.366  44.720   4.136
53233W        W19642  44.349  38.874  13.063
53234W        W19643  18.851  40.551  13.776
53235W        W19644   1.864   9.327   3.928
53236W        W19645  12.171  23.216   3.534
53237W        W19646  29.041  27.602  14.183
53238W        W19647   4.247  18.728  13.269
53239W        W19648  20.428   7.921   1.685
53240W        W19649  37.266  40.735  12.576
53241W        W19650  11.253  28.023  14.699
53242W        W19651  26.031  32.045   2.269
53243W        W19652  33.885   4.485   3.618
53244W        W19653  13.972  21.520  13.417
53245W        W19654  40.525  23.203   2.210
53246W        W19655  43.780  38.247  12.419
53247W        W19656  10.384  37.476   4.645
53248W        W19657  37.491   0.927   1.222
53249W        W19658  10.294  20.731   1.430
53250W        W19659  11.750   2.078  13.824
53251W        W19660  32.918   4.327   0.854
53252W        W19661  34.585  41.827  11.591
53253W        W19662   0.897  28.474   3.410
53254W        W19663   2.480  43.222   1.785
53255W        W19664   9.198   4.717   4.109
53256W        W19665   4.991   2.763   0.267
53257W        W19666  43.638   3.913   3.609
53258W        W19667   2.732  38.034   3.952
53259W        W19668  39.042  22.622  12.633
53260W        W19669  15.342  38.123  14.485
53261W        W19670  14.030  26.673   2.973
53262W        W19671  24.631  32.652  11.026
53263W        W19672  27.620  43.937  11.637
53264W        W19673   3.958  38.951  10.712
53265W        W19674  40.002   0.440   1.727
53266W        W19675  25.159   2.001   3.248
53267W        W19676  29.495  42.892   5.008
53268W        W19677  34.922   6.405  14.865
53269W        W19678   2.430  17.950  10.233
53270W        W19679   7.822  15.993   1.248
53271W        W19680   4.300  14.071   0.491
53272W        W19681  33.042  34.091   1.728
53273W        W19682  38.224  26.326   2.739
53274W        W19683  43.001  32.931   3.536
53275W        W19684  28.609  20.780  11.617
53276W        W19685   6.895  33.386  10.412
53277W        W19686   7.155  21.748   0.758
53278W        W19687   9.244   5.854   4.505
53279W        W19688  38.398  20.248   2.030
53280W        W19689   1.159   4.327   4.532
53281W        W19690  32.255  29.656  12.998
53282W        W19691  31.402  15.756   1.767
53283W        W19692  41.028  26.628   2.276
53284W        W19693  30.152  10.643  11.051
53285W        W19694  42.775  25.494   3.575
53286W        W19695   4.493  14.227  13.049
53287W        W19696  38.291   3.781   0.794
53288W        W19697   1.983   8.937  14.326
53289W        W19698  23.502  15.001  14.068
53290W        W19699  44.222   1.938  11.167
53291W        W19700  44.900  43.491   1.679
53292W        W19701  26.760   0.806   4.444
53293W        W19702  10.674  14.242  12.340
53294W        W19703  36.009  27.668  11.474
53295W        W19704  17.599   5.485  14.668
53296W        W19705  16.829  21.117  14.823
53297W        W19706  25.831  19.172  13.088
53298W        W19707  25.418  29.137   0.338
53299W        W19708  12.807  39.412  14.571
53300W        W19709  18.684  44.342  13.683
53301W        W19710   1.680  10.248   2.377
53302W        W19711  18.740   2.517  12.437
53303W        W19712  24.720   5.982   0.266
53304W        W19713  15.581  25.036   0.225
53305W        W19714   8.098  35.046   0.461
53306W        W19715  20.933  13.731  10.959
53307W        W19716  23.658  15.300   0.447
53308W        W19717  20.567  37.457  11.630
53309W        W19718  44.323  34.606  13.544
53310W        W19719  10.201  41.339   4.511
53311W        W19720  27.448  44.369  14.016
53312W        W19721  20.565  21.704   3.201
53313W        W19722  43.867   1.435   0.847
53314W        W19723  19.774  44.711   2.210
53315W        W19724  41.394  36.957   4.577
53316W        W19725  40.044  38.164   2.724
53317W        W19726  39.036  41.426  13.963
53318W        W19727  37.433   7.441  11.045
53319W        W19728  39.493  10.032   2.212
53320W        W19729  19.838  33.993  10.669
53321W        W19730  35.805  13.595   3.069
53322W        W19731  25.035   4.960  13.358
53323W        W19732  11.143   8.705   0.960
53324W        W19733   4.460  42.380  10.653
53325W        W19734  29.607  22.937  13.479
53326W        W19735  37.697   0.248   1.771
53327W        W19736  12.512  14.879  14.367
53328W        W19737  32.778   8.405   0.268
53329W        W19738   2.785  42.256   3.630
53330W        W19739   5.471  30.648  10.663
53331W        W19740   7.824  16.331   4.670
53332W        W19741  28.028  44.159  11.954
53333W        W19742  13.862  19.880   2.198
53334W        W19743  20.171  38.768   0.920
53335W        W19744  29.379   9.466   9.999
53336W        W19745  17.367   5.354   3.645
53337W        W19746  25.170  10.783  12.388
53338W        W19747   0.478  30.383   2.633
53339W        W19748  35.944  19.592  12.986
53340W        W19749  25.052   6.281  10.672
53341W        W19750  35.868  24.911   0.608
53342W        W19751  27.168  27.077  11.968
53343W        W19752  16.193   1.187   3.732
53344W        W19753  27.442  42.221   0.320
53345W        W19754  22.648  21.844  10.089
53346W        W19755   1.706   6.811  12.010
53347W        W19756  20.817  10.835   2.431
53348W        W19757  38.445  38.901  11.775
53349W        W19758  29.457  14.267  14.789
53350W        W19759  26.500  35.105  12.074
53351W        W19760  19.648   7.924   3.360
53352W        W19761  32.500   4.402  14.350
53353W        W19762  39.622  31.630  12.634
53354W        W19763  16.722   8.905   0.858
53355W        W19764  36.004  22.137  13.935
53356W        W19765   8.158   1.676  13.541
53357W        W19766   9.257   8.900  11.229
53358W        W19767  17.635  24.364   4.806
53359W        W19768   5.153  26.040  12.150
53360W        W19769  26.019  15.651  11.058
53361W        W19770   1.792   4.071  11.927
53362W        W19771   5.262  24.525  12.811
53363W        W19772  37.549  16.113   2.347
53364W        W19773  34.721   4.984  14.026
53365W        W19774  37.351  21.800  14.895
53366W        W19775  24.075  34.905   4.625
53367W        W19776  37.639  34.793   3.271
53368W        W19777  21.880   1.683  12.064
53369W        W19778  16.735  18.788  13.420
53370W        W19779  27.103   1.736  14.791
53371W        W19780  17.324  14.135  12.063
53372W        W19781  16.604  15.375  14.786
53373W        W19782  16.481   9.419   3.502
53374W        W19783  22.172  38.334   4.276
53375W        W19784  11.283  31.164   2.428
53376W        W19785  37.045   0.331   2.235
53377W        W19786  15.311  15.840  13.554
53378W        W19787  21.046  38.397   1.663
53379W        W19788   6.358  16.515   1.657
53380W        W19789  33.808   2.303   9.862
53381W        W19790  36.404  16.136  10.961
53382W        W19791   4.704  43.002   1.174
53383W        W19792   0.791  16.675  10.666
53384W        W19793  22.088  43.617  11.517
53385W        W19794  43.826   0.010  14.630
53386W        W19795  25.643  33.121   1.889
53387W        W19796  22.776  14.785  11.693
53388W        W19797  39.520  16.595   0.394
53389W        W19798  36.341  37.068  12.095
53390W        W19799  15.595  44.780   3.917
53391W        W19800  13.746  22.685  11.392
53392W        W19801  25.026   3.733   2.185
53393W        W19802  18.528   1.239  14.227
53394W        W19803  14.854  44.205   3.674
53395W        W19804  11.914  42.460  14.148
53396W        W19805  10.358   8.258  13.757
53397W        W19806   4.001  43.219  12.658
53398W        W19807  11.664   4.315  13.063
53399W        W19808  26.946   4.162   1.758
53400W        W19809  22.546   3.735  14.895
53401W        W19810   1.207  29.226  10.688
53402W        W19811   2.172  24.369   0.881
53403W        W19812   3.959  27.098   1.520
53404W        W19813  12.785  42.912  13.578
53405W        W19814  41.679  38.814   0.988
53406W        W19815  36.079  27.030   3.599
53407W        W19816   9.190   3.610  13.836
53408W        W19817  37.109   4.835   3.115
53409W        W19818  27.974  20.794   0.318
53410W        W19819  20.473  18.285  11.275
53411W        W19820  40.561  16.338   1.360
53412W        W19821   3.746  23.554  13.989
53413W        W19822  31.638  23.718  13.367
53414W        W19823  26.439  40.002   2.498
53415W        W19824  31.350  39.429  14.902
53416W        W19825  38.605  35.065  10.779
53417W        W19826  32.765  37.089   1.690
53418W        W19827   5.455  16.784   1.684
53419W        W19828  36.617  26.619   4.148
53420W        W19829  25.222  24.051   1.203
53421W        W19830  38.580  39.464  14.925
53422W        W19831  13.068  28.570   3.950
53423W        W19832   1.432  23.294   1.308
53424W        W19833  25.021   5.461  12.671
53425W        W19834   6.413   2.650   1.443
53426W        W19835  43.038  29.941   1.130
53427W        W19836  30.961  35.416   1.562
53428W        W19837  25.753  22.051   2.657
53429W        W19838  24.175  42.763   2.166
53430W        W19839  30.659  40.440   1.449
53431W        W19840  21.112  14.172   3.562
53432W        W19841   5.284  34.116   3.285
53433W        W19842  33.945  41.813  10.667
53434W        W19843   1.282   4.817  14.995
53435W        W19844   3.012  38.277   0.138
53436W        W19845  20.884  44.966  11.475
53437W        W19846   6.109  14.545  10.318
53438W        W19847  35.944   7.680   2.347
53439W        W19848  25.518   3.901  13.890
53440W        W19849  44.101  15.144   1.202
53441W        W19850  14.612  11.195  14.610
53442W        W19851  19.344  34.993   3.419
53443W        W19852  43.563   6.060   3.226
53444W        W19853  23.085  30.048  11.071
53445W        W19854   5.297  31.394  13.880
53446W        W19855   7.096   1.308  10.655
53447W        W19856  28.042  15.907  12.584
53448W        W19857   6.141  18.973  14.041
53449W        W19858  14.544  22.952  11.055
53450W        W19859   1.740  21.090  10.259
53451W        W19860   6.149   4.882  12.814
53452W        W19861  35.133  34.420  11.961
53453W        W19862  23.139  23.959   4.853
53454W        W19863  33.153  38.291   4.919
53455W        W19864  37.718  19.313   4.035
53456W        W19865  42.734  22.216  10.699
53457W        W19866  12.669  18.990   3.240
53458W        W19867   6.214  18.733   1.914
53459W        W19868  15.319   6.661   0.418
53460W        W19869   8.169  31.600   1.688
53461W        W19870  25.581  19.799  14.677
53462W        W19871  41.302  36.957   3.157
53463W        W19872   2.316  10.857   1.861
53464W        W19873  19.079  24.749   4.612
53465W        W19874   7.886  20.039   3.002
53466W        W19875  21.233   5.346   4.823
53467W        W19876  28.841  34.338   1.810
53468W        W19877  20.649  40.101   3.787
53469W        W19878   7.333   5.407   2.838
53470W        W19879  27.123  20.190   1.378
53471W        W19880  31.011  32.725  11.430
53472W        W19881  41.009  15.927   0.762
53473W        W19882  28.570   4.379  13.554
53474W        W19883  15.510  44.356   4.200
53475W        W19884  41.477  30.197  14.818
53476W        W19885  11.639   3.903  12.419
53477W        W19886  11.846  25.210   2.302
53478W        W19887  43.014  16.624   1.687
53479W        W19888  44.382  43.114  13.337
53480W        W19889  24.864  32.022  12.095
53481W        W19890  37.412  11.626   3.225
53482W        W19891  28.248  44.583   4.113
53483W        W19892  17.370  40.492   2.590
53484W        W19893  19.691  14.896  13.469
53485W        W19894  43.776  17.599  14.002
53486W        W19895  30.794  20.116   0.279
53487W        W19896   9.687   7.695   0.788
53488W        W19897  36.568  24.145   2.803
53489W        W19898  44.480  23.966  14.921
53490W        W19899  43.726  37.461  12.124
53491W        W19900  44.757  31.391  13.831
53492W        W19901  40.448  23.599   2.604
53493W        W19902   0.152  42.271  14.111
53494W        W19903  30.430   0.212  11.658
53495W        W19904   6.637   2.294  13.983
53496W        W19905  41.389  34.099   4.607
53497W        W19906  10.291  35.335  11.554
53498W        W19907  33.977  33.920   1.171
53499W        W19908  36.862  11.385   2.246
53500W        W19909  13.586  28.426  12.557
53501W        W19910  39.198  40.840  12.829
53502W        W19911  25.602  33.583   1.687
53503W        W19912  22.743  17.082  14.542
53504W        W19913   7.099   7.685   2.760
53505W        W19914  37.510  22.303   2.351
53506W        W19915  19.212  19.119   4.065
53507W        W19916  30.951  25.563   0.995
53508W        W19917   9.812   3.460   0.011
53509W        W19918   8.182  43.597  14.420
53510W        W19919   3.480  31.069   1.340
53511W        W19920  11.180   6.667  14.400
53512W        W19921  34.171  38.349   1.679
53513W        W19922  24.092  35.784  14.358
53514W        W19923   9.784  20.584   1.475
53515W        W19924  19.482  17.033   2.883
53516W        W19925  11.953  11.003  10.870
53517W        W19926  13.843  17.243  14.485
53518W        W19927  30.605  36.187   2.144
53519W        W19928  18.223  12.103  14.916
53520W        W19929  31.128  13.183   0.293
53521W        W19930  10.095  10.200  11.371
53522W        W19931  38.241  44.236   1.260
53523W        W19932  24.241  28.546   0.229
53524W        W19933  21.991   3.171  12.428
53525W        W19934   7.646  13.130   3.897
53526W        W19935  42.414   8.394   2.565
53527W        W19936  29.527  22.189  13.851
53528W        W19937  17.838  12.164  10.701
53529W        W19938  25.525  41.182   4.680
53530W        W19939   0.479  35.620   0.268
53531W        W19940  23.497  27.534   0.212
53532W        W19941  14.136  14.286  13.305
53533W        W19942  15.850  17.694   0.443
53534W        W19943  15.052  13.734   4.664
53535W        W19944   1.732  37.110  13.728
53536W        W19945   6.357  36.908  14.742
53537W        W19946  10.702  34.848  13.256
53538W        W19947  29.677  13.843  12.461
53539W        W19948   5.512  35.614   3.520
53540W        W19949  11.086  41.708   4.932
53541W        W19950  11.290  25.109   4.055
53542W        W19951   3.225  14.742   3.546
53543W        W19952  22.781  36.736   2.141
53544W        W19953  11.150  13.428  13.226
53545W        W19954  22.460  10.661   0.653
53546W        W19955   5.485  42.885   1.446
53547W        W19956   2.344  18.541   1.255
53548W        W19957  37.646   5.186   3.779
53549W        W19958   0.093  27.417  10.337
53550W        W19959  24.026  33.065   4.936
53551W        W19960  32.036  16.319  12.101
53552W        W19961  38.378  37.596   2.904
53553W        W19962  18.696  22.074   5.048
53554W        W19963  21.451  26.992   4.412
53555W        W19964  14.052  17.946  12.010
53556W        W19965   7.891  40.885   2.130
53557W        W19966   7.667  33.131  14.099
53558W        W19967  12.707   2.564  11.361
53559W        W19968  15.215   9.325  11.212
53560W        W19969  42.382  42.023  12.523
53561W        W19970  43.144  35.633  10.351
53562W        W19971   6.352  25.804  14.444
53563W        W19972  31.490  28.082   4.130
53564W        W19973   4.369  13.830   2.196
53565W        W19974  35.419  22.982   1.849
53566W        W19975  15.156  16.961   1.238
53567W        W19976  21.680  27.398  11.137
53568W        W19977   1.826  42.275   0.653
53569W        W19978  16.683  33.507   4.510
53570W        W19979  29.535   4.708  10.673
53571W        W19980  16.016  40.596   3.122
53572W        W19981  35.393   3.635   1.326
53573W        W19982  24.469  25.715   4.996
53574W        W19983  29.684  11.609  11.883
53575W        W19984  31.520  19.870  14.563
53576W        W19985   1.366  33.379   4.806
53577W        W19986  14.868  13.225   1.905
53578W        W19987  36.033  41.366  12.072
53579W        W19988   0.374  40.780   3.472
53580W        W19989  25.479  25.495   3.274
53581W        W19990  20.268  22.595  12.468
53582W        W19991  34.580  44.017   1.236
53583W        W19992   3.653  42.940  12.909
53584W        W19993   0.927  38.534   4.609
53585W        W19994  30.812  37.372  14.238
53586W        W19995  11.917  25.454   2.771
53587W        W19996  13.763  20.780  11.781
53588W        W19997   6.178  40.956   0.845
53589W        W19998  33.207  39.351  12.855
53590W        W19999  17.257   0.049  14.822
53591W        W20000   9.677   6.349   2.861
53592W        W20001   0.913  22.630   4.105
53593W        W20002   0.176  39.237  11.373
53594W        W20003  16.665  37.450  11.761
53595W        W20004   4.737  27.139  14.614
53596W        W20005  27.472  33.232  13.393
53597W        W20006  37.003   3.075   1.706
53598W        W20007   9.367  41.597   0.275
53599W        W20008   5.783  38.373   3.253
53600W        W20009  40.893  11.579  13.821
53601W        W20010  40.369   0.401  10.068
53602W        W20011  15.867   0.904  11.430
53603W        W20012  32.610   9.889   2.713
53604W        W20013   1.590  41.940   4.943
53605W        W20014   1.986   3.703  14.326
53606W        W20015  38.716  40.960  10.312
53607W        W20016  36.114  21.560   2.280
53608W        W20017  36.679  12.851  12.571
53609W        W20018  39.392   2.627   2.896
53610W        W20019  10.315   5.359  14.328
53611W        W20020  38.078  19.179  11.811
53612W        W20021  15.381  24.164  12.835
53613W        W20022  13.647   4.431  13.600
53614W        W20023  12.364   1.010  11.637
53615W        W20024  31.366  31.195  11.952
53616W        W20025  35.081  17.307  14.813
53617W        W20026  38.376   8.883  12.992
53618W        W20027   5.550  22.880   1.948
53619W        W20028  26.203   4.373  13.717
53620W        W20029  44.270  40.539  12.615
53621W        W20030  44.028  12.771  12.147
53622W        W20031  22.195   7.895  11.956
53623W        W20032  20.741   8.070   2.600
53624W        W20033  28.741   5.657  13.332
53625W        W20034   4.885  40.785   4.635
53626W        W20035  32.220  22.341   2.202
53627W        W20036  31.331  20.585  13.010
53628W        W20037   9.139   2.359  13.238
53629W        W20038   4.597   5.215  12.415
53630W        W20039  22.495  43.961  12.403
53631W        W20040  28.585  10.277   2.378
53632W        W20041  13.520  38.473  12.857
53633W        W20042  31.092  35.165   3.266
53634W        W20043  32.295  40.198   9.813
53635W        W20044   3.836  29.143   4.282
53636W        W20045  44.722  42.377  13.850
53637W        W20046  36.683  31.460   3.885
53638W        W20047  18.504  40.002  13.747
53639W        W20048  41.914   6.147  12.223
53640W        W20049  40.637   8.878   4.302
53641W        W20050  29.580  24.070   4.082
53642W        W20051  32.597   2.278   0.942
53643W        W20052  20.819  12.686   2.879
53644W        W20053  43.358  12.204  13.397
53645W        W20054  19.234  22.020  11.978
53646W        W20055   0.313  43.672  11.585
53647W        W20056  25.155  14.866  12.522
53648W        W20057  15.643  29.095   2.223
53649W        W20058   3.510  33.937   3.763
53650W        W20059  17.493  12.891   0.602
53651W        W20060  18.003   3.948   0.183
53652W        W20061   7.225  31.984   4.665
53653W        W20062  37.011   7.083  13.510
53654W        W20063  23.314  35.873   2.179
53655W        W20064  13.541   4.705  11.476
53656W        W20065  11.354  22.652  14.114
53657W        W20066  26.706  21.598  14.984
53658W        W20067  43.346  42.062  12.675
53659W        W20068  44.701  28.929  12.413
53660W        W20069  16.208  16.636  13.334
53661W        W20070  18.163  39.041   3.770
53662W        W20071   3.535  29.002   3.656
53663W        W20072   4.372  44.237  11.648
53664W        W20073   9.399  15.828   2.764
53665W        W20074  24.181  16.339   4.463
53666W        W20075   9.924  32.632   1.141
53667W        W20076  41.330   3.452  12.875
53668W        W20077  20.292  38.448   1.981
53669W        W20078  14.866  12.753   1.696
53670W        W20079  19.560   2.189  14.945
53671W        W20080  14.357   1.499   0.553
53672W        W20081  37.982  14.343   1.538
53673W        W20082  43.421  40.379  14.733
53674W        W20083  10.822  36.182   4.564
53675W        W20084  14.735  39.253   4.670
53676W        W20085  27.965  43.373   3.643
53677W        W20086  33.897  24.194  12.044
53678W        W20087   3.304   8.649  14.942
53679W        W20088  43.152  42.784   1.828
53680W        W20089   3.478  34.399   2.465
53681W        W20090  11.860  36.196   3.661
53682W        W20091  15.336  11.030   3.098
53683W        W20092   6.811  29.534  13.426
53684W        W20093   5.106  19.992  12.635
53685W        W20094  10.692  38.974   0.440
53686W        W20095   9.145  25.901   4.592
53687W        W20096  37.484  12.348   4.758
53688W        W20097  20.077  17.438  12.991
53689W        W20098  25.125  36.745  13.082
53690W        W20099  37.136  12.502   0.810
53691W        W20100  32.325   9.799   0.971
53692W        W20101  18.823  21.249   1.881
53693W        W20102  24.137  14.274   2.798
53694W        W20103  42.138  16.904   3.744
53695W        W20104  14.787  24.041  10.167
53696W        W20105  15.714  33.635   4.153
53697W        W20106  36.160   7.868   1.889
53698W        W20107  28.591  40.981   1.758
53699W        W20108  11.590  27.251   2.325
53700W        W20109  36.762  11.265  13.451
53701W        W20110  29.643  11.633  13.968
53702W        W20111  11.807  28.985   3.730
53703W        W20112   7.294  39.713   0.355
53704W        W20113  31.437  34.600  12.683
53705W        W20114   6.301  17.787   4.878
53706W        W20115  33.047  29.137  14.807
53707W        W20116  36.652  29.520   0.825
53708W        W20117   6.499  22.601   2.719
53709W        W20118  41.427  19.592  13.327
53710W        W20119  35.887  26.299  14.180
53711W        W20120  43.679  15.668  10.144
53712W        W20121   8.124  39.275   0.733
53713W        W20122  30.114  37.390   3.840
53714W        W20123  28.888   7.328  12.475
53715W        W20124  17.111  31.453   2.711
53716W        W20125  14.136  32.580   0.773
53717W        W20126  19.215  28.099  12.053
53718W        W20127   3.856   6.209  10.644
53719W        W20128  12.992  29.682  11.983
53720W        W20129  17.124   4.817   0.338
53721W        W20130  27.753   3.348  13.753
53722W        W20131   6.215  28.088  13.870
53723W        W20132  39.158   4.713   1.886
53724W        W20133   0.727   6.983  13.431
53725W        W20134  10.391   1.408  13.845
53726W        W20135  34.096  16.774  13.474
53727W        W20136  41.094  41.003  13.779
53728W        W20137  11.059  14.334   1.642
53729W        W20138   0.427  44.288   2.616
53730W        W20139  37.446  31.116  10.711
53731W        W20140  21.671  19.160   0.953
53732W        W20141  14.516  40.055  13.038
53733W        W20142  16.335  30.909   3.646
53734W        W20143   7.970  21.297  10.847
53735W        W20144  29.798  33.562  11.658
53736W        W20145  12.684  39.850  11.085
53737W        W20146  18.602  40.116  11.399
53738W        W20147  43.514   5.232  14.512
53739W        W20148  14.662  29.601   1.757
53740W        W20149   7.131  20.036  14.372
53741W        W20150  41.813  16.976   0.365
53742W        W20151  35.888  31.178   2.686
53743W        W20152  25.730  21.114   4.105
53744W        W20153  11.427  44.407   1.386
53745W        W20154  34.990  37.035   0.232
53746W        W20155  26.899  28.202   1.413
53747W        W20156  39.961  27.470   1.429
53748W        W20157  27.486  31.220   2.564
53749W        W20158  11.645  17.655   3.438
53750W        W20159  32.445  14.273   2.342
53751W        W20160  31.259   0.333   3.058
53752W        W20161  12.225  41.329   0.142
53753W        W20162   3.146  35.593  11.504
53754W        W20163  44.933   6.257   2.620
53755W        W20164  15.371  10.145   3.744
53756W        W20165  23.421  29.067  14.466
53757W        W20166  30.579  19.000  11.960
53758W        W20167  44.278  37.977   4.160
53759W        W20168   9.323   0.859   4.580
53760W        W20169  12.863   5.913   0.422
53761W        W20170   8.263  29.683   0.784
53762W        W20171   6.215  39.561   2.316
53763W        W20172  36.447   8.425  12.395
53764W        W20173  30.956  12.022  14.315
53765W        W20174   7.246   0.417  14.835
53766W        W20175   2.444  39.122   0.290
53767W        W20176  14.622  26.658  14.112
53768W        W20177  29.943  41.074  14.118
53769W        W20178  14.776  35.988  10.260
53770W        W20179  31.655  12.208  14.783
53771W        W20180   7.802  19.956   0.377
53772W        W20181  25.549  37.431   3.166
53773W        W20182  27.620  13.641   4.675
53774W        W20183   4.704  33.857   1.874
53775W        W20184  24.327  14.039  13.607
53776W        W20185  39.226  32.434  11.051
53777W        W20186  32.621  44.728  12.360
53778W        W20187  19.195  36.864   0.359
53779W        W20188  26.762  19.874  14.573
53780W        W20189  14.815  42.093  12.799
53781W        W20190  19.742  19.219   3.798
53782W        W20191  15.035  39.181  14.981
53783W        W20192  33.654  13.012   4.373
53784W        W20193  12.050  15.864  11.890
53785W        W20194  34.722  42.581   3.606
53786W        W20195  44.700   6.846  13.568
53787W        W20196  24.793   2.175   4.633
53788W        W20197  42.234   7.881   2.722
53789W        W20198  29.510  26.671  12.321
53790W        W20199  35.786  34.862   2.395
53791W        W20200  38.038  39.481  12.547
53792W        W20201  18.774  41.396   2.785
53793W        W20202  33.768  30.918  11.235
53794W        W20203  23.450  32.636  13.926
53795W        W20204  24.620  44.941   0.255
53796W        W20205  17.072  14.229   5.004
53797W        W20206  25.543   2.015   0.301
53798W        W20207  26.693   2.264  11.096
53799W        W20208  33.585  41.869   1.674
53800W        W20209  35.317  18.452   2.921
53801W        W20210   6.014  27.650  13.246
53802W        W20211   7.189  18.802   3.625
53803W        W20212  14.040  21.007  13.356
53804W        W20213  25.815  41.262   0.951
53805W        W20214  18.592  15.149   4.407
53806W        W20215  39.088   8.378   4.664
53807W        W20216  36.123  19.350  10.683
53808W        W20217  12.116  35.635  12.420
53809W        W20218  39.517  32.003  14.881
53810W        W20219  18.260   9.292   2.349
53811W        W20220  16.401  20.602   3.782
53812W        W20221   5.543   9.716   4.114
53813W        W20222  36.945  25.620  12.519
53814W        W20223  39.462  18.690   4.494
53815W        W20224   0.224  19.450  14.875
53816W        W20225   6.459   9.626  12.911
53817W        W20226  36.196  38.806   4.755
53818W        W20227  40.996  22.109  14.612
53819W        W20228   0.437  20.726  13.327
53820W        W20229  36.491   3.577   4.926
53821W        W20230   9.290  12.126  14.397
53822W        W20231  19.071  27.426  14.741
53823W        W20232  37.315  33.708   4.388
53824W        W20233   6.875   3.864  13.156
53825W        W20234  37.118  42.576  14.334
53826W        W20235  15.907   9.712  11.619
53827W        W20236  43.597  11.835  12.084
53828W        W20237  28.404  15.597  14.537
53829W        W20238  42.914  32.058   2.331
53830W        W20239  19.450   7.105   0.268
53831W        W20240   3.738   9.281   2.043
53832W        W20241  11.192  33.091   1.460
53833W        W20242  14.675  13.401   3.620
53834W        W20243  22.541   4.248   3.808
53835W        W20244  43.033  31.118  12.723
53836W        W20245  17.731  38.046  14.841
53837W        W20246  23.093  19.060  11.493
53838W        W20247  31.913   0.981   3.705
53839W        W20248  18.009  25.284  13.039
53840W        W20249  39.644   6.878   3.433
53841W        W20250   4.948  32.079  10.697
53842W        W20251  36.503   9.130  10.622
53843W        W20252  35.408  11.260   2.008
53844W        W20253   2.209  36.928   0.418
53845W        W20254   0.298  18.581   2.857
53846W        W20255   4.842  11.299   2.391
53847W        W20256  20.415  33.446   4.087
53848W        W20257  25.505  20.764  14.308
53849W        W20258   9.723   6.904   0.163
53850W        W20259  20.875  27.937  13.568
53851W        W20260  11.171  36.097  12.082
53852W        W20261  36.431   4.798  11.957
53853W        W20262  27.749   1.454   1.699
53854W        W20263  29.115  26.409   1.241
53855W        W20264  27.388  28.915   1.683
53856W        W20265  15.588  17.069   3.544
53857W        W20266  43.482  23.734  12.616
53858W        W20267   1.779  43.868   2.290
53859W        W20268  21.211  12.715   2.478
53860W        W20269  17.958  39.921  12.013
53861W        W20270   1.700  15.087  13.524
53862W        W20271  33.915  40.590   1.607
53863W        W20272  30.430  10.130   2.229
53864W        W20273  33.347  20.274  12.988
53865W        W20274  26.197  27.970   0.466
53866W        W20275  12.930  32.912   0.252
53867W        W20276   8.350  32.616  13.419
53868W        W20277  22.352  37.601  10.980
53869W        W20278  41.195  22.082   0.706
53870W        W20279   3.348  36.021   2.292
53871W        W20280  39.535   8.833   2.864
53872W        W20281  21.979  22.024  12.636
53873W        W20282   0.464   9.876   3.686
53874W        W20283  44.317  25.217  11.930
53875W        W20284  32.563   4.003  11.263
53876W        W20285   3.530  26.961   1.765
53877W        W20286   4.471  13.640  12.068
53878W        W20287  31.995  18.674   1.901
53879W        W20288  41.941  42.758  13.867
53880W        W20289  38.942  14.091   1.735
53881W        W20290   8.925  25.489  11.240
53882W        W20291  35.199  40.588  12.062
53883W        W20292  29.772  37.811  13.042
53884W        W20293  33.933  38.567   3.672
53885W        W20294  19.960  10.093   2.723
53886W        W20295  17.653  16.846   3.144
53887W        W20296  25.017  43.364  12.965
53888W        W20297  39.431  44.203   2.350
53889W        W20298  22.334  32.166  13.258
53890W        W20299   2.783  33.157   1.845
53891W        W20300  26.235  12.136  13.125
53892W        W20301  10.872  19.025   3.342
53893W        W20302   6.345  26.444   2.824
53894W        W20303  28.591  15.865   2.217
53895W        W20304   9.140  27.906   5.225
53896W        W20305   4.869   5.891   1.613
53897W        W20306  27.236   3.308  11.233
53898W        W20307  36.456  10.719   2.840
53899W        W20308  24.536  25.845  12.654
53900W        W20309   5.905  31.124  14.348
53901W        W20310   0.450   5.645   4.390
53902W        W20311  25.133  31.439  11.067
53903W        W20312  21.137  34.919  12.107
53904W        W20313   7.886  10.893   1.360
53905W        W20314   3.884  20.844  12.620
53906W        W20315  41.457  32.983   0.215
53907W        W20316  44.566  34.908  13.938
53908W        W20317  26.720   4.949   2.283
53909W        W20318  11.997  44.702  13.983
53910W        W20319  43.024  33.518   0.487
53911W        W20320  22.389  35.348  14.582
53912W        W20321  41.751  37.886   1.303
53913W        W20322  24.279  30.988   1.773
53914W        W20323  10.800  42.327   2.853
53915W        W20324  18.331   3.782   4.418
53916W        W20325  32.621  43.837  13.190
53917W        W20326  44.838  24.078  13.158
53918W        W20327  11.274  41.199   4.777
53919W        W20328  31.032  18.174   3.562
53920W        W20329  37.545  42.052  11.957
53921W        W20330   2.358  14.823  11.237
53922W        W20331  23.576  12.378  11.089
53923W        W20332  18.198   3.284   4.710
53924W        W20333  42.396  14.859   2.938
53925W        W20334  39.010  12.206  11.202
53926W        W20335  17.551   5.310  11.420
53927W        W20336   3.405  38.701   1.523
53928W        W20337  21.000  32.930  12.710
53929W        W20338   6.369  36.063   3.227
53930W        W20339   3.395  15.548   3.721
53931W        W20340  42.846  10.266   1.949
53932W        W20341   8.828  37.271   2.884
53933W        W20342  15.617  44.928   1.135
53934W        W20343  15.245  22.668  14.545
53935W        W20344  23.563  16.598   0.907
53936W        W20345  35.871  14.098   3.173
53937W        W20346  31.211  36.112  13.014
53938W        W20347  13.138  26.832   2.410
53939W        W20348  15.072   7.643   2.370
53940W        W20349  11.826   4.815   2.762
53941W        W20350   1.368  15.554   4.355
53942W        W20351  17.715  42.983   0.742
53943W        W20352   4.738   8.045  10.654
53944W        W20353   3.660  36.127   1.875
53945W        W20354  40.982  41.474  10.744
53946W        W20355  20.897  28.487   2.872
53947W        W20356   4.737  32.566   2.608
53948W        W20357  22.755  37.515  11.279
53949W        W20358  28.142  13.615   4.685
53950W        W20359  41.020  14.340   1.767
53951W        W20360   5.315   8.965  11.958
53952W        W20361  15.282  39.353   4.144
53953W        W20362  44.971  19.562  11.983
53954W        W20363  44.961   8.963   3.565
53955W        W20364  37.580   7.077   2.827
53956W        W20365  13.263  29.928   1.167
53957W        W20366  23.797  26.085  11.906
53958W        W20367  19.406  39.193   4.118
53959W        W20368  30.199  14.334   1.696
53960W        W20369  19.861  31.951  10.747
53961W        W20370  19.157  41.303   2.174
53962W        W20371  38.973  31.990  14.917
53963W        W20372  41.801   7.634   4.058
53964W        W20373  29.013   9.469   2.213
53965W        W20374  22.330  37.965  13.926
53966W        W20375  27.798   2.687   1.228
53967W        W20376   1.259  18.807   0.282
53968W        W20377   7.076  37.429  14.610
53969W        W20378  24.707   2.871  11.124
53970W        W20379  27.133  43.028  14.138
53971W        W20380   6.161  15.765   1.198
53972W        W20381  29.997   0.936  14.851
53973W        W20382  30.304  26.322  11.952
53974W        W20383  39.817  14.258   1.801
53975W        W20384   8.707  11.258   2.236
53976W        W20385  17.568  16.786  10.651
53977W        W20386  27.634  30.874   2.119
53978W        W20387  16.795  34.588  13.484
53979W        W20388  44.053   8.325   2.813
53980W        W20389  25.514  26.248   2.822
53981W        W20390  17.520  20.194  13.576
53982W        W20391  31.614  34.980   4.164
53983W        W20392  32.017  18.509   0.340
53984W        W20393  33.558  34.145   0.876
53985W        W20394  34.480  24.759  12.086
53986W        W20395  19.140  32.963  13.340
53987W        W20396  43.623   9.197  13.991
53988W        W20397  10.708  35.436   0.288
53989W        W20398  37.805  44.839   0.208
53990W        W20399  23.732  42.004   4.945
53991W        W20400  17.532   5.263   2.584
53992W        W20401  43.149  29.877   0.330
53993W        W20402  18.497  21.209  14.900
53994W        W20403  43.450  17.393   1.920
53995W        W20404  13.385  10.739  10.894
53996W        W20405  33.360   8.280   3.212
53997W        W20406  44.256  24.741   4.154
53998W        W20407   5.693  36.443  12.776
53999W        W20408  33.376  10.196  14.408
54000W        W20409  21.596  44.334  10.586
54001W        W20410   8.096   1.433  12.509
54002W        W20411  26.604  15.877   0.701
54003W        W20412  44.631   0.866   5.112
54004W        W20413  20.701  31.885   3.412
54005W        W20414  34.521  14.009  12.357
54006W        W20415  18.195  34.093  12.030
54007W        W20416  10.757  22.242   3.804
54008W        W20417  29.843  42.534  10.638
54009W        W20418  35.581  20.135  14.285
54010W        W20419  25.177   5.837  13.650
54011W        W20420  37.080  23.387  10.563
54012W        W20421  32.459  35.349  13.070
54013W        W20422  33.108   2.210   0.761
54014W        W20423  34.347  19.243   0.442
54015W        W20424   0.204  26.446   0.903
54016W        W20425   6.163  23.079   4.514
54017W        W20426  18.000  26.237  14.609
54018W        W20427  37.436  27.614   2.375
54019W        W20428  15.542  27.891   4.641
54020W        W20429   0.831  31.429   1.875
54021W        W20430  38.991  37.782   2.062
54022W        W20431  25.947  17.645   4.165
54023W        W20432  14.242  26.259   1.873
54024W        W20433  26.967  42.025   1.443
54025W        W20434   5.034  40.502   0.349
54026W        W20435  25.353  14.076  14.367
54027W        W20436  13.336  30.900   0.030
54028W        W20437  36.034  30.093  14.581
54029W        W20438   1.955  35.925  11.979
54030W        W20439  34.860  38.302   4.799
54031W        W20440  42.976  23.642  14.842
54032W        W20441  25.961  24.101   1.692
54033W        W20442  38.894  41.513  13.041
54034W        W20443   3.217  11.245   2.395
54035W        W20444  32.504  31.059  12.894
54036W        W20445  19.709   8.516  12.465
54037W        W20446  29.778   9.321   3.011
54038W        W20447  23.278   1.450   0.410
54039W        W20448   0.480  24.472   4.547
54040W        W20449   5.929  39.570  13.433
54041W        W20450  16.696  17.301  10.711
54042W        W20451  12.447  16.525   2.874
54043W        W20452   7.707  10.273   4.556
54044W        W20453   6.785   0.379   1.564
54045W        W20454   7.709  33.103   0.534
54046W        W20455  25.979  19.612   4.971
54047W        W20456   4.822  22.046  14.373
54048W        W20457  13.101   6.205  13.587
54049W        W20458  21.736  27.230   4.029
54050W        W20459  26.307  12.103   4.989
54051W        W20460  21.254  25.235  12.023
54052W        W20461  13.127  13.303  14.806
54053W        W20462  33.317  34.970  13.591
54054W        W20463  12.249   4.231   0.408
54055W        W20464  31.988  36.531  14.861
54056W        W20465  17.841  37.861  10.596
54057W        W20466   9.863   0.745   2.260
54058W        W20467  28.087  36.691  12.709
54059W        W20468  16.787  23.398   4.546
54060W        W20469  36.233  39.766  11.060
54061W        W20470  36.963  32.608   3.578
54062W        W20471  40.917  25.010   1.693
54063W        W20472  28.735  14.135   1.648
54064W        W20473  12.680  26.025  13.110
54065W        W20474  39.325  41.104   1.186
54066W        W20475   7.862  10.674   3.266
54067W        W20476   9.661  36.467  10.965
54068W        W20477   5.251  41.217   5.333
54069W        W20478   7.686  15.091  12.434
54070W        W20479  18.618   7.926  13.288
54071W        W20480   4.788   9.712  12.483
54072W        W20481  15.509  43.863   2.291
54073W        W20482  30.903  10.838   4.185
54074W        W20483  16.008  19.689   2.130
54075W        W20484   8.900  32.452   2.291
54076W        W20485  39.241  10.855   0.848
54077W        W20486  38.080  31.589   4.219
54078W        W20487  14.884  13.393  14.321
54079W        W20488  21.046  27.958  11.535
54080W        W20489  28.687  32.332  11.098
54081W        W20490  20.306  41.212  12.150
54082W        W20491  31.187  18.938   1.677
54083W        W20492  34.512  31.079   2.426
54084W        W20493  20.746  34.615  12.863
54085W        W20494  43.249  23.900   1.381
54086W        W20495  30.234  13.827  11.539
54087W        W20496  22.125  27.511  11.355
54088W        W20497  14.694   0.402  13.764
54089W        W20498  18.335  44.232   4.603
54090W        W20499  18.219  35.113  11.952
54091W        W20500  35.087   2.115   3.027
54092W        W20501  22.214  22.131   5.371
54093W        W20502  17.129  28.679  11.427
54094W        W20503  34.312  18.006  14.784
54095W        W20504  12.375   1.848   4.517
54096W        W20505  39.604  14.004  10.983
54097W        W20506   2.444  42.480  10.862
54098W        W20507   4.480  13.953  14.017
54099W        W20508   3.674   0.529  11.619
54100W        W20509  41.659  17.460   0.270
54101W        W20510  25.635  31.441  14.719
54102W        W20511  30.947   6.536  14.725
54103W        W20512  21.568  43.303  13.578
54104W        W20513   8.105   4.873  11.775
54105W        W20514  44.433   5.656  12.546
54106W        W20515  41.256  30.382  12.128
54107W        W20516  39.943  34.885   0.745
54108W        W20517   0.946  12.050  14.380
54109W        W20518   9.711  36.479   3.154
54110W        W20519  37.175  32.839   1.113
54111W        W20520  31.936  33.067  10.039
54112W        W20521  19.223  18.196   0.554
54113W        W20522  13.932  11.789  14.293
54114W        W20523   4.654  36.484  12.942
54115W        W20524  12.412   8.356   0.905
54116W        W20525   4.126  41.820  13.483
54117W        W20526  41.753  33.510  13.575
54118W        W20527  20.952  15.410  10.923
54119W        W20528  39.673   0.054   1.879
54120W        W20529  25.609  43.060  12.575
54121W        W20530  12.244  22.022  11.280
54122W        W20531  41.931  15.716   1.682
54123W        W20532  22.158  38.053  13.452
54124W        W20533  38.863  40.053   3.700
54125W        W20534  32.169  42.371  10.508
54126W        W20535  20.718   6.997  12.041
54127W        W20536   7.093  15.637  12.880
54128W        W20537  27.595  37.444  14.963
54129W        W20538  33.514  20.462   4.125
54130W        W20539  25.989  15.585   3.840
54131W        W20540   4.219  34.829  11.936
54132W        W20541  27.338  26.050   2.663
54133W        W20542  29.396  27.243   4.275
54134W        W20543  11.306  33.945  13.483
54135W        W20544  28.327   0.108  10.096
54136W        W20545  35.018  15.210   4.789
54137W        W20546  11.600  40.784  13.511
54138W        W20547  10.087  44.904   3.170
54139W        W20548  24.450   4.819   1.759
54140W        W20549  13.110  21.104   0.295
54141W        W20550  31.450  35.570   0.801
54142W        W20551  35.041  33.046  14.189
54143W        W20552  31.379   6.758  14.938
54144W        W20553  35.073   8.756  10.722
54145W        W20554  41.808   4.926   1.590
54146W        W20555   7.903   1.494   1.929
54147W        W20556  34.357   0.763  12.554
54148W        W20557  22.563  20.577   4.588
54149W        W20558  36.774  37.865  11.617
54150W        W20559  44.163  42.854  11.165
54151W        W20560   8.301  22.620   0.009
54152W        W20561  43.803  36.366  13.441
54153W        W20562  26.056  32.054   4.677
54154W        W20563   5.799  16.007   0.225
54155W        W20564  33.299   4.871   5.109
54156W        W20565   0.429  16.945   4.909
54157W        W20566  43.030   8.281   1.004
54158W        W20567  31.982  39.301   4.753
54159W        W20568  12.221  35.026  13.636
54160W        W20569  43.714  16.026   4.321
54161W        W20570  19.005  35.410   1.377
54162W        W20571  11.537  17.323  10.131
54163W        W20572   4.902  41.492   1.391
54164W        W20573  16.670   2.994  14.244
54165W        W20574   2.485  30.975   1.282
54166W        W20575  27.738   3.226   4.927
54167W        W20576  13.418  17.783  13.921
54168W        W20577  32.989  26.520  14.901
54169W        W20578  42.473   7.547  11.559
54170W        W20579  17.108  42.185   2.282
54171W        W20580  10.766  17.048   3.124
54172W        W20581  44.765   0.051   3.551
54173W        W20582   8.460   7.752  11.997
54174W        W20583   0.369  25.721  13.022
54175W        W20584   9.114  31.964   0.574
54176W        W20585  34.910   4.208   1.878
54177W        W20586  15.919  40.988   0.432
54178W        W20587  30.910  35.258  13.824
54179W        W20588   7.911  20.248  12.150
54180W        W20589  24.702  18.274   3.189
54181W        W20590  40.357   1.981   1.326
54182W        W20591  38.039  12.891   1.877
54183W        W20592  23.732  24.038   0.466
54184W        W20593  14.958  18.537  12.963
54185W        W20594   7.700  29.016   0.211
54186W        W20595   7.621  10.207   3.219
54187W        W20596   5.291  32.597  10.626
54188W        W20597  38.890   4.758   1.449
54189W        W20598   1.442   3.021   4.884
54190W        W20599  15.563  19.218   3.154
54191W        W20600   9.895  11.306   1.689
54192W        W20601  40.449   4.814   1.905
54193W        W20602  20.200  36.022   2.857
54194W        W20603  28.507  37.079   3.840
54195W        W20604   9.117  41.915  13.012
54196W        W20605   1.775  20.990   1.221
54197W        W20606  29.448  26.481   2.418
54198W        W20607  26.331   5.439   3.118
54199W        W20608  36.834  38.401  11.579
54200W        W20609  32.413  18.820   3.643
54201W        W20610  20.514  44.339  12.073
54202W        W20611  19.615  36.781   3.648
54203W        W20612   1.921   8.265   3.381
54204W        W20613   4.016   4.862   1.669
54205W        W20614  31.171  28.098   4.533
54206W        W20615  16.513  16.133   3.054
54207W        W20616  16.795  13.709   1.683
54208W        W20617   3.408  22.800  13.243
54209W        W20618  25.918  42.316  12.974
54210W        W20619  14.702  15.091   3.334
54211W        W20620  30.622  16.368   2.889
54212W        W20621   6.416  41.277   0.496
54213W        W20622  18.242  36.164   3.853
54214W        W20623  20.857   5.619   4.530
54215W        W20624  33.518  44.143  12.474
54216W        W20625  43.939   6.202   4.568
54217W        W20626  27.451  10.520   3.642
54218W        W20627  38.006  35.674   3.709
54219W        W20628  39.375   6.596   1.832
54220W        W20629  15.333  34.053   1.731
54221W        W20630  10.244   6.079   1.190
54222W        W20631  18.226  18.255  12.219
54223W        W20632  28.012   4.498  11.625
54224W        W20633   2.329  44.969   2.875
54225W        W20634  15.503   5.151   3.685
54226W        W20635  36.895  14.812   1.732
54227W        W20636  32.915   1.298  14.774
54228W        W20637  35.314  24.488  13.831
54229W        W20638  13.345  15.118   3.546
54230W        W20639  13.803   2.298  12.472
54231W        W20640  37.734  23.141  13.309
54232W        W20641  32.397   8.404   3.245
54233W        W20642  20.081   9.729  14.731
54234W        W20643  12.073  14.206   4.696
54235W        W20644  32.596  31.169  12.410
54236W        W20645  31.912   4.258  12.107
54237W        W20646   3.497  34.393   4.614
54238W        W20647  41.476  32.508  14.769
54239W        W20648  39.406   9.198  12.135
54240W        W20649   4.750  24.975   1.971
54241W        W20650  20.475  22.124  10.636
54242W        W20651  36.540   3.392   1.777
54243W        W20652  26.886  29.456   3.169
54244W        W20653   7.461  41.767  12.521
54245W        W20654  16.230  30.199   4.779
54246W        W20655  21.159  39.411  14.339
54247W        W20656   4.039  15.538  11.111
54248W        W20657  35.618   7.776   3.293
54249W        W20658  15.783  42.608   2.741
54250W        W20659   1.860   9.403  14.528
54251W        W20660  21.935  10.156   2.812
54252W        W20661  11.393   9.109  13.825
54253W        W20662  19.824  37.817   2.328
54254W        W20663   9.605  21.691   4.612
54255W        W20664  34.271  43.738  10.738
54256W        W20665   3.791   9.564   3.784
54257W        W20666  24.139  12.306  11.670
54258W        W20667  14.580  38.874  14.867
54259W        W20668  28.585  18.222   0.057
54260W        W20669  22.777  17.347   1.788
54261W        W20670   5.739  17.309   4.266
54262W        W20671  10.980  21.141  11.054
54263W        W20672  31.232  43.461   1.283
54264W        W20673  10.397  13.805   3.227
54265W        W20674   4.666  41.362  13.401
54266W        W20675   5.392  43.630   4.088
54267W        W20676  21.825  23.142   2.406
54268W        W20677   0.660  26.223  11.240
54269W        W20678   1.194   4.194   0.389
54270W        W20679   7.439  42.501  13.151
54271W        W20680  16.734  15.011  13.974
54272W        W20681  35.417  10.897  12.258
54273W        W20682  10.584  41.678   4.638
54274W        W20683  38.527   7.441   1.484
54275W        W20684  15.043  43.419   3.080
54276W        W20685  31.247  21.317   1.801
54277W        W20686  36.738  13.329   3.712
54278W        W20687   0.349  18.597   1.497
54279W        W20688  38.908  29.663   0.859
54280W        W20689  30.852  31.096  11.946
54281W        W20690  11.478   4.865  10.469
54282W        W20691  11.679  38.987   4.563
54283W        W20692  10.463  19.827  11.517
54284W        W20693  43.269  10.868   3.166
54285W        W20694  24.598  39.942  14.726
54286W        W20695  10.376  22.602  13.909
54287W        W20696  42.742  18.565  13.586
54288W        W20697  32.334  23.528   3.061
54289W        W20698  23.645   5.751   1.977
54290W        W20699  24.673  17.658  11.198
54291W        W20700  24.531  27.542  11.554
54292W        W20701  38.035   0.984  13.712
54293W        W20702  20.047  10.394   2.317
54294W        W20703  32.773   9.176   2.057
54295W        W20704  44.831  30.953   2.915
54296W        W20705  13.467  22.188   4.085
54297W        W20706  30.355   2.882   9.821
54298W        W20707  32.435  40.886   0.247
54299W        W20708   2.596  26.495  10.265
54300W        W20709  36.428   1.996   0.354
54301W        W20710  23.341  23.037  12.210
54302W        W20711  31.463  34.582   1.168
54303W        W20712  39.796  37.695   2.726
54304W        W20713  16.049  34.275   2.375
54305W        W20714  24.687   6.278   2.670
54306W        W20715  37.843   7.663   1.042
54307W        W20716  17.572   5.341  11.922
54308W        W20717   4.608  19.069  13.408
54309W        W20718  31.875   1.715   4.884
54310W        W20719   0.195  20.679   2.777
54311W        W20720  12.257   7.632   1.060
54312W        W20721   4.896  12.647  14.881
54313W        W20722   0.825   9.462  13.277
54314W        W20723  23.112  36.594   1.778
54315W        W20724  22.670  16.645  13.336
54316W        W20725  35.379  33.494   2.318
54317W        W20726  30.668  36.422   0.285
54318W        W20727  42.815  27.362   3.802
54319W        W20728  36.191  41.886  12.779
54320W        W20729  11.818  17.203  10.566
54321W        W20730  24.008   9.293   3.181
54322W        W20731  26.932  18.213   0.227
54323W        W20732   9.272  18.716  12.085
54324W        W20733  32.640  26.733   4.029
54325W        W20734  32.030  44.440   3.613
54326W        W20735  12.850  14.146  13.064
54327W        W20736  44.721   8.677   1.913
54328W        W20737  13.892  13.285   1.933
54329W        W20738  40.370  15.054   1.282
54330W        W20739  42.180  32.126  10.902
54331W        W20740  21.705  18.346   1.216
54332W        W20741   7.937  25.727  14.091
54333W        W20742  30.027  19.503   0.507
54334W        W20743  36.330  25.684   1.374
54335W        W20744  35.575   5.031   3.723
54336W        W20745  18.820  21.985   0.981
54337W        W20746  26.774   3.244  14.099
54338W        W20747  31.827  27.554  13.820
54339W        W20748  28.877  23.431  11.653
54340W        W20749  40.846  25.631  13.950
54341W        W20750  17.720  40.527  11.067
54342W        W20751  40.493  33.320  13.975
54343W        W20752  10.367  37.492  10.781
54344W        W20753   7.403  28.399   1.814
54345W        W20754   5.422  37.646  13.424
54346W        W20755  41.762  17.701   3.274
54347W        W20756   7.260  33.473   4.504
54348W        W20757   5.978  40.678   1.254
54349W        W20758  39.450  20.459  13.399
54350W        W20759  13.861  39.305  10.749
54351W        W20760  25.091  43.684   2.715
54352W        W20761  26.113  30.430   2.490
54353W        W20762  39.335  35.434   2.111
54354W        W20763  34.139  15.036  12.992
54355W        W20764   7.320  26.131  11.623
54356W        W20765  10.132  34.318   2.776
54357W        W20766   9.646   3.747   1.231
54358W        W20767  35.418  42.700   2.312
54359W        W20768  31.820  22.523   0.983
54360W        W20769   4.955  30.448   4.057
54361W        W20770  18.399  13.300   4.052
54362W        W20771  20.052  41.286   3.124
54363W        W20772  30.940  21.225   0.867
54364W        W20773  29.886   9.321  12.647
54365W        W20774  23.531  17.939   4.701
54366W        W20775  43.932  10.646   4.327
54367W        W20776   0.517  10.954   4.631
54368W        W20777  27.507  11.420  13.583
54369W        W20778  35.134  12.888  11.050
54370W        W20779  33.415  11.448  10.195
54371W        W20780  25.366   9.240   5.156
54372W        W20781   0.274  17.419  14.915
54373W        W20782  30.697  34.417   2.189
54374W        W20783  10.617  44.721  11.586
54375W        W20784   0.931  40.110   3.712
54376W        W20785  10.148  29.461   4.011
54377W        W20786  31.171  31.679   1.309
54378W        W20787  44.225  34.125   3.565
54379W        W20788  43.212  25.556  14.882
54380W        W20789  36.656  43.117   2.819
54381W        W20790  34.872   2.834  14.888
54382W        W20791   9.881  25.065   0.194
54383W        W20792  41.568  33.962   1.960
54384W        W20793   1.045  21.447  10.744
54385W        W20794   7.012  26.967  10.712
54386W        W20795  43.979  36.514  12.969
54387W        W20796  43.350  33.991  10.870
54388W        W20797  44.822  12.114  12.525
54389W        W20798  32.183  39.807  12.631
54390W        W20799  11.866  11.840  14.450
54391W        W20800   6.769  17.343   3.226
54392W        W20801  10.343  13.235  13.097
54393W        W20802   7.416  13.838   2.420
54394W        W20803  30.990  12.785  12.970
54395W        W20804  20.620  26.780  12.844
54396W        W20805  34.923  17.994   1.883
54397W        W20806   9.868  21.459   2.536
54398W        W20807  22.237  14.628  14.409
54399W        W20808  11.165  14.968   2.861
54400W        W20809  35.807  17.900  11.383
54401W        W20810   2.839  23.055  10.806
54402W        W20811  40.867  28.697  11.598
54403W        W20812  12.927  13.120  13.462
54404W        W20813  41.930  14.437  13.878
54405W        W20814  36.585  30.758   0.400
54406W        W20815  17.207  29.393   1.930
54407W        W20816  33.352  33.406   4.170
54408W        W20817  20.532  18.020   4.295
54409W        W20818  29.942   1.977   4.511
54410W        W20819  24.193   9.772   3.291
54411W        W20820  21.687   0.408  11.536
54412W        W20821   7.232   9.606   1.619
54413W        W20822  39.441  14.976  10.229
54414W        W20823   6.277   3.843   3.124
54415W        W20824  36.911   1.551   4.191
54416W        W20825  37.909  22.127  12.002
54417W        W20826  43.952  25.069   2.902
54418W        W20827  15.497   5.885   3.154
54419W        W20828  26.385  44.565   3.325
54420W        W20829  19.950  21.572  11.496
54421W        W20830   2.210   8.218   2.401
54422W        W20831  35.934  31.206  13.936
54423W        W20832  12.391   9.751  10.879
54424W        W20833  24.503  39.423   1.543
54425W        W20834  27.026  10.389  11.255
54426W        W20835   0.272  29.027   1.495
54427W        W20836  35.099   6.090   4.127
54428W        W20837  10.616  31.474   1.843
54429W        W20838   0.621  15.334  11.146
54430W        W20839   5.789   0.019  10.731
54431W        W20840  21.970  19.492   4.502
54432W        W20841  38.663  38.908  12.219
54433W        W20842   8.647  10.817  13.306
54434W        W20843  20.158   5.848  14.084
54435W        W20844   6.612  24.620   2.779
54436W        W20845  27.365  26.567   2.591
54437W        W20846  11.490  37.126   5.420
54438W        W20847  25.642  25.748  11.883
54439W        W20848  41.047  16.104  13.940
54440W        W20849  25.708  32.386  12.439
54441W        W20850  43.552  36.833  11.659
54442W        W20851   9.254  28.106   1.376
54443W        W20852  10.009  42.948   4.989
54444W        W20853  24.048  10.163   5.062
54445W        W20854  24.161  14.020   3.322
54446W        W20855  27.294   0.730   0.433
54447W        W20856  38.941  39.996  12.617
54448W        W20857  21.460  39.129   0.494
54449W        W20858   9.689  36.955   0.341
54450W        W20859  30.356  27.068   4.115
54451W        W20860  10.722  32.315  12.475
54452W        W20861   9.889  43.904   2.831
54453W        W20862  40.434  30.380  13.085
54454W        W20863  11.678   1.276  11.603
54455W        W20864  17.015   6.354   3.715
54456W        W20865   3.787  11.221  13.350
54457W        W20866  36.108  34.117   4.161
54458W        W20867  26.142  35.618   2.903
54459W        W20868  36.484   8.722   3.766
54460W        W20869   1.879   5.326  12.515
54461W        W20870  20.173  26.561  13.060
54462W        W20871   0.348  31.070  14.038
54463W        W20872  44.040  40.969   0.011
54464W        W20873   1.887   9.122   1.306
54465W        W20874  18.071  42.408  12.949
54466W        W20875  20.667  40.350  13.747
54467W        W20876  39.119   1.973  14.470
54468W        W20877  20.388  27.609   3.846
54469W        W20878  28.534  29.611  11.976
54470W        W20879  24.151  16.215  12.478
54471W        W20880  39.899   2.913  13.362
54472W        W20881  16.656  15.743   3.367
54473W        W20882  15.167  25.641   0.969
54474W        W20883  19.055  14.615   2.901
54475W        W20884  39.132  42.080  12.369
54476W        W20885  32.924  33.582  10.659
54477W        W20886  33.858  24.619  14.073
54478W        W20887  40.847  25.084  14.092
54479W        W20888  39.410  38.577   1.307
54480W        W20889  21.465  22.741   2.238
54481W        W20890  28.002  27.913  14.912
54482W        W20891  24.875   0.772  10.753
54483W        W20892   1.757  38.351  13.880
54484W        W20893  30.537  30.918   4.278
54485W        W20894  25.478  44.272  13.305
54486W        W20895  28.759  29.850  11.102
54487W        W20896  10.125  37.051  10.688
54488W        W20897  18.684  30.277   5.125
54489W        W20898  17.176  36.393  13.758
54490W        W20899  18.428  25.892  14.892
54491W        W20900   5.364  35.045  12.646
54492W        W20901  18.248  39.114   1.586
54493W        W20902  32.683  31.575   2.782
54494W        W20903  39.849  38.695   0.500
54495W        W20904  21.937  11.129  14.251
54496W        W20905  28.929  39.825   3.579
54497W        W20906  34.558  40.442  10.481
54498W        W20907  13.134   4.548   0.218
54499W        W20908   6.838  27.467   3.349
54500W        W20909   0.273  44.604  10.175
54501W        W20910  14.084  28.170  13.943
54502W        W20911  19.135  37.960   4.606
54503W        W20912   7.721  29.155   2.164
54504W        W20913  32.124  23.621  14.848
54505W        W20914  31.611   1.046  10.711
54506W        W20915  13.847  44.344   1.220
54507W        W20916  10.297  25.233   4.934
54508W        W20917   3.175  30.443   2.735
54509W        W20918  11.272  20.096   3.648
54510W        W20919  36.876  33.156  13.452
54511W        W20920  38.350  35.183  14.548
54512W        W20921  39.955   2.444   2.207
54513W        W20922  21.833  28.929   3.604
54514W        W20923  44.964  35.628  12.885
54515W        W20924  12.214  22.931  10.358
54516W        W20925   4.709  33.229   0.428
54517W        W20926  38.919   3.517  11.593
54518W        W20927  23.884  26.680  11.078
54519W        W20928  35.432  11.102  10.463
54520W        W20929   9.577  21.411  14.905
54521W        W20930  16.392   5.769  12.516
54522W        W20931   0.200  13.117   2.654
54523W        W20932   1.509  13.785  13.604
54524W        W20933  20.051  29.844  12.179
54525W        W20934  12.292  30.251  11.516
54526W        W20935   9.130  14.629  13.532
54527W        W20936   2.800  44.341  13.987
54528W        W20937  39.896   8.840   5.045
54529W        W20938   4.235   1.431  10.485
54530W        W20939   1.915  18.244   1.320
54531W        W20940   5.017  24.453   2.601
54532W        W20941  32.664   3.574  12.127
54533W        W20942   7.682  16.561   2.406
54534W        W20943  25.228  16.100   0.433
54535W        W20944   3.691  12.284  11.124
54536W        W20945  11.631  25.042   4.621
54537W        W20946  13.751  16.719  11.212
54538W        W20947  26.238   8.610   1.705
54539W        W20948  25.653  18.179   0.960
54540W        W20949  10.861  22.618   3.192
54541W        W20950  15.585  19.617  13.002
54542W        W20951   6.430   1.813   3.682
54543W        W20952  41.754   1.735  10.705
54544W        W20953  30.950   7.378   2.129
54545W        W20954  23.005  25.652   1.052
54546W        W20955  32.875  42.862  10.627
54547W        W20956   4.793  40.498  13.551
54548W        W20957  39.403  12.157  11.579
54549W        W20958  30.348  28.312  14.363
54550W        W20959  15.032   9.151   0.433
54551W        W20960  43.550  24.469  10.772
54552W        W20961  21.416  32.475  14.840
54553W        W20962  17.561  16.727   0.837
54554W        W20963  42.510  13.824   3.391
54555W        W20964  33.589  23.768   0.992
54556W        W20965  41.265  19.245  14.556
54557W        W20966  14.018  32.727   2.393
54558W        W20967  32.490  26.142   0.718
54559W        W20968  35.050  24.555  14.868
54560W        W20969  43.009  39.030  12.062
54561W        W20970  35.330  42.070  11.177
54562W        W20971  19.326  39.585  14.259
54563W        W20972  22.494  28.128  10.622
54564W        W20973  23.110  32.771   4.619
54565W        W20974   4.947  32.825   0.697
54566W        W20975  35.680  27.162   3.283
54567W        W20976  29.874   4.218  11.762
54568W        W20977  20.771  26.524   1.860
54569W        W20978   4.678  42.362  14.477
54570W        W20979  10.893  36.814   2.340
54571W        W20980  40.860  38.932   4.584
54572W        W20981  15.155  41.963   1.642
54573W        W20982  14.758  41.757   1.892
54574W        W20983  42.731  43.442   4.149
54575W        W20984  16.814  14.098  12.054
54576W        W20985  21.536  20.090  11.107
54577W        W20986  17.508  17.158  13.469
54578W        W20987  14.126  44.188   2.602
54579W        W20988  26.903   2.340   2.106
54580W        W20989  39.007  31.190   3.607
54581W        W20990  31.860  14.186   3.959
54582W        W20991  43.862  28.377  12.925
54583W        W20992  19.475  31.943  12.457
54584W        W20993  18.367  19.773  13.625
54585W        W20994  38.044  43.731  14.276
54586W        W20995  41.318  12.829   2.419
54587W        W20996  40.741  35.118   2.209
54588W        W20997   8.223  11.710   1.236
54589W        W20998  11.848  38.389   4.520
54590W        W20999   5.975  35.333  14.442
54591W        W21000  35.323  14.626   4.178
54592W        W21001   1.758  10.668  13.413
54593W        W21002  34.488  14.204   2.729
54594W        W21003   1.635  32.585  13.523
54595W        W21004  31.277   0.885   0.842
54596W        W21005   9.962   7.387   3.763
54597W        W21006  13.785  27.116   3.140
54598W        W21007  41.245  32.957  14.294
54599W        W21008  36.091  33.895   2.320
54600W        W21009  39.240  29.872   1.238
54601W        W21010  29.482  43.814  13.927
54602W        W21011  44.247  11.263  12.658
54603W        W21012  39.236   7.668   0.263
54604W        W21013  22.112  36.168  14.788
54605W        W21014  10.786  33.954   3.684
54606W        W21015  11.416  33.629  13.993
54607W        W21016  25.645  23.523   3.654
54608W        W21017   8.466  34.004  11.259
54609W        W21018  13.337  14.244   0.792
54610W        W21019  11.255  40.472   2.252
54611W        W21020   6.241   0.334   4.490
54612W        W21021  20.570  44.306  13.902
54613W        W21022  16.115  43.833  13.379
54614W        W21023   4.613  31.768  14.294
54615W        W21024  30.561  10.108   0.951
54616W        W21025  12.187  10.784   0.229
54617W        W21026  15.158  40.091   5.130
54618W        W21027  35.125  13.831   3.684
54619W        W21028  17.814   4.817   3.617
54620W        W21029   0.193  28.967   2.795
54621W        W21030   7.734   1.845  11.255
54622W        W21031  24.732  27.125   3.792
54623W        W21032  10.386  39.614  10.844
54624W        W21033   5.605  41.611  11.374
54625W        W21034  30.092   2.755   0.280
54626W        W21035   6.381   1.403   1.801
54627W        W21036  20.162  38.562  12.690
54628W        W21037  25.128  23.779   1.720
54629W        W21038  33.014  15.880   2.529
54630W        W21039  11.532  17.292  12.836
54631W        W21040  41.824  31.870   2.270
54632W        W21041   7.699  43.340  11.542
54633W        W21042  25.641  13.339   3.832
54634W        W21043  15.481  23.084  11.155
54635W        W21044  13.104  12.657  13.277
54636W        W21045   1.300  17.704   2.004
54637W        W21046   7.204  41.459   2.635
54638W        W21047  17.170  30.396  12.780
54639W        W21048  27.637  37.835  12.701
54640W        W21049  24.134  35.423   4.515
54641W        W21050  44.993  10.640  12.154
54642W        W21051  25.044  10.472   4.064
54643W        W21052  36.358   4.086  11.124
54644W        W21053  10.612  38.746   1.342
54645W        W21054  35.931  44.595   0.186
54646W        W21055  11.184   0.911  12.045
54647W        W21056   9.197  24.586  10.955
54648W        W21057  27.924  17.092   2.404
54649W        W21058  15.701  25.681   0.899
54650W        W21059  43.501  26.589   4.371
54651W        W21060  34.587  18.498  11.126
54652W        W21061   3.030  12.726  11.524
54653W        W21062  23.821  19.581  14.265
54654W        W21063  14.721  35.664  12.601
54655W        W21064  18.293   4.868  12.997
54656W        W21065  40.530  19.265  12.011
54657W        W21066  11.667   6.250   3.171
54658W        W21067  44.808  23.937   3.292
54659W        W21068   7.615  40.258  13.904
54660W        W21069  44.735  12.223  10.663
54661W        W21070  35.598   5.555  11.005
54662W        W21071  41.297  26.975   3.187
54663W        W21072  36.445  25.988  11.027
54664W        W21073  37.627  23.928  10.475
54665W        W21074  23.233  38.432   3.585
54666W        W21075  32.900  35.898  14.280
54667W        W21076   9.847   8.937   1.340
54668W        W21077  41.934  25.645  11.907
54669W        W21078  12.136  12.279   1.187
54670W        W21079   8.796  15.775  11.961
54671W        W21080  42.002  40.128   2.663
54672W        W21081  10.299  42.901   4.549
54673W        W21082  23.096  36.100  13.916
54674W        W21083  41.944  31.123   3.690
54675W        W21084  33.682   3.756  11.621
54676W        W21085   8.641  10.130  12.228
54677W        W21086  15.693   2.343  12.026
54678W        W21087  16.943  43.342  11.312
54679W        W21088  24.222  16.598   2.574
54680W        W21089   0.083  22.257   0.333
54681W        W21090  10.118   4.439   1.753
54682W        W21091  27.504   2.511  13.825
54683W        W21092  33.483  29.652  11.249
54684W        W21093  16.735   6.635  12.666
54685W        W21094  27.219  26.582   1.690
54686W        W21095  14.334  33.617   1.521
54687W        W21096  42.943  44.678   1.410
54688W        W21097   9.696  10.308   4.515
54689W        W21098  16.155   8.453  13.214
54690W        W21099   7.177  12.864   3.979
54691W        W21100   6.591   5.622   3.306
54692W        W21101  31.980  35.927  10.901
54693W        W21102  23.001   4.717  11.181
54694W        W21103   4.922  44.277  12.101
54695W        W21104   7.154  20.764   2.748
54696W        W21105  33.672  36.830  14.565
54697W        W21106  15.289   9.913  10.672
54698W        W21107  29.989  37.175  12.004
54699W        W21108  19.082  29.393   1.731
54700W        W21109   6.140  14.348  13.413
54701W        W21110  25.460   2.400  12.675
54702W        W21111  11.841  39.654   2.812
54703W        W21112  18.787  35.639   0.041
54704W        W21113  33.248   1.163   3.124
54705W        W21114  36.032  21.693   4.038
54706W        W21115  32.259  13.831   4.763
54707W        W21116  32.887  37.575  10.775
54708W        W21117   8.868  23.192  12.994
54709W        W21118  33.556  33.543   1.662
54710W        W21119   1.939  24.218  12.639
54711W        W21120   6.804  26.030  10.725
54712W        W21121   2.437   8.661  13.442
54713W        W21122  19.794  21.664  14.771
54714W        W21123  28.942  37.025  12.020
54715W        W21124   9.069  18.108  12.625
54716W        W21125  31.893  21.718  11.269
54717W        W21126  21.209  44.824   2.101
54718W        W21127  22.049  26.952   0.497
54719W        W21128  29.721  34.932  14.788
54720W        W21129  12.746   2.732   4.933
54721W        W21130   4.394  41.954  13.956
54722W        W21131  21.938  16.492  14.405
54723W        W21132  28.739  23.795   0.954
54724W        W21133  22.251  25.514   2.769
54725W        W21134  20.685  10.156   4.545
54726W        W21135   9.956   1.649  14.686
54727W        W21136  25.729  11.974   0.271
54728W        W21137   4.794  42.270  13.864
54729W        W21138   6.585  37.248   2.379
54730W        W21139  36.055   3.293  13.903
54731W        W21140  21.698  16.360  13.527
54732W        W21141   8.949  30.565   3.677
54733W        W21142  12.719  40.757   0.738
54734W        W21143   2.744  40.111  14.403
54735W        W21144   8.740  38.960  12.913
54736W        W21145   2.408  42.963   0.933
54737W        W21146  23.460   6.928   0.939
54738W        W21147  33.439   4.050   2.658
54739W        W21148  34.687  17.194   0.777
54740W        W21149  38.618  26.715  11.578
54741W        W21150  28.128   0.295   4.839
54742W        W21151   3.748   8.908  14.848
54743W        W21152  36.571  37.840  10.821
54744W        W21153  42.553  33.452   4.220
54745W        W21154   2.884  25.289  11.623
54746W        W21155  26.993  38.892   9.812
54747W        W21156   1.870  31.792   4.083
54748W        W21157   5.350   1.149   3.676
54749W        W21158  36.573  12.344  13.337
54750W        W21159   3.922  17.717  12.564
54751W        W21160   9.336  36.558   2.385
54752W        W21161   7.427  24.202   3.263
54753W        W21162  24.170   3.362   3.902
54754W        W21163  32.022  29.649  12.152
54755W        W21164   1.453  25.699   3.410
54756W        W21165   3.138  27.236  13.040
54757W        W21166  35.984  17.762   1.882
54758W        W21167  37.021  42.086   3.468
54759W        W21168  11.350   2.745   0.810
54760W        W21169  11.338  39.931   3.656
54761W        W21170  33.438  41.876   0.341
54762W        W21171  38.678  39.278   0.405
54763W        W21172  28.241   0.080   4.106
54764W        W21173  13.604  31.556   4.307
54765W        W21174  28.932  24.403  12.487
54766W        W21175  43.086  41.960  13.973
54767W        W21176  41.379  25.203  12.119
54768W        W21177  40.967   3.380   2.870
54769W        W21178  29.426  38.816  14.854
54770W        W21179  25.229  30.123   4.075
54771W        W21180   8.708  29.042   4.254
54772W        W21181  21.609  22.690   3.977
54773W        W21182  30.116  23.930   2.148
54774W        W21183  14.158  11.620   0.377
54775W        W21184   8.223  12.734  12.324
54776W        W21185  33.508   6.299   0.672
54777W        W21186  30.320  41.456  10.371
54778W        W21187  24.942  26.566  14.852
54779W        W21188  43.854  27.815   4.311
54780W        W21189   4.673   4.286   0.937
54781W        W21190  11.925  26.477   4.586
54782W        W21191  27.724   5.721  10.606
54783W        W21192  41.334  25.927  12.648
54784W        W21193  23.796   7.478   3.336
54785W        W21194   3.960  37.381   0.385
54786W        W21195  13.276  22.158   9.912
54787W        W21196  40.044  27.715  10.678
54788W        W21197   9.056  31.140  13.470
54789W        W21198  15.752  23.046  10.667
54790W        W21199  19.945  27.975   0.746
54791W        W21200  39.555  44.765  13.052
54792W        W21201  19.065  17.735   4.831
54793W        W21202   9.331  22.416   3.195
54794W        W21203  19.080  23.649   2.681
54795W        W21204  33.435  40.257  13.781
54796W        W21205  32.166  35.978   4.846
54797W        W21206  20.722  28.426   0.179
54798W        W21207   2.806   3.943  13.333
54799W        W21208   5.964  31.010  12.362
54800W        W21209  16.839  10.291   3.372
54801W        W21210   8.843  10.026   0.781
54802W        W21211  21.549  26.645  13.944
54803W        W21212   2.368  41.109   4.097
54804W        W21213  44.069  43.207  11.585
54805W        W21214  29.940  32.890   4.639
54806W        W21215   1.842  20.341   1.674
54807W        W21216  39.810  19.033   3.163
54808W        W21217  23.546  30.132   3.105
54809W        W21218   2.857  25.995   4.131
54810W        W21219  11.512   3.977  13.935
54811W        W21220  42.067  44.396  12.423
54812W        W21221  35.062   3.424   2.834
54813W        W21222  20.092  33.678  10.325
54814W        W21223  21.191  42.344  13.830
54815W        W21224  15.783  14.198  11.187
54816W        W21225  33.130  34.439   0.738
54817W        W21226  36.895  20.769  14.346
54818W        W21227  28.459  23.486  13.941
54819W        W21228  19.765  17.663   3.689
54820W        W21229  12.845  19.732   2.224
54821W        W21230  43.184   3.962  11.164
54822W        W21231   3.289  30.720   4.059
54823W        W21232  13.064  23.974   0.280
54824W        W21233  26.888  42.104  13.970
54825W        W21234   1.828  34.953   3.151
54826W        W21235  22.054   7.450  11.666
54827W        W21236  16.112  31.546  11.252
54828W        W21237   8.218  17.786  11.595
54829W        W21238  11.800  22.242  12.960
54830W        W21239  23.195   9.744   3.094
54831W        W21240  44.254  28.386  11.791
54832W        W21241  21.549  36.335   1.785
54833W        W21242  24.269  21.506  12.628
54834W        W21243  15.107  38.906   3.227
54835W        W21244  42.869   1.745  12.504
54836W        W21245  28.550   2.960   1.281
54837W        W21246   5.757  28.420   2.226
54838W        W21247  43.215  26.315   1.175
54839W        W21248   1.340  17.688   0.268
54840W        W21249  11.260  14.245   2.141
54841W        W21250   4.843  36.137   4.197
54842W        W21251  10.347  12.272   3.271
54843W        W21252  28.455  11.264   0.277
54844W        W21253  30.355  27.884   2.867
54845W        W21254  30.309  16.236   1.508
54846W        W21255  24.595  17.128   5.020
54847W        W21256   8.420  21.988   4.140
54848W        W21257  32.104   6.219   2.590
54849W        W21258  23.980  32.681  13.901
54850W        W21259  25.237  37.724   0.396
54851W        W21260  21.710   5.084   4.786
54852W        W21261  14.078   5.233  14.040
54853W        W21262  41.886  11.911  10.984
54854W        W21263   5.875  21.714  10.941
54855W        W21264   9.868  33.848  11.731
54856W        W21265  24.448  22.562   1.896
54857W        W21266  20.367   4.906   4.491
54858W        W21267  12.860  44.821   1.329
54859W        W21268  17.139  33.235   2.158
54860W        W21269  23.472  26.896   1.700
54861W        W21270  42.825   8.943   4.074
54862W        W21271   8.170  17.338  12.884
54863W        W21272   8.158  40.916  13.847
54864W        W21273   0.111  23.022   3.234
54865W        W21274  30.107  24.486   1.488
54866W        W21275  34.542   7.794  14.365
54867W        W21276  44.298  10.972   3.123
54868W        W21277  36.155   9.600   0.462
54869W        W21278  33.618  31.484   4.137
54870W        W21279   2.517   3.935  10.772
54871W        W21280  22.629  29.476  14.859
54872W        W21281   1.923   3.854   3.907
54873W        W21282  32.814  16.061  14.104
54874W        W21283  18.654  30.735   2.958
54875W        W21284  25.109  21.719   2.646
54876W        W21285   8.489  20.316   0.350
54877W        W21286  10.597   7.067   2.367
54878W        W21287  43.874  34.463   4.796
54879W        W21288   8.612  26.537  13.992
54880W        W21289  31.499  12.262   4.184
54881W        W21290   3.011  38.181   0.945
54882W        W21291   1.397  35.363   0.785
54883W        W21292  18.305  23.249   2.410
54884W        W21293  34.361  14.034  11.458
54885W        W21294  40.806  27.396  12.094
54886W        W21295  27.703  27.503   1.785
54887W        W21296  41.983  26.396  11.451
54888W        W21297  27.177  40.430  11.042
54889W        W21298  28.922  14.824  11.710
54890W        W21299  25.110  13.282   2.709
54891W        W21300  32.215  12.299  14.006
54892W        W21301  26.957  44.459   3.767
54893W        W21302  27.748  14.811   4.052
54894W        W21303  37.397  28.131   3.014
54895W        W21304  22.173   8.357  12.220
54896W        W21305  35.625  34.078   1.844
54897W        W21306  30.886   8.431   2.772
54898W        W21307  27.547  15.031  10.743
54899W        W21308  30.550  28.684   3.483
54900W        W21309  41.595  27.876  14.270
54901W        W21310  22.056  18.667  10.787
54902W        W21311  10.425  18.900  13.719
54903W        W21312   1.734  24.672  14.456
54904W        W21313  28.389  15.211   1.414
54905W        W21314   3.243  32.941  13.870
54906W        W21315  27.060  25.308   0.834
54907W        W21316  13.287  18.474   0.281
54908W        W21317  34.385  18.546   0.925
54909W        W21318  38.671   1.412  12.933
54910W        W21319  30.092  23.602  14.376
54911W        W21320  12.409  32.700  11.199
54912W        W21321  42.531   8.371  13.254
54913W        W21322   4.395   8.375  10.475
54914W        W21323  44.869   3.215  12.961
54915W        W21324  40.341  14.724  10.926
54916W        W21325  19.129  19.070   2.323
54917W        W21326  36.975  34.582  11.718
54918W        W21327  33.187   8.287   1.085
54919W        W21328   0.613  14.884   4.374
54920W        W21329   2.126  42.855  12.116
54921W        W21330  20.606  15.262   3.428
54922W        W21331  27.607   7.371  12.291
54923W        W21332  31.012  23.112  14.780
54924W        W21333  29.720  10.323  11.188
54925W        W21334  38.870  17.666  12.089
54926W        W21335  31.609  21.491   4.263
54927W        W21336  44.443   3.579   2.751
54928W        W21337  35.811  41.398   4.781
54929W        W21338  25.211  22.294   3.193
54930W        W21339  23.698   9.930  11.207
54931W        W21340  15.108  11.532  13.878
54932W        W21341   2.893  42.305  13.021
54933W        W21342  15.305  41.829  11.996
54934W        W21343   0.003  13.200   2.195
54935W        W21344  42.739  40.311   1.779
54936W        W21345  43.212   9.847  11.733
54937W        W21346   2.183  37.921   4.578
54938W        W21347  32.321  34.387  12.941
54939W        W21348  39.382  23.654  11.048
54940W        W21349   7.222  11.317   2.199
54941W        W21350  40.029   0.935  11.621
54942W        W21351  14.062  30.102   0.826
54943W        W21352   0.176  38.060   3.255
54944W        W21353  13.631   0.557   4.186
54945W        W21354  38.109  34.921  10.695
54946W        W21355  15.851   8.665  12.737
54947W        W21356  18.591  41.713  14.905
54948W        W21357  18.410   7.865   3.241
54949W        W21358   7.997   2.162   4.801
54950W        W21359  12.491  13.264   4.607
54951W        W21360  42.387  17.091  14.621
54952W        W21361  10.215  22.053   1.252
54953W        W21362  19.535   3.134   1.341
54954W        W21363   8.945  38.367   0.422
54955W        W21364  37.389  21.223  12.133
54956W        W21365   9.532  11.770  14.682
54957W        W21366  32.502   9.332   0.644
54958W        W21367  30.676  22.363   1.318
54959W        W21368  36.431   9.003  11.518
54960W        W21369  12.114   4.362  11.002
54961W        W21370  33.571  33.440   0.321
54962W        W21371  37.152   2.230  14.905
54963W        W21372  17.751   6.118   2.850
54964W        W21373  19.458  25.869   4.335
54965W        W21374  31.916  33.103  13.752
54966W        W21375  38.664  37.126   4.435
54967W        W21376  32.033   7.775   0.573
54968W        W21377  42.900  40.286  14.812
54969W        W21378  16.565  24.754  11.149
54970W        W21379  39.978  25.706   4.684
54971W        W21380  15.580  25.105  14.291
54972W        W21381   5.229  16.751   3.168
54973W        W21382  34.131   1.960  12.371
54974W        W21383   3.685   3.822   3.198
54975W        W21384  29.652  20.692   1.761
54976W        W21385  37.133   4.202  11.603
54977W        W21386  34.571  17.858  13.934
54978W        W21387  38.847  11.172   3.259
54979W        W21388   7.222  11.858   3.332
54980W        W21389   7.839  20.067   4.500
54981W        W21390  20.479  18.962   3.353
54982W        W21391  42.591  42.453  12.884
54983W        W21392  43.464  25.113   3.701
54984W        W21393  37.324  28.938  12.071
54985W        W21394  39.795  15.677   4.652
54986W        W21395   7.763  16.038   3.557
54987W        W21396  40.078  28.977   2.280
54988W        W21397   8.475  43.351   2.384
54989W        W21398  11.863   1.292  13.090
54990W        W21399  29.686  11.916   5.388
54991W        W21400  15.888  32.910   2.831
54992W        W21401   6.371  13.030   4.137
54993W        W21402  28.511  23.514  12.617
54994W        W21403   3.428  43.377  11.471
54995W        W21404  17.060  11.671   4.519
54996W        W21405   5.887  25.537  14.371
54997W        W21406  43.926  29.902   2.676
54998W        W21407  41.385  38.278   4.359
54999W        W21408  14.042  40.140  10.636
55000W        W21409  41.737  24.228  14.991
55001W        W21410   2.839   3.959   0.724
55002W        W21411  26.202  40.292   3.172
55003W        W21412  36.467  11.953   3.935
55004W        W21413   5.381   1.422  11.481
55005W        W21414  26.166  38.603  13.506
55006W        W21415  37.567  37.647  12.575
55007W        W21416   2.011  34.477   2.987
55008W        W21417   6.236  20.761   2.594
55009W        W21418  34.515  43.554   4.309
55010W        W21419  41.845  11.081  14.562
55011W        W21420  12.698   6.797  14.859
55012W        W21421  32.887  44.453   3.343
55013W        W21422  30.091  28.397   0.420
55014W        W21423  33.107  19.610  12.052
55015W        W21424  42.925  25.547  11.163
55016W        W21425   9.623  44.022   3.252
55017W        W21426   9.707  36.276  14.774
55018W        W21427  14.735  39.158  11.126
55019W        W21428  20.291  16.574  11.096
55020W        W21429  31.889  42.439   1.404
55021W        W21430   3.242  38.993  11.980
55022W        W21431  11.773   4.883  14.479
55023W        W21432   2.122  25.273   2.772
55024W        W21433  12.698   5.802   3.594
55025W        W21434  12.327   8.628  13.964
55026W        W21435  39.415  21.757   3.845
55027W        W21436  39.797  19.317  13.984
55028W        W21437  43.538  30.171   2.962
55029W        W21438  43.674  26.439   1.902
55030W        W21439   9.973  37.374   2.136
55031W        W21440  27.117  12.658  10.931
55032W        W21441  19.431   0.676   1.327
55033W        W21442  17.432  30.303   4.236
55034W        W21443   9.188   8.894  12.203
55035W        W21444  18.523  24.012   0.021
55036W        W21445  29.173  29.603   2.402
55037W        W21446   9.402  20.312  13.285
55038W        W21447  19.137   7.219   3.428
55039W        W21448  41.357  26.236  11.213
55040W        W21449  38.258   7.756  13.539
55041W        W21450   9.670  34.125   2.546
55042W        W21451  26.017   4.808  11.399
55043W        W21452  41.893  17.624   1.636
55044W        W21453  40.831   5.435  13.292
55045W        W21454  23.146  33.156  12.945
55046W        W21455  12.852  41.392  10.924
55047W        W21456   7.449  37.546  12.749
55048W        W21457  22.728  22.958   4.093
55049W        W21458  21.588   8.685  13.757
55050W        W21459  20.943  41.353   2.110
55051W        W21460  44.331   0.774   2.552
55052W        W21461  19.092  32.843   1.399
55053W        W21462  29.229  36.346   4.103
55054W        W21463  13.679  36.438   2.281
55055W        W21464  10.113   3.807   0.280
55056W        W21465   3.132  38.728   2.262
55057W        W21466  10.228  30.030  11.700
55058W        W21467   1.989  30.129   3.314
55059W        W21468  28.238  10.786   0.438
55060W        W21469  39.553  15.271   1.800
55061W        W21470   8.722   2.784   1.532
55062W        W21471   0.870  26.323  10.783
55063W        W21472  33.414  10.356   1.689
55064W        W21473  26.301  12.728   1.324
55065W        W21474  34.476   6.922  14.158
55066W        W21475  39.011  44.195  13.830
55067W        W21476  23.126  31.684   2.075
55068W        W21477  41.964  30.441  14.760
55069W        W21478  12.327  22.119  14.785
55070W        W21479  25.863   6.943  10.984
55071W        W21480  43.342  33.082  12.538
55072W        W21481  18.033  20.157  13.523
55073W        W21482   5.211  23.075  11.222
55074W        W21483  21.139  38.473  14.300
55075W        W21484  31.922  13.331  13.005
55076W        W21485   6.308  12.176   4.650
55077W        W21486   5.368  14.194   1.719
55078W        W21487  35.255  17.570  14.392
55079W        W21488  22.696  33.291   3.398
55080W        W21489  42.272  28.481   0.987
55081W        W21490  41.789   7.441   4.530
55082W        W21491  16.095  18.234   4.325
55083W        W21492  44.706  34.611  12.930
55084W        W21493  34.139  27.590  13.312
55085W        W21494  28.003  40.946   4.496
55086W        W21495  20.114   7.764  14.413
55087W        W21496  10.362  16.913  10.293
55088W        W21497  23.234   1.747   0.825
55089W        W21498   1.587   4.861   1.779
55090W        W21499  18.707  38.282   4.564
55091W        W21500   1.582  23.589  10.731
55092W        W21501   7.544  36.206   1.232
55093W        W21502   5.369   7.394   0.820
55094W        W21503  33.759  28.014  10.852
55095W        W21504   3.769  23.469   0.813
55096W        W21505  15.219  16.841  10.560
55097W        W21506  28.221   3.421   4.991
55098W        W21507  20.695  23.031   3.710
55099W        W21508   0.090  29.509  11.668
55100W        W21509  21.596  20.688  14.201
55101W        W21510   3.683  41.985   3.404
55102W        W21511  22.744   7.889   2.378
55103W        W21512   9.867  27.217   9.790
55104W        W21513  23.719  17.395   3.171
55105W        W21514  19.587  22.079  11.614
55106W        W21515  34.506  13.711   1.422
55107W        W21516  28.010  40.515   4.142
55108W        W21517  34.806  27.522  14.537
55109W        W21518   3.000  40.053   0.932
55110W        W21519   9.384  24.116   2.381
55111W        W21520  29.718  17.097  12.969
55112W        W21521  34.769   4.813  12.230
55113W        W21522  18.690  29.553  12.899
55114W        W21523  40.422   4.954   2.646
55115W        W21524  26.713  39.071   3.172
55116W        W21525  23.067   3.275   3.067
55117W        W21526  21.996  24.642  10.321
55118W        W21527  39.967  15.537   4.180
55119W        W21528  13.662  37.811   0.842
55120W        W21529  40.899  40.404   2.085
55121W        W21530   2.295  39.054   2.580
55122W        W21531   3.240  42.254   3.290
55123W        W21532  33.558  26.261  10.020
55124W        W21533  41.878   6.543  10.301
55125W        W21534   5.233  31.677   4.159
55126W        W21535  25.113  11.624  11.885
55127W        W21536  18.733  18.132   2.138
55128W        W21537   7.299  38.991   3.827
55129W        W21538  11.369  16.466  14.278
55130W        W21539  15.590  40.512   0.476
55131W        W21540  25.233  30.628  14.481
55132W        W21541  11.612  42.147   4.137
55133W        W21542  11.897  11.452  11.151
55134W        W21543  39.808  16.198   1.364
55135W        W21544  28.116  32.099  14.131
55136W        W21545  23.969  43.795   1.418
55137W        W21546  23.104  10.779   1.336
55138W        W21547  15.060  32.177  11.545
55139W        W21548   7.770  14.300   0.311
55140W        W21549  34.919  28.437  11.201
55141W        W21550  20.865  31.463   0.790
55142W        W21551  12.243   9.367  12.664
55143W        W21552  38.227  23.035  14.791
55144W        W21553  27.533   1.711   1.247
55145W        W21554   9.895  17.809   3.625
55146W        W21555  38.338   6.964   0.975
55147W        W21556  15.200  28.405   2.676
55148W        W21557  34.554  38.333   0.552
55149W        W21558   3.381   4.438   0.439
55150W        W21559  19.413  10.566   1.574
55151W        W21560   7.606  16.451   1.212
55152W        W21561   8.095  17.004   4.213
55153W        W21562  40.554  35.528   3.366
55154W        W21563  31.794  20.295  13.903
55155W        W21564  40.327  12.665   2.616
55156W        W21565  43.663  27.394   3.415
55157W        W21566   4.112  26.438   1.333
55158W        W21567   4.679  37.367  12.967
55159W        W21568  27.707   3.118  10.574
55160W        W21569  32.643   2.702   1.248
55161W        W21570  18.408  26.756   4.129
55162W        W21571  23.574   1.622  11.953
55163W        W21572  22.658  41.823   4.726
55164W        W21573  14.735  23.974  14.716
55165W        W21574  17.575  38.470   0.151
55166W        W21575  14.438   0.721   9.768
55167W        W21576  25.019  34.092  11.693
55168W        W21577  10.124  19.654  11.868
55169W        W21578  22.805  35.654  14.511
55170W        W21579  25.041  23.739  13.692
55171W        W21580  17.805  31.957   0.765
55172W        W21581   6.290  42.387   3.236
55173W        W21582  33.943   7.051   0.160
55174W        W21583  27.545   8.307  13.823
55175W        W21584  43.710  21.299   4.061
55176W        W21585  24.070  27.780  11.515
55177W        W21586  23.969  39.002   1.778
55178W        W21587  17.317  15.727  12.439
55179W        W21588  28.878  29.881  12.886
55180W        W21589  11.255  23.213   4.796
55181W        W21590  44.142  44.062   4.244
55182W        W21591  10.590   6.347   2.654
55183W        W21592  23.101  39.698  13.806
55184W        W21593   0.544  26.937  12.407
55185W        W21594  24.065  15.554  14.350
55186W        W21595  43.739  33.899   3.260
55187W        W21596  31.547  14.159  13.346
55188W        W21597  38.881  43.262  11.011
55189W        W21598  15.476  43.186  10.378
55190W        W21599  36.000  17.546  13.925
55191W        W21600  34.472  24.238   2.668
55192W        W21601  42.393  29.693  12.551
55193W        W21602  11.933  12.099  14.908
55194W        W21603  14.129  35.102  12.982
55195W        W21604  13.563  34.676  13.370
55196W        W21605   5.530  36.084  12.000
55197W        W21606  32.511   0.050   4.535
55198W        W21607  25.033  27.535   0.859
55199W        W21608  19.069  15.614  10.900
55200W        W21609  21.035  29.526   2.634
55201W        W21610  34.094  36.115   0.747
55202W        W21611   7.683  41.871   1.311
55203W        W21612   1.542  38.069  13.457
55204W        W21613  21.088   0.371  10.687
55205W        W21614  35.084  11.875  10.549
55206W        W21615  34.947  12.903  10.570
55207W        W21616   3.329  39.081  14.001
55208W        W21617  33.507  33.404  12.679
55209W        W21618  29.408  16.224   1.198
55210W        W21619  15.589  15.334   0.481
55211W        W21620  29.088  19.621  12.037
55212W        W21621  24.015  36.285  10.571
55213W        W21622   5.913  30.824   2.012
55214W        W21623  28.911  43.414  12.414
55215W        W21624  21.423  37.960   3.835
55216W        W21625  29.203  12.226   4.118
55217W        W21626   9.626  35.610   4.214
55218W        W21627   3.681  30.555   1.400
55219W        W21628  30.942   5.333  11.890
55220W        W21629  24.531  29.604   0.538
55221W        W21630  35.064  41.990   2.782
55222W        W21631  25.484  24.066   5.691
55223W        W21632  30.276   5.801   2.764
55224W        W21633  44.172  29.644   3.374
55225W        W21634   3.059  43.359   5.053
55226W        W21635   3.411  10.084  11.274
55227W        W21636  15.886  18.767   3.151
55228W        W21637  32.778   4.697   0.509
55229W        W21638  44.999  18.035  11.128
55230W        W21639  40.126   0.383  12.410
55231W        W21640  30.965  11.170   1.978
55232W        W21641  39.846  28.905  12.201
55233W        W21642  27.191  37.769  12.432
55234W        W21643  11.386  44.990  11.058
55235W        W21644  21.026  25.517  14.543
55236W        W21645  19.066  29.860  13.774
55237W        W21646  29.581  26.941   0.899
55238W        W21647  14.578  17.292  11.207
55239W        W21648  13.191  44.766  14.837
55240W        W21649  12.149  15.310  14.200
55241W        W21650   7.825   8.182  13.471
55242W        W21651  21.025  21.715   3.415
55243W        W21652  22.209  15.344  14.032
55244W        W21653  39.536  20.264  14.768
55245W        W21654  16.262  32.409   0.689
55246W        W21655  32.824   0.468  13.840
55247W        W21656  26.615  38.027   0.931
55248W        W21657  38.576   2.026   1.024
55249W        W21658   5.082  30.129  13.944
55250W        W21659  30.475  19.248   0.298
55251W        W21660  16.517  16.176   4.668
55252W        W21661  14.285  35.177   0.907
55253W        W21662  19.578  14.879  10.777
55254W        W21663  43.270   0.198  12.321
55255W        W21664  37.068  18.258   0.050
55256W        W21665  34.321  37.558  14.876
55257W        W21666  40.475  27.469  11.526
55258W        W21667  28.136  14.029  13.175
55259W        W21668  19.740   2.309  14.320
55260W        W21669  44.761   0.964  12.119
55261W        W21670  34.118  17.597  13.856
55262W        W21671  33.923  39.881   0.370
55263W        W21672  23.301  25.497   1.508
55264W        W21673  41.604  44.283  12.615
55265W        W21674   1.382   5.246  14.343
55266W        W21675  28.697  21.276  14.470
55267W        W21676  42.024  33.341  12.655
55268W        W21677  41.972  38.381   0.867
55269W        W21678  39.073  35.323  14.958
55270W        W21679  31.731   4.900  11.668
55271W        W21680   6.545  15.420  13.970
55272W        W21681  34.587   0.948  13.954
55273W        W21682   3.049  28.536   0.336
55274W        W21683  24.285  19.011   2.831
55275W        W21684  40.335   4.848   3.145
55276W        W21685  21.364  30.601   0.769
55277W        W21686  15.601  11.160   0.733
55278W        W21687   4.895   2.766   1.818
55279W        W21688   7.641  13.613  14.790
55280W        W21689  16.549  13.650  11.926
55281W        W21690  40.393  27.965  13.088
55282W        W21691   8.117  44.336  13.495
55283W        W21692   6.670   0.405   2.046
55284W        W21693  35.646   3.515   1.798
55285W        W21694  21.232   5.766  14.848
55286W        W21695  36.494   8.862   9.774
55287W        W21696   2.193  31.353  14.324
55288W        W21697   8.069  35.783  11.416
55289W        W21698  35.212  17.647   3.487
55290W        W21699  37.370   1.315   3.250
55291W        W21700  36.896  20.618   0.274
55292W        W21701  25.014  35.796  14.298
55293W        W21702  15.555   0.679  10.476
55294W        W21703  36.500   5.645  13.058
55295W        W21704  19.795   7.357  14.430
55296W        W21705  40.556  35.910  12.423
55297W        W21706  31.649  39.061  14.387
55298W        W21707   2.434   0.038  14.556
55299W        W21708  31.019   4.205  11.090
55300W        W21709  24.525   9.270  11.701
55301W        W21710  17.379  29.544   1.461
55302W        W21711  28.063   2.218   1.351
55303W        W21712  11.535  14.040  13.719
55304W        W21713   9.213   9.881   5.006
55305W        W21714  25.028  15.890  11.466
55306W        W21715  34.013   2.025   2.253
55307W        W21716   9.927  43.342  11.538
55308W        W21717   3.874  34.454   0.639
55309W        W21718  26.550  37.470  10.283
55310W        W21719  28.932  42.398   4.593
55311W        W21720  41.825  13.977   4.898
55312W        W21721  27.102   3.158   1.937
55313W        W21722   2.474  35.611   0.787
55314W        W21723  20.132  20.725   2.191
55315W        W21724  13.077  34.396   0.370
55316W        W21725  36.651  34.943   4.482
55317W        W21726  40.155  10.633  11.175
55318W        W21727  13.679   5.355  12.712
55319W        W21728  13.689  20.225  14.518
55320W        W21729  41.797  42.250  13.518
55321W        W21730  23.059  34.067  10.686
55322W        W21731  15.378   8.320   0.846
55323W        W21732  35.540  15.923   2.909
55324W        W21733   4.978  43.244  11.112
55325W        W21734  13.835  15.651  14.054
55326W        W21735  14.782  38.660   1.651
55327W        W21736   2.789  18.269   1.362
55328W        W21737  43.898  36.128   2.603
55329W        W21738  36.747  13.078  11.467
55330W        W21739  24.326   5.184   4.020
55331W        W21740  10.266   9.668   2.203
55332W        W21741  31.103  21.261  11.142
55333W        W21742   3.253  19.444   1.719
55334W        W21743  37.997  28.519   4.547
55335W        W21744  29.276  21.565  13.561
55336W        W21745  41.022  34.479   1.659
55337W        W21746  29.912  44.986   4.896
55338W        W21747  13.320  38.372  14.709
55339W        W21748  37.175  42.288   1.938
55340W        W21749  43.502   5.685  12.453
55341W        W21750  39.358  31.735  14.278
55342W        W21751  28.706  20.319  11.883
55343W        W21752  38.293   8.405   1.877
55344W        W21753  10.949  21.089  11.621
55345W        W21754   4.971  39.652   2.569
55346W        W21755  15.167  37.556   0.808
55347W        W21756  41.019  34.817  14.793
55348W        W21757   5.958   1.664   1.963
55349W        W21758  22.095  18.074  11.246
55350W        W21759   8.473   1.209  12.077
55351W        W21760   6.552  24.498  11.186
55352W        W21761   8.827  33.935  14.547
55353W        W21762   2.815  26.224  11.624
55354W        W21763  28.555  32.141   0.686
55355W        W21764  29.844  25.756  11.195
55356W        W21765  29.706   1.524   4.551
55357W        W21766  14.865  43.879   3.221
55358W        W21767  32.704   1.081   0.251
55359W        W21768  42.941  31.631  10.608
55360W        W21769  33.380  12.764   2.839
55361W        W21770   3.824  42.576  13.282
55362W        W21771  27.711  37.318   4.614
55363W        W21772  34.452   4.665  11.182
55364W        W21773   0.972  17.159  14.329
55365W        W21774  34.594  17.125  14.843
55366W        W21775  30.426  10.817   4.406
55367W        W21776  42.444  12.296  13.493
55368W        W21777  11.078  35.163  13.033
55369W        W21778  10.533   4.996   0.893
55370W        W21779   5.959  28.082  10.351
55371W        W21780   9.696  22.049   1.218
55372W        W21781  35.120  41.766   2.247
55373W        W21782   5.236   7.444  14.503
55374W        W21783   1.545  15.155  14.465
55375W        W21784  19.134  34.822   1.382
55376W        W21785  28.895   1.346   1.471
55377W        W21786  36.032  30.406   0.748
55378W        W21787   4.811   4.366   3.240
55379W        W21788   4.157  25.772  13.480
55380W        W21789  13.709  11.070   4.527
55381W        W21790   3.813  36.864   1.322
55382W        W21791  16.576  43.332  10.421
55383W        W21792   4.701  11.674   1.163
55384W        W21793  34.576  29.414  10.747
55385W        W21794   8.550  42.311   3.586
55386W        W21795  27.888  28.666  11.996
55387W        W21796  37.828  22.982  10.710
55388W        W21797  18.172  10.897  13.488
55389W        W21798   9.143  32.412  14.035
55390W        W21799  14.388   0.406  13.314
55391W        W21800   8.774   9.159   4.825
55392W        W21801  35.104   0.727  13.962
55393W        W21802  23.704   7.896  14.836
55394W        W21803   6.821  15.832   3.256
55395W        W21804   9.658   7.250  11.133
55396W        W21805   0.923   4.683  13.481
55397W        W21806  17.822  37.489   2.789
55398W        W21807  12.040   6.180  14.311
55399W        W21808  13.833  27.862   4.252
55400W        W21809  11.267   9.424  13.461
55401W        W21810  43.283  14.551  14.427
55402W        W21811   1.666  44.201  12.973
55403W        W21812  38.931  31.536  12.875
55404W        W21813  28.999   4.557   0.833
55405W        W21814  33.557  38.406   4.595
55406W        W21815  15.834  21.801  13.063
55407W        W21816  33.459   8.419   2.288
55408W        W21817   0.181  37.854  11.032
55409W        W21818  41.644  36.028  11.117
55410W        W21819  43.383  16.563   3.291
55411W        W21820  37.832  11.774  13.681
55412W        W21821  20.570  40.449  12.012
55413W        W21822  42.859  28.547   4.468
55414W        W21823   0.050  38.258   1.087
55415W        W21824  24.048  10.304   4.080
55416W        W21825  27.537  24.422   4.360
55417W        W21826  16.402  41.272   3.813
55418W        W21827   6.076  16.651  14.420
55419W        W21828   2.620  34.890   5.180
55420W        W21829  13.866   2.657  10.750
55421W        W21830   7.093  41.966   0.079
55422W        W21831  43.483  15.482  10.954
55423W        W21832   9.351   7.843   1.160
55424W        W21833  11.832  23.128  13.078
55425W        W21834   0.266  25.499  13.880
55426W        W21835  44.472  31.567   4.249
55427W        W21836  43.568  14.145  12.882
55428W        W21837  40.444   2.829   4.953
55429W        W21838  29.441  33.959  14.968
55430W        W21839  31.708  23.546   0.992
55431W        W21840  17.763  32.068   1.293
55432W        W21841   7.129  16.252   2.778
55433W        W21842  40.262  10.699   5.445
55434W        W21843  37.545  11.578  12.105
55435W        W21844  15.594  37.245   3.184
55436W        W21845  26.012  30.524   4.252
55437W        W21846  41.532  21.722  11.160
55438W        W21847  36.321   3.252  10.759
55439W        W21848  11.816  10.660  12.331
55440W        W21849   5.481  33.212   4.059
55441W        W21850  31.503  43.933  11.069
55442W        W21851  16.563  24.408   1.700
55443W        W21852  33.317  29.533   1.327
55444W        W21853  22.324  41.547  12.101
55445W        W21854  41.346  35.362   4.090
55446W        W21855  21.706   7.839  11.763
55447W        W21856  10.219  22.486   3.227
55448W        W21857  11.371  17.064   4.319
55449W        W21858  13.577  37.492  11.633
55450W        W21859   7.296  40.973   2.832
55451W        W21860  12.288  31.802   3.796
55452W        W21861  14.266  36.487   4.088
55453W        W21862  24.111  41.741   1.935
55454W        W21863  27.580  37.205  11.955
55455W        W21864  20.236   8.819  11.668
55456W        W21865  33.037   6.832  13.542
55457W        W21866   8.444  43.462  13.646
55458W        W21867  43.272   7.840   1.228
55459W        W21868  35.339  33.633   1.813
55460W        W21869  40.683  26.231  13.401
55461W        W21870   7.298  29.032  14.039
55462W        W21871  28.973   5.722   1.287
55463W        W21872  23.436  27.619  11.920
55464W        W21873  12.198  21.687  13.528
55465W        W21874   5.884   2.631   4.175
55466W        W21875  12.156  31.988   0.738
55467W        W21876   4.651  42.497   1.375
55468W        W21877  36.543  44.566  10.339
55469W        W21878  38.690  36.132  11.937
55470W        W21879  41.033  26.571   0.610
55471W        W21880  30.637  17.339  10.445
55472W        W21881  28.049  36.036  13.202
55473W        W21882  34.025  42.035  13.750
55474W        W21883  26.206  33.920   0.330
55475W        W21884  15.838   4.249  10.658
55476W        W21885  11.783  28.342   4.673
55477W        W21886  15.341   8.867   0.084
55478W        W21887  16.575  22.752   5.031
55479W        W21888  19.722  28.918  11.210
55480W        W21889  24.008   5.911   3.818
55481W        W21890  44.392   8.188   0.680
55482W        W21891  28.609  31.228   0.740
55483W        W21892  33.240  41.910   2.204
55484W        W21893  36.415   5.224  10.938
55485W        W21894  14.065  39.492  11.987
55486W        W21895  22.582   4.746   4.595
55487W        W21896  28.609   6.275  11.960
55488W        W21897  20.969  19.744   4.695
55489W        W21898   7.300  25.418  14.457
55490W        W21899  17.851  15.689  10.361
55491W        W21900  21.586  29.143  11.632
55492W        W21901  20.677  16.230   3.706
55493W        W21902  28.774  20.603   3.632
55494W        W21903  23.018  29.169  11.509
55495W        W21904   3.584  10.627  12.938
55496W        W21905   7.469  14.830  11.545
55497W        W21906   6.711  19.621  12.035
55498W        W21907  35.815  11.804  11.654
55499W        W21908  21.495   9.334  11.765
55500W        W21909   5.390  33.139   0.682
55501W        W21910  12.321   2.468  11.724
55502W        W21911  14.490  14.039   0.377
55503W        W21912  29.067   9.851  14.542
55504W        W21913  42.560  16.631  10.637
55505W        W21914  44.808   4.521   2.602
55506W        W21915  29.133  39.032  11.553
55507W        W21916  29.950  43.207  13.620
55508W        W21917  23.260  18.080  11.509
55509W        W21918  35.008   9.151   4.089
55510W        W21919  24.615  22.915  12.659
55511W        W21920  38.518  39.746  13.921
55512W        W21921  29.752  21.435   2.405
55513W        W21922  19.535  35.352   4.745
55514W        W21923  15.533   8.263  12.494
55515W        W21924  28.494  38.778   3.157
55516W        W21925  28.616   4.308  13.032
55517W        W21926  23.199  41.928   4.699
55518W        W21927  41.251  17.653  12.977
55519W        W21928  41.269   6.261   4.696
55520W        W21929  21.165  21.460  13.020
55521W        W21930   5.022  31.864   0.202
55522W        W21931   4.831  23.209   3.305
55523W        W21932  17.191  26.169  12.229
55524W        W21933  13.927   0.748   3.348
55525W        W21934  12.594  37.004  10.198
55526W        W21935  31.095  12.366  13.922
55527W        W21936  11.173  40.723  10.533
55528W        W21937  19.806  42.578   0.298
55529W        W21938  12.317  23.979   0.056
55530W        W21939  19.763  15.367  10.882
55531W        W21940  18.245  13.606  12.445
55532W        W21941   1.836  27.695   4.296
55533W        W21942  20.568  29.434  14.312
55534W        W21943   9.697  37.503   4.092
55535W        W21944   2.194   3.900  12.548
55536W        W21945  23.081  35.063   4.381
55537W        W21946   7.918  40.427  10.701
55538W        W21947  29.748  24.525   2.349
55539W        W21948  37.296  23.485   3.587
55540W        W21949  13.260  26.970  12.140
55541W        W21950  14.526   5.760  11.986
55542W        W21951  12.613   7.352  11.986
55543W        W21952  36.988  10.895  14.848
55544W        W21953  31.285  43.884  13.899
55545W        W21954   2.490  34.399  14.762
55546W        W21955  38.982  29.937  14.096
55547W        W21956  30.237  11.609  13.889
55548W        W21957  20.749  23.523  12.933
55549W        W21958  41.106   9.247   1.113
55550W        W21959   1.559   3.385   4.525
55551W        W21960  36.461   6.362  10.448
55552W        W21961  23.044  32.526  14.846
55553W        W21962  38.205  27.663  10.749
55554W        W21963  19.531  37.206  11.516
55555W        W21964  16.506   0.102  11.202
55556W        W21965   0.281  26.254   0.234
55557W        W21966  15.157   0.737  12.812
55558W        W21967  14.622  13.435   4.624
55559W        W21968  19.565  23.604   4.464
55560W        W21969  21.355  41.453   0.652
55561W        W21970   2.173  22.450  13.065
55562W        W21971  28.952  11.690  14.621
55563W        W21972  35.473  23.490   1.826
55564W        W21973   5.850   0.958  10.988
55565W        W21974  43.802  32.091   0.260
55566W        W21975  10.436   7.623   1.465
55567W        W21976  38.365  33.111   1.765
55568W        W21977  31.218  23.685  11.747
55569W        W21978  39.955  25.959   2.049
55570W        W21979  10.217  37.546  12.867
55571W        W21980  42.668   9.345  14.509
55572W        W21981   6.106  41.464   0.857
55573W        W21982  14.287  44.827   1.261
55574W        W21983  21.130  12.624  14.056
55575W        W21984   8.378   6.432   2.370
55576W        W21985  34.810  29.470   1.804
55577W        W21986   2.059  14.817  10.432
55578W        W21987  32.496   1.614   3.131
55579W        W21988  12.086   8.150   1.822
55580W        W21989  31.370  14.821   1.736
55581W        W21990   5.493   2.264  10.719
55582W        W21991  18.294  22.528  13.678
55583W        W21992  35.534  36.872   4.801
55584W        W21993  12.658  37.189   0.755
55585W        W21994  34.654   2.232  12.462
55586W        W21995  20.305  42.311  14.238
55587W        W21996   7.057  40.897   3.298
55588W        W21997   2.840  44.850   3.447
55589W        W21998   5.855  10.529   0.569
55590W        W21999   3.967  27.111   2.047
55591W        W22000  14.219  22.679   1.099
55592W        W22001  35.773   1.432   0.958
55593W        W22002  18.066  18.809  13.947
55594W        W22003   0.505  29.991   4.324
55595W        W22004  37.087  10.415  12.530
55596W        W22005  11.636  16.254   4.207
55597W        W22006   2.404  16.976   1.489
55598W        W22007  30.805  40.854   1.136
55599W        W22008  21.563  26.459   4.482
55600W        W22009   1.006  12.572  14.337
55601W        W22010  26.610   5.694  11.564
55602W        W22011  28.570   6.124   4.719
55603W        W22012  32.362  39.009  10.643
55604W        W22013  12.753   2.671  14.860
55605W        W22014  39.853  21.805   4.615
55606W        W22015   2.538   4.758  11.978
55607W        W22016  10.260  31.392   4.463
55608W        W22017   7.127  36.174   0.498
55609W        W22018  12.479  20.257  12.367
55610W        W22019  31.574  44.613  12.748
55611W        W22020   6.359  39.412  13.675
55612W        W22021  26.503  22.342  12.911
55613W        W22022  32.758   2.890  13.818
55614W        W22023   6.364  26.150   4.486
55615W        W22024  41.564   6.200  14.770
55616W        W22025  35.940  26.057   4.546
55617W        W22026   1.825  17.467  12.883
55618W        W22027   6.397  44.797  13.841
55619W        W22028  43.838   6.392  14.425
55620W        W22029   1.193   6.184   4.160
55621W        W22030   5.352  37.520   1.731
55622W        W22031  25.066  16.635  10.814
55623W        W22032  10.709  20.012   3.212
55624W        W22033  26.982  22.599  13.399
55625W        W22034  13.106  40.797   2.406
55626W        W22035  25.007   5.939   1.874
55627W        W22036  25.779  42.992   2.449
55628W        W22037  42.957  18.336  14.005
55629W        W22038  34.869  43.399   2.427
55630W        W22039  35.889   6.333   1.453
55631W        W22040   3.805  40.797   2.652
55632W        W22041  32.425  40.530   1.146
55633W        W22042  42.921  16.159  13.240
55634W        W22043   3.916  18.897   4.462
55635W        W22044  43.129   4.499   4.829
55636W        W22045  31.049  12.799   0.710
55637W        W22046   6.368  34.967  13.252
55638W        W22047  15.157  20.027   2.231
55639W        W22048  13.469   3.542  14.276
55640W        W22049  37.840  33.169  10.759
55641W        W22050  31.670  14.363   1.848
55642W        W22051   2.356   8.439   1.479
55643W        W22052  33.959  41.384  14.171
55644W        W22053  33.984  16.070   0.319
55645W        W22054  17.085  35.280   2.112
55646W        W22055  36.846   0.785  12.578
55647W        W22056  34.415  24.248  12.117
55648W        W22057  22.029   4.710  13.397
55649W        W22058  25.556  14.364   2.075
55650W        W22059  37.907  32.728  11.906
55651W        W22060  29.242  10.298  12.967
55652W        W22061  30.925  29.799   1.272
55653W        W22062  18.668   5.439  12.098
55654W        W22063  15.765  18.180   0.945
55655W        W22064  28.914  17.650   3.194
55656W        W22065  39.327   6.814   2.375
55657W        W22066  31.679  42.934   4.167
55658W        W22067   9.361  42.071   2.614
55659W        W22068   9.458  18.592   4.122
55660W        W22069  27.410  18.489   2.252
55661W        W22070   5.739   0.018   0.827
55662W        W22071  35.226   0.378  11.918
55663W        W22072  22.198  15.075   0.320
55664W        W22073  36.857  14.787  11.090
55665W        W22074   8.128  14.758   2.241
55666W        W22075   7.019  12.719  13.960
55667W        W22076  13.103  30.030  13.699
55668W        W22077  35.541  34.953  13.298
55669W        W22078  32.457  23.231  12.656
55670W        W22079   7.845  26.083   2.676
55671W        W22080  33.552  40.468   0.699
55672W        W22081  31.100  14.543   4.447
55673W        W22082   5.878  31.586  13.757
55674W        W22083  44.434   3.166  13.235
55675W        W22084  42.922  35.888   2.593
55676W        W22085   2.707  38.538   3.173
55677W        W22086   8.526  11.414  13.624
55678W        W22087  36.411  25.194  10.593
55679W        W22088  41.239   3.692   3.181
55680W        W22089  40.312  31.557  12.126
55681W        W22090  16.520  34.422   2.285
55682W        W22091  42.211   2.935   4.243
55683W        W22092   9.973  31.840   4.588
55684W        W22093  38.532  15.584   1.913
55685W        W22094  22.996  36.865  11.600
55686W        W22095  11.287  23.966   2.164
55687W        W22096  27.220  17.617   1.448
55688W        W22097  17.667  26.197   0.964
55689W        W22098  35.140  37.810  14.818
55690W        W22099  31.582  30.573   0.895
55691W        W22100  21.563  26.274   2.775
55692W        W22101   8.460  42.107   3.119
55693W        W22102  39.479  30.065  13.941
55694W        W22103   0.467  32.388  11.499
55695W        W22104  21.025  26.995   0.809
55696W        W22105   9.282  21.046   3.055
55697W        W22106   5.345  31.675  11.533
55698W        W22107  21.042   0.205   1.232
55699W        W22108  35.336  12.318   3.802
55700W        W22109  36.409  39.118   0.682
55701W        W22110   9.252  25.559  10.003
55702W        W22111   4.123  38.067   4.486
55703W        W22112  36.374  33.369   2.377
55704W        W22113  37.520  33.873   4.839
55705W        W22114  28.658  31.501  13.071
55706W        W22115  36.312  23.501  11.521
55707W        W22116   1.223  41.422  11.624
55708W        W22117  42.459  38.938  14.605
55709W        W22118  24.696  41.849  11.628
55710W        W22119  22.758   6.770   1.762
55711W        W22120  39.911   8.728  11.089
55712W        W22121  26.016  44.406  14.001
55713W        W22122  10.690  31.369   3.226
55714W        W22123  16.217  26.762   5.131
55715W        W22124  40.952  30.398  10.979
55716W        W22125  23.615  42.097   1.284
55717W        W22126  16.769  15.029  12.027
55718W        W22127  41.538  12.356   2.621
55719W        W22128  37.684  22.063   2.772
55720W        W22129  36.530  11.705   2.477
55721W        W22130  32.849  19.658  13.424
55722W        W22131  13.706  36.506  13.410
55723W        W22132  37.599  22.812   1.385
55724W        W22133   2.840  32.090  13.967
55725W        W22134  16.578  11.472  14.901
55726W        W22135  12.795   3.460   1.828
55727W        W22136  39.348  36.804   1.819
55728W        W22137  44.960  22.639  13.114
55729W        W22138  41.505  30.878  13.061
55730W        W22139   8.828  41.426   1.775
55731W        W22140  10.317  34.354  12.455
55732W        W22141  29.584  23.074  14.766
55733W        W22142  39.788  33.199  13.874
55734W        W22143   7.431  30.269  12.133
55735W        W22144  10.663   5.642   1.292
55736W        W22145  44.591  18.069   4.168
55737W        W22146  26.580  11.391  12.599
55738W        W22147  24.763   3.820   1.741
55739W        W22148  23.684  37.248  12.923
55740W        W22149   0.912   5.803   1.716
55741W        W22150  44.277  42.921   2.901
55742W        W22151  12.930  16.119  11.067
55743W        W22152  12.246  28.155   3.141
55744W        W22153  20.579  43.125  11.181
55745W        W22154  20.258  16.876   2.317
55746W        W22155  10.441   4.905  12.825
55747W        W22156  40.024  15.239   4.822
55748W        W22157  10.772  36.731  10.051
55749W        W22158  28.873  34.018   3.506
55750W        W22159  43.640  33.517  10.703
55751W        W22160  23.658  16.571   3.789
55752W        W22161   5.832  37.334  13.334
55753W        W22162   7.438  10.073   4.148
55754W        W22163  39.855   9.711   0.202
55755W        W22164  13.748  24.185   3.365
55756W        W22165  21.511  34.997   1.684
55757W        W22166   2.159  25.875  11.239
55758W        W22167  35.840  21.135   2.226
55759W        W22168  30.874  39.510   0.789
55760W        W22169   6.122  32.018  12.270
55761W        W22170   1.661  30.619   1.445
55762W        W22171  18.062  18.637  11.923
55763W        W22172   7.251  27.718   2.835
55764W        W22173   2.501  29.355  10.791
55765W        W22174  36.113  35.693  13.556
55766W        W22175   2.005  23.976   0.397
55767W        W22176  24.832  16.646  13.394
55768W        W22177  17.325  43.946  12.462
55769W        W22178   4.753  13.612  11.622
55770W        W22179  35.036   2.196  13.087
55771W        W22180  31.787  43.997  14.000
55772W        W22181  18.535  42.417   0.693
55773W        W22182  28.481   0.181   3.627
55774W        W22183  27.719  19.672  12.422
55775W        W22184  13.680  37.081  13.397
55776W        W22185  44.282  28.784   3.255
55777W        W22186  43.391   9.945   4.518
55778W        W22187  13.072  11.605   1.734
55779W        W22188   5.132  44.524   4.061
55780W        W22189  38.267   6.759   0.018
55781W        W22190  14.926  15.263   4.364
55782W        W22191  15.286  35.423  12.708
55783W        W22192  40.582  37.950  10.670
55784W        W22193  44.499  22.207  12.483
55785W        W22194  32.339  44.090   0.383
55786W        W22195  38.258  27.783  14.341
55787W        W22196  31.007   3.895   2.219
55788W        W22197  25.809   6.201  12.365
55789W        W22198   3.866  29.905  11.966
55790W        W22199  30.190  19.704   3.789
55791W        W22200  28.944  32.126  12.062
55792W        W22201  15.670  37.888  14.162
55793W        W22202  24.448  26.543   3.403
55794W        W22203  33.992  35.109   4.162
55795W        W22204  39.845   9.276  11.194
55796W        W22205  30.676  42.015  14.737
55797W        W22206  35.434   7.380  12.414
55798W        W22207  24.469   2.017  10.731
55799W        W22208   5.965  28.254   2.707
55800W        W22209  17.115   2.790   2.906
55801W        W22210  43.078  39.536   1.338
55802W        W22211  15.641  27.375   4.645
55803W        W22212  38.073  14.715   1.205
55804W        W22213  23.287  28.700  12.532
55805W        W22214  15.532  27.809  10.202
55806W        W22215  32.932  27.734  11.010
55807W        W22216  38.615   2.739  12.599
55808W        W22217  23.920  17.579  10.764
55809W        W22218  41.262  20.441  14.555
55810W        W22219   9.202  32.135  11.923
55811W        W22220  43.262  24.566  11.179
55812W        W22221  39.845  27.480   4.667
55813W        W22222  11.587  10.381  13.720
55814W        W22223  38.922  21.558  11.163
55815W        W22224  38.648  36.356  13.564
55816W        W22225  24.569  24.200   4.055
55817W        W22226  12.195  43.198   2.208
55818W        W22227  42.143  41.316   4.863
55819W        W22228  10.188  38.884  10.577
55820W        W22229  40.752  40.490  14.429
55821W        W22230  16.679   5.350  11.869
55822W        W22231  10.785  20.350   3.635
55823W        W22232  42.461  34.085   0.012
55824W        W22233  30.307   3.121   2.258
55825W        W22234  15.198  38.049  11.264
55826W        W22235  38.265  33.530   2.753
55827W        W22236  23.169  40.506   3.901
55828W        W22237  36.362   9.693  13.004
55829W        W22238  36.995  37.116   4.628
55830W        W22239   1.115   0.944   2.141
55831W        W22240  10.089  23.305   4.767
55832W        W22241   1.416   1.967   4.033
55833W        W22242  11.948  26.616  13.937
55834W        W22243  21.232  38.832  13.241
55835W        W22244  39.264  17.775   3.830
55836W        W22245  10.776   0.357  14.142
55837W        W22246  39.119   3.971  12.430
55838W        W22247   2.709  17.691  11.858
55839W        W22248  34.349  34.698   4.061
55840W        W22249  35.325  37.553   3.828
55841W        W22250   9.681  19.333   4.672
55842W        W22251  44.902  17.917   3.206
55843W        W22252  44.051   2.509  10.021
55844W        W22253  10.751  39.434   1.949
55845W        W22254  15.685  34.880   4.086
55846W        W22255   7.311  15.848   3.735
55847W        W22256  14.401  28.501   4.818
55848W        W22257  21.204   9.988  12.431
55849W        W22258  11.648  22.092   3.583
55850W        W22259  26.768   7.409   2.443
55851W        W22260  43.096   9.176  11.245
55852W        W22261   9.946  11.765   1.910
55853W        W22262  26.971  23.727  11.173
55854W        W22263  35.057  23.463  11.160
55855W        W22264   3.938  10.345  13.367
55856W        W22265  12.868  28.730  11.223
55857W        W22266  43.512  39.920   0.691
55858W        W22267   0.437   0.016  14.551
55859W        W22268  31.182  39.256   1.610
55860W        W22269   9.463  25.117   2.746
55861W        W22270   8.413  19.185  12.307
55862W        W22271  37.058  11.850  10.657
55863W        W22272  13.882   8.151  14.959
55864W        W22273  33.396  17.123  13.428
55865W        W22274  30.299  41.304  11.243
55866W        W22275  12.335   1.879  14.907
55867W        W22276  43.007  11.069   2.735
55868W        W22277  28.686   4.221  12.115
55869W        W22278  22.683  34.260   1.002
55870W        W22279  29.142   4.312  10.264
55871W        W22280  37.380  43.125  13.718
55872W        W22281  37.563  41.577  10.545
55873W        W22282   4.472   9.392   1.905
55874W        W22283  21.446   9.817   2.140
55875W        W22284   0.387  19.100  14.050
55876W        W22285  28.424  19.775  11.396
55877W        W22286  32.729   1.411  10.127
55878W        W22287  33.572  40.121  12.812
55879W        W22288  34.787  13.032  14.889
55880W        W22289  29.686   9.902  14.251
55881W        W22290   5.773  21.475   2.337
55882W        W22291   5.326  29.091  13.322
55883W        W22292  36.863  18.393   0.518
55884W        W22293  41.697  30.026  14.350
55885W        W22294  13.552  27.100  11.423
55886W        W22295  15.126  24.873   1.399
55887W        W22296  10.924   9.222  14.034
55888W        W22297   4.888  27.656  11.354
55889W        W22298  21.086   3.217  12.460
55890W        W22299  25.648  32.315   2.610
55891W        W22300  18.119  34.225   3.033
55892W        W22301  30.998  29.371  10.764
55893W        W22302  18.735   1.022  12.488
55894W        W22303  31.970  36.927  12.105
55895W        W22304  31.127  25.930   0.068
55896W        W22305  28.299  21.188   0.309
55897W        W22306   0.774  30.159   0.337
55898W        W22307  19.486  29.699  11.843
55899W        W22308   3.172  36.977   1.332
55900W        W22309  25.492  20.284  14.479
55901W        W22310  23.512  31.546  12.047
55902W        W22311  21.633  26.060  14.252
55903W        W22312  44.405  11.708  13.619
55904W        W22313   8.175   9.818   2.817
55905W        W22314  42.875  32.397  13.117
55906W        W22315   8.647  12.834   1.410
55907W        W22316   7.176  22.978  13.294
55908W        W22317   3.409  21.238   2.885
55909W        W22318  44.529  11.338  11.837
55910W        W22319  11.572  17.652  13.585
55911W        W22320  36.753   6.776  10.698
55912W        W22321   2.702  23.649  10.132
55913W        W22322  39.560  12.640   0.050
55914W        W22323  39.017  14.603  14.854
55915W        W22324  21.604  28.440   0.335
55916W        W22325  17.224  29.861  13.893
55917W        W22326  33.255   6.264  12.531
55918W        W22327  33.865   8.177   4.801
55919W        W22328  10.408  21.532   4.218
55920W        W22329  26.858   3.667  13.821
55921W        W22330  35.802  11.609  11.163
55922W        W22331   7.651  25.537   2.882
55923W        W22332  15.371  19.787   1.408
55924W        W22333  44.340  14.500  13.454
55925W        W22334  40.919  28.176   2.723
55926W        W22335   7.110  42.552   3.684
55927W        W22336  19.449  38.380  10.673
55928W        W22337  19.355   5.710   4.792
55929W        W22338  23.765  37.497  12.464
55930W        W22339  10.012  12.401  11.153
55931W        W22340  12.328  37.999  11.704
55932W        W22341  36.969  41.037  14.863
55933W        W22342  15.235  19.539  12.045
55934W        W22343   0.299  23.253  12.195
55935W        W22344   9.137  18.601  12.569
55936W        W22345  10.821   1.625   3.567
55937W        W22346   0.244  15.866   3.685
55938W        W22347  13.117  23.940  11.617
55939W        W22348  19.114  31.823  12.032
55940W        W22349   9.901   7.852   3.383
55941W        W22350  27.623  32.308  12.162
55942W        W22351  17.049   7.043   2.220
55943W        W22352  37.696  44.516   2.302
55944W        W22353  22.762  31.526   3.485
55945W        W22354   7.159  14.170  14.005
55946W        W22355  14.539  24.199   0.305
55947W        W22356  13.557   5.291  14.080
55948W        W22357  21.202   3.391  12.952
55949W        W22358   7.201  33.407   1.219
55950W        W22359   5.868  22.066  14.114
55951W        W22360  11.362  28.084   2.863
55952W        W22361  37.346   9.175   0.371
55953W        W22362  34.421   9.919   3.278
55954W        W22363  44.396   1.220   3.246
55955W        W22364  35.344  20.110   3.358
55956W        W22365  36.523  12.362   3.635
55957W        W22366  40.593  12.949  11.181
55958W        W22367  36.455   2.469   0.537
55959W        W22368  19.214  28.577  13.168
55960W        W22369  38.825  11.734  10.783
55961W        W22370   2.131  11.971   4.662
55962W        W22371  36.877  19.668  13.473
55963W        W22372  39.095  37.274   1.728
55964W        W22373  30.846  15.054  10.846
55965W        W22374  29.697  42.314  12.849
55966W        W22375  25.461  11.854   0.877
55967W        W22376  23.128   9.259   2.192
55968W        W22377  44.454  23.696   0.372
55969W        W22378   1.058  42.415  12.615
55970W        W22379   3.023  36.450   2.326
55971W        W22380  21.496  23.211   0.434
55972W        W22381   3.810  38.777  13.991
55973W        W22382  42.355   9.381   2.151
55974W        W22383  19.889  29.427  11.948
55975W        W22384  17.666   7.645   2.652
55976W        W22385  19.968  18.203  14.034
55977W        W22386   6.139  10.391   3.278
55978W        W22387  27.416  26.589   3.525
55979W        W22388  27.086  19.245   4.124
55980W        W22389  21.519  18.964  14.496
55981W        W22390  32.952  27.011   4.341
55982W        W22391  22.935  32.665   2.794
55983W        W22392  16.895   6.358   2.914
55984W        W22393  37.084  36.018  13.759
55985W        W22394  24.203  18.513   2.964
55986W        W22395  30.123  44.076  14.591
55987W        W22396  24.944  21.030  10.809
55988W        W22397   3.006  23.600   2.112
55989W        W22398  14.356  30.540   0.810
55990W        W22399  24.228  41.239   1.774
55991W        W22400   8.929   3.273  11.093
55992W        W22401  44.138  27.168  13.307
55993W        W22402  31.629  10.161  13.622
55994W        W22403  35.767  39.856   2.726
55995W        W22404  36.599  39.527  12.532
55996W        W22405   6.852   4.252  13.987
55997W        W22406  34.661  37.612  12.138
55998W        W22407  37.812  16.956  13.061
55999W        W22408  37.870  32.018  12.462
56000W        W22409  31.553  21.821  13.484
56001W        W22410   3.497  32.156   4.514
56002W        W22411   5.481   6.271  11.467
56003W        W22412  30.602  18.139  14.010
56004W        W22413  33.749  25.610   2.546
56005W        W22414   3.475  41.236   2.607
56006W        W22415   2.792  32.537  11.124
56007W        W22416  30.544  42.931  12.882
56008W        W22417  19.502   8.260  13.412
56009W        W22418  41.486  42.443   4.714
56010W        W22419  26.235  35.995   0.324
56011W        W22420  24.101  12.195   3.913
56012W        W22421   7.457   7.320   2.742
56013W        W22422  38.659  22.058   1.759
56014W        W22423  29.130   0.938   4.116
56015W        W22424   4.137   3.950   2.655
56016W        W22425   9.405  26.684  10.638
56017W        W22426  38.156   3.739  13.441
56018W        W22427  37.550  17.428  13.086
56019W        W22428  31.001   5.295   2.816
56020W        W22429   8.873  20.084   2.842
56021W        W22430  44.955  40.991   0.479
56022W        W22431  24.401  20.564   0.946
56023W        W22432  33.619   0.933   1.725
56024W        W22433  42.252  35.574  11.728
56025W        W22434  21.799  37.946  13.861
56026W        W22435   1.167  19.159   1.629
56027W        W22436  25.628   5.790   4.024
56028W        W22437  17.201  28.463  12.314
56029W        W22438   7.952  39.046  12.198
56030W        W22439   8.913   5.281   0.028
56031W        W22440   9.157  15.357   2.708
56032W        W22441  21.649  27.966  13.542
56033W        W22442   7.730  21.829  11.048
56034W        W22443  21.719   8.440  11.976
56035W        W22444   1.723  33.475  14.017
56036W        W22445  43.512   0.261   4.031
56037W        W22446  18.201  11.681  12.813
56038W        W22447  15.191  30.720   4.207
56039W        W22448  39.815  22.737   3.266
56040W        W22449   4.824  13.587   2.145
56041W        W22450  37.208  29.242   2.871
56042W        W22451  40.850   5.920  12.608
56043W        W22452  13.404  23.667   1.826
56044W        W22453  11.409  42.426  10.969
56045W        W22454  36.929   1.057   3.340
56046W        W22455  16.401   5.462   0.003
56047W        W22456   0.762   0.941   0.805
56048W        W22457  35.985  36.726  13.431
56049W        W22458   5.046  42.870   4.297
56050W        W22459   4.869  31.706   4.555
56051W        W22460  18.447  41.439   0.735
56052W        W22461  19.501  15.195   3.690
56053W        W22462  29.642  42.422   1.416
56054W        W22463  32.134  38.319  13.818
56055W        W22464  43.912  14.733  12.469
56056W        W22465  11.793  28.880   2.456
56057W        W22466  28.903  36.083   2.589
56058W        W22467  10.014  30.014   1.323
56059W        W22468   2.939  26.455   2.768
56060W        W22469  38.044  31.530   3.678
56061W        W22470  25.004  18.406  11.082
56062W        W22471  10.859  34.151  14.734
56063W        W22472   2.466  37.866  11.241
56064W        W22473  44.743  24.469  10.891
56065W        W22474  23.502  38.620   2.687
56066W        W22475  31.942  28.451   1.613
56067W        W22476  34.487  20.530   1.988
56068W        W22477  16.322  21.053   0.026
56069W        W22478  38.541  29.527   3.750
56070W        W22479  24.520   3.903   1.297
56071W        W22480   3.766   5.850  11.654
56072W        W22481  33.891  27.183  13.525
56073W        W22482  15.147  37.495  10.915
56074W        W22483  20.260  31.023  14.468
56075W        W22484  16.123   8.304   1.159
56076W        W22485  13.894  21.709  11.683
56077W        W22486  27.471  21.120  11.659
56078W        W22487   7.575   9.087  12.436
56079W        W22488   8.226  23.042  14.710
56080W        W22489  28.273   8.115   2.253
56081W        W22490   0.885  34.026  13.918
56082W        W22491  41.432   1.806   4.086
56083W        W22492  27.744  38.960  11.992
56084W        W22493  10.364   4.585  11.617
56085W        W22494  11.606  44.727  14.397
56086W        W22495   1.382  42.086  14.363
56087W        W22496   4.337  14.958  13.767
56088W        W22497  14.160   1.418  12.885
56089W        W22498  12.307   5.258  10.617
56090W        W22499   9.632  32.937  13.455
56091W        W22500  31.228   2.153   4.115
56092W        W22501   0.936  27.460  10.950
56093W        W22502   4.188  19.929   0.867
56094W        W22503  11.624   4.878   0.473
56095W        W22504  12.831  14.923   0.662
56096W        W22505  27.512  11.393   3.418
56097W        W22506  39.109  39.193  12.126
56098W        W22507  25.072  23.593   2.212
56099W        W22508  25.970   5.696  11.421
56100W        W22509   6.499  34.512   3.632
56101W        W22510   7.996  37.415  12.845
56102W        W22511  16.073  44.218   0.670
56103W        W22512   6.447   8.384   0.642
56104W        W22513  36.842  17.222   4.557
56105W        W22514  21.238  10.596   3.718
56106W        W22515  16.540  24.886  14.818
56107W        W22516   1.449  38.727  13.082
56108W        W22517  14.301  20.034  10.221
56109W        W22518  32.644  11.219  13.007
56110W        W22519  23.683   6.266  14.720
56111W        W22520  36.468  30.528   1.876
56112W        W22521  34.009  28.411  13.597
56113W        W22522  17.644   8.145   2.616
56114W        W22523  40.493  26.812   2.860
56115W        W22524   9.436  16.954  12.552
56116W        W22525  39.385  34.496   0.952
56117W        W22526   4.905  12.752  10.777
56118W        W22527  39.486  35.888  14.827
56119W        W22528  34.853  30.635  14.802
56120W        W22529  18.272  44.309  12.546
56121W        W22530  16.408  13.782   1.311
56122W        W22531  24.729  36.954  14.980
56123W        W22532  17.654  38.004  13.427
56124W        W22533  27.148  16.012   3.705
56125W        W22534  32.552  37.329  12.548
56126W        W22535  35.130  36.866  11.653
56127W        W22536  22.456  12.252  14.401
56128W        W22537  20.479  27.896  10.779
56129W        W22538  18.189   3.813   0.702
56130W        W22539   3.754  38.318   4.798
56131W        W22540  15.575   0.489  11.438
56132W        W22541  41.913   3.932  12.440
56133W        W22542   6.357  10.439  11.102
56134W        W22543  43.103  15.099   3.240
56135W        W22544  29.648  35.926   4.507
56136W        W22545  27.404  41.459  11.380
56137W        W22546  25.371  17.358  12.411
56138W        W22547  32.085  44.754   3.222
56139W        W22548  42.379  11.370  13.476
56140W        W22549  10.942  31.449  12.210
56141W        W22550  11.470  43.580   3.257
56142W        W22551  10.177  19.210  12.104
56143W        W22552  10.513  14.312  11.339
56144W        W22553  23.186  27.888  14.410
56145W        W22554  36.590   5.761   1.424
56146W        W22555   9.913  31.150   0.886
56147W        W22556  38.407   7.812   4.622
56148W        W22557  26.031  33.124   2.380
56149W        W22558  22.766  12.796   1.380
56150W        W22559   9.671  43.279  12.894
56151W        W22560  21.591  37.363  10.652
56152W        W22561  21.131  43.059  12.476
56153W        W22562  34.352  41.047  12.431
56154W        W22563  43.494  17.527   1.341
56155W        W22564  23.985  27.506   0.016
56156W        W22565  42.811  34.906   4.126
56157W        W22566  15.165  28.722  12.511
56158W        W22567  25.890   6.596  14.723
56159W        W22568  28.418  13.345   0.596
56160W        W22569   0.527  18.804   3.726
56161W        W22570  30.144   5.497  14.043
56162W        W22571  29.484  36.999   1.363
56163W        W22572  15.793  19.349   2.682
56164W        W22573  42.075   2.846  13.988
56165W        W22574  34.575  18.155  14.359
56166W        W22575  31.976  28.852  12.606
56167W        W22576  30.519  22.313  12.445
56168W        W22577  27.723  22.813   1.992
56169W        W22578  16.329  39.967   3.621
56170W        W22579  41.209  15.146  14.748
56171W        W22580  33.205  41.114  11.156
56172W        W22581  26.936  23.063   1.885
56173W        W22582   4.481  22.008   2.195
56174W        W22583   9.671  26.248  10.692
56175W        W22584   0.471  35.020  14.135
56176W        W22585  17.188  15.053   4.598
56177W        W22586  28.049   6.129  13.683
56178W        W22587  35.073  19.199  13.937
56179W        W22588  24.471   2.529  10.615
56180W        W22589   7.440  20.632   0.754
56181W        W22590  34.126   8.708  14.365
56182W        W22591  34.446  40.396   4.170
56183W        W22592  29.396  34.948   0.706
56184W        W22593  23.113   4.264  10.405
56185W        W22594  34.351  24.258  13.893
56186W        W22595   5.598  26.538   3.353
56187W        W22596   1.338  40.499  13.469
56188W        W22597  27.040   5.385  11.483
56189W        W22598  24.039   9.139  10.740
56190W        W22599   3.875   1.493   2.673
56191W        W22600   8.342  23.636   4.720
56192W        W22601  44.725  33.710  11.748
56193W        W22602  40.549   6.506  10.710
56194W        W22603  23.261  22.059   4.022
56195W        W22604  18.261  25.613   0.315
56196W        W22605  24.129  38.358   3.307
56197W        W22606  32.719  34.487  13.892
56198W        W22607  19.075  13.131  14.266
56199W        W22608  19.659  17.135  13.007
56200W        W22609  33.934   0.252   2.813
56201W        W22610  37.278  35.457  12.450
56202W        W22611  34.803  29.154  11.657
56203W        W22612  22.288   2.757   0.926
56204W        W22613  42.971  14.595   4.048
56205W        W22614   4.994  36.574   2.922
56206W        W22615  44.296  33.604  12.672
56207W        W22616  34.306  10.419   3.167
56208W        W22617  27.265  31.566   3.623
56209W        W22618   5.709  29.007   2.878
56210W        W22619  16.773  14.022  12.814
56211W        W22620  24.747   1.964  12.474
56212W        W22621  24.226  11.491   9.939
56213W        W22622   2.339  30.482   3.604
56214W        W22623   8.621   9.375  10.643
56215W        W22624  20.347  29.018   0.809
56216W        W22625   4.663   0.709   4.619
56217W        W22626   7.995  21.688   2.205
56218W        W22627   7.126  41.097  10.917
56219W        W22628  35.339  44.325  13.349
56220W        W22629  18.155  40.507   3.571
56221W        W22630   6.266  33.107  12.556
56222W        W22631   5.119  12.942  12.055
56223W        W22632  15.836   0.041  11.464
56224W        W22633  36.398  33.874   1.438
56225W        W22634  43.410  39.651  12.700
56226W        W22635  29.669  11.651   1.725
56227W        W22636  30.153  26.130  13.120
56228W        W22637  16.472  42.992   2.477
56229W        W22638   0.304   3.813   3.506
56230W        W22639  38.798  44.281  14.731
56231W        W22640  12.371   4.361   1.363
56232W        W22641  38.748  21.112   1.960
56233W        W22642  44.481  27.036  12.357
56234W        W22643  36.082  12.588   4.509
56235W        W22644   1.911  21.800  11.059
56236W        W22645  40.205  30.209  14.507
56237W        W22646  35.760  13.245   4.678
56238W        W22647  23.963   4.028  14.782
56239W        W22648  11.624   7.408  13.513
56240W        W22649   2.983  26.727  14.286
56241W        W22650  28.482  15.999   9.961
56242W        W22651  31.700  32.563  12.659
56243W        W22652  12.769  15.843  14.211
56244W        W22653  34.214   2.911   0.825
56245W        W22654  36.359  28.701   0.426
56246W        W22655  29.478  44.053   3.235
56247W        W22656  12.339  16.277   1.458
56248W        W22657  16.204  36.641   1.758
56249W        W22658  31.156  21.689   0.702
56250W        W22659   1.539  25.721   4.218
56251W        W22660   2.899  34.506  13.180
56252W        W22661  12.140  17.022  12.418
56253W        W22662  27.708  20.640   4.481
56254W        W22663   1.691  18.196  14.619
56255W        W22664  27.146  32.502  12.157
56256W        W22665   2.197   5.834   4.631
56257W        W22666  32.201   8.522  13.507
56258W        W22667  27.881  19.188   1.912
56259W        W22668  14.166  43.449  14.489
56260W        W22669  25.131  17.157  10.732
56261W        W22670  27.536  20.164   0.160
56262W        W22671  14.780   8.731  11.269
56263W        W22672   9.618  30.378  14.524
56264W        W22673  40.652  14.154   0.130
56265W        W22674  25.721  10.274   3.337
56266W        W22675  39.497   0.555   0.879
56267W        W22676  20.253  14.128   3.766
56268W        W22677  34.635   1.970   4.090
56269W        W22678  31.133  35.645   3.114
56270W        W22679  24.681  33.469  13.167
56271W        W22680  20.496  14.420  14.770
56272W        W22681  25.518  26.783   2.786
56273W        W22682  36.235  11.145   3.061
56274W        W22683  30.278  11.677  14.725
56275W        W22684  11.400  23.686  14.058
56276W        W22685  19.349  26.412   2.129
56277W        W22686  40.555  33.660   3.587
56278W        W22687  31.325  28.193   2.883
56279W        W22688  11.071   6.555   4.993
56280W        W22689  19.574  28.604   2.394
56281W        W22690   4.933   3.003  13.827
56282W        W22691  40.302  11.615  11.517
56283W        W22692  32.849  29.974  14.865
56284W        W22693  37.866   5.858   0.459
56285W        W22694  25.169  44.184   2.488
56286W        W22695  22.777  15.517   5.145
56287W        W22696  28.802  15.328  11.696
56288W        W22697  25.474  35.972  13.457
56289W        W22698   8.254  12.284  12.591
56290W        W22699  31.032  38.429   3.664
56291W        W22700  39.060  25.266   2.791
56292W        W22701   5.039   6.818   0.068
56293W        W22702  32.582  16.722  13.254
56294W        W22703  18.556  33.603  14.508
56295W        W22704  17.277  41.523  13.645
56296W        W22705   0.871  18.216  12.853
56297W        W22706  11.863   1.860   5.277
56298W        W22707  16.300  17.625  11.617
56299W        W22708   6.135   9.227  11.470
56300W        W22709  18.094  25.526  14.033
56301W        W22710  33.546  14.049   0.563
56302W        W22711  14.870   3.182   3.858
56303W        W22712  27.696  16.874   3.717
56304W        W22713  34.377  24.431   0.858
56305W        W22714   4.226   4.768  14.801
56306W        W22715  20.984  16.042   1.808
56307W        W22716  17.307   0.544   2.272
56308W        W22717   2.658  21.200  14.749
56309W        W22718   5.784  44.500  13.160
56310W        W22719  25.571   9.836   3.541
56311W        W22720  40.195  13.305  13.930
56312W        W22721  38.459  42.088  11.585
56313W        W22722   4.237  20.709  10.770
56314W        W22723  20.279  24.064   0.822
56315W        W22724  34.779  10.638   1.976
56316W        W22725  10.424   4.089  10.811
56317W        W22726  15.139  23.217  13.467
56318W        W22727   2.255  11.177  10.691
56319W        W22728  40.527  36.536  11.597
56320W        W22729  24.456  39.931   2.784
56321W        W22730   2.692  42.857   0.510
56322W        W22731  19.284  24.967   5.075
56323W        W22732  39.829   8.431  11.568
56324W        W22733   0.835  40.309  14.499
56325W        W22734  33.892  39.336  12.402
56326W        W22735  33.892   1.235   3.720
56327W        W22736  17.229  16.873   3.783
56328W        W22737   5.233   6.010  11.879
56329W        W22738  36.995   3.674  10.907
56330W        W22739   3.633   7.015  12.282
56331W        W22740  23.012  40.457   4.415
56332W        W22741  32.635   2.327   4.337
56333W        W22742   5.014  37.401  11.525
56334W        W22743  41.083  25.262   3.727
56335W        W22744  19.116  16.575   3.626
56336W        W22745  12.193  43.455   4.974
56337W        W22746  29.693   0.284  11.965
56338W        W22747  28.598  27.637   4.407
56339W        W22748  36.562  11.180   2.617
56340W        W22749  24.608  20.253   5.056
56341W        W22750  44.351  17.038  10.687
56342W        W22751  28.060   6.057  13.161
56343W        W22752   5.006  36.552   1.634
56344W        W22753  29.543  33.111   4.998
56345W        W22754  43.679  29.964   0.285
56346W        W22755  40.502  30.661   0.247
56347W        W22756  26.472  15.525  12.064
56348W        W22757   4.910  24.053  12.449
56349W        W22758  36.581  29.793  12.436
56350W        W22759  31.182   0.778   4.140
56351W        W22760   4.361   8.295   3.361
56352W        W22761  17.731  11.900  12.863
56353W        W22762  26.661  21.651  13.019
56354W        W22763   2.843  17.239   1.390
56355W        W22764  22.627   0.550  14.042
56356W        W22765  16.138  21.495   3.567
56357W        W22766   7.540  31.084   1.364
56358W        W22767  19.748  40.033  13.343
56359W        W22768  23.692   3.905   0.223
56360W        W22769  25.537   2.949   1.877
56361W        W22770   1.239  14.565   2.908
56362W        W22771  10.124  38.440  14.759
56363W        W22772  32.888  19.571   2.701
56364W        W22773   5.281  42.473   0.325
56365W        W22774  28.854  18.978  14.648
56366W        W22775   0.233  11.587   0.744
56367W        W22776  40.669  38.953  13.667
56368W        W22777   5.249   2.381  13.875
56369W        W22778  40.062  24.987   2.623
56370W        W22779  24.773  20.484   2.897
56371W        W22780  18.047  44.793  14.720
56372W        W22781  21.420  12.607   0.901
56373W        W22782  14.920  26.137  10.713
56374W        W22783  37.604   9.151   2.602
56375W        W22784  16.063  27.069   3.618
56376W        W22785  29.165  12.808   0.352
56377W        W22786  32.093  26.422   0.925
56378W        W22787  38.914  21.172   1.460
56379W        W22788  34.617  10.158   2.846
56380W        W22789  23.764  16.532   2.317
56381W        W22790  44.310  33.981   2.369
56382W        W22791   0.397  39.456   2.509
56383W        W22792   6.251   0.777   4.174
56384W        W22793  10.735  39.238   1.464
56385W        W22794   0.759  39.427  14.941
56386W        W22795  22.325  34.612   3.130
56387W        W22796  15.328  41.537   1.394
56388W        W22797  26.699  28.027  12.790
56389W        W22798  39.098  34.950  10.688
56390W        W22799  18.177   5.786  10.927
56391W        W22800  31.394  32.643   1.646
56392W        W22801  34.919   0.789   1.371
56393W        W22802   7.765  34.071  12.580
56394W        W22803  44.684   2.254  11.213
56395W        W22804   3.486  20.606  13.501
56396W        W22805  33.966  11.254   0.516
56397W        W22806   3.025   6.854   2.577
56398W        W22807   3.726  21.077  14.446
56399W        W22808  17.693  14.308   0.834
56400W        W22809   7.293  27.921   4.164
56401W        W22810  10.148   2.853  13.332
56402W        W22811   0.330   5.962   3.303
56403W        W22812  22.800  44.818   2.755
56404W        W22813  10.924  23.038   0.859
56405W        W22814  30.112  32.702  12.470
56406W        W22815  19.721  21.623   3.297
56407W        W22816  13.212   5.946   3.669
56408W        W22817  44.276  36.104  13.297
56409W        W22818  35.915  32.812   4.779
56410W        W22819  38.149  37.430  14.923
56411W        W22820  19.495   4.324  13.817
56412W        W22821  30.476   1.368  13.443
56413W        W22822  18.896  30.546   3.854
56414W        W22823  42.047  27.643  14.380
56415W        W22824   6.514   7.405  13.802
56416W        W22825  10.858  22.512  10.884
56417W        W22826  40.577  16.795   2.881
56418W        W22827  40.573  34.562  12.006
56419W        W22828  18.250  27.777  14.523
56420W        W22829  31.800  17.746   1.960
56421W        W22830  21.983  26.485  12.780
56422W        W22831  40.875   5.119   2.102
56423W        W22832  30.776  18.617  10.575
56424W        W22833  15.771  31.127   2.221
56425W        W22834  31.715  44.401  14.826
56426W        W22835  11.170  39.941   0.874
56427W        W22836  43.499   4.934  13.726
56428W        W22837  10.605  40.026  13.970
56429W        W22838   6.416  38.058  13.477
56430W        W22839  29.722  38.580  13.506
56431W        W22840  40.477   9.339  12.064
56432W        W22841  11.099   4.762  13.958
56433W        W22842  34.049  27.124   2.938
56434W        W22843  33.537  17.116  13.939
56435W        W22844   4.348  40.512   0.970
56436W        W22845   6.030  34.619  11.546
56437W        W22846  13.744   0.762  11.857
56438W        W22847  15.586  34.090   2.192
56439W        W22848  11.274  38.455   1.696
56440W        W22849  43.489   8.820  11.200
56441W        W22850  38.504  10.784   3.453
56442W        W22851  29.413   3.484   1.301
56443W        W22852  19.872   9.872   3.791
56444W        W22853  21.549  21.109   1.036
56445W        W22854  13.360  17.013  12.833
56446W        W22855  29.691   9.136  10.270
56447W        W22856  19.262  34.492  14.417
56448W        W22857  42.491  40.061   1.356
56449W        W22858  22.737  14.565  14.589
56450W        W22859  40.873  30.454   4.027
56451W        W22860   4.799  16.246   5.102
56452W        W22861  27.518  25.604  12.629
56453W        W22862  38.850  24.234  14.203
56454W        W22863  22.078   0.468   3.671
56455W        W22864  37.587  35.789  11.540
56456W        W22865  16.140  23.669   2.327
56457W        W22866   3.881  40.298   1.751
56458W        W22867   7.206  24.797  11.576
56459W        W22868  40.522  20.145   4.050
56460W        W22869  10.208  29.806   3.608
56461W        W22870  30.545  16.325   3.758
56462W        W22871  36.481  21.518  14.402
56463W        W22872  33.874  43.668  12.992
56464W        W22873   5.035  13.299   2.819
56465W        W22874  33.308  44.371  13.340
56466W        W22875  41.926   9.746  12.189
56467W        W22876   0.431  17.195  14.359
56468W        W22877  19.572  26.948  12.975
56469W        W22878  15.189   3.357   1.685
56470W        W22879  44.778  31.374   0.266
56471W        W22880  15.142   4.443  11.047
56472W        W22881  41.222  35.561   0.429
56473W        W22882   6.738  14.669  10.454
56474W        W22883  18.282  38.060  12.605
56475W        W22884   4.777  27.172  14.079
56476W        W22885   9.375  36.885   0.787
56477W        W22886   3.789   4.270  13.438
56478W        W22887  23.906  33.870   4.493
56479W        W22888  16.132  29.389  11.894
56480W        W22889   0.858  38.765  11.820
56481W        W22890  29.483   1.221  10.188
56482W        W22891  14.420  29.412  14.822
56483W        W22892  25.533  25.178   1.535
56484W        W22893  27.731  42.266   3.711
56485W        W22894  35.604  25.565   1.844
56486W        W22895   2.366  20.518   1.322
56487W        W22896  11.308  43.100   3.138
56488W        W22897  35.524  42.540   3.273
56489W        W22898  35.537  37.093  12.546
56490W        W22899   0.390  25.952   4.589
56491W        W22900  19.502  20.119  11.555
56492W        W22901  28.025  29.662   0.378
56493W        W22902  34.152  19.280  13.482
56494W        W22903  36.364  29.223   0.471
56495W        W22904   2.978  31.877   1.247
56496W        W22905  24.054  28.122   1.397
56497W        W22906   3.425  43.232   2.378
56498W        W22907  15.808   2.887   4.831
56499W        W22908  40.660  25.660   0.252
56500W        W22909  21.078  38.962  14.079
56501W        W22910  39.429   8.684  13.045
56502W        W22911  19.628  37.807  12.536
56503W        W22912   1.386  25.580  14.415
56504W        W22913  25.542  43.515  14.084
56505W        W22914  40.436   2.444   0.883
56506W        W22915  43.497  20.977  14.909
56507W        W22916   4.448  32.040   4.638
56508W        W22917  15.232  28.689   3.115
56509W        W22918  39.686   1.850  11.690
56510W        W22919  16.714  18.709   3.714
56511W        W22920  27.199  33.436  14.860
56512W        W22921  25.730  28.946  14.827
56513W        W22922   6.649  43.516   3.666
56514W        W22923  23.112  16.852  12.994
56515W        W22924   4.230  13.327  10.801
56516W        W22925   5.266  34.456  12.014
56517W        W22926   5.796  22.870  14.241
56518W        W22927   6.775  26.936   3.304
56519W        W22928  35.600  28.909  12.855
56520W        W22929  42.668  28.462   3.487
56521W        W22930  14.979  41.727   2.692
56522W        W22931  14.524   0.868  11.667
56523W        W22932  44.515  42.483  14.340
56524W        W22933  11.557  17.974   4.098
56525W        W22934  34.492  42.031   1.206
56526W        W22935   9.885  27.001   1.515
56527W        W22936  44.431  18.872  13.878
56528W        W22937   4.883   0.858   2.735
56529W        W22938  40.061   5.986  12.094
56530W        W22939  19.961  29.937   1.343
56531W        W22940  40.437   8.959  11.709
56532W        W22941  28.025  11.663   4.642
56533W        W22942  34.078   2.893  14.295
56534W        W22943  39.358  25.016   3.676
56535W        W22944  42.365   4.265  14.916
56536W        W22945   9.916  18.014   2.787
56537W        W22946  21.713   6.741   4.708
56538W        W22947  41.405  24.487   3.651
56539W        W22948  10.067  40.981  14.024
56540W        W22949  14.149   9.640   1.182
56541W        W22950  21.599  39.063   2.298
56542W        W22951  41.010  44.463  11.612
56543W        W22952  21.517  29.978   1.385
56544W        W22953   1.080  16.389   4.138
56545W        W22954  29.027  12.092  14.299
56546W        W22955  36.758  39.408   0.448
56547W        W22956   1.653  10.707   4.612
56548W        W22957  41.551  11.240   0.685
56549W        W22958  19.694  32.080   1.284
56550W        W22959  29.632  16.079   0.743
56551W        W22960  27.188  38.305  12.420
56552W        W22961   2.211  37.146  10.738
56553W        W22962  14.817  26.279  14.409
56554W        W22963  38.066  31.611   1.864
56555W        W22964  26.491  34.167   0.727
56556W        W22965   6.914  31.571  12.202
56557W        W22966  13.623   2.905  13.157
56558W        W22967  30.678  13.670   2.835
56559W        W22968  30.932   9.697  11.497
56560W        W22969   6.820  18.823  14.821
56561W        W22970  13.579  22.825  10.940
56562W        W22971  26.651  27.422  11.251
56563W        W22972   6.636  13.685   4.527
56564W        W22973  30.114   4.190  12.307
56565W        W22974  40.916   0.348  11.963
56566W        W22975  30.363  13.705  10.685
56567W        W22976  26.294  39.165   2.363
56568W        W22977   7.275  40.882   2.338
56569W        W22978  31.440  21.832  11.479
56570W        W22979  33.357  18.269  12.067
56571W        W22980  39.951  32.956   3.679
56572W        W22981  25.632  19.718  10.238
56573W        W22982  20.063  40.380  12.955
56574W        W22983  39.143  20.708   4.605
56575W        W22984  41.438  43.475   2.148
56576W        W22985  40.571  23.584   0.951
56577W        W22986  35.608   4.290   3.236
56578W        W22987  38.778   6.773  11.259
56579W        W22988  19.275  25.213  14.488
56580W        W22989  26.503  28.034   1.137
56581W        W22990  41.211  29.445  11.131
56582W        W22991  20.741   4.219  12.831
56583W        W22992  15.348   4.196  12.016
56584W        W22993  25.996  23.505   1.204
56585W        W22994  33.206   5.020   2.629
56586W        W22995  38.130  36.347  13.545
56587W        W22996  40.511  42.348   0.242
56588W        W22997  20.632  30.427   2.330
56589W        W22998   4.296  24.042   4.782
56590W        W22999  12.158  33.877   1.209
56591W        W23000  18.110  15.206   3.626
56592W        W23001  43.464  28.920  12.169
56593W        W23002   7.316  30.475   4.541
56594W        W23003   9.286  21.536  11.735
56595W        W23004  25.049  21.779   3.166
56596W        W23005  29.489  23.788   1.374
56597W        W23006  15.636  14.553  10.205
56598W        W23007  44.897  33.980  12.144
56599W        W23008  17.549  43.896  13.614
56600W        W23009  33.288  11.953  11.559
56601W        W23010  42.457  31.156  14.865
56602W        W23011  35.024  18.350   2.486
56603W        W23012  12.777  32.854  11.581
56604W        W23013  30.994  38.770  14.269
56605W        W23014  12.554  44.468   1.584
56606W        W23015  34.672  41.536  11.165
56607W        W23016  10.782  21.973   0.057
56608W        W23017   8.109  26.122   1.682
56609W        W23018  34.336  18.751  13.619
56610W        W23019  14.348  43.897   3.189
56611W        W23020   6.927  43.196  11.957
56612W        W23021  10.436  28.137  10.843
56613W        W23022  20.513  31.442  11.547
56614W        W23023  27.321  22.585  11.498
56615W        W23024  21.188   2.249   2.183
56616W        W23025   5.158  18.635   0.440
56617W        W23026  32.066   6.719  13.724
56618W        W23027  33.434  12.762   1.867
56619W        W23028   6.866   1.730   0.540
56620W        W23029   5.319  43.968  10.653
56621W        W23030   8.922  22.508   0.580
56622W        W23031   8.353  27.143  11.873
56623W        W23032   6.953  37.229  12.607
56624W        W23033  17.178  35.647   2.837
56625W        W23034  32.419  17.181   2.974
56626W        W23035   1.364  24.114  13.529
56627W        W23036  22.467  12.846  11.820
56628W        W23037   7.835  23.328   1.428
56629W        W23038  43.002   8.914  14.491
56630W        W23039  31.978   9.201   0.722
56631W        W23040  28.883  37.172  12.815
56632W        W23041  36.911  16.298   1.631
56633W        W23042  32.102  20.166  12.957
56634W        W23043  12.782  19.547  13.457
56635W        W23044  31.373   8.851  12.451
56636W        W23045  10.228  25.684   1.965
56637W        W23046  18.698  33.251   4.701
56638W        W23047  38.579  31.339   0.397
56639W        W23048  35.263  13.659   0.996
56640W        W23049  33.652   8.052  12.992
56641W        W23050  23.577  35.859  14.009
56642W        W23051  33.003   5.862  10.407
56643W        W23052  21.927   6.281  14.936
56644W        W23053  12.868  38.846  12.830
56645W        W23054  29.881  42.913   0.331
56646W        W23055  36.442  17.800  13.884
56647W        W23056  44.162   8.739  12.863
56648W        W23057  27.753  38.427   1.851
56649W        W23058  32.382   8.342   1.060
56650W        W23059  36.429  36.902   2.394
56651W        W23060   3.787  43.090  13.408
56652W        W23061   7.049  43.351  13.643
56653W        W23062  34.107  15.122  10.473
56654W        W23063  18.272  15.541   4.564
56655W        W23064  40.024  16.024   4.307
56656W        W23065  35.032  17.972  14.636
56657W        W23066   4.846  29.384  12.849
56658W        W23067  25.241  19.275   4.549
56659W        W23068  40.425  17.536   3.183
56660W        W23069   1.136  10.651   3.508
56661W        W23070   6.241  43.318   3.955
56662W        W23071  30.246  35.443   4.116
56663W        W23072  17.614  33.938   4.138
56664W        W23073   3.955  43.262  11.160
56665W        W23074  39.267  43.744   2.103
56666W        W23075   7.681  37.463  11.829
56667W        W23076  39.701  33.469   3.795
56668W        W23077  35.388  28.890   1.215
56669W        W23078  16.790  39.130   0.738
56670W        W23079  15.270  19.743  13.382
56671W        W23080  39.525  29.676   1.695
56672W        W23081  28.108  24.939   1.291
56673W        W23082  38.960  15.809   9.957
56674W        W23083  39.002  38.854   4.544
56675W        W23084  41.524  44.851   3.201
56676W        W23085  12.658  31.065  13.872
56677W        W23086  30.589  27.589  12.465
56678W        W23087  37.069   5.074  14.625
56679W        W23088  38.773  15.582  12.507
56680W        W23089   3.384  31.513   1.012
56681W        W23090  20.421  26.159  14.822
56682W        W23091  11.986  24.832  10.291
56683W        W23092   6.112  40.993   1.669
56684W        W23093  24.848   9.666  11.644
56685W        W23094  41.967  15.200  10.991
56686W        W23095  18.396  32.562  12.888
56687W        W23096  31.400  29.795   0.048
56688W        W23097  17.205  41.004  11.487
56689W        W23098   1.691  27.709  13.975
56690W        W23099  28.608  13.458   2.373
56691W        W23100  29.102  36.744  11.596
56692W        W23101  44.794  26.034   4.240
56693W        W23102  23.711  42.002   3.330
56694W        W23103   4.634  44.630  14.506
56695W        W23104  15.176  44.271   4.581
56696W        W23105  13.208  13.752   0.687
56697W        W23106  11.387  11.694   3.246
56698W        W23107  34.531  15.277   0.403
56699W        W23108  30.027   4.519   3.664
56700W        W23109  37.491  22.221  13.569
56701W        W23110  28.038  20.293   0.309
56702W        W23111  33.491  29.149  13.501
56703W        W23112  25.784   6.524  13.365
56704W        W23113   7.817  32.614   0.749
56705W        W23114   2.702   8.629  13.889
56706W        W23115  38.187  39.552  13.505
56707W        W23116  28.808  44.919  13.756
56708W        W23117   5.123  34.599   3.392
56709W        W23118  32.395  13.786   1.619
56710W        W23119  43.978  12.716   4.646
56711W        W23120  11.840  10.086  12.355
56712W        W23121   6.696   1.972  14.444
56713W        W23122  29.503  25.025   2.322
56714W        W23123   7.915   2.764  13.975
56715W        W23124  28.618   3.401  13.323
56716W        W23125  32.018  22.230   4.246
56717W        W23126   2.470   7.996   1.177
56718W        W23127  36.599  38.128   2.948
56719W        W23128  23.363  42.356  11.499
56720W        W23129  28.136  34.554  11.549
56721W        W23130  17.550   8.175   0.739
56722W        W23131   1.165   5.254   4.590
56723W        W23132  21.181  24.661  12.493
56724W        W23133   5.587  15.682  14.850
56725W        W23134  12.437   2.042   4.031
56726W        W23135  20.151  41.936   3.814
56727W        W23136  20.690   2.842  13.399
56728W        W23137  22.229  16.067   3.465
56729W        W23138  31.093  38.952   2.888
56730W        W23139  44.393  14.170  13.092
56731W        W23140  41.277  16.166  12.180
56732W        W23141  34.022  25.064  13.829
56733W        W23142  28.282   9.757  11.667
56734W        W23143  41.744  13.642   3.613
56735W        W23144  29.081  31.972  11.588
56736W        W23145  41.786  35.954  12.834
56737W        W23146  15.602  26.320  13.348
56738W        W23147   0.966  32.774   4.149
56739W        W23148  12.071  43.997  12.023
56740W        W23149  32.082  30.315   4.062
56741W        W23150  31.772  13.885  14.365
56742W        W23151  34.452  29.893   4.607
56743W        W23152  41.921  17.947   3.718
56744W        W23153  24.480  12.424   4.858
56745W        W23154  28.553  28.284  12.372
56746W        W23155  39.769  32.393  11.109
56747W        W23156  16.728  38.617  11.851
56748W        W23157  25.786  31.878  12.499
56749W        W23158   9.353  23.919   3.357
56750W        W23159  12.168  41.702  12.886
56751W        W23160   3.520  11.769   4.189
56752W        W23161  40.441  28.855   0.882
56753W        W23162  39.061   8.271   1.391
56754W        W23163   6.438   8.894  14.409
56755W        W23164  16.999  25.482  11.498
56756W        W23165  19.465   6.544   3.909
56757W        W23166  35.402  14.911  12.622
56758W        W23167  29.285  40.560  11.054
56759W        W23168  32.818  42.945   0.849
56760W        W23169  16.670  22.632   4.114
56761W        W23170  26.381  22.214  14.821
56762W        W23171   4.964   3.525  11.135
56763W        W23172  22.668   7.103  14.789
56764W        W23173  16.158  33.405   0.751
56765W        W23174  26.044  14.710   4.796
56766W        W23175  13.199  31.451  14.039
56767W        W23176  16.700  15.008   1.765
56768W        W23177  36.632  41.643  12.896
56769W        W23178   2.275   2.224   1.945
56770W        W23179   3.062   7.868   0.338
56771W        W23180  32.041  27.738   0.544
56772W        W23181  43.342  39.574   4.143
56773W        W23182  39.036   3.021  12.548
56774W        W23183  21.146  27.447  11.593
56775W        W23184   8.792  14.198  13.454
56776W        W23185   1.350  31.859  11.628
56777W        W23186  26.957  10.460   2.597
56778W        W23187   6.895  10.222  11.013
56779W        W23188  33.532  16.408  11.903
56780W        W23189  14.653   5.350   3.967
56781W        W23190   0.766  25.387  13.923
56782W        W23191  16.488  43.393  11.565
56783W        W23192  38.461  25.708  10.779
56784W        W23193  41.303  10.412  14.363
56785W        W23194   7.059  18.729   0.306
56786W        W23195  20.625  20.141   2.660
56787W        W23196  21.743   5.366  11.224
56788W        W23197  30.468  23.540  12.105
56789W        W23198  37.080  33.566  11.637
56790W        W23199   6.634  40.354  11.914
56791W        W23200  30.914   0.944   3.626
56792W        W23201   7.954   1.530  13.986
56793W        W23202   6.850  30.709   4.686
56794W        W23203  24.888  25.284   0.740
56795W        W23204  20.753  29.763  10.737
56796W        W23205  28.768  44.532   4.123
56797W        W23206   2.800  37.606  14.367
56798W        W23207  40.029  24.678   3.465
56799W        W23208  18.984  44.507  10.683
56800W        W23209  30.949  21.207   1.384
56801W        W23210  10.404   0.892  13.942
56802W        W23211  42.766  39.401  12.374
56803W        W23212   3.218   9.766  13.557
56804W        W23213  42.953  42.757  13.222
56805W        W23214  34.565  16.333  11.543
56806W        W23215  18.342  19.505   3.588
56807W        W23216  17.301  38.835  14.894
56808W        W23217  14.796   6.818   3.622
56809W        W23218  21.264  10.716   2.683
56810W        W23219  37.800   3.749   0.911
56811W        W23220  38.944  29.648  11.515
56812W        W23221  33.537  39.982  12.330
56813W        W23222  42.787  33.175  11.598
56814W        W23223  30.278  19.966   1.320
56815W        W23224   6.598  15.712  11.966
56816W        W23225  34.198  17.083  10.779
56817W        W23226  17.555   0.396   0.908
56818W        W23227  25.446  18.810   4.596
56819W        W23228  28.037  41.592  12.961
56820W        W23229  32.459  24.729   1.730
56821W        W23230  19.602  28.207  13.939
56822W        W23231  43.561   5.159  12.555
56823W        W23232  13.329  25.457  14.305
56824W        W23233  37.135   8.361  11.189
56825W        W23234  14.375  20.640   2.031
56826W        W23235  44.966  25.539   0.424
56827W        W23236  38.951  21.424   3.204
56828W        W23237  13.434  38.998   4.942
56829W        W23238  35.485  34.147  12.217
56830W        W23239  34.084  38.964  14.407
56831W        W23240  23.279  37.861   2.455
56832W        W23241  32.081  22.562  12.497
56833W        W23242  15.121  40.864  11.098
56834W        W23243  41.935  12.880  14.886
56835W        W23244   1.118  29.064  10.187
56836W        W23245  35.102   0.414   0.787
56837W        W23246  29.083  27.045   3.905
56838W        W23247  33.527   8.110  10.030
56839W        W23248  37.436  20.379   4.490
56840W        W23249   7.370  33.092   3.235
56841W        W23250   5.061   2.023   2.170
56842W        W23251  24.260  16.282   1.392
56843W        W23252   7.782  28.889   0.690
56844W        W23253  38.275  31.912  12.806
56845W        W23254  17.156  18.266   0.438
56846W        W23255  17.784  22.728  10.721
56847W        W23256  29.434  34.885  11.543
56848W        W23257  22.105  18.128   0.923
56849W        W23258  21.671  30.536  14.820
56850W        W23259  34.811  33.411  13.875
56851W        W23260  44.328   1.782   2.532
56852W        W23261  16.833   2.605  12.011
56853W        W23262  39.408  21.733   2.411
56854W        W23263  44.307  44.976  13.903
56855W        W23264  43.545  30.177   1.385
56856W        W23265  40.963   4.511  12.065
56857W        W23266  42.795  18.262  11.214
56858W        W23267  32.276   6.791  11.936
56859W        W23268  23.453  22.232   0.832
56860W        W23269  18.859   7.787  11.932
56861W        W23270  38.296  44.825  11.523
56862W        W23271  37.396   3.786  12.835
56863W        W23272  20.791  41.015  12.911
56864W        W23273   4.873   9.483  10.101
56865W        W23274  18.082  31.908  14.375
56866W        W23275  35.641  33.155   3.211
56867W        W23276  15.801  44.906   0.282
56868W        W23277  11.510  39.908  12.448
56869W        W23278  40.536  21.352  12.530
56870W        W23279   6.369  42.401   2.216
56871W        W23280  18.815   7.285  13.107
56872W        W23281  21.480  31.263  10.790
56873W        W23282  17.091  21.742  13.540
56874W        W23283   2.208  11.803   2.937
56875W        W23284  42.793  33.379  13.673
56876W        W23285  28.128  39.107   4.163
56877W        W23286   6.694  31.244   4.535
56878W        W23287  32.810  35.846   0.781
56879W        W23288   6.638   8.008   4.181
56880W        W23289  13.147  19.875   4.502
56881W        W23290  35.341  25.729   4.192
56882W        W23291  14.550  44.604  12.507
56883W        W23292  27.425   7.780   0.449
56884W        W23293  19.547   4.593  14.268
56885W        W23294   1.535   4.020  11.477
56886W        W23295   0.638  24.558  13.641
56887W        W23296  41.691  16.979   3.498
56888W        W23297  15.726  36.813   3.451
56889W        W23298  40.779   2.851  14.170
56890W        W23299  18.539  21.047   1.241
56891W        W23300   7.761  22.561   3.595
56892W        W23301  22.265   5.962  13.960
56893W        W23302   0.553   5.783  10.671
56894W        W23303   9.420  35.862  11.469
56895W        W23304  18.360  14.566   3.320
56896W        W23305  31.589   6.105  12.062
56897W        W23306   6.379   4.316   4.798
56898W        W23307  41.535  27.181   1.289
56899W        W23308   2.157  33.646  12.064
56900W        W23309   1.528   4.469  14.710
56901W        W23310  30.751  34.378   3.139
56902W        W23311  22.243  22.183   3.597
56903W        W23312  32.796  10.619  12.451
56904W        W23313  36.460  12.175   4.412
56905W        W23314  29.027  18.781   1.340
56906W        W23315  14.298  14.272  14.663
56907W        W23316  14.381   3.685   3.263
56908W        W23317  14.274  28.049   4.499
56909W        W23318  35.044   4.263   4.866
56910W        W23319  28.180  41.317  12.556
56911W        W23320  32.914   6.034   2.410
56912W        W23321   4.339   1.708   2.707
56913W        W23322  27.151  21.943   3.868
56914W        W23323  25.054   9.355   3.096
56915W        W23324  43.934  39.620   1.193
56916W        W23325  14.723  43.040   3.239
56917W        W23326  20.020   4.809  14.286
56918W        W23327  19.132   2.442   3.238
56919W        W23328  17.370   2.001  11.687
56920W        W23329  40.232   7.798  10.873
56921W        W23330   0.277  42.475   4.016
56922W        W23331  10.547  10.556   0.932
56923W        W23332  17.669   9.876  12.008
56924W        W23333  36.117  14.092   0.804
56925W        W23334  37.146  43.406  14.072
56926W        W23335  10.577  18.369  11.985
56927W        W23336  10.918   4.859   4.558
56928W        W23337   1.964  10.382   0.682
56929W        W23338  40.087  18.939   4.008
56930W        W23339  13.310  38.956  13.578
56931W        W23340   3.734  41.817  12.665
56932W        W23341   3.004  29.284  13.562
56933W        W23342   0.689  20.553  10.423
56934W        W23343  15.150   2.431  10.724
56935W        W23344  13.335   6.988   3.616
56936W        W23345  15.735   0.677   0.883
56937W        W23346  14.537  43.348  14.131
56938W        W23347  15.588  40.371   1.807
56939W        W23348  23.939  43.069  11.453
56940W        W23349   4.790  14.529  11.664
56941W        W23350  34.151   2.141  13.099
56942W        W23351   2.748   0.027  12.885
56943W        W23352  26.454   7.245  14.029
56944W        W23353  20.174  37.265  14.355
56945W        W23354  30.669  10.691  13.085
56946W        W23355  44.255   2.651  13.939
56947W        W23356  26.469  40.621  14.928
56948W        W23357  32.576   6.713  13.753
56949W        W23358   7.152  12.583   2.648
56950W        W23359  36.925  34.039   0.247
56951W        W23360  21.125  16.929  12.089
56952W        W23361  15.911  29.394   3.276
56953W        W23362  15.855  42.831  12.630
56954W        W23363  34.848  27.049   3.127
56955W        W23364  14.456  15.609   0.952
56956W        W23365  28.347  10.378   4.898
56957W        W23366  12.697   3.302  14.000
56958W        W23367  32.970  43.055  13.904
56959W        W23368  18.112  13.759  13.407
56960W        W23369  41.591  26.444  10.756
56961W        W23370  10.202  43.518  11.974
56962W        W23371  36.100  13.838  13.493
56963W        W23372  44.925  39.434   0.152
56964W        W23373  25.530  31.566   3.838
56965W        W23374  26.473  33.408  12.813
56966W        W23375  20.485  38.761   1.341
56967W        W23376  21.136  40.591   3.786
56968W        W23377   9.223  25.919  11.357
56969W        W23378  43.863  13.861   4.117
56970W        W23379  37.902  19.624   0.483
56971W        W23380  17.150  19.351   1.155
56972W        W23381  25.726   0.424   0.936
56973W        W23382   7.208  13.860  12.852
56974W        W23383  12.651   2.229   5.238
56975W        W23384  28.315   9.637   3.082
56976W        W23385  35.030  10.022  11.169
56977W        W23386   3.084  26.194   2.207
56978W        W23387  13.628  41.110   1.059
56979W        W23388  32.751   2.966   3.095
56980W        W23389  34.499  30.177   3.304
56981W        W23390  20.134  33.919  13.027
56982W        W23391  20.620  39.081  14.364
56983W        W23392  32.193  23.275  12.199
56984W        W23393  28.566  30.351  13.016
56985W        W23394  36.251  34.671   2.559
56986W        W23395  13.743   2.801  12.156
56987W        W23396  14.099   2.563   1.242
56988W        W23397   1.406   7.214  13.917
56989W        W23398   0.057   8.373   2.789
56990W        W23399  35.523  11.206   1.507
56991W        W23400  14.800  24.257  11.996
56992W        W23401  44.718  11.361  13.910
56993W        W23402  32.227  44.328   4.082
56994W        W23403  11.757  32.976  14.881
56995W        W23404  28.473  13.277  12.935
56996W        W23405  18.447   0.997   1.330
56997W        W23406  25.657  26.574   4.125
56998W        W23407  44.759   0.331  14.992
56999W        W23408  30.046   2.783  14.750
57000W        W23409  42.021   8.444  14.598
57001W        W23410   1.270  28.421   1.323
57002W        W23411  42.968  15.802   5.080
57003W        W23412  10.927  33.591  12.233
57004W        W23413  26.536  23.778   4.687
57005W        W23414  41.861  35.055   4.183
57006W        W23415  38.572   9.462   3.473
57007W        W23416  35.352  34.037   2.798
57008W        W23417  27.032  19.871  12.859
57009W        W23418  25.569  15.490  11.238
57010W        W23419   1.172  11.332   0.964
57011W        W23420  32.104  41.211   1.841
57012W        W23421  11.005  41.691  14.328
57013W        W23422  13.371  18.907  14.282
57014W        W23423  34.053  36.661   4.225
57015W        W23424  27.603  14.300   4.025
57016W        W23425  26.628  43.090  13.996
57017W        W23426  13.647  27.456  10.668
57018W        W23427   4.710  36.840   1.926
57019W        W23428  36.679  16.348  13.293
57020W        W23429  34.354  30.190   1.046
57021W        W23430  37.812  39.049   0.709
57022W        W23431  35.312  20.031   3.851
57023W        W23432  36.445  29.405   3.891
57024W        W23433  30.578   2.077   4.929
57025W        W23434  26.463  24.690  13.488
57026W        W23435  32.556  10.297  13.773
57027W        W23436   9.154  22.470  12.526
57028W        W23437  26.934   2.155  13.449
57029W        W23438  20.678  17.046  14.483
57030W        W23439  36.020  27.229  11.742
57031W        W23440  41.159  42.164  11.531
57032W        W23441  27.488   8.255  14.319
57033W        W23442  41.772  13.644   2.101
57034W        W23443   9.893   6.180  12.132
57035W        W23444  35.548  35.563   4.051
57036W        W23445  24.100  38.472   1.849
57037W        W23446  36.989  23.464   2.173
57038W        W23447  37.691   6.873   3.261
57039W        W23448  19.405  29.883   2.136
57040W        W23449   6.588  30.351  13.505
57041W        W23450  30.430  27.062  14.538
57042W        W23451  29.574  39.075  13.561
57043W        W23452  33.616  36.753  10.777
57044W        W23453  38.972   3.486  12.162
57045W        W23454  15.570  19.346   1.217
57046W        W23455  27.235  28.022  12.043
57047W        W23456  22.138  14.733   2.772
57048W        W23457  38.778  18.588  14.174
57049W        W23458  15.579  11.357   2.131
57050W        W23459  21.280   9.213  14.895
57051W        W23460   4.818  40.300   0.862
57052W        W23461  39.094   6.378   2.209
57053W        W23462  33.533  28.084   1.323
57054W        W23463   7.636  38.477   1.487
57055W        W23464  24.519  29.200  11.531
57056W        W23465  31.394   1.131   3.598
57057W        W23466  44.386  21.442  14.787
57058W        W23467  12.857   3.321   1.309
57059W        W23468   7.418  21.002   3.155
57060W        W23469  17.306   2.484   1.589
57061W        W23470  34.120  26.248   4.095
57062W        W23471  26.592  35.800  11.642
57063W        W23472  22.210  19.240   4.087
57064W        W23473  37.573   9.229   1.266
57065W        W23474  35.397  19.350   0.331
57066W        W23475  11.332  23.633   0.405
57067W        W23476  25.715  35.978   4.193
57068W        W23477  20.225  21.661   2.552
57069W        W23478   3.971   0.351  12.942
57070W        W23479  34.723  19.713  11.962
57071W        W23480  40.939  27.105   4.400
57072W        W23481  37.467  14.648  12.852
57073W        W23482  35.934  23.672   4.437
57074W        W23483   4.588   1.326  10.870
57075W        W23484  43.862  41.877   4.921
57076W        W23485  22.212   7.034  13.067
57077W        W23486   6.890  44.902   1.315
57078W        W23487   3.645  36.136   4.994
57079W        W23488   9.188   5.296   0.472
57080W        W23489  42.556  33.087  12.042
57081W        W23490  10.055   2.466   4.489
57082W        W23491  23.221  37.039  12.023
57083W        W23492  28.722   1.656   1.894
57084W        W23493  18.311   0.536  13.501
57085W        W23494   5.385   5.211   2.184
57086W        W23495  27.873  43.476   0.935
57087W        W23496  42.920   4.469  14.885
57088W        W23497  28.293  29.163  12.218
57089W        W23498  13.334   8.475  11.038
57090W        W23499  11.040  42.247  14.510
57091W        W23500  18.156  20.083   4.763
57092W        W23501  13.341  16.157  13.617
57093W        W23502  19.716  21.981   4.100
57094W        W23503  17.798   3.248  12.089
57095W        W23504  21.852  31.089   2.706
57096W        W23505  11.797  43.308  12.674
57097W        W23506  31.869  38.354  14.735
57098W        W23507  38.469   0.775  11.909
57099W        W23508  11.535  11.401   2.807
57100W        W23509  19.510   5.463   2.755
57101W        W23510  14.697  32.241  12.628
57102W        W23511  28.309  17.066  11.136
57103W        W23512   4.302  31.064  12.701
57104W        W23513  26.023  19.529  12.425
57105W        W23514  39.060  44.232  10.033
57106W        W23515  28.494   7.479   1.886
57107W        W23516  28.729  42.455   0.918
57108W        W23517  29.270   3.678   1.798
57109W        W23518   9.446  27.600   2.235
57110W        W23519  11.999  13.524  12.293
57111W        W23520  12.275  42.734   1.167
57112W        W23521  12.076  44.583   1.741
57113W        W23522   9.352  13.902   4.978
57114W        W23523  29.149  11.734   1.805
57115W        W23524  15.318   2.952  14.379
57116W        W23525   6.686  19.193   1.282
57117W        W23526  24.107  19.748   0.046
57118W        W23527  38.555   7.897   0.799
57119W        W23528  13.398   6.831  14.473
57120W        W23529  35.861  22.696   1.672
57121W        W23530  20.235  14.089  14.455
57122W        W23531  21.814   6.295   0.961
57123W        W23532  37.603  41.796   2.701
57124W        W23533  19.659  41.329  13.818
57125W        W23534   2.756  19.356   3.297
57126W        W23535   8.609   2.158   0.364
57127W        W23536  26.813  37.666  10.677
57128W        W23537  44.334  34.622   3.316
57129W        W23538   7.229  30.721  12.943
57130W        W23539   2.245  32.078  13.202
57131W        W23540  14.470  36.025   3.721
57132W        W23541   3.720  21.979   1.809
57133W        W23542   1.810   7.691   1.732
57134W        W23543  20.516  35.494   3.921
57135W        W23544  25.032  44.442  13.054
57136W        W23545  10.567  16.234   1.605
57137W        W23546  41.890   0.301   2.079
57138W        W23547  11.975   2.368  12.149
57139W        W23548  35.898   5.232  12.709
57140W        W23549  44.008  25.668   0.792
57141W        W23550  13.228  40.711  12.454
57142W        W23551  26.617   8.884   3.735
57143W        W23552  25.554   9.115  12.794
57144W        W23553  44.415  12.660   1.374
57145W        W23554  20.346  33.463   1.181
57146W        W23555  39.415  11.878  13.366
57147W        W23556  23.720  30.889   3.738
57148W        W23557  26.529  28.196  14.281
57149W        W23558  36.348  35.772  14.034
57150W        W23559  31.952  41.264  11.664
57151W        W23560  11.158  21.051  14.379
57152W        W23561  28.999  23.569   4.185
57153W        W23562  40.224  20.132   3.634
57154W        W23563   4.723  17.774  14.957
57155W        W23564  15.783  12.650   1.736
57156W        W23565  21.880  10.626  14.704
57157W        W23566  32.555  24.715   3.807
57158W        W23567  13.033  27.057  14.940
57159W        W23568   1.866   6.190  11.739
57160W        W23569   5.821  29.967   2.174
57161W        W23570  36.762  29.203  13.165
57162W        W23571  19.131  14.524  13.991
57163W        W23572   3.678   4.907  13.980
57164W        W23573  11.470   4.368  12.563
57165W        W23574   7.830   1.089  11.169
57166W        W23575  33.460   7.706  13.404
57167W        W23576  20.767  10.401   2.169
57168W        W23577  43.340  18.298  14.367
57169W        W23578  13.884  23.235  13.065
57170W        W23579  16.523  11.901  12.052
57171W        W23580  25.186  41.503   3.670
57172W        W23581  11.414  19.237   1.467
57173W        W23582  25.116  38.268   4.124
57174W        W23583  35.978  37.228  13.534
57175W        W23584  17.178  42.923   9.950
57176W        W23585  20.086  23.246   1.133
57177W        W23586  25.643  33.028  14.076
57178W        W23587  37.986   5.469   0.002
57179W        W23588   4.744  22.980   4.863
57180W        W23589  33.431  27.269   3.228
57181W        W23590   2.092  30.093  11.061
57182W        W23591   6.704  31.009  13.946
57183W        W23592  35.853  12.051   0.869
57184W        W23593  21.794   9.234  14.950
57185W        W23594  44.823  37.373   2.919
57186W        W23595  30.162  18.901  13.975
57187W        W23596   6.275  12.262   1.411
57188W        W23597  27.451  13.577   4.200
57189W        W23598  26.564  25.211  13.333
57190W        W23599  16.527   6.290   3.879
57191W        W23600  29.049  34.108  12.784
57192W        W23601  43.832  10.391   3.288
57193W        W23602  28.016  11.807  14.935
57194W        W23603  23.124   0.835   2.387
57195W        W23604  36.743  37.504   3.738
57196W        W23605  32.344  30.495  11.273
57197W        W23606  16.351  22.830   3.381
57198W        W23607  28.097  31.236   1.685
57199W        W23608  21.152   7.266  10.234
57200W        W23609  42.584  16.620  12.023
57201W        W23610  19.515  30.563   3.159
57202W        W23611   3.288  43.710   0.984
57203W        W23612   6.727  11.107   0.541
57204W        W23613  41.905  32.776   1.494
57205W        W23614  17.697  21.050   1.129
57206W        W23615   3.205  37.288   3.306
57207W        W23616  23.983  38.949   4.549
57208W        W23617  30.247   9.235   4.655
57209W        W23618  28.697   6.368   3.797
57210W        W23619   5.207  12.251  14.781
57211W        W23620   5.567   1.824   2.256
57212W        W23621  10.350  30.094   2.755
57213W        W23622  37.165  24.787  12.407
57214W        W23623  35.933  17.213   3.522
57215W        W23624   5.745  30.201  14.290
57216W        W23625  19.135  41.386   4.080
57217W        W23626  29.337  44.566   3.193
57218W        W23627  14.407  44.828   3.174
57219W        W23628  27.387  12.356   1.668
57220W        W23629   5.746   5.447  12.063
57221W        W23630  12.144  18.323  13.854
57222W        W23631  40.932  18.020  14.248
57223W        W23632  42.939  41.231   2.744
57224W        W23633  17.601  14.607  14.462
57225W        W23634  20.524   7.247  14.973
57226W        W23635   9.022  41.271   2.273
57227W        W23636  35.884  12.944   1.452
57228W        W23637  11.916   4.310  11.656
57229W        W23638  31.631  37.710  12.690
57230W        W23639   1.897  16.589  11.732
57231W        W23640  28.615   8.217  11.637
57232W        W23641  22.709  11.873   1.295
57233W        W23642  40.070   0.709  10.383
57234W        W23643  42.557  17.018   2.713
57235W        W23644  22.610  26.087   2.355
57236W        W23645   3.286  37.476  14.540
57237W        W23646  37.357  13.609   3.271
57238W        W23647  40.904   7.819  14.726
57239W        W23648   4.129  15.660  14.410
57240W        W23649  19.241  34.820  12.417
57241W        W23650  35.908  41.523  14.460
57242W        W23651  41.976  13.609   1.289
57243W        W23652  13.350   8.197  11.544
57244W        W23653   0.323  30.535   3.107
57245W        W23654  28.171   1.511  13.331
57246W        W23655   0.776   0.279   4.571
57247W        W23656  32.921  10.974   2.758
57248W        W23657   0.510  36.832  10.965
57249W        W23658  28.576  38.032   4.275
57250W        W23659  11.508  27.642  14.336
57251W        W23660  11.817  30.388  12.378
57252W        W23661  43.458  38.421  10.523
57253W        W23662  31.184  22.817   3.954
57254W        W23663  39.315  35.072   3.720
57255W        W23664  28.441  39.847   2.279
57256W        W23665  40.387  15.335  13.808
57257W        W23666  14.334  39.082   0.783
57258W        W23667   8.808  29.001  13.855
57259W        W23668  21.756  17.545  11.021
57260W        W23669   9.634  42.403   1.375
57261W        W23670  22.948  14.609  12.985
57262W        W23671  42.708  27.135   0.823
57263W        W23672   2.435  34.605  12.514
57264W        W23673  40.071  20.784   3.720
57265W        W23674  26.178  12.796  12.533
57266W        W23675   5.942  43.966   1.760
57267W        W23676   3.766   6.865   1.888
57268W        W23677   9.917  19.165   2.795
57269W        W23678  15.651   7.588  14.618
57270W        W23679  32.046   7.548  13.353
57271W        W23680   4.258  41.898   0.393
57272W        W23681  38.288  14.669   4.534
57273W        W23682  42.439  25.700   0.899
57274W        W23683  12.706  34.455   4.264
57275W        W23684  29.380   8.887  14.099
57276W        W23685  18.709  42.309   2.603
57277W        W23686  20.010  16.802   4.102
57278W        W23687   3.244  19.075   1.272
57279W        W23688   3.381  32.933   3.807
57280W        W23689   9.745  23.122  12.442
57281W        W23690  36.564   3.384  14.411
57282W        W23691  41.216  44.679  10.741
57283W        W23692  10.797  39.511  12.864
57284W        W23693  24.743  25.216  10.380
57285W        W23694  36.490  36.591  11.635
57286W        W23695  24.736  21.512  12.915
57287W        W23696  12.046  37.896   4.300
57288W        W23697  31.163  41.499  12.045
57289W        W23698  34.035  10.621  10.694
57290W        W23699   4.837  42.214  10.339
57291W        W23700   1.325  24.091   2.131
57292W        W23701  27.550  11.806   0.842
57293W        W23702   6.876  11.114   3.648
57294W        W23703  29.505  40.340   2.141
57295W        W23704  42.881  26.855   3.800
57296W        W23705   9.854   4.842  14.669
57297W        W23706  20.459  27.665  13.931
57298W        W23707  11.763  24.209   3.414
57299W        W23708  32.629  30.933   1.203
57300W        W23709  24.982   1.496  12.483
57301W        W23710  41.337  16.317   2.294
57302W        W23711  41.952  25.252  12.268
57303W        W23712  37.932   8.369   2.283
57304W        W23713  22.045  37.112  11.292
57305W        W23714  11.018  37.298   5.316
57306W        W23715  43.343  28.417  13.035
57307W        W23716  34.922   1.088  11.519
57308W        W23717   9.169   4.283  12.057
57309W        W23718  42.711   5.643   2.656
57310W        W23719  31.867  19.151  12.432
57311W        W23720   0.275  28.004  13.006
57312W        W23721  25.215  29.809  13.349
57313W        W23722   3.869   5.131   3.692
57314W        W23723  39.535  18.149  10.556
57315W        W23724  29.511  23.772  13.055
57316W        W23725  41.429  27.930   0.755
57317W        W23726  24.671  22.669   2.359
57318W        W23727  26.508  40.116  14.770
57319W        W23728  11.801  14.199   2.875
57320W        W23729  25.428  40.466  10.689
57321W        W23730   4.987  14.744  12.092
57322W        W23731  15.002  19.784   1.779
57323W        W23732  39.727  30.021  10.716
57324W        W23733  15.877   2.980  11.286
57325W        W23734  32.701   5.678   1.327
57326W        W23735   3.639   4.895  11.000
57327W        W23736   3.953   8.061  13.733
57328W        W23737   0.517  11.800   1.889
57329W        W23738  14.714  12.299   4.207
57330W        W23739  24.154  27.189  12.976
57331W        W23740  11.260   0.483   2.208
57332W        W23741   7.833  24.107   0.699
57333W        W23742  33.038  25.082   2.753
57334W        W23743  30.591  15.898  13.973
57335W        W23744  34.378  44.351  13.079
57336W        W23745  29.989  36.950   4.206
57337W        W23746  31.370  28.439   0.443
57338W        W23747  32.746  25.604   1.513
57339W        W23748  26.162   2.324   1.378
57340W        W23749  35.591  19.756  11.966
57341W        W23750   6.921  30.477   2.660
57342W        W23751   4.305   2.303  10.923
57343W        W23752  18.450  12.240   4.992
57344W        W23753  12.881  14.520  14.393
57345W        W23754  19.803  17.134   0.240
57346W        W23755  22.521  21.630   3.601
57347W        W23756  16.732   6.224  10.410
57348W        W23757  40.812  24.596  13.170
57349W        W23758  19.777  41.330  12.980
57350W        W23759  37.943   1.699  11.011
57351W        W23760  13.237  17.352  10.726
57352W        W23761  37.032  22.076   4.856
57353W        W23762  30.104  21.058  12.203
57354W        W23763  36.727  18.094   9.877
57355W        W23764  22.834   6.794   4.404
57356W        W23765  13.108  18.942  11.497
57357W        W23766  18.261  26.760   2.182
57358W        W23767  26.271  29.166   9.940
57359W        W23768  42.347  13.931  14.397
57360W        W23769   8.730  15.868   1.369
57361W        W23770   8.139  20.330   2.117
57362W        W23771  29.089  16.756  12.162
57363W        W23772  31.488  38.160   4.320
57364W        W23773  38.439  43.303   4.623
57365W        W23774   2.223  23.582  12.138
57366W        W23775  36.376  17.557  11.083
57367W        W23776  21.180  44.979   3.721
57368W        W23777  40.465   7.342  10.979
57369W        W23778  28.706  13.647  12.117
57370W        W23779  11.711   2.711  11.865
57371W        W23780   4.511  18.667  10.486
57372W        W23781  39.884   9.624   1.704
57373W        W23782   6.238  29.618   3.178
57374W        W23783  16.987  34.659   2.193
57375W        W23784  30.524   0.924  14.734
57376W        W23785  16.094  37.975   0.835
57377W        W23786   4.609  23.176   2.753
57378W        W23787  30.520  19.004  11.212
57379W        W23788  23.087   2.988   3.542
57380W        W23789   4.958  24.765   1.208
57381W        W23790  13.575  44.174   2.626
57382W        W23791  22.525  33.972   0.220
57383W        W23792  37.002  44.508   0.288
57384W        W23793  34.306  28.691   1.812
57385W        W23794  28.871  24.991   0.036
57386W        W23795  14.791  32.152   2.761
57387W        W23796  19.170  24.141  11.827
57388W        W23797  43.449  17.331  10.449
57389W        W23798  16.589  27.662   4.280
57390W        W23799  39.979  34.870   1.694
57391W        W23800   5.187  13.995  12.655
57392W        W23801   9.322  34.674  10.620
57393W        W23802  35.022   9.455   2.759
57394W        W23803  16.287  23.054  11.432
57395W        W23804   6.226  16.362  12.533
57396W        W23805  32.466  41.360   2.190
57397W        W23806   1.011  19.076   3.511
57398W        W23807  23.583  38.121   2.800
57399W        W23808  22.297  17.200   0.795
57400W        W23809  31.449  19.592   0.978
57401W        W23810  42.137  38.853  11.678
57402W        W23811  29.995  26.333   0.746
57403W        W23812  24.940  34.809   3.674
57404W        W23813   4.894   8.363  12.569
57405W        W23814  29.000  38.872   3.120
57406W        W23815  44.718  39.873   2.477
57407W        W23816  10.134  39.950   1.390
57408W        W23817  35.000   1.369   4.614
57409W        W23818  36.242   6.349   1.875
57410W        W23819  43.954   6.073   2.164
57411W        W23820  39.951   2.515   1.694
57412W        W23821  15.125  25.405   1.434
57413W        W23822   0.960  42.127   0.917
57414W        W23823   9.167  38.184  12.362
57415W        W23824  30.612   2.224  11.666
57416W        W23825  40.999  40.716  11.154
57417W        W23826   4.436  24.767  11.545
57418W        W23827  42.777  13.096  10.872
57419W        W23828   2.685  26.496  10.777
57420W        W23829  42.936  19.195  12.252
57421W        W23830  14.698   5.225  11.183
57422W        W23831  38.959  17.052   5.095
57423W        W23832  39.823  36.129  14.469
57424W        W23833  44.284  12.887   4.140
57425W        W23834  20.638  23.133   1.767
57426W        W23835  32.951  33.896   0.746
57427W        W23836   4.417   2.194  11.850
57428W        W23837  43.231  42.987  11.563
57429W        W23838  39.642   0.356   1.365
57430W        W23839  28.662  17.445  11.034
57431W        W23840  29.521  10.404   3.027
57432W        W23841  16.443  32.349  13.153
57433W        W23842   8.120  27.973  12.903
57434W        W23843   2.268  26.348   2.424
57435W        W23844   9.629   0.535   1.853
57436W        W23845  31.250  26.463   1.263
57437W        W23846   8.777  18.837   1.175
57438W        W23847  29.426   1.738   0.950
57439W        W23848   0.255  18.386  12.608
57440W        W23849  15.414  32.580   4.346
57441W        W23850  29.643  11.220  10.599
57442W        W23851  28.631  28.056   4.727
57443W        W23852  32.838  27.960   1.343
57444W        W23853  25.137  19.897   0.687
57445W        W23854  14.066  37.321  12.415
57446W        W23855  42.496  27.534   4.206
57447W        W23856  30.963  36.233   4.330
57448W        W23857  44.190  23.274   5.012
57449W        W23858   9.707  39.501   2.679
57450W        W23859  28.436   3.749   2.818
57451W        W23860  32.375   5.522  13.572
57452W        W23861   1.149  35.062  11.570
57453W        W23862  39.567   5.663  11.186
57454W        W23863  31.179  16.563   1.247
57455W        W23864  17.920   0.785   3.606
57456W        W23865  43.527  14.580   1.275
57457W        W23866   0.652   6.368   4.997
57458W        W23867   2.623  17.413   2.317
57459W        W23868  25.981   8.674  14.814
57460W        W23869  32.228  22.183   4.716
57461W        W23870  12.068   9.604   0.733
57462W        W23871  12.926  31.884  13.399
57463W        W23872   4.387  15.381   4.612
57464W        W23873  36.214  13.371   3.814
57465W        W23874  16.068  41.143   4.170
57466W        W23875  21.879  19.682  10.542
57467W        W23876   9.737   8.153  13.198
57468W        W23877  21.355  27.158   2.804
57469W        W23878   0.248  28.015   3.747
57470W        W23879   9.675  20.705  14.098
57471W        W23880   2.510   9.424  13.876
57472W        W23881  17.519  28.926  12.509
57473W        W23882  30.135   4.516   2.430
57474W        W23883  23.715  44.517   1.477
57475W        W23884   0.462  37.539   3.697
57476W        W23885  15.389  39.354  13.968
57477W        W23886  20.091  21.806   3.011
57478W        W23887  20.530   2.969  11.657
57479W        W23888  25.248  30.948   1.593
57480W        W23889  42.793  31.157   0.368
57481W        W23890  23.212   9.062  12.295
57482W        W23891  25.932  35.365   2.033
57483W        W23892  44.383  31.805  10.987
57484W        W23893  16.365  26.210  11.274
57485W        W23894   6.694  27.250   2.903
57486W        W23895  42.519  16.132  12.856
57487W        W23896  23.011  22.617  10.210
57488W        W23897  41.117  24.002  13.962
57489W        W23898  25.882  30.236   1.640
57490W        W23899  38.029   1.239   0.378
57491W        W23900   1.298   5.429  11.644
57492W        W23901  17.255   2.424  14.428
57493W        W23902  26.319  27.975  13.151
57494W        W23903  40.821  33.563   4.050
57495W        W23904  43.348   2.075  10.167
57496W        W23905  12.282  37.883   3.609
57497W        W23906  34.473  28.433   1.363
57498W        W23907  13.329  43.974   3.636
57499W        W23908  40.749   9.879   0.378
57500W        W23909   5.484   9.797   1.687
57501W        W23910  13.388  18.037   1.488
57502W        W23911  27.763  34.491   3.657
57503W        W23912  27.364   3.116  14.966
57504W        W23913  41.806   4.957  13.846
57505W        W23914  31.342  19.978   1.829
57506W        W23915  44.973  42.757  11.617
57507W        W23916   2.713  22.188   4.149
57508W        W23917  30.645  40.524  10.834
57509W        W23918   0.358  36.923  14.496
57510W        W23919  41.624  32.992  14.716
57511W        W23920  19.695   2.963  13.546
57512W        W23921  14.194   6.157  13.644
57513W        W23922  43.458  19.591   0.190
57514W        W23923  36.107   4.964  13.690
57515W        W23924   1.211  35.059   3.652
57516W        W23925  19.502  37.758  14.828
57517W        W23926   3.240   5.847   3.612
57518W        W23927  12.955   8.263  10.769
57519W        W23928  19.396  18.175   3.807
57520W        W23929  30.769  40.780   4.636
57521W        W23930   6.460  36.816  13.796
57522W        W23931   2.865  18.087  11.545
57523W        W23932  40.783  10.762  10.541
57524W        W23933  17.660   1.344  14.933
57525W        W23934  41.879  20.666   4.704
57526W        W23935   1.067   1.708  11.180
57527W        W23936  39.056  25.906  14.800
57528W        W23937   2.363  10.829   1.326
57529W        W23938  42.219  38.431  13.308
57530W        W23939   6.453   2.379  12.577
57531W        W23940  15.625  21.060  11.986
57532W        W23941  34.028   3.305  14.689
57533W        W23942  28.163   4.165  13.287
57534W        W23943  18.510  33.098   0.622
57535W        W23944   5.159  35.941   3.342
57536W        W23945  21.102  44.600   4.064
57537W        W23946   5.509  35.209  14.652
57538W        W23947  22.213  22.317  14.637
57539W        W23948  43.279  34.523   0.920
57540W        W23949  16.998  19.714  10.744
57541W        W23950  15.472   3.401  13.957
57542W        W23951  20.907   8.372   4.301
57543W        W23952  13.468  39.553   2.631
57544W        W23953  30.187  22.103  13.385
57545W        W23954  40.131  43.050   9.873
57546W        W23955  10.358  11.495   1.013
57547W        W23956  10.617  17.943   4.077
57548W        W23957  28.965   5.285   3.590
57549W        W23958   2.762  35.011  14.001
57550W        W23959   2.800  30.099   3.708
57551W        W23960  24.051  33.209  11.482
57552W        W23961  16.066  24.226   2.885
57553W        W23962  33.626  12.430   0.116
57554W        W23963  27.440  40.012   2.262
57555W        W23964  42.526  30.109   4.576
57556W        W23965   4.042  21.576   1.808
57557W        W23966  16.317  20.086  14.004
57558W        W23967  24.077  29.956   1.891
57559W        W23968   7.625  27.975   0.487
57560W        W23969  35.166  40.767   0.279
57561W        W23970  28.684  29.561  11.495
57562W        W23971  21.002  34.971  14.465
57563W        W23972   0.481  29.379   2.450
57564W        W23973  18.081  20.659  13.801
57565W        W23974  38.106  18.734   0.849
57566W        W23975  16.216  33.433   4.892
57567W        W23976  38.658  14.150  12.543
57568W        W23977  39.485  35.457  13.818
57569W        W23978  37.474  41.029  14.720
57570W        W23979  29.938  40.502  13.819
57571W        W23980  24.479  37.456   3.186
57572W        W23981  17.881  21.928   3.046
57573W        W23982  42.770  25.618  14.036
57574W        W23983   0.172  11.347   3.111
57575W        W23984  25.418  16.352   0.870
57576W        W23985   6.958   2.683  11.753
57577W        W23986  24.223   7.199   3.180
57578W        W23987  18.367   2.451  13.620
57579W        W23988  39.410  41.440  14.324
57580W        W23989  27.021  28.526   3.705
57581W        W23990  15.638  26.005   4.749
57582W        W23991  31.451  13.644   2.137
57583W        W23992  19.856  32.350   0.376
57584W        W23993  27.686  37.911   2.815
57585W        W23994   1.891  28.142  11.982
57586W        W23995  43.084  37.518  14.906
57587W        W23996  32.173  10.986  12.917
57588W        W23997  43.747  12.868   0.709
57589W        W23998  29.135  44.303  13.619
57590W        W23999  20.436   5.169   3.746
57591W        W24000  29.310  35.370  11.658
57592W        W24001  16.132  43.024  10.392
57593W        W24002  23.356  38.009  14.943
57594W        W24003  41.617  38.876   1.531
57595W        W24004  23.649   4.497  10.218
57596W        W24005  15.466  15.554   1.251
57597W        W24006  29.481   2.874   2.916
57598W        W24007  30.663  28.622   4.964
57599W        W24008  11.830   8.555  12.591
57600W        W24009  44.003  28.859  12.995
57601W        W24010   3.503  22.969  11.570
57602W        W24011  42.120   1.018   1.800
57603W        W24012  39.125  28.963  11.169
57604W        W24013  24.786  26.185   3.254
57605W        W24014  15.806  11.802  13.490
57606W        W24015  36.354  38.551   2.178
57607W        W24016  16.631   4.369  14.835
57608W        W24017  19.290   1.410   0.483
57609W        W24018  41.476  38.580   4.746
57610W        W24019  17.348  39.457  14.318
57611W        W24020  32.003  30.388   3.186
57612W        W24021  36.563  26.944   2.770
57613W        W24022  26.084  32.023   0.693
57614W        W24023  36.363  10.893  13.432
57615W        W24024   3.500  30.185   2.422
57616W        W24025  13.252  25.390  12.873
57617W        W24026  40.323  30.225   0.474
57618W        W24027  40.991   6.622   2.312
57619W        W24028   2.348  15.688   5.062
57620W        W24029  40.436   4.305   0.335
57621W        W24030  43.945  12.728  13.840
57622W        W24031  31.455  15.369  14.936
57623W        W24032  27.131  35.574   4.864
57624W        W24033  13.784  41.576  13.499
57625W        W24034  27.009  17.205   3.716
57626W        W24035  39.705  13.000  13.780
57627W        W24036  27.098  17.227  12.713
57628W        W24037  13.844  29.444  11.986
57629W        W24038  31.654   4.142   2.338
57630W        W24039  13.677  16.120  14.924
57631W        W24040   7.921   3.267   3.649
57632W        W24041  12.526   2.490   3.772
57633W        W24042  32.413  34.300  12.421
57634W        W24043  25.257  34.054   3.273
57635W        W24044  40.349  34.063   0.018
57636W        W24045   5.924  36.777  13.998
57637W        W24046  33.382  43.476  13.443
57638W        W24047  42.101  18.580  10.353
57639W        W24048  27.026  32.834   2.784
57640W        W24049  36.975   9.219  10.782
57641W        W24050  14.607   0.426  10.630
57642W        W24051  30.195   5.337   1.818
57643W        W24052  42.044  37.843  11.477
57644W        W24053  14.736  39.788  10.281
57645W        W24054  15.197  41.093  12.464
57646W        W24055  11.749  40.305   4.146
57647W        W24056  37.331  20.195   3.313
57648W        W24057   5.614  23.771  13.294
57649W        W24058  17.575  20.749  13.899
57650W        W24059   2.539  23.594   3.134
57651W        W24060  28.650   8.161  13.534
57652W        W24061  16.350  30.293  11.927
57653W        W24062   4.944  41.598   2.881
57654W        W24063   5.922  15.817   3.240
57655W        W24064  27.007  26.151  10.960
57656W        W24065  44.617  25.906  13.409
57657W        W24066   2.965  29.628  10.798
57658W        W24067  41.776  13.152   0.439
57659W        W24068  20.243  19.243   0.404
57660W        W24069  12.931  27.159  12.574
57661W        W24070  43.841  24.223  11.155
57662W        W24071  25.516  42.479   3.152
57663W        W24072  43.991  36.390   2.177
57664W        W24073   1.464   9.190   9.565
57665W        W24074  14.544  30.586  12.517
57666W        W24075  17.826   6.119  13.903
57667W        W24076  20.918  26.501  14.754
57668W        W24077  33.676  14.800   0.199
57669W        W24078  27.132  39.507  14.711
57670W        W24079  34.404  15.571   3.684
57671W        W24080  14.058  20.078  12.387
57672W        W24081  17.189   6.001   2.284
57673W        W24082  24.442   8.413  14.927
57674W        W24083   9.175  24.893  13.060
57675W        W24084  36.246   6.869   4.401
57676W        W24085  26.590  44.961  14.200
57677W        W24086  39.903  39.805  13.054
57678W        W24087   6.863  37.176  11.652
57679W        W24088  18.832  36.359  12.363
57680W        W24089  44.718  35.128   1.751
57681W        W24090  11.537  35.431  11.113
57682W        W24091  28.475   2.269   0.483
57683W        W24092  40.373  10.429   2.652
57684W        W24093   3.289   8.598   0.875
57685W        W24094   9.407  31.630   4.538
57686W        W24095  10.299  40.703  12.393
57687W        W24096  19.682  31.085  10.488
57688W        W24097  41.738  20.169   0.977
57689W        W24098  35.898  40.363   1.164
57690W        W24099  17.108  37.041   5.525
57691W        W24100   7.734  14.107  10.358
57692W        W24101  36.912  20.585   4.541
57693W        W24102  16.767  36.253   2.780
57694W        W24103  16.748   3.919   2.293
57695W        W24104  17.763  36.010  13.928
57696W        W24105  24.138  14.263   3.759
57697W        W24106  31.429  33.067   0.370
57698W        W24107  41.109  15.432  11.209
57699W        W24108   2.789  34.099   3.558
57700W        W24109   3.267   6.173   2.104
57701W        W24110  29.915  24.181  13.225
57702W        W24111  29.558  14.229  13.747
57703W        W24112  30.009  34.710  12.995
57704W        W24113  26.572  26.007  13.441
57705W        W24114  22.945  40.430  11.211
57706W        W24115  23.921  30.928  14.511
57707W        W24116  34.476   6.626   3.517
57708W        W24117  43.562  43.807   1.003
57709W        W24118  21.534  42.318  14.911
57710W        W24119  32.798  42.531   2.041
57711W        W24120  11.685  31.601  11.650
57712W        W24121  11.764  22.807  12.271
57713W        W24122  23.308  25.601  12.346
57714W        W24123  12.314  10.163   3.742
57715W        W24124   0.411  29.751   2.039
57716W        W24125  30.078  21.036  12.714
57717W        W24126  43.935  22.241   1.446
57718W        W24127  22.136  24.456  13.997
57719W        W24128  41.879  24.567   2.274
57720W        W24129  16.765  20.558  10.913
57721W        W24130  31.632  24.011   1.210
57722W        W24131  39.571  19.214   4.688
57723W        W24132  31.086  39.607  10.861
57724W        W24133   0.995  10.226  11.314
57725W        W24134  14.685  33.441  11.709
57726W        W24135  31.007  14.618   0.214
57727W        W24136   6.299  40.405  13.792
57728W        W24137   7.857  11.946  12.559
57729W        W24138  22.055   2.733   0.402
57730W        W24139  41.593  33.109  13.907
57731W        W24140  44.057   2.202   1.356
57732W        W24141  17.642  44.974  14.476
57733W        W24142   3.735   5.999  13.363
57734W        W24143  27.984  38.444  12.966
57735W        W24144   7.486  41.009  12.854
57736W        W24145  16.896  16.724  12.496
57737W        W24146  24.059  30.588  14.116
57738W        W24147  44.795   7.357  13.962
57739W        W24148  38.115  43.074   4.204
57740W        W24149  36.246  38.876  11.173
57741W        W24150   2.820   2.744   0.804
57742W        W24151  32.148  22.252   1.322
57743W        W24152   0.409  40.419  11.055
57744W        W24153  24.384  15.881  13.012
57745W        W24154  38.021  33.739   9.858
57746W        W24155  38.581  19.660  11.081
57747W        W24156  30.956  31.925   0.018
57748W        W24157  25.004  17.462  12.054
57749W        W24158  15.999  36.754   4.251
57750W        W24159  19.641  43.487   3.732
57751W        W24160  12.092  42.240   0.358
57752W        W24161  35.892   3.401  14.908
57753W        W24162   9.563  11.816   1.075
57754W        W24163  32.795  35.072   1.309
57755W        W24164  35.820  23.225   1.460
57756W        W24165  15.673  41.676   5.314
57757W        W24166  43.949  33.937  12.880
57758W        W24167  13.076  22.286  12.051
57759W        W24168   0.062   9.335   0.003
57760W        W24169  30.852  23.650   4.233
57761W        W24170  20.721  28.946   2.748
57762W        W24171  27.422   0.261  13.991
57763W        W24172  28.726   5.825   0.239
57764W        W24173  34.642  17.836  13.076
57765W        W24174  28.133  27.448  14.721
57766W        W24175  10.325  44.719   0.279
57767W        W24176  43.134   7.677  14.921
57768W        W24177  39.630  19.582  14.410
57769W        W24178  27.755   7.405  11.802
57770W        W24179  37.949  32.216  11.022
57771W        W24180  40.050   2.213  11.259
57772W        W24181  12.938  25.257   0.819
57773W        W24182  26.938  31.876  10.741
57774W        W24183   7.340  26.912   2.664
57775W        W24184   2.385  31.700  14.911
57776W        W24185  26.251  35.061  12.562
57777W        W24186   0.506  38.028  12.186
57778W        W24187   1.014  42.564   2.713
57779W        W24188  25.935   8.272   1.168
57780W        W24189   3.860  44.420  11.614
57781W        W24190  29.962  23.026  12.380
57782W        W24191  40.075  21.948  11.971
57783W        W24192  34.879  30.490  11.169
57784W        W24193  14.139  14.312  12.737
57785W        W24194  37.866  11.887   1.555
57786W        W24195  31.480  28.089  12.465
57787W        W24196   5.736  21.234   3.799
57788W        W24197  17.773  15.022  12.001
57789W        W24198  15.718  36.335   9.982
57790W        W24199  21.472  37.390   0.644
57791W        W24200  23.800  42.530   2.474
57792W        W24201  29.467  13.753  11.108
57793W        W24202  29.571  37.957   0.259
57794W        W24203   5.049  23.498   4.190
57795W        W24204  20.925  37.350  13.728
57796W        W24205  16.564  22.798   0.782
57797W        W24206  16.492  19.488  11.596
57798W        W24207   8.921  25.448  12.177
57799W        W24208  17.255   5.239  13.462
57800W        W24209  24.965  34.485  11.326
57801W        W24210  13.861  23.892   1.649
57802W        W24211  24.787   5.393  11.095
57803W        W24212   4.667  14.717   3.298
57804W        W24213   3.996   2.461   0.455
57805W        W24214  34.083  24.260  12.526
57806W        W24215  41.938  13.352  13.919
57807W        W24216  27.182  17.589   4.958
57808W        W24217  38.581  16.085  14.720
57809W        W24218  28.657  27.380   0.826
57810W        W24219  13.578  37.405   1.153
57811W        W24220  31.875  37.129   2.941
57812W        W24221  27.234  14.362  13.592
57813W        W24222   2.894  15.121   1.157
57814W        W24223  36.096  36.931  13.929
57815W        W24224   7.914  33.408   0.955
57816W        W24225  11.812  44.422  13.107
57817W        W24226  13.549  36.832   0.733
57818W        W24227  15.240   1.280   4.680
57819W        W24228  19.558  11.949  10.764
57820W        W24229  42.972  35.358  14.647
57821W        W24230  28.462  30.307   2.236
57822W        W24231  38.313  42.582  11.571
57823W        W24232  38.719  31.048  12.929
57824W        W24233  36.524  14.468   1.954
57825W        W24234  13.865   3.934   1.558
57826W        W24235  33.181  36.933   4.155
57827W        W24236  39.667  41.917   1.686
57828W        W24237  41.624  41.785   4.150
57829W        W24238  11.319  35.511   2.865
57830W        W24239  44.701  10.234  12.011
57831W        W24240  23.672  27.712  12.363
57832W        W24241  28.201  13.142   4.517
57833W        W24242  23.480  21.024   4.258
57834W        W24243  35.864  43.857   2.668
57835W        W24244  36.118  18.842  11.521
57836W        W24245   2.773  31.838   4.113
57837W        W24246  13.703  35.639  12.020
57838W        W24247  14.899  24.534   1.738
57839W        W24248  32.285  37.377  13.714
57840W        W24249  16.299  10.853   0.211
57841W        W24250  29.161  11.810  11.264
57842W        W24251  18.719  14.457  10.276
57843W        W24252  34.648  20.815  14.737
57844W        W24253  25.204  25.946   3.121
57845W        W24254  34.001  42.340  14.610
57846W        W24255  24.124   9.574  14.373
57847W        W24256  42.072  36.998  13.441
57848W        W24257  22.119  19.734  12.147
57849W        W24258  18.795  26.711   0.278
57850W        W24259  35.143  37.647  11.945
57851W        W24260  42.657  44.805   0.047
57852W        W24261  28.585   5.983   1.471
57853W        W24262  44.785  40.359  14.682
57854W        W24263  40.546   0.760   3.755
57855W        W24264  12.637   9.435  13.834
57856W        W24265  43.877  16.412  13.358
57857W        W24266   8.327  26.308   3.690
57858W        W24267  17.053  43.866  13.840
57859W        W24268  13.324  28.079  10.106
57860W        W24269   0.278  39.448  12.674
57861W        W24270  16.668  29.443  11.771
57862W        W24271  30.571  42.868  11.029
57863W        W24272  30.297  16.439  11.955
57864W        W24273  44.304   8.635   2.389
57865W        W24274  22.546  36.957   1.720
57866W        W24275  43.918   0.256  11.539
57867W        W24276  19.747  42.921   1.251
57868W        W24277   4.881  35.353  13.906
57869W        W24278  36.632   7.253  12.790
57870W        W24279  44.140  41.119  12.042
57871W        W24280   2.975  14.299   3.139
57872W        W24281  29.687  18.809   2.159
57873W        W24282   2.392  11.905   9.881
57874W        W24283  37.001  26.146   4.555
57875W        W24284   4.888  25.581  14.600
57876W        W24285  28.681  25.613  12.465
57877W        W24286   3.721  42.836   3.270
57878W        W24287   1.661   7.148   2.806
57879W        W24288   8.422  19.702  12.561
57880W        W24289   4.351  18.677   1.706
57881W        W24290   5.637  40.022  14.874
57882W        W24291  12.010  21.629  12.142
57883W        W24292  35.070  41.006   4.114
57884W        W24293   8.135  15.009  11.647
57885W        W24294  32.751  14.932   4.185
57886W        W24295  38.446  30.048  14.799
57887W        W24296  24.075  18.512   1.514
57888W        W24297   0.580  30.673   3.658
57889W        W24298  25.014  14.768  13.782
57890W        W24299  37.989   3.428  11.146
57891W        W24300  39.944  14.601  12.768
57892W        W24301   9.562  11.725   1.572
57893W        W24302   0.281  33.411  11.234
57894W        W24303  43.006  15.750   3.753
57895W        W24304  11.222  26.479   0.672
57896W        W24305  33.844   8.864  11.409
57897W        W24306  35.423  22.570  13.895
57898W        W24307  15.582  37.592  12.653
57899W        W24308  21.017  23.675   1.450
57900W        W24309   9.917  23.033  11.431
57901W        W24310  19.907  14.923  11.642
57902W        W24311  22.073  22.975   1.716
57903W        W24312  20.184  30.611   4.602
57904W        W24313  14.633   4.876   1.188
57905W        W24314  31.846  20.248   1.237
57906W        W24315  42.413   4.258  14.035
57907W        W24316  38.950  28.246  14.047
57908W        W24317  25.631  13.321   2.855
57909W        W24318  12.933  44.721   3.255
57910W        W24319  42.249  19.164   3.634
57911W        W24320  16.172   1.436   3.284
57912W        W24321  29.209  12.365   1.365
57913W        W24322  23.181  20.071  11.807
57914W        W24323  43.296   2.272  10.691
57915W        W24324  31.750  11.372   1.361
57916W        W24325  15.714   8.261  13.375
57917W        W24326  30.410  20.181   3.743
57918W        W24327  37.734  32.025   1.850
57919W        W24328  40.375  10.837   1.698
57920W        W24329   3.463  13.753   4.297
57921W        W24330  12.813  41.048  12.643
57922W        W24331   3.020  21.187  13.826
57923W        W24332  24.830  24.474   2.270
57924W        W24333  23.695  22.070  11.740
57925W        W24334  21.878  30.695  13.345
57926W        W24335  13.264  43.381  14.687
57927W        W24336  10.232   9.476  12.004
57928W        W24337  27.607  33.036   1.294
57929W        W24338  28.490  34.620  10.304
57930W        W24339  41.067  32.034  11.996
57931W        W24340  31.797  36.974  11.145
57932W        W24341   3.324  35.985   0.934
57933W        W24342  27.714  12.788   2.913
57934W        W24343  10.681  27.148  13.816
57935W        W24344  11.643   1.389   1.141
57936W        W24345   3.410  31.230   4.085
57937W        W24346  25.077   1.047   1.781
57938W        W24347   0.869   0.823  13.360
57939W        W24348  34.734   6.906  11.928
57940W        W24349  11.223   4.483  13.515
57941W        W24350  26.151  16.661  14.672
57942W        W24351  22.947  40.747  11.608
57943W        W24352   0.032  21.730   2.211
57944W        W24353  14.154   2.482  11.150
57945W        W24354  34.155  27.443   4.618
57946W        W24355  40.535  44.044   4.545
57947W        W24356  38.467  27.725  12.483
57948W        W24357  38.409  30.948   0.724
57949W        W24358   3.041  23.538  13.280
57950W        W24359   8.343  22.118  11.730
57951W        W24360  26.664  17.441  12.508
57952W        W24361  22.959  15.751   2.301
57953W        W24362  41.713  16.254  12.500
57954W        W24363  36.383  44.223  13.886
57955W        W24364  44.225  38.769   0.280
57956W        W24365  18.267  34.969   2.347
57957W        W24366   5.747  23.641   0.706
57958W        W24367  24.959  38.578   1.172
57959W        W24368  17.154   0.326   0.278
57960W        W24369  42.495  12.429   0.712
57961W        W24370  13.761  35.862  11.558
57962W        W24371  12.931  20.604  14.425
57963W        W24372  44.795   4.034  13.395
57964W        W24373  25.681  17.804   1.378
57965W        W24374  31.178  16.459  11.165
57966W        W24375  32.470  36.072   1.183
57967W        W24376  25.284  25.437  12.907
57968W        W24377  37.544  23.936  12.557
57969W        W24378  37.324  20.545   2.741
57970W        W24379  13.909   6.206   1.212
57971W        W24380  40.585  31.605   1.028
57972W        W24381   4.446  37.188   4.496
57973W        W24382  30.486   9.381   4.227
57974W        W24383  30.438  25.658   1.662
57975W        W24384  24.590   0.220   2.768
57976W        W24385  19.198   2.297  11.436
57977W        W24386  44.459   1.900   1.523
57978W        W24387  39.358  44.027  12.554
57979W        W24388   4.230  18.246   0.334
57980W        W24389  40.861   4.657   1.074
57981W        W24390  19.828  30.966   0.254
57982W        W24391  23.207  11.459  13.982
57983W        W24392  30.950  10.339  10.731
57984W        W24393   2.279  16.302   1.649
57985W        W24394  16.739   7.960   4.665
57986W        W24395  40.871  13.323   2.339
57987W        W24396  32.361   1.049  12.087
57988W        W24397  17.096   6.900  14.016
57989W        W24398   3.777   9.741   1.775
57990W        W24399  23.154  25.533   9.704
57991W        W24400  35.505   4.647   2.408
57992W        W24401  11.783  43.453   0.359
57993W        W24402  43.885  29.625  10.660
57994W        W24403  16.781  28.956   4.557
57995W        W24404  15.116  26.056   4.646
57996W        W24405  23.671   9.826  14.503
57997W        W24406  34.175  10.847   3.917
57998W        W24407   2.893  10.318   1.679
57999W        W24408   6.939  27.430   0.706
58000W        W24409  12.314  22.092   2.407
58001W        W24410  15.115  35.341   1.561
58002W        W24411  33.608  31.400   1.434
58003W        W24412  21.250  35.895  10.780
58004W        W24413   8.233  13.068   0.133
58005W        W24414  36.999  25.150   1.493
58006W        W24415  43.321  20.093   2.897
58007W        W24416  42.533   4.817  13.537
58008W        W24417  33.487   2.471  12.160
58009W        W24418   6.913  26.129   9.821
58010W        W24419  11.717  35.287  14.083
58011W        W24420  27.133  29.929   2.960
58012W        W24421  26.479  37.355  14.368
58013W        W24422  11.062  25.562   4.147
58014W        W24423  19.737  17.386   2.021
58015W        W24424  24.079   0.807   0.497
58016W        W24425   6.350   9.694   0.819
58017W        W24426  44.036  44.363  11.919
58018W        W24427  18.876  33.347  14.839
58019W        W24428  14.270  27.227  11.986
58020W        W24429  14.488   4.648  13.481
58021W        W24430  32.851  44.500   1.972
58022W        W24431   5.157   9.108  11.332
58023W        W24432  16.218   5.133  13.622
58024W        W24433  36.233  15.192   0.702
58025W        W24434  21.148  35.947   1.865
58026W        W24435  13.413  18.857  13.040
58027W        W24436  40.427  20.296  11.266
58028W        W24437  12.630   5.333   1.766
58029W        W24438   3.165   0.937   0.633
58030W        W24439  43.740  40.509  13.341
58031W        W24440  29.861  24.669  12.956
58032W        W24441  11.230  36.058  13.115
58033W        W24442  19.697  28.452   0.843
58034W        W24443   5.323  18.322  12.335
58035W        W24444  37.577  13.981  13.887
58036W        W24445  35.131  27.041  12.128
58037W        W24446  37.548  31.996   1.003
58038W        W24447   7.682  36.502   4.895
58039W        W24448  13.768  21.507  14.741
58040W        W24449  16.207  21.783   0.784
58041W        W24450  11.093  27.224  12.590
58042W        W24451   0.055  41.082  13.028
58043W        W24452  18.799   3.038  11.136
58044W        W24453  19.926  12.209   0.224
58045W        W24454   5.807  41.426  14.829
58046W        W24455   3.839  34.416   1.148
58047W        W24456  42.919  11.259  14.127
58048W        W24457  15.852  11.891  12.453
58049W        W24458  36.770  12.751  13.083
58050W        W24459  17.463  18.826  11.969
58051W        W24460  10.760  34.106   1.748
58052W        W24461  24.673  43.339   2.776
58053W        W24462  17.482  13.373  12.597
58054W        W24463  26.562  36.915   2.731
58055W        W24464  17.316  15.554   4.641
58056W        W24465   2.496  20.358  13.903
58057W        W24466   8.767  19.853  13.902
58058W        W24467  34.761   7.426  14.839
58059W        W24468   9.648  36.577   4.262
58060W        W24469  12.029  24.799   3.168
58061W        W24470   5.013  35.441   0.334
58062W        W24471   1.608  16.353   4.259
58063W        W24472  39.052  39.645  14.155
58064W        W24473  23.556   9.894  10.725
58065W        W24474  22.224   7.610  12.412
58066W        W24475   2.625  40.463   3.300
58067W        W24476  25.167  17.484  12.858
58068W        W24477  10.252  13.161  10.085
58069W        W24478  29.061  24.917   3.712
58070W        W24479  42.901  12.671   2.768
58071W        W24480  19.690  21.011   2.357
58072W        W24481  40.266  22.589   4.095
58073W        W24482  32.045  39.887   1.218
58074W        W24483  40.297  18.575   1.433
58075W        W24484  23.775  34.064   1.345
58076W        W24485   4.874  23.615  12.006
58077W        W24486  28.809   5.340   4.097
58078W        W24487  10.578   6.216  13.413
58079W        W24488  30.135  42.271   4.588
58080W        W24489  11.803  21.799  11.105
58081W        W24490  28.894  12.673  11.417
58082W        W24491  17.002  22.634  11.889
58083W        W24492  14.308  18.141   1.696
58084W        W24493  10.039   2.030  11.212
58085W        W24494  23.971  35.514  13.861
58086W        W24495  32.954  11.746   1.363
58087W        W24496   8.068   5.314   2.010
58088W        W24497  24.282   0.719   4.570
58089W        W24498  25.525  19.430   0.048
58090W        W24499   9.942  11.064  12.487
58091W        W24500  29.917  14.033  14.738
58092W        W24501  23.573   8.016   4.170
58093W        W24502  30.106   2.959  14.116
58094W        W24503  17.338  22.561  13.162
58095W        W24504  39.000   0.227   2.025
58096W        W24505   6.430  28.660   1.457
58097W        W24506   6.765  16.854   4.152
58098W        W24507  27.552  30.486  11.904
58099W        W24508  24.648  43.630  11.154
58100W        W24509   9.154   5.189   3.201
58101W        W24510  27.873  30.147  13.574
58102W        W24511   4.183  26.983   3.566
58103W        W24512   3.214  18.767   2.225
58104W        W24513  38.894  16.878  11.456
58105W        W24514  26.629  20.682  11.436
58106W        W24515  17.063  25.051   3.701
58107W        W24516  15.233  37.300  11.942
58108W        W24517   0.210  27.048   0.842
58109W        W24518  23.094  20.195   1.349
58110W        W24519  36.031  15.027  13.884
58111W        W24520   4.175   3.005   4.824
58112W        W24521  18.440   1.796  11.224
58113W        W24522  41.552  14.135  10.727
58114W        W24523  19.030  23.592  11.168
58115W        W24524  38.412  14.141   0.271
58116W        W24525  33.649  35.012  13.195
58117W        W24526  18.327   5.034  12.101
58118W        W24527  42.399  34.396   0.439
58119W        W24528   4.907   0.301  12.339
58120W        W24529  14.841   6.400   0.441
58121W        W24530  10.462  29.544  13.586
58122W        W24531  27.611  28.960   1.190
58123W        W24532   4.004  25.090  11.554
58124W        W24533  16.590   0.222  13.067
58125W        W24534  37.155  30.052  14.058
58126W        W24535  31.842   9.354  12.107
58127W        W24536  24.695  34.872  12.928
58128W        W24537  18.131  23.510  13.872
58129W        W24538  17.418   1.902   2.144
58130W        W24539  35.992  13.746   3.538
58131W        W24540   2.307  36.663  13.394
58132W        W24541  21.989   0.193   4.122
58133W        W24542  16.917  13.322  13.521
58134W        W24543  19.477  30.825   1.877
58135W        W24544  25.300  14.065  13.328
58136W        W24545   2.696  26.362  13.076
58137W        W24546  38.861  29.653   2.239
58138W        W24547   7.722   3.983   2.013
58139W        W24548  23.734  38.400  11.654
58140W        W24549  17.641  27.430   4.165
58141W        W24550  22.689  34.105  14.714
58142W        W24551  11.229  44.520  11.860
58143W        W24552  38.290  25.382  14.836
58144W        W24553  41.647   9.873   2.706
58145W        W24554  19.153  12.235  10.632
58146W        W24555  34.934   5.249  10.587
58147W        W24556  38.118  25.415   1.804
58148W        W24557  11.172  39.941   2.736
58149W        W24558  19.704  13.071   1.374
58150W        W24559  11.969  32.143  13.522
58151W        W24560  20.518  22.987   2.268
58152W        W24561  28.732  10.216  14.400
58153W        W24562   6.739  14.632   4.643
58154W        W24563  18.649  43.302   4.713
58155W        W24564  29.017  41.824  14.764
58156W        W24565  12.641   7.751   0.255
58157W        W24566  23.740  27.361   1.671
58158W        W24567  19.064  18.649   4.920
58159W        W24568  24.607   4.983  10.297
58160W        W24569  23.779  20.688   2.874
58161W        W24570  40.088  29.735  12.857
58162W        W24571  13.605  32.449   9.824
58163W        W24572   8.802  15.096  10.670
58164W        W24573   8.223  14.289  10.462
58165W        W24574   4.518  38.281   3.129
58166W        W24575   1.782  12.373   4.547
58167W        W24576  16.779  15.954   0.727
58168W        W24577  15.181  33.259  11.760
58169W        W24578  18.057   4.918   3.167
58170W        W24579  39.920  24.684  10.722
58171W        W24580  33.102  33.654   0.303
58172W        W24581  37.993  22.651  14.237
58173W        W24582  39.724  39.172   4.194
58174W        W24583   3.652  25.916  14.106
58175W        W24584  40.723   9.213  14.209
58176W        W24585  32.468  39.897   2.991
58177W        W24586  39.426  41.324   3.282
58178W        W24587  32.640  20.030   4.402
58179W        W24588  22.916  19.333   0.824
58180W        W24589   2.600  25.993   2.187
58181W        W24590  13.777   8.645  11.218
58182W        W24591   5.522  13.168   2.589
58183W        W24592  33.379   7.231  14.509
58184W        W24593  20.265  39.837   4.011
58185W        W24594   3.912  34.609   2.195
58186W        W24595  19.584  18.628   1.336
58187W        W24596   1.483   9.955  11.998
58188W        W24597  25.734  35.632   1.618
58189W        W24598   4.241  18.128   4.967
58190W        W24599   6.001  18.722   1.454
58191W        W24600  17.768  21.237  12.107
58192W        W24601  40.612  25.450  14.417
58193W        W24602  30.720  19.666   0.544
58194W        W24603  28.917  44.025  11.045
58195W        W24604  33.214  33.837  12.120
58196W        W24605  11.126  33.861  10.540
58197W        W24606  16.582  24.439  10.708
58198W        W24607  15.914  12.565  13.913
58199W        W24608  14.158  23.063  13.467
58200W        W24609  20.996  31.460  11.357
58201W        W24610  16.315  25.094   1.035
58202W        W24611   0.258  17.371  11.602
58203W        W24612  36.777  41.813   3.092
58204W        W24613  22.789  21.707  12.949
58205W        W24614   9.209   8.747   0.525
58206W        W24615  36.473  41.313   1.367
58207W        W24616  44.966  25.986  13.873
58208W        W24617  19.255  32.280   0.561
58209W        W24618  10.887  20.586  11.648
58210W        W24619  42.584  28.033   1.356
58211W        W24620  11.545  28.491  11.585
58212W        W24621  25.555  44.275   4.187
58213W        W24622  33.797  26.011   0.950
58214W        W24623  23.727  40.545  13.909
58215W        W24624  29.761  34.515   5.106
58216W        W24625  44.247  42.583   4.169
58217W        W24626  13.607  19.000  11.549
58218W        W24627  18.692  14.787  13.805
58219W        W24628  42.771  40.063   0.498
58220W        W24629  39.908  10.008   4.571
58221W        W24630  37.562   6.517  11.195
58222W        W24631  32.132  37.550  12.865
58223W        W24632   5.254  13.181   2.086
58224W        W24633  18.577   0.440  14.585
58225W        W24634  38.414  36.438  11.250
58226W        W24635  21.658  36.046  13.582
58227W        W24636  35.358  29.556  12.143
58228W        W24637  21.460   0.474   1.363
58229W        W24638   1.448  43.797  12.613
58230W        W24639  43.425  30.107  11.247
58231W        W24640  17.361  42.867  14.916
58232W        W24641  37.043  21.770  10.542
58233W        W24642  18.002   2.822  13.477
58234W        W24643  44.533  13.617  13.759
58235W        W24644  28.004  39.466   3.835
58236W        W24645  39.030  41.808  11.955
58237W        W24646  30.600  25.780   2.709
58238W        W24647  13.832   6.475   0.363
58239W        W24648  29.898  33.994   1.658
58240W        W24649   2.462  29.005  13.141
58241W        W24650  12.477  34.132  10.317
58242W        W24651  35.998  16.311  12.055
58243W        W24652  40.563  42.791   0.532
58244W        W24653   6.935  30.604  14.780
58245W        W24654   0.431  27.892  11.993
58246W        W24655   7.496  15.370  13.358
58247W        W24656   6.956  36.961  13.912
58248W        W24657   8.273  17.043  12.440
58249W        W24658  34.106  21.240   2.192
58250W        W24659  20.596  37.527  12.529
58251W        W24660  22.626  34.342  10.735
58252W        W24661  31.430  17.430  14.608
58253W        W24662  43.867  13.467  12.527
58254W        W24663  28.468   2.044  12.841
58255W        W24664  43.254   8.595  10.682
58256W        W24665   7.327  44.057   1.311
58257W        W24666  19.287  22.600  14.039
58258W        W24667   9.820   1.536   0.175
58259W        W24668  32.070  24.926   0.717
58260W        W24669  44.935  13.167  10.584
58261W        W24670  30.655  36.543  14.781
58262W        W24671  10.685  43.028  14.203
58263W        W24672  31.501  24.643  13.751
58264W        W24673  26.013   2.876   2.948
58265W        W24674  37.267  36.875  12.131
58266W        W24675  39.116  15.855  11.496
58267W        W24676   5.246  37.883  10.919
58268W        W24677  41.026  24.268   0.499
58269W        W24678   2.463  39.971  12.546
58270W        W24679  41.732  25.144  10.610
58271W        W24680  25.307  20.396   0.680
58272W        W24681  17.598   8.419  12.064
58273W        W24682  31.907   0.361   1.218
58274W        W24683  44.466  16.012   1.337
58275W        W24684  21.127  14.831  14.310
58276W        W24685  42.587  29.451  13.000
58277W        W24686  23.787  31.155   1.644
58278W        W24687   2.338  16.317  10.606
58279W        W24688   3.745  24.667  14.915
58280W        W24689  26.014  14.074  12.009
58281W        W24690   1.400  44.013  13.441
58282W        W24691   0.661  23.118   3.205
58283W        W24692  31.515  37.578  14.491
58284W        W24693  40.364  10.030   5.213
58285W        W24694  36.800  41.521  13.370
58286W        W24695  37.354  21.273   4.146
58287W        W24696  17.215  23.325  11.398
58288W        W24697   7.871  20.982  13.604
58289W        W24698   7.950  23.092  11.615
58290W        W24699  35.087  22.987  13.956
58291W        W24700  16.143  17.697   3.704
58292W        W24701  42.354   7.791   1.264
58293W        W24702  43.441   2.777   3.411
58294W        W24703  27.578  17.219   4.874
58295W        W24704  28.824  27.566  11.527
58296W        W24705  20.509  41.909  13.945
58297W        W24706  10.574   7.558   2.197
58298W        W24707  13.199  15.737   9.912
58299W        W24708  29.602  41.869  11.078
58300W        W24709   7.008  25.402   4.071
58301W        W24710  20.604   8.815  14.339
58302W        W24711   3.751  36.981  14.849
58303W        W24712   0.234  17.045   3.198
58304W        W24713  39.366   5.398   2.257
58305W        W24714  23.355   1.956  14.794
58306W        W24715  43.477  39.851   1.217
58307W        W24716   3.754  19.181   0.654
58308W        W24717  36.318   5.009   4.156
58309W        W24718   0.892  16.836   0.448
58310W        W24719  31.717  32.909   3.888
58311W        W24720  40.263   8.440  14.266
58312W        W24721  29.709   6.131  12.171
58313W        W24722   3.658  19.777   1.826
58314W        W24723  12.218   9.431   1.557
58315W        W24724  29.339   8.184   5.213
58316W        W24725  25.989  24.998  11.099
58317W        W24726  43.457  10.315  11.462
58318W        W24727  10.419  22.914   0.807
58319W        W24728  13.989  35.017  13.895
58320W        W24729  35.690  14.342   0.601
58321W        W24730  39.498  28.424  12.190
58322W        W24731  13.332  14.330  12.947
58323W        W24732  30.055  19.589  11.887
58324W        W24733  11.264  40.019   1.783
58325W        W24734  24.570  32.546  13.064
58326W        W24735  40.996  33.973  10.827
58327W        W24736  36.938   6.466  11.613
58328W        W24737   8.691  43.300   4.953
58329W        W24738  43.291  12.540  13.793
58330W        W24739  30.716  33.992  11.558
58331W        W24740   8.293  21.081   0.934
58332W        W24741  27.247   9.924  13.783
58333W        W24742  37.025  43.039   5.050
58334W        W24743  44.403  23.661   3.153
58335W        W24744  22.444  23.612   1.282
58336W        W24745  11.847  10.400   0.392
58337W        W24746  22.450   5.297   1.391
58338W        W24747  20.733   8.364   4.871
58339W        W24748  20.581  31.624  11.078
58340W        W24749   2.268  36.159   0.773
58341W        W24750  23.564  32.089  12.035
58342W        W24751  41.493   1.259  14.453
58343W        W24752  15.016  39.884  13.008
58344W        W24753  16.874  33.155   0.122
58345W        W24754  38.906  22.040   0.254
58346W        W24755  31.029  38.340   4.173
58347W        W24756  43.234  43.986   2.323
58348W        W24757  33.131  20.935  13.987
58349W        W24758  22.015  21.240   2.278
58350W        W24759  42.178  26.399  12.336
58351W        W24760  21.034  38.362   4.022
58352W        W24761  21.932  10.637  10.523
58353W        W24762  31.936   5.210  11.272
58354W        W24763  42.371  14.727  11.040
58355W        W24764   3.968  10.914  10.574
58356W        W24765  35.739  40.266  14.794
58357W        W24766  41.335  20.616   4.772
58358W        W24767  18.580   8.096   2.373
58359W        W24768  10.266  15.666  14.991
58360W        W24769  28.366  34.280  14.237
58361W        W24770  43.494  32.842  12.116
58362W        W24771  29.591  22.893  11.573
58363W        W24772  17.225  23.214  13.813
58364W        W24773   9.538  27.834  10.090
58365W        W24774  29.645  35.409  12.627
58366W        W24775  36.205  21.213  12.956
58367W        W24776   6.048  27.688   0.933
58368W        W24777  34.611  37.163  13.988
58369W        W24778   5.004   2.354   3.068
58370W        W24779  27.907  36.803  14.495
58371W        W24780  25.160  19.167  12.577
58372W        W24781  42.287  32.384   1.521
58373W        W24782   9.262  21.639  13.318
58374W        W24783  15.403   9.846  13.499
58375W        W24784  12.424  18.599  13.065
58376W        W24785  25.275  39.255  14.471
58377W        W24786  17.066  15.262  14.986
58378W        W24787   1.941  22.631   3.423
58379W        W24788   3.505  20.733  14.826
58380W        W24789   1.309  27.386  12.210
58381W        W24790   2.991  25.604  11.226
58382W        W24791   2.512  24.101   3.844
58383W        W24792   8.576   5.611   1.779
58384W        W24793   0.832  39.715  11.968
58385W        W24794  20.670  31.015  12.874
58386W        W24795  43.821  43.708  14.833
58387W        W24796  33.496  30.987   2.398
58388W        W24797  23.270  30.624   0.772
58389W        W24798  25.428  24.990   3.105
58390W        W24799  11.189   0.447  14.915
58391W        W24800  43.273  29.900  10.797
58392W        W24801  24.362  25.072   2.266
58393W        W24802  44.250  35.795   0.851
58394W        W24803   7.302  20.432  12.324
58395W        W24804  22.581  20.673   2.421
58396W        W24805   1.157   7.832   0.905
58397W        W24806  37.345  23.986  10.972
58398W        W24807  10.279  30.498  10.913
58399W        W24808  43.431  41.972  11.886
58400W        W24809   1.335   9.671   0.499
58401W        W24810  23.500   2.191   3.667
58402W        W24811   3.375  11.612   1.968
58403W        W24812  36.915   0.543   0.469
58404W        W24813  16.583  43.216  10.942
58405W        W24814   6.296  12.782  11.443
58406W        W24815  27.451  16.060  12.386
58407W        W24816  22.035  21.043   3.079
58408W        W24817  15.392  10.513   0.040
58409W        W24818  18.069  43.097  13.639
58410W        W24819  22.685  16.643   4.553
58411W        W24820  15.500   7.572   4.969
58412W        W24821  15.826  13.037   0.423
58413W        W24822  31.059  24.907  13.853
58414W        W24823  37.943   2.608   0.435
58415W        W24824  41.959   6.121   2.120
58416W        W24825  27.521  16.990  10.626
58417W        W24826   5.278   0.828  14.321
58418W        W24827  13.183   2.117   4.056
58419W        W24828  24.599  26.191  14.749
58420W        W24829  12.568   7.174  13.304
58421W        W24830  21.490   7.254  10.636
58422W        W24831  23.241  31.887   3.706
58423W        W24832  40.370  38.304  11.999
58424W        W24833   9.278  39.761   4.765
58425W        W24834  16.173  16.817   0.925
58426W        W24835   8.322  23.073   3.132
58427W        W24836  39.815  15.173  14.542
58428W        W24837  43.938  27.751   2.164
58429W        W24838  37.862  26.168   0.526
58430W        W24839  27.832   2.546  11.086
58431W        W24840   8.912  34.475   2.236
58432W        W24841  26.036  30.554  12.039
58433W        W24842  15.239  16.508   4.689
58434W        W24843  20.224  12.963  11.044
58435W        W24844   7.692   7.688  13.352
58436W        W24845  30.482  13.344   1.310
58437W        W24846  22.654   9.662   0.919
58438W        W24847  14.732  29.560   2.769
58439W        W24848  21.116  18.665  11.773
58440W        W24849  35.115   4.715   0.743
58441W        W24850  29.310  24.409   3.787
58442W        W24851  22.406  37.983  11.689
58443W        W24852   5.354  17.680  11.238
58444W        W24853  18.721   9.047   2.195
58445W        W24854  20.344  21.126   4.064
58446W        W24855  43.006  29.111   2.269
58447W        W24856  25.537  12.456   2.467
58448W        W24857  32.349  34.716   0.459
58449W        W24858  29.879   6.047  12.717
58450W        W24859  29.553  34.911   2.766
58451W        W24860  22.270  35.553   2.885
58452W        W24861  22.662   0.399  14.965
58453W        W24862  32.869  10.627  11.640
58454W        W24863  38.908  12.613   3.141
58455W        W24864  14.382  20.214   4.230
58456W        W24865  21.237   9.293   0.803
58457W        W24866  38.321  35.707  14.397
58458W        W24867  38.079  42.980  14.877
58459W        W24868   7.828  15.479   1.276
58460W        W24869  34.604   5.417  14.996
58461W        W24870   6.044  37.367  11.448
58462W        W24871   6.686  32.065   0.320
58463W        W24872  21.059  35.416   3.662
58464W        W24873  36.078   6.752   0.468
58465W        W24874  42.155  30.437  11.511
58466W        W24875  33.870   4.303  13.813
58467W        W24876  27.576  31.036   1.622
58468W        W24877  29.902  23.113  14.245
58469W        W24878   5.736  37.894   0.425
58470W        W24879   2.958  35.099   2.194
58471W        W24880  13.453   6.877   0.363
58472W        W24881  15.707  33.902  12.871
58473W        W24882  43.482  22.085   3.217
58474W        W24883  33.501  23.553  11.507
58475W        W24884  20.574  12.075  14.435
58476W        W24885   8.101  40.451   2.742
58477W        W24886   9.646  41.044   0.883
58478W        W24887   2.691  11.864   2.744
58479W        W24888   6.664  29.192  12.864
58480W        W24889  38.352  20.663   3.728
58481W        W24890   5.275  39.999  11.912
58482W        W24891  19.288   9.438  14.147
58483W        W24892  34.982  30.173   3.507
58484W        W24893  42.457  22.283   3.222
58485W        W24894  35.159   4.911   2.649
58486W        W24895  11.673  19.014   3.660
58487W        W24896  12.369  36.016   3.713
58488W        W24897  13.155  18.370   0.912
58489W        W24898   3.417  24.707  10.663
58490W        W24899  26.955  35.004   3.640
58491W        W24900  13.817  24.667  14.309
58492W        W24901  30.539  10.050  10.664
58493W        W24902  19.734  31.631   1.610
58494W        W24903  24.539  16.510  14.400
58495W        W24904  43.014  34.119  14.770
58496W        W24905  24.414  26.871  10.406
58497W        W24906  34.020   8.329  13.850
58498W        W24907  22.505  20.999   4.905
58499W        W24908  20.654  38.588   3.721
58500W        W24909  30.511  33.541   0.451
58501W        W24910  37.405  37.059  11.308
58502W        W24911  29.518  35.045   4.283
58503W        W24912  35.340  10.323   0.968
58504W        W24913  36.548  32.372   3.787
58505W        W24914   9.858  36.609   4.731
58506W        W24915  41.848  36.300  11.498
58507W        W24916  14.012  25.612   2.069
58508W        W24917   6.873  31.392  13.668
58509W        W24918  14.292  10.377   1.881
58510W        W24919  19.747  32.625   1.345
58511W        W24920  19.684   6.102  14.363
58512W        W24921  27.402  15.559  11.044
58513W        W24922  34.080  25.493   2.086
58514W        W24923   5.605   6.972  12.032
58515W        W24924  42.577  28.293   0.049
58516W        W24925  25.084  33.850   0.800
58517W        W24926  36.474  25.114   4.537
58518W        W24927  27.950  26.084  13.373
58519W        W24928  12.306   6.753  13.509
58520W        W24929  21.015  28.049   1.689
58521W        W24930  19.173  16.627   1.617
58522W        W24931  13.355  18.525   2.220
58523W        W24932  16.567   2.251  11.517
58524W        W24933  35.471   1.947   0.045
58525W        W24934  39.098  22.760   3.927
58526W        W24935  12.618  21.293   4.193
58527W        W24936  29.465   1.293   2.314
58528W        W24937  22.443   7.646  10.581
58529W        W24938  24.202  35.477   2.645
58530W        W24939  39.137  27.932   1.387
58531W        W24940  40.735  31.383  13.993
58532W        W24941  19.006  15.414   1.209
58533W        W24942  31.065  18.332  13.466
58534W        W24943  36.853  41.786   0.493
58535W        W24944  41.657  18.730  14.944
58536W        W24945  27.523   5.633   1.039
58537W        W24946  16.750  30.713   0.310
58538W        W24947  27.818  15.298  11.953
58539W        W24948  33.896   0.042   0.775
58540W        W24949   2.196  35.721   2.446
58541W        W24950  25.589  33.668  10.751
58542W        W24951  17.630   8.079  11.623
58543W        W24952  17.556   2.511   2.846
58544W        W24953  44.968  34.500  13.771
58545W        W24954  13.548  22.318  12.721
58546W        W24955  18.891  37.645  13.961
58547W        W24956  36.605   7.289   1.367
58548W        W24957  30.529  29.638  12.465
58549W        W24958   1.912  41.176   3.606
58550W        W24959   6.187  24.383   0.985
58551W        W24960   9.074  39.469   2.378
58552W        W24961  19.563  13.792   4.806
58553W        W24962  10.108  27.509  12.440
58554W        W24963  22.732   1.426   4.080
58555W        W24964  19.776  31.186  12.825
58556W        W24965  35.212  41.037  14.788
58557W        W24966  41.521   8.384   0.000
58558W        W24967  32.681   2.891   4.478
58559W        W24968   0.681  30.328  13.566
58560W        W24969  41.444  36.515   0.913
58561W        W24970  44.221  19.284  12.042
58562W        W24971   4.879  31.051  12.210
58563W        W24972  25.865  17.071  14.496
58564W        W24973   3.352  11.084  11.154
58565W        W24974  11.904  18.626  11.105
58566W        W24975  29.974  17.237   0.969
58567W        W24976  21.810  28.519   4.404
58568W        W24977  33.312   1.848   3.290
58569W        W24978  26.646  30.907   2.072
58570W        W24979   8.731  22.855   2.382
58571W        W24980  29.529  37.851  10.912
58572W        W24981  15.027   7.142  12.015
58573W        W24982   8.432  35.008  11.356
58574W        W24983  43.511  19.895   0.668
58575W        W24984   0.234  32.894  12.917
58576W        W24985  18.735  17.268  10.435
58577W        W24986  12.518  34.650  13.351
58578W        W24987   4.929  20.742   3.889
58579W        W24988  23.063  37.989  12.919
58580W        W24989   9.392  32.852  13.992
58581W        W24990  39.953  26.481  14.773
58582W        W24991  15.726  28.644   3.891
58583W        W24992   1.486  12.653  14.521
58584W        W24993  41.457   7.290   0.323
58585W        W24994  21.851  13.570  11.233
58586W        W24995  24.707  25.273  14.771
58587W        W24996  21.457  43.498   2.320
58588W        W24997  41.853  40.260  10.172
58589W        W24998  20.322  27.694  11.232
58590W        W24999  35.923  28.093   1.114
58591W        W25000  34.379   7.649   1.726
58592W        W25001  24.188  39.366  12.951
58593W        W25002  41.259   7.958  13.439
58594W        W25003  25.123  12.008  12.204
58595W        W25004  31.885  38.940   4.373
58596W        W25005  24.929   7.917  11.962
58597W        W25006  32.117   9.851  11.096
58598W        W25007  11.170  24.440   3.241
58599W        W25008   1.735   4.169  14.348
58600W        W25009  41.075  29.474  13.804
58601W        W25010  25.554  35.869   1.123
58602W        W25011  40.544  44.044  14.557
58603W        W25012   5.389   5.223  13.418
58604W        W25013  31.698  10.373   4.266
58605W        W25014  31.659  12.172  13.980
58606W        W25015  16.743  23.646   1.042
58607W        W25016   1.130  22.469   1.562
58608W        W25017  22.795  41.284   0.491
58609W        W25018   4.489  39.552  15.000
58610W        W25019  16.365  10.436   3.639
58611W        W25020  19.102  20.577  14.067
58612W        W25021  20.110  21.028  10.793
58613W        W25022   9.339  29.610  12.811
58614W        W25023  41.961  13.273   1.789
58615W        W25024   0.071  32.548   3.815
58616W        W25025  35.997   9.947  14.843
58617W        W25026  10.786  29.229  12.497
58618W        W25027  44.734  29.995   0.324
58619W        W25028  28.620  39.980  11.559
58620W        W25029  14.255  16.538   4.792
58621W        W25030  37.250   4.579  11.093
58622W        W25031  20.548   2.831  10.756
58623W        W25032  35.507  43.307   4.606
58624W        W25033  13.483  25.149  14.956
58625W        W25034  17.104  38.493  12.692
58626W        W25035   4.654  42.310   4.157
58627W        W25036  25.224  20.746   3.535
58628W        W25037  22.705   8.022   0.678
58629W        W25038  36.402  38.367   3.368
58630W        W25039   4.836  39.337  10.634
58631W        W25040  15.634  24.823  10.735
58632W        W25041  28.140  25.467   1.359
58633W        W25042  43.891  37.090   4.153
58634W        W25043  11.311  26.494  10.960
58635W        W25044   2.784  27.877  12.422
58636W        W25045  23.128   8.749   4.478
58637W        W25046  18.040  27.928  14.977
58638W        W25047   0.272   0.291   4.423
58639W        W25048  43.457   2.786  10.719
58640W        W25049   9.841   2.771   2.240
58641W        W25050  19.591   4.098  10.639
58642W        W25051   7.192  34.165  11.891
58643W        W25052  40.913   6.287  11.910
58644W        W25053  41.345  15.804   3.120
58645W        W25054  38.743  25.073   4.638
58646W        W25055   8.856  35.687   0.814
58647W        W25056   4.042  24.959  10.732
58648W        W25057   8.394  36.092   4.696
58649W        W25058  40.370   1.235  13.337
58650W        W25059  17.243  24.127   1.146
58651W        W25060  16.011   6.688   0.876
58652W        W25061  41.311   8.275   0.848
58653W        W25062   3.269  41.853   1.229
58654W        W25063  35.623  24.065  11.098
58655W        W25064  40.149  21.320   1.332
58656W        W25065   0.974  37.006  14.245
58657W        W25066  28.535  18.186  13.919
58658W        W25067  31.506   8.833   0.934
58659W        W25068  10.530  19.209  11.124
58660W        W25069  21.336  30.445  13.999
58661W        W25070  29.114  26.879  13.542
58662W        W25071  20.828  10.365  11.833
58663W        W25072  20.031  38.618   1.563
58664W        W25073  14.621  39.996   3.288
58665W        W25074   0.405  42.310  10.866
58666W        W25075  20.039  22.181   2.348
58667W        W25076  14.769  31.668   3.218
58668W        W25077   9.194  21.984   1.211
58669W        W25078  26.478  11.304   2.876
58670W        W25079  11.795  41.038   4.628
58671W        W25080  32.359  41.078  13.904
58672W        W25081  17.343   7.155   1.766
58673W        W25082  33.467  41.812  10.424
58674W        W25083  30.118  32.540   0.419
58675W        W25084  24.609   6.584   3.809
58676W        W25085  35.377   9.041   4.839
58677W        W25086  35.087  13.554   1.474
58678W        W25087  34.686  32.994   1.393
58679W        W25088  26.612   6.208  14.019
58680W        W25089   7.382  44.672  10.715
58681W        W25090  23.823  32.503   1.831
58682W        W25091  27.490  12.596  12.502
58683W        W25092  42.352   1.799  13.525
58684W        W25093   1.387   4.910   0.867
58685W        W25094  20.183  37.538  14.805
58686W        W25095  43.853   8.806  12.445
58687W        W25096  13.269  12.848   3.680
58688W        W25097  43.941  40.515  13.840
58689W        W25098  44.954  38.826   1.338
58690W        W25099  26.520  24.855   3.253
58691W        W25100  16.326  42.148  10.958
58692W        W25101   0.539  29.990  14.866
58693W        W25102  40.852  32.424   3.546
58694W        W25103  12.778  18.652   1.524
58695W        W25104  32.902  13.236   3.668
58696W        W25105  26.242  18.280  14.484
58697W        W25106  24.981   0.852  11.685
58698W        W25107  29.379  31.091   2.190
58699W        W25108  38.401   0.241   4.927
58700W        W25109   9.097  44.294  11.857
58701W        W25110   2.978  17.096  11.149
58702W        W25111  27.647  42.944  14.114
58703W        W25112  17.682  30.214   0.137
58704W        W25113  25.578  36.640  12.486
58705W        W25114  37.583   0.307   4.899
58706W        W25115  35.548  30.543   3.958
58707W        W25116  29.987   8.443   1.716
58708W        W25117  27.513  42.765  12.014
58709W        W25118  37.402  41.591  12.041
58710W        W25119   7.291  11.407  14.891
58711W        W25120  28.160  44.277   3.722
58712W        W25121  39.363  40.041   3.827
58713W        W25122  41.465  40.845   0.990
58714W        W25123  36.264  40.939  12.469
58715W        W25124  10.292  13.262  14.141
58716W        W25125  32.560  26.035  13.891
58717W        W25126  33.440  24.133   2.653
58718W        W25127  38.315  31.497  14.593
58719W        W25128  11.581  27.884   4.387
58720W        W25129  41.525  17.269   1.841
58721W        W25130  42.863  42.067  14.900
58722W        W25131   6.365  11.731  11.686
58723W        W25132  32.523   8.688  14.431
58724W        W25133   3.425   1.802  10.781
58725W        W25134  42.384  24.440   1.946
58726W        W25135  34.108  16.842  12.591
58727W        W25136   0.929   6.773   0.046
58728W        W25137  20.928  16.737   4.205
58729W        W25138   6.451  36.185  11.955
58730W        W25139  35.087   7.866  14.043
58731W        W25140  37.393  17.198   3.262
58732W        W25141  31.649  34.023  10.934
58733W        W25142  27.082  20.969   0.921
58734W        W25143   9.662  25.813   4.585
58735W        W25144  16.607  25.502  14.010
58736W        W25145  19.684  38.283  12.715
58737W        W25146  44.993  29.575  13.579
58738W        W25147  35.827  20.146  11.054
58739W        W25148   9.134  42.028   4.649
58740W        W25149  19.566  20.195  14.247
58741W        W25150  20.307  20.612  11.545
58742W        W25151   0.211  12.233   0.228
58743W        W25152   2.846  32.637  10.476
58744W        W25153   6.853  36.085   4.122
58745W        W25154  35.403  17.895   0.225
58746W        W25155   8.616  12.231  10.643
58747W        W25156  35.394  10.709   1.313
58748W        W25157  35.799  34.895   3.722
58749W        W25158  29.900  38.309   3.770
58750W        W25159  25.798  25.270   2.763
58751W        W25160  30.150  35.367   2.291
58752W        W25161  41.279   3.930   4.081
58753W        W25162  37.847  32.958  14.298
58754W        W25163  40.930  24.656   4.590
58755W        W25164  40.872   8.814   2.330
58756W        W25165  33.510  31.202  11.587
58757W        W25166  38.919  11.636   2.246
58758W        W25167  42.543   9.701   0.732
58759W        W25168  30.100   9.894   0.910
58760W        W25169  44.823  24.230  14.593
58761W        W25170   1.040  43.064   1.968
58762W        W25171  43.455  17.858   4.515
58763W        W25172  38.645   3.786   1.169
58764W        W25173   1.261  12.816  14.990
58765W        W25174  25.584   4.387   2.041
58766W        W25175  15.202  24.688   2.110
58767W        W25176  22.205   0.412  11.054
58768W        W25177   4.718  22.785   0.939
58769W        W25178  23.701   1.477   2.324
58770W        W25179  23.669  41.656   4.136
58771W        W25180  28.986  13.256  13.633
58772W        W25181  40.810  41.565   1.524
58773W        W25182  16.184  19.576   3.664
58774W        W25183  14.558   5.196   1.577
58775W        W25184   5.994  15.816  14.539
58776W        W25185  29.633  44.552  13.378
58777W        W25186  26.177   4.800   4.830
58778W        W25187   7.199  19.009   2.205
58779W        W25188  44.947  39.891  14.805
58780W        W25189   7.328  24.916  14.380
58781W        W25190  39.354   6.398  11.596
58782W        W25191  33.709  13.716  11.643
58783W        W25192  19.268   8.167   3.063
58784W        W25193  16.278  27.743  12.363
58785W        W25194  14.208  38.276   0.270
58786W        W25195  39.738  26.348   1.767
58787W        W25196  43.391   6.981  10.734
58788W        W25197  25.979  29.420   4.811
58789W        W25198  24.605  25.211   0.286
58790W        W25199  21.253  12.676  11.184
58791W        W25200  21.309  37.022  13.914
58792W        W25201  43.511  13.987   2.717
58793W        W25202  28.551  29.147  14.736
58794W        W25203  33.390  42.517  12.478
58795W        W25204  38.791  20.638   0.240
58796W        W25205   1.473  22.691   4.177
58797W        W25206  19.528  29.574  14.463
58798W        W25207  27.712  35.304  12.605
58799W        W25208  22.651  27.728  13.208
58800W        W25209  40.566  10.384   0.396
58801W        W25210  10.136   4.464  12.870
58802W        W25211  32.499   9.875  14.071
58803W        W25212   5.167  25.237   0.664
58804W        W25213   3.465  13.600  11.271
58805W        W25214   1.507   8.460   4.982
58806W        W25215   4.805  34.391  13.753
58807W        W25216   4.339  44.447   0.704
58808W        W25217  43.331  12.352  14.329
58809W        W25218  21.216  27.523   1.708
58810W        W25219   1.759  29.654   3.233
58811W        W25220  22.472  26.966   0.883
58812W        W25221  12.197  16.793  13.748
58813W        W25222  21.664  33.297   3.781
58814W        W25223  16.883   6.656   1.240
58815W        W25224   6.591  42.553   2.861
58816W        W25225  44.841   6.558   3.920
58817W        W25226   6.235  19.470  10.312
58818W        W25227  30.906   3.422   1.970
58819W        W25228  34.369  19.766  10.761
58820W        W25229  18.612  36.927   9.879
58821W        W25230  33.334  19.549  10.770
58822W        W25231  36.663  13.884   4.552
58823W        W25232  41.820  27.864  14.849
58824W        W25233  24.490  38.931   4.645
58825W        W25234  22.262  14.085  12.438
58826W        W25235  18.328  16.903   4.133
58827W        W25236  24.787  42.958   4.011
58828W        W25237  31.580  18.228   2.305
58829W        W25238  38.624  20.626   4.606
58830W        W25239  27.121  43.166  11.982
58831W        W25240   9.253  41.041  14.447
58832W        W25241  32.361  18.984   1.198
58833W        W25242  19.337  34.542   0.982
58834W        W25243   9.281  44.356   4.210
58835W        W25244  28.451  39.399   0.008
58836W        W25245  31.132  21.053  12.871
58837W        W25246  39.910  14.411  10.799
58838W        W25247  33.949  39.560  11.490
58839W        W25248  12.619  43.811  11.235
58840W        W25249  12.276  39.932   9.864
58841W        W25250  43.970  36.079   0.268
58842W        W25251  33.471  34.939   3.580
58843W        W25252  36.385   9.136  14.716
58844W        W25253  38.807  19.593  11.923
58845W        W25254  13.694  36.005   0.964
58846W        W25255   9.360  42.838   0.304
58847W        W25256  35.001  43.877   3.085
58848W        W25257  40.707  43.259   2.671
58849W        W25258   0.496  10.613  10.371
58850W        W25259  41.146   3.290  13.338
58851W        W25260  27.058   0.437   0.828
58852W        W25261  12.149  37.138  10.416
58853W        W25262  19.988  22.640   2.638
58854W        W25263  39.312  41.272   2.194
58855W        W25264  38.101  36.024  13.959
58856W        W25265  38.388  12.945   0.865
58857W        W25266  43.078  37.965   1.697
58858W        W25267   9.075  43.440   4.640
58859W        W25268  37.810  32.136  12.965
58860W        W25269  33.084   0.737  14.431
58861W        W25270   2.750   3.232  14.465
58862W        W25271  27.401  20.454   3.088
58863W        W25272  39.550   9.214   2.526
58864W        W25273   0.041  27.721   1.096
58865W        W25274  32.022  24.758  13.964
58866W        W25275   9.422  18.804   2.758
58867W        W25276   9.740  38.575  12.064
58868W        W25277   0.258  16.038  13.774
58869W        W25278  32.385  33.388  13.884
58870W        W25279  11.342   9.123  14.339
58871W        W25280  20.780  28.420   0.704
58872W        W25281  23.505  10.391   0.893
58873W        W25282  29.675   7.198   0.362
58874W        W25283  37.522  29.714   2.684
58875W        W25284  35.962  31.888  13.347
58876W        W25285  41.436  35.094  14.891
58877W        W25286   6.284  43.743  11.999
58878W        W25287  36.542  18.052   0.262
58879W        W25288  11.500  44.621  13.900
58880W        W25289  30.458   1.480  13.968
58881W        W25290  13.019  10.572   1.786
58882W        W25291  17.789   4.224  12.364
58883W        W25292  38.631  39.102  14.473
58884W        W25293   9.913  14.276   2.327
58885W        W25294  17.224  32.977  13.808
58886W        W25295  12.718  26.487   3.110
58887W        W25296  44.955  11.755  12.926
58888W        W25297  16.037  18.644   0.729
58889W        W25298  11.436  31.580   2.714
58890W        W25299   5.871  30.034  12.069
58891W        W25300  25.010   4.734   2.669
58892W        W25301   0.781   3.874  14.790
58893W        W25302   3.935  14.576  10.800
58894W        W25303  23.187  14.523  12.529
58895W        W25304   3.162  27.578   4.745
58896W        W25305  38.461  42.997  14.488
58897W        W25306  21.096  23.970  10.833
58898W        W25307  42.221  40.012  11.508
58899W        W25308  17.223  40.516  10.546
58900W        W25309  16.751  16.155  12.906
58901W        W25310  25.770  22.164   3.182
58902W        W25311  19.672  20.134   3.277
58903W        W25312  30.947  31.959  12.068
58904W        W25313  25.086  30.305   1.062
58905W        W25314  25.579  40.955  10.734
58906W        W25315   2.600   3.886  11.626
58907W        W25316  43.489  17.793  14.394
58908W        W25317  37.869   9.149   0.828
58909W        W25318  44.443   0.792   4.029
58910W        W25319  30.934  30.506   0.169
58911W        W25320   8.334  33.879   3.337
58912W        W25321  26.433  18.559  11.583
58913W        W25322  12.693  33.365  12.382
58914W        W25323  38.443  16.125  11.848
58915W        W25324  43.816  32.111  13.161
58916W        W25325  31.719  11.311   0.020
58917W        W25326   8.240  14.532   0.270
58918W        W25327  37.294  42.506  12.089
58919W        W25328   0.013   5.189  12.997
58920W        W25329   5.893  35.586   2.738
58921W        W25330  31.463  32.113  12.541
58922W        W25331  17.202  10.253   5.105
58923W        W25332   8.188  18.776  12.555
58924W        W25333  33.098   8.806   2.247
58925W        W25334  38.076  23.424  10.802
58926W        W25335   8.551  13.678  13.456
58927W        W25336   6.071  21.638  14.375
58928W        W25337  32.982   7.746   0.027
58929W        W25338  10.506  39.551  13.776
58930W        W25339   1.637  43.447   1.499
58931W        W25340  18.116  20.313  10.631
58932W        W25341  15.434  20.065   0.959
58933W        W25342   5.379   2.204   0.200
58934W        W25343  22.767   2.460   2.755
58935W        W25344  41.538   2.404   1.168
58936W        W25345  18.152  28.450   1.840
58937W        W25346  35.961  24.637   4.728
58938W        W25347  10.353  23.142   3.562
58939W        W25348  19.359   2.853  13.160
58940W        W25349  19.169  41.444  10.827
58941W        W25350  42.296  42.975   1.537
58942W        W25351  40.426  32.488   2.329
58943W        W25352   2.284  13.588   2.139
58944W        W25353  43.588  18.473   2.187
58945W        W25354  34.661   1.373   3.276
58946W        W25355  20.027  24.384  11.530
58947W        W25356  29.720  12.082   9.909
58948W        W25357  16.531  41.265   4.362
58949W        W25358  42.976  22.639   1.203
58950W        W25359  24.643  14.223   3.592
58951W        W25360  16.138  21.760   2.690
58952W        W25361   3.480   5.764  10.521
58953W        W25362   1.002   1.840  13.520
58954W        W25363  22.276  27.868   0.837
58955W        W25364  12.217  15.727   0.954
58956W        W25365  34.994   2.660   0.375
58957W        W25366  18.628  14.261   1.175
58958W        W25367  40.916  25.885  11.035
58959W        W25368  37.157  41.856  10.749
58960W        W25369  21.664  13.956  11.599
58961W        W25370  25.138   1.821   0.041
58962W        W25371  42.462   6.287   3.282
58963W        W25372  37.482  22.418   4.824
58964W        W25373  44.913  22.665   4.817
58965W        W25374   7.204  24.105   1.369
58966W        W25375  24.884  14.826  11.013
58967W        W25376   7.776  29.549   4.160
58968W        W25377  18.870  16.578   0.751
58969W        W25378   9.372  21.552  14.351
58970W        W25379   4.937   0.478   4.108
58971W        W25380  26.530  30.149   0.439
58972W        W25381  25.273  29.374  11.138
58973W        W25382  27.503  33.072   4.578
58974W        W25383  31.995  15.798  12.994
58975W        W25384   8.089  43.410   4.323
58976W        W25385  23.238  26.453   1.691
58977W        W25386  43.931   9.921  12.539
58978W        W25387  11.106  26.964   4.559
58979W        W25388  30.006  37.776  10.706
58980W        W25389   9.763   7.634   4.761
58981W        W25390  40.499  41.902  14.934
58982W        W25391  23.296  15.265  11.571
58983W        W25392  33.225  43.999  10.676
58984W        W25393  26.450   9.865  13.414
58985W        W25394  41.466   3.704  14.843
58986W        W25395  12.357  29.016   2.694
58987W        W25396  43.575  24.331  13.905
58988W        W25397   9.873   9.143   0.467
58989W        W25398  36.375  11.657   0.436
58990W        W25399  20.625   5.139   1.389
58991W        W25400  36.004   2.479   3.368
58992W        W25401  22.690  21.989   1.410
58993W        W25402  25.420   9.846   4.055
58994W        W25403  16.089  37.584  12.620
58995W        W25404  32.576  32.021  13.750
58996W        W25405  25.632  20.804  13.442
58997W        W25406  35.894  11.078   0.545
58998W        W25407  34.995   5.445  13.947
58999W        W25408  41.505  36.082   4.666
59000W        W25409  30.139  25.512   3.656
59001W        W25410  10.045  11.746   1.364
59002W        W25411  24.472  21.027  11.031
59003W        W25412  25.022   4.729  14.903
59004W        W25413  32.173  12.035   5.064
59005W        W25414   1.981  14.242   0.502
59006W        W25415  40.325  13.747   1.844
59007W        W25416   1.638  22.285  11.686
59008W        W25417  24.898  21.017   1.266
59009W        W25418   3.891  42.547   0.779
59010W        W25419  36.163  14.647   1.015
59011W        W25420   7.428   2.758   0.558
59012W        W25421   9.689  20.043   4.164
59013W        W25422  20.275  34.957   3.246
59014W        W25423  18.187  39.239  13.484
59015W        W25424  44.888  41.941   4.151
59016W        W25425   7.490  16.310  10.682
59017W        W25426  12.907  40.449  11.517
59018W        W25427  27.018  24.632   1.660
59019W        W25428  22.709  27.208   2.764
59020W        W25429  28.483  44.797  12.015
59021W        W25430  41.402  41.901  13.442
59022W        W25431  25.736  43.391   1.680
59023W        W25432  17.404   4.605   1.758
59024W        W25433  35.927  37.469   3.150
59025W        W25434  11.646  26.489   4.134
59026W        W25435  30.951  12.929  14.734
59027W        W25436  31.870  27.526   2.464
59028W        W25437  23.332   7.320  11.461
59029W        W25438  19.936  29.378  11.047
59030W        W25439  16.915  40.041   0.914
59031W        W25440  37.070  20.339   1.355
59032W        W25441  43.881   7.149  10.720
59033W        W25442   5.362  28.741   0.386
59034W        W25443  17.897   0.741  13.119
59035W        W25444  28.023  35.316  14.545
59036W        W25445   3.590   6.761   0.446
59037W        W25446  14.893  15.252  12.867
59038W        W25447  38.918  12.783  12.025
59039W        W25448  39.940   1.427  12.512
59040W        W25449  37.255  16.179   3.509
59041W        W25450  12.446  29.907   2.912
59042W        W25451   5.496  12.512   3.226
59043W        W25452  13.260  36.539  12.680
59044W        W25453  29.149  41.194   3.206
59045W        W25454  37.860  28.356   1.379
59046W        W25455  34.350   8.877   0.753
59047W        W25456  28.545   3.394   4.005
59048W        W25457  41.741  34.146  11.845
59049W        W25458   7.695  10.560   0.007
59050W        W25459  33.076  13.985   2.396
59051W        W25460   5.351  34.637  14.321
59052W        W25461  15.616  18.148  11.180
59053W        W25462  42.224  26.478   2.798
59054W        W25463   6.856   8.116   3.058
59055W        W25464   9.171  19.034  11.007
59056W        W25465  39.390  43.019  12.507
59057W        W25466  32.284  26.202   1.891
59058W        W25467  25.922  18.298  13.966
59059W        W25468   0.253   9.849   1.254
59060W        W25469  27.609  44.900  11.316
59061W        W25470  25.414  32.028   1.269
59062W        W25471  29.847  29.669   3.673
59063W        W25472  15.369  31.240   0.875
59064W        W25473   7.686   6.680  13.929
59065W        W25474   2.818   0.276  14.298
59066W        W25475  22.731  12.275   1.663
59067W        W25476   9.114  27.869   3.048
59068W        W25477  19.465  25.304  13.082
59069W        W25478  19.329  26.770   0.186
59070W        W25479   0.248  13.581  14.942
59071W        W25480  32.886  31.908   0.962
59072W        W25481  35.035  27.043   4.730
59073W        W25482  34.639  35.924  14.343
59074W        W25483  36.858  21.024  12.104
59075W        W25484  14.289  12.328   2.701
59076W        W25485  38.295   9.129  12.112
59077W        W25486  38.595  22.645   3.776
59078W        W25487  44.550   9.479  11.502
59079W        W25488   0.826  15.709   1.879
59080W        W25489  31.579  15.536  12.750
59081W        W25490  12.704  27.894   3.184
59082W        W25491  14.701   9.370   3.821
59083W        W25492  20.602  42.049   3.529
59084W        W25493  39.017  11.704   0.800
59085W        W25494   9.224   5.849  11.990
59086W        W25495  33.632  40.986   1.830
59087W        W25496  13.706  15.055   3.159
59088W        W25497  23.368  17.479   4.511
59089W        W25498  40.768  39.311  12.896
59090W        W25499  11.319  22.553  13.590
59091W        W25500  13.534  13.713   0.295
59092W        W25501  22.564  23.665  12.098
59093W        W25502   6.700  16.175   0.527
59094W        W25503   7.902  13.324   4.870
59095W        W25504  43.991  14.779   5.088
59096W        W25505  23.568  41.642  12.581
59097W        W25506  12.682  39.347  12.903
59098W        W25507  33.605  41.752  13.948
59099W        W25508  42.553  12.096   2.668
59100W        W25509  39.398  17.400  14.986
59101W        W25510  29.070  14.614   3.828
59102W        W25511  13.821   8.654  14.873
59103W        W25512  27.027  35.523  11.748
59104W        W25513  25.015  27.779  11.511
59105W        W25514   6.061   4.015   4.259
59106W        W25515  31.910  34.423  12.545
59107W        W25516  20.239  20.450  12.650
59108W        W25517   1.006  14.583  11.553
59109W        W25518   3.312  16.630   2.473
59110W        W25519  34.033   8.419   0.416
59111W        W25520  32.594   5.824  10.702
59112W        W25521   3.826  19.026  11.130
59113W        W25522   5.607  15.516  12.515
59114W        W25523   2.248  11.880  11.141
59115W        W25524  13.102  12.203  13.529
59116W        W25525  28.043  35.245  13.368
59117W        W25526  43.742  39.058  10.705
59118W        W25527  26.568  33.489   4.205
59119W        W25528  33.432   0.296  10.705
59120W        W25529  38.935   8.089  13.323
59121W        W25530   6.183  23.105  13.017
59122W        W25531  30.439  20.267  11.497
59123W        W25532  28.631  21.770   9.977
59124W        W25533  12.988  24.410   1.930
59125W        W25534   6.405  14.354  10.702
59126W        W25535   1.395  27.550  11.234
59127W        W25536  31.505   0.474  12.187
59128W        W25537   2.962  15.081   2.651
59129W        W25538   7.152   0.854   1.682
59130W        W25539  22.980  29.962   4.844
59131W        W25540  29.243  17.579  14.806
59132W        W25541  29.508  36.927  10.463
59133W        W25542  13.821  31.045   4.777
59134W        W25543  31.084  39.487   4.203
59135W        W25544  42.191   8.647   1.053
59136W        W25545  26.316  12.165   3.798
59137W        W25546   5.858  37.563   3.696
59138W        W25547  19.549   8.942  12.230
59139W        W25548   0.158   8.632   3.210
59140W        W25549  25.188  14.673  14.705
59141W        W25550  33.313  41.344   4.191
59142W        W25551  19.817  28.006  14.354
59143W        W25552  13.486  24.184   1.900
59144W        W25553  42.753  40.578  11.040
59145W        W25554  15.070  25.198  13.788
59146W        W25555  24.415   1.354   1.156
59147W        W25556  44.803  25.112   4.673
59148W        W25557  20.688  20.082  13.420
59149W        W25558   8.608   0.461   1.724
59150W        W25559  38.276  32.596   2.867
59151W        W25560  23.577  31.657  12.531
59152W        W25561  40.829  39.469   3.330
59153W        W25562  41.759   5.233  12.062
59154W        W25563  29.514  33.836  12.808
59155W        W25564  27.486  26.074  13.107
59156W        W25565  27.835  29.965  13.076
59157W        W25566  27.027  19.588   1.822
59158W        W25567  44.667  13.386  14.241
59159W        W25568  30.519  33.509   3.385
59160W        W25569   4.392   6.591   0.813
59161W        W25570   6.756  14.192   1.747
59162W        W25571  23.495  26.900  12.461
59163W        W25572  44.313  15.443   4.540
59164W        W25573  36.506   0.903  14.270
59165W        W25574  13.665  43.501   3.566
59166W        W25575  18.509  34.136  14.464
59167W        W25576   7.128  42.427  10.677
59168W        W25577  38.119  21.680  11.810
59169W        W25578  44.032  31.620  11.892
59170W        W25579  16.252   3.332   2.667
59171W        W25580  15.370   8.273  12.004
59172W        W25581  19.693  11.423   1.679
59173W        W25582  20.229  39.918  12.396
59174W        W25583  39.969  38.328   3.652
59175W        W25584  20.384   1.753  11.132
59176W        W25585  20.141   9.647   2.473
59177W        W25586  25.027  16.204  14.826
59178W        W25587  42.378  42.245  14.821
59179W        W25588  42.847  27.970  14.551
59180W        W25589  32.169  34.522   1.983
59181W        W25590   3.739  42.813   2.761
59182W        W25591  15.116   5.176   0.004
59183W        W25592   8.247   7.929   0.468
59184W        W25593  31.844  30.048  14.986
59185W        W25594  44.080  17.372   3.222
59186W        W25595  28.647  14.215  10.715
59187W        W25596  13.507  25.076  12.049
59188W        W25597  12.329  21.758   1.937
59189W        W25598  37.101  14.063  14.807
59190W        W25599  21.758   9.776   3.595
59191W        W25600  14.306  24.502  12.508
59192W        W25601  42.960  30.300  13.926
59193W        W25602  31.953  11.680   3.591
59194W        W25603  11.216  19.328  13.707
59195W        W25604   2.903  15.843  12.534
59196W        W25605  11.809  37.704  13.503
59197W        W25606  42.291  24.216  11.126
59198W        W25607   8.738  16.848  11.944
59199W        W25608  14.794  34.555   4.452
59200W        W25609  40.681   7.092  14.786
59201W        W25610  42.011  33.612   2.799
59202W        W25611  28.379  12.438  12.553
59203W        W25612   1.455   0.156  11.083
59204W        W25613  24.521  38.040  10.660
59205W        W25614  42.100  22.567   3.581
59206W        W25615  41.700   0.992  11.761
59207W        W25616  32.487  39.025  12.029
59208W        W25617   1.919  30.907  14.518
59209W        W25618  42.020  11.120   0.468
59210W        W25619  33.299  33.144   3.012
59211W        W25620  13.855  38.340   0.865
59212W        W25621   4.910   2.870  14.716
59213W        W25622   5.378  39.016  10.951
59214W        W25623  10.345   8.717   4.942
59215W        W25624  31.973   0.011   2.800
59216W        W25625  13.209  22.237   4.542
59217W        W25626  19.502  42.847   3.082
59218W        W25627   4.238  24.116   0.413
59219W        W25628  42.918   6.097  12.132
59220W        W25629  37.492  20.746   2.280
59221W        W25630  23.037  34.658   2.150
59222W        W25631  21.004  11.324   2.395
59223W        W25632  38.712  11.407   3.716
59224W        W25633   5.273  20.436  10.758
59225W        W25634  29.386  24.034   3.359
59226W        W25635  26.630  44.048  11.931
59227W        W25636  34.675  14.301   2.245
59228W        W25637  25.336   8.718  12.474
59229W        W25638  23.162  13.450  11.441
59230W        W25639  43.224  20.636   4.762
59231W        W25640  44.751  19.740  11.548
59232W        W25641  27.714  32.873  12.097
59233W        W25642   2.363  12.102  12.519
59234W        W25643   3.159   7.650  13.905
59235W        W25644  37.686  21.567  13.370
59236W        W25645  41.043  22.257  11.506
59237W        W25646   2.878  29.535   1.970
59238W        W25647  29.165  27.839  11.273
59239W        W25648  31.939   4.398  11.625
59240W        W25649  32.547  40.259   0.693
59241W        W25650  41.467  44.765  13.506
59242W        W25651  18.290  10.862   2.400
59243W        W25652  26.526  33.563   0.153
59244W        W25653   3.372  18.755  11.247
59245W        W25654  29.070  23.544  12.637
59246W        W25655   8.926  15.260   3.188
59247W        W25656  26.930  43.264  11.524
59248W        W25657   6.546   0.113  12.957
59249W        W25658   9.423  12.740  12.669
59250W        W25659  40.456  26.652  11.145
59251W        W25660  38.455  23.266  12.116
59252W        W25661   5.661   0.151   2.748
59253W        W25662  20.608  35.654  14.874
59254W        W25663  41.772  23.579  13.764
59255W        W25664  15.632   7.370   1.040
59256W        W25665   5.299  36.996   1.675
59257W        W25666  21.294  27.561  10.278
59258W        W25667   7.278   7.770  14.460
59259W        W25668  41.080  36.451  10.742
59260W        W25669  29.976   7.665  14.110
59261W        W25670  12.777  21.873   2.287
59262W        W25671   0.234   5.840  13.281
59263W        W25672   0.445   9.462   4.355
59264W        W25673   7.432   4.199  13.561
59265W        W25674  23.639  43.390  13.690
59266W        W25675  41.241  38.242  13.481
59267W        W25676  29.156   2.546   0.795
59268W        W25677   6.896   2.785   4.192
59269W        W25678  37.992  33.539   4.628
59270W        W25679   7.406  15.213  12.879
59271W        W25680   0.949  15.605   0.918
59272W        W25681  41.387  27.007  14.312
59273W        W25682  39.469  32.886   1.820
59274W        W25683   2.435   5.483   2.837
59275W        W25684  20.209  11.557   0.884
59276W        W25685  38.080  21.732  12.701
59277W        W25686  18.245  15.068  13.854
59278W        W25687  27.197  39.929  11.166
59279W        W25688  20.337  27.969  14.352
59280W        W25689  10.232  26.024  14.451
59281W        W25690  29.940  39.530   4.500
59282W        W25691  42.808   3.264   3.674
59283W        W25692  13.221  33.910   9.789
59284W        W25693  11.770  36.943   1.911
59285W        W25694  43.402  25.117   1.389
59286W        W25695   2.052  35.203   2.174
59287W        W25696  17.855  22.689  13.961
59288W        W25697  39.595  39.533   0.293
59289W        W25698  19.931  35.512   0.505
59290W        W25699  26.438  32.074  13.849
59291W        W25700   3.351  32.858  10.447
59292W        W25701   7.858  12.689   3.712
59293W        W25702  39.038   1.530  10.749
59294W        W25703  22.047   5.202  12.546
59295W        W25704   6.510  35.611   0.438
59296W        W25705  43.655  35.616   4.552
59297W        W25706  43.808  44.334   3.463
59298W        W25707  41.342  28.492  11.439
59299W        W25708  21.960  19.689   4.016
59300W        W25709  40.756   0.999   2.715
59301W        W25710  39.317  33.128  14.295
59302W        W25711  42.485  18.243   3.160
59303W        W25712  28.424  24.274   3.618
59304W        W25713   2.824   6.645  12.120
59305W        W25714  35.466  23.603   4.213
59306W        W25715   6.237   6.360   1.765
59307W        W25716  23.078  31.754  12.592
59308W        W25717   3.190  43.346   3.245
59309W        W25718  35.351  35.761  13.051
59310W        W25719  42.182  18.184  14.921
59311W        W25720  43.708  30.029  14.458
59312W        W25721  42.894  34.151   3.687
59313W        W25722  38.289  14.628  13.350
59314W        W25723  26.250   5.629  13.004
59315W        W25724  37.387  39.475  13.548
59316W        W25725  28.085   0.678  11.788
59317W        W25726  26.447  10.051  12.512
59318W        W25727   0.153  23.679   1.707
59319W        W25728   5.331  32.361   1.346
59320W        W25729  13.033   9.269   1.297
59321W        W25730  19.263  29.521   4.067
59322W        W25731  12.739  30.180   1.217
59323W        W25732  35.554  24.030   0.984
59324W        W25733  40.914  22.505  11.980
59325W        W25734  24.074  40.493   4.994
59326W        W25735  35.939  11.567   0.713
59327W        W25736  27.476  23.126   3.660
59328W        W25737  36.331  19.996   2.688
59329W        W25738   8.203  23.571  14.714
59330W        W25739  42.054  41.780   3.666
59331W        W25740  31.890  13.525   0.772
59332W        W25741  31.668   0.845   9.870
59333W        W25742  43.790  43.827   3.312
59334W        W25743   8.351   3.721   1.693
59335W        W25744  25.092  11.579   4.955
59336W        W25745   3.236  25.123  11.168
59337W        W25746  30.548  38.581  12.929
59338W        W25747  17.104  29.351  13.956
59339W        W25748  25.340  43.875  11.258
59340W        W25749   6.723   1.806  13.812
59341W        W25750   9.141  10.721   3.707
59342W        W25751  15.162  38.685  12.012
59343W        W25752  23.918  31.426   4.859
59344W        W25753   9.313  18.102   4.040
59345W        W25754  12.868  20.208   1.886
59346W        W25755   5.622  17.520  14.554
59347W        W25756  29.605   3.357   3.726
59348W        W25757  23.735  35.481   2.832
59349W        W25758  41.892  19.843   2.950
59350W        W25759  38.831   6.735  12.614
59351W        W25760  44.985  21.692  10.777
59352W        W25761  15.557  43.023  13.476
59353W        W25762  41.375   9.277  11.991
59354W        W25763  17.367  33.711   2.131
59355W        W25764  30.625  17.113   1.689
59356W        W25765  15.386  28.755  11.194
59357W        W25766   9.917  34.831   4.123
59358W        W25767   1.964  19.603   4.625
59359W        W25768  32.571  29.563   4.606
59360W        W25769  41.445  40.735  12.463
59361W        W25770   2.449   1.317   0.913
59362W        W25771  29.868  26.160   3.245
59363W        W25772  23.977   4.331  10.645
59364W        W25773  15.102  41.738  10.646
59365W        W25774  14.332  20.956   1.222
59366W        W25775  22.024   0.200  12.462
59367W        W25776   8.092   1.286   2.597
59368W        W25777   6.429  20.193  11.192
59369W        W25778  28.207  38.171   0.102
59370W        W25779  27.358   0.717   1.272
59371W        W25780   9.674  17.771   0.514
59372W        W25781  38.159  14.674   3.243
59373W        W25782  41.958  29.961  11.643
59374W        W25783  37.980  26.975   3.063
59375W        W25784  20.388  39.079   4.206
59376W        W25785  30.132  14.664   4.085
59377W        W25786  14.323   9.755   2.792
59378W        W25787  39.958  31.108  11.383
59379W        W25788  11.090  40.944  14.010
59380W        W25789  15.189  26.423   3.589
59381W        W25790   1.962  27.678  11.044
59382W        W25791  34.859  13.828   2.370
59383W        W25792  40.988  29.870  10.958
59384W        W25793   6.495  10.879  11.289
59385W        W25794  23.936  29.110  14.437
59386W        W25795   5.418  19.497  11.136
59387W        W25796  27.647  14.182  13.320
59388W        W25797  34.704  18.593  12.046
59389W        W25798  35.827   7.172   1.677
59390W        W25799  29.596  28.697   0.317
59391W        W25800   1.886  10.629   4.140
59392W        W25801  23.710  13.267  13.253
59393W        W25802  40.076  26.567  10.772
59394W        W25803  24.413   6.822  10.970
59395W        W25804  26.072  40.890  10.868
59396W        W25805   6.411  29.390   4.903
59397W        W25806  11.737  20.777   1.242
59398W        W25807   2.681  27.937   3.586
59399W        W25808   3.692  43.071   4.249
59400W        W25809  22.509  39.758   1.726
59401W        W25810  28.542   9.008   1.885
59402W        W25811  15.869  25.462   2.258
59403W        W25812  14.279  20.450   5.252
59404W        W25813  23.652  30.456  13.812
59405W        W25814   9.724  30.132  13.400
59406W        W25815   6.620  33.459   1.941
59407W        W25816  33.543   8.577   0.375
59408W        W25817   0.169  37.392  14.404
59409W        W25818   4.816  30.006  11.554
59410W        W25819  36.080   0.376  12.655
59411W        W25820  42.345  25.582   4.318
59412W        W25821   7.847  16.355   1.683
59413W        W25822  39.917  23.974  14.673
59414W        W25823  28.950  33.778  14.230
59415W        W25824  24.054  38.479  13.875
59416W        W25825  24.094   8.540  13.367
59417W        W25826  30.190   7.635   2.875
59418W        W25827   7.362  44.927  13.889
59419W        W25828  22.677  33.890   4.156
59420W        W25829  11.100  12.877   2.868
59421W        W25830  22.257  28.670   1.625
59422W        W25831  33.956  23.715   4.207
59423W        W25832  42.516   5.920  14.873
59424W        W25833  24.020  10.771  11.612
59425W        W25834   7.269  15.336   0.684
59426W        W25835  31.061  28.623   4.592
59427W        W25836  16.628  39.393   0.326
59428W        W25837   2.390  22.013  14.845
59429W        W25838  30.910  39.553  13.443
59430W        W25839  38.530  40.017  11.962
59431W        W25840  32.372  27.593   2.405
59432W        W25841  30.629  43.285  14.121
59433W        W25842  18.750  41.505   0.348
59434W        W25843  35.881   8.084   0.186
59435W        W25844   4.328   5.402   1.528
59436W        W25845   3.044   4.392  14.983
59437W        W25846  37.682  24.582  14.075
59438W        W25847  27.096  29.072  13.037
59439W        W25848  39.282  24.626  11.437
59440W        W25849  28.798  31.222   1.235
59441W        W25850  14.690   7.525  13.123
59442W        W25851  15.230  27.380  12.586
59443W        W25852  26.032  34.892  14.981
59444W        W25853  25.107  36.126   2.337
59445W        W25854  12.739  26.522  11.417
59446W        W25855   7.204   9.243   4.727
59447W        W25856  17.220  39.002  12.631
59448W        W25857   2.377  35.216   2.577
59449W        W25858  25.080  42.273   4.173
59450W        W25859   7.938   1.287  12.035
59451W        W25860   6.777  33.637   4.529
59452W        W25861   6.871  32.651   9.752
59453W        W25862  25.680  24.404  11.055
59454W        W25863  41.497   9.657  14.817
59455W        W25864   3.513  12.121  12.415
59456W        W25865  39.583  19.634   4.991
59457W        W25866  22.798  10.726  14.262
59458W        W25867  43.374  44.186   1.879
59459W        W25868  34.427  23.457  13.491
59460W        W25869  36.181  43.037   2.656
59461W        W25870  25.506  10.903  14.234
59462W        W25871  14.351  26.293   3.752
59463W        W25872   1.844   0.668  11.531
59464W        W25873  36.142  21.616  12.050
59465W        W25874   6.386  25.874  11.530
59466W        W25875  26.567  36.177  12.894
59467W        W25876  28.913  10.704  14.490
59468W        W25877  40.208   9.722   1.025
59469W        W25878   0.404  29.191   0.309
59470W        W25879  35.168  34.811   4.487
59471W        W25880  24.518   5.134  11.439
59472W        W25881  13.297   6.153  10.704
59473W        W25882   1.005   1.179  14.049
59474W        W25883  25.671  24.781   4.057
59475W        W25884  13.902   1.815   4.545
59476W        W25885   6.075  13.264   1.708
59477W        W25886  19.319   4.139   2.285
59478W        W25887  20.089  12.590   3.130
59479W        W25888  16.131  34.935  11.970
59480W        W25889  44.446  18.095   0.247
59481W        W25890  13.897  40.716  12.196
59482W        W25891   7.700  11.057  14.856
59483W        W25892   9.907  35.105  14.432
59484W        W25893  27.657  24.781   4.719
59485W        W25894  34.356  38.937  11.240
59486W        W25895  11.200  21.256   3.310
59487W        W25896  21.038   1.794   4.718
59488W        W25897  13.319  35.842   2.335
59489W        W25898   2.938   5.406   3.581
59490W        W25899  37.213  25.565   2.612
59491W        W25900  11.573   7.787   4.664
59492W        W25901   0.736  43.548   4.072
59493W        W25902   7.928  38.865   4.007
59494W        W25903  40.857  41.317   0.010
59495W        W25904  36.840   1.566  12.141
59496W        W25905  12.455  33.402  12.976
59497W        W25906  17.317   3.502  11.420
59498W        W25907  37.518  22.957   4.721
59499W        W25908  14.134  42.076  11.581
59500W        W25909  23.500   2.721   4.421
59501W        W25910  31.873  15.494   4.097
59502W        W25911  42.793  27.579   1.175
59503W        W25912  16.146   5.174   2.278
59504W        W25913  24.912  44.826   4.499
59505W        W25914   6.369   6.931   0.139
59506W        W25915  23.487  23.706   2.735
59507W        W25916  29.299  29.137  11.948
59508W        W25917  24.706  34.963   1.482
59509W        W25918  23.271  30.352  13.494
59510W        W25919  10.204  14.236  13.642
59511W        W25920  22.467  13.735   4.683
59512W        W25921   1.476  44.826  10.684
59513W        W25922   7.700  25.054  13.001
59514W        W25923  10.817  27.240  13.310
59515W        W25924   7.638  14.577   0.754
59516W        W25925  44.900   7.500   0.311
59517W        W25926  43.739  29.493   0.828
59518W        W25927  16.186  33.020   1.669
59519W        W25928  18.568  30.188   3.722
59520W        W25929  23.746  11.046  12.919
59521W        W25930  16.057  31.622  13.046
59522W        W25931  36.333   8.459   4.222
59523W        W25932  23.210  19.510  11.018
59524W        W25933  12.183  11.795   0.418
59525W        W25934  39.164   4.032   3.961
59526W        W25935   1.638   9.388  11.543
59527W        W25936  29.923  24.386   0.970
59528W        W25937  26.152  29.512   2.638
59529W        W25938  29.094   9.788   4.018
59530W        W25939   6.819   0.866  10.741
59531W        W25940  44.061   6.510   4.132
59532W        W25941  42.742  10.599   4.023
59533W        W25942   3.811  20.476  12.227
59534W        W25943  14.786  19.740  11.086
59535W        W25944  38.968  19.619  11.423
59536W        W25945  26.047   8.760   1.240
59537W        W25946  24.493  38.820  12.643
59538W        W25947  22.238  26.992   2.675
59539W        W25948  40.235   7.320   2.183
59540W        W25949  42.860  16.798   1.206
59541W        W25950  30.980  13.299  14.368
59542W        W25951  35.513  11.708   1.721
59543W        W25952   0.791  32.928   2.328
59544W        W25953  13.679  23.709   0.333
59545W        W25954  21.140  22.620  12.195
59546W        W25955  23.212   8.216   4.500
59547W        W25956   4.341   1.757   4.059
59548W        W25957   1.745  28.751   1.293
59549W        W25958  22.782  36.797   2.665
59550W        W25959   3.314   3.831  11.021
59551W        W25960  15.810  44.228  13.954
59552W        W25961  33.808  10.331   3.124
59553W        W25962   2.919  40.729   2.461
59554W        W25963  39.551  39.630   4.364
59555W        W25964   2.904  39.558  13.450
59556W        W25965   8.070  18.692   1.731
59557W        W25966   1.285   4.461  10.690
59558W        W25967  42.133  20.038   4.053
59559W        W25968  33.344   9.144  14.468
59560W        W25969  37.734   5.521  12.087
59561W        W25970   0.026   2.006  11.518
59562W        W25971  35.621  30.442  11.947
59563W        W25972   8.386   5.133   2.400
59564W        W25973   2.939  13.623  11.436
59565W        W25974  43.231  33.651   0.947
59566W        W25975  22.547   4.723   4.057
59567W        W25976  17.504  15.989  14.385
59568W        W25977  31.824  15.141   0.467
59569W        W25978  13.728  11.664   1.163
59570W        W25979  10.769  25.134   4.076
59571W        W25980  17.295  24.870  13.348
59572W        W25981  16.255  11.613   4.123
59573W        W25982  33.913  28.841  10.950
59574W        W25983  41.523  25.944   1.851
59575W        W25984  16.646  25.497  13.470
59576W        W25985   6.471  19.668  12.532
59577W        W25986  10.787  30.972   1.794
59578W        W25987  10.270   8.091  12.474
59579W        W25988  32.545   6.194  13.920
59580W        W25989  36.094  36.284   1.979
59581W        W25990  17.607   0.550   0.396
59582W        W25991   5.467  40.745   1.291
59583W        W25992  20.649  42.584  10.624
59584W        W25993  34.151  43.715   1.196
59585W        W25994  23.913  20.695   4.278
59586W        W25995  28.496  24.710  14.830
59587W        W25996  20.313   8.253  14.352
59588W        W25997  16.354  40.516  14.797
59589W        W25998  15.844   4.986   0.656
59590W        W25999   1.439  31.817  11.146
59591W        W26000  13.785  20.996   1.282
59592W        W26001   7.092  25.905  12.060
59593W        W26002  35.803   8.635   1.401
59594W        W26003  15.537  20.128  11.519
59595W        W26004  15.810  21.755   9.880
59596W        W26005  14.866   0.863   3.163
59597W        W26006  26.772   7.701  12.465
59598W        W26007  42.336  19.494  11.514
59599W        W26008  37.530  39.378   1.647
59600W        W26009  38.086  18.506  12.530
59601W        W26010   8.600  29.942   4.707
59602W        W26011  40.938  20.222   1.535
59603W        W26012  19.821  31.551  12.457
59604W        W26013  41.958  25.096  12.772
59605W        W26014   8.225   5.955  12.459
59606W        W26015  26.002  43.748  13.954
59607W        W26016   5.215  19.244   2.938
59608W        W26017  35.937   4.247  13.052
59609W        W26018  32.348  15.187   0.461
59610W        W26019   8.069  17.302  11.524
59611W        W26020  33.427   1.605   5.015
59612W        W26021   6.154  38.871  14.774
59613W        W26022   8.222  37.388   5.223
59614W        W26023  25.418  30.857  14.924
59615W        W26024  16.393  18.469   3.116
59616W        W26025  43.248   0.293  14.634
59617W        W26026  16.813  42.478   1.959
59618W        W26027  21.478  24.334  14.937
59619W        W26028  18.780  32.678  12.080
59620W        W26029   0.354  38.984   2.269
59621W        W26030  15.534  37.454   2.300
59622W        W26031  36.434  32.067   3.156
59623W        W26032   2.732  34.948  11.554
59624W        W26033   8.185  43.390   4.867
59625W        W26034  29.745  25.094  11.895
59626W        W26035  37.284  39.861   4.000
59627W        W26036  13.136  37.018  12.516
59628W        W26037  18.332  40.073   4.352
59629W        W26038  37.085  21.088   4.544
59630W        W26039  39.764  35.787   2.815
59631W        W26040   3.716   2.653   1.340
59632W        W26041  37.378  37.126   4.196
59633W        W26042  12.108   4.645   3.168
59634W        W26043   8.474  21.706  14.465
59635W        W26044   6.713   3.658  14.058
59636W        W26045   0.967  34.913  14.322
59637W        W26046  10.523  30.370   5.699
59638W        W26047   1.915  12.959  14.407
59639W        W26048  31.671   5.283   3.762
59640W        W26049  14.448   1.252   9.765
59641W        W26050  44.357  32.840  12.178
59642W        W26051   1.939  42.956   0.016
59643W        W26052  38.386  17.793   3.247
59644W        W26053  44.018   5.092  13.134
59645W        W26054   2.638  23.232  13.111
59646W        W26055  17.485  40.087  12.207
59647W        W26056   2.259  43.971   2.502
59648W        W26057  23.284  23.717  11.575
59649W        W26058  39.595  26.551   2.254
59650W        W26059   1.388  31.715  14.419
59651W        W26060  22.469  39.968   0.773
59652W        W26061  14.810  43.601   2.623
59653W        W26062  33.514  29.279  12.058
59654W        W26063   1.522  15.774   1.607
59655W        W26064  11.730  36.583   3.319
59656W        W26065  27.692  10.470   2.233
59657W        W26066  42.511  18.771  12.090
59658W        W26067  12.564  21.954   4.985
59659W        W26068  23.167  22.040  11.696
59660W        W26069  17.315  15.295  11.123
59661W        W26070  25.031  44.958   1.813
59662W        W26071  24.059  22.525  12.566
59663W        W26072  31.656   8.886  12.027
59664W        W26073   6.110  33.057   2.790
59665W        W26074   8.759  40.119  13.445
59666W        W26075   4.256  12.826  13.080
59667W        W26076   9.782  35.167   4.477
59668W        W26077  19.072  22.201   2.197
59669W        W26078  19.259  35.611  13.854
59670W        W26079  11.756  37.334  10.664
59671W        W26080   9.721  20.610   0.279
59672W        W26081  32.078   0.410  10.300
59673W        W26082   9.344  21.697  10.834
59674W        W26083  10.661  35.260   3.278
59675W        W26084   1.746  33.230  12.887
59676W        W26085  26.492  38.230   4.039
59677W        W26086  20.563   3.421   2.169
59678W        W26087  21.786  23.618   0.244
59679W        W26088   5.852   4.834   0.754
59680W        W26089  17.530  31.087   1.455
59681W        W26090  40.349   9.674   4.579
59682W        W26091  24.974  34.549   4.142
59683W        W26092  35.768  37.650   3.620
59684W        W26093  32.168  26.009   3.703
59685W        W26094  26.526  33.598   2.712
59686W        W26095  23.949  35.836   1.860
59687W        W26096   0.980  19.100   2.166
59688W        W26097  16.130   2.554  13.171
59689W        W26098  11.418  15.185  12.663
59690W        W26099  19.112  43.452  12.705
59691W        W26100  40.288  31.953   2.433
59692W        W26101  30.190   6.052  12.305
59693W        W26102   0.594   5.558   3.115
59694W        W26103   7.153  23.612   0.431
59695W        W26104   6.673  13.789  11.216
59696W        W26105   2.770  23.732  14.732
59697W        W26106   7.110  32.595   4.284
59698W        W26107  40.349   1.778   0.462
59699W        W26108   6.952  21.159  13.171
59700W        W26109  14.897  10.291   3.573
59701W        W26110  36.322  34.391   1.326
59702W        W26111   7.780  27.708  13.593
59703W        W26112  36.388  29.582  11.988
59704W        W26113   4.360   0.764   2.296
59705W        W26114   3.342  24.295   9.725
59706W        W26115  14.759   7.367   0.476
59707W        W26116   7.202  37.892  13.182
59708W        W26117  13.692  32.182  14.013
59709W        W26118  36.921  13.308   0.275
59710W        W26119  40.396  41.280   3.189
59711W        W26120  24.613  18.366  13.302
59712W        W26121   2.911   5.091  14.376
59713W        W26122  18.177  18.172  11.709
59714W        W26123  29.508  13.599   1.576
59715W        W26124  17.179  35.647  13.318
59716W        W26125  40.705  13.819  14.458
59717W        W26126  10.870  26.923  11.195
59718W        W26127  16.251  23.153  12.394
59719W        W26128  28.029   5.114   0.985
59720W        W26129  33.555  44.889   2.941
59721W        W26130  22.740  20.794   2.909
59722W        W26131  31.359  36.811   3.737
59723W        W26132  16.240   8.093   2.053
59724W        W26133  31.680   7.745  14.932
59725W        W26134  25.049  15.091   3.419
59726W        W26135  34.128  39.419   0.487
59727W        W26136  18.242  23.507  10.774
59728W        W26137  30.868   9.995   4.014
59729W        W26138   6.339   4.951  11.846
59730W        W26139  14.356  16.898  10.583
59731W        W26140  25.628   9.406   3.833
59732W        W26141  12.409  15.452   4.236
59733W        W26142   2.032  22.736  14.943
59734W        W26143  42.857  18.074   0.887
59735W        W26144  42.287  32.335   2.999
59736W        W26145  10.758  29.881   3.716
59737W        W26146  23.247  15.170  10.668
59738W        W26147   1.813  15.476  12.639
59739W        W26148   2.167  27.763   3.424
59740W        W26149  18.690  31.122  14.222
59741W        W26150  30.954   5.177  13.502
59742W        W26151  36.703   3.131   2.624
59743W        W26152   6.334  12.051   2.947
59744W        W26153  10.215  35.681   5.048
59745W        W26154  41.308   8.946   5.373
59746W        W26155   0.320  43.537   3.077
59747W        W26156  34.114   6.827   2.658
59748W        W26157  36.478  43.937   1.629
59749W        W26158  14.724  39.426   1.172
59750W        W26159  12.412  17.229  12.888
59751W        W26160  18.760  38.939  14.841
59752W        W26161  10.157  12.620   0.270
59753W        W26162  14.581   5.717   1.666
59754W        W26163  27.613  25.618   3.685
59755W        W26164  36.870   2.411  12.054
59756W        W26165  27.621  13.653  14.008
59757W        W26166  35.847  32.197  14.771
59758W        W26167  14.153   0.047   0.791
59759W        W26168  37.638  40.352  13.486
59760W        W26169  44.201  27.047  11.882
59761W        W26170  19.540  15.636  14.140
59762W        W26171  23.102  15.800   3.378
59763W        W26172  39.370  28.133   0.471
59764W        W26173  44.882  39.936   1.204
59765W        W26174   8.758  17.530   3.741
59766W        W26175  26.554  22.041   0.289
59767W        W26176  23.233  13.292   0.082
59768W        W26177  37.810  42.714  11.657
59769W        W26178  43.520   8.184   9.975
59770W        W26179  29.985  38.222   1.558
59771W        W26180   5.575   5.431  12.557
59772W        W26181  36.343  33.629   1.914
59773W        W26182   4.290   7.301  10.745
59774W        W26183  34.885  41.115  13.855
59775W        W26184  36.572  12.585  14.433
59776W        W26185  43.908   8.770  13.866
59777W        W26186  33.447   4.960  14.985
59778W        W26187  41.739   1.773   2.441
59779W        W26188  14.863  30.093   2.866
59780W        W26189  34.614  27.016  12.146
59781W        W26190  18.577  21.490  12.242
59782W        W26191  36.599  42.336  10.568
59783W        W26192   0.466  23.641   1.288
59784W        W26193  11.324  10.357  12.458
59785W        W26194   6.727  40.764  13.964
59786W        W26195  34.989   3.018  12.565
59787W        W26196  29.640  39.955   4.379
59788W        W26197  42.137   8.264  12.505
59789W        W26198  32.985  40.632  11.173
59790W        W26199  36.022  29.619  14.355
59791W        W26200   4.035  30.186  12.373
59792W        W26201  40.965  28.192  11.652
59793W        W26202  34.527  20.630   3.843
59794W        W26203   8.697   3.311  11.554
59795W        W26204  27.977  10.802   0.923
59796W        W26205  10.669  13.541  13.339
59797W        W26206  40.710  16.544   4.272
59798W        W26207  31.663  33.889  13.337
59799W        W26208  26.629  29.000   3.114
59800W        W26209   6.693  23.773  14.274
59801W        W26210  34.587  32.691   0.087
59802W        W26211  34.000  26.766  13.202
59803W        W26212  20.499   5.827  11.441
59804W        W26213  37.574   3.258  11.437
59805W        W26214   6.326  41.973  11.920
59806W        W26215  12.930   4.810  10.148
59807W        W26216  25.317  13.553  11.179
59808W        W26217  35.600  27.200  11.143
59809W        W26218  10.115   7.725  12.024
59810W        W26219  38.509  28.122   2.514
59811W        W26220   4.624  40.376   3.256
59812W        W26221  30.650  42.855  12.041
59813W        W26222  42.978  32.392  13.991
59814W        W26223  26.085  17.164   0.901
59815W        W26224   9.476  37.302  14.054
59816W        W26225  22.190  14.832  11.100
59817W        W26226  11.740  28.009  12.604
59818W        W26227  15.991  22.395  14.790
59819W        W26228  24.721  41.099   1.650
59820W        W26229  36.817  25.567  13.443
59821W        W26230   5.112  25.515  10.226
59822W        W26231  17.856   2.324  13.476
59823W        W26232  12.689  17.821  11.236
59824W        W26233  11.216   0.395  11.346
59825W        W26234  32.088  19.932   5.348
59826W        W26235  15.138  10.730   2.737
59827W        W26236  31.185  32.553   3.185
59828W        W26237  35.614   8.457  14.949
59829W        W26238  32.694  17.492   4.834
59830W        W26239  23.199  35.809  12.419
59831W        W26240  20.437  29.960   2.261
59832W        W26241  32.740  29.485  12.838
59833W        W26242  33.113  11.409  11.990
59834W        W26243  40.803  34.601  12.459
59835W        W26244  23.080  41.066   2.171
59836W        W26245  10.638   1.574   0.815
59837W        W26246  21.241  18.782  12.236
59838W        W26247  39.317  10.733   4.496
59839W        W26248  22.589  13.680  14.486
59840W        W26249  38.546  10.133  13.507
59841W        W26250  22.549   3.699   0.869
59842W        W26251   1.021   1.007  10.574
59843W        W26252  24.657  19.723   0.810
59844W        W26253  20.345  40.982  11.167
59845W        W26254  13.334  21.691   1.017
59846W        W26255   4.388  42.553  14.043
59847W        W26256  34.618  25.057   3.475
59848W        W26257   0.275  13.165   4.294
59849W        W26258  26.180  21.664  12.636
59850W        W26259  23.310  41.129  12.132
59851W        W26260  15.295  42.717  13.796
59852W        W26261  10.481  32.703  14.627
59853W        W26262  38.346   1.346  13.891
59854W        W26263  40.977   9.340  13.783
59855W        W26264   9.577  43.376   4.611
59856W        W26265  41.882   2.933  14.943
59857W        W26266  20.992  15.633  14.780
59858W        W26267  33.093  22.035  14.744
59859W        W26268  37.318  26.050  12.981
59860W        W26269   0.127   7.017  12.807
59861W        W26270   8.879  15.360  11.122
59862W        W26271  38.161  14.182  12.381
59863W        W26272  21.099  13.473  14.898
59864W        W26273  19.757  36.871  11.144
59865W        W26274  24.540   7.247  12.282
59866W        W26275  26.036   1.377   2.398
59867W        W26276   4.172  16.810  14.427
59868W        W26277  34.602  15.578   2.192
59869W        W26278  26.955  24.275  12.014
59870W        W26279  11.275  17.729  10.950
59871W        W26280  15.188  38.013  10.756
59872W        W26281  29.177  22.639   1.402
59873W        W26282   4.002  26.659  14.510
59874W        W26283  41.127   3.428   1.622
59875W        W26284  25.226  24.034   0.309
59876W        W26285  32.362   6.468   1.220
59877W        W26286  34.022  10.229   0.853
59878W        W26287  40.615  12.029   4.950
59879W        W26288  27.735  20.252   2.761
59880W        W26289   5.804  43.938  11.936
59881W        W26290  32.216  41.709   1.810
59882W        W26291   4.925   0.150   0.495
59883W        W26292  41.330  34.196   2.353
59884W        W26293   7.142   3.896  12.035
59885W        W26294  15.932  19.668   5.007
59886W        W26295   4.157   6.572  14.444
59887W        W26296  10.844  30.032   1.725
59888W        W26297  43.750  34.453  12.947
59889W        W26298  20.097  10.756  14.253
59890W        W26299  36.366  16.681  14.125
59891W        W26300  34.212   3.917   4.970
59892W        W26301  31.816   1.331  14.354
59893W        W26302  23.535   8.289   0.519
59894W        W26303  22.942  21.572  11.076
59895W        W26304  12.191  35.270   3.222
59896W        W26305  42.165  14.444   0.926
59897W        W26306   7.776  23.437  12.031
59898W        W26307  30.152  29.931  11.524
59899W        W26308  32.558  36.293  12.083
59900W        W26309  24.759  39.035   0.316
59901W        W26310   5.390   6.492   0.261
59902W        W26311  24.502  37.964   2.242
59903W        W26312   9.455  39.969  13.058
59904W        W26313  15.113  22.735  13.641
59905W        W26314  44.779  28.244  13.496
59906W        W26315  16.719  34.385  12.931
59907W        W26316  13.226  42.722   2.330
59908W        W26317  32.576  12.222  11.191
59909W        W26318  12.825  12.400  11.179
59910W        W26319  33.572  42.994  12.619
59911W        W26320  24.996   8.338   0.627
59912W        W26321  27.728   7.753   5.414
59913W        W26322  12.716  16.578   2.430
59914W        W26323  31.559  12.250  12.656
59915W        W26324  12.864  36.960  13.812
59916W        W26325  28.981  15.838  11.838
59917W        W26326  29.442  20.509   3.104
59918W        W26327   8.273  19.709  13.073
59919W        W26328  17.127   0.949   2.583
59920W        W26329  29.334  39.057   9.923
59921W        W26330  31.557  21.265  12.604
59922W        W26331  39.071   0.910  14.490
59923W        W26332  29.114  28.191  13.073
59924W        W26333   7.447  44.013   4.513
59925W        W26334  43.915  39.575  10.691
59926W        W26335  15.710  42.917   3.153
59927W        W26336  19.127  43.093  10.654
59928W        W26337  40.506   0.971   4.594
59929W        W26338  11.156  20.950   4.294
59930W        W26339  11.627  21.291  13.054
59931W        W26340  10.328  30.430   1.396
59932W        W26341  35.578   6.760  14.454
59933W        W26342   2.562   5.650  10.441
59934W        W26343  16.948  16.571   4.130
59935W        W26344   7.366  25.781  13.039
59936W        W26345  19.599   8.983   3.183
59937W        W26346   5.951  29.524   3.623
59938W        W26347   0.755  41.436   1.743
59939W        W26348   0.383  34.387   0.880
59940W        W26349  30.602  26.677   2.441
59941W        W26350  36.777   1.725   4.687
59942W        W26351  42.495  14.530   0.517
59943W        W26352   3.443  18.347   1.735
59944W        W26353  30.456   4.020  13.148
59945W        W26354  40.596  24.107   3.921
59946W        W26355  14.299  13.355   0.483
59947W        W26356   5.131  15.815   0.846
59948W        W26357  42.731   5.206   0.885
59949W        W26358   5.636  36.916   2.452
59950W        W26359  17.071   1.884   4.293
59951W        W26360   4.709  18.055  14.494
59952W        W26361   7.289   5.902   2.607
59953W        W26362  26.533  31.606  11.656
59954W        W26363   9.839  21.023  13.056
59955W        W26364   0.344  17.710   1.144
59956W        W26365  15.197  23.713  10.373
59957W        W26366   1.282  28.721  11.528
59958W        W26367  44.480  34.419  11.103
59959W        W26368  44.270   4.818   3.189
59960W        W26369  39.534  16.264  11.533
59961W        W26370  24.190  29.490   3.727
59962W        W26371  13.446   3.986   1.864
59963W        W26372  31.938  30.420  14.305
59964W        W26373  40.387   2.399   4.139
59965W        W26374  11.823  21.684   0.734
59966W        W26375  31.006  41.543   4.150
59967W        W26376  11.726   4.777   4.897
59968W        W26377  44.935  19.831  14.344
59969W        W26378   7.936  27.057  14.108
59970W        W26379  36.640  38.842   3.464
59971W        W26380  22.786  17.155   2.663
59972W        W26381   9.911  18.701  10.767
59973W        W26382  40.027  29.330   0.413
59974W        W26383   9.344  29.794   0.880
59975W        W26384  28.208  41.534  13.829
59976W        W26385  20.764  20.237   1.712
59977W        W26386   7.164  33.315  14.219
59978W        W26387  37.589  43.052   1.221
59979W        W26388   1.049   8.415  11.534
59980W        W26389  24.754  29.605  11.738
59981W        W26390   4.476  16.294   2.406
59982W        W26391  30.896   6.253  11.016
59983W        W26392  25.842  37.337   1.461
59984W        W26393  15.066  31.580  11.983
59985W        W26394  29.652  23.616   0.385
59986W        W26395  35.584  26.185  12.535
59987W        W26396  13.598  24.701   1.835
59988W        W26397   2.025  21.653   3.523
59989W        W26398  16.253  10.208  12.033
59990W        W26399  29.716  25.249   2.954
59991W        W26400  40.330   1.934  10.515
59992W        W26401  21.155   8.257   2.942
59993W        W26402  44.590   8.247  10.871
59994W        W26403  44.489  42.938  14.626
59995W        W26404  23.075  37.312  14.920
59996W        W26405  15.329   2.235   4.583
59997W        W26406  33.651  39.320  11.938
59998W        W26407   3.280  10.598   1.876
59999W        W26408  38.073  42.399  12.548
60000W        W26409  12.072  38.039   3.163
60001W        W26410  29.701   0.744   0.872
60002W        W26411  10.887  10.686  11.495
60003W        W26412  24.584  17.472   2.783
60004W        W26413  19.699  19.759  11.191
60005W        W26414  15.687  18.237  12.996
60006W        W26415  22.170  18.729   4.141
60007W        W26416  37.153   0.225   4.492
60008W        W26417  26.270  19.442  11.981
60009W        W26418  18.357  12.724  11.022
60010W        W26419   2.112   7.289  14.525
60011W        W26420  15.131  43.731  12.700
60012W        W26421   9.811  13.362  14.395
60013W        W26422  18.053  43.400   0.796
60014W        W26423   6.219   3.471  11.919
60015W        W26424  13.207  38.469   2.656
60016W        W26425  28.544  41.966  14.974
60017W        W26426  16.942  27.921  14.480
60018W        W26427  11.313   7.858  14.923
60019W        W26428  41.905  14.804  10.697
60020W        W26429  20.218  14.415   2.450
60021W        W26430  29.628  34.582   2.260
60022W        W26431  42.668  13.188  11.390
60023W        W26432   3.350   0.831   2.110
60024W        W26433  18.612  30.942  10.699
60025W        W26434  18.907  35.990  13.892
60026W        W26435   9.899   5.882   2.872
60027W        W26436   7.641  29.007  11.928
60028W        W26437  37.045  38.854   1.936
60029W        W26438  44.565   9.275   2.760
60030W        W26439   9.631   9.277  11.497
60031W        W26440  12.685  44.852   3.674
60032W        W26441  13.624   3.558   2.306
60033W        W26442  41.954  44.869  13.340
60034W        W26443   3.881  25.644   3.227
60035W        W26444  19.370  31.085  10.900
60036W        W26445  11.221   3.726  13.355
60037W        W26446  29.154   2.731  11.193
60038W        W26447  39.483  42.386   4.240
60039W        W26448  23.045   6.895  11.401
60040W        W26449  42.017  44.551   1.479
60041W        W26450  20.349  10.133  14.969
60042W        W26451  28.990  38.300  13.014
60043W        W26452  19.989  34.886  14.478
60044W        W26453   4.920  16.131  14.317
60045W        W26454  43.508  18.532   0.387
60046W        W26455  25.773  18.818  10.963
60047W        W26456   9.767  18.793   3.693
60048W        W26457  31.672  39.595   3.299
60049W        W26458   8.772  20.980   3.674
60050W        W26459  19.535   9.819   0.814
60051W        W26460  12.620  12.612  14.285
60052W        W26461  34.372  39.057   2.803
60053W        W26462  19.753  19.263  11.094
60054W        W26463  30.607  43.022   2.433
60055W        W26464  21.751  38.757  13.140
60056W        W26465  27.255   0.044  12.100
60057W        W26466  27.546  28.623   2.831
60058W        W26467  38.419  18.285   0.792
60059W        W26468  21.593  33.884  13.869
60060W        W26469   4.737  39.162  12.649
60061W        W26470  15.675  24.777   4.078
60062W        W26471  26.350  30.066   0.932
60063W        W26472  32.230  31.053   4.600
60064W        W26473  36.608  14.133  12.096
60065W        W26474  42.972  25.035   3.421
60066W        W26475  44.246  13.972   4.823
60067W        W26476  32.383  29.804  13.989
60068W        W26477  41.610  36.960   4.098
60069W        W26478  18.760  33.492   0.329
60070W        W26479  29.164  40.656   3.145
60071W        W26480  11.222   8.610   2.322
60072W        W26481  40.977   5.132  12.889
60073W        W26482  29.114  15.375   1.749
60074W        W26483  25.914  14.536  11.101
60075W        W26484   9.896   6.247  14.371
60076W        W26485   5.640  37.843   2.343
60077W        W26486  44.375  32.743   1.741
60078W        W26487   5.745  33.654   3.678
60079W        W26488   2.207  11.236  14.064
60080W        W26489  33.406  42.044   4.551
60081W        W26490  14.566  31.824  14.861
60082W        W26491  30.623  15.244   1.707
60083W        W26492  38.082  31.997   4.674
60084W        W26493  35.876   9.657  11.155
60085W        W26494  18.147  40.568   0.831
60086W        W26495  28.204  27.440   0.257
60087W        W26496  34.868  37.634  14.024
60088W        W26497   6.923  28.147   2.755
60089W        W26498  44.780   5.250   1.798
60090W        W26499  15.030  38.473   4.022
60091W        W26500  32.127  36.948  13.966
60092W        W26501  15.810  33.130  12.413
60093W        W26502   4.579  26.793   3.282
60094W        W26503   3.362  28.213   2.323
60095W        W26504  28.594  33.987   0.174
60096W        W26505  42.025   6.326  11.740
60097W        W26506  33.579   7.781   2.425
60098W        W26507   7.255  32.546  12.559
60099W        W26508  12.033   4.805   1.417
60100W        W26509  36.585   3.836   4.496
60101W        W26510  25.673  35.976  14.283
60102W        W26511  22.528   2.690   3.168
60103W        W26512   3.722   0.342  14.752
60104W        W26513  13.870   7.553   2.737
60105W        W26514  18.858  37.600   0.256
60106W        W26515  40.718  44.880  11.651
60107W        W26516  40.030  34.854  11.089
60108W        W26517  44.255  10.728  11.639
60109W        W26518  39.773  31.190   2.220
60110W        W26519  44.492  39.251   0.385
60111W        W26520  26.687  15.613  12.547
60112W        W26521  30.448  29.626   3.981
60113W        W26522  10.223  22.092  13.606
60114W        W26523  27.582  25.938  10.702
60115W        W26524  18.615  18.249  11.431
60116W        W26525  38.446  31.212   4.513
60117W        W26526   4.031  26.904  13.006
60118W        W26527  31.919  25.243   0.329
60119W        W26528   9.219  10.394   2.759
60120W        W26529  40.112  43.920   1.298
60121W        W26530  40.972  32.809   0.366
60122W        W26531  18.341  37.973  10.742
60123W        W26532  18.729  28.496   0.502
60124W        W26533  12.204   8.290  13.557
60125W        W26534   9.915   6.962  11.484
60126W        W26535  13.100  18.691  12.456
60127W        W26536  33.837  23.992  11.559
60128W        W26537  27.733  13.717  13.102
60129W        W26538  16.222   0.408   3.193
60130W        W26539  33.179  27.128   0.713
60131W        W26540  18.308  30.604  13.812
60132W        W26541  34.873  31.293  10.793
60133W        W26542  17.212   7.402   0.187
60134W        W26543  15.283  38.842  13.936
60135W        W26544   3.227  37.809   3.250
60136W        W26545   0.515  41.286   4.820
60137W        W26546  19.990  36.697  13.447
60138W        W26547  38.407  13.693   3.358
60139W        W26548  21.082  19.827   4.178
60140W        W26549  24.808  15.731  14.926
60141W        W26550  35.469   9.195  12.957
60142W        W26551  35.344  40.402  11.575
60143W        W26552  37.153  33.850  10.751
60144W        W26553  28.904  14.211   0.334
60145W        W26554   6.303  39.253  11.104
60146W        W26555  34.025  23.248   3.995
60147W        W26556  13.709  19.064  12.410
60148W        W26557  25.308  36.540  12.062
60149W        W26558  18.060  36.599   2.113
60150W        W26559  18.180  35.425  13.360
60151W        W26560  36.819  16.107  13.876
60152W        W26561  11.070  12.928  12.450
60153W        W26562   2.817  43.845  12.416
60154W        W26563  19.581  39.099  14.480
60155W        W26564  26.743  41.326  10.681
60156W        W26565  23.758  26.884  11.544
60157W        W26566  40.573  36.739  13.538
60158W        W26567   7.853  10.181  13.145
60159W        W26568  24.992  22.352  12.142
60160W        W26569  30.410  38.985  10.728
60161W        W26570  21.727  22.165   1.845
60162W        W26571  12.580   0.727   1.153
60163W        W26572  36.623  11.342  12.127
60164W        W26573  15.587  30.591  11.176
60165W        W26574  32.560   1.376   0.938
60166W        W26575   5.889  42.256   2.099
60167W        W26576  44.281  17.640   0.025
60168W        W26577   4.889  39.116  10.173
60169W        W26578  35.911   6.711   4.044
60170W        W26579  36.937  34.085   2.712
60171W        W26580  43.282  35.139  12.099
60172W        W26581  28.551   0.655   1.908
60173W        W26582  17.568   6.988   0.230
60174W        W26583  10.027  15.143   0.854
60175W        W26584  16.021  14.323  10.696
60176W        W26585  11.663  19.567  13.548
60177W        W26586  26.439  34.421  13.526
60178W        W26587  23.414  17.723  10.749
60179W        W26588  32.580   2.616  10.230
60180W        W26589  19.637  14.310  13.477
60181W        W26590   9.814   5.406  10.956
60182W        W26591  37.426  11.878   4.528
60183W        W26592  17.599  19.091  11.187
60184W        W26593   1.959  41.507  12.025
60185W        W26594  29.006  28.008   4.379
60186W        W26595  44.277  13.456   4.962
60187W        W26596  22.869  43.367  12.555
60188W        W26597  35.377  40.081   3.134
60189W        W26598   7.837  40.983   3.720
60190W        W26599   5.193   8.375   0.775
60191W        W26600  40.098   9.255   0.327
60192W        W26601  43.302   1.872   3.454
60193W        W26602  32.235  35.386   2.381
60194W        W26603   7.825   2.418  14.910
60195W        W26604  42.216  35.353   0.299
60196W        W26605  20.799  27.417  13.604
60197W        W26606  17.718  28.544  12.222
60198W        W26607  44.249  32.619  11.298
60199W        W26608  23.676   9.699   4.617
60200W        W26609  10.404  27.685   4.659
60201W        W26610   6.800   0.919  13.616
60202W        W26611  19.301  23.181   4.275
60203W        W26612  25.720  36.746  13.907
60204W        W26613  16.678  39.177   4.108
60205W        W26614  31.802  23.033  11.664
60206W        W26615  18.449  11.944   4.505
60207W        W26616  22.568  43.346  10.754
60208W        W26617  12.251  36.920   2.146
60209W        W26618  12.790  19.123  11.847
60210W        W26619  18.015   7.893  12.566
60211W        W26620   7.482  23.075  12.892
60212W        W26621  29.049  41.045   1.231
60213W        W26622   0.009   4.733   3.857
60214W        W26623  36.123  16.015   0.260
60215W        W26624  29.977   2.993  11.711
60216W        W26625   0.143   7.236   3.416
60217W        W26626  20.530  32.347   1.972
60218W        W26627  20.558   3.177  12.136
60219W        W26628  27.725  35.990  14.698
60220W        W26629  20.449  40.115  10.653
60221W        W26630  22.741  13.309  14.164
60222W        W26631   9.301  35.493   0.486
60223W        W26632  36.952  33.521   1.162
60224W        W26633   9.270  20.818   4.354
60225W        W26634   9.411  10.016  12.075
60226W        W26635   7.958  39.873   2.426
60227W        W26636   3.676   2.787  12.656
60228W        W26637   0.547  11.804   1.353
60229W        W26638  28.305  16.333  11.880
60230W        W26639  26.514  18.813  12.024
60231W        W26640  37.496  11.860  10.915
60232W        W26641  44.420   5.769   4.626
60233W        W26642   7.443  17.337   2.681
60234W        W26643  30.557  23.663   1.887
60235W        W26644  43.928  18.231   0.231
60236W        W26645  29.213   3.086   0.863
60237W        W26646  13.546  20.086  11.546
60238W        W26647  39.022  21.158   5.636
60239W        W26648   6.177  21.054  14.917
60240W        W26649  21.003  34.544   3.772
60241W        W26650  12.163  21.359   5.096
60242W        W26651  14.700  33.372   2.380
60243W        W26652  33.986  25.241   4.242
60244W        W26653  36.924  16.217   1.124
60245W        W26654  41.434  34.466  12.108
60246W        W26655  25.563  38.595  11.591
60247W        W26656  24.160  41.836  14.337
60248W        W26657  32.642  43.916  14.993
60249W        W26658  31.446  22.575  13.116
60250W        W26659  13.298  27.267   2.153
60251W        W26660  22.398  12.164   3.585
60252W        W26661  25.023  14.447  14.255
60253W        W26662  11.677   7.362  11.589
60254W        W26663   4.644   7.567   0.243
60255W        W26664  13.180  15.624   4.268
60256W        W26665   0.371  15.172   0.335
60257W        W26666   9.250  13.598  11.176
60258W        W26667  27.319  31.920   1.806
60259W        W26668  34.998  27.133   3.641
60260W        W26669  27.441  13.413  10.397
60261W        W26670  15.688  38.319  13.221
60262W        W26671   8.352  30.632  10.290
60263W        W26672  21.235  23.939  10.332
60264W        W26673  15.399  40.115   1.301
60265W        W26674  34.051  36.941   4.653
60266W        W26675  31.312  42.883  10.310
60267W        W26676   6.448  44.399   0.398
60268W        W26677  15.479  29.085   4.130
60269W        W26678  25.758  21.703   3.436
60270W        W26679  36.437  23.667  12.551
60271W        W26680   9.150  21.554   3.739
60272W        W26681  22.306  13.374  11.680
60273W        W26682   8.053  35.249   3.068
60274W        W26683  40.016  36.220   2.939
60275W        W26684   1.747   4.257   0.117
60276W        W26685  15.860  28.597   1.876
60277W        W26686  37.283   2.837  11.508
60278W        W26687  38.045   2.673  13.297
60279W        W26688  33.987   0.393  12.397
60280W        W26689   4.397  13.591  10.337
60281W        W26690  13.068  43.899   1.284
60282W        W26691  35.560   7.291   0.272
60283W        W26692  21.040   0.333   2.882
60284W        W26693  25.643  26.488  10.693
60285W        W26694  31.848  42.171   2.267
60286W        W26695  27.561  29.538  13.969
60287W        W26696  43.003  15.118  11.602
60288W        W26697  37.823  33.123  12.219
60289W        W26698  37.128  27.593   3.298
60290W        W26699  44.446  14.300   0.768
60291W        W26700  15.062  13.762  13.393
60292W        W26701   2.843  35.209  14.850
60293W        W26702   6.711  36.052   0.230
60294W        W26703  34.347  25.924  10.822
60295W        W26704  22.861  33.996   3.687
60296W        W26705  38.801  36.924   0.528
60297W        W26706  26.185  13.811  11.592
60298W        W26707  10.562  37.555  10.269
60299W        W26708  28.127   5.407  11.764
60300W        W26709   8.841  35.339  12.938
60301W        W26710   2.147  40.507   4.717
60302W        W26711   6.663   2.232   3.446
60303W        W26712  39.976  11.107  13.505
60304W        W26713  32.623   5.706  13.129
60305W        W26714   8.885  42.907   4.670
60306W        W26715  16.856  18.646  11.130
60307W        W26716  37.016   7.294   4.641
60308W        W26717  32.803   0.422  14.751
60309W        W26718   4.269   7.822  10.601
60310W        W26719   6.267   8.192   3.824
60311W        W26720  21.023  25.444  11.614
60312W        W26721  11.413  28.639   4.924
60313W        W26722  35.951  30.154  13.053
60314W        W26723  28.036   0.540  11.155
60315W        W26724  31.622  10.005  11.167
60316W        W26725  10.442  27.852  12.646
60317W        W26726  18.579  10.736   3.690
60318W        W26727  12.570  13.168  10.781
60319W        W26728  23.474   8.532   4.153
60320W        W26729  15.299  11.728  14.358
60321W        W26730   2.944   4.325   1.666
60322W        W26731   0.341   8.424   5.310
60323W        W26732  21.137  27.921  10.705
60324W        W26733  26.738  23.287  12.088
60325W        W26734  17.630  10.461   4.134
60326W        W26735  42.410  30.845  11.686
60327W        W26736  42.909  21.143   4.117
60328W        W26737  37.191   4.406   0.530
60329W        W26738   9.881  24.124  10.705
60330W        W26739  44.315  38.617  11.708
60331W        W26740  26.001  17.170  13.210
60332W        W26741  24.234  33.113   2.653
60333W        W26742  29.460  44.488  11.517
60334W        W26743  25.106  15.653  10.996
60335W        W26744  18.351   9.834  11.303
60336W        W26745  12.495  42.908  10.739
60337W        W26746  21.482  24.725  12.956
60338W        W26747  20.652  17.838  11.045
60339W        W26748  22.730  29.490  12.682
60340W        W26749  36.907   5.681   0.832
60341W        W26750  22.917  43.495  12.035
60342W        W26751  29.114   2.047   0.682
60343W        W26752  27.671  27.687  14.120
60344W        W26753  38.189   9.242   4.203
60345W        W26754   5.181  33.892   2.820
60346W        W26755  23.468  43.870  13.822
60347W        W26756  18.645  35.203  14.832
60348W        W26757  40.261   9.555  14.887
60349W        W26758  30.920   8.623  10.979
60350W        W26759  29.641  34.982   3.290
60351W        W26760  37.122  24.110  13.510
60352W        W26761   2.947  22.987   4.283
60353W        W26762  25.424   0.380   3.727
60354W        W26763  27.895  20.845  13.355
60355W        W26764  43.360   4.970   0.216
60356W        W26765  19.535  31.097  14.818
60357W        W26766   7.123  22.230   0.994
60358W        W26767  28.260  12.887  12.117
60359W        W26768  10.711  42.653   2.358
60360W        W26769  24.266  41.040  12.538
60361W        W26770   5.270  34.578   0.819
60362W        W26771  19.520  38.734   4.865
60363W        W26772  33.887  42.129  11.052
60364W        W26773   1.844  28.066   3.166
60365W        W26774  18.343  19.792   3.157
60366W        W26775  26.280  17.522   2.328
60367W        W26776  12.594  22.568  10.545
60368W        W26777  37.344  36.792  13.523
60369W        W26778  34.574   6.809  11.421
60370W        W26779  34.013   9.263  12.989
60371W        W26780  28.966  22.104   4.453
60372W        W26781   7.755  13.819   4.981
60373W        W26782  33.091   6.934   0.575
60374W        W26783  19.790  19.654  12.589
60375W        W26784  10.368  38.321   2.846
60376W        W26785  12.593   2.408   0.291
60377W        W26786  12.918  23.834   1.729
60378W        W26787  38.783   0.007  11.575
60379W        W26788  38.633  33.113   0.317
60380W        W26789   9.877  26.821   0.469
60381W        W26790  39.795  27.128   3.336
60382W        W26791  23.136  40.096   3.551
60383W        W26792  25.964  31.010  10.683
60384W        W26793  14.863  23.234   3.142
60385W        W26794  22.590  19.154  12.382
60386W        W26795  16.738  21.518   0.199
60387W        W26796   5.290  34.635   1.701
60388W        W26797  35.947  12.477   0.583
60389W        W26798  30.075  34.572  14.857
60390W        W26799  40.400  31.178   0.809
60391W        W26800  12.924  32.655  11.140
60392W        W26801  26.208   0.284  10.642
60393W        W26802  13.812  29.110  10.690
60394W        W26803   5.288  36.003  13.534
60395W        W26804   2.409  24.543   4.099
60396W        W26805  13.156  20.634  14.995
60397W        W26806  22.034  39.545   1.667
60398W        W26807   5.633   0.795   3.411
60399W        W26808  35.579  18.482   3.375
60400W        W26809   4.416  33.783  12.079
60401W        W26810   2.364  31.384   0.768
60402W        W26811   2.968  17.440   4.568
60403W        W26812  39.602  32.530  12.525
60404W        W26813  13.583   5.737  12.392
60405W        W26814  22.761   7.226   0.283
60406W        W26815  14.340   4.039  11.882
60407W        W26816   6.597  44.291   4.098
60408W        W26817  44.213  20.174   0.874
60409W        W26818   9.700  44.975  13.200
60410W        W26819  29.728  33.400  14.067
60411W        W26820  25.803   4.222  13.414
60412W        W26821  39.162  23.654  11.488
60413W        W26822  33.817  41.520  14.646
60414W        W26823  20.497  35.653   2.999
60415W        W26824  41.193  14.847   0.167
60416W        W26825  23.363  40.056  13.139
60417W        W26826  16.890  24.184   4.175
60418W        W26827  37.424  36.132  14.717
60419W        W26828  10.276  11.218   2.150
60420W        W26829  18.219  34.813  12.379
60421W        W26830   9.872  10.756  12.932
60422W        W26831  28.623  32.639  14.996
60423W        W26832  38.820  20.893  14.042
60424W        W26833  44.579   6.364   1.388
60425W        W26834  34.769   6.859  13.270
60426W        W26835  21.146  15.557   1.739
60427W        W26836  10.897   5.326  11.679
60428W        W26837  22.154  18.098  13.544
60429W        W26838  41.331   8.112   5.190
60430W        W26839  28.264   5.568  13.087
60431W        W26840  15.340  22.120  14.443
60432W        W26841  42.743  34.951   0.776
60433W        W26842  16.764  27.088   0.668
60434W        W26843  27.138  27.457  13.466
60435W        W26844  17.762   5.734   3.656
60436W        W26845   0.258  12.075  13.840
60437W        W26846  33.486  23.155   4.033
60438W        W26847  20.750  34.294   1.181
60439W        W26848  30.702   0.428  12.040
60440W        W26849  27.977  18.809   3.577
60441W        W26850  21.105  42.042  14.583
60442W        W26851  29.472  30.114   1.192
60443W        W26852  39.278  19.398   0.867
60444W        W26853  39.900  27.414  13.675
60445W        W26854   9.343  15.772  11.965
60446W        W26855  34.586  31.730  10.961
60447W        W26856   9.085  42.205   1.618
60448W        W26857  38.547  30.438  13.521
60449W        W26858  43.582   9.693   0.803
60450W        W26859  24.579  33.952  11.923
60451W        W26860  30.961  31.001   4.554
60452W        W26861  25.070  38.773  14.431
60453W        W26862  15.032  24.125   2.808
60454W        W26863  33.562  37.645   3.701
60455W        W26864  11.552  25.263  13.355
60456W        W26865  14.306  43.983   1.676
60457W        W26866  31.081  43.850   0.984
60458W        W26867  29.619  17.500   0.436
60459W        W26868  18.534  25.262  10.505
60460W        W26869  38.313  22.109  11.570
60461W        W26870   8.367  25.211   2.016
60462W        W26871  11.704  23.988  14.462
60463W        W26872  12.665  11.094   1.471
60464W        W26873   6.401   5.253   2.978
60465W        W26874  29.514  37.064  11.485
60466W        W26875  19.123  26.927   3.103
60467W        W26876  31.707  15.083  11.696
60468W        W26877   7.733   3.853   2.504
60469W        W26878   5.031  39.148   0.370
60470W        W26879  39.886  13.643  12.114
60471W        W26880  12.531   2.955   9.714
60472W        W26881  37.057  15.607  11.938
60473W        W26882  32.643   6.805  14.792
60474W        W26883  40.489   8.019  14.945
60475W        W26884  32.373   0.524  12.025
60476W        W26885  36.550   2.503  12.550
60477W        W26886  44.506  40.944   0.232
60478W        W26887  20.275  19.819   0.460
60479W        W26888  37.609  25.601  12.949
60480W        W26889  23.645  18.196  10.716
60481W        W26890  32.827  29.900   0.866
60482W        W26891  38.350  22.730   4.299
60483W        W26892   3.739  22.055  10.950
60484W        W26893  44.148  13.826  12.807
60485W        W26894  10.909  26.675  14.400
60486W        W26895  42.114  34.490   3.602
60487W        W26896  41.833   0.499   1.340
60488W        W26897  24.490  31.605  12.074
60489W        W26898  12.559   5.679   3.098
60490W        W26899  20.549  18.027  13.533
60491W        W26900  33.152  35.145  10.901
60492W        W26901   1.074  38.451   0.430
60493W        W26902  25.705  24.896  10.674
60494W        W26903  23.030   5.864   1.222
60495W        W26904  43.566  26.167  14.897
60496W        W26905  44.018  41.370   4.991
60497W        W26906  44.355  23.166   0.362
60498W        W26907  31.092  32.070  10.803
60499W        W26908  13.671   3.157   2.694
60500W        W26909   8.157  11.683   3.256
60501W        W26910  23.444  41.778   3.690
60502W        W26911   8.904  26.801  12.529
60503W        W26912  30.244   1.476  10.659
60504W        W26913  41.913  36.772  13.871
60505W        W26914  31.454   1.943  10.088
60506W        W26915  36.184   8.200   2.749
60507W        W26916  16.691  33.221  13.312
60508W        W26917   8.893  26.589   3.309
60509W        W26918  34.896  40.996   0.817
60510W        W26919  33.067  24.494  12.422
60511W        W26920  28.978  21.683   1.265
60512W        W26921  18.561  43.963  11.447
60513W        W26922  29.100  38.179   3.041
60514W        W26923  25.922  14.351   0.268
60515W        W26924   8.113  44.921  14.605
60516W        W26925  21.613  34.535   0.220
60517W        W26926  29.721  37.335   3.523
60518W        W26927   3.164  31.933  13.009
60519W        W26928  28.323   1.639   4.537
60520W        W26929   6.777  19.846  12.919
60521W        W26930  27.932  22.052  10.237
60522W        W26931  31.727  33.889  12.472
60523W        W26932  24.931  27.901  12.873
60524W        W26933  39.975  12.766   3.597
60525W        W26934  24.278  28.416   4.609
60526W        W26935   4.889   9.625   0.458
60527W        W26936  41.540   2.312  13.430
60528W        W26937  28.500   1.477  12.076
60529W        W26938  36.583  31.927   1.290
60530W        W26939  16.178  35.761   2.262
60531W        W26940  37.884  37.478   2.799
60532W        W26941  17.597  31.475  14.931
60533W        W26942  14.306  12.895  12.759
60534W        W26943   6.919  34.651  10.691
60535W        W26944  29.523   7.906  14.911
60536W        W26945  35.308  36.835  12.138
60537W        W26946  27.170  14.649  11.479
60538W        W26947  28.061  18.599   3.116
60539W        W26948  37.576  16.036  13.692
60540W        W26949  40.914  25.482  12.133
60541W        W26950  14.413  35.490  13.430
60542W        W26951  29.985   3.686  14.776
60543W        W26952   3.297   4.019   1.271
60544W        W26953  14.315  18.399   4.690
60545W        W26954  14.592  39.365  14.720
60546W        W26955  32.647  41.159   9.883
60547W        W26956  37.046  39.317  12.591
60548W        W26957  25.197   9.345  11.899
60549W        W26958  32.015  36.767  13.049
60550W        W26959   1.303   1.762   3.566
60551W        W26960  36.443  19.488  11.886
60552W        W26961  41.380   9.292   1.949
60553W        W26962  27.679  35.674   1.155
60554W        W26963  27.956  22.639  12.409
60555W        W26964  21.641   4.208  12.136
60556W        W26965  16.357  25.141   9.672
60557W        W26966   0.504  24.112   3.762
60558W        W26967  19.275  44.089  13.380
60559W        W26968  27.734   4.676   4.958
60560W        W26969  15.206  24.255   3.373
60561W        W26970   4.502  18.768   3.193
60562W        W26971  23.069   6.100  11.106
60563W        W26972   2.025  38.316  12.060
60564W        W26973  43.349  24.813   4.570
60565W        W26974  16.765  25.765   2.203
60566W        W26975  10.422   2.401  11.199
60567W        W26976  37.002  34.018   4.114
60568W        W26977  18.328  37.840   3.128
60569W        W26978  41.081  26.134   4.449
60570W        W26979  37.341   1.182   1.746
60571W        W26980  36.296  42.621  12.002
60572W        W26981  41.540  39.314  13.314
60573W        W26982  28.579  16.117   0.271
60574W        W26983  27.965  27.847   2.711
60575W        W26984  14.843   1.801   1.344
60576W        W26985   0.773  34.963  11.905
60577W        W26986  16.998   4.948  11.634
60578W        W26987  19.315   5.613  13.471
60579W        W26988  31.734  27.882  12.044
60580W        W26989  40.012   1.432  11.630
60581W        W26990   8.369  42.026  12.474
60582W        W26991  32.470  29.400  12.041
60583W        W26992  24.551  30.418  10.666
60584W        W26993  40.722   8.763  10.689
60585W        W26994  42.479  43.532   1.875
60586W        W26995  31.078  33.113  13.561
60587W        W26996  37.256   8.771  11.595
60588W        W26997  20.571  43.453   2.244
60589W        W26998  22.247  24.544   4.380
60590W        W26999  10.131  44.884  11.534
60591W        W27000  37.305   4.987   1.288
60592W        W27001  35.801   3.945  14.244
60593W        W27002  28.146  17.692  12.146
60594W        W27003   9.869  38.436   0.731
60595W        W27004  12.750  41.825  13.010
60596W        W27005   1.754  19.591   2.680
60597W        W27006  27.660  25.678   4.740
60598W        W27007  23.413  27.107  13.334
60599W        W27008  34.407   4.070   1.190
60600W        W27009  35.990   1.435  13.012
60601W        W27010  30.888  42.396   3.209
60602W        W27011  36.898  25.748  11.145
60603W        W27012   6.030   5.492   3.207
60604W        W27013  11.109  31.375   1.794
60605W        W27014   9.369  42.015   0.571
60606W        W27015   3.770  15.795   0.406
60607W        W27016  41.865   4.792  10.268
60608W        W27017  12.345   9.114  11.716
60609W        W27018  42.994   7.340   9.845
60610W        W27019  34.306  15.406   3.073
60611W        W27020  19.728   6.421  11.124
60612W        W27021  12.626  38.879   3.213
60613W        W27022   1.764   7.072   4.791
60614W        W27023  11.603  43.771  11.893
60615W        W27024   5.389  36.910   0.180
60616W        W27025  42.027  38.550  10.794
60617W        W27026  44.849  42.331   3.201
60618W        W27027  19.981  24.109  10.421
60619W        W27028   4.005  10.796  12.557
60620W        W27029  12.597  24.202  13.449
60621W        W27030   3.923   8.293   3.057
60622W        W27031  29.829  21.241   0.060
60623W        W27032  40.001  39.398  10.930
60624W        W27033   4.309   6.090  14.334
60625W        W27034  37.440  44.437   3.123
60626W        W27035  20.969  40.410   1.559
60627W        W27036  38.803   7.173  12.902
60628W        W27037  17.809  31.194  13.913
60629W        W27038  30.458  18.520   4.607
60630W        W27039  41.382  23.995  12.555
60631W        W27040  26.916  33.776  13.914
60632W        W27041  21.016   1.986   4.144
60633W        W27042  20.197  32.549   3.639
60634W        W27043  43.346  12.409   2.251
60635W        W27044  16.229  26.714   4.612
60636W        W27045  22.510  33.479  12.452
60637W        W27046   3.384  15.405  14.801
60638W        W27047  10.661  23.768   4.734
60639W        W27048   0.772  20.454  14.817
60640W        W27049   5.909  40.069  13.259
60641W        W27050  17.037   3.611   1.772
60642W        W27051  17.985  12.241   3.287
60643W        W27052  33.231   8.667  10.647
60644W        W27053  20.095  26.117   3.765
60645W        W27054   3.912  38.427   0.977
60646W        W27055  26.172  13.096   0.838
60647W        W27056  21.669  43.263   4.060
60648W        W27057  16.815  34.187   1.501
60649W        W27058   3.243  24.047  11.032
60650W        W27059  25.628  27.671   3.771
60651W        W27060  44.782  44.421   0.512
60652W        W27061  40.158  44.404  12.447
60653W        W27062  10.495   5.829  13.056
60654W        W27063  11.160  24.783   3.668
60655W        W27064  13.055   3.957  11.030
60656W        W27065   7.212   0.359   0.366
60657W        W27066  41.450  14.621  13.833
60658W        W27067  30.527  31.242  11.546
60659W        W27068  24.530  29.868   3.640
60660W        W27069  12.547  26.545   0.329
60661W        W27070  29.038  17.148   3.270
60662W        W27071  40.394  37.415  13.002
60663W        W27072  35.834   4.987   3.234
60664W        W27073  14.230  26.778   3.828
60665W        W27074  38.587  33.076   1.278
60666W        W27075  33.132  21.495  14.186
60667W        W27076  30.384  40.399  14.745
60668W        W27077  29.495  10.819  13.652
60669W        W27078  44.882  19.924   2.584
60670W        W27079   3.268  41.339  11.248
60671W        W27080  41.961  18.999   1.189
60672W        W27081  33.604  24.733  11.181
60673W        W27082  12.904  25.679   1.101
60674W        W27083  17.346  42.278   3.164
60675W        W27084  41.557  20.267   2.336
60676W        W27085  12.696  41.503   4.553
60677W        W27086  43.135  36.628  12.139
60678W        W27087  30.072  18.528  12.985
60679W        W27088  35.400   1.391  11.537
60680W        W27089  40.136   0.023   4.281
60681W        W27090   5.467  13.490  11.154
60682W        W27091   3.550  22.624  11.094
60683W        W27092  27.295  15.616   4.035
60684W        W27093  30.662   0.004   4.325
60685W        W27094  39.978  34.587  13.057
60686W        W27095  41.305  11.345  13.498
60687W        W27096  32.166  39.048  11.102
60688W        W27097   1.724  10.343  12.976
60689W        W27098  24.008  24.235   3.205
60690W        W27099  29.554  15.538   0.796
60691W        W27100  19.007  17.528  10.793
60692W        W27101   1.511  41.810  14.805
60693W        W27102  24.194  33.097  14.431
60694W        W27103  36.162  15.661  12.484
60695W        W27104   3.786  33.838   2.776
60696W        W27105  40.091  30.889  12.370
60697W        W27106  14.372  30.445   3.894
60698W        W27107  14.833  20.569  12.301
60699W        W27108   4.208   9.840   2.036
60700W        W27109  36.553  32.697  10.860
60701W        W27110  30.001  25.914  10.732
60702W        W27111  16.525  38.865   2.929
60703W        W27112  12.320  19.694   2.266
60704W        W27113  17.541   2.761   1.965
60705W        W27114  28.247  25.635   0.375
60706W        W27115   6.142  24.012  14.756
60707W        W27116  44.211  35.154   1.669
60708W        W27117   9.592   2.537   2.824
60709W        W27118  14.389  27.633  14.874
60710W        W27119  23.093  24.768  11.065
60711W        W27120  14.992  12.090  12.815
60712W        W27121  18.976  31.515   1.183
60713W        W27122  15.542  18.848  10.991
60714W        W27123   6.252   4.484   4.194
60715W        W27124   2.345  35.901  13.002
60716W        W27125  17.754  32.602   2.614
60717W        W27126  31.615  18.156   0.389
60718W        W27127  31.519  36.811   4.557
60719W        W27128  43.319  17.217  10.960
60720W        W27129  22.462   9.752  14.662
60721W        W27130   0.501  39.326  11.005
60722W        W27131   6.755  29.596   3.214
60723W        W27132   0.417  25.022  14.830
60724W        W27133  41.971  34.617   2.646
60725W        W27134  39.981  10.244   0.990
60726W        W27135  18.083  37.693  13.476
60727W        W27136  28.349  11.719  12.923
60728W        W27137   9.854  37.297   3.598
60729W        W27138   3.525   6.295  14.789
60730W        W27139   5.546   8.556   2.812
60731W        W27140   1.009  19.038  11.186
60732W        W27141  20.629  17.691   2.209
60733W        W27142  25.417  13.651   1.828
60734W        W27143  31.886  26.754   0.453
60735W        W27144  26.624  20.643  14.485
60736W        W27145   7.342  23.176  11.992
60737W        W27146  17.521   4.931   3.166
60738W        W27147  29.403  44.837  12.982
60739W        W27148  15.767  43.929  12.547
60740W        W27149  35.599  17.484   3.200
60741W        W27150  16.408  24.100  12.841
60742W        W27151   8.708   7.869  10.717
60743W        W27152  10.897  33.093  13.773
60744W        W27153   9.668  31.314  10.703
60745W        W27154  39.197  32.064   4.616
60746W        W27155  34.114   8.314  12.817
60747W        W27156  40.905  16.915   3.713
60748W        W27157   3.387  20.994   1.884
60749W        W27158  16.830   9.868   2.670
60750W        W27159  17.210  44.232   1.794
60751W        W27160  15.851  31.223   0.601
60752W        W27161  16.471  24.024   2.488
60753W        W27162  15.701  27.470   0.854
60754W        W27163  27.560  40.523  10.704
60755W        W27164   9.709   5.295  12.427
60756W        W27165  21.216  29.583  10.549
60757W        W27166  36.003  37.439  10.734
60758W        W27167  26.841   0.715   1.259
60759W        W27168  23.746  41.120  12.556
60760W        W27169  29.514  28.878   2.644
60761W        W27170   9.594  23.660  10.678
60762W        W27171  11.308  41.488   1.402
60763W        W27172  21.895  39.237  12.035
60764W        W27173  15.299  35.852   4.948
60765W        W27174  18.638  42.872   3.809
60766W        W27175  15.543  36.714  11.896
60767W        W27176  15.356  39.528   2.703
60768W        W27177  38.738  32.380   2.088
60769W        W27178  20.684  40.345   1.980
60770W        W27179  38.397  42.736   3.404
60771W        W27180  36.571  25.740   0.071
60772W        W27181  36.972  36.147   3.413
60773W        W27182  28.404  31.422  14.437
60774W        W27183  28.213   3.733   3.470
60775W        W27184  30.951  43.691   0.519
60776W        W27185   5.936  39.075   0.205
60777W        W27186  22.040  28.656   0.232
60778W        W27187  27.060   8.187   0.432
60779W        W27188  29.163  30.158  11.091
60780W        W27189  15.568  26.989  11.618
60781W        W27190  42.488  43.853  11.188
60782W        W27191   9.251  18.713  11.567
60783W        W27192  36.968  44.470   1.193
60784W        W27193  20.082  28.154  14.777
60785W        W27194  16.615  34.599  10.554
60786W        W27195  11.917  36.323  10.600
60787W        W27196  12.625  22.844  10.991
60788W        W27197  31.994  11.013  10.261
60789W        W27198  43.335  27.153  14.440
60790W        W27199  16.221  19.105  13.517
60791W        W27200  44.423  11.909  14.481
60792W        W27201   2.446  17.493  12.948
60793W        W27202  14.042  43.184  14.066
60794W        W27203  26.334  21.510   4.657
60795W        W27204  37.353  23.079  11.462
60796W        W27205  40.330   5.872   2.588
60797W        W27206  31.387  37.841   2.279
60798W        W27207  43.458   0.573  13.775
60799W        W27208   6.365   5.906  12.606
60800W        W27209   2.421  35.854   4.674
60801W        W27210  23.064  41.286   1.355
60802W        W27211  43.112   9.905  14.809
60803W        W27212  43.791  28.101  14.251
60804W        W27213   9.730  11.850   2.363
60805W        W27214  21.104   8.908   5.097
60806W        W27215  11.172  15.571  12.299
60807W        W27216   1.286   4.402   1.806
60808W        W27217  29.755  33.939   4.693
60809W        W27218  10.745  18.352   2.849
60810W        W27219  41.607  29.956   1.995
60811W        W27220  26.041   8.400  13.071
60812W        W27221  41.291   6.791  14.458
60813W        W27222   0.598   4.434  13.870
60814W        W27223   8.323  13.540   0.352
60815W        W27224  20.536  25.040   0.037
60816W        W27225   7.189  25.541  13.465
60817W        W27226  29.685  29.267   2.965
60818W        W27227  10.743  43.171   1.238
60819W        W27228  18.566  17.365  11.407
60820W        W27229   8.628  22.612  14.595
60821W        W27230   4.663  10.905   2.695
60822W        W27231  41.825  31.511   1.165
60823W        W27232  13.018  44.579   4.853
60824W        W27233  36.470  13.220   0.018
60825W        W27234  14.678   0.380   4.564
60826W        W27235  18.675  31.530   2.780
60827W        W27236  10.128  17.933   0.842
60828W        W27237  20.440  20.092  14.234
60829W        W27238  40.389   4.911   4.531
60830W        W27239  33.196  10.590   3.711
60831W        W27240  21.712  30.356  14.338
60832W        W27241  18.540  23.618   2.716
60833W        W27242  19.978  18.121  10.707
60834W        W27243  25.950  38.406  14.470
60835W        W27244   4.918  37.109   0.369
60836W        W27245  14.309  28.784   1.243
60837W        W27246  35.570  21.493   2.795
60838W        W27247  36.593  12.317  12.825
60839W        W27248  11.323  15.848   0.663
60840W        W27249   5.061  18.062  11.942
60841W        W27250  11.358  15.196   3.288
60842W        W27251  15.090  16.961   2.194
60843W        W27252  11.161  28.829  11.673
60844W        W27253  41.517  21.194   3.969
60845W        W27254  40.957  43.977  11.475
60846W        W27255  37.937  31.100   4.419
60847W        W27256  43.395  37.097  13.417
60848W        W27257  40.369  25.912   3.918
60849W        W27258  32.166  17.726  10.663
60850W        W27259   8.194   7.362  14.310
60851W        W27260  12.238  40.469   0.009
60852W        W27261  14.747  27.960   2.745
60853W        W27262   5.266  20.781  11.544
60854W        W27263  35.367  42.822  10.792
60855W        W27264  26.047  23.328   0.718
60856W        W27265  28.731  24.254   2.141
60857W        W27266  42.391  21.670  10.384
60858W        W27267  32.204  18.197   2.719
60859W        W27268  15.200   2.392   3.215
60860W        W27269  17.240   6.502   0.279
60861W        W27270  11.592  29.498   1.875
60862W        W27271  15.863  32.095   2.696
60863W        W27272  28.311  15.824   5.075
60864W        W27273  33.079  23.011  11.213
60865W        W27274  25.203  14.704   1.872
60866W        W27275  39.529   4.294  12.345
60867W        W27276  23.991  35.658   0.690
60868W        W27277  41.482  29.557   3.994
60869W        W27278   6.927  30.946  14.391
60870W        W27279  15.229  41.073  11.558
60871W        W27280  43.771  24.167  12.526
60872W        W27281  15.216  40.278  11.995
60873W        W27282   8.037  43.877   1.027
60874W        W27283  17.891  25.256   4.990
60875W        W27284   5.912  38.221  13.046
60876W        W27285  30.525  39.561   4.027
60877W        W27286  22.823  36.931   4.573
60878W        W27287   2.455  22.004   0.369
60879W        W27288  42.583  13.964  12.532
60880W        W27289  40.956  43.242   2.202
60881W        W27290  19.027  10.691   0.605
60882W        W27291  18.476   9.362   1.870
60883W        W27292  15.456  42.603  12.411
60884W        W27293  10.625  24.468  14.915
60885W        W27294  33.355  17.583  14.532
60886W        W27295  13.647   6.617  14.069
60887W        W27296   7.665  26.674  13.607
60888W        W27297   2.697  29.873   0.397
60889W        W27298  34.837  25.902   1.766
60890W        W27299  11.878  31.837  12.101
60891W        W27300  31.447  33.167  14.464
60892W        W27301  17.544  29.213  14.781
60893W        W27302  42.594   9.215  14.036
60894W        W27303  14.114  28.479  12.515
60895W        W27304  20.989  27.514  14.951
60896W        W27305  14.278   7.906   2.805
60897W        W27306  32.534  34.059  11.975
60898W        W27307   2.439  27.109   4.433
60899W        W27308  42.455  20.581  11.442
60900W        W27309  14.084   0.194  11.524
60901W        W27310   7.451  38.381   2.826
60902W        W27311  43.776   1.937  12.109
60903W        W27312   0.255  19.974  10.941
60904W        W27313  29.631  20.050  14.942
60905W        W27314  20.465  33.057   4.759
60906W        W27315  31.118  20.068   3.154
60907W        W27316  23.057  35.458   4.771
60908W        W27317  13.671  19.235  13.357
60909W        W27318  38.793  18.995   4.931
60910W        W27319   1.957  15.076   2.231
60911W        W27320  15.882   1.539   1.858
60912W        W27321  27.322  38.920  13.727
60913W        W27322  29.242  31.091  14.736
60914W        W27323   2.438  10.326   1.966
60915W        W27324   7.618  40.288   3.639
60916W        W27325  21.316  37.760   0.965
60917W        W27326  12.816  30.539  13.929
60918W        W27327   6.144  43.334   2.646
60919W        W27328  41.929  21.835   3.458
60920W        W27329  27.070  16.581  14.499
60921W        W27330  29.246   7.690   3.647
60922W        W27331  38.029  25.679   3.866
60923W        W27332  38.881   6.824   1.940
60924W        W27333  40.771  32.181  12.427
60925W        W27334   5.713   7.822  13.712
60926W        W27335  22.156  41.964  10.852
60927W        W27336  36.320  20.066  11.134
60928W        W27337   0.920  30.907   1.851
60929W        W27338  33.076  21.397   1.210
60930W        W27339  23.666  26.569   0.451
60931W        W27340  22.566  25.666  10.985
60932W        W27341  38.100  44.962   3.248
60933W        W27342  24.578  29.339   1.482
60934W        W27343  32.608   4.730   0.983
60935W        W27344  25.069   0.301   4.223
60936W        W27345  24.532  19.318  13.448
60937W        W27346  12.794  42.464  12.838
60938W        W27347  14.815  28.976   1.380
60939W        W27348  11.652  37.391   9.641
60940W        W27349  38.468  11.258   1.457
60941W        W27350  10.370  30.728  13.101
60942W        W27351  41.078   4.925  14.272
60943W        W27352  22.252  16.393  12.557
60944W        W27353  10.878  16.172   2.011
60945W        W27354  15.270   1.419  11.062
60946W        W27355  36.543  26.940  11.407
60947W        W27356  28.884   1.529   2.884
60948W        W27357  36.811  17.139  12.603
60949W        W27358  34.035  16.574   2.428
60950W        W27359   8.222   2.832  14.428
60951W        W27360  13.591  40.776  13.848
60952W        W27361  41.837  39.370  12.896
60953W        W27362   1.160  37.140   5.372
60954W        W27363  23.027  26.065  12.380
60955W        W27364   0.635  17.322  13.367
60956W        W27365  24.669  41.844  10.747
60957W        W27366   9.058  40.943  14.941
60958W        W27367  40.498  29.675   3.620
60959W        W27368  38.283  20.435   0.216
60960W        W27369   2.364  40.277   1.678
60961W        W27370  40.518   4.502   2.321
60962W        W27371  20.997  16.629  14.439
60963W        W27372  29.968  44.353  10.422
60964W        W27373  33.402  32.532   0.327
60965W        W27374  27.974  19.746  13.418
60966W        W27375  18.777   4.537   0.479
60967W        W27376  23.937  12.324   4.864
60968W        W27377   4.892   2.033  12.023
60969W        W27378   8.377   5.810   4.639
60970W        W27379  25.198  13.599   0.904
60971W        W27380   5.436  43.453   0.741
60972W        W27381  30.599  39.051   4.143
60973W        W27382  33.302  26.616   4.364
60974W        W27383  21.950  43.017  13.965
60975W        W27384  39.578  36.575   1.409
60976W        W27385   1.963  23.185  12.384
60977W        W27386  18.725   8.592  12.348
60978W        W27387  10.635  30.510  14.450
60979W        W27388  31.526   2.106  11.665
60980W        W27389   0.208  18.893   3.303
60981W        W27390  25.908  21.718   1.864
60982W        W27391  35.857  35.372   3.206
60983W        W27392   8.753  44.272   3.408
60984W        W27393  23.177  10.714  12.614
60985W        W27394   8.670  33.524  13.299
60986W        W27395  12.249   0.412  14.424
60987W        W27396  31.565  36.980   2.194
60988W        W27397   9.437  20.332  11.003
60989W        W27398  11.943  31.133  11.617
60990W        W27399  10.810  23.668   3.225
60991W        W27400  33.233  12.682  10.717
60992W        W27401  15.492  19.711   1.933
60993W        W27402  11.268   2.919   1.302
60994W        W27403  36.900  17.161   1.625
60995W        W27404  20.256  19.873   3.243
60996W        W27405  12.812  18.672   4.974
60997W        W27406   4.213  30.751   4.112
60998W        W27407  13.336  16.610  12.462
60999W        W27408   2.770  20.391   1.662
61000W        W27409  20.652  32.996  14.858
61001W        W27410  42.637  33.586  11.908
61002W        W27411  19.029   0.386  10.425
61003W        W27412  37.565  15.243  13.357
61004W        W27413  39.457  34.334   0.418
61005W        W27414  23.742   2.242   4.551
61006W        W27415  16.628   8.687  14.246
61007W        W27416  15.630  24.830  14.759
61008W        W27417  22.640   8.446  10.545
61009W        W27418  34.094  40.478  10.187
61010W        W27419  28.583   3.204  14.341
61011W        W27420  26.538  35.055   0.052
61012W        W27421  30.169  42.677   4.253
61013W        W27422  26.602   9.396  13.250
61014W        W27423  17.281   4.302  12.508
61015W        W27424  17.580   2.812  14.230
61016W        W27425  12.341  17.355  10.539
61017W        W27426  35.950  11.781  14.360
61018W        W27427  20.355  28.631  13.877
61019W        W27428  35.986   8.116   1.276
61020W        W27429   3.976   9.120  10.665
61021W        W27430  28.909  41.033  12.093
61022W        W27431  38.922  38.712  11.586
61023W        W27432  44.308  11.852   2.701
61024W        W27433  15.130  10.915   0.964
61025W        W27434  31.946   9.823  13.347
61026W        W27435  24.278  25.485  14.986
61027W        W27436  30.165  10.335   0.690
61028W        W27437  42.870  33.349  12.670
61029W        W27438  15.850  39.482  11.697
61030W        W27439  17.039   2.585  14.881
61031W        W27440  16.774  35.392  14.922
61032W        W27441  35.607  14.378   2.448
61033W        W27442  26.440  21.636   1.837
61034W        W27443  44.329   1.047  10.616
61035W        W27444  27.157  19.338  10.675
61036W        W27445  28.070  44.679   2.194
61037W        W27446  19.494  26.940   2.774
61038W        W27447  11.573  37.383  13.869
61039W        W27448  35.566  31.712   1.951
61040W        W27449   2.890  15.550   5.113
61041W        W27450  31.465  12.075   4.668
61042W        W27451  30.917  34.825   2.934
61043W        W27452  33.368  33.127   0.977
61044W        W27453   5.335  36.980   4.254
61045W        W27454  27.978   3.471  10.126
61046W        W27455   5.816  15.821   4.347
61047W        W27456  26.012  35.177   1.407
61048W        W27457  37.058  28.995  10.813
61049W        W27458  14.262  32.804  11.609
61050W        W27459  38.925  39.237   1.654
61051W        W27460  12.644  18.182  14.684
61052W        W27461  21.509  20.150  12.929
61053W        W27462  14.334  25.788   1.680
61054W        W27463  38.933  10.448   4.725
61055W        W27464  13.341  33.919   2.180
61056W        W27465  12.205  19.172   3.458
61057W        W27466  42.302  28.716  13.614
61058W        W27467  33.114  43.917   2.159
61059W        W27468   3.587  42.036   2.140
61060W        W27469  38.951   8.203  11.862
61061W        W27470   1.745  12.803   4.187
61062W        W27471  24.502  43.342   3.284
61063W        W27472  19.059   3.333   4.925
61064W        W27473  11.564  23.174  14.071
61065W        W27474  30.351  38.426   4.763
61066W        W27475  11.842  15.729  14.463
61067W        W27476  19.975   5.031   0.110
61068W        W27477   3.851  21.568  13.963
61069W        W27478   1.197   0.477   4.256
61070W        W27479  11.311  35.636  13.978
61071W        W27480  14.326  11.778   3.477
61072W        W27481   9.093  13.736   3.015
61073W        W27482  36.478  27.314   1.678
61074W        W27483  16.576  38.491   3.514
61075W        W27484  17.406  28.661  11.853
61076W        W27485  23.535  39.997   1.799
61077W        W27486  12.836  30.825  10.673
61078W        W27487  27.570   8.455   2.703
61079W        W27488   1.718   5.033   4.144
61080W        W27489  15.793  24.587  12.000
61081W        W27490   6.605  34.154  13.662
61082W        W27491  14.346  29.078   2.779
61083W        W27492  17.843  19.544   0.410
61084W        W27493  10.321  14.124  14.898
61085W        W27494  13.385  37.068  13.904
61086W        W27495  21.724  39.590  14.795
61087W        W27496  36.061  31.409  13.456
61088W        W27497  30.901  34.742   1.751
61089W        W27498  22.099   3.435   4.677
61090W        W27499  28.474  17.185  10.628
61091W        W27500  35.400  14.472  14.203
61092W        W27501   7.629   2.364   3.396
61093W        W27502   3.434  41.023   3.253
61094W        W27503  37.293  31.485   2.250
61095W        W27504  28.104  31.157  14.045
61096W        W27505  18.683  15.291  12.918
61097W        W27506  37.170  35.113   1.096
61098W        W27507  27.009  18.564   2.860
61099W        W27508   5.772  30.650  13.555
61100W        W27509  24.056  31.516   2.385
61101W        W27510  30.454   3.226   3.444
61102W        W27511  43.350  21.014   2.659
61103W        W27512  20.748  35.972  14.482
61104W        W27513  41.479   3.979   4.545
61105W        W27514  34.602   7.041  12.800
61106W        W27515  29.832  10.936  13.293
61107W        W27516  37.497  36.783  14.326
61108W        W27517  22.217  42.880  11.114
61109W        W27518  41.943  32.654  14.521
61110W        W27519  22.461  19.318  10.498
61111W        W27520  31.715  38.040  13.521
61112W        W27521  32.953  26.087   1.457
61113W        W27522  30.449  29.903  12.892
61114W        W27523   3.207  34.065  12.524
61115W        W27524  35.827  18.219   2.152
61116W        W27525  15.642  13.688   1.435
61117W        W27526  20.579  43.499  10.535
61118W        W27527  16.148  26.813   1.958
61119W        W27528  36.793  25.303   0.338
61120W        W27529  26.513  11.844  10.225
61121W        W27530  23.578  20.050   3.297
61122W        W27531  29.207  30.154   3.259
61123W        W27532   5.333  22.413  10.209
61124W        W27533   2.242  27.750  12.013
61125W        W27534  19.270  20.075   0.505
61126W        W27535  30.291  28.075  13.209
61127W        W27536  10.407  21.165   2.032
61128W        W27537   7.879  44.186  13.965
61129W        W27538  36.160  10.340  11.488
61130W        W27539  32.371  31.425   4.266
61131W        W27540  43.958  41.037   0.811
61132W        W27541  22.553  43.976   0.480
61133W        W27542  29.878  27.709  14.595
61134W        W27543  38.558  29.131  14.300
61135W        W27544  23.128  39.579  12.060
61136W        W27545  44.255  22.040  11.477
61137W        W27546  37.382  15.175   0.267
61138W        W27547  22.100  33.902  12.991
61139W        W27548  38.324  34.960  13.054
61140W        W27549  43.982  38.461  12.870
61141W        W27550  14.707  20.254   9.766
61142W        W27551  24.710  30.983   2.870
61143W        W27552   7.767  31.144  14.190
61144W        W27553  24.151   2.125   2.234
61145W        W27554   9.278  28.772  10.822
61146W        W27555   1.036  10.865   1.129
61147W        W27556  44.725  22.746   3.002
61148W        W27557  44.017  36.441   3.370
61149W        W27558  32.716  17.254  11.553
61150W        W27559  35.302   1.736  13.589
61151W        W27560  43.454  21.300  11.984
61152W        W27561  24.892  24.662  10.798
61153W        W27562  42.373   7.705   0.744
61154W        W27563   9.123  24.197  11.821
61155W        W27564  36.488  27.368  11.006
61156W        W27565  43.481  40.850   3.417
61157W        W27566  17.147   4.329  10.051
61158W        W27567  14.690   6.836  11.138
61159W        W27568  32.602  15.559  14.178
61160W        W27569  44.480  44.401   4.034
61161W        W27570  19.207   3.306  10.553
61162W        W27571  41.211  10.178   2.734
61163W        W27572  19.353  27.956  13.015
61164W        W27573  33.164  32.536  14.832
61165W        W27574  38.795   3.509   2.223
61166W        W27575  40.315  10.919  10.320
61167W        W27576  22.624  40.287  11.630
61168W        W27577   9.447  44.839  14.362
61169W        W27578   3.765  16.669   2.185
61170W        W27579  18.103  18.625   4.907
61171W        W27580  11.804  12.791   2.264
61172W        W27581  13.106   9.807   1.317
61173W        W27582  14.688  27.878   0.695
61174W        W27583  41.044   4.152  11.707
61175W        W27584  43.313  30.414  10.724
61176W        W27585  17.079  34.585  11.204
61177W        W27586  43.861  36.967  12.048
61178W        W27587  38.295   1.480  14.387
61179W        W27588  41.038  18.727   1.029
61180W        W27589  39.820  38.041   1.290
61181W        W27590   0.810  14.233  11.892
61182W        W27591  39.594  25.715   0.919
61183W        W27592  40.120  20.504   3.303
61184W        W27593  30.707   8.476  14.413
61185W        W27594  21.834  14.059  11.110
61186W        W27595  27.526  30.925   4.289
61187W        W27596  22.659  28.947  13.983
61188W        W27597  32.000  12.843  12.893
61189W        W27598   9.426  36.540   1.475
61190W        W27599  33.028   5.392   1.616
61191W        W27600  40.750  38.035   1.463
61192W        W27601  14.402   3.283   0.406
61193W        W27602   6.727  25.363  10.892
61194W        W27603   2.928  39.343   1.625
61195W        W27604  32.895  44.745  11.938
61196W        W27605  28.080  20.716   5.003
61197W        W27606  28.670  42.853  14.039
61198W        W27607   6.458   8.843  11.629
61199W        W27608  31.996  28.591  11.287
61200W        W27609  18.522   5.746   1.915
61201W        W27610  38.609  20.271   2.909
61202W        W27611  24.512   4.884  13.736
61203W        W27612   5.504  27.567   1.737
61204W        W27613  21.993  10.999  11.306
61205W        W27614  34.861  44.041  13.913
61206W        W27615  34.091  31.095   3.762
61207W        W27616  35.916  20.312   2.824
61208W        W27617   7.733  16.693   3.877
61209W        W27618  31.171  27.781  14.439
61210W        W27619   4.804   6.154   2.828
61211W        W27620  28.400  20.546  14.174
61212W        W27621   1.836  35.934  12.930
61213W        W27622   6.392  40.447   5.119
61214W        W27623  43.492  13.317   0.799
61215W        W27624  37.080  25.742   0.347
61216W        W27625  43.792  30.400  14.902
61217W        W27626  12.827  40.336  12.827
61218W        W27627   9.103  11.075  11.609
61219W        W27628  17.578   7.976  12.324
61220W        W27629  27.004  11.316   0.211
61221W        W27630  30.144  18.080  11.552
61222W        W27631  25.717  19.458   5.886
61223W        W27632   1.005  29.441  14.285
61224W        W27633  21.744  10.669   2.872
61225W        W27634  40.255  35.936   3.317
61226W        W27635  41.838   4.582   1.973
61227W        W27636  17.653  35.827   4.446
61228W        W27637  22.664  32.981   4.877
61229W        W27638  35.748  16.759  12.005
61230W        W27639  42.443  14.083  13.015
61231W        W27640  29.378  34.131  14.494
61232W        W27641  29.686  44.960   0.465
61233W        W27642   2.383  10.144   2.905
61234W        W27643  14.271  25.483  12.180
61235W        W27644   6.605  22.539  13.985
61236W        W27645  18.317  29.844  13.071
61237W        W27646   1.931   4.826   4.568
61238W        W27647  40.136   5.657   0.265
61239W        W27648  36.963   1.404  11.279
61240W        W27649   9.121  35.615  14.574
61241W        W27650  35.475  11.561  14.375
61242W        W27651  36.566  21.599  10.672
61243W        W27652  13.061  28.727  10.739
61244W        W27653   8.647  43.374   0.348
61245W        W27654   0.485  26.018  14.797
61246W        W27655  26.802  22.107  11.116
61247W        W27656  17.545  12.158  14.352
61248W        W27657  43.744  24.652   3.665
61249W        W27658   0.567   7.381  13.706
61250W        W27659  13.879  19.201   2.754
61251W        W27660   5.095  22.338   3.176
61252W        W27661  15.584  14.008   3.007
61253W        W27662  25.487  23.555  13.951
61254W        W27663   4.357  16.246   3.296
61255W        W27664  20.202  20.256   2.401
61256W        W27665  32.505  12.531   4.178
61257W        W27666   0.047  29.075  13.420
61258W        W27667  31.697   8.649  10.668
61259W        W27668  43.038  19.905  10.443
61260W        W27669  42.754   4.878   3.245
61261W        W27670   0.950  22.663   3.182
61262W        W27671  31.149  29.439   0.328
61263W        W27672  32.985  36.867   2.374
61264W        W27673  35.098  27.705  11.632
61265W        W27674   0.278  43.998   3.354
61266W        W27675   1.235  30.857  11.495
61267W        W27676  41.061  11.382   4.418
61268W        W27677  27.042  11.255   2.222
61269W        W27678  44.801  25.721  12.145
61270W        W27679  40.174   4.380  12.511
61271W        W27680   3.478  33.188  11.426
61272W        W27681  23.203   1.943  11.790
61273W        W27682  37.828  38.470   3.843
61274W        W27683  37.385  27.534   3.749
61275W        W27684  37.808  17.266  12.612
61276W        W27685  18.830  15.831   2.793
61277W        W27686  31.127   7.492   3.209
61278W        W27687   8.585  15.787  13.047
61279W        W27688  29.266   6.502  13.875
61280W        W27689  28.882  39.620   4.348
61281W        W27690  26.149   5.780   4.651
61282W        W27691  42.247   7.663   4.394
61283W        W27692  24.375  17.537   1.428
61284W        W27693  20.687  26.386   0.193
61285W        W27694  16.537  33.398   1.732
61286W        W27695  24.664   3.646  11.583
61287W        W27696  26.571  24.299   1.536
61288W        W27697  22.187  34.698   1.994
61289W        W27698   8.372   1.230  13.849
61290W        W27699  26.025  44.731   0.345
61291W        W27700   0.241  17.649  13.981
61292W        W27701  25.972   4.300   4.886
61293W        W27702  18.210  31.024   1.665
61294W        W27703  16.980   1.888  14.367
61295W        W27704   2.352  26.084  10.719
61296W        W27705  29.973  28.969   4.409
61297W        W27706   3.676   0.183  11.216
61298W        W27707  14.016  26.005  13.550
61299W        W27708  13.407  44.801  11.099
61300W        W27709   6.327  31.503  13.486
61301W        W27710  37.315   6.751  12.076
61302W        W27711  19.782  11.449  11.641
61303W        W27712  39.135  42.429   1.606
61304W        W27713  15.565  24.535  11.151
61305W        W27714  39.473  44.059   1.760
61306W        W27715  41.760   6.433   4.637
61307W        W27716  41.651  28.651  12.962
61308W        W27717   0.211  39.214  13.498
61309W        W27718  24.128  16.624   1.023
61310W        W27719   9.196  30.468   1.825
61311W        W27720  29.179  32.057  14.859
61312W        W27721  14.307  43.397   4.262
61313W        W27722   7.766  31.196  12.811
61314W        W27723   5.333  35.423  10.846
61315W        W27724  43.839  41.688  14.954
61316W        W27725  32.933  15.819   1.873
61317W        W27726  40.461  11.313  11.887
61318W        W27727   9.426  38.011  13.369
61319W        W27728  17.840   3.161   2.078
61320W        W27729  41.967  21.261   2.726
61321W        W27730  10.299  23.962   2.918
61322W        W27731  17.061   0.601   3.743
61323W        W27732  35.679  42.926  14.541
61324W        W27733  36.930  38.099  11.171
61325W        W27734  29.119  31.421   0.863
61326W        W27735   7.849  14.827   0.348
61327W        W27736  33.644  31.488  11.025
61328W        W27737  31.738  33.469   2.383
61329W        W27738  37.181   1.757  13.138
61330W        W27739  36.533   6.034   0.945
61331W        W27740  27.841  33.778   0.826
61332W        W27741  43.927  39.908   2.869
61333W        W27742   1.062  14.965  12.984
61334W        W27743  41.266  22.479   4.092
61335W        W27744  25.207  44.011  12.856
61336W        W27745  44.156  44.883   1.965
61337W        W27746   8.342  37.145  13.582
61338W        W27747  28.246  13.885   2.333
61339W        W27748  41.683  25.930  13.571
61340W        W27749  30.440  18.187  12.256
61341W        W27750  11.812  22.651  11.376
61342W        W27751  23.795  40.801   1.844
61343W        W27752   6.363  17.367   1.189
61344W        W27753  15.864  23.756  14.547
61345W        W27754  36.085  26.242  10.727
61346W        W27755   0.172  37.610  11.996
61347W        W27756  41.057   3.633   4.483
61348W        W27757   9.452  40.011   3.797
61349W        W27758   1.406  12.226  11.435
61350W        W27759  34.005  21.240  11.455
61351W        W27760  20.668   6.683   4.571
61352W        W27761  31.111  44.803   0.905
61353W        W27762  32.909  16.755  10.678
61354W        W27763  29.709  13.466  10.721
61355W        W27764  33.061  19.824   3.222
61356W        W27765  18.532   2.345  14.982
61357W        W27766  17.046  29.265   2.398
61358W        W27767  26.680   3.031  12.451
61359W        W27768  14.513  26.836   2.857
61360W        W27769  14.144  12.132   0.341
61361W        W27770  28.050  19.224  12.447
61362W        W27771   1.373  27.025   3.970
61363W        W27772  33.896   2.396  13.483
61364W        W27773  32.300  33.609   4.181
61365W        W27774  42.160  23.853   4.996
61366W        W27775  10.177  39.286  14.681
61367W        W27776  39.943  20.577   2.444
61368W        W27777  13.248  38.327  11.555
61369W        W27778  19.921   5.082   3.623
61370W        W27779  17.563   6.732   0.670
61371W        W27780   3.427   9.118  12.961
61372W        W27781  21.239  35.941   4.976
61373W        W27782  32.532  39.380   4.131
61374W        W27783   2.395  32.513   1.615
61375W        W27784  10.777  11.435   1.344
61376W        W27785  15.647  13.169   1.431
61377W        W27786  37.909   6.728  13.974
61378W        W27787  30.777  27.436  14.617
61379W        W27788   8.015  34.275   4.185
61380W        W27789  44.244   6.702   1.637
61381W        W27790  20.047  24.562  10.654
61382W        W27791   3.818   6.339   0.228
61383W        W27792   9.826  15.420   0.461
61384W        W27793  14.366   7.278   3.630
61385W        W27794   4.276  13.692   0.851
61386W        W27795   1.288  10.161   0.065
61387W        W27796   6.639  24.850   3.242
61388W        W27797  31.084  23.640   3.384
61389W        W27798   9.241  36.651  12.501
61390W        W27799  26.967  20.718   0.469
61391W        W27800  27.861   1.948   0.908
61392W        W27801  20.475  26.755   4.977
61393W        W27802  25.034  15.732  12.371
61394W        W27803   6.900  26.242   2.806
61395W        W27804  27.297   2.386   3.058
61396W        W27805  39.171  31.428   4.044
61397W        W27806  13.285  36.166  12.316
61398W        W27807  28.099  23.017  12.066
61399W        W27808  22.669  26.721  10.292
61400W        W27809   3.322  11.210  14.069
61401W        W27810  16.790   8.172  11.104
61402W        W27811  20.737  32.327  14.265
61403W        W27812  14.331  23.509  11.697
61404W        W27813   0.293   0.453   3.939
61405W        W27814  25.976  10.784  13.356
61406W        W27815  44.549   0.459  12.591
61407W        W27816   4.552  24.247   2.727
61408W        W27817   7.469   2.494  10.728
61409W        W27818  34.774   9.700  12.644
61410W        W27819  30.893  39.135  14.919
61411W        W27820  38.401  34.870   3.689
61412W        W27821  34.009  18.249   3.136
61413W        W27822   1.767  38.654  12.353
61414W        W27823  24.944   9.690  10.631
61415W        W27824  12.222  14.663   1.174
61416W        W27825  10.643  28.455  12.815
61417W        W27826  39.254  43.994   3.298
61418W        W27827  15.792   1.858  14.714
61419W        W27828   0.417   2.866  14.763
61420W        W27829  18.819  26.440  11.212
61421W        W27830  12.020   0.682  10.816
61422W        W27831  25.507  21.134   2.095
61423W        W27832   4.217  38.732   1.286
61424W        W27833  39.314   8.147   0.436
61425W        W27834  30.868   4.637   1.173
61426W        W27835   9.030  19.172  11.487
61427W        W27836  11.916  19.506   0.358
61428W        W27837  43.347  35.451   1.052
61429W        W27838  12.341  25.575  13.832
61430W        W27839  22.373  22.207  13.018
61431W        W27840  33.654  27.505   2.644
61432W        W27841  14.379  42.008  11.131
61433W        W27842  42.742  39.699  13.081
61434W        W27843  37.776  31.528   3.191
61435W        W27844  17.278  26.093   2.781
61436W        W27845  44.750  37.737   3.284
61437W        W27846  42.889   4.811  12.917
61438W        W27847  43.969  24.908   0.382
61439W        W27848  33.964   6.269  12.276
61440W        W27849   7.835  43.222  12.984
61441W        W27850  21.592  11.369  11.000
61442W        W27851  42.082   3.435   2.900
61443W        W27852  24.630  20.054   9.750
61444W        W27853  10.854  30.623  10.675
61445W        W27854  23.648  38.586   3.192
61446W        W27855  30.238  18.832   0.011
61447W        W27856   0.609  38.518  10.542
61448W        W27857  33.763  22.569  11.568
61449W        W27858  43.092  12.859   2.307
61450W        W27859  24.712   5.107   0.109
61451W        W27860  42.180  40.770   2.385
61452W        W27861  29.852  41.817   1.965
61453W        W27862   6.225  22.666  10.262
61454W        W27863  34.454  24.408  10.869
61455W        W27864   4.138   8.248   1.472
61456W        W27865  22.178  30.625   1.701
61457W        W27866  41.547  30.849   4.523
61458W        W27867  34.615  40.885   4.339
61459W        W27868  22.101  36.477   3.076
61460W        W27869  24.685  25.314  12.491
61461W        W27870  14.527  27.070  13.772
61462W        W27871   5.766  20.126   0.698
61463W        W27872   4.760  44.678   0.911
61464W        W27873  23.181  43.001   2.190
61465W        W27874   9.328  13.151  14.388
61466W        W27875  44.512  25.816  14.535
61467W        W27876   8.736  11.509  14.078
61468W        W27877  34.958  21.120   0.519
61469W        W27878  44.039  18.094  11.362
61470W        W27879  33.312  30.236  12.395
61471W        W27880  29.068  24.192   0.890
61472W        W27881  33.115  15.792   3.498
61473W        W27882  38.608  44.380   2.705
61474W        W27883  30.921  43.960   3.113
61475W        W27884  12.578   7.501  11.501
61476W        W27885  17.170  18.716  11.548
61477W        W27886   5.832  22.317   5.455
61478W        W27887  41.411  44.676   0.328
61479W        W27888  22.649   2.978   2.756
61480W        W27889  16.372   4.495   2.778
61481W        W27890  28.620  35.322   3.722
61482W        W27891  11.656  13.091   3.219
61483W        W27892  36.045  18.743   3.274
61484W        W27893  31.958  22.112  13.032
61485W        W27894  34.521  39.610   1.019
61486W        W27895  13.814  15.359  10.547
61487W        W27896   3.994  27.439   4.152
61488W        W27897  19.079  25.427  13.731
61489W        W27898   8.339  41.781  12.038
61490W        W27899   2.023   6.500  13.713
61491W        W27900  21.238  41.588   2.943
61492W        W27901  27.998  25.200  12.956
61493W        W27902   0.306  25.237   1.176
61494W        W27903  11.074  34.571   5.133
61495W        W27904  33.015  29.528   0.529
61496W        W27905   3.693  24.827  11.095
61497W        W27906   8.369  18.060  10.687
61498W        W27907  19.126  17.090  12.170
61499W        W27908   1.681  39.489  12.440
61500W        W27909  43.311  29.193   2.808
61501W        W27910  26.876  26.952   1.813
61502W        W27911  12.238  13.269   1.453
61503W        W27912  25.685  16.305   2.278
61504W        W27913   6.264  28.374   4.183
61505W        W27914  26.173  24.462   1.254
61506W        W27915  24.487  22.213  12.124
61507W        W27916   3.752   5.471   0.741
61508W        W27917  14.847  38.106  14.228
61509W        W27918  11.051  37.668   3.249
61510W        W27919  22.981   5.763  14.340
61511W        W27920   8.186  12.086   0.516
61512W        W27921  11.665   2.551  12.528
61513W        W27922   1.632  21.752   4.598
61514W        W27923  36.498  41.300  10.753
61515W        W27924  28.958   4.371   3.106
61516W        W27925   8.912  11.753   3.791
61517W        W27926  15.281   5.920  12.505
61518W        W27927  18.298   3.041  11.926
61519W        W27928  15.389   8.265  11.173
61520W        W27929  25.675   7.305  14.402
61521W        W27930  38.490  27.157  14.829
61522W        W27931  28.100   0.808  10.731
61523W        W27932  21.374  44.184   9.943
61524W        W27933  39.372  15.143   9.744
61525W        W27934   2.958  26.076   3.162
61526W        W27935  25.508  42.176  14.858
61527W        W27936  16.310  33.001   3.992
61528W        W27937  36.574  39.309   4.220
61529W        W27938  14.616  43.725   4.003
61530W        W27939  26.923  34.900   2.786
61531W        W27940  29.442  16.564  11.800
61532W        W27941  14.167  43.889   4.170
61533W        W27942  31.744  29.723  12.981
61534W        W27943   4.165  43.067  14.923
61535W        W27944   3.496  43.916  13.016
61536W        W27945  38.870  29.541   1.371
61537W        W27946  30.332  30.368   2.696
61538W        W27947  40.638   3.357   4.260
61539W        W27948  23.010  23.859  12.573
61540W        W27949   7.286   8.188   2.800
61541W        W27950   7.367  16.365   3.676
61542W        W27951  31.887  19.008   0.452
61543W        W27952  18.617  11.439   4.503
61544W        W27953  36.029  17.597  12.913
61545W        W27954  32.891  26.025  13.484
61546W        W27955   9.922   1.864   0.562
61547W        W27956   9.281  15.317  12.840
61548W        W27957  11.902  24.780  11.427
61549W        W27958  25.539  24.041  10.684
61550W        W27959   1.397  34.774   2.694
61551W        W27960  17.596  32.116  10.116
61552W        W27961  24.156  30.210   4.170
61553W        W27962  20.515  30.009  12.113
61554W        W27963  33.469   8.217   4.400
61555W        W27964  32.625  24.793   0.112
61556W        W27965   3.013   0.331   4.324
61557W        W27966  37.460  44.244  13.137
61558W        W27967  21.295  20.743  14.704
61559W        W27968  22.898  11.481  11.967
61560W        W27969  22.208  27.165   1.347
61561W        W27970   0.793  15.932  12.909
61562W        W27971  43.387  41.026  11.545
61563W        W27972  26.019  19.504   2.513
61564W        W27973  37.014  22.290  11.393
61565W        W27974  36.157  38.932  14.049
61566W        W27975  22.265  43.676   4.037
61567W        W27976  41.439  35.343  11.654
61568W        W27977  17.215  22.225  13.610
61569W        W27978  17.085  35.792   2.356
61570W        W27979  19.935  21.770  11.982
61571W        W27980  42.815  12.498   5.165
61572W        W27981  16.120   6.922   4.148
61573W        W27982   4.579   4.891   2.351
61574W        W27983  36.535  44.961   1.226
61575W        W27984   4.693   4.183   0.431
61576W        W27985  37.896  28.992  11.066
61577W        W27986  35.403  30.599  13.343
61578W        W27987   3.017  14.661   4.937
61579W        W27988   9.202  30.573  10.335
61580W        W27989  21.323   6.159  11.793
61581W        W27990  11.139   7.679  13.064
61582W        W27991  11.614  44.324   0.897
61583W        W27992  37.423  27.624   2.885
61584W        W27993  23.033  16.342  11.023
61585W        W27994  32.711  38.921   4.923
61586W        W27995  13.139   4.767  14.387
61587W        W27996  29.476  19.282  11.174
61588W        W27997  19.767  35.164   2.486
61589W        W27998  27.591  23.799  11.952
61590W        W27999  42.292  31.025   2.219
61591W        W28000  21.345  32.886   1.916
61592W        W28001  33.100   1.851  12.221
61593W        W28002  17.983  11.137   4.207
61594W        W28003  17.134  37.490  14.424
61595W        W28004  38.400  11.774   2.287
61596W        W28005  20.396   6.577  12.011
61597W        W28006  37.617  31.389   0.244
61598W        W28007  43.566  35.702  12.850
61599W        W28008  15.623  36.536  14.173
61600W        W28009   3.438  36.408  13.873
61601W        W28010  24.205  36.485  14.937
61602W        W28011  43.193   9.747  10.823
61603W        W28012  15.320  22.127   2.634
61604W        W28013   5.028  38.469   4.361
61605W        W28014  10.671  16.651   0.405
61606W        W28015  38.863  13.540   4.067
61607W        W28016   4.457   7.539   1.233
61608W        W28017  40.795  13.775  11.777
61609W        W28018   3.159   5.897  12.470
61610W        W28019  13.793  23.334   1.772
61611W        W28020   4.497  20.662  14.678
61612W        W28021   1.064  25.007   3.685
61613W        W28022   6.903  36.351  12.950
61614W        W28023   8.806   2.014   2.842
61615W        W28024  17.685  22.942   2.779
61616W        W28025  42.428  44.226   3.187
61617W        W28026  10.183  21.346   0.652
61618W        W28027   8.420  27.497   4.133
61619W        W28028  30.447  13.281   3.091
61620W        W28029  18.817  30.696  13.961
61621W        W28030  20.103   8.668  10.168
61622W        W28031  20.744   8.036  13.313
61623W        W28032   1.144  29.661   1.384
61624W        W28033  43.819   5.756   0.488
61625W        W28034  17.687   3.361   4.679
61626W        W28035  33.122  24.243  11.181
61627W        W28036  29.831  22.758   0.069
61628W        W28037   9.880  16.725  10.414
61629W        W28038  32.314  33.435   3.307
61630W        W28039  11.179  15.720   1.156
61631W        W28040   9.403  27.963   2.610
61632W        W28041  16.137   4.771   4.174
61633W        W28042  29.133  21.035   2.859
61634W        W28043  14.104  31.730   5.023
61635W        W28044  42.984  41.287  14.473
61636W        W28045  25.652  37.747  14.825
61637W        W28046   4.213  33.053   3.324
61638W        W28047  41.551   1.980   2.901
61639W        W28048  34.344  41.559  12.316
61640W        W28049   6.591  22.513  14.854
61641W        W28050   6.260  40.382   3.628
61642W        W28051  23.045  20.021   3.251
61643W        W28052  41.924  36.975   2.366
61644W        W28053  39.344  27.505  11.934
61645W        W28054   8.240  41.599   1.037
61646W        W28055  40.365  37.913   4.698
61647W        W28056  36.580  12.713   3.284
61648W        W28057  18.240  28.942   1.895
61649W        W28058  14.901  28.048  10.760
61650W        W28059   3.891  32.012   2.327
61651W        W28060  16.507  22.710  11.749
61652W        W28061  24.058  13.351   1.412
61653W        W28062  44.962  43.676   0.797
61654W        W28063  12.720  28.351  12.970
61655W        W28064  12.720  10.874  12.022
61656W        W28065  19.301   5.914  13.048
61657W        W28066  28.615  30.549   4.592
61658W        W28067   7.649  31.897  13.451
61659W        W28068  31.953  17.835  13.427
61660W        W28069  17.423  32.529  14.039
61661W        W28070  22.568  42.838   5.061
61662W        W28071  32.121   9.695   2.695
61663W        W28072  28.969  19.282   1.092
61664W        W28073  23.621  16.346  12.475
61665W        W28074  42.117  12.778  12.085
61666W        W28075  40.829  35.538  10.964
61667W        W28076  31.418  11.154  13.983
61668W        W28077  28.002  20.216   1.252
61669W        W28078  37.091   2.306   2.383
61670W        W28079  23.528  37.134  11.135
61671W        W28080  26.949  22.500   0.765
61672W        W28081   6.414  41.514  10.808
61673W        W28082  41.393  17.652  13.514
61674W        W28083  38.104  41.896  11.271
61675W        W28084  14.844   8.395  13.364
61676W        W28085  37.614  31.833   3.643
61677W        W28086  25.409  42.414  12.994
61678W        W28087  28.064  14.583   0.839
61679W        W28088   5.714  22.204  11.067
61680W        W28089  16.071  38.030   3.836
61681W        W28090  28.555  29.185  10.668
61682W        W28091  30.967   8.551  12.304
61683W        W28092  30.477  44.393  11.183
61684W        W28093  32.370  27.845   1.119
61685W        W28094  18.053  44.281  13.031
61686W        W28095  40.325  26.073   2.427
61687W        W28096  18.712  32.415  12.506
61688W        W28097  37.433  26.147  10.705
61689W        W28098   1.869  40.026  14.540
61690W        W28099  16.263  16.093   2.127
61691W        W28100   3.580  14.624  12.187
61692W        W28101  19.989  41.011  14.464
61693W        W28102  36.822  10.202   3.412
61694W        W28103  22.092  43.361  11.009
61695W        W28104  28.446  18.254   1.367
61696W        W28105   7.319   4.705  13.502
61697W        W28106  20.725  42.043  13.094
61698W        W28107  28.348  15.403  11.964
61699W        W28108   4.801  24.944   0.436
61700W        W28109  40.686  39.892   3.607
61701W        W28110   5.139  30.008   3.817
61702W        W28111   8.803  24.424  14.610
61703W        W28112  34.692  28.432  14.316
61704W        W28113  33.449  44.311   5.054
61705W        W28114  31.232  39.405  12.175
61706W        W28115   3.392   7.416  12.003
61707W        W28116  38.526  36.732  11.659
61708W        W28117  33.710  16.205   3.849
61709W        W28118  10.443  20.206   0.046
61710W        W28119   7.966   7.922  14.557
61711W        W28120  38.139  35.732   5.320
61712W        W28121  43.435  32.134  14.870
61713W        W28122  14.734  44.705   0.386
61714W        W28123   9.640  16.546  13.804
61715W        W28124  41.466   5.967  12.560
61716W        W28125   1.722  25.961  14.260
61717W        W28126  38.455  19.265   2.793
61718W        W28127  42.959  31.172   0.862
61719W        W28128  38.944  18.517   5.128
61720W        W28129   0.137  15.996  14.908
61721W        W28130  15.822  14.714  13.045
61722W        W28131  40.543  11.512   3.757
61723W        W28132  30.354  23.347  13.580
61724W        W28133  28.170  26.543   3.702
61725W        W28134  18.201  11.294   1.841
61726W        W28135   0.785  21.975   2.741
61727W        W28136   4.957  28.170  10.636
61728W        W28137   0.948  21.628  14.124
61729W        W28138   6.424   6.255   4.484
61730W        W28139  13.512  19.993  12.403
61731W        W28140   9.217  30.367  12.204
61732W        W28141  26.133  20.945  12.117
61733W        W28142  34.629   9.395   3.272
61734W        W28143  40.320   6.298  10.296
61735W        W28144  43.066  30.698   3.187
61736W        W28145  13.768  18.574  14.358
61737W        W28146  42.393  31.530   1.170
61738W        W28147  38.500  21.470   3.556
61739W        W28148  13.689  15.108   1.478
61740W        W28149  32.354  30.886   2.242
61741W        W28150  21.029   0.501   1.677
61742W        W28151   0.385  27.748   3.244
61743W        W28152   2.410   4.796  14.451
61744W        W28153  38.892  23.423  13.808
61745W        W28154   0.818   6.357  14.479
61746W        W28155  29.135   2.978   3.279
61747W        W28156   3.023  31.033  11.061
61748W        W28157  17.078  22.658   0.785
61749W        W28158  11.836  43.684  10.723
61750W        W28159   5.505  22.046   5.133
61751W        W28160   5.974  12.310  14.277
61752W        W28161  39.549  10.855  14.852
61753W        W28162  10.847  22.476   0.025
61754W        W28163  31.965   7.244   0.645
61755W        W28164  29.514  12.102  10.539
61756W        W28165  38.004  43.090   0.379
61757W        W28166  39.507  42.915   0.350
61758W        W28167  33.004  33.058  10.709
61759W        W28168   7.391  17.593  14.844
61760W        W28169  38.561   3.776   2.652
61761W        W28170  41.550  30.512  13.866
61762W        W28171  32.904   9.763  13.743
61763W        W28172  23.917  25.280   2.367
61764W        W28173  22.046  18.997  11.545
61765W        W28174   1.393  21.526  14.355
61766W        W28175  19.221  13.936   0.424
61767W        W28176   2.948  30.170  14.860
61768W        W28177  26.961   5.699  12.462
61769W        W28178   2.794  27.866  10.476
61770W        W28179  35.609  29.377  13.066
61771W        W28180  20.213  28.410   0.193
61772W        W28181  11.701   5.786   0.040
61773W        W28182  28.613  32.978   1.787
61774W        W28183  26.575   6.849   1.710
61775W        W28184  12.913  26.153   2.238
61776W        W28185  33.083  14.351   0.701
61777W        W28186  43.859  20.624  12.118
61778W        W28187  14.389  41.333   1.194
61779W        W28188  20.616  28.123  14.767
61780W        W28189  35.500  13.102  10.584
61781W        W28190  40.457  28.506  12.651
61782W        W28191  18.161  31.444   2.679
61783W        W28192  39.238  44.381   4.620
61784W        W28193   0.162  31.043  14.502
61785W        W28194  34.388  35.857   4.349
61786W        W28195   6.899  19.597  13.346
61787W        W28196  29.965  17.630  11.395
61788W        W28197   3.532  22.367  14.009
61789W        W28198  23.487  26.717   4.333
61790W        W28199  16.546  38.134  14.362
61791W        W28200  26.095  20.655   2.549
61792W        W28201  36.206   6.894   0.937
61793W        W28202  15.931  41.513  13.011
61794W        W28203   9.226  43.919  13.860
61795W        W28204  43.106   2.436   5.373
61796W        W28205  22.797  38.958   4.365
61797W        W28206  43.398  12.364   4.227
61798W        W28207  40.121  30.447  14.969
61799W        W28208  24.492  37.522  11.830
61800W        W28209  22.137  39.892   1.247
61801W        W28210   7.498  38.014  13.579
61802W        W28211  28.438  41.261  12.082
61803W        W28212  11.333  43.289   2.150
61804W        W28213   8.155  31.149   1.008
61805W        W28214  31.906  10.730   0.784
61806W        W28215  23.592  35.623  14.483
61807W        W28216   1.584  14.275   2.655
61808W        W28217  24.263   2.198   4.597
61809W        W28218  30.945  23.748  12.158
61810W        W28219  16.062  10.212   4.570
61811W        W28220  20.083  19.854  14.932
61812W        W28221  12.584  11.119   0.177
61813W        W28222  32.191   7.410  11.162
61814W        W28223  24.975  34.006   4.553
61815W        W28224  28.697  36.417   0.000
61816W        W28225   9.971  43.889  10.738
61817W        W28226  15.646   2.918  10.186
61818W        W28227   5.829   6.755  10.784
61819W        W28228   6.265  15.777   4.614
61820W        W28229   9.574  21.950   3.161
61821W        W28230  26.765  40.382  13.089
61822W        W28231  35.650  12.810   1.900
61823W        W28232  33.056  36.396   3.344
61824W        W28233  19.098  36.460   0.011
61825W        W28234  12.694   5.815  14.838
61826W        W28235  29.915  36.327   2.740
61827W        W28236   9.436   1.340  13.821
61828W        W28237  40.802  27.375  12.634
61829W        W28238  20.260  26.990  11.570
61830W        W28239  18.545  21.761   3.208
61831W        W28240   2.436   3.677  13.560
61832W        W28241  21.098  21.017  12.753
61833W        W28242  29.572  35.829   3.616
61834W        W28243  28.467  23.011  10.695
61835W        W28244  27.200  34.392  13.023
61836W        W28245  42.509  23.336  14.284
61837W        W28246   3.609  31.021  13.703
61838W        W28247  23.757  16.179  14.214
61839W        W28248  24.594  23.259  12.295
61840W        W28249  20.679  12.733   0.406
61841W        W28250  31.892  31.739  11.252
61842W        W28251  21.540  12.608   5.052
61843W        W28252   3.359   4.628  14.275
61844W        W28253  30.826  10.368   1.329
61845W        W28254  30.260  22.524   3.990
61846W        W28255  36.033  17.126   4.898
61847W        W28256  44.996  26.589   3.460
61848W        W28257  44.216  42.108   3.987
61849W        W28258  12.718  43.547  14.266
61850W        W28259   1.416  26.562  12.017
61851W        W28260   8.340  26.307  11.586
61852W        W28261   7.265   7.842   3.218
61853W        W28262   9.139  22.142  12.985
61854W        W28263  23.592  32.958   2.071
61855W        W28264   9.739  41.790  10.445
61856W        W28265  23.237   9.550   2.611
61857W        W28266  33.450  17.867  11.245
61858W        W28267  18.831  39.983  12.448
61859W        W28268  12.952  20.928   4.053
61860W        W28269  44.032  31.022   1.806
61861W        W28270  40.793  14.835   4.488
61862W        W28271  39.182   5.275  11.130
61863W        W28272  30.999   1.980  13.494
61864W        W28273  37.667   4.201   0.459
61865W        W28274  26.055  34.659   2.805
61866W        W28275  18.285  18.663  12.514
61867W        W28276  23.034  40.035   4.074
61868W        W28277  27.746  41.726  13.919
61869W        W28278   6.314  11.369  11.321
61870W        W28279  27.663  13.460   3.564
61871W        W28280  11.188  35.975   3.082
61872W        W28281  11.680  43.296   4.692
61873W        W28282   1.183  19.425   0.866
61874W        W28283  32.103  28.162  13.048
61875W        W28284  44.943   6.678   2.307
61876W        W28285  34.604  38.652  10.434
61877W        W28286   0.087  21.728   3.651
61878W        W28287   3.750  37.606  10.236
61879W        W28288  35.537  18.386   0.344
61880W        W28289  22.448  41.945   3.867
61881W        W28290   0.878   1.740   1.917
61882W        W28291  13.731   5.148   0.850
61883W        W28292  32.061  26.968  14.886
61884W        W28293   7.660  17.684   0.264
61885W        W28294  42.277  20.095  13.893
61886W        W28295  12.111   8.246  10.675
61887W        W28296  12.127  31.870  13.045
61888W        W28297  11.744  10.193   5.149
61889W        W28298   0.211  20.785  11.585
61890W        W28299   9.375  27.087   1.425
61891W        W28300  28.905  31.329  14.414
61892W        W28301  11.595  41.018  13.974
61893W        W28302   8.613  22.354   2.372
61894W        W28303  15.066   5.399   3.672
61895W        W28304  12.057  27.056  12.856
61896W        W28305  36.861  33.139  10.813
61897W        W28306  32.943  23.297  12.214
61898W        W28307  36.401  20.502   2.629
61899W        W28308  13.067  19.840  13.925
61900W        W28309  22.408   8.828   1.176
61901W        W28310   6.395  21.480   0.828
61902W        W28311  41.053   8.161   4.738
61903W        W28312  30.140  16.055  11.632
61904W        W28313  36.856  35.361  14.921
61905W        W28314   6.019  33.066  11.441
61906W        W28315  27.613  39.403  14.551
61907W        W28316   1.818   7.218  12.425
61908W        W28317  12.379   1.747   1.977
61909W        W28318  35.971  43.253   0.016
61910W        W28319  39.355  28.099  11.371
61911W        W28320  35.554   0.638   2.917
61912W        W28321  44.280  25.012   4.735
61913W        W28322  20.871  16.167  12.846
61914W        W28323  18.154  21.605   0.689
61915W        W28324  24.557  17.775   3.242
61916W        W28325  38.834  19.887  10.620
61917W        W28326  21.245  15.291   1.308
61918W        W28327   3.312  22.058  13.577
61919W        W28328  43.780  13.736  13.131
61920W        W28329  14.131  17.798  10.603
61921W        W28330  38.298  13.366   4.789
61922W        W28331  11.191  15.904  13.779
61923W        W28332   5.999  36.444   1.721
61924W        W28333   4.747  34.106   9.890
61925W        W28334  17.838   3.908   4.517
61926W        W28335   8.209  20.152   4.124
61927W        W28336  29.623  39.353   3.221
61928W        W28337   3.389   4.019  10.539
61929W        W28338  35.634   5.713  10.512
61930W        W28339   9.970  31.834   9.896
61931W        W28340  39.119   6.868  11.659
61932W        W28341  13.391   7.129  14.914
61933W        W28342   1.434  18.291  12.033
61934W        W28343  11.072   5.418   1.759
61935W        W28344  40.095  34.980  13.531
61936W        W28345  28.736  39.159  14.092
61937W        W28346  39.276  22.377   0.352
61938W        W28347  24.006  23.477   2.641
61939W        W28348   3.973  17.164   2.217
61940W        W28349  14.724  24.980   3.745
61941W        W28350   3.966   0.004  12.539
61942W        W28351  33.059  44.658   4.159
61943W        W28352  36.002  10.013   4.621
61944W        W28353  35.510  30.089  13.382
61945W        W28354  20.412  18.226   3.830
61946W        W28355  16.782  32.024  11.710
61947W        W28356  44.294  44.980   4.706
61948W        W28357  12.096  12.379   2.128
61949W        W28358  37.014   6.616  12.498
61950W        W28359  25.249  29.630  11.576
61951W        W28360   0.908  22.192  12.377
61952W        W28361   8.258  19.738  13.604
61953W        W28362  36.613  44.951  13.371
61954W        W28363  12.305  34.541   1.853
61955W        W28364  43.550  32.212   0.673
61956W        W28365  36.512  41.603   0.864
61957W        W28366  12.103  44.602  11.990
61958W        W28367  24.831  15.094  14.738
61959W        W28368  26.611  19.019   4.097
61960W        W28369  35.014  20.234   4.277
61961W        W28370  34.909  30.783  10.743
61962W        W28371  25.214   1.309   2.776
61963W        W28372  17.648   2.957   3.349
61964W        W28373   5.085  36.576   4.046
61965W        W28374   9.169  35.667   1.231
61966W        W28375   8.148  18.519   3.728
61967W        W28376  24.738  28.161   2.861
61968W        W28377  36.841  28.494   1.283
61969W        W28378  32.613  26.256  13.084
61970W        W28379  17.977  22.821  12.047
61971W        W28380  18.059  42.958   3.129
61972W        W28381  27.417  16.743   4.699
61973W        W28382  28.411   0.975   1.517
61974W        W28383  21.131  43.461  13.913
61975W        W28384  42.529  37.583  14.974
61976W        W28385   6.496   5.697   1.310
61977W        W28386   8.280  41.397  13.988
61978W        W28387   8.536  31.046   1.341
61979W        W28388   4.295  24.945   0.588
61980W        W28389  44.036  25.094   1.949
61981W        W28390  22.208  21.960  13.699
61982W        W28391  44.951  33.180   1.440
61983W        W28392  15.095  44.561  12.437
61984W        W28393  41.204  32.193  11.264
61985W        W28394  26.664  21.189   3.202
61986W        W28395  25.690  34.338  14.975
61987W        W28396   5.918  14.206  10.671
61988W        W28397  10.798  17.049  12.574
61989W        W28398  18.810   8.212   3.282
61990W        W28399  24.375   2.402   3.297
61991W        W28400   0.552  25.639   3.310
61992W        W28401  23.576  13.603   4.207
61993W        W28402  10.211   8.513  11.666
61994W        W28403   1.178  16.658  14.453
61995W        W28404  40.475  41.865   0.455
61996W        W28405  10.104  19.428   4.321
61997W        W28406  44.487   7.954  13.042
61998W        W28407  33.857   9.042   3.051
61999W        W28408  36.877  40.411   4.683
62000W        W28409  32.150  10.332   4.018
62001W        W28410  29.279  32.865   3.734
62002W        W28411  35.110   7.752   2.037
62003W        W28412   7.473  14.349   2.578
62004W        W28413  36.341  18.499  12.625
62005W        W28414  10.069  11.100  11.587
62006W        W28415  19.526   2.737  14.974
62007W        W28416   4.249  44.817   3.324
62008W        W28417  42.305   4.282   4.551
62009W        W28418  30.024   4.925  11.927
62010W        W28419  30.578  12.221  10.857
62011W        W28420   5.567  28.109   4.998
62012W        W28421  25.887  28.718  11.062
62013W        W28422  27.348   0.848  12.129
62014W        W28423  28.189   8.811  14.728
62015W        W28424  38.711   4.382   4.100
62016W        W28425   6.686   3.507   3.170
62017W        W28426  19.497  29.762   4.814
62018W        W28427  35.889  13.772   2.167
62019W        W28428  10.342  37.748   2.238
62020W        W28429   5.398  19.525   1.099
62021W        W28430   0.108  14.132  12.031
62022W        W28431  30.545  23.965  12.995
62023W        W28432  15.196   8.338  14.468
62024W        W28433  25.376  35.399   3.599
62025W        W28434  38.885  31.108  11.539
62026W        W28435  40.388  16.335  12.470
62027W        W28436   2.595  33.378  14.293
62028W        W28437   1.777  37.019   1.149
62029W        W28438  27.187  23.578  10.732
62030W        W28439   4.424  23.746   2.683
62031W        W28440   7.611  42.608   3.791
62032W        W28441   2.464   0.015   3.871
62033W        W28442  22.514   3.797   1.816
62034W        W28443   0.282  21.566   0.778
62035W        W28444   1.030  13.687   0.431
62036W        W28445  29.147  34.758   3.138
62037W        W28446   3.837  26.016  13.125
62038W        W28447  33.362  35.506   4.375
62039W        W28448   0.773  43.047   4.218
62040W        W28449  34.876  16.214  11.136
62041W        W28450  38.601  27.800   3.210
62042W        W28451   2.154  24.369   3.527
62043W        W28452   1.783  24.235   2.348
62044W        W28453  32.704  10.691   2.366
62045W        W28454  26.996  34.826   0.149
62046W        W28455  40.270  14.660  11.900
62047W        W28456  32.807  12.699   2.730
62048W        W28457  25.939  36.077  13.823
62049W        W28458   4.933  16.064  10.990
62050W        W28459   4.035  32.915   4.553
62051W        W28460  22.062  22.517  10.517
62052W        W28461  19.733  11.637   0.309
62053W        W28462   4.197  39.959  12.023
62054W        W28463  10.739  43.976   0.866
62055W        W28464  24.068  18.690  11.523
62056W        W28465   5.113  39.388  12.921
62057W        W28466  18.640  36.626  11.445
62058W        W28467  11.688  39.885   3.251
62059W        W28468   2.314  28.129  13.686
62060W        W28469  43.022  15.403   4.698
62061W        W28470  18.511   2.969  13.451
62062W        W28471  22.133   3.940   1.208
62063W        W28472   8.802  28.599  11.538
62064W        W28473  41.076  24.042   3.092
62065W        W28474   0.511   8.744   9.785
62066W        W28475   3.298  29.716   2.265
62067W        W28476  18.629   4.521   2.713
62068W        W28477  34.567  38.828   0.402
62069W        W28478   5.436  34.471   3.772
62070W        W28479  23.272  25.239   0.726
62071W        W28480   5.766  19.920   2.454
62072W        W28481   3.708   2.956   4.039
62073W        W28482  37.459  23.749   3.185
62074W        W28483   8.213  44.804   2.417
62075W        W28484  12.825   7.430   2.764
62076W        W28485   5.739  26.652   4.196
62077W        W28486  24.694  36.630   3.679
62078W        W28487  28.604  14.906   4.690
62079W        W28488  42.831  12.645  10.552
62080W        W28489   0.833  11.587  12.160
62081W        W28490  37.647  38.407  12.038
62082W        W28491   9.977  32.109  14.177
62083W        W28492  24.081  32.016   4.198
62084W        W28493   9.212  20.693  10.721
62085W        W28494  23.719   9.839  10.236
62086W        W28495  16.575  40.359   4.603
62087W        W28496   6.194  32.397   3.481
62088W        W28497  33.932  14.189  11.685
62089W        W28498   6.032  40.126   0.590
62090W        W28499   5.836  22.232   0.397
62091W        W28500   8.760  13.288   3.210
62092W        W28501  21.633   4.825   9.825
62093W        W28502  20.896  43.143  10.214
62094W        W28503   0.325  29.908   2.509
62095W        W28504   7.435  31.061   0.462
62096W        W28505  43.957   2.338  13.614
62097W        W28506  24.265  41.416   3.579
62098W        W28507   3.967  11.758  10.589
62099W        W28508  28.982   0.030   4.505
62100W        W28509   3.354  31.421  14.904
62101W        W28510  38.896  30.537  14.675
62102W        W28511  17.574  14.172  10.678
62103W        W28512  43.699  21.531   3.197
62104W        W28513  43.825  23.332  12.616
62105W        W28514  18.027   7.357   2.426
62106W        W28515   4.973  24.018   4.042
62107W        W28516  44.861  16.416  10.241
62108W        W28517  26.948  10.449  14.620
62109W        W28518  33.508  29.494   2.231
62110W        W28519  30.333  20.737  13.092
62111W        W28520  11.856  17.157   3.748
62112W        W28521  19.186  23.025  11.896
62113W        W28522   3.321   2.043   4.711
62114W        W28523  27.398   2.851  11.977
62115W        W28524  36.825  10.395  12.067
62116W        W28525   0.856  21.233   0.915
62117W        W28526  44.298   7.355  10.390
62118W        W28527  35.403  12.331  12.078
62119W        W28528  19.055  15.756  11.479
62120W        W28529  42.836  12.624  13.528
62121W        W28530  30.642  33.953  10.723
62122W        W28531   7.380  36.052  13.060
62123W        W28532  19.579  29.258  11.586
62124W        W28533  20.074  18.640   3.862
62125W        W28534  19.469  20.275   2.839
62126W        W28535  34.564  28.283   0.826
62127W        W28536   2.663  20.764   0.957
62128W        W28537  36.868  13.881  11.097
62129W        W28538  23.524  41.410   3.259
62130W        W28539  41.396  23.058   0.142
62131W        W28540  23.753  17.061  14.218
62132W        W28541  11.729   4.694   1.835
62133W        W28542  31.385  40.025  10.681
62134W        W28543  40.501  42.214   2.821
62135W        W28544  13.642   0.629   2.150
62136W        W28545   4.933  30.141   0.392
62137W        W28546  41.017  36.493   2.179
62138W        W28547   4.666  43.190  14.828
62139W        W28548   2.497  15.784  12.227
62140W        W28549  13.385  11.299   1.409
62141W        W28550  12.804  44.715  10.688
62142W        W28551  17.496  42.431  11.577
62143W        W28552   7.792   3.537  12.862
62144W        W28553  38.387  44.726   1.817
62145W        W28554  15.424  15.125   4.413
62146W        W28555  18.196  36.037  14.797
62147W        W28556   6.862  36.678  12.542
62148W        W28557  33.345  34.955   2.579
62149W        W28558  34.660  24.073  14.847
62150W        W28559  34.431  30.659   4.263
62151W        W28560  15.358  19.221   4.242
62152W        W28561   7.544  40.243   4.439
62153W        W28562  37.883  21.168   0.531
62154W        W28563  13.167  42.847   4.639
62155W        W28564  18.616   5.305   1.658
62156W        W28565   2.288   4.719   2.291
62157W        W28566  37.567  30.905  11.677
62158W        W28567  12.028  23.734   3.628
62159W        W28568   8.866   8.910  10.584
62160W        W28569  33.873  22.329   0.364
62161W        W28570  31.912  41.258  14.717
62162W        W28571  22.343   2.098  13.814
62163W        W28572  36.540  20.328  12.398
62164W        W28573  14.101  19.540  12.148
62165W        W28574  13.046  43.179   2.208
62166W        W28575  27.922  11.239   1.662
62167W        W28576  33.200   7.772  12.038
62168W        W28577  17.838  20.704   5.322
62169W        W28578  33.083  31.101  12.498
62170W        W28579  41.831  25.601   1.434
62171W        W28580  32.833  12.366   2.346
62172W        W28581  42.947  31.567  13.554
62173W        W28582  12.752  25.745  13.554
62174W        W28583  28.572  29.948   4.009
62175W        W28584   1.449  32.852   0.778
62176W        W28585   2.924  38.973   1.265
62177W        W28586  23.474  37.486  12.029
62178W        W28587  17.968   4.382   4.224
62179W        W28588  39.807  21.648  14.230
62180W        W28589  41.307   6.317   0.371
62181W        W28590  23.032  33.621   4.460
62182W        W28591  24.717  28.904  14.929
62183W        W28592  32.373  13.727   1.104
62184W        W28593   5.291  37.615   4.919
62185W        W28594  18.696  34.046  12.709
62186W        W28595   3.392  20.824  11.426
62187W        W28596  12.764  40.305  13.935
62188W        W28597  14.505   0.220   5.014
62189W        W28598  38.191  21.810  13.179
62190W        W28599  41.029  14.124  14.761
62191W        W28600  25.668  27.962   1.173
62192W        W28601  42.280  27.930  10.669
62193W        W28602  11.331  35.861   0.718
62194W        W28603  10.364  13.728   4.099
62195W        W28604  39.040  21.661  10.112
62196W        W28605  32.397  32.050  12.238
62197W        W28606  40.488  39.967  13.052
62198W        W28607  23.718  41.310   1.723
62199W        W28608  17.741  33.792   1.764
62200W        W28609  34.304  18.091  10.824
62201W        W28610  38.182  19.735  14.262
62202W        W28611  12.260  18.722  13.547
62203W        W28612  41.546  31.187  14.990
62204W        W28613  16.926  18.064   4.089
62205W        W28614  14.460  33.820  14.252
62206W        W28615  23.626  23.351  11.450
62207W        W28616  11.706  40.283  13.546
62208W        W28617  23.209   3.932   3.200
62209W        W28618   5.796  12.145  11.407
62210W        W28619  43.546  25.514  14.436
62211W        W28620  41.849  24.945   2.697
62212W        W28621  38.126   4.966  10.639
62213W        W28622  10.721  22.998  14.943
62214W        W28623  38.470   4.746  13.696
62215W        W28624  23.577  12.904  11.127
62216W        W28625  10.938   9.271  13.096
62217W        W28626  23.644  20.070  14.425
62218W        W28627  26.996  18.096   1.499
62219W        W28628   8.455   5.970  11.536
62220W        W28629  33.912  40.270   2.559
62221W        W28630  23.715  24.185   2.733
62222W        W28631  13.178  27.700  11.539
62223W        W28632   4.920  29.221  10.541
62224W        W28633  43.774  22.524  13.314
62225W        W28634   3.812  20.751   0.267
62226W        W28635   0.954  16.159   1.176
62227W        W28636  34.954  40.812  10.426
62228W        W28637   8.112  38.355  11.854
62229W        W28638  18.282   2.200  12.654
62230W        W28639   7.811  36.864  12.019
62231W        W28640  10.384  17.504   0.950
62232W        W28641  42.022  12.739  11.194
62233W        W28642  17.992  20.324  11.580
62234W        W28643   4.462  33.064  10.613
62235W        W28644  12.981  33.698   3.196
62236W        W28645   2.057  41.827   4.202
62237W        W28646  40.943  31.030   3.333
62238W        W28647  21.330   2.453   3.927
62239W        W28648  35.143  28.995   0.763
62240W        W28649  22.660  11.430  13.493
62241W        W28650  16.299   6.769  12.910
62242W        W28651  44.220  11.888   3.286
62243W        W28652  14.373  44.318   0.349
62244W        W28653  30.200  22.559   1.308
62245W        W28654   1.536   3.255   0.321
62246W        W28655   3.675  26.781  11.653
62247W        W28656  35.586  20.173  11.521
62248W        W28657  32.031  35.560   3.649
62249W        W28658   7.848  19.047  13.061
62250W        W28659  18.907  38.818   3.297
62251W        W28660  38.161  19.157   0.537
62252W        W28661   1.007   5.427  14.018
62253W        W28662  33.352  12.090  13.073
62254W        W28663  14.680   2.342   1.943
62255W        W28664  10.403  33.300  11.036
62256W        W28665  27.868  39.240  11.581
62257W        W28666  37.364  32.905   4.413
62258W        W28667  33.481  16.095  10.560
62259W        W28668   5.957  28.447   5.065
62260W        W28669   9.766  37.372   4.997
62261W        W28670  43.349  13.846  12.523
62262W        W28671   0.781  22.126  14.216
62263W        W28672  43.410  38.278   1.240
62264W        W28673  25.247  25.602  11.552
62265W        W28674  32.757   6.348  13.420
62266W        W28675  25.035  29.784  12.450
62267W        W28676   9.843  44.776  11.135
62268W        W28677  39.026   9.282   3.683
62269W        W28678  30.433  15.346  12.661
62270W        W28679  31.581  27.117  14.031
62271W        W28680  21.002  24.716   2.287
62272W        W28681   1.213  37.407   0.915
62273W        W28682   2.511  40.882   3.635
62274W        W28683  26.003  12.068  13.956
62275W        W28684  38.742  43.954   3.304
62276W        W28685  21.487  13.163   4.121
62277W        W28686   1.258  40.360   0.808
62278W        W28687  10.034   5.372   1.729
62279W        W28688  27.950  30.277  14.439
62280W        W28689  18.583  23.132  13.111
62281W        W28690  43.457  12.213   3.229
62282W        W28691   2.284  20.443   4.628
62283W        W28692  23.100  43.185  14.437
62284W        W28693  33.429  27.155   4.159
62285W        W28694  25.548  36.502   3.316
62286W        W28695   6.260   2.235  12.114
62287W        W28696  17.621  24.038  14.444
62288W        W28697  31.934  43.221   0.732
62289W        W28698  32.662  11.263  14.954
62290W        W28699   9.787  29.547   1.145
62291W        W28700   0.615  13.465  14.481
62292W        W28701  34.145   9.285  12.290
62293W        W28702   8.652  23.663  10.654
62294W        W28703  33.893  12.719  12.558
62295W        W28704  44.209   3.527  14.990
62296W        W28705  36.982  16.876   0.740
62297W        W28706   2.257  24.075   4.309
62298W        W28707  10.778  37.067  11.674
62299W        W28708   7.770   4.962   1.748
62300W        W28709  24.908  33.846   3.662
62301W        W28710  20.630  13.846   4.503
62302W        W28711   3.936  17.257   1.368
62303W        W28712   0.755  33.339  14.589
62304W        W28713   0.718   4.869   0.029
62305W        W28714  17.779   0.292   1.373
62306W        W28715  13.520  34.788   1.238
62307W        W28716  16.684   2.198  13.918
62308W        W28717  14.664   6.744  12.616
62309W        W28718  15.266  43.840   0.236
62310W        W28719   3.239   1.497  14.905
62311W        W28720  34.941  14.008   1.270
62312W        W28721  31.507  17.043   3.576
62313W        W28722   5.185  44.727   0.330
62314W        W28723   5.460   4.404  11.160
62315W        W28724   1.375  29.682  12.532
62316W        W28725  31.892  13.713  12.660
62317W        W28726  36.585  29.236   2.197
62318W        W28727  37.705   5.867  14.767
62319W        W28728  33.327  37.809  11.176
62320W        W28729  35.417  39.044   2.779
62321W        W28730  13.862   7.922  13.551
62322W        W28731  38.742  38.395   2.166
62323W        W28732   2.313   3.916   0.521
62324W        W28733   2.478  25.183   4.931
62325W        W28734  12.776  39.030  13.749
62326W        W28735  25.697  31.066   3.250
62327W        W28736  33.983  41.523  13.673
62328W        W28737  41.530  27.124   3.654
62329W        W28738  24.336  25.341   0.740
62330W        W28739  19.730   9.291  14.893
62331W        W28740  41.477  34.903   2.830
62332W        W28741  20.832  35.945   0.350
62333W        W28742  14.229  36.946  13.494
62334W        W28743  12.273  43.019  10.281
62335W        W28744  10.083  40.835  14.943
62336W        W28745  35.972   9.107   0.411
62337W        W28746   4.869  44.173  10.778
62338W        W28747  18.448  14.316   1.680
62339W        W28748  25.601   1.188   4.124
62340W        W28749  18.047  19.182  13.306
62341W        W28750  27.238  23.686   3.511
62342W        W28751  29.559  17.205   4.629
62343W        W28752  44.431  27.505  11.136
62344W        W28753  17.563  29.148   0.699
62345W        W28754  33.208  34.680   4.717
62346W        W28755  17.566  28.415  14.553
62347W        W28756  20.798  17.491   0.694
62348W        W28757  44.002  14.152  14.365
62349W        W28758  24.462   2.980  14.341
62350W        W28759  41.331  13.820   4.204
62351W        W28760  13.305  32.868   4.716
62352W        W28761  22.481  14.143  10.250
62353W        W28762  38.501  15.199   4.606
62354W        W28763  29.727  37.444   4.743
62355W        W28764  27.803  43.147   2.244
62356W        W28765  10.575  33.144  14.972
62357W        W28766  32.574  39.795   2.464
62358W        W28767   7.143  39.385   4.196
62359W        W28768   4.909   3.935  13.268
62360W        W28769   2.338  39.529   2.377
62361W        W28770   6.632  30.903   3.716
62362W        W28771  22.590  38.306  13.603
62363W        W28772  11.023  28.027  11.986
62364W        W28773  35.967   2.933   3.117
62365W        W28774  22.020  14.872  13.930
62366W        W28775   7.726  14.807  12.901
62367W        W28776  30.563  25.726  13.982
62368W        W28777  13.085  31.158   1.708
62369W        W28778  29.955  10.238  12.952
62370W        W28779  27.707  43.979  14.815
62371W        W28780   8.458  21.993  12.543
62372W        W28781  27.765   8.672   1.022
62373W        W28782  42.034   4.319  12.871
62374W        W28783   8.928  41.765   2.424
62375W        W28784  42.995  11.628   4.881
62376W        W28785  20.068  33.532   3.671
62377W        W28786  12.132  42.729   2.455
62378W        W28787  10.352  33.002   4.508
62379W        W28788  16.799   7.152   1.296
62380W        W28789  15.836  21.175  11.546
62381W        W28790  29.388  16.222   0.305
62382W        W28791  18.111   0.515  10.453
62383W        W28792   1.863  19.825  14.377
62384W        W28793  38.253  38.270  12.519
62385W        W28794  15.571  21.229   3.864
62386W        W28795   0.249  30.076   0.299
62387W        W28796  25.048  32.147   2.721
62388W        W28797  14.767  37.968   1.168
62389W        W28798  32.973  15.264  11.905
62390W        W28799  22.509  23.076   0.261
62391W        W28800   0.747  17.645  13.952
62392W        W28801  37.202  25.189  13.539
62393W        W28802   3.651   7.160   3.651
62394W        W28803  15.690  12.193   1.950
62395W        W28804   4.717  34.400   1.816
62396W        W28805  21.822  17.697   2.318
62397W        W28806  14.290  39.022   1.679
62398W        W28807  15.321  38.516   4.500
62399W        W28808  32.538  42.866  11.693
62400W        W28809  32.092  33.643   1.247
62401W        W28810  24.452  34.046   2.888
62402W        W28811  44.779   3.900   4.409
62403W        W28812  26.143  28.400  13.415
62404W        W28813  21.613  10.732   3.392
62405W        W28814  27.960  10.370  11.912
62406W        W28815  22.791  35.865   3.053
62407W        W28816  38.911  20.303  13.178
62408W        W28817  35.395  35.267  12.925
62409W        W28818  21.148  34.098  14.009
62410W        W28819  33.660  22.125  11.085
62411W        W28820  27.963   7.107   0.701
62412W        W28821  44.290   5.403   2.714
62413W        W28822  41.900  11.292   3.783
62414W        W28823  35.217  40.987  14.264
62415W        W28824  38.100  18.927   2.609
62416W        W28825   4.253  25.162  12.015
62417W        W28826  15.145  38.587  13.500
62418W        W28827   2.226  25.339   4.512
62419W        W28828   3.839  39.341   1.803
62420W        W28829   8.635   9.600   2.749
62421W        W28830   7.128  30.094  13.109
62422W        W28831  26.465  21.647  13.499
62423W        W28832  10.384  17.000   0.991
62424W        W28833  19.089  40.122  14.923
62425W        W28834   9.735  10.164  13.070
62426W        W28835  38.986  15.586   5.075
62427W        W28836  31.519  44.477  13.251
62428W        W28837  27.462  18.170  13.821
62429W        W28838  10.727  30.333  11.087
62430W        W28839  16.090  15.669   4.160
62431W        W28840   8.418  43.979   2.757
62432W        W28841   5.210  15.633   1.825
62433W        W28842  42.941  31.915  12.197
62434W        W28843  25.696  30.495  11.627
62435W        W28844  13.143   8.387   2.744
62436W        W28845  30.883  14.424   0.901
62437W        W28846  42.394  21.073   3.664
62438W        W28847  37.921  31.186  11.343
62439W        W28848  40.772   3.870   3.027
62440W        W28849  19.576   8.662  14.271
62441W        W28850  28.769  34.405   3.842
62442W        W28851  20.694  16.619   1.127
62443W        W28852   2.413   5.882   4.172
62444W        W28853  20.111  15.028  13.163
62445W        W28854  14.157  31.341   2.673
62446W        W28855  16.974  15.874   5.186
62447W        W28856   7.901  17.126  13.474
62448W        W28857  38.442  29.530  13.995
62449W        W28858   0.049   7.919   3.659
62450W        W28859  13.462   8.778  14.453
62451W        W28860  23.737  19.282   1.280
62452W        W28861   2.343  42.775  11.668
62453W        W28862  17.332  12.633  11.132
62454W        W28863   3.811  39.826   1.994
62455W        W28864   8.706  41.436   4.125
62456W        W28865   8.962  20.227  12.010
62457W        W28866  27.299  27.538   3.883
62458W        W28867  20.501  29.529   1.689
62459W        W28868  20.651   1.459  14.786
62460W        W28869   8.272   4.037   1.265
62461W        W28870   9.283  14.403   3.848
62462W        W28871  13.065  31.549   4.353
62463W        W28872  38.858  13.477   1.171
62464W        W28873   5.659  20.194  14.667
62465W        W28874   9.841  42.703  14.731
62466W        W28875  23.950  25.680  12.167
62467W        W28876  23.421  25.648  13.658
62468W        W28877   5.936   7.822   2.324
62469W        W28878  23.022  40.860  14.232
62470W        W28879   8.463  16.135  12.118
62471W        W28880  44.778  16.183   3.833
62472W        W28881   2.941  37.969  11.099
62473W        W28882  36.941  27.033  13.311
62474W        W28883  18.743  19.071   4.265
62475W        W28884  24.665  11.209  13.013
62476W        W28885  11.246   9.281   1.746
62477W        W28886   1.492  36.423  14.924
62478W        W28887  17.274  18.069   3.207
62479W        W28888  19.059  29.936  12.963
62480W        W28889  25.522  39.772   4.727
62481W        W28890  11.320  38.587   2.206
62482W        W28891  40.302  35.169   1.958
62483W        W28892  18.508  22.493   3.903
62484W        W28893  34.408  23.776  13.026
62485W        W28894  16.237  17.561   2.305
62486W        W28895  13.327  19.113   0.024
62487W        W28896   8.133   9.380   0.679
62488W        W28897  29.137  20.693  14.869
62489W        W28898  34.193  22.947   3.609
62490W        W28899   2.541   9.838   4.204
62491W        W28900  34.766  42.573  13.334
62492W        W28901   4.394  37.802  12.700
62493W        W28902  20.716  19.104   0.285
62494W        W28903  10.054  44.771  12.438
62495W        W28904  18.892  34.707  10.341
62496W        W28905   3.341   1.823   0.710
62497W        W28906  31.538  42.950  11.765
62498W        W28907  39.442   2.497   0.538
62499W        W28908  19.675  24.943  12.575
62500W        W28909   3.933  17.076  14.804
62501W        W28910   3.196  14.774  11.499
62502W        W28911  43.297  17.778   0.830
62503W        W28912  37.789  34.483  10.489
62504W        W28913  20.757   1.399  10.695
62505W        W28914  34.368  39.411   4.754
62506W        W28915  31.054   9.839   4.700
62507W        W28916   3.648  24.150   4.158
62508W        W28917  43.351  12.133  14.812
62509W        W28918  40.916  44.727   4.520
62510W        W28919  12.275  18.693   3.673
62511W        W28920   4.217  28.637  12.333
62512W        W28921   4.799  42.726  10.430
62513W        W28922  43.860  27.141   0.318
62514W        W28923  37.954  26.468   3.252
62515W        W28924  12.763  10.425  12.963
62516W        W28925  21.209  37.009   1.412
62517W        W28926   9.585  42.400  14.361
62518W        W28927  13.695  28.610  14.333
62519W        W28928   8.116   9.857   1.418
62520W        W28929  28.956  18.561   3.274
62521W        W28930  23.143   3.832  11.715
62522W        W28931   9.258   1.203   4.161
62523W        W28932  31.172  23.101  11.043
62524W        W28933  19.109  11.866   3.721
62525W        W28934  13.487  20.754   0.383
62526W        W28935  35.509  34.523   4.763
62527W        W28936  34.886  20.293   3.609
62528W        W28937  22.939  24.556  12.020
62529W        W28938  12.905  29.920   1.638
62530W        W28939   3.541  23.374  13.222
62531W        W28940  34.257   4.447   3.257
62532W        W28941  12.177  14.972  12.277
62533W        W28942  17.333  13.809  12.887
62534W        W28943  22.840  42.954  14.826
62535W        W28944  17.804  23.301   3.261
62536W        W28945  15.102  16.775   1.706
62537W        W28946  17.850  41.248  12.872
62538W        W28947  25.092  19.156   0.004
62539W        W28948  29.339   4.664   2.398
62540W        W28949   2.468  38.619   1.371
62541W        W28950  36.440  19.294   4.567
62542W        W28951  33.545  18.267   2.341
62543W        W28952   1.648  30.602   5.107
62544W        W28953  22.539  35.427   1.889
62545W        W28954  25.822  35.610   3.709
62546W        W28955  37.313  14.103   3.396
62547W        W28956   6.324  18.300   1.001
62548W        W28957  18.614  39.513   0.519
62549W        W28958  41.771  22.811   3.266
62550W        W28959   6.645   9.251  10.656
62551W        W28960   4.179  33.319  12.142
62552W        W28961  18.045  28.213  11.155
62553W        W28962   0.018  17.217   3.654
62554W        W28963  22.079   1.234  13.593
62555W        W28964  32.524  19.435  12.629
62556W        W28965  21.739  10.425   0.221
62557W        W28966  33.403   6.190  11.622
62558W        W28967   5.411  10.081  11.145
62559W        W28968  27.190  21.516   9.734
62560W        W28969   4.180  10.657  14.895
62561W        W28970  41.388  19.339  11.081
62562W        W28971  39.985  17.690  12.652
62563W        W28972   2.222   4.384   4.386
62564W        W28973  32.085  20.772   2.966
62565W        W28974  44.786   0.316  13.053
62566W        W28975  19.145  28.664   3.767
62567W        W28976  18.556  25.742  13.893
62568W        W28977  36.771  24.416  11.629
62569W        W28978  14.906  14.119  13.881
62570W        W28979  38.731   6.814  13.524
62571W        W28980  15.547  38.869  12.358
62572W        W28981  14.645  13.172   1.444
62573W        W28982  42.680  30.603  12.093
62574W        W28983  15.693  24.125   3.247
62575W        W28984  25.577  15.764  10.798
62576W        W28985   5.083  43.256  13.407
62577W        W28986   1.299  22.282   4.639
62578W        W28987  39.006  27.923  14.550
62579W        W28988  27.974  39.310   2.823
62580W        W28989  28.032   5.402   3.332
62581W        W28990  22.612  33.836  11.608
62582W        W28991  24.489  17.039  13.468
62583W        W28992   4.430  44.447  10.954
62584W        W28993  21.052  17.691  14.526
62585W        W28994  27.246  43.900  13.900
62586W        W28995  44.259  21.201  12.584
62587W        W28996  19.641  32.434  12.408
62588W        W28997   2.353  30.513  10.841
62589W        W28998  11.815  19.408  14.438
62590W        W28999   0.490  25.697  12.519
62591W        W29000  17.654  16.966   0.342
62592W        W29001  24.983  13.232   3.215
62593W        W29002  26.418  14.463  13.155
62594W        W29003  28.577  39.515  12.649
62595W        W29004  23.773  27.201  13.890
62596W        W29005  29.166  17.932   1.630
62597W        W29006  36.297   2.692   1.512
62598W        W29007  12.559  15.152   0.301
62599W        W29008  30.352  14.335  14.881
62600W        W29009  20.642  34.699   2.636
62601W        W29010  15.729  26.520   1.850
62602W        W29011  15.178   4.488  10.497
62603W        W29012   3.653  41.247  10.334
62604W        W29013  18.257   8.726  12.610
62605W        W29014  30.586   7.784  11.390
62606W        W29015  17.798  31.730   3.130
62607W        W29016  16.730  30.992   0.769
62608W        W29017  23.594   9.290  13.549
62609W        W29018  30.275  44.224  12.585
62610W        W29019   1.379  21.319   4.526
62611W        W29020   2.706  21.639   1.093
62612W        W29021  20.438  39.580  14.331
62613W        W29022  27.853  42.836   1.419
62614W        W29023  37.422   8.690  10.437
62615W        W29024  23.799  37.573  13.310
62616W        W29025  40.327  26.453   1.139
62617W        W29026   0.298  26.208   3.276
62618W        W29027  35.848  29.206  14.976
62619W        W29028  12.344  43.863  12.600
62620W        W29029  44.449  22.154  14.034
62621W        W29030  37.497  36.806   2.401
62622W        W29031  35.549  19.619   3.280
62623W        W29032  31.994  40.735  14.839
62624W        W29033  20.955  39.936   1.784
62625W        W29034  10.482  31.877   4.626
62626W        W29035  27.012  10.501  10.294
62627W        W29036  37.057  27.982   0.306
62628W        W29037  43.357  15.808  11.316
62629W        W29038  42.966  16.503   0.769
62630W        W29039  24.232  41.381   4.577
62631W        W29040  24.145  28.965   3.347
62632W        W29041  10.247  14.641  12.421
62633W        W29042  26.656   0.537  13.561
62634W        W29043  19.263  44.389  11.125
62635W        W29044  26.528   2.248  13.877
62636W        W29045  42.778   8.416   4.125
62637W        W29046  31.625  12.566   0.638
62638W        W29047  33.158  42.920   3.781
62639W        W29048  26.489  43.914  11.440
62640W        W29049  28.024  39.356   3.348
62641W        W29050   8.843  23.972   0.519
62642W        W29051   6.326   4.431   1.838
62643W        W29052  16.080  36.514  13.900
62644W        W29053  27.233  41.715  13.385
62645W        W29054   5.782  37.443   4.844
62646W        W29055  21.404   0.706  12.101
62647W        W29056  36.094  15.825   0.768
62648W        W29057   0.489  24.125  14.823
62649W        W29058  18.406  38.388   5.824
62650W        W29059  27.432   5.245   4.190
62651W        W29060  28.730   2.274   0.946
62652W        W29061   4.363  24.296  10.747
62653W        W29062  35.848   8.687   4.094
62654W        W29063  34.909   2.422   2.665
62655W        W29064  13.896  28.229   2.935
62656W        W29065   7.906  18.485  12.204
62657W        W29066  14.861  11.186  11.415
62658W        W29067  36.025  10.406   2.742
62659W        W29068  16.630  44.175   1.344
62660W        W29069  38.176  32.888  11.508
62661W        W29070  40.429  34.559  13.549
62662W        W29071  38.377  25.206  13.928
62663W        W29072  38.705  41.411  13.529
62664W        W29073  27.329  35.484   3.576
62665W        W29074  21.478   8.609  13.275
62666W        W29075  13.102  15.677  10.880
62667W        W29076  24.027  20.309  12.460
62668W        W29077  13.270  24.466   1.478
62669W        W29078  26.579  35.967   2.676
62670W        W29079  33.874  30.201   3.863
62671W        W29080  38.570  39.916   4.164
62672W        W29081  24.976  37.305   0.851
62673W        W29082   4.102  36.394  12.843
62674W        W29083   7.373  32.700   0.497
62675W        W29084  20.733  44.928   2.280
62676W        W29085  26.499  19.522  14.956
62677W        W29086   9.425  11.221  14.928
62678W        W29087   4.733   7.302  14.446
62679W        W29088  38.934  20.588   2.666
62680W        W29089  34.371  28.181   2.411
62681W        W29090  42.845   0.865  14.280
62682W        W29091  39.088  10.164   1.358
62683W        W29092  38.520  21.474  12.934
62684W        W29093  38.574   2.942  10.536
62685W        W29094  42.074   5.909  13.443
62686W        W29095  31.877   8.659  12.482
62687W        W29096  34.030  32.465  14.563
62688W        W29097  12.974  34.663   3.182
62689W        W29098  13.368  26.114  12.509
62690W        W29099  17.529  21.254   3.766
62691W        W29100  25.252  35.730  13.018
62692W        W29101  10.974  39.500   1.031
62693W        W29102  17.527  12.662   1.071
62694W        W29103  20.232  16.345   1.145
62695W        W29104  40.977  34.812   4.737
62696W        W29105  31.390  41.368  13.984
62697W        W29106  32.153  10.264   0.820
62698W        W29107  20.976  29.655   3.149
62699W        W29108  36.118   4.336  11.554
62700W        W29109  22.456   9.694  11.600
62701W        W29110  35.045   8.916   2.809
62702W        W29111   8.210   4.114  13.746
62703W        W29112  22.282   4.941   1.032
62704W        W29113   5.220  35.146   1.675
62705W        W29114  19.632  13.058   2.218
62706W        W29115  44.375   5.296  13.497
62707W        W29116  13.701   1.612  10.606
62708W        W29117  26.236   2.796  14.576
62709W        W29118  33.904  32.524   4.134
62710W        W29119  30.204  35.086  14.916
62711W        W29120   6.740  22.277   1.328
62712W        W29121   4.520  32.072  11.523
62713W        W29122  36.068  37.869  11.018
62714W        W29123  11.630  28.663   1.165
62715W        W29124  31.173  38.880   4.948
62716W        W29125  43.542  22.228  11.010
62717W        W29126  32.413   3.887  14.323
62718W        W29127  35.120  26.768   5.170
62719W        W29128   8.873  17.390  12.044
62720W        W29129  42.448  31.426   2.551
62721W        W29130   8.250  11.508  11.563
62722W        W29131  30.226  20.524  12.127
62723W        W29132   4.602   4.901  11.557
62724W        W29133   2.412  37.181   2.393
62725W        W29134  25.367   0.017   2.655
62726W        W29135   5.286   3.385  11.989
62727W        W29136   4.969   9.661   0.980
62728W        W29137  36.104  14.909   4.132
62729W        W29138  13.365  41.073   3.632
62730W        W29139  30.167  11.911  13.476
62731W        W29140  36.417  44.450   0.322
62732W        W29141  17.795   1.112   3.183
62733W        W29142  18.231  36.973  12.608
62734W        W29143  10.148  25.249   3.908
62735W        W29144  20.976  22.991   2.745
62736W        W29145  16.544  14.969   0.869
62737W        W29146  23.586  36.862   4.097
62738W        W29147  12.718  26.624  11.940
62739W        W29148   5.855  34.013  11.278
62740W        W29149  44.776   3.504  13.434
62741W        W29150   7.894  12.558   2.239
62742W        W29151   8.408   1.573  10.731
62743W        W29152  26.460  17.688   4.269
62744W        W29153  36.872   8.825  11.253
62745W        W29154   9.350  44.292  14.278
62746W        W29155  10.753   6.007  11.897
62747W        W29156  30.159  30.674  14.932
62748W        W29157   9.753  28.451   1.025
62749W        W29158   3.415  14.558  12.724
62750W        W29159   2.602   3.172   1.133
62751W        W29160  22.208  14.884  12.597
62752W        W29161  44.821  15.155   1.007
62753W        W29162  38.432  20.926   4.214
62754W        W29163   6.339   7.191   1.158
62755W        W29164  42.995  42.863  13.735
62756W        W29165  28.515  12.798   4.945
62757W        W29166  16.277   3.242  11.530
62758W        W29167  28.383   2.469  14.989
62759W        W29168   3.928  35.186  11.173
62760W        W29169  39.958   1.137   2.173
62761W        W29170   2.709  34.897   1.721
62762W        W29171  13.715  42.913   1.371
62763W        W29172   9.748  31.184   1.737
62764W        W29173  13.908  44.807   3.841
62765W        W29174   3.301  42.872   0.842
62766W        W29175   8.337  44.530   1.316
62767W        W29176  24.648  25.987  13.190
62768W        W29177   2.470  18.374  11.697
62769W        W29178  12.202  34.011  10.750
62770W        W29179  26.692  25.905   5.010
62771W        W29180  18.092  25.112   0.209
62772W        W29181  31.595  24.934   0.913
62773W        W29182  34.458  25.536   4.318
62774W        W29183  18.099  44.968  12.389
62775W        W29184  24.704  40.572  11.960
62776W        W29185  16.034  10.468  12.417
62777W        W29186  40.513  26.585   0.635
62778W        W29187  24.823  28.089  13.668
62779W        W29188  34.933  24.210   3.800
62780W        W29189   6.119   9.006   1.443
62781W        W29190  15.924  19.103   4.308
62782W        W29191  27.179  32.467   0.955
62783W        W29192  19.062  23.248   4.751
62784W        W29193  14.381  27.488   1.309
62785W        W29194  38.843  22.657  10.657
62786W        W29195  26.995   2.167   4.597
62787W        W29196  10.784  12.422  13.016
62788W        W29197   2.331   4.857  11.068
62789W        W29198   3.512  29.514  14.429
62790W        W29199  13.627  11.391   4.123
62791W        W29200  39.943   7.888  12.509
62792W        W29201  14.392   1.923   2.822
62793W        W29202  20.606  44.558  11.620
62794W        W29203  12.782  23.381  12.630
62795W        W29204   1.749  36.007   0.792
62796W        W29205  31.101  38.816   0.283
62797W        W29206  21.610   3.947  12.612
62798W        W29207  42.125  27.440  14.867
62799W        W29208  40.373   0.674   2.840
62800W        W29209  40.505  25.163  12.167
62801W        W29210  39.430  11.681   2.115
62802W        W29211  13.856  32.545  14.979
62803W        W29212  39.164  16.488  13.434
62804W        W29213  22.733   2.160  12.027
62805W        W29214  21.991   8.893   3.759
62806W        W29215  30.548   2.039   4.092
62807W        W29216  36.963  12.397   0.024
62808W        W29217  33.144  12.635  11.599
62809W        W29218  31.053  11.863   2.565
62810W        W29219  39.775  10.852   4.257
62811W        W29220  41.908  35.856   1.342
62812W        W29221  30.549  33.880   3.733
62813W        W29222  18.319   9.710  14.349
62814W        W29223   8.303  10.451  11.945
62815W        W29224   8.918   9.662  10.971
62816W        W29225   1.559  30.540  14.369
62817W        W29226  25.209   2.353  13.107
62818W        W29227  26.407   1.895   2.755
62819W        W29228  16.147   1.711  14.389
62820W        W29229  32.882  40.949  14.880
62821W        W29230  24.213   3.299   0.715
62822W        W29231   3.321  36.219   0.248
62823W        W29232  20.560   1.272   1.770
62824W        W29233  37.289  24.413  11.334
62825W        W29234  15.641  18.270   5.580
62826W        W29235   4.880  10.708  10.797
62827W        W29236   4.715  25.140   0.939
62828W        W29237   3.809  11.170  12.836
62829W        W29238  41.421  26.810   2.597
62830W        W29239   2.357  27.570  12.506
62831W        W29240   1.862   5.304  10.805
62832W        W29241   8.842  42.317   3.991
62833W        W29242   9.863  15.188  13.944
62834W        W29243   5.947   7.136   3.114
62835W        W29244  36.856  12.728   1.214
62836W        W29245  39.227  24.762   1.561
62837W        W29246  35.042  16.296  13.484
62838W        W29247  31.086  36.040   2.233
62839W        W29248  17.495   6.782  14.334
62840W        W29249  16.278  20.836  11.511
62841W        W29250  18.074   3.916  11.555
62842W        W29251  10.315   9.368   1.758
62843W        W29252   1.547   8.418  11.675
62844W        W29253  19.550  28.611  13.555
62845W        W29254   7.943  17.517   4.276
62846W        W29255  19.561  36.686  13.132
62847W        W29256  26.055   7.894   2.813
62848W        W29257  19.175  14.576  12.757
62849W        W29258  13.202   2.411   2.853
62850W        W29259  40.537  34.039  12.494
62851W        W29260  39.490  44.299  11.638
62852W        W29261  23.503  10.828  10.718
62853W        W29262   2.593   1.201  11.320
62854W        W29263  26.734  22.528   0.224
62855W        W29264  23.470  32.078  10.748
62856W        W29265  43.843  20.317   0.528
62857W        W29266  20.977   7.162   3.690
62858W        W29267  36.622  21.520   3.169
62859W        W29268  20.931  38.921  11.458
62860W        W29269  21.559   8.487   2.615
62861W        W29270  13.328  44.950  11.997
62862W        W29271  38.080  32.978   0.223
62863W        W29272  30.881  16.760   0.807
62864W        W29273  12.249  34.519  11.693
62865W        W29274  29.619   5.494   3.587
62866W        W29275  12.392  35.178  12.443
62867W        W29276  28.285  13.424  11.933
62868W        W29277  15.073  10.766   4.530
62869W        W29278  13.716  43.732  14.478
62870W        W29279  14.357  24.106   1.630
62871W        W29280  28.174  28.696  11.574
62872W        W29281   2.547  43.118  13.972
62873W        W29282  32.398  32.986  13.529
62874W        W29283   8.596   5.188   0.428
62875W        W29284  18.655  34.831  12.022
62876W        W29285  17.420  25.128  10.230
62877W        W29286  21.800  15.974  14.463
62878W        W29287  34.142   5.330  12.590
62879W        W29288   3.490   6.415   1.702
62880W        W29289  11.592  12.156  12.543
62881W        W29290  26.038  23.582   1.729
62882W        W29291  19.834  40.532   1.827
62883W        W29292   4.227   1.078   3.150
62884W        W29293   4.745   4.890   3.244
62885W        W29294  30.929  19.848   2.729
62886W        W29295  18.244  44.551   1.377
62887W        W29296  37.417  34.119  14.894
62888W        W29297  42.318   1.337  12.984
62889W        W29298  18.531  32.659  11.199
62890W        W29299   9.488  22.826  11.227
62891W        W29300   8.096  38.256  12.957
62892W        W29301  41.302  30.581  13.412
62893W        W29302  29.640  21.706  10.679
62894W        W29303  18.061  16.843  14.444
62895W        W29304   1.237  38.935  14.961
62896W        W29305  32.122   8.012  14.798
62897W        W29306  11.103  28.630   3.451
62898W        W29307  14.081   7.517   3.979
62899W        W29308  43.397   8.313  11.080
62900W        W29309   7.760  35.478   2.198
62901W        W29310  13.873  13.177  14.544
62902W        W29311  39.151  23.335   3.720
62903W        W29312  18.232  41.569  12.735
62904W        W29313  22.065   8.351  12.706
62905W        W29314   8.905  44.635   1.676
62906W        W29315   0.979  17.213  13.775
62907W        W29316  40.425  29.403   4.066
62908W        W29317  10.273  20.590  10.998
62909W        W29318  29.604  32.949  13.833
62910W        W29319  36.890  35.067  12.557
62911W        W29320  24.233  10.479   3.189
62912W        W29321   7.150   4.423  14.963
62913W        W29322  12.438  21.206  11.540
62914W        W29323   5.441  20.014   4.235
62915W        W29324  16.040  31.504   0.985
62916W        W29325  24.974  37.320   1.796
62917W        W29326  42.372  27.084  11.690
62918W        W29327  29.028  16.571   3.965
62919W        W29328  12.337   5.540   4.133
62920W        W29329  26.447   5.554   5.022
62921W        W29330  36.061   9.270   3.061
62922W        W29331  14.283  42.904   0.300
62923W        W29332  34.553  22.935  10.609
62924W        W29333  29.252  40.784  11.748
62925W        W29334   3.295  43.905   4.287
62926W        W29335  33.971  17.193   4.330
62927W        W29336  34.827  20.498  12.971
62928W        W29337   1.262  11.660  12.434
62929W        W29338  27.958  30.550   3.095
62930W        W29339   0.430  38.591  12.868
62931W        W29340   2.335  13.736   3.121
62932W        W29341  33.928  29.414  14.276
62933W        W29342   0.749  33.096  12.965
62934W        W29343   8.606  32.614   1.893
62935W        W29344  41.533  16.544   0.353
62936W        W29345  36.112  19.337  14.766
62937W        W29346   7.979   0.221   3.794
62938W        W29347  12.253  20.703  10.705
62939W        W29348   0.283  40.286   3.321
62940W        W29349  28.473  20.582  12.606
62941W        W29350   0.105  17.076   9.995
62942W        W29351  15.119  40.753   3.376
62943W        W29352  17.804  37.129   5.100
62944W        W29353   4.926  10.515  12.213
62945W        W29354   9.420  32.034   3.206
62946W        W29355  44.374   1.241   4.833
62947W        W29356  15.728  21.918  14.944
62948W        W29357   4.705  12.625   2.663
62949W        W29358   7.325   6.750  13.539
62950W        W29359  10.871  43.239  12.571
62951W        W29360  19.801  40.276  12.477
62952W        W29361   4.831  29.597  10.909
62953W        W29362   9.446  20.616   4.965
62954W        W29363  19.966  25.145  12.985
62955W        W29364  17.690  26.716   0.932
62956W        W29365  44.292  25.228   0.663
62957W        W29366  22.265  28.617   2.140
62958W        W29367  15.624   2.146  13.484
62959W        W29368  39.157   9.560  13.291
62960W        W29369  33.000  41.450   2.229
62961W        W29370  36.060  36.227  13.445
62962W        W29371  13.584  33.040   3.123
62963W        W29372  10.165  44.769   0.779
62964W        W29373  20.287   8.411   0.769
62965W        W29374  32.600  40.229   4.016
62966W        W29375  28.071  16.336  10.435
62967W        W29376  37.452  37.506   1.254
62968W        W29377  44.759  21.541   0.827
62969W        W29378  16.737  38.842  12.778
62970W        W29379  38.957  10.253   0.817
62971W        W29380  12.327  29.467  13.749
62972W        W29381  35.429   2.288   2.664
62973W        W29382  10.830  10.589  12.371
62974W        W29383  36.017   3.818  13.804
62975W        W29384  25.051  26.359  13.451
62976W        W29385  25.632  43.908   2.462
62977W        W29386  17.852  21.555   5.031
62978W        W29387  13.812  34.378   1.353
62979W        W29388   3.504  19.229  11.466
62980W        W29389   6.881   0.467  11.886
62981W        W29390  43.244  39.590  12.180
62982W        W29391  29.125  20.119   0.263
62983W        W29392  24.917  34.112  14.443
62984W        W29393  20.260  43.473   0.568
62985W        W29394  28.682  17.080   1.418
62986W        W29395  33.885  10.640   1.690
62987W        W29396  33.550  26.588   1.396
62988W        W29397  37.867  34.081   0.816
62989W        W29398  17.580  34.115   0.431
62990W        W29399  39.094  41.104   3.653
62991W        W29400  13.580  11.730   1.664
62992W        W29401  36.341  18.360   0.664
62993W        W29402  35.125  42.041   4.132
62994W        W29403  10.665  17.008  10.748
62995W        W29404   6.785  32.096  11.039
62996W        W29405  33.538  22.626   2.716
62997W        W29406  39.491  38.032  11.527
62998W        W29407  11.950  15.317  11.881
62999W        W29408  31.474   9.374  11.726
63000W        W29409  23.910   7.074  13.543
63001W        W29410  34.059  16.662   0.987
63002W        W29411  28.942   4.974   2.334
63003W        W29412  35.602  20.733   3.162
63004W        W29413  30.880  39.282   3.740
63005W        W29414  19.150  42.630  13.865
63006W        W29415  31.599  12.394   3.242
63007W        W29416  36.018  13.007  13.756
63008W        W29417  27.471  10.763  10.261
63009W        W29418  11.565  33.939   2.992
63010W        W29419  14.594   3.059  12.939
63011W        W29420  41.508  35.143  13.974
63012W        W29421   1.713  27.919  14.454
63013W        W29422   8.265  10.665   4.484
63014W        W29423  27.349   6.436   4.989
63015W        W29424  29.809  39.946   3.449
63016W        W29425   9.322   9.495   4.654
63017W        W29426  10.654  21.961   1.739
63018W        W29427  10.782  11.930   0.210
63019W        W29428  31.298  43.708   4.615
63020W        W29429  28.125  38.601  14.760
63021W        W29430  41.527  29.453  10.569
63022W        W29431   6.729   3.752   2.367
63023W        W29432  25.601   5.809  13.993
63024W        W29433  18.100  23.872  14.230
63025W        W29434  36.854   9.172   4.162
63026W        W29435  14.592   6.815  13.118
63027W        W29436  40.335  44.760   3.840
63028W        W29437  23.036  43.300   3.130
63029W        W29438   2.073  32.839  11.129
63030W        W29439  16.253  29.962  11.157
63031W        W29440   9.411  16.671   2.011
63032W        W29441   1.735  21.013  12.905
63033W        W29442  17.298  39.000  10.820
63034W        W29443  40.814  36.694   0.181
63035W        W29444  41.962  27.616   2.190
63036W        W29445  22.288  44.707   2.758
63037W        W29446  25.110  39.996  14.915
63038W        W29447  20.151  40.161  11.087
63039W        W29448  15.860  16.335  13.128
63040W        W29449   6.403  22.183  12.632
63041W        W29450   8.462  24.996   9.739
63042W        W29451   9.551  36.038   1.243
63043W        W29452  21.672  33.659   2.311
63044W        W29453  44.921  13.157  13.081
63045W        W29454  17.463  22.711  10.274
63046W        W29455  15.226   2.443  14.406
63047W        W29456  21.251  30.468   1.257
63048W        W29457  27.514  17.730   4.130
63049W        W29458  19.525  12.148   3.281
63050W        W29459   2.220  41.067  12.041
63051W        W29460  43.881  36.878  13.375
63052W        W29461   4.140  42.260   4.165
63053W        W29462  24.142  27.221   3.795
63054W        W29463  32.064  15.986  12.513
63055W        W29464  11.376  15.046   0.273
63056W        W29465  27.929   8.773  13.747
63057W        W29466  24.558  19.726   1.825
63058W        W29467  34.520  17.330  13.042
63059W        W29468  26.322  19.906  13.021
63060W        W29469  35.624  17.163  11.692
63061W        W29470  29.589  30.486  12.062
63062W        W29471  21.492  26.470   2.295
63063W        W29472  28.219  40.109   2.671
63064W        W29473  31.006  42.462   4.401
63065W        W29474  20.728  18.188   0.387
63066W        W29475  20.180  30.505   3.127
63067W        W29476   1.000  14.913   0.208
63068W        W29477  40.167  22.217   4.557
63069W        W29478   3.374  31.058  11.995
63070W        W29479  20.117  15.896   0.906
63071W        W29480  30.213  38.737   0.304
63072W        W29481  21.699  43.933   0.961
63073W        W29482   2.517  19.270  11.086
63074W        W29483  22.294  32.521  12.877
63075W        W29484  32.054  32.616  13.604
63076W        W29485  11.469   9.016  10.934
63077W        W29486  24.933  12.948   4.865
63078W        W29487   5.695  44.106   2.764
63079W        W29488   2.243   9.807   3.740
63080W        W29489  14.330  42.947   4.024
63081W        W29490   6.754   4.633   4.997
63082W        W29491  35.827  36.656   1.754
63083W        W29492  24.743  20.053  12.515
63084W        W29493  44.924   1.267   1.424
63085W        W29494   3.804   2.772   3.565
63086W        W29495  44.720  12.734   0.895
63087W        W29496  24.191  25.491  12.570
63088W        W29497  39.608  24.283   0.279
63089W        W29498  35.929   5.316  14.507
63090W        W29499  39.006  19.805   3.714
63091W        W29500   1.341  21.754  10.386
63092W        W29501  41.880  30.666   0.443
63093W        W29502  28.673  44.046  14.407
63094W        W29503  33.104   4.836   0.935
63095W        W29504  37.476  32.869  10.592
63096W        W29505  30.266  17.268  11.221
63097W        W29506  35.964  33.525  10.817
63098W        W29507  12.309  26.660   1.254
63099W        W29508  26.460   5.184  11.501
63100W        W29509  16.085  28.506   1.398
63101W        W29510  16.148   4.653   2.343
63102W        W29511  36.532   7.189  10.987
63103W        W29512  17.892  13.374   3.326
63104W        W29513  26.346  40.445  10.960
63105W        W29514  37.286   9.076  12.024
63106W        W29515  41.496  14.517   3.574
63107W        W29516  21.917   7.570   3.453
63108W        W29517  41.037   6.760  10.697
63109W        W29518  31.867  28.966   3.447
63110W        W29519  33.162   6.912  14.030
63111W        W29520  34.996   5.408   1.264
63112W        W29521  42.709  30.028  14.298
63113W        W29522   4.724  38.327   4.800
63114W        W29523   9.561  26.511   1.359
63115W        W29524  10.105  37.417  13.355
63116W        W29525  43.980   0.818   4.689
63117W        W29526  10.376  11.300  14.766
63118W        W29527  16.146   4.965  12.941
63119W        W29528  35.800  25.721   1.395
63120W        W29529   1.932   6.772   4.393
63121W        W29530  23.770  12.342   1.814
63122W        W29531  15.655   2.842   3.754
63123W        W29532  11.615  11.450  10.672
63124W        W29533  13.814  20.193  11.132
63125W        W29534   3.795  11.323  13.888
63126W        W29535  25.277  36.439   1.939
63127W        W29536  16.348   4.209   2.111
63128W        W29537  34.949  31.458   0.459
63129W        W29538  10.728  18.607   1.383
63130W        W29539  42.080  29.922   4.158
63131W        W29540  27.582  20.115  10.544
63132W        W29541  27.552  25.055   1.166
63133W        W29542  36.663  33.813  11.915
63134W        W29543   5.799   3.477  14.469
63135W        W29544  16.526   9.881   2.267
63136W        W29545  11.554  32.879  12.588
63137W        W29546  14.707  10.858  13.409
63138W        W29547  38.228  26.635  13.774
63139W        W29548  23.071  26.728   2.160
63140W        W29549   6.664  19.854   2.960
63141W        W29550  13.837  33.226  10.557
63142W        W29551  13.208   4.360   4.526
63143W        W29552  14.939   1.739  14.853
63144W        W29553  32.112   6.978  11.483
63145W        W29554  15.092  13.419  11.019
63146W        W29555  21.821  19.600  12.565
63147W        W29556   3.043  23.531   0.117
63148W        W29557  10.967  33.954  11.577
63149W        W29558   2.479  14.042   0.508
63150W        W29559  24.524  37.523  10.767
63151W        W29560  17.658  41.273  14.853
63152W        W29561   5.956   1.846   4.611
63153W        W29562  35.543  33.336  14.461
63154W        W29563  35.545   5.886  12.883
63155W        W29564  38.547  25.218   1.982
63156W        W29565  16.658   3.253   1.850
63157W        W29566  28.235  20.212   4.911
63158W        W29567   1.930   3.709  11.595
63159W        W29568  34.740   6.184  14.395
63160W        W29569  37.037  39.302  14.475
63161W        W29570  44.408  15.589  13.912
63162W        W29571  42.716  42.856   2.821
63163W        W29572  42.850   2.235   3.373
63164W        W29573  29.085   8.687  14.471
63165W        W29574   6.847  37.538   1.515
63166W        W29575   0.793  10.344   2.294
63167W        W29576  25.621  31.283   2.381
63168W        W29577   9.687  25.063   3.640
63169W        W29578  23.641  12.863   3.660
63170W        W29579  14.570  43.451  11.987
63171W        W29580  20.038  31.833  12.096
63172W        W29581  37.909  21.086   3.330
63173W        W29582   9.965   7.512  11.459
63174W        W29583  15.287  29.779  12.487
63175W        W29584  20.425   7.911   0.819
63176W        W29585  17.083  37.830   3.882
63177W        W29586   4.752   9.578  11.973
63178W        W29587  10.853  32.559   0.849
63179W        W29588  31.601  27.507   4.308
63180W        W29589  36.905  37.070  13.525
63181W        W29590   2.877  38.761  10.695
63182W        W29591   0.455  32.038   4.149
63183W        W29592   8.445  29.632  10.613
63184W        W29593  14.322  39.863   1.225
63185W        W29594   5.274  31.448   0.392
63186W        W29595   9.741  25.538  14.201
63187W        W29596  42.407  38.403   3.822
63188W        W29597  17.792  42.531  11.169
63189W        W29598  16.578   8.754   4.979
63190W        W29599  35.075   1.396  12.708
63191W        W29600  24.001  10.397   0.686
63192W        W29601  43.219  25.139  11.751
63193W        W29602   6.896  44.458  10.391
63194W        W29603   9.049  30.554   5.348
63195W        W29604   6.202  41.044  14.914
63196W        W29605  29.732  13.807   3.685
63197W        W29606  26.094  27.209   0.928
63198W        W29607   5.415   5.387  14.324
63199W        W29608  31.610  41.314   1.967
63200W        W29609   7.144   3.373  14.339
63201W        W29610  30.117  22.223   3.148
63202W        W29611  42.879  33.800  12.353
63203W        W29612  41.825   1.910   4.379
63204W        W29613  17.361  13.206  11.682
63205W        W29614  29.423  39.598  10.724
63206W        W29615   3.166  35.117  13.599
63207W        W29616  35.335  17.529  13.581
63208W        W29617  40.337  11.852  10.281
63209W        W29618  19.128   8.975  14.391
63210W        W29619   4.809  27.576   3.618
63211W        W29620  28.572  35.896   0.276
63212W        W29621  39.064   0.409   2.506
63213W        W29622  11.720  17.835  14.458
63214W        W29623  36.425  20.390  12.896
63215W        W29624  30.685   5.690   4.149
63216W        W29625  44.921  16.073  12.096
63217W        W29626  40.778  27.399   0.925
63218W        W29627   4.300  25.583  11.246
63219W        W29628  40.602  35.763   1.319
63220W        W29629  44.779  39.397   1.276
63221W        W29630  11.566   1.066  13.444
63222W        W29631  10.088  34.706  14.865
63223W        W29632   4.825  22.750   1.828
63224W        W29633   0.796  14.746  12.132
63225W        W29634   4.143  37.405   3.071
63226W        W29635   6.297  42.340   1.202
63227W        W29636  33.074  30.156   2.685
63228W        W29637  22.216   8.836  13.462
63229W        W29638  34.174  24.289   4.708
63230W        W29639  18.996   3.969   1.914
63231W        W29640  43.917   1.041   3.671
63232W        W29641   2.270   4.148  13.359
63233W        W29642   8.447  34.041   1.411
63234W        W29643  18.149  31.993  12.176
63235W        W29644  42.897  38.437   1.938
63236W        W29645  39.483   8.889  11.370
63237W        W29646  18.807  12.789   4.493
63238W        W29647  11.759  40.389   2.367
63239W        W29648   9.746  28.652   0.015
63240W        W29649  27.938  44.396  12.527
63241W        W29650  18.458  31.598   1.385
63242W        W29651  39.357  17.709  13.350
63243W        W29652  35.658  22.176  10.743
63244W        W29653  14.554   8.778   0.539
63245W        W29654   8.200  36.535   4.822
63246W        W29655  20.507  37.029   4.132
63247W        W29656  10.631   3.395  13.796
63248W        W29657   1.769  39.791  12.014
63249W        W29658  25.468  39.927  10.717
63250W        W29659  33.970  30.673   4.051
63251W        W29660  18.570  43.703   2.178
63252W        W29661  11.713  37.804  10.424
63253W        W29662  24.121  17.638   2.948
63254W        W29663  37.372  23.282   1.421
63255W        W29664   5.310   1.937  12.347
63256W        W29665  10.588  36.094  14.958
63257W        W29666  27.442  19.573  14.082
63258W        W29667  32.171  36.431  13.454
63259W        W29668   6.327  38.573  13.338
63260W        W29669  12.824  36.456   2.552
63261W        W29670  42.240  24.085  12.588
63262W        W29671  17.351  16.115   4.030
63263W        W29672  11.896   8.376   0.975
63264W        W29673  16.532  18.248   2.258
63265W        W29674  11.690  26.212   0.705
63266W        W29675  11.725  36.560  10.103
63267W        W29676  40.970  18.639  10.245
63268W        W29677  29.879  41.941   0.375
63269W        W29678  32.391  26.641  12.034
63270W        W29679  42.308  40.650   4.133
63271W        W29680  43.501  41.936   1.825
63272W        W29681  38.681  18.452   2.150
63273W        W29682   8.136  24.493   2.284
63274W        W29683  13.973  27.018  10.637
63275W        W29684  32.842   0.818   2.434
63276W        W29685  10.343  38.410   3.378
63277W        W29686   5.258   3.709   3.239
63278W        W29687  35.838  33.645  11.721
63279W        W29688  21.763  43.127  13.060
63280W        W29689  27.459   4.919  13.487
63281W        W29690  24.992  34.291   1.021
63282W        W29691  18.650  41.509   4.254
63283W        W29692   3.899  14.207   3.129
63284W        W29693  12.679   5.872   0.946
63285W        W29694  39.332  10.646  13.904
63286W        W29695   6.039  12.076  10.144
63287W        W29696  17.804  12.233   3.771
63288W        W29697  22.983  34.835  11.152
63289W        W29698  11.620  30.543   0.887
63290W        W29699  27.535  36.897   2.739
63291W        W29700  24.155  30.547  11.605
63292W        W29701   7.439  35.610   3.884
63293W        W29702   9.773  31.320   9.970
63294W        W29703  11.803   9.928  10.608
63295W        W29704  27.080   5.348   1.374
63296W        W29705  22.675  23.608   0.283
63297W        W29706  14.183  13.134   2.351
63298W        W29707  37.268  39.386   0.440
63299W        W29708  42.089   7.808  11.847
63300W        W29709   3.319  13.934  14.381
63301W        W29710  33.145   0.385   3.312
63302W        W29711  32.404  14.716   4.599
63303W        W29712  36.361   4.589  11.177
63304W        W29713  19.609  25.909   3.847
63305W        W29714  43.281  35.341   1.558
63306W        W29715  27.007  20.543   1.857
63307W        W29716  18.124  22.069  13.857
63308W        W29717  10.164  20.593   2.852
63309W        W29718  37.082  11.669  11.156
63310W        W29719  19.299  14.395   2.259
63311W        W29720  37.138  28.160  13.833
63312W        W29721  25.147  33.428  12.924
63313W        W29722  43.397  11.256   4.095
63314W        W29723  31.601  15.512   3.417
63315W        W29724  41.327  28.955  14.275
63316W        W29725  36.220   9.195   2.183
63317W        W29726  35.888  29.921   4.528
63318W        W29727  41.104   5.830   0.262
63319W        W29728  13.777  10.335  11.599
63320W        W29729   4.296  36.494  13.855
63321W        W29730  11.647  17.009   1.304
63322W        W29731  42.035  30.592  10.571
63323W        W29732  20.765  25.779  13.804
63324W        W29733  44.840  35.050  11.176
63325W        W29734  30.879   2.915   3.628
63326W        W29735  44.953  10.364  14.752
63327W        W29736  35.067  17.710   4.498
63328W        W29737  17.840   3.453   3.336
63329W        W29738  18.376  41.953   0.865
63330W        W29739  41.493  40.374   1.214
63331W        W29740  31.453  34.207  12.186
63332W        W29741  26.975  20.741  12.375
63333W        W29742  23.527  26.593   2.361
63334W        W29743   9.719  32.316  12.589
63335W        W29744   7.379  19.231   3.806
63336W        W29745  41.444  35.877   2.141
63337W        W29746  27.422  11.044   3.787
63338W        W29747  25.928  40.021   0.370
63339W        W29748  14.066  11.559  13.849
63340W        W29749  34.898   2.520   1.812
63341W        W29750  29.659  33.527   2.241
63342W        W29751  29.407   6.328   0.570
63343W        W29752  21.500  39.102   4.486
63344W        W29753  32.399  14.976  12.473
63345W        W29754   5.092  15.483   2.316
63346W        W29755  33.921  31.136   1.046
63347W        W29756  21.043  34.022  11.161
63348W        W29757  17.676   4.617  14.022
63349W        W29758   7.906  25.982   0.832
63350W        W29759  37.909  22.619   4.585
63351W        W29760  28.637  11.225   0.857
63352W        W29761  20.090  24.493   2.341
63353W        W29762  40.115  34.202  13.906
63354W        W29763  22.478  27.940   4.064
63355W        W29764   6.667  43.723   0.510
63356W        W29765  28.455  15.106  12.575
63357W        W29766  11.906  13.763  13.452
63358W        W29767  21.558  24.502  11.570
63359W        W29768   5.633  33.522   1.949
63360W        W29769  24.207  11.816  14.014
63361W        W29770  15.260  12.832   1.328
63362W        W29771  29.853  44.438  12.352
63363W        W29772  41.159  23.184  12.895
63364W        W29773  26.554  10.911   4.214
63365W        W29774  17.681   9.064   3.923
63366W        W29775  17.016  32.305   1.025
63367W        W29776  12.226   2.462  11.220
63368W        W29777  15.650  42.357  10.894
63369W        W29778  15.800  28.523  10.701
63370W        W29779   5.251  33.848  13.010
63371W        W29780  12.826  38.370   4.046
63372W        W29781   6.180  32.931   1.610
63373W        W29782  40.589  39.682   4.374
63374W        W29783  37.491  24.548  12.799
63375W        W29784  43.758  24.097   4.845
63376W        W29785   9.629   7.655   2.512
63377W        W29786   6.953  15.680  14.175
63378W        W29787  22.944  11.218  14.354
63379W        W29788  35.256  31.073  12.540
63380W        W29789   2.478  25.850   3.282
63381W        W29790  12.401  27.150  12.475
63382W        W29791  14.642  39.239  13.395
63383W        W29792  27.841  36.548   1.011
63384W        W29793  40.039  39.762   3.671
63385W        W29794  15.121  35.805   1.322
63386W        W29795  11.261  26.966   0.852
63387W        W29796  13.149  38.763   2.211
63388W        W29797  20.160  39.421  11.474
63389W        W29798  24.729  36.672  10.659
63390W        W29799  38.966  40.497  12.397
63391W        W29800  38.591  38.250  14.082
63392W        W29801  14.211  17.238   4.082
63393W        W29802  12.296  41.013   1.926
63394W        W29803  14.205   4.839  14.907
63395W        W29804  13.691  21.750  14.279
63396W        W29805  28.241  23.744  12.992
63397W        W29806   1.891  41.762   0.799
63398W        W29807  38.577   8.592  14.647
63399W        W29808   7.118   2.140  13.888
63400W        W29809   7.890  18.844  10.830
63401W        W29810  37.400  38.900  11.956
63402W        W29811  33.450   2.555   3.603
63403W        W29812  22.256  12.700  10.096
63404W        W29813   3.462  34.709   0.460
63405W        W29814  10.814   5.154   1.312
63406W        W29815  42.080   7.452  13.398
63407W        W29816  24.008  28.509  12.029
63408W        W29817   5.372  13.682   1.898
63409W        W29818  24.119   6.631   3.249
63410W        W29819  32.064  21.670   4.095
63411W        W29820  26.501  28.953  12.422
63412W        W29821  44.972   4.791   4.366
63413W        W29822   2.309   1.563  14.248
63414W        W29823  32.660  17.788  12.428
63415W        W29824  23.972  11.189   1.302
63416W        W29825  37.010  26.659   2.274
63417W        W29826  33.795   7.615   0.153
63418W        W29827  17.377  16.615  12.706
63419W        W29828  44.313  32.390  13.150
63420W        W29829  15.914  40.111   1.366
63421W        W29830   3.688  21.280   3.512
63422W        W29831  34.163  32.761  12.267
63423W        W29832  11.768  17.212   2.860
63424W        W29833  27.039   2.270  14.992
63425W        W29834  33.527  43.753  14.946
63426W        W29835  27.758  20.435   2.226
63427W        W29836  27.650   0.852   4.354
63428W        W29837  17.976  24.945   0.733
63429W        W29838  24.452  42.671   1.741
63430W        W29839   2.053  42.910   1.853
63431W        W29840  14.015   1.745   1.889
63432W        W29841   0.376  27.015   2.817
63433W        W29842  36.953   9.199  13.919
63434W        W29843  30.176   4.966   0.524
63435W        W29844  35.883   5.467   0.899
63436W        W29845  38.643  28.733   0.083
63437W        W29846  17.258   6.716  12.344
63438W        W29847  13.206   5.834  14.831
63439W        W29848  34.978  18.240   3.295
63440W        W29849  24.032  30.050   3.692
63441W        W29850  39.986   6.334   0.699
63442W        W29851   7.395  12.286   1.214
63443W        W29852  11.917  42.343   1.281
63444W        W29853  37.440  42.022  12.447
63445W        W29854   2.917  34.378   2.749
63446W        W29855  21.498   2.177  12.948
63447W        W29856  43.826  37.307  13.672
63448W        W29857  44.266  40.396   3.270
63449W        W29858   4.251  28.679   2.283
63450W        W29859   6.269   0.883   2.843
63451W        W29860  34.652  11.351   3.216
63452W        W29861  29.893  35.381   4.501
63453W        W29862  10.165  21.260  12.723
63454W        W29863  32.122   0.361  11.193
63455W        W29864   3.045  18.179  14.890
63456W        W29865   1.793   7.978   2.155
63457W        W29866  17.728   5.732  11.164
63458W        W29867  37.026  19.618   1.357
63459W        W29868  30.431  21.579  14.263
63460W        W29869  34.926   9.798   3.159
63461W        W29870  30.198  29.982   3.433
63462W        W29871  43.422   3.081  11.614
63463W        W29872  29.277   8.252   0.950
63464W        W29873   7.960   0.813  14.655
63465W        W29874  41.184  37.305   1.764
63466W        W29875   3.233  33.873   3.350
63467W        W29876  27.943  19.700   1.173
63468W        W29877  22.459  28.072   3.190
63469W        W29878  43.011  28.957   0.849
63470W        W29879  29.551  37.990   0.771
63471W        W29880   3.896  21.095   4.990
63472W        W29881  16.680  15.222   3.122
63473W        W29882  17.630  17.245   0.804
63474W        W29883  16.152  10.618   3.043
63475W        W29884  35.211   6.097   0.770
63476W        W29885  23.123  31.882   4.897
63477W        W29886   2.423  18.263   4.533
63478W        W29887  11.233  10.694   2.894
63479W        W29888  12.352  12.711   3.155
63480W        W29889  30.411   0.348   1.517
63481W        W29890   8.098   7.718   0.034
63482W        W29891  37.101  12.589  14.522
63483W        W29892  28.531  26.181  11.604
63484W        W29893  20.279  19.711   9.590
63485W        W29894   0.378   8.801   2.747
63486W        W29895   0.281   7.896  12.599
63487W        W29896  28.958  22.761   3.796
63488W        W29897  23.546  42.054   2.334
63489W        W29898   8.736  27.587   0.451
63490W        W29899  26.936  12.607  14.849
63491W        W29900  25.858  19.496   9.796
63492W        W29901   8.175  24.792  12.974
63493W        W29902  36.382  23.313   1.457
63494W        W29903  40.892  40.206   0.850
63495W        W29904  20.582  30.014   4.085
63496W        W29905  31.785  26.098  10.878
63497W        W29906  38.815   9.261   0.839
63498W        W29907   1.565  41.423   0.146
63499W        W29908  22.572  40.792   4.488
63500W        W29909  31.867  37.998  13.028
63501W        W29910  29.961  23.368  11.976
63502W        W29911  31.648  39.863  14.845
63503W        W29912  20.244  40.810   3.165
63504W        W29913  23.027  12.978   0.469
63505W        W29914   3.267  41.687   2.423
63506W        W29915  13.599  22.204  10.320
63507W        W29916  21.149   6.881  10.625
63508W        W29917  22.559  29.217  14.414
63509W        W29918  29.335   4.388   9.803
63510W        W29919   3.912  10.794  11.574
63511W        W29920  41.927  11.352   0.009
63512W        W29921  42.445  21.769  11.951
63513W        W29922  13.178  41.664  11.549
63514W        W29923  41.287  12.596  10.725
63515W        W29924  13.929  34.055  12.998
63516W        W29925   6.740  12.298  11.249
63517W        W29926  39.222   9.509  11.387
63518W        W29927   2.381  23.965  12.524
63519W        W29928  30.588  32.485  13.170
63520W        W29929   6.391  40.408  14.783
63521W        W29930  44.793   9.990  13.038
63522W        W29931   4.055   9.866   4.097
63523W        W29932  27.611   3.310   4.206
63524W        W29933  25.217   6.951   0.332
63525W        W29934  29.738  14.900   1.308
63526W        W29935  32.970   4.879   3.832
63527W        W29936  41.546  18.210  10.799
63528W        W29937  31.185  27.234  11.433
63529W        W29938  19.151  30.650   0.782
63530W        W29939  28.060  24.033   5.013
63531W        W29940  41.739  28.666  12.122
63532W        W29941  15.697  30.558   0.195
63533W        W29942   0.368  10.959   2.774
63534W        W29943  44.861   7.585  11.649
63535W        W29944   9.740  18.053  11.905
63536W        W29945  17.547   9.580   3.850
63537W        W29946  37.919  30.499   3.618
63538W        W29947  44.540  41.309  13.908
63539W        W29948  15.195  13.073  10.636
63540W        W29949   8.881   0.688   0.860
63541W        W29950  10.308  28.024   2.142
63542W        W29951   2.334  41.858   1.937
63543W        W29952  22.644  16.396   0.425
63544W        W29953   7.670  21.026   3.614
63545W        W29954  23.675  38.164   1.781
63546W        W29955   2.222  38.128  10.842
63547W        W29956   4.923  14.103  10.891
63548W        W29957  10.599   3.228   0.913
63549W        W29958   5.290  37.165  13.380
63550W        W29959  11.617  18.519  13.748
63551W        W29960  35.257  19.229   5.265
63552W        W29961  24.813  40.610   0.911
63553W        W29962  34.573   8.087  13.088
63554W        W29963  22.292  38.441  14.963
63555W        W29964  23.707  40.589  14.745
63556W        W29965  17.177   1.498  13.049
63557W        W29966  10.485  27.696  14.464
63558W        W29967  15.574   5.328   0.930
63559W        W29968  24.420  43.502   1.393
63560W        W29969  15.283  26.380  14.578
63561W        W29970   1.213  27.317   2.984
63562W        W29971  13.843  35.442  12.524
63563W        W29972  16.241  41.343   0.185
63564W        W29973  21.798   1.172  10.752
63565W        W29974  24.737   8.908  11.985
63566W        W29975  39.034  29.524   2.719
63567W        W29976   7.931   6.030   3.197
63568W        W29977  44.616   9.454  13.057
63569W        W29978  24.758   1.527   2.535
63570W        W29979  29.820  23.542   2.328
63571W        W29980  13.425  44.773   3.152
63572W        W29981  30.335  14.183  10.545
63573W        W29982   1.710  20.615   3.238
63574W        W29983  21.315  14.373   1.254
63575W        W29984  43.627  33.054   1.222
63576W        W29985  33.437  28.439  12.464
63577W        W29986  25.075  42.486   2.401
63578W        W29987   7.653  33.567  12.430
63579W        W29988  23.092   1.001   1.305
63580W        W29989  41.471  32.029  11.661
63581W        W29990  18.089  30.648  12.585
63582W        W29991   4.130  42.494   1.242
63583W        W29992   9.232   9.134  13.780
63584W        W29993  42.300  17.848   1.860
63585W        W29994  42.876  32.064   4.671
63586W        W29995  26.709  36.501  13.280
63587W        W29996   3.769  33.924   1.878
63588W        W29997  37.197   5.867  14.842
63589W        W29998  20.524  11.392  10.803
63590W        W29999  36.371  24.612   4.342
63591W        W30000  24.963  21.091  14.862
63592W        W30001  44.992  42.631   3.608
63593W        W30002   5.746  19.555  10.750
63594W        W30003  29.619  40.873   1.803
63595W        W30004  16.518  42.397  14.502
63596W        W30005  30.684   0.841   4.058
63597W        W30006  22.510  41.337   0.003
63598W        W30007  28.209  37.854  10.703
63599W        W30008  31.335  44.298   4.454
63600W        W30009  12.548   8.477  10.528
63601W        W30010   4.297  38.009   0.507
63602W        W30011  36.132  42.846   1.572
63603W        W30012   5.691  25.122  14.861
63604W        W30013  36.113   5.950  10.554
63605W        W30014  13.097  44.825  12.907
63606W        W30015  24.230  37.101  14.105
63607W        W30016  28.494   4.308  10.610
63608W        W30017  39.526  19.015  12.850
63609W        W30018  38.044  15.263   4.833
63610W        W30019  12.553  25.691  12.349
63611W        W30020  37.750  38.514   0.737
63612W        W30021   7.305  14.228   3.080
63613W        W30022  30.468  17.928   1.932
63614W        W30023  43.239  30.892   0.340
63615W        W30024  41.329   8.061  12.911
63616W        W30025  21.273   3.983   1.305
63617W        W30026   6.962  34.338   0.781
63618W        W30027  13.853   8.236   2.189
63619W        W30028  27.223  40.927   0.176
63620W        W30029  18.533  42.805   0.349
63621W        W30030   0.031  22.719   2.124
63622W        W30031  32.361  37.643  11.517
63623W        W30032  23.985  11.255   2.811
63624W        W30033   4.657   9.403  14.434
63625W        W30034  44.259   5.242   1.853
63626W        W30035  14.691  44.784  14.463
63627W        W30036  36.568  19.315   1.764
63628W        W30037   5.833  28.933   0.241
63629W        W30038  43.261  24.709   2.827
63630W        W30039  29.443  38.910   0.654
63631W        W30040   3.725   1.004   3.247
63632W        W30041   7.207  43.213  14.138
63633W        W30042  40.036  19.169   4.477
63634W        W30043  27.070   6.210  12.074
63635W        W30044  29.823  15.200  13.312
63636W        W30045  32.473  38.631   3.194
63637W        W30046  21.589  28.611  10.938
63638W        W30047   3.363  18.914   1.749
63639W        W30048   5.161  26.885  14.295
63640W        W30049  38.660  17.963  14.924
63641W        W30050  28.412  19.690  13.020
63642W        W30051  29.282   2.621  12.516
63643W        W30052  14.176  18.449  14.846
63644W        W30053  21.232  41.721  12.100
63645W        W30054  35.498  10.761  13.160
63646W        W30055  35.783  28.558  12.436
63647W        W30056  41.336  43.381   3.272
63648W        W30057   7.712  32.543  12.786
63649W        W30058  15.423   2.805  11.494
63650W        W30059  32.584   2.253  11.177
63651W        W30060  42.899  10.760   1.800
63652W        W30061  40.025  25.316   5.059
63653W        W30062   3.970  30.181   3.259
63654W        W30063  43.900   4.643  12.881
63655W        W30064  17.202  14.617   0.286
63656W        W30065  43.320   6.181  13.058
63657W        W30066  26.093  21.144  12.599
63658W        W30067  19.488  22.988  14.397
63659W        W30068  43.591  26.340   4.812
63660W        W30069  14.016   0.001   4.954
63661W        W30070   8.195  35.522   1.287
63662W        W30071  37.933  30.611   4.584
63663W        W30072   1.318   1.458   1.989
63664W        W30073  18.762  29.036  12.147
63665W        W30074  20.735  24.687   4.609
63666W        W30075  22.180   0.508  11.558
63667W        W30076  18.501  21.466  13.484
63668W        W30077  40.287  35.138   3.624
63669W        W30078  18.659   9.216   4.213
63670W        W30079   7.253  36.429  13.394
63671W        W30080  22.973  30.452   0.382
63672W        W30081  26.535  17.616   0.309
63673W        W30082  18.631  25.378   3.873
63674W        W30083   3.279   0.922  12.577
63675W        W30084  43.775  30.068  12.586
63676W        W30085  19.037   5.898   4.229
63677W        W30086  33.202  42.732   5.044
63678W        W30087  16.111  21.094  14.088
63679W        W30088  28.568  41.374  12.996
63680W        W30089  19.998   6.806  12.299
63681W        W30090  24.210   1.450   2.780
63682W        W30091  14.109  26.532  10.398
63683W        W30092   3.287  32.586  12.605
63684W        W30093  29.400  26.406  13.421
63685W        W30094   3.773  30.620   3.046
63686W        W30095   2.828  24.981  12.028
63687W        W30096  31.393  41.464   3.826
63688W        W30097  14.846  35.374  10.762
63689W        W30098  42.308  28.468  10.698
63690W        W30099  14.264  31.537   3.140
63691W        W30100   5.947  10.726   4.603
63692W        W30101  30.320  35.896  11.708
63693W        W30102   2.510  28.692   3.232
63694W        W30103  10.141  23.689  14.644
63695W        W30104   4.817  30.932   1.827
63696W        W30105   5.210  39.022   1.800
63697W        W30106   7.652  32.386  10.893
63698W        W30107  31.655  40.784  12.075
63699W        W30108  42.743  38.904   4.461
63700W        W30109  13.688   7.133  14.067
63701W        W30110   9.846   4.313   2.554
63702W        W30111   2.971  19.509  11.150
63703W        W30112  23.338  44.666   4.203
63704W        W30113  35.562  33.117  14.969
63705W        W30114  12.285   8.904   0.250
63706W        W30115  26.653  35.753  10.523
63707W        W30116  34.469  36.893   0.270
63708W        W30117  22.169  35.146  14.100
63709W        W30118  24.669  41.989   4.013
63710W        W30119  23.861   5.467  14.089
63711W        W30120  22.281  18.778  14.794
63712W        W30121   5.457  41.108  14.509
63713W        W30122  10.503   1.744   1.313
63714W        W30123  15.946  17.650   4.776
63715W        W30124  40.945  24.998  12.419
63716W        W30125   8.962  19.651   0.850
63717W        W30126  30.416   7.151   2.860
63718W        W30127   1.369  43.094  13.687
63719W        W30128  27.269   0.965   3.681
63720W        W30129  10.880  16.184   0.602
63721W        W30130   6.970  36.648   1.873
63722W        W30131   8.849  29.991   0.009
63723W        W30132  33.473   7.446   3.694
63724W        W30133  37.975  20.989   2.365
63725W        W30134  17.631  12.226   1.365
63726W        W30135  36.602   7.866   3.047
63727W        W30136   4.319  32.791  11.018
63728W        W30137   9.715  42.827  10.510
63729W        W30138  22.053   1.951   4.865
63730W        W30139  18.111  33.364  14.448
63731W        W30140  17.983   5.864  13.432
63732W        W30141  21.423   4.390   2.451
63733W        W30142  33.928   0.346   4.555
63734W        W30143  24.922   8.334   4.051
63735W        W30144   4.240   0.336  14.813
63736W        W30145  42.758  21.659  14.798
63737W        W30146  32.137  36.510  12.427
63738W        W30147  28.613  15.341   0.957
63739W        W30148  33.859  39.229   2.841
63740W        W30149   6.276  10.339   2.775
63741W        W30150  36.315  32.030  14.533
63742W        W30151   3.757  18.294  12.572
63743W        W30152  28.987  22.914   0.368
63744W        W30153  10.169  11.335  14.280
63745W        W30154  26.529  15.170   1.847
63746W        W30155  15.087  33.779   3.637
63747W        W30156  26.621  16.686  14.244
63748W        W30157   7.156  23.803   1.880
63749W        W30158  38.357  38.463  10.468
63750W        W30159  24.474  32.468   4.077
63751W        W30160   2.978  27.413  12.557
63752W        W30161  42.506  13.405   4.181
63753W        W30162  15.590  32.000   4.104
63754W        W30163  34.321   8.460   4.181
63755W        W30164  20.778  13.689   0.264
63756W        W30165  42.706  39.383  11.859
63757W        W30166   9.309  24.829   1.882
63758W        W30167  11.466   2.531  10.788
63759W        W30168  13.411  16.857  10.837
63760W        W30169  16.257  43.929   2.846
63761W        W30170   3.935  32.019  10.673
63762W        W30171  36.603  21.745   4.152
63763W        W30172  19.003  16.794  11.456
63764W        W30173  42.721  21.593   1.751
63765W        W30174  26.101  42.899  12.499
63766W        W30175   3.753  38.094   2.389
63767W        W30176  34.303  32.157  11.000
63768W        W30177  17.322   0.309  11.855
63769W        W30178  42.425   3.997  14.478
63770W        W30179  24.469  30.040  11.500
63771W        W30180  41.327  21.097   0.871
63772W        W30181  32.173  33.283   1.630
63773W        W30182   4.276  39.863   0.395
63774W        W30183  11.648  43.341   1.369
63775W        W30184  23.792  21.175   1.748
63776W        W30185  22.528  38.956   3.917
63777W        W30186  10.266  34.448  14.250
63778W        W30187  34.903  42.771  12.448
63779W        W30188  19.816  43.575  10.929
63780W        W30189   8.292  21.302  13.296
63781W        W30190  41.086  21.474  11.119
63782W        W30191   0.415  39.389   0.341
63783W        W30192  37.576  44.611   4.072
63784W        W30193   8.096   5.323  11.992
63785W        W30194  36.449   6.273  14.137
63786W        W30195  17.162  35.548  14.414
63787W        W30196  26.286  37.435   3.704
63788W        W30197  37.928  17.550  13.924
63789W        W30198  24.093  33.543   3.571
63790W        W30199  22.293   9.280  14.877
63791W        W30200  16.252  24.142   0.495
63792W        W30201  28.557  27.507  14.423
63793W        W30202  22.373   6.292  14.647
63794W        W30203  29.978  10.883   1.297
63795W        W30204   8.373  10.934  10.240
63796W        W30205  22.096  38.559   3.807
63797W        W30206  39.741  34.442  10.698
63798W        W30207  44.400  19.145   2.912
63799W        W30208  23.722  21.155   2.657
63800W        W30209   7.274  35.181   2.031
63801W        W30210   0.827  20.275  12.502
63802W        W30211   2.587  24.549   9.962
63803W        W30212  22.452   7.086   3.627
63804W        W30213  33.440  35.871  10.560
63805W        W30214  24.081  17.897  13.894
63806W        W30215  18.022   8.353  11.013
63807W        W30216  17.561  36.317  14.937
63808W        W30217   4.372  15.227  10.846
63809W        W30218  14.342   1.311   1.795
63810W        W30219  26.197  14.797  13.505
63811W        W30220   1.695  13.562  14.948
63812W        W30221   9.811  26.056   1.183
63813W        W30222  24.619  17.932   0.263
63814W        W30223  12.414   7.936  12.600
63815W        W30224  38.308  13.205  12.400
63816W        W30225  42.369   3.972  10.753
63817W        W30226  43.453   7.149   3.248
63818W        W30227  11.201  13.348  11.878
63819W        W30228  23.083  26.877  14.332
63820W        W30229  16.657  33.901  10.690
63821W        W30230  18.395  29.392  13.426
63822W        W30231  20.078   6.870  13.317
63823W        W30232   5.330  30.227   1.402
63824W        W30233  35.533   7.639  11.093
63825W        W30234  27.002  43.747   1.808
63826W        W30235  12.360  33.522  11.609
63827W        W30236  25.453  14.197   4.122
63828W        W30237  25.644   9.043   3.088
63829W        W30238  27.854  37.841  14.338
63830W        W30239  29.449  32.041   3.047
63831W        W30240  29.603  16.453   3.355
63832W        W30241  39.308   6.717   3.790
63833W        W30242  11.133  10.420   4.345
63834W        W30243  24.777  30.935  11.885
63835W        W30244  32.698   5.319   2.118
63836W        W30245  25.701  37.486   2.648
63837W        W30246  43.306  37.007   3.600
63838W        W30247  26.275   8.094   3.706
63839W        W30248  29.905  26.286   2.289
63840W        W30249  42.890  14.220   0.799
63841W        W30250  34.567  40.766  14.464
63842W        W30251  20.532   7.253  11.632
63843W        W30252  40.904  28.451  11.145
63844W        W30253  29.524  44.037  13.458
63845W        W30254  42.287  31.670   3.673
63846W        W30255  28.906  19.141  12.288
63847W        W30256  14.788  21.944  12.990
63848W        W30257  10.861  35.205   4.573
63849W        W30258  40.995   4.088  10.490
63850W        W30259  30.428  38.736  11.176
63851W        W30260  22.415  30.317  11.250
63852W        W30261  26.715  37.504  11.143
63853W        W30262  42.370  19.301  13.458
63854W        W30263  24.672   7.408  11.435
63855W        W30264  30.571  40.883  11.186
63856W        W30265   3.469  37.946   1.954
63857W        W30266  36.936  34.084   3.595
63858W        W30267   8.415   7.308   3.699
63859W        W30268   8.463  25.680   3.258
63860W        W30269   7.385   0.500   3.401
63861W        W30270  25.050  18.243   2.782
63862W        W30271  33.453   0.350   3.736
63863W        W30272  13.903  10.089   4.907
63864W        W30273  31.400   8.194  13.212
63865W        W30274   5.618  21.006  12.975
63866W        W30275  14.237  33.292  11.480
63867W        W30276  34.160  33.068   1.418
63868W        W30277  33.938  19.878  12.348
63869W        W30278  17.522  16.482   1.330
63870W        W30279   3.928  11.269  11.334
63871W        W30280  22.488  25.747   4.591
63872W        W30281  11.939  26.924  12.369
63873W        W30282  27.924  29.166  11.861
63874W        W30283  43.768  41.684   1.301
63875W        W30284  19.355  10.771   2.441
63876W        W30285  26.732  18.223  13.145
63877W        W30286   8.761  44.937  10.360
63878W        W30287  29.806  40.524   0.292
63879W        W30288  24.350  25.988   9.853
63880W        W30289   7.954  43.420  13.501
63881W        W30290   6.133  16.879   1.236
63882W        W30291  32.115  28.701   0.797
63883W        W30292   9.302   0.498  14.910
63884W        W30293   0.399  19.732   4.612
63885W        W30294   9.546  39.469  12.321
63886W        W30295  21.361  20.378   1.652
63887W        W30296   0.530   0.726  14.677
63888W        W30297  25.611  16.881   1.487
63889W        W30298  17.181   1.461  10.949
63890W        W30299  24.561   4.746  14.703
63891W        W30300  26.957  23.271   3.557
63892W        W30301   5.074  34.817  13.896
63893W        W30302  15.644  21.546  12.648
63894W        W30303   7.340  29.439  11.879
63895W        W30304   0.209  40.938   2.655
63896W        W30305  25.555   1.268   0.981
63897W        W30306   2.699   7.745  14.137
63898W        W30307  38.898  34.574  12.137
63899W        W30308  35.142  20.067  13.349
63900W        W30309  43.952  12.362   0.809
63901W        W30310  22.284   1.789  10.970
63902W        W30311  17.337  10.058   3.810
63903W        W30312  41.327   6.396   0.894
63904W        W30313  10.661   1.138   3.467
63905W        W30314  28.702  32.389   3.327
63906W        W30315  23.413  33.165  14.697
63907W        W30316  41.367   3.029   2.236
63908W        W30317  10.803  30.262  10.243
63909W        W30318  32.364  18.678   2.889
63910W        W30319   0.785  17.583   2.188
63911W        W30320  15.071  36.229   3.257
63912W        W30321  36.711  18.119   0.969
63913W        W30322   0.618   9.770   9.799
63914W        W30323  39.061  32.129   5.105
63915W        W30324   3.832  21.732   3.279
63916W        W30325  22.544  31.910  12.853
63917W        W30326  34.120  28.469  13.070
63918W        W30327  40.557  35.265   1.245
63919W        W30328  27.110  33.392   1.880
63920W        W30329  32.926  30.108  12.042
63921W        W30330  22.488   1.783  13.031
63922W        W30331  18.591  35.983   4.620
63923W        W30332  39.765   7.282   1.201
63924W        W30333  36.467  39.585   3.758
63925W        W30334  33.784  15.005  14.736
63926W        W30335   4.819  44.254   3.708
63927W        W30336  13.761  14.753   3.589
63928W        W30337  44.924  40.804  14.916
63929W        W30338  23.907   8.829   4.094
63930W        W30339   2.090  33.906   1.949
63931W        W30340  44.143  30.893   3.762
63932W        W30341  40.062  15.682   0.181
63933W        W30342  24.659   5.778  13.818
63934W        W30343   3.820  23.687  10.291
63935W        W30344  40.506   1.855  13.823
63936W        W30345  27.263   5.650   0.527
63937W        W30346   5.625  34.571   3.281
63938W        W30347  29.632  11.879   0.307
63939W        W30348  32.143  13.044  13.613
63940W        W30349  23.055  34.441  14.536
63941W        W30350  26.324  16.166  11.343
63942W        W30351  15.073  12.285  12.071
63943W        W30352  22.220  13.336   2.765
63944W        W30353  37.500   7.187   4.476
63945W        W30354   3.913   2.054   4.127
63946W        W30355   6.394  22.248   0.330
63947W        W30356  31.166   3.465   2.745
63948W        W30357   6.525  24.003  11.561
63949W        W30358  37.916  44.516   4.524
63950W        W30359   2.845  41.831   0.385
63951W        W30360  30.559  31.737  12.375
63952W        W30361   9.937  26.110   2.076
63953W        W30362  38.360  40.847  10.705
63954W        W30363  16.184  17.550  13.585
63955W        W30364   1.891  44.538   0.048
63956W        W30365  10.631  21.034  14.399
63957W        W30366  14.755  17.335  12.619
63958W        W30367  13.360  23.500   2.302
63959W        W30368  28.007  39.023   0.049
63960W        W30369   5.930  34.686   2.440
63961W        W30370  44.223  37.320   4.528
63962W        W30371  35.815  36.476   0.671
63963W        W30372   3.388  42.501  12.988
63964W        W30373  17.138  36.264   1.827
63965W        W30374   8.125  34.403   2.708
63966W        W30375  11.244  17.216   2.960
63967W        W30376  11.196  26.415   3.282
63968W        W30377  34.522  43.609   2.128
63969W        W30378  29.544  27.752   1.321
63970W        W30379  38.946  35.917   4.545
63971W        W30380  31.152  23.956  10.688
63972W        W30381   7.339  40.875   3.722
63973W        W30382  24.888   6.019  11.103
63974W        W30383   6.842  33.144  13.858
63975W        W30384   1.899  41.198   0.858
63976W        W30385  22.138  33.649   1.824
63977W        W30386  44.564  15.347  11.118
63978W        W30387  32.321  43.390  13.398
63979W        W30388  34.060  29.766  13.902
63980W        W30389  33.386  40.795  14.805
63981W        W30390  34.957  24.577  12.129
63982W        W30391   0.384  34.632  11.867
63983W        W30392   3.887   5.492  13.409
63984W        W30393  25.941  11.768  12.978
63985W        W30394   6.146  41.086  10.639
63986W        W30395  18.722  43.442  14.207
63987W        W30396  37.293  24.917   4.691
63988W        W30397  38.467  40.897  13.285
63989W        W30398  19.218  31.620  14.837
63990W        W30399  15.353  39.065   3.659
63991W        W30400  43.707  12.961  12.532
63992W        W30401  24.143  34.982  14.754
63993W        W30402  30.655   9.205  13.862
63994W        W30403  44.975  19.507   1.679
63995W        W30404  28.965  23.409  11.166
63996W        W30405  34.251  24.036   3.205
63997W        W30406  12.706  11.589   0.348
63998W        W30407   6.875  17.068  12.548
63999W        W30408  21.751  44.370   3.767
64000W        W30409  26.157  37.777   1.423
64001W        W30410  35.484  12.185  10.405
64002W        W30411  21.286  26.922  11.621
64003W        W30412  21.196  44.217   2.698
64004W        W30413  10.323   8.249   0.029
64005W        W30414  39.863  35.797  12.053
64006W        W30415  19.336  27.478   2.259
64007W        W30416  11.858  39.274  13.958
64008W        W30417   9.734   4.457   4.766
64009W        W30418   8.321  37.600   0.307
64010W        W30419  24.614   9.689   4.998
64011W        W30420   0.881  21.521   0.068
64012W        W30421   0.638  31.386   0.093
64013W        W30422  11.135  38.989  14.418
64014W        W30423  22.217  40.016  14.743
64015W        W30424  10.350  33.707   3.583
64016W        W30425   9.893   5.650   3.718
64017W        W30426  23.666   4.489  13.937
64018W        W30427  28.256  41.078   0.782
64019W        W30428  42.383  10.472   2.223
64020W        W30429   8.367   8.928   1.977
64021W        W30430  20.308  21.377  11.181
64022W        W30431   2.371  24.281   0.213
64023W        W30432  34.872  27.123   1.225
64024W        W30433  14.098  37.065  14.898
64025W        W30434  40.990  44.291  12.084
64026W        W30435  34.959  14.536   0.241
64027W        W30436  17.093  26.233  14.832
64028W        W30437  19.836   6.174   0.230
64029W        W30438  37.473   2.910   2.363
64030W        W30439  20.096  27.933  12.546
64031W        W30440  31.813   3.288   3.446
64032W        W30441  11.911  32.006   3.075
64033W        W30442  26.012  24.253  11.488
64034W        W30443   6.844  29.411  11.942
64035W        W30444  36.537  31.107   1.788
64036W        W30445  11.416  21.487   0.255
64037W        W30446   5.414  19.788  14.434
64038W        W30447  16.164  28.777   0.725
64039W        W30448  34.454  11.512   2.295
64040W        W30449  41.385  12.216   4.596
64041W        W30450  38.503  16.710   0.047
64042W        W30451  18.617  20.336  10.396
64043W        W30452  39.205  10.852  11.222
64044W        W30453  38.412  44.927  13.964
64045W        W30454  12.408  10.329   2.605
64046W        W30455  40.550  31.119   2.687
64047W        W30456  11.735  32.196  13.046
64048W        W30457  27.923  28.559  10.612
64049W        W30458  39.636  20.949   2.805
64050W        W30459  34.610  20.358  14.433
64051W        W30460   2.130  21.173   4.977
64052W        W30461  28.876   8.910   0.379
64053W        W30462  12.019  28.578  12.515
64054W        W30463   8.751   0.500  13.447
64055W        W30464   2.534  22.718   4.119
64056W        W30465  33.752   0.741  13.711
64057W        W30466  42.273  16.175   2.352
64058W        W30467   6.855  39.020   2.030
64059W        W30468  22.237  11.831   0.529
64060W        W30469  32.682  41.030  11.127
64061W        W30470  30.956  41.840  13.360
64062W        W30471  41.414  18.770   1.864
64063W        W30472   9.764  23.663   4.091
64064W        W30473  11.029  44.205  12.705
64065W        W30474   4.860  44.281   1.300
64066W        W30475  20.430  23.442   3.521
64067W        W30476  41.176   0.208  13.544
64068W        W30477  19.039  30.131   2.947
64069W        W30478  43.598   6.628   0.821
64070W        W30479  25.137  13.178   3.717
64071W        W30480   3.571  26.381   2.164
64072W        W30481   6.387   9.855   1.723
64073W        W30482  14.286  17.091   0.293
64074W        W30483  10.865   2.309  12.935
64075W        W30484  25.046  22.744   0.849
64076W        W30485   8.298  28.866  10.965
64077W        W30486  10.921   6.934   2.727
64078W        W30487   6.348  22.293   3.602
64079W        W30488  17.318  24.941  14.311
64080W        W30489  16.288   4.466  14.461
64081W        W30490  33.441   6.856  13.249
64082W        W30491  26.634  36.231  10.725
64083W        W30492  30.014  15.582   3.685
64084W        W30493  15.050  27.053  11.578
64085W        W30494  36.271  38.342   4.587
64086W        W30495  26.923  15.641  13.061
64087W        W30496  39.871  17.236  12.429
64088W        W30497   3.050  37.054  10.461
64089W        W30498   2.357  12.870  12.869
64090W        W30499  26.444  14.966  13.056
64091W        W30500   4.265  10.270  14.014
64092W        W30501   3.793   3.302   3.267
64093W        W30502  14.388  20.731  13.058
64094W        W30503  14.653   7.166  13.503
64095W        W30504  44.255  37.743  10.685
64096W        W30505  30.080  26.972  14.946
64097W        W30506  29.014   5.441   2.103
64098W        W30507  17.783  37.781   4.529
64099W        W30508  17.503   7.762  10.562
64100W        W30509  34.336  40.386   3.184
64101W        W30510  11.016  42.694  11.161
64102W        W30511  42.392  35.298   4.164
64103W        W30512   0.391   7.137  12.303
64104W        W30513  15.791  11.370  12.492
64105W        W30514  25.498  39.446  10.966
64106W        W30515   8.474   1.982  11.613
64107W        W30516  20.283  37.566  13.893
64108W        W30517   9.832  28.043   4.368
64109W        W30518  11.401  25.297  11.677
64110W        W30519  33.327   3.545  10.828
64111W        W30520   0.709  38.567  12.297
64112W        W30521  30.913  28.663   0.672
64113W        W30522  17.058  19.558   0.655
64114W        W30523  31.933  44.914  10.442
64115W        W30524   6.746  19.050  13.957
64116W        W30525  18.206  15.065  12.959
64117W        W30526  23.244   4.929  12.893
64118W        W30527  23.531  11.040   2.817
64119W        W30528  19.503  44.857   3.320
64120W        W30529  42.708  25.600   0.001
64121W        W30530  22.983   4.780  13.314
64122W        W30531  42.015  11.404  12.663
64123W        W30532  16.120  15.730  14.482
64124W        W30533  16.497  31.870   3.195
64125W        W30534  14.223  26.096   3.245
64126W        W30535  44.569  26.518   4.822
64127W        W30536  31.861  27.282   0.313
64128W        W30537  35.939   8.147   4.106
64129W        W30538   2.195  22.618   1.966
64130W        W30539   6.717  25.589   2.118
64131W        W30540  12.373  19.610   3.701
64132W        W30541   6.230  36.856   2.150
64133W        W30542  18.323  31.445  14.355
64134W        W30543   3.254   1.299   1.516
64135W        W30544  12.680  39.810   1.786
64136W        W30545  38.068  41.611   2.632
64137W        W30546  30.035   5.034   2.248
64138W        W30547  19.784   3.835   4.136
64139W        W30548  11.321  27.964  10.714
64140W        W30549  40.107  14.841  13.374
64141W        W30550  26.680  23.285  11.200
64142W        W30551   1.165  14.213   0.827
64143W        W30552   7.351  41.343   1.138
64144W        W30553  27.857   8.651  13.246
64145W        W30554   8.102  26.606  13.871
64146W        W30555  17.182  33.025   4.654
64147W        W30556  41.031  16.594  12.987
64148W        W30557  32.903   6.335   4.160
64149W        W30558  24.726  20.728   1.856
64150W        W30559  16.667  11.150   1.425
64151W        W30560  36.767  26.850  10.412
64152W        W30561   7.199   4.398   4.409
64153W        W30562  20.457  14.321  14.040
64154W        W30563  43.971  22.097   0.949
64155W        W30564  36.565  32.243   4.290
64156W        W30565  40.037  37.878  13.524
64157W        W30566  42.342  18.254   3.683
64158W        W30567  14.859  16.788  11.929
64159W        W30568   6.826  29.530   4.629
64160W        W30569   7.102  32.972   4.692
64161W        W30570  35.266  39.531  11.248
64162W        W30571  23.688   2.735   2.832
64163W        W30572   5.234   7.879   0.799
64164W        W30573  27.590  40.262   2.695
64165W        W30574   8.088   3.321   0.759
64166W        W30575  12.921  22.663   4.660
64167W        W30576  36.380  23.903   3.671
64168W        W30577  39.141  13.285  12.962
64169W        W30578   2.137  30.574   1.154
64170W        W30579  32.323   2.903  14.819
64171W        W30580  18.135  18.518   2.754
64172W        W30581  12.264  11.374   1.261
64173W        W30582  15.204  21.811  11.185
64174W        W30583  43.210  37.736  12.862
64175W        W30584  39.222  41.449  13.474
64176W        W30585  17.786  39.247  14.057
64177W        W30586  22.471  27.140   1.784
64178W        W30587  14.751  40.308  11.680
64179W        W30588   5.520  32.131  11.331
64180W        W30589   1.051   9.498   2.356
64181W        W30590  38.669  33.472  14.340
64182W        W30591   4.234  31.501  12.412
64183W        W30592  17.398   9.537   2.207
64184W        W30593  25.384   6.916  11.123
64185W        W30594  16.659  41.639  12.078
64186W        W30595  17.770  27.542   1.333
64187W        W30596  33.235  17.522  14.007
64188W        W30597   1.060  44.325  12.126
64189W        W30598  30.150   4.941   2.759
64190W        W30599  26.222  23.096  14.786
64191W        W30600  15.602  43.673  10.569
64192W        W30601  32.180   3.797  12.932
64193W        W30602  41.862  32.953  11.478
64194W        W30603  23.289  26.636  12.858
64195W        W30604  32.420  15.446  13.565
64196W        W30605  11.089  39.583  12.433
64197W        W30606  39.697  25.143  13.407
64198W        W30607  30.391   2.185   3.637
64199W        W30608  14.959  43.306  14.612
64200W        W30609  12.380  28.415   0.949
64201W        W30610  15.576  40.271   3.309
64202W        W30611  23.088  16.633  10.605
64203W        W30612   8.409  29.875  13.048
64204W        W30613   7.206   5.531   0.441
64205W        W30614  30.149  33.449  12.021
64206W        W30615  31.139  33.949  10.884
64207W        W30616  32.528  11.224   4.039
64208W        W30617  42.094   3.324  10.556
64209W        W30618   6.741  34.652   0.397
64210W        W30619  31.913  19.331  11.890
64211W        W30620  36.023  41.509   4.299
64212W        W30621  11.826   6.597   4.508
64213W        W30622  25.255  13.111   0.694
64214W        W30623  41.695  44.910  10.737
64215W        W30624   5.077   1.850   0.732
64216W        W30625  36.478  39.129   1.622
64217W        W30626   0.407  17.506   2.598
64218W        W30627  12.798  41.700   4.043
64219W        W30628  12.896  42.194   1.021
64220W        W30629  29.061  29.928  13.779
64221W        W30630  20.549  16.596  12.914
64222W        W30631  20.317  15.274   2.306
64223W        W30632  19.198   7.825  12.501
64224W        W30633  25.167  13.211   1.705
64225W        W30634   4.775   6.153  10.471
64226W        W30635   0.013  29.435   1.890
64227W        W30636  35.440   1.881  13.131
64228W        W30637  28.902  37.084   4.542
64229W        W30638   0.787   5.188  13.597
64230W        W30639   6.666  37.848  13.941
64231W        W30640  40.901  32.008   1.207
64232W        W30641   1.267  15.246   2.736
64233W        W30642  28.047  27.576  10.876
64234W        W30643  43.601  40.098   1.674
64235W        W30644  22.831  14.863   1.903
64236W        W30645  37.489  25.363  11.762
64237W        W30646  32.369   1.878   4.145
64238W        W30647  37.885  36.948   4.015
64239W        W30648  43.448   7.216  13.310
64240W        W30649  12.771  17.486   2.775
64241W        W30650  26.011  38.800   4.407
64242W        W30651  26.055  35.511  12.372
64243W        W30652   6.640   5.814  13.974
64244W        W30653  40.407  42.124  11.181
64245W        W30654  22.733  11.079  13.870
64246W        W30655  37.008  22.759   0.512
64247W        W30656  29.954  35.962  14.798
64248W        W30657  34.152  33.397  13.033
64249W        W30658  20.289   6.670   3.265
64250W        W30659   4.877  43.776  10.432
64251W        W30660  21.107   6.256  13.616
64252W        W30661  10.154  15.383   4.698
64253W        W30662  18.006   7.144  12.005
64254W        W30663  43.862  23.305  13.151
64255W        W30664  32.661   3.887   0.945
64256W        W30665  12.047  33.719   3.117
64257W        W30666  29.055  18.148  10.635
64258W        W30667   4.350  39.370   0.940
64259W        W30668  15.773  40.991  10.374
64260W        W30669  33.131  17.544   0.141
64261W        W30670  34.142  27.464   0.685
64262W        W30671  16.337  16.295  11.145
64263W        W30672  30.864  31.144   2.161
64264W        W30673  21.700  14.661   0.572
64265W        W30674  17.135   7.891  11.449
64266W        W30675  44.795  39.584  14.417
64267W        W30676  35.540  42.992   0.816
64268W        W30677  18.159  17.123   1.376
64269W        W30678  20.741  24.106   1.026
64270W        W30679   6.474   9.658   4.504
64271W        W30680   1.176  22.501   0.269
64272W        W30681  32.425  28.161   4.228
64273W        W30682  43.719  26.665  10.939
64274W        W30683   8.871   0.076   1.916
64275W        W30684  15.888  37.282  14.971
64276W        W30685  35.854  10.653  13.520
64277W        W30686  35.913  16.560  13.912
64278W        W30687  25.137  43.996  14.904
64279W        W30688  34.747  26.141  11.069
64280W        W30689   9.960  31.472  11.129
64281W        W30690  37.587  36.922   1.900
64282W        W30691   7.802  35.402   3.558
64283W        W30692  42.447  33.629  12.904
64284W        W30693  36.583  44.717   4.540
64285W        W30694   6.335   7.143   9.979
64286W        W30695   6.109  42.522  13.496
64287W        W30696  36.767  29.536  10.819
64288W        W30697  19.697   1.415  13.442
64289W        W30698  14.733  30.526   4.256
64290W        W30699  42.294  34.521  12.494
64291W        W30700  15.769  39.616  13.540
64292W        W30701  19.088   5.345   1.945
64293W        W30702  28.400  17.671   3.180
64294W        W30703  14.588  29.080  13.331
64295W        W30704   3.500  42.462  14.013
64296W        W30705   2.425  11.070   0.369
64297W        W30706  19.215  17.043  10.774
64298W        W30707  42.208  25.038  11.516
64299W        W30708  13.602  34.083   1.767
64300W        W30709  19.988  16.675   2.716
64301W        W30710  17.152  37.158   0.819
64302W        W30711  39.888  37.362  14.995
64303W        W30712  24.560  40.423  13.387
64304W        W30713  38.841  41.146   4.541
64305W        W30714  32.595   2.800  12.513
64306W        W30715  24.848   4.748  11.481
64307W        W30716  25.759   9.773   2.701
64308W        W30717   5.858  42.023  12.574
64309W        W30718  22.455  42.306   0.366
64310W        W30719  37.920  22.154  14.070
64311W        W30720  33.907   4.181   4.046
64312W        W30721  16.772  42.569   2.464
64313W        W30722  18.134  18.015   1.212
64314W        W30723  36.977  33.411   4.673
64315W        W30724  31.625  39.527   1.350
64316W        W30725  37.885  42.364   4.029
64317W        W30726  39.015   7.340  14.765
64318W        W30727  16.084  30.842  11.204
64319W        W30728   9.265  39.122   2.742
64320W        W30729  35.488  43.277  13.899
64321W        W30730  15.638  18.381   0.497
64322W        W30731  13.171  36.894   3.771
64323W        W30732  17.837  28.536   1.006
64324W        W30733  19.596  12.389  14.863
64325W        W30734  44.703  37.868   1.273
64326W        W30735  15.199  38.073   0.879
64327W        W30736  12.455  18.207   0.203
64328W        W30737   7.804   1.994   1.928
64329W        W30738  38.835  25.997   2.143
64330W        W30739  31.498  34.876   3.180
64331W        W30740  26.498  19.768   3.639
64332W        W30741   8.838  36.087   3.207
64333W        W30742  21.921  23.583   3.662
64334W        W30743  34.012  28.255   1.153
64335W        W30744  16.135   9.429  13.048
64336W        W30745  37.591  19.036  12.024
64337W        W30746  14.406  22.649   4.999
64338W        W30747   1.331  14.583   3.928
64339W        W30748  39.168  14.117  12.508
64340W        W30749   0.333  18.928  12.672
64341W        W30750  35.046  30.189  11.549
64342W        W30751   6.369   9.481   1.310
64343W        W30752  10.780  15.622  13.815
64344W        W30753  34.930  32.402   3.307
64345W        W30754  40.964   1.801  14.891
64346W        W30755  19.523   0.338   0.486
64347W        W30756  25.482  24.601  14.555
64348W        W30757  15.125  43.497  10.642
64349W        W30758  43.883  12.710   0.231
64350W        W30759  39.276   8.218   4.188
64351W        W30760  31.368   6.193   4.288
64352W        W30761  21.280  41.177  12.015
64353W        W30762  42.335  21.812   4.961
64354W        W30763  39.348  18.925  12.370
64355W        W30764  14.981  18.521   4.116
64356W        W30765  14.145  26.374  13.219
64357W        W30766   7.327  15.037   2.486
64358W        W30767   6.756  12.213   4.930
64359W        W30768  38.839  13.147   2.261
64360W        W30769  16.174  11.256  14.364
64361W        W30770   0.508  14.695  11.457
64362W        W30771  12.825   2.416  14.393
64363W        W30772  25.440  15.967  12.131
64364W        W30773  42.556  38.975   3.028
64365W        W30774  14.615  42.794  13.318
64366W        W30775  37.321  11.391  10.744
64367W        W30776  12.008   8.567  14.362
64368W        W30777  34.071   0.675   1.855
64369W        W30778  35.025  31.637   3.638
64370W        W30779  25.518  40.833   2.670
64371W        W30780   9.412  20.218   0.050
64372W        W30781  27.318  22.948   2.291
64373W        W30782  36.027   5.292  11.723
64374W        W30783  31.025   8.744   3.721
64375W        W30784  28.345   3.825   1.874
64376W        W30785  24.106  22.106   2.726
64377W        W30786  36.945  38.306   0.310
64378W        W30787  35.085  43.240   0.908
64379W        W30788  28.414  44.857   0.489
64380W        W30789   3.330   1.548   4.865
64381W        W30790  19.846  31.852  14.314
64382W        W30791  27.720  21.936   2.161
64383W        W30792  18.494   8.240   2.861
64384W        W30793  25.659  21.181  12.062
64385W        W30794   4.812  41.956   3.236
64386W        W30795  41.556  33.122  11.054
64387W        W30796  44.497  44.883  11.340
64388W        W30797   5.422   6.968   4.645
64389W        W30798  26.592  19.284  13.978
64390W        W30799  39.779  17.314  14.252
64391W        W30800  40.812  34.137  13.557
64392W        W30801  23.565  20.705  11.078
64393W        W30802   5.171  25.107  12.127
64394W        W30803  16.375   6.853   1.217
64395W        W30804  24.734  29.413   3.789
64396W        W30805  39.773  10.841   0.743
64397W        W30806   5.175  12.805   2.694
64398W        W30807  11.947  36.926   4.268
64399W        W30808  19.672  28.371  10.052
64400W        W30809  29.627  15.469   1.802
64401W        W30810  30.463  17.901   3.698
64402W        W30811  28.312  16.090  13.514
64403W        W30812  16.203   8.220  13.704
64404W        W30813  34.595  16.574   4.133
64405W        W30814  44.576  17.285  12.931
64406W        W30815  33.406  18.953  14.298
64407W        W30816   4.865   4.671   0.564
64408W        W30817   9.918  17.587  14.517
64409W        W30818   1.055  29.431  11.502
64410W        W30819  44.299   0.496  13.032
64411W        W30820  25.696   9.647  12.867
64412W        W30821  20.181  13.133   2.401
64413W        W30822  34.891  20.702   4.838
64414W        W30823  44.505  25.674  10.379
64415W        W30824  44.984  21.277  11.091
64416W        W30825  18.221  40.401  10.640
64417W        W30826  18.041  12.062  14.428
64418W        W30827  17.327  26.442   0.674
64419W        W30828  34.659  30.453  14.361
64420W        W30829   4.384   2.806  12.057
64421W        W30830  22.249  35.431   1.430
64422W        W30831   8.417  14.325   5.066
64423W        W30832  21.319  36.864   2.338
64424W        W30833   2.768  19.320  12.022
64425W        W30834  16.524  29.626  10.899
64426W        W30835  24.977  29.977   1.779
64427W        W30836  23.087  38.341   0.368
64428W        W30837  29.085  14.387  11.114
64429W        W30838  37.133  18.543   2.363
64430W        W30839  29.545  44.224   5.130
64431W        W30840   9.710  28.350   0.501
64432W        W30841   9.994  18.629   4.143
64433W        W30842  17.419  23.664   2.382
64434W        W30843  24.942   1.839   4.110
64435W        W30844  21.560  24.909  10.412
64436W        W30845   4.565  44.294   2.140
64437W        W30846  33.409  44.953  14.306
64438W        W30847  32.344  19.710   2.789
64439W        W30848   4.024  39.787   2.902
64440W        W30849  21.214  33.658   3.188
64441W        W30850  26.646  23.564  11.647
64442W        W30851  27.875  21.978   2.676
64443W        W30852  15.100  27.820   3.761
64444W        W30853  23.997  10.105   9.845
64445W        W30854  17.801  16.041  11.174
64446W        W30855  44.410  27.062   2.435
64447W        W30856  18.347  14.683   2.380
64448W        W30857  37.005   5.658   4.203
64449W        W30858   1.173  24.714   1.461
64450W        W30859  24.883  11.669   3.567
64451W        W30860   4.019   1.049   0.340
64452W        W30861  33.803   3.529   2.376
64453W        W30862  29.675  43.809  12.017
64454W        W30863  17.904  34.722   1.945
64455W        W30864  35.857   1.884  14.217
64456W        W30865  28.163   2.984   4.701
64457W        W30866  35.642  21.209  12.916
64458W        W30867  16.605   5.195  14.028
64459W        W30868  12.110  30.197   4.753
64460W        W30869  11.319  19.664  10.943
64461W        W30870   3.491  15.607   1.542
64462W        W30871   7.423  19.170   4.720
64463W        W30872  44.289  15.266  11.546
64464W        W30873  41.949  29.421   4.253
64465W        W30874  25.578  34.595   1.743
64466W        W30875  42.210  41.133   0.240
64467W        W30876  38.627  29.107  10.491
64468W        W30877  11.678  33.459   3.355
64469W        W30878   8.641  39.951   1.200
64470W        W30879   4.123  24.134  12.884
64471W        W30880  38.270   4.594  14.474
64472W        W30881  20.030  37.768  11.983
64473W        W30882   5.225   3.551   1.309
64474W        W30883  29.249  35.881   2.220
64475W        W30884  34.091  43.392   1.930
64476W        W30885  10.780   4.464  11.033
64477W        W30886  25.670   6.469  11.088
64478W        W30887  43.428  25.886   3.162
64479W        W30888  18.166  30.398   0.274
64480W        W30889  19.427   4.862   4.697
64481W        W30890   7.723  25.110   0.729
64482W        W30891  25.911  19.129   3.340
64483W        W30892  13.847  12.128  14.869
64484W        W30893   2.617  38.903  11.133
64485W        W30894  14.021  27.000  11.591
64486W        W30895   8.169  16.213   0.899
64487W        W30896   8.672  23.614  14.997
64488W        W30897   4.912  43.396  12.935
64489W        W30898   5.027   7.359   1.936
64490W        W30899  21.057  14.752   2.173
64491W        W30900   8.930  37.960  11.950
64492W        W30901  11.557   5.420  13.774
64493W        W30902  30.460  34.084   4.602
64494W        W30903  43.228  41.368  12.020
64495W        W30904  23.075  42.490   1.211
64496W        W30905  36.894   7.915  12.051
64497W        W30906  21.313   1.560   1.484
64498W        W30907   0.012   8.219   1.922
64499W        W30908  19.475  25.413  12.564
64500W        W30909  44.997  24.078  12.140
64501W        W30910  15.133  39.578   4.578
64502W        W30911   6.797  32.350  12.697
64503W        W30912   7.241  14.370  12.594
64504W        W30913  23.531  12.086   0.387
64505W        W30914   6.768  31.105  11.423
64506W        W30915  30.108  29.568  11.890
64507W        W30916  36.428  13.701  14.281
64508W        W30917  27.599  15.267   3.808
64509W        W30918  42.246  32.772   3.252
64510W        W30919  27.136  21.479   0.886
64511W        W30920  33.849  34.433  12.587
64512W        W30921  18.850  12.686   4.990
64513W        W30922  26.187  11.769   2.836
64514W        W30923  34.620  35.459  11.648
64515W        W30924  15.334  24.748  12.145
64516W        W30925  35.173  10.287   1.597
64517W        W30926  28.953   2.368  13.927
64518W        W30927  21.986  14.383  11.485
64519W        W30928  29.053  30.937  11.629
64520W        W30929  24.533  39.017  13.106
64521W        W30930  41.973  27.690  13.046
64522W        W30931  44.272  27.397   0.541
64523W        W30932  24.502  39.090  11.822
64524W        W30933   2.213  15.766  14.362
64525W        W30934   2.330  43.509  14.741
64526W        W30935  22.208  17.723   0.551
64527W        W30936  24.254  29.454  11.176
64528W        W30937  14.522   6.773   1.688
64529W        W30938   4.826  17.250  14.966
64530W        W30939   6.561  28.389   1.925
64531W        W30940   8.732  29.488   4.514
64532W        W30941   4.228  14.525   3.550
64533W        W30942  11.714  37.893   4.719
64534W        W30943   8.685  31.867   4.915
64535W        W30944  23.469  37.595  13.726
64536W        W30945  12.809   0.490  13.339
64537W        W30946  15.803  15.209   1.936
64538W        W30947  43.200  41.786  14.481
64539W        W30948  27.815  26.806   2.713
64540W        W30949  16.689  17.774  11.278
64541W        W30950  33.675  42.999  13.494
64542W        W30951   4.733   6.414   2.394
64543W        W30952  19.178  12.735  10.773
64544W        W30953  34.200  11.706   4.106
64545W        W30954  21.021  10.748  14.363
64546W        W30955  34.915  33.286   1.779
64547W        W30956  22.533  35.083   3.111
64548W        W30957  23.542  17.314   0.182
64549W        W30958  36.357  36.423  12.884
64550W        W30959  35.159  14.282  13.373
64551W        W30960  15.977  25.998  12.549
64552W        W30961   3.845  34.008  11.426
64553W        W30962   8.564   9.170  12.357
64554W        W30963  25.214   5.316  13.682
64555W        W30964  34.395  43.617  11.979
64556W        W30965  43.286  43.223  11.115
64557W        W30966  27.464   3.811  12.036
64558W        W30967  12.783   0.384   1.959
64559W        W30968  37.598  34.163  12.113
64560W        W30969   0.505  32.781   4.744
64561W        W30970  10.245   7.357   0.735
64562W        W30971  23.659  31.741  14.941
64563W        W30972   0.796  29.159  12.053
64564W        W30973   7.923  12.777   0.870
64565W        W30974  41.995  31.905   4.153
64566W        W30975  41.744  11.438   1.980
64567W        W30976  37.982  28.017  14.754
64568W        W30977  33.611  12.853  11.636
64569W        W30978  26.464  44.830   0.752
64570W        W30979  23.052   4.705  11.687
64571W        W30980  37.997  13.571  11.553
64572W        W30981  39.899  16.478  11.842
64573W        W30982   8.457  33.381   0.138
64574W        W30983   3.950  25.492   1.219
64575W        W30984  34.011   4.189  11.666
64576W        W30985  19.036  18.039  10.733
64577W        W30986   9.225  42.222   3.636
64578W        W30987  31.309  37.313  14.091
64579W        W30988  14.245  35.779  12.465
64580W        W30989  30.005  21.500  12.459
64581W        W30990  41.049  23.542  14.963
64582W        W30991  42.306   1.426  13.874
64583W        W30992  17.322  16.774  12.048
64584W        W30993   2.713  30.233   2.780
64585W        W30994   0.450  15.208  13.721
64586W        W30995  21.599  32.070  10.405
64587W        W30996  42.621  33.828   1.947
64588W        W30997  28.297   2.454  11.829
64589W        W30998  12.756  41.944  11.651
64590W        W30999  34.229   4.413   2.485
64591W        W31000  30.190  44.984  11.226
64592W        W31001   7.854  31.564  13.804
64593W        W31002  24.433  39.113  14.908
64594W        W31003  33.481  12.891   3.909
64595W        W31004  13.925  30.020   3.110
64596W        W31005  20.545  15.540  11.188
64597W        W31006  37.443  22.820  14.974
64598W        W31007  42.512  33.060   3.584
64599W        W31008   5.412  44.230   3.163
64600W        W31009   2.460  23.143  13.592
64601W        W31010  15.691  37.769  14.983
64602W        W31011  34.166  15.983  11.605
64603W        W31012  35.990  15.534  13.891
64604W        W31013  21.820  22.187  11.046
64605W        W31014  11.803  18.574   3.430
64606W        W31015  43.930   2.250   0.461
64607W        W31016  32.331  27.699  13.110
64608W        W31017  14.215  38.988  11.616
64609W        W31018  21.203  42.919   1.341
64610W        W31019   6.906   5.827   3.688
64611W        W31020  31.831   9.641   0.949
64612W        W31021   7.748  29.542  11.137
64613W        W31022  44.393  22.422   3.709
64614W        W31023  26.452  25.678  11.955
64615W        W31024  15.983   7.884   4.784
64616W        W31025  25.859   7.906  11.003
64617W        W31026  34.831  36.659  12.034
64618W        W31027  37.275  13.871   1.836
64619W        W31028  15.564  14.712   0.025
64620W        W31029  11.376   8.781   2.779
64621W        W31030  30.394   1.992  10.681
64622W        W31031  12.627  43.459   2.297
64623W        W31032  43.775   1.904   3.240
64624W        W31033  17.804  23.615  11.688
64625W        W31034  38.153  41.562  12.562
64626W        W31035  41.912   8.732   0.053
64627W        W31036   7.335   2.458   2.764
64628W        W31037  33.643  33.342  11.169
64629W        W31038  24.280   7.684  12.367
64630W        W31039   3.678  14.799  11.720
64631W        W31040   5.727  21.378   1.433
64632W        W31041   3.256  18.825   3.733
64633W        W31042  38.521  10.771  10.589
64634W        W31043  32.991  27.605   4.106
64635W        W31044  34.858   3.913  14.193
64636W        W31045  32.527  14.205   1.330
64637W        W31046   2.587  15.526   2.393
64638W        W31047  35.500   4.692  14.982
64639W        W31048  13.615   0.720  14.710
64640W        W31049   9.917  29.844  13.029
64641W        W31050  19.478  30.147   0.477
64642W        W31051  43.305  19.985  12.107
64643W        W31052  25.246  32.578  12.317
64644W        W31053  14.730  23.729   0.194
64645W        W31054  15.054  42.602  11.626
64646W        W31055  34.450   9.220   0.319
64647W        W31056   4.561  19.278   3.588
64648W        W31057  38.167  25.023  12.478
64649W        W31058   5.907  39.210  13.836
64650W        W31059  40.448  38.445   2.917
64651W        W31060  28.004   2.068  12.033
64652W        W31061  35.418  37.587   1.929
64653W        W31062  32.798  15.147  13.746
64654W        W31063   2.721  42.213   1.859
64655W        W31064  41.936  17.196   1.319
64656W        W31065  20.664  13.071   5.009
64657W        W31066   0.625  20.226   1.414
64658W        W31067  24.472  20.965  11.545
64659W        W31068  39.779  13.286   0.317
64660W        W31069   6.630   4.062  14.417
64661W        W31070  23.801  19.910   0.763
64662W        W31071  39.405  42.576  14.297
64663W        W31072   3.507  26.921  13.248
64664W        W31073   9.895  26.713   3.646
64665W        W31074  14.536  39.637  11.146
64666W        W31075  35.651  37.584  11.075
64667W        W31076  44.765  24.433   3.411
64668W        W31077  28.598  15.085   0.509
64669W        W31078  26.980  29.117   4.876
64670W        W31079   1.932  32.490  11.706
64671W        W31080   6.742  33.376  12.420
64672W        W31081  27.438   8.480   4.512
64673W        W31082  41.154  35.074  13.287
64674W        W31083  16.464  19.774   2.376
64675W        W31084  44.642   7.992   1.657
64676W        W31085   2.208   9.706  10.725
64677W        W31086  35.123   0.230   4.576
64678W        W31087   4.208  20.748  12.032
64679W        W31088  28.196  22.799   2.331
64680W        W31089  30.194  33.842  13.330
64681W        W31090  15.244  30.574  12.951
64682W        W31091  43.779  10.306   1.975
64683W        W31092  17.341  16.165   0.785
64684W        W31093  14.824   3.812   2.301
64685W        W31094  33.999  12.255  12.293
64686W        W31095  10.665  25.106   4.575
64687W        W31096  14.750  33.600  10.698
64688W        W31097  19.532  43.002   0.406
64689W        W31098  37.345  37.651   4.228
64690W        W31099   4.358  35.868   3.269
64691W        W31100  44.751  33.586  14.822
64692W        W31101  37.993  35.353   4.105
64693W        W31102  22.627  43.064  12.922
64694W        W31103  13.798   8.459   1.727
64695W        W31104  19.168   1.158   3.588
64696W        W31105  15.311   2.625   2.172
64697W        W31106  38.591  19.636   3.140
64698W        W31107   3.850  44.877   2.991
64699W        W31108  20.315  34.638   0.367
64700W        W31109   9.364  24.723   1.382
64701W        W31110   5.906  37.310   4.266
64702W        W31111  20.520  36.106  11.966
64703W        W31112  41.752  16.812  13.615
64704W        W31113  20.137   6.694  10.958
64705W        W31114  26.758  18.914  14.284
64706W        W31115   7.336  12.772  10.653
64707W        W31116  19.331   7.376   2.440
64708W        W31117   2.741  36.778   1.535
64709W        W31118  43.447  34.873  10.730
64710W        W31119  39.792   8.399  13.369
64711W        W31120  22.461  11.129  11.091
64712W        W31121  34.427  37.081   2.247
64713W        W31122  18.260  28.037   2.639
64714W        W31123  19.014  32.028   1.892
64715W        W31124  23.945  42.796   1.698
64716W        W31125  17.336  30.494  14.405
64717W        W31126  11.782  41.211  14.926
64718W        W31127  24.546  17.703  14.047
64719W        W31128  22.528  15.161   3.499
64720W        W31129  43.874  33.959  13.892
64721W        W31130   4.955  22.029  13.350
64722W        W31131  27.627  34.207   0.245
64723W        W31132  16.625  11.106  10.744
64724W        W31133  17.098  39.993  14.634
64725W        W31134  19.805  35.464  13.906
64726W        W31135  21.959   3.532   2.876
64727W        W31136  22.120  13.665  13.284
64728W        W31137  27.688  35.940  10.339
64729W        W31138  42.367  15.462   0.645
64730W        W31139  29.014  21.988   4.953
64731W        W31140   0.462  10.394   2.727
64732W        W31141  44.796   4.996   1.248
64733W        W31142  29.844  44.468   3.331
64734W        W31143  11.350  27.407   0.633
64735W        W31144   2.199   4.855   3.196
64736W        W31145  24.866   1.274  10.765
64737W        W31146  11.671   3.171   0.837
64738W        W31147   1.399  30.783   2.737
64739W        W31148  10.257  25.407   0.346
64740W        W31149  11.775  35.647  14.446
64741W        W31150  38.283   3.451   1.344
64742W        W31151   9.682  11.707   2.848
64743W        W31152  18.485  40.839  10.673
64744W        W31153  18.690  12.378  14.958
64745W        W31154  28.746  24.411  11.128
64746W        W31155   4.878  19.052  14.341
64747W        W31156  23.770  18.090  12.296
64748W        W31157  15.257  37.863  11.722
64749W        W31158  20.594  30.752  10.687
64750W        W31159  32.150   6.365   0.342
64751W        W31160   8.251  44.762  12.347
64752W        W31161  17.094  41.117  13.352
64753W        W31162  17.296  37.640   0.354
64754W        W31163  21.560  18.574  13.029
64755W        W31164  18.223  14.634  10.460
64756W        W31165   9.894  14.649  13.859
64757W        W31166  18.745   3.166  11.630
64758W        W31167  38.367  41.729  10.401
64759W        W31168  11.634  44.663   5.320
64760W        W31169  15.072  25.185  12.007
64761W        W31170   7.876  27.249  10.128
64762W        W31171  24.071  43.404  10.518
64763W        W31172  29.413  42.855   3.666
64764W        W31173   4.729  24.680  14.078
64765W        W31174  29.422  26.474   3.250
64766W        W31175  24.072  30.712  13.626
64767W        W31176  17.706  40.274   3.356
64768W        W31177  24.605  14.122  14.415
64769W        W31178  26.291  31.652   3.730
64770W        W31179  26.322   6.898   1.242
64771W        W31180  42.385  10.847   1.693
64772W        W31181  23.951  32.631   3.546
64773W        W31182   6.209  26.938  14.825
64774W        W31183  39.464  31.542   0.215
64775W        W31184  19.561  35.815  12.096
64776W        W31185   9.683  14.524  10.810
64777W        W31186  22.834  44.166   0.991
64778W        W31187  11.190  25.585  10.495
64779W        W31188  14.558  42.547  12.815
64780W        W31189  24.827   8.915   1.233
64781W        W31190  23.627  29.935  13.869
64782W        W31191  24.353  36.536   0.819
64783W        W31192  35.371  18.179  11.516
64784W        W31193  23.136  17.607   0.347
64785W        W31194  32.026  33.566  13.026
64786W        W31195   7.735  15.140  11.220
64787W        W31196  36.335  25.234  14.970
64788W        W31197  29.552   1.504   0.495
64789W        W31198   4.449  28.385  11.951
64790W        W31199   4.330  21.864  11.626
64791W        W31200   2.793  41.721   3.647
64792W        W31201  24.871  11.234  10.698
64793W        W31202  44.739   9.685  12.618
64794W        W31203  30.623  13.025   0.115
64795W        W31204   3.431  43.808   3.223
64796W        W31205  42.242  10.488   9.475
64797W        W31206  38.612  37.441   2.043
64798W        W31207  20.479  17.035   1.440
64799W        W31208  31.498  19.594   4.474
64800W        W31209   5.170  29.921  13.482
64801W        W31210   6.973  15.442  11.046
64802W        W31211  30.443   1.177   3.588
64803W        W31212  20.675   8.740  13.787
64804W        W31213   0.634   0.327  13.350
64805W        W31214  21.196   3.753  12.339
64806W        W31215  23.608  32.870  11.559
64807W        W31216   3.543  44.976   2.589
64808W        W31217  19.166  21.514  13.022
64809W        W31218  14.611  42.747   0.929
64810W        W31219  44.049  39.426   2.093
64811W        W31220  10.103  22.102   0.413
64812W        W31221  11.713  22.488   0.318
64813W        W31222  20.798  36.406  13.607
64814W        W31223  27.193  19.504  11.978
64815W        W31224  10.296   5.131   1.348
64816W        W31225  24.027  21.082  13.532
64817W        W31226  37.364   5.175   4.237
64818W        W31227  31.931   1.841  14.302
64819W        W31228   5.330  23.815   3.265
64820W        W31229  25.026  35.062  11.942
64821W        W31230  22.606  29.168   0.291
64822W        W31231  15.547  33.337   2.858
64823W        W31232   6.592  41.083   3.248
64824W        W31233  30.589   9.859  14.483
64825W        W31234   5.194  17.701   0.762
64826W        W31235   3.668  31.514   0.466
64827W        W31236  23.583  40.088  14.882
64828W        W31237  36.026   1.077   3.251
64829W        W31238  41.601   0.295  12.640
64830W        W31239  26.210  36.899   3.574
64831W        W31240  42.895  33.980   4.244
64832W        W31241   1.926  10.856  11.425
64833W        W31242  12.414   6.850   0.299
64834W        W31243  39.271  40.484  11.996
64835W        W31244  43.833  39.435  12.915
64836W        W31245  35.875   4.918   0.287
64837W        W31246   4.860  16.293  13.835
64838W        W31247  40.013  13.645   1.410
64839W        W31248  18.667  41.315  10.763
64840W        W31249  21.720  27.661   0.777
64841W        W31250  21.958  18.026  14.098
64842W        W31251  21.934  38.000   3.712
64843W        W31252  23.291  36.926  13.008
64844W        W31253   8.946  26.690  11.600
64845W        W31254   6.365  13.471  12.069
64846W        W31255   7.874  41.174   1.107
64847W        W31256  33.270   3.969  12.944
64848W        W31257  31.917   0.764  12.071
64849W        W31258   1.955  19.149   1.434
64850W        W31259   7.367   6.643  11.310
64851W        W31260  28.375  32.620  11.483
64852W        W31261   9.668  37.303   9.537
64853W        W31262  28.910  21.561   3.706
64854W        W31263   5.850  41.680   0.312
64855W        W31264  20.107  33.495   3.153
64856W        W31265  21.859  26.301  11.804
64857W        W31266  20.251   7.687   4.229
64858W        W31267  24.063  25.242   1.211
64859W        W31268  36.260  40.002   2.816
64860W        W31269  22.339  11.947  13.992
64861W        W31270   1.188  16.241  12.991
64862W        W31271  13.351   6.143  13.137
64863W        W31272  34.392  35.593  13.123
64864W        W31273  34.112  28.108   4.583
64865W        W31274  14.221  23.202   2.879
64866W        W31275   2.524   2.463  13.954
64867W        W31276  19.774  17.477  11.168
64868W        W31277  11.813  44.072   2.287
64869W        W31278   3.954   8.449   4.167
64870W        W31279  15.321  11.811   0.492
64871W        W31280  12.660  40.707  14.777
64872W        W31281  36.990  31.641  13.404
64873W        W31282  37.412  43.130  11.265
64874W        W31283  19.039  39.569   4.195
64875W        W31284  32.989  39.083   0.470
64876W        W31285   5.166  31.371  11.138
64877W        W31286  39.904  36.568  13.308
64878W        W31287  41.059   8.659  14.414
64879W        W31288  38.470  21.577  10.348
64880W        W31289   0.245  41.149   3.130
64881W        W31290  35.894  33.431   2.185
64882W        W31291   6.402  42.844   1.964
64883W        W31292  32.425  12.097  13.588
64884W        W31293  12.730  25.966   3.253
64885W        W31294  33.487   4.221  11.601
64886W        W31295  10.642   1.518   1.759
64887W        W31296   3.188   8.105   5.146
64888W        W31297   1.700  20.623  10.617
64889W        W31298   5.147  15.804   2.800
64890W        W31299  41.864  15.204   2.138
64891W        W31300  36.280  14.251  10.805
64892W        W31301  26.049  37.503   1.014
64893W        W31302  40.016  15.007  13.886
64894W        W31303  40.762  14.865   0.958
64895W        W31304  14.637  31.495   1.858
64896W        W31305  14.602  18.515   0.642
64897W        W31306  37.369   1.509  12.167
64898W        W31307  13.819  23.728   2.136
64899W        W31308  13.743  17.231   2.712
64900W        W31309   6.223  23.996   2.346
64901W        W31310   1.395  19.704   2.314
64902W        W31311  22.042  17.170  10.868
64903W        W31312  29.172  23.528   1.698
64904W        W31313   2.893  13.333  13.267
64905W        W31314  41.844   8.700  13.613
64906W        W31315  34.679  38.309   1.515
64907W        W31316  42.949  36.589   1.739
64908W        W31317  40.548  37.450   0.222
64909W        W31318   8.111  22.039  10.749
64910W        W31319  30.122  13.753  14.321
64911W        W31320  25.556  44.540   4.621
64912W        W31321  26.120  26.126  11.114
64913W        W31322  25.212  31.382  14.988
64914W        W31323  23.167  10.592   2.233
64915W        W31324   3.300  39.922   2.169
64916W        W31325  26.322  43.552  10.540
64917W        W31326   1.013  31.232  12.527
64918W        W31327   8.120  13.427   3.216
64919W        W31328  21.261  39.641  10.112
64920W        W31329   6.830  29.904   0.894
64921W        W31330  43.750   6.887  12.417
64922W        W31331  26.238  15.060  14.842
64923W        W31332  41.417  43.161  10.740
64924W        W31333   6.666  29.987   1.435
64925W        W31334  40.023   3.633  10.526
64926W        W31335  28.616   1.854   3.185
64927W        W31336  38.101  43.935  10.696
64928W        W31337  20.284  36.261   0.382
64929W        W31338  23.994  17.190  13.386
64930W        W31339  19.455  33.847   4.764
64931W        W31340   4.677  26.710   4.208
64932W        W31341  37.326  14.969   1.494
64933W        W31342   6.117  43.844   2.713
64934W        W31343  10.942  28.980  12.095
64935W        W31344  35.426  33.616  14.904
64936W        W31345   9.223  12.174   0.850
64937W        W31346  11.663   2.326   4.021
64938W        W31347  28.720  27.235   3.082
64939W        W31348   5.813  28.017  11.464
64940W        W31349  36.494  28.437  13.074
64941W        W31350   3.729  16.000  13.073
64942W        W31351  21.275  43.586   4.009
64943W        W31352  21.223  21.259   0.641
64944W        W31353   0.722   0.314   1.454
64945W        W31354   2.954  25.420   4.946
64946W        W31355  25.406  44.739  10.435
64947W        W31356  24.486  14.773  13.840
64948W        W31357  17.109  16.532  11.616
64949W        W31358  24.423   5.387   3.117
64950W        W31359  13.351  41.836   4.058
64951W        W31360   8.766  24.191  14.164
64952W        W31361  13.949  34.596  12.051
64953W        W31362   0.310  44.481   0.424
64954W        W31363  37.796   6.824   2.358
64955W        W31364  38.086  15.345  12.034
64956W        W31365  20.686  13.881  12.106
64957W        W31366  27.935   0.398   2.806
64958W        W31367  42.267   3.549   0.377
64959W        W31368  28.017  34.581   0.160
64960W        W31369  35.939  18.632   0.891
64961W        W31370  39.585  24.899  11.111
64962W        W31371  14.997  36.972  11.057
64963W        W31372  24.983  15.600   3.140
64964W        W31373   1.385  25.237   4.396
64965W        W31374   4.250  37.950   2.419
64966W        W31375  19.021  21.011   3.664
64967W        W31376   7.803  10.410  12.136
64968W        W31377   6.316  41.292   4.608
64969W        W31378  36.358  28.580  13.960
64970W        W31379  40.949  11.320  14.319
64971W        W31380   9.294  17.729  11.964
64972W        W31381   7.406  14.288  10.717
64973W        W31382  24.669  13.073   1.834
64974W        W31383  31.834  11.170  11.643
64975W        W31384   0.961  29.659   3.861
64976W        W31385   4.155  17.264   4.029
64977W        W31386  19.012   0.206  12.382
64978W        W31387  21.149  34.051   3.607
64979W        W31388  27.817  33.666   2.871
64980W        W31389  22.551  37.985   4.411
64981W        W31390   1.970  21.248  12.442
64982W        W31391   8.235  39.807   0.913
64983W        W31392  27.880  41.442   4.569
64984W        W31393   6.240  36.432  12.965
64985W        W31394  32.531  34.369  14.882
64986W        W31395  44.236  41.283   3.325
64987W        W31396   1.688   6.670   3.394
64988W        W31397  35.178  30.596  12.841
64989W        W31398  25.553  28.697  10.636
64990W        W31399  42.995  32.131   4.166
64991W        W31400  30.579  40.434  12.629
64992W        W31401  27.518   9.585   0.555
64993W        W31402   8.709  19.738  10.711
64994W        W31403  27.160  29.763  12.447
64995W        W31404  40.814  22.760  13.491
64996W        W31405  25.213  18.973  14.517
64997W        W31406  19.538  22.631   3.398
64998W        W31407  17.729  10.917   1.789
64999W        W31408  21.866  10.373  12.203
65000W        W31409  15.997  36.384   3.313
65001W        W31410  37.403   5.968  13.923
65002W        W31411  23.498  35.947   2.719
65003W        W31412  22.359  16.359   2.122
65004W        W31413   0.986  28.620   3.895
65005W        W31414  18.660  44.957  13.001
65006W        W31415  39.579  39.826   3.398
65007W        W31416  12.643   2.262   4.717
65008W        W31417  38.307   5.932   2.335
65009W        W31418   6.466   1.415   3.335
65010W        W31419  34.420  21.992   3.326
65011W        W31420  18.833  13.601  12.430
65012W        W31421  19.346  16.137  11.971
65013W        W31422  40.581   8.276   2.201
65014W        W31423   2.947   6.371  13.526
65015W        W31424  28.624   8.615  12.619
65016W        W31425  27.368  26.980  14.287
65017W        W31426  32.162  22.049  12.569
65018W        W31427  18.215  37.601   1.457
65019W        W31428  21.547  20.504  12.517
65020W        W31429   2.318  20.819  12.966
65021W        W31430  43.305  15.402  12.314
65022W        W31431  43.278  32.458   0.281
65023W        W31432  39.384   3.886  14.004
65024W        W31433   3.190  33.360  10.568
65025W        W31434   8.287   9.404   1.161
65026W        W31435   8.127  43.885   1.904
65027W        W31436  39.121  15.128   0.850
65028W        W31437   4.734  28.045  14.887
65029W        W31438  26.439  39.913  14.284
65030W        W31439  39.668   1.776  14.284
65031W        W31440  26.858  30.002   0.988
65032W        W31441   0.539  12.341   5.313
65033W        W31442  11.665  17.330   1.725
65034W        W31443  31.392  15.314  14.102
65035W        W31444  33.654   6.462  11.263
65036W        W31445  10.050   4.436   4.351
65037W        W31446   0.997  21.301  14.594
65038W        W31447  16.613   6.767   4.039
65039W        W31448  43.936  23.995   0.667
65040W        W31449  27.788  35.962   3.689
65041W        W31450  13.309  16.820   1.751
65042W        W31451  32.368  30.974  11.143
65043W        W31452  44.384   2.180   0.691
65044W        W31453   2.925   4.937  13.448
65045W        W31454   7.160  33.307   3.657
65046W        W31455  24.135  27.173   1.296
65047W        W31456  30.829  12.578  12.510
65048W        W31457  38.850  36.186   2.683
65049W        W31458  22.174   5.084  14.295
65050W        W31459  35.570  17.795   4.652
65051W        W31460  23.970  37.375   0.469
65052W        W31461  41.268   6.224  13.863
65053W        W31462  33.832  13.937   5.310
65054W        W31463  16.098   3.727  12.461
65055W        W31464   3.415  44.097  13.886
65056W        W31465  24.518  15.738   0.354
65057W        W31466  15.903   0.111  13.575
65058W        W31467  29.649   7.857   0.929
65059W        W31468  32.089  24.039  10.499
65060W        W31469   9.367   4.334  14.410
65061W        W31470   8.717  30.249  13.520
65062W        W31471  12.908  26.534  14.965
65063W        W31472  40.159   7.461   4.424
65064W        W31473  29.798   8.413   5.359
65065W        W31474  40.682  16.238  13.399
65066W        W31475   1.447   5.881  11.926
65067W        W31476  19.758  27.180   2.272
65068W        W31477  17.502  19.631  13.807
65069W        W31478  30.572  11.244   4.144
65070W        W31479  44.321  35.846   4.399
65071W        W31480  11.814  13.263  12.691
65072W        W31481  19.686  34.049  14.851
65073W        W31482  29.431  21.744   1.536
65074W        W31483   9.660  19.665   2.632
65075W        W31484   1.638  19.393   4.042
65076W        W31485  44.058  19.111  11.577
65077W        W31486  21.223  21.688  10.014
65078W        W31487  43.662  44.911   2.066
65079W        W31488  38.460  20.770   2.783
65080W        W31489  24.606  13.537   1.247
65081W        W31490  17.219   8.753  12.097
65082W        W31491   6.072  18.130  10.198
65083W        W31492  32.182  40.898  13.440
65084W        W31493  13.133  17.377  13.728
65085W        W31494   0.813  10.511  13.081
65086W        W31495   3.748  32.524   2.263
65087W        W31496   3.349  32.872  13.027
65088W        W31497  24.171  27.640   1.530
65089W        W31498  12.811  43.766   0.858
65090W        W31499  10.584   5.997   0.028
65091W        W31500  19.512  20.341   1.633
65092W        W31501  11.165  38.093  14.317
65093W        W31502  30.672  31.252   3.329
65094W        W31503  17.144  28.612  14.185
65095W        W31504  38.742  37.976   4.966
65096W        W31505  11.387   2.708   4.290
65097W        W31506  11.906  18.735  11.970
65098W        W31507   9.306  18.203  12.175
65099W        W31508  22.925   8.390   2.312
65100W        W31509  24.799  39.398   4.612
65101W        W31510  15.407  35.979   1.729
65102W        W31511  27.218  38.116   0.398
65103W        W31512  27.611  24.585   3.350
65104W        W31513  21.155  37.523   4.545
65105W        W31514  26.249  15.166  11.126
65106W        W31515  36.359  18.746  13.499
65107W        W31516  31.961  19.546   1.797
65108W        W31517  17.310  18.568   0.820
65109W        W31518  19.159  38.508  11.084
65110W        W31519  32.418   0.003  11.964
65111W        W31520  38.495  22.627  14.083
65112W        W31521  35.426  14.281   4.653
65113W        W31522  19.267   4.910  12.947
65114W        W31523  39.739   3.640   4.067
65115W        W31524  14.123  21.449  14.350
65116W        W31525  10.622  31.200  10.336
65117W        W31526   7.340  29.860   0.509
65118W        W31527  39.042   2.184   4.257
65119W        W31528  30.096  43.408  14.059
65120W        W31529  43.198  10.527  14.081
65121W        W31530  42.090  14.702  12.486
65122W        W31531  41.791  37.071  12.047
65123W        W31532  16.614   3.536   1.387
65124W        W31533  35.104  30.169  14.464
65125W        W31534  31.312  18.116   1.841
65126W        W31535  11.194  23.046  12.906
65127W        W31536  10.809  12.725   0.791
65128W        W31537  39.865  38.518  10.714
65129W        W31538  26.254  15.562  14.809
65130W        W31539  25.304  19.765  11.147
65131W        W31540  28.146  27.011  14.969
65132W        W31541  19.105  33.385  12.885
65133W        W31542  42.221  11.328   1.810
65134W        W31543   0.180  44.839   1.714
65135W        W31544  11.354  29.863   3.447
65136W        W31545  22.497   0.224   4.060
65137W        W31546   8.685  42.769   1.475
65138W        W31547   6.703  33.651  13.799
65139W        W31548  29.243  30.584   4.045
65140W        W31549   8.233  20.489  10.568
65141W        W31550  39.003   7.921  14.034
65142W        W31551  12.235  11.717   4.876
65143W        W31552  43.260  11.963   4.582
65144W        W31553  24.676  12.635  14.101
65145W        W31554  42.164  27.564  11.597
65146W        W31555  25.989  35.576  14.447
65147W        W31556  33.349  20.914  11.953
65148W        W31557  29.522  30.043  12.850
65149W        W31558  15.388  14.836   3.159
65150W        W31559  30.386  16.664   0.835
65151W        W31560  31.753  19.267   3.145
65152W        W31561  24.944  44.345  12.539
65153W        W31562  16.184  36.283  10.218
65154W        W31563  41.299  26.772  11.951
65155W        W31564  30.363  23.244  14.078
65156W        W31565  29.985  34.985  11.164
65157W        W31566  25.074  19.348   2.395
65158W        W31567  16.907   5.812  12.547
65159W        W31568   2.021   9.442   2.321
65160W        W31569  27.969  22.498  14.419
65161W        W31570  19.551  41.842   1.478
65162W        W31571  22.631  15.037   1.118
65163W        W31572  25.491  35.253  12.920
65164W        W31573  41.515  20.826  13.334
65165W        W31574  24.996  13.228   2.202
65166W        W31575  39.057  26.161   3.840
65167W        W31576   1.580   8.103   1.366
65168W        W31577  19.579  22.168  14.794
65169W        W31578  21.044  32.890   2.679
65170W        W31579  19.567  13.614  14.952
65171W        W31580   1.379   7.423   0.032
65172W        W31581  26.001  38.804   3.290
65173W        W31582  41.608  29.344  12.926
65174W        W31583   6.465  24.931  12.327
65175W        W31584  19.620  38.775   2.802
65176W        W31585  23.978  23.621   4.518
65177W        W31586  28.466   9.173  14.477
65178W        W31587  35.930  14.305  12.270
65179W        W31588  25.401  34.709  13.592
65180W        W31589  35.354  20.256  11.986
65181W        W31590  26.407  42.284   4.715
65182W        W31591   1.305   4.926  12.006
65183W        W31592  35.258   3.537  12.151
65184W        W31593  26.946   6.387   4.121
65185W        W31594  41.787  13.119  11.527
65186W        W31595  36.342   7.674  12.825
65187W        W31596  12.847  26.114   0.295
65188W        W31597  29.602  20.245  12.472
65189W        W31598  24.388  44.109  11.195
65190W        W31599  27.905  40.895   2.435
65191W        W31600  16.267   5.953   2.449
65192W        W31601  20.964  27.723   1.292
65193W        W31602  40.523  15.670  14.430
65194W        W31603  29.903  18.914   4.151
65195W        W31604  23.214  44.354  11.932
65196W        W31605  37.758  23.224  11.175
65197W        W31606  34.168   2.467  11.148
65198W        W31607   5.019  12.468  13.451
65199W        W31608  38.328   7.759  14.779
65200W        W31609  15.636  43.373  11.871
65201W        W31610  30.133   2.339  13.035
65202W        W31611  40.714  11.480  10.244
65203W        W31612   0.166  40.031  13.783
65204W        W31613  41.222   3.937  14.072
65205W        W31614  38.036  30.752  12.465
65206W        W31615  43.582   1.654   4.296
65207W        W31616  43.630   2.873  12.048
65208W        W31617  35.010  29.367  12.461
65209W        W31618   0.707  11.142  11.396
65210W        W31619  37.493  19.244  13.793
65211W        W31620  33.024  34.093  13.586
65212W        W31621  26.929   1.179  12.100
65213W        W31622  35.321   0.712  14.916
65214W        W31623  17.172  17.966  12.629
65215W        W31624  16.852  26.239   4.162
65216W        W31625  23.746  39.901  11.020
65217W        W31626   4.773  11.269  10.651
65218W        W31627  22.191  43.326   0.979
65219W        W31628   4.917   9.855  14.322
65220W        W31629   9.617  13.567   2.250
65221W        W31630  27.983  20.390   4.098
65222W        W31631  19.073   7.235   2.879
65223W        W31632  34.923   7.229   3.253
65224W        W31633  13.816  12.400   4.041
65225W        W31634   1.710  32.732  13.025
65226W        W31635  39.481  41.615   0.435
65227W        W31636  26.456  23.770  11.224
65228W        W31637   3.393  44.354   3.220
65229W        W31638  19.157  18.069   3.269
65230W        W31639  36.643  21.316  11.459
65231W        W31640  39.812  25.099  14.282
65232W        W31641  12.343  42.760  14.461
65233W        W31642  15.309  31.078   4.572
65234W        W31643   7.234   2.793  13.004
65235W        W31644   0.509  38.792  11.198
65236W        W31645  15.345  31.608  12.500
65237W        W31646  41.952   7.828   4.819
65238W        W31647  10.042  31.979  13.549
65239W        W31648  40.861  37.899   4.524
65240W        W31649   7.396  19.642  14.589
65241W        W31650  13.886  43.964   3.445
65242W        W31651  29.492  26.336   5.006
65243W        W31652  25.550  33.333  13.229
65244W        W31653  39.619  30.048   0.745
65245W        W31654  35.579   4.935  12.390
65246W        W31655  43.909   0.822  11.409
65247W        W31656   1.945  31.976   0.026
65248W        W31657  22.598  23.154  13.917
65249W        W31658  32.861  35.097  13.332
65250W        W31659   6.714  18.118   3.748
65251W        W31660  37.533   6.375   2.425
65252W        W31661   0.994  30.578   4.024
65253W        W31662  29.408   0.654   1.750
65254W        W31663  37.903  27.618   3.738
65255W        W31664  19.625  41.113  11.248
65256W        W31665  26.687   8.383   3.842
65257W        W31666  29.342  40.101   3.555
65258W        W31667  20.517  37.926   4.490
65259W        W31668  43.917  17.638   4.593
65260W        W31669   2.310   5.239   0.771
65261W        W31670  37.806  13.157  12.550
65262W        W31671   8.936  42.698   3.649
65263W        W31672  19.698   2.545   2.781
65264W        W31673   7.662  20.096   2.201
65265W        W31674  16.058  36.721  14.407
65266W        W31675  36.079  18.157   1.113
65267W        W31676  21.568  37.899   3.337
65268W        W31677  25.481   7.918  13.566
65269W        W31678  41.320  43.539  14.744
65270W        W31679  22.637  39.508  12.383
65271W        W31680  30.645  23.483   0.534
65272W        W31681  25.291   5.146   0.037
65273W        W31682   1.182  10.017   2.359
65274W        W31683   9.199  28.240  11.479
65275W        W31684  14.476  25.882   2.163
65276W        W31685  38.167  26.149   0.967
65277W        W31686  33.180  11.769   0.475
65278W        W31687  28.448  41.418  11.593
65279W        W31688   8.926  43.804   4.235
65280W        W31689  40.344  27.079   1.795
65281W        W31690  34.186   7.227  10.701
65282W        W31691  10.691  23.067   2.247
65283W        W31692  16.314  14.314  14.955
65284W        W31693   2.798   0.227  11.535
65285W        W31694  29.888  30.175   3.796
65286W        W31695  40.984  28.859   0.114
65287W        W31696  25.639  12.206  12.141
65288W        W31697  25.482   4.824   1.728
65289W        W31698  39.292  38.977  11.217
65290W        W31699  25.295  29.619   2.407
65291W        W31700  25.574  13.904  11.809
65292W        W31701  40.967  44.367  14.422
65293W        W31702  19.442  41.155   0.742
65294W        W31703  43.759  28.888   2.751
65295W        W31704   1.726  35.517  11.133
65296W        W31705  17.933  34.795   1.009
65297W        W31706  26.754  27.466  10.289
65298W        W31707   6.919  11.196  13.727
65299W        W31708  40.885  32.281   0.368
65300W        W31709  10.226  28.507   3.640
65301W        W31710  26.952   8.424  14.975
65302W        W31711   2.604  25.249  14.577
65303W        W31712   2.442  33.095   0.192
65304W        W31713  44.776  12.054   2.539
65305W        W31714   5.843   5.014  12.408
65306W        W31715  12.922  37.374   1.185
65307W        W31716  37.373  30.762  13.437
65308W        W31717  30.134  21.695  10.973
65309W        W31718  11.430   4.614   0.882
65310W        W31719  37.963   3.239  13.413
65311W        W31720   1.296  25.460   3.838
65312W        W31721  24.209  29.427  12.482
65313W        W31722   1.714  23.887   1.851
65314W        W31723  27.121   6.083   4.619
65315W        W31724  11.744  17.242  14.446
65316W        W31725  24.656  20.608   5.487
65317W        W31726   7.187  27.126   3.563
65318W        W31727  11.851   9.065  14.424
65319W        W31728  19.519  24.602   3.764
65320W        W31729   9.172  34.116  14.208
65321W        W31730  20.015  43.802   4.340
65322W        W31731   0.406  19.952   2.356
65323W        W31732  24.589  44.457   0.446
65324W        W31733  22.553  39.372   4.570
65325W        W31734  25.016   4.807  13.857
65326W        W31735  31.605   0.233  11.255
65327W        W31736   9.273   3.923   0.646
65328W        W31737  42.538   6.160   2.756
65329W        W31738   4.411  26.076  12.668
65330W        W31739  42.946  19.409  10.297
65331W        W31740  35.772  21.221   3.189
65332W        W31741  15.114  41.995   3.970
65333W        W31742  13.735  16.642  12.136
65334W        W31743  25.427   4.553  13.088
65335W        W31744  31.828  13.728   4.219
65336W        W31745  17.422   5.807  12.582
65337W        W31746  36.885   6.838  13.030
65338W        W31747  40.177  26.999   2.290
65339W        W31748  30.574  33.389  13.493
65340W        W31749  21.693   3.782   0.553
65341W        W31750   1.045  21.006   3.676
65342W        W31751  42.401  44.576   1.836
65343W        W31752  33.189   7.321   4.111
65344W        W31753   3.196  21.471  10.566
65345W        W31754  42.815  24.996   2.117
65346W        W31755  37.613  29.833   0.945
65347W        W31756  16.169   5.473  11.207
65348W        W31757  34.990  14.830  14.229
65349W        W31758   4.494  24.217   4.233
65350W        W31759  15.872  15.261  12.005
65351W        W31760  43.083  26.556   0.323
65352W        W31761  39.457  25.513   3.619
65353W        W31762  30.550  22.944  14.986
65354W        W31763  18.738  20.602   5.124
65355W        W31764  16.283  35.367  13.448
65356W        W31765  34.820  44.500  13.317
65357W        W31766  26.355  30.059   1.462
65358W        W31767  32.117  14.065   1.968
65359W        W31768  29.507  37.562  14.365
65360W        W31769  10.873  20.824   3.336
65361W        W31770  16.611  11.149  12.545
65362W        W31771  35.653   8.184   2.726
65363W        W31772   3.753  30.923   4.312
65364W        W31773  15.603  20.969  11.123
65365W        W31774  34.472  14.354   0.399
65366W        W31775  42.538  40.924   3.716
65367W        W31776  24.070   7.287  13.091
65368W        W31777  40.571   7.004  10.586
65369W        W31778  44.291  41.989   2.604
65370W        W31779  36.395  11.193   0.685
65371W        W31780  41.514  28.426  14.317
65372W        W31781  36.026  32.980  13.848
65373W        W31782  25.794   9.178   2.188
65374W        W31783  22.910   9.714   2.241
65375W        W31784  30.955  31.942   1.715
65376W        W31785  44.794  14.116   4.696
65377W        W31786  21.296  35.427   1.138
65378W        W31787  28.906  31.062  11.009
65379W        W31788  10.798  39.361   3.652
65380W        W31789  22.013  37.040   1.843
65381W        W31790  33.153  19.282   0.832
65382W        W31791  15.717  11.843   2.323
65383W        W31792  25.468   7.973   0.498
65384W        W31793  30.473  32.483   1.288
65385W        W31794  20.166  26.757  11.118
65386W        W31795  10.762  11.658   4.315
65387W        W31796  25.456  14.746  12.935
65388W        W31797  39.026  23.565   1.077
65389W        W31798  13.597   7.666   0.828
65390W        W31799   6.984  32.990  11.689
65391W        W31800  32.531  18.483  14.328
65392W        W31801  15.236  33.650  10.939
65393W        W31802  22.597  18.601  10.386
65394W        W31803   6.377  44.191   2.375
65395W        W31804  24.728  24.084  11.442
65396W        W31805  17.199  30.011  11.223
65397W        W31806  15.676  23.931  10.373
65398W        W31807  43.991   6.146  10.578
65399W        W31808  19.094  33.541   4.528
65400W        W31809  10.298  23.531  13.617
65401W        W31810   2.209  19.620  10.710
65402W        W31811  16.055  27.892   4.709
65403W        W31812  25.128  35.738  12.514
65404W        W31813  43.106  29.358  13.051
65405W        W31814  11.460  24.095  10.480
65406W        W31815   3.614  20.765   4.216
65407W        W31816  11.865  22.303  11.023
65408W        W31817  31.015  40.902   3.352
65409W        W31818  21.112   7.519   0.485
65410W        W31819  29.365   6.150  10.768
65411W        W31820  33.380   2.251  13.456
65412W        W31821  15.689  41.903  11.645
65413W        W31822   4.550  40.787   3.868
65414W        W31823  35.027  34.597  14.514
65415W        W31824   2.698   4.151  14.343
65416W        W31825  15.667   8.109  14.808
65417W        W31826   6.061  39.660  14.027
65418W        W31827  20.588  40.405  14.247
65419W        W31828   1.739  40.083   0.434
65420W        W31829  10.570  26.169   3.643
65421W        W31830  44.018  29.603  14.444
65422W        W31831  15.799   2.843  12.931
65423W        W31832  16.417  38.416  14.781
65424W        W31833  26.799   0.757   2.423
65425W        W31834  33.947  26.635  11.154
65426W        W31835  15.680   4.243  13.827
65427W        W31836  20.837   8.240   3.607
65428W        W31837  16.245  30.450   3.387
65429W        W31838  34.303   7.758  10.522
65430W        W31839  26.989   2.659  10.712
65431W        W31840   6.172  38.337  14.806
65432W        W31841   9.896   8.421   1.349
65433W        W31842   8.610   6.310   2.825
65434W        W31843  12.543   9.634   0.542
65435W        W31844  13.155  27.244  11.720
65436W        W31845  34.678  44.870   3.408
65437W        W31846  27.920  10.619  11.175
65438W        W31847   3.327  16.343  12.841
65439W        W31848  26.471  27.973  13.816
65440W        W31849  11.180  36.318  14.800
65441W        W31850  20.601   4.105   5.110
65442W        W31851  23.761  38.828  12.137
65443W        W31852  23.786  38.291  14.814
65444W        W31853  22.109  43.535  13.860
65445W        W31854  30.554   4.758   4.128
65446W        W31855  34.374  29.436  11.577
65447W        W31856  36.994  27.185   1.693
65448W        W31857  34.717  33.064   0.450
65449W        W31858   8.809  18.455   0.815
65450W        W31859   8.803  36.271   2.691
65451W        W31860   0.504  12.472  12.559
65452W        W31861  19.501  44.488  10.679
65453W        W31862  14.100  32.060   1.346
65454W        W31863   5.929   8.233   0.518
65455W        W31864  23.650  34.894   0.616
65456W        W31865  38.876  26.723  12.059
65457W        W31866   5.343   7.620  13.398
65458W        W31867  11.383  38.945  13.201
65459W        W31868  27.576  13.583  14.905
65460W        W31869   9.656  23.830  11.142
65461W        W31870   9.212  32.954   0.772
65462W        W31871  29.182  35.776   5.442
65463W        W31872  44.318  13.712  10.305
65464W        W31873  43.031  31.278   1.800
65465W        W31874   0.851   6.707   2.847
65466W        W31875  12.802   7.771   4.078
65467W        W31876   1.787  38.885   2.293
65468W        W31877  14.595   5.868  13.359
65469W        W31878  40.388  24.947   4.893
65470W        W31879  30.689  40.587  14.348
65471W        W31880  25.094  34.791  10.455
65472W        W31881  29.978   8.610  11.339
65473W        W31882   9.658  35.434  10.229
65474W        W31883  13.818  42.274   2.825
65475W        W31884  18.504  38.645   2.363
65476W        W31885   1.289  42.713   2.302
65477W        W31886  25.171  29.138   2.584
65478W        W31887  40.830  33.780   4.736
65479W        W31888  36.781  27.125   4.108
65480W        W31889  16.002  21.495  14.914
65481W        W31890  42.401  37.881   3.825
65482W        W31891  43.225   9.635  12.488
65483W        W31892  23.186  14.619  14.280
65484W        W31893   6.194   9.654  10.737
65485W        W31894  43.566   5.901   2.696
65486W        W31895   6.877  23.596   4.583
65487W        W31896  17.004   7.939  13.117
65488W        W31897  24.356  24.237  14.075
65489W        W31898  10.739   1.035   0.427
65490W        W31899  35.581  24.741  13.446
65491W        W31900   9.705  41.974   1.899
65492W        W31901  16.674   9.616  14.266
65493W        W31902  31.069  26.035  14.576
65494W        W31903  33.393  16.166  11.056
65495W        W31904  15.910  40.104   0.452
65496W        W31905  40.830  29.737   4.374
65497W        W31906  21.636  29.345   0.609
65498W        W31907   7.390  22.202  14.986
65499W        W31908   1.781  25.895  11.623
65500W        W31909  38.286   1.523   0.761
65501W        W31910  44.936  31.713   4.076
65502W        W31911  12.583  23.518   9.818
65503W        W31912  33.447  43.152   5.277
65504W        W31913  36.854  36.073   4.763
65505W        W31914  19.527  34.819  14.736
65506W        W31915   7.765  31.167  12.303
65507W        W31916  40.127  30.106  11.918
65508W        W31917  36.362  43.536  11.992
65509W        W31918  44.431   9.201  11.923
65510W        W31919  15.624  32.472   2.962
65511W        W31920  44.995  33.987  13.923
65512W        W31921  42.296  37.571  10.953
65513W        W31922  33.033  39.610  11.169
65514W        W31923  13.121  16.860  13.829
65515W        W31924  17.282  13.340  13.970
65516W        W31925  26.496  38.640  14.979
65517W        W31926  26.266  32.193  11.236
65518W        W31927  12.635  13.445   3.465
65519W        W31928  39.677  17.228  13.038
65520W        W31929  21.985   3.500  10.064
65521W        W31930  33.001  22.691  12.581
65522W        W31931  21.168  23.093  13.423
65523W        W31932  35.423   1.156   9.864
65524W        W31933  19.692  12.143   1.174
65525W        W31934  29.534  30.973  11.780
65526W        W31935   0.553   3.012   1.866
65527W        W31936  36.132  32.937   2.180
65528W        W31937  10.774  42.151   2.347
65529W        W31938  26.203   1.953   3.239
65530W        W31939  39.295  29.742  14.898
65531W        W31940  35.841  18.380   2.907
65532W        W31941  42.272  17.783   3.338
65533W        W31942  19.796  18.027   2.774
65534W        W31943   6.907  30.914   2.344
65535W        W31944  27.883  18.978  11.503
65536W        W31945  14.742  27.897   1.272
65537W        W31946  34.080  37.528   2.692
65538W        W31947  12.409   8.662  13.130
65539W        W31948   7.701  19.624  12.026
65540W        W31949  38.468  25.420  11.619
65541W        W31950  15.709   9.241  11.433
65542W        W31951  43.252  10.331  12.977
65543W        W31952  20.451  11.670  11.942
65544W        W31953  37.834  18.513   2.967
65545W        W31954  23.649   3.990  10.951
65546W        W31955   0.132  25.250   4.279
65547W        W31956   7.846  17.840  10.682
65548W        W31957  15.832  40.119   2.720
65549W        W31958   4.919  23.921   2.570
65550W        W31959  19.800   9.789  12.461
65551W        W31960   1.906  16.329  14.882
65552W        W31961  32.081  17.169  10.708
65553W        W31962  21.134  17.615   1.466
65554W        W31963  17.697   0.366  11.211
65555W        W31964  18.599  30.251  11.155
65556W        W31965   7.660  10.224  11.679
65557W        W31966  17.195  38.915   4.938
65558W        W31967  19.185  31.991   1.008
65559W        W31968  13.655  40.536   4.288
65560W        W31969   6.395   8.722  12.931
65561W        W31970  37.091   8.719  10.814
65562W        W31971  30.067  31.268  13.109
65563W        W31972  33.862   5.464  14.387
65564W        W31973  32.079   0.347  12.581
65565W        W31974  13.108  17.934  10.853
65566W        W31975  26.915  13.667  12.103
65567W        W31976  21.153   6.378  12.749
65568W        W31977   4.520   2.238  13.784
65569W        W31978  25.293  30.663  10.329
65570W        W31979  40.085  22.662   0.214
65571W        W31980  42.296  43.121  11.269
65572W        W31981  41.369  11.201  14.769
65573W        W31982  28.002  12.969  13.463
65574W        W31983  13.706  13.320   2.422
65575W        W31984  43.369  24.804  12.131
65576W        W31985   7.808   2.514  12.988
65577W        W31986  14.886  28.240  14.287
65578W        W31987  30.118  40.497  10.737
65579W        W31988  18.236  17.474   0.993
65580W        W31989  43.843  25.562   4.119
65581W        W31990   1.869   0.838   2.842
65582W        W31991   4.797  30.093   2.095
65583W        W31992   0.324  27.240  13.943
65584W        W31993   7.868  10.212   1.770
65585W        W31994   1.297  20.746  10.315
65586W        W31995   2.840  22.536   4.525
65587W        W31996  23.854  16.253   1.823
65588W        W31997  23.138  11.204  12.391
65589W        W31998  16.995   9.196   1.820
65590W        W31999   4.460  33.032   4.834
65591W        W32000  32.875  22.589  13.051
65592W        W32001  42.351  17.986  11.099
65593W        W32002  33.919  16.996  11.582
65594W        W32003  21.321  18.296  11.492
65595W        W32004  19.320  41.990   3.250
65596W        W32005  33.015  43.184  11.961
65597W        W32006   2.177  39.815  13.690
65598W        W32007  30.118  38.806   4.472
65599W        W32008  18.175  30.101  13.964
65600W        W32009  35.898  35.541  14.054
65601W        W32010  41.022  19.079  13.832
65602W        W32011  19.384   1.015   4.565
65603W        W32012  33.543  24.951  14.970
65604W        W32013  30.331   9.822   4.022
65605W        W32014  14.775  38.796   3.615
65606W        W32015  29.967  23.387   3.875
65607W        W32016  39.514  33.363  12.708
65608W        W32017  15.307  11.353   1.156
65609W        W32018  15.574  39.856  13.957
65610W        W32019  11.208   5.585  14.379
65611W        W32020  38.035   0.425   0.027
65612W        W32021  35.212  33.016   0.524
65613W        W32022  19.249   1.962  13.984
65614W        W32023  17.104   7.797   3.588
65615W        W32024  35.115  11.923  14.931
65616W        W32025  36.088   6.910  14.500
65617W        W32026   2.314  42.949  10.670
65618W        W32027  19.696  43.422   1.364
65619W        W32028  12.414  13.093  13.571
65620W        W32029  14.357  22.687  14.229
65621W        W32030  34.538  17.613  12.616
65622W        W32031  33.479  22.198  13.051
65623W        W32032  40.154   7.279  14.751
65624W        W32033  44.894  29.612  10.680
65625W        W32034  14.671  15.008   0.301
65626W        W32035  39.523  10.994  12.582
65627W        W32036   7.570  33.199   2.421
65628W        W32037  34.616  36.894  11.622
65629W        W32038  29.597   9.664   3.342
65630W        W32039  11.087  13.772   2.772
65631W        W32040   9.379   6.924  14.759
65632W        W32041  32.441   1.042   5.240
65633W        W32042  17.205  32.204  12.638
65634W        W32043  29.346   4.206   1.872
65635W        W32044   8.685   3.883   5.222
65636W        W32045  37.385  35.997   2.745
65637W        W32046   7.181   0.013   2.252
65638W        W32047  33.480  40.902  11.554
65639W        W32048  35.039  16.008  13.035
65640W        W32049  28.370  19.030  13.922
65641W        W32050  19.543  17.304   3.355
65642W        W32051   7.905  15.654  14.504
65643W        W32052  15.821  25.828   3.955
65644W        W32053  26.716  31.182  12.496
65645W        W32054   9.792  34.603  14.454
65646W        W32055  18.800   5.047   4.651
65647W        W32056   0.513  25.323  12.100
65648W        W32057  44.523   7.904  14.916
65649W        W32058  10.659  32.745  14.100
65650W        W32059  31.026  32.586  13.449
65651W        W32060  37.579  33.159  13.003
65652W        W32061  44.781  38.397  11.588
65653W        W32062  35.861  39.350   2.656
65654W        W32063  31.538  40.055  12.375
65655W        W32064  35.941   8.108   0.721
65656W        W32065  25.759  15.500   5.046
65657W        W32066  22.207  10.070  10.379
65658W        W32067   9.364  43.770   4.949
65659W        W32068  26.985  18.816   4.413
65660W        W32069   7.159  22.800   2.155
65661W        W32070  11.391  43.411  10.600
65662W        W32071  42.794  29.392   3.150
65663W        W32072  10.760  40.863   4.075
65664W        W32073  36.472  40.962  14.749
65665W        W32074  16.333  16.706   3.940
65666W        W32075   2.275  30.112   1.462
65667W        W32076  11.885  24.123   5.127
65668W        W32077   1.524   8.580   4.471
65669W        W32078  10.737  25.706   2.187
65670W        W32079  20.234  28.989  13.038
65671W        W32080  10.332  34.705   5.538
65672W        W32081  20.949  43.673  14.377
65673W        W32082   7.188  36.872   3.760
65674W        W32083   3.672  35.473  11.602
65675W        W32084  14.535  23.436  13.601
65676W        W32085  34.244   2.018  11.382
65677W        W32086  13.847  28.060  11.762
65678W        W32087  37.561  41.801   1.343
65679W        W32088  31.456  36.427  14.208
65680W        W32089  20.636   6.252  11.677
65681W        W32090  15.197   8.640   2.254
65682W        W32091   4.724   1.759   1.806
65683W        W32092   9.424  30.820   4.051
65684W        W32093  44.434  44.578   2.300
65685W        W32094  12.714  19.205  12.837
65686W        W32095  13.802  34.303   0.827
65687W        W32096  29.011  23.962   1.362
65688W        W32097  20.269  41.790   0.774
65689W        W32098   7.833  34.085  14.306
65690W        W32099  22.999  25.150   3.236
65691W        W32100  10.505  33.682   2.281
65692W        W32101  14.866   8.055   4.242
65693W        W32102  12.420  41.773  14.333
65694W        W32103  33.198  20.122  13.524
65695W        W32104   8.862  36.119  14.346
65696W        W32105  30.468  19.174  12.443
65697W        W32106  40.121  44.699  12.025
65698W        W32107   4.633  21.976   2.758
65699W        W32108  10.126   2.219  13.413
65700W        W32109  36.116  18.295  13.505
65701W        W32110  23.403  10.891   0.860
65702W        W32111  39.281  16.755   1.738
65703W        W32112   8.868  35.853  12.889
65704W        W32113  38.333  44.886  12.447
65705W        W32114  40.331  23.718   0.529
65706W        W32115  39.336  29.339   1.323
65707W        W32116  26.471  39.129  11.244
65708W        W32117  19.487  18.790  12.201
65709W        W32118  44.510   1.688   3.010
65710W        W32119  42.304  38.788  10.415
65711W        W32120   1.058   0.669   1.198
65712W        W32121  11.346   2.419  11.602
65713W        W32122   3.797  17.827   1.820
65714W        W32123  41.694   0.411  10.632
65715W        W32124   4.826  36.723  10.649
65716W        W32125  44.745  30.923   4.595
65717W        W32126  39.431  31.401  10.449
65718W        W32127  24.141  19.259  14.030
65719W        W32128  29.881  26.656  11.953
65720W        W32129  39.005  20.059  11.141
65721W        W32130  10.371  42.065   3.668
65722W        W32131  42.193  22.648   2.197
65723W        W32132   9.371  36.031  14.339
65724W        W32133  41.227  27.580   1.117
65725W        W32134   1.745   8.136   9.744
65726W        W32135  16.222  29.425   1.483
65727W        W32136   3.669  36.446  14.400
65728W        W32137  16.694  19.728   3.760
65729W        W32138  15.868  28.923  13.195
65730W        W32139  12.718  18.711  10.670
65731W        W32140  15.999  31.234  12.036
65732W        W32141  18.239  12.352  11.900
65733W        W32142   6.284  14.061   1.889
65734W        W32143  11.321   5.149   3.654
65735W        W32144  17.740  36.449   0.814
65736W        W32145  38.251  28.369   4.085
65737W        W32146  21.600  29.834  14.373
65738W        W32147  30.776  42.830  13.342
65739W        W32148  38.463  15.582   3.291
65740W        W32149  32.312  14.298  14.057
65741W        W32150   7.934  37.663  14.684
65742W        W32151  16.350  35.196   0.218
65743W        W32152  25.250  39.275   4.321
65744W        W32153  18.324  28.559  11.554
65745W        W32154  20.199  28.075   3.638
65746W        W32155  19.114  29.028   0.867
65747W        W32156  38.171  19.371  10.387
65748W        W32157  32.515  22.452  10.681
65749W        W32158  22.265   1.696  13.501
65750W        W32159  17.096  25.068   1.795
65751W        W32160  28.679  40.024  12.449
65752W        W32161   1.837  10.768  12.404
65753W        W32162  37.152  41.819   0.953
65754W        W32163  28.915  44.898   0.987
65755W        W32164  15.519  40.362   2.351
65756W        W32165  13.692  26.313  14.550
65757W        W32166  10.745  17.305   3.628
65758W        W32167  42.175  16.797   5.447
65759W        W32168  21.520  33.819   2.787
65760W        W32169  12.185  35.208   1.396
65761W        W32170   5.321  34.951   4.942
65762W        W32171  16.608  37.015   1.466
65763W        W32172  31.048  38.309   0.318
65764W        W32173  36.020  16.819   0.875
65765W        W32174  32.840  30.477   0.359
65766W        W32175  16.595  31.345   4.284
65767W        W32176   5.344   9.024   3.230
65768W        W32177  15.019  17.680   4.590
65769W        W32178  20.085  11.565  11.103
65770W        W32179  12.139  11.256   3.188
65771W        W32180   5.737  25.672  13.347
65772W        W32181   6.278  19.618  14.491
65773W        W32182   6.283  32.984   4.483
65774W        W32183  37.012  22.945  10.272
65775W        W32184  22.799  14.205  14.228
65776W        W32185   1.361  17.807   2.860
65777W        W32186   5.728  27.417   0.457
65778W        W32187  31.094  43.335   3.146
65779W        W32188  36.848  22.662   0.994
65780W        W32189  29.970   0.362  11.527
65781W        W32190   0.093   4.161  11.178
65782W        W32191  27.048  35.542  14.301
65783W        W32192   0.434  17.070   1.685
65784W        W32193  10.729  28.901   1.346
65785W        W32194  20.393  24.949   4.337
65786W        W32195   1.934  14.758  10.966
65787W        W32196  15.438  21.324  10.759
65788W        W32197  27.104  37.876  13.357
65789W        W32198  37.736   9.223  11.196
65790W        W32199  23.450  40.892  11.694
65791W        W32200  28.393  18.159   0.529
65792W        W32201  42.603  41.295   3.193
65793W        W32202  35.621  43.357   2.765
65794W        W32203  25.315  38.527   1.992
65795W        W32204   0.752  19.551   2.288
65796W        W32205  30.667  16.096  10.645
65797W        W32206  11.288  11.792   4.228
65798W        W32207  18.756   9.583  13.327
65799W        W32208  22.242   8.236   4.619
65800W        W32209  34.293  26.487   3.291
65801W        W32210   3.500  22.791  14.588
65802W        W32211   8.711   8.393  14.938
65803W        W32212  20.093  30.291  11.908
65804W        W32213  38.817  23.696   2.684
65805W        W32214  18.114  19.926  14.928
65806W        W32215  24.147  17.906  11.976
65807W        W32216   0.780  11.700   2.752
65808W        W32217  14.576  36.534   3.636
65809W        W32218   2.359   7.448   1.251
65810W        W32219  20.915   2.013   3.173
65811W        W32220  18.926   5.418  11.418
65812W        W32221   4.795  34.118  12.000
65813W        W32222  39.010  26.344   3.355
65814W        W32223   6.093  13.299  12.477
65815W        W32224  33.152  14.427  11.198
65816W        W32225   5.958  12.794  10.603
65817W        W32226  40.864  40.404  10.781
65818W        W32227  26.116  39.518   0.360
65819W        W32228  12.872  43.414  11.436
65820W        W32229  39.906   3.943  12.349
65821W        W32230  18.606  35.144  13.475
65822W        W32231   8.856  19.042  12.789
65823W        W32232  43.002  16.841   5.062
65824W        W32233  39.201  35.585   1.128
65825W        W32234  36.891  26.236   0.340
65826W        W32235   3.199  44.263   5.279
65827W        W32236   6.877  15.029   3.712
65828W        W32237   4.526  34.825   4.219
65829W        W32238   5.635  14.171  12.523
65830W        W32239  34.450  23.411   0.918
65831W        W32240   6.362  12.266   3.709
65832W        W32241  21.071  31.427   1.255
65833W        W32242  24.970  12.771   4.027
65834W        W32243  41.921  13.877  13.917
65835W        W32244  19.473  17.301  13.450
65836W        W32245  25.839  39.366   4.834
65837W        W32246   9.244  15.672   3.255
65838W        W32247  17.784  33.831   3.626
65839W        W32248  20.013  42.865   4.026
65840W        W32249  12.192  37.599  12.057
65841W        W32250  33.125  42.706   1.190
65842W        W32251   8.828  26.928   1.059
65843W        W32252  40.000   4.898   1.618
65844W        W32253  37.662  33.439  14.352
65845W        W32254   2.668   8.661  12.035
65846W        W32255  29.427   5.111   3.262
65847W        W32256  30.879  22.569  10.329
65848W        W32257  16.043   1.893  12.082
65849W        W32258   2.376  44.745  10.861
65850W        W32259  40.772  13.847  12.290
65851W        W32260   0.456  36.041   4.126
65852W        W32261   8.911  18.176  10.759
65853W        W32262  39.369   3.308  11.338
65854W        W32263  23.972  17.246   1.618
65855W        W32264  13.541  13.095  13.868
65856W        W32265  28.108   5.712   2.212
65857W        W32266  44.954  20.957   1.368
65858W        W32267  41.343  42.213  12.352
65859W        W32268  31.490  16.782   1.705
65860W        W32269  40.581  44.580  12.179
65861W        W32270  32.358  35.081  11.212
65862W        W32271  41.184   8.780   0.914
65863W        W32272  42.834  12.383   2.355
65864W        W32273   9.331   3.744   3.212
65865W        W32274  37.329   0.039   4.060
65866W        W32275  37.903  23.781   0.684
65867W        W32276   2.508  21.728  14.189
65868W        W32277  32.106  18.511   3.326
65869W        W32278   9.752   5.839   4.663
65870W        W32279  29.759  36.117  12.626
65871W        W32280  16.545  31.999   1.910
65872W        W32281   2.925  39.842   1.811
65873W        W32282  20.917  24.978   4.196
65874W        W32283  25.151  30.624  11.620
65875W        W32284  39.549  31.475   1.679
65876W        W32285  21.126  21.604   2.463
65877W        W32286  38.807   5.336  14.290
65878W        W32287  44.026  33.596   4.236
65879W        W32288   0.680  30.085  10.581
65880W        W32289  12.409  12.092   0.774
65881W        W32290   0.303  31.496   1.932
65882W        W32291  34.930  21.229   0.019
65883W        W32292   4.894  29.979   4.279
65884W        W32293  43.811  26.845   4.803
65885W        W32294  31.422  24.749   1.691
65886W        W32295  43.969  31.683   1.274
65887W        W32296  34.818   8.513  12.160
65888W        W32297  19.735  14.381  12.065
65889W        W32298  34.577   0.874   5.002
65890W        W32299  40.808  22.256  13.315
65891W        W32300  32.904  39.639   2.865
65892W        W32301  12.348  38.059  13.460
65893W        W32302  13.634  41.274  13.030
65894W        W32303  41.407   2.775  12.563
65895W        W32304  15.687   7.161  12.522
65896W        W32305  26.665  15.335   3.318
65897W        W32306  44.889  26.894  13.954
65898W        W32307   9.204   4.793   0.698
65899W        W32308   2.886  30.520   4.669
65900W        W32309  26.135  19.177   2.875
65901W        W32310  15.127  15.869  10.289
65902W        W32311  27.141  39.575   4.943
65903W        W32312   3.511   3.506  10.694
65904W        W32313  34.133  23.587  11.498
65905W        W32314  30.067  36.355   3.747
65906W        W32315  13.746   0.048   2.865
65907W        W32316   1.237  33.667   1.719
65908W        W32317  29.552   7.253  14.233
65909W        W32318  33.915  40.841  13.863
65910W        W32319  16.575  37.210  12.709
65911W        W32320   4.351  28.439  14.703
65912W        W32321  10.228  14.403   1.266
65913W        W32322  34.145  42.555  12.006
65914W        W32323  31.412  37.935  11.292
65915W        W32324  25.637  27.125  11.033
65916W        W32325  13.982   4.952  11.615
65917W        W32326  42.954  26.886  12.527
65918W        W32327  23.714   9.782   5.120
65919W        W32328   6.346  12.101  12.517
65920W        W32329  14.843   9.260  13.832
65921W        W32330  27.886  44.828   0.375
65922W        W32331   1.023  13.698  11.002
65923W        W32332  30.684  34.528  12.638
65924W        W32333   7.059  43.864   2.756
65925W        W32334  28.006  32.900   3.712
65926W        W32335  43.326  24.054  11.054
65927W        W32336   5.329   2.695  10.977
65928W        W32337  42.467  33.851   2.797
65929W        W32338   7.877  32.432   1.223
65930W        W32339  33.619   4.225  13.350
65931W        W32340  42.513   6.600  12.887
65932W        W32341   0.379  39.358   4.682
65933W        W32342   7.371  10.917  13.943
65934W        W32343   1.350   3.860   4.566
65935W        W32344  40.973  38.427   4.622
65936W        W32345  11.117  32.985  14.271
65937W        W32346   1.970  38.379   4.004
65938W        W32347  23.010   9.438  11.483
65939W        W32348  19.795  36.414  12.759
65940W        W32349  23.766  42.985   4.290
65941W        W32350  22.007  35.553   3.321
65942W        W32351  44.773  18.816  14.278
65943W        W32352  15.307   0.856  13.320
65944W        W32353   5.324  18.815  12.983
65945W        W32354  41.011   5.698   1.215
65946W        W32355  35.951  13.814   1.641
65947W        W32356  42.341  40.558  12.644
65948W        W32357  37.425   4.977   5.128
65949W        W32358  14.489   4.637   4.572
65950W        W32359   7.350   5.268   0.904
65951W        W32360  43.987   0.429   4.199
65952W        W32361  32.099   7.516  14.690
65953W        W32362  29.380  11.564   0.620
65954W        W32363  38.028  15.033  13.550
65955W        W32364  22.418   7.137  12.565
65956W        W32365  10.033  10.316  10.587
65957W        W32366  38.301  17.640  13.590
65958W        W32367  42.459  29.307  10.906
65959W        W32368  12.109  21.306  10.084
65960W        W32369  19.718  24.238   0.856
65961W        W32370  37.899  12.606   4.538
65962W        W32371   5.460   2.880  13.918
65963W        W32372  22.450  11.703  14.965
65964W        W32373  12.830  36.053  12.113
65965W        W32374  22.851  35.542  13.690
65966W        W32375  17.692   1.326   4.734
65967W        W32376  30.117  35.068  10.655
65968W        W32377  23.618  17.039  13.707
65969W        W32378  24.881  40.913  11.589
65970W        W32379  17.010  36.353  11.542
65971W        W32380  29.421  31.538   3.795
65972W        W32381  20.066  40.308   2.257
65973W        W32382   6.180  36.818   3.829
65974W        W32383  13.055   5.442  11.147
65975W        W32384  31.851  21.669   1.697
65976W        W32385  23.797  41.955   0.805
65977W        W32386  33.530  35.794  11.098
65978W        W32387  13.762   6.750  12.258
65979W        W32388   6.333   9.181   3.782
65980W        W32389  15.083  42.843   1.637
65981W        W32390  36.271  33.109  10.743
65982W        W32391  35.386   3.222  13.361
65983W        W32392   3.427  17.807   3.185
65984W        W32393  32.959   8.903   0.441
65985W        W32394  40.446   1.816  11.002
65986W        W32395  23.710  26.914  12.951
65987W        W32396  32.477  15.747   2.763
65988W        W32397  35.827  18.527  12.541
65989W        W32398   3.852   1.243   4.598
65990W        W32399  21.200  35.417  12.104
65991W        W32400  20.940  31.370   2.641
65992W        W32401   4.491  43.195   3.271
65993W        W32402  29.382  39.781  14.120
65994W        W32403  11.403  37.891   2.204
65995W        W32404   9.410   7.080  11.606
65996W        W32405   2.544   6.280  13.897
65997W        W32406  33.789   1.736  11.497
65998W        W32407   6.369   2.730   3.177
65999W        W32408  37.876   4.517  11.950
66000W        W32409  35.446   7.265   4.395
66001W        W32410  16.875   5.247  14.876
66002W        W32411  16.805  30.122  14.928
66003W        W32412  40.879   2.747  12.659
66004W        W32413  24.488  19.621   4.360
66005W        W32414  28.172  29.588  11.561
66006W        W32415  35.086  16.057   0.312
66007W        W32416   4.700  14.796   4.057
66008W        W32417   3.150  41.220   2.203
66009W        W32418  18.091  27.944   1.886
66010W        W32419  38.532  12.801  14.997
66011W        W32420  38.347  36.580   3.749
66012W        W32421   5.024  34.720  12.855
66013W        W32422  30.482  22.313   2.190
66014W        W32423   8.734  41.928   4.311
66015W        W32424  33.094  20.139  11.597
66016W        W32425  12.150  10.419   3.081
66017W        W32426  23.525  41.809   0.389
66018W        W32427  18.126  31.175   2.192
66019W        W32428  17.309  39.350   1.373
66020W        W32429  22.124  12.650  14.444
66021W        W32430  29.993  30.762   2.598
66022W        W32431  40.056  29.985  12.415
66023W        W32432  21.362   3.026   2.414
66024W        W32433   1.800  23.214  12.864
66025W        W32434   5.367   0.024  14.019
66026W        W32435   0.336   9.939   2.965
66027W        W32436  38.680   4.938  10.473
66028W        W32437  18.101  37.120  11.197
66029W        W32438   2.788   5.926  11.640
66030W        W32439  13.563  31.636  14.802
66031W        W32440  13.312  33.381   2.837
66032W        W32441   2.192  39.123   2.076
66033W        W32442  17.050   4.797   4.083
66034W        W32443   0.804  21.617  11.196
66035W        W32444  13.901   4.374  14.086
66036W        W32445  10.302  34.153  11.168
66037W        W32446  39.537  38.887  12.183
66038W        W32447  26.470  22.593  13.396
66039W        W32448  24.249   0.650  13.578
66040W        W32449  21.631   9.693   0.838
66041W        W32450  28.930  27.777  12.825
66042W        W32451  33.310  28.284   1.739
66043W        W32452  33.532  27.004   2.771
66044W        W32453  29.345  33.617   4.809
66045W        W32454  30.638  18.175   4.247
66046W        W32455  10.638   8.746  11.046
66047W        W32456  28.256  17.345  14.788
66048W        W32457   7.662  17.833  14.416
66049W        W32458  32.473  40.546  13.889
66050W        W32459  25.861  10.803  11.642
66051W        W32460  22.098  43.472  10.501
66052W        W32461  19.980  36.958  12.984
66053W        W32462   5.022  21.676  12.555
66054W        W32463  31.254  24.116   3.272
66055W        W32464  33.653  33.830   4.244
66056W        W32465  32.815  37.456  11.615
66057W        W32466  11.805  13.912  12.908
66058W        W32467  38.458  32.566  13.380
66059W        W32468  18.505   0.744  11.215
66060W        W32469   4.359  36.978  10.671
66061W        W32470   9.632  17.239   4.238
66062W        W32471  32.907  11.392  13.846
66063W        W32472  32.078   4.737  12.000
66064W        W32473  14.982  17.697   0.711
66065W        W32474  39.893  33.506   2.921
66066W        W32475  41.531  38.068   0.874
66067W        W32476  34.212  42.323  10.710
66068W        W32477  43.920   1.335   4.553
66069W        W32478  27.009  32.573  12.653
66070W        W32479  38.876  18.357  14.671
66071W        W32480  37.482  23.298   2.300
66072W        W32481  25.722  10.155  12.023
66073W        W32482  14.155  33.166   1.673
66074W        W32483   2.595  42.467  13.808
66075W        W32484  19.497  21.414   2.880
66076W        W32485  32.561  44.225  12.366
66077W        W32486  30.205  30.476   2.212
66078W        W32487   8.495  26.210   2.383
66079W        W32488   1.771  21.499  10.592
66080W        W32489  27.232   5.728  12.035
66081W        W32490  28.113  23.915   2.842
66082W        W32491  28.054  17.733  10.699
66083W        W32492  23.282  35.891   4.600
66084W        W32493  41.568  40.071  11.542
66085W        W32494  22.063  44.489  12.962
66086W        W32495  16.273   2.634   2.364
66087W        W32496  35.766  44.483   3.917
66088W        W32497   6.418  26.748   3.624
66089W        W32498  34.985   4.220   0.702
66090W        W32499  39.066  10.203   2.445
66091W        W32500  19.985  20.749   0.421
66092W        W32501   8.812  10.356   1.879
66093W        W32502  34.356  12.651   3.765
66094W        W32503  12.230  32.370  12.949
66095W        W32504  16.634  43.714  11.080
66096W        W32505  14.362   1.459  14.993
66097W        W32506  40.520   7.499   4.803
66098W        W32507  28.678  42.287   1.409
66099W        W32508  36.251  30.627  11.148
66100W        W32509   9.208   7.926  12.509
66101W        W32510  14.985  32.458  11.977
66102W        W32511  32.415  11.603  10.802
66103W        W32512  44.921  28.938  12.899
66104W        W32513  43.159  15.560  10.317
66105W        W32514   6.390  36.464  12.447
66106W        W32515  33.462  32.359  10.563
66107W        W32516  14.030   7.162  11.986
66108W        W32517  43.840  40.521   3.598
66109W        W32518  30.644  39.034   0.393
66110W        W32519  13.999  44.828   2.059
66111W        W32520  44.777  10.776  11.658
66112W        W32521   0.943  12.416  12.295
66113W        W32522  18.140  39.888  10.532
66114W        W32523  17.778  30.120   1.630
66115W        W32524  26.172  14.104  13.432
66116W        W32525  27.360  22.044   2.563
66117W        W32526  22.827  20.273  12.161
66118W        W32527  10.617   8.212  11.511
66119W        W32528  36.456  16.288   1.387
66120W        W32529  42.049  33.952  13.989
66121W        W32530  12.826  32.390   3.227
66122W        W32531  11.782  10.418  12.782
66123W        W32532  40.498  43.034  13.485
66124W        W32533  19.224  13.207  12.088
66125W        W32534  14.299  44.192  12.622
66126W        W32535  28.205  34.264  11.104
66127W        W32536  25.797  31.994   1.683
66128W        W32537   5.339   4.792  12.584
66129W        W32538  17.312  36.967   3.257
66130W        W32539  43.885  32.884   2.361
66131W        W32540   2.222  38.430  14.620
66132W        W32541   7.095  12.739   1.185
66133W        W32542  38.396   7.492  13.981
66134W        W32543  38.521  21.697   4.930
66135W        W32544  35.568  43.158   4.117
66136W        W32545  26.045  25.143   5.165
66137W        W32546   3.649  42.118   0.945
66138W        W32547   4.325  30.872   3.624
66139W        W32548  20.023   9.452   4.499
66140W        W32549  44.904  27.507   3.084
66141W        W32550  35.523  13.902  12.527
66142W        W32551   3.505  43.221  10.400
66143W        W32552  29.974  15.219  12.477
66144W        W32553  37.502  35.508   0.280
66145W        W32554   9.351  10.903  14.513
66146W        W32555  21.021  19.328   4.286
66147W        W32556   6.129  35.923   2.245
66148W        W32557  14.714  12.082  14.947
66149W        W32558  12.700  12.978  11.237
66150W        W32559  43.530   4.269  12.016
66151W        W32560  28.343  12.281  12.049
66152W        W32561  13.682   6.955  13.122
66153W        W32562  13.326   5.506   2.850
66154W        W32563   1.499  18.772   2.864
66155W        W32564  41.816  44.146   3.808
66156W        W32565  40.326   2.038  12.942
66157W        W32566  15.776  28.160   3.660
66158W        W32567   1.108  23.172  13.465
66159W        W32568  35.079  19.970  11.653
66160W        W32569  19.303  22.482   0.928
66161W        W32570  26.742   8.876  14.225
66162W        W32571   1.224   5.769  11.241
66163W        W32572  35.922  16.794   3.899
66164W        W32573  21.130  38.342   0.299
66165W        W32574  31.156  14.690   4.950
66166W        W32575   5.453  35.647   4.704
66167W        W32576  10.324  11.054   2.660
66168W        W32577  28.655   4.417   1.246
66169W        W32578   3.183  39.304   3.580
66170W        W32579   8.375   6.960   1.605
66171W        W32580  41.128   4.779   0.157
66172W        W32581  32.632  33.396  11.035
66173W        W32582  43.345  44.486   4.758
66174W        W32583  26.884   5.807  11.129
66175W        W32584  44.050  34.912   0.875
66176W        W32585  17.679  28.223   3.808
66177W        W32586  16.260   6.938  10.875
66178W        W32587  15.340  28.367   4.582
66179W        W32588  12.134  29.524  12.508
66180W        W32589  26.442  30.911   1.297
66181W        W32590   6.947  41.558  10.781
66182W        W32591   7.210  20.254  10.510
66183W        W32592  27.170  37.233  14.709
66184W        W32593   9.042  27.983  12.048
66185W        W32594  33.119  36.549  12.460
66186W        W32595  10.413  43.050   2.548
66187W        W32596  15.663  33.881   2.887
66188W        W32597  12.711  36.452   4.617
66189W        W32598  17.996  44.989   4.121
66190W        W32599  27.918  14.352   2.235
66191W        W32600  26.693  17.544   4.738
66192W        W32601  14.131  35.440   3.730
66193W        W32602  29.349  16.032  12.609
66194W        W32603  41.833  11.263   1.450
66195W        W32604   3.005  26.535   0.776
66196W        W32605  43.206  30.912  14.470
66197W        W32606  42.647  35.660   3.837
66198W        W32607  33.835  17.105   1.718
66199W        W32608  33.477  21.645   9.855
66200W        W32609  44.241  35.152  11.763
66201W        W32610  24.926  44.531   3.300
66202W        W32611  11.204  25.929   2.317
66203W        W32612  37.808  37.189  14.475
66204W        W32613  20.492  18.107   2.467
66205W        W32614  16.503  11.992  14.876
66206W        W32615  18.682  23.977   1.070
66207W        W32616  29.932  28.233  13.511
66208W        W32617  38.019  38.051  12.952
66209W        W32618   4.958  37.616   0.425
66210W        W32619   2.701  18.701   2.203
66211W        W32620  18.480  12.804  11.945
66212W        W32621  12.695  27.978   4.951
66213W        W32622   3.177  36.329   1.859
66214W        W32623  35.886  20.140   0.272
66215W        W32624  32.584  26.487   1.533
66216W        W32625  35.809  35.578   2.703
66217W        W32626  20.186   7.663  10.792
66218W        W32627   8.353  23.179   0.197
66219W        W32628  25.745   4.364  13.945
66220W        W32629   1.820  27.096   2.360
66221W        W32630   9.206  31.029   3.584
66222W        W32631  33.559   1.290   0.933
66223W        W32632   9.656   6.573   1.606
66224W        W32633   2.275  41.345  13.520
66225W        W32634  16.062  13.688   2.208
66226W        W32635  16.113  16.075  11.606
66227W        W32636  36.892  36.977  14.958
66228W        W32637  16.382  28.931   1.387
66229W        W32638   3.907  15.277   1.452
66230W        W32639  21.293  39.612  12.808
66231W        W32640  42.937  36.135   0.170
66232W        W32641  16.305  20.321   4.238
66233W        W32642  21.135  27.277   2.325
66234W        W32643   1.717  32.107  14.537
66235W        W32644  25.843  17.119  12.391
66236W        W32645  30.695   7.746   2.402
66237W        W32646   8.836  23.749   4.993
66238W        W32647  29.936  25.238  14.491
66239W        W32648   1.369  26.186  11.654
66240W        W32649  27.958  40.000   2.214
66241W        W32650   5.047  26.797   4.566
66242W        W32651  42.112  13.122   2.854
66243W        W32652  21.629  23.143   5.415
66244W        W32653  14.145   1.032   3.824
66245W        W32654  23.695  32.331   3.219
66246W        W32655  11.183   3.572  14.350
66247W        W32656   8.819   4.430  10.613
66248W        W32657  30.659  31.409  14.979
66249W        W32658  16.269  29.808  12.170
66250W        W32659   9.181   6.687  13.934
66251W        W32660  43.883  25.127  14.927
66252W        W32661  38.843  18.510   1.314
66253W        W32662  24.233  20.231  10.510
66254W        W32663  34.211  11.338  11.971
66255W        W32664  44.560  27.926   5.247
66256W        W32665  37.318  30.268   0.776
66257W        W32666  25.087  44.303   0.371
66258W        W32667  33.889  11.233   4.189
66259W        W32668  19.229   2.446  10.406
66260W        W32669  11.811   9.063  12.501
66261W        W32670  22.117  24.758   2.292
66262W        W32671  33.687  39.186   5.047
66263W        W32672   5.951  20.266  11.030
66264W        W32673  39.824  26.122  11.639
66265W        W32674  37.390  38.396  14.396
66266W        W32675   1.231  11.124   4.941
66267W        W32676  25.646  16.186  13.077
66268W        W32677  36.393  24.930   0.402
66269W        W32678  38.320  39.848   2.804
66270W        W32679  37.950  14.065  13.558
66271W        W32680  38.811  36.607  12.071
66272W        W32681  10.713  19.280  12.993
66273W        W32682   9.235  17.826   2.770
66274W        W32683   8.085   7.859   3.102
66275W        W32684  27.677   9.151   0.780
66276W        W32685  24.617   7.302   2.844
66277W        W32686  42.475  20.741  13.093
66278W        W32687  25.172  21.316   1.715
66279W        W32688  25.593   1.557   0.522
66280W        W32689  20.531   5.632   1.235
66281W        W32690   0.480  27.574  11.218
66282W        W32691  11.217  42.619   3.008
66283W        W32692   9.675  36.110   3.509
66284W        W32693  43.206  29.437   0.812
66285W        W32694   4.311  14.215   0.977
66286W        W32695  17.555  22.053   2.640
66287W        W32696  34.915  14.265   1.749
66288W        W32697   5.150   7.418  10.256
66289W        W32698  31.952  39.949   0.261
66290W        W32699  24.807  23.950   3.653
66291W        W32700  25.776  37.530   3.666
66292W        W32701  32.635   5.258  12.510
66293W        W32702   9.152  25.302  10.439
66294W        W32703  24.578  19.791   4.848
66295W        W32704  12.603  13.986   3.438
66296W        W32705  30.985  15.399  13.511
66297W        W32706  39.844  33.629   4.980
66298W        W32707   8.645   5.518  13.273
66299W        W32708  14.154  14.762  12.464
66300W        W32709  13.823  24.495   0.813
66301W        W32710   0.466  13.517   2.458
66302W        W32711  20.776   4.753   3.587
66303W        W32712  32.150  18.115  11.600
66304W        W32713  30.394   2.080   2.520
66305W        W32714  29.440  37.050   3.839
66306W        W32715  40.283  44.471  10.808
66307W        W32716  33.869  42.809   0.554
66308W        W32717  35.346   5.821  13.965
66309W        W32718   3.842  12.634  11.852
66310W        W32719   1.447   4.704  13.531
66311W        W32720  10.207  23.499   3.892
66312W        W32721  23.464   6.516  12.081
66313W        W32722  38.624  18.788   1.749
66314W        W32723  32.595  31.840   2.349
66315W        W32724  24.277   0.487  12.002
66316W        W32725  36.525  19.226  13.411
66317W        W32726   2.257  12.066   0.403
66318W        W32727  31.624  29.508   4.476
66319W        W32728  29.487  21.631  14.816
66320W        W32729  39.417   7.976  10.351
66321W        W32730  20.542   1.793   4.493
66322W        W32731  39.481   7.725   3.445
66323W        W32732  16.126   2.009   0.799
66324W        W32733   1.874  21.760  12.508
66325W        W32734  12.779  28.177   0.763
66326W        W32735  13.167  35.901   0.840
66327W        W32736  23.780   1.854  12.381
66328W        W32737  18.643  21.047  14.419
66329W        W32738  44.324  20.705  12.378
66330W        W32739  11.635  12.154   3.170
66331W        W32740   2.680  40.507  12.551
66332W        W32741  35.979   9.405   1.756
66333W        W32742  16.463   0.407  14.235
66334W        W32743  10.733  13.272  11.490
66335W        W32744   1.070   5.792  10.749
66336W        W32745  19.299   3.921   3.304
66337W        W32746  26.564   8.925  11.931
66338W        W32747   6.798  32.914  14.343
66339W        W32748  19.005  40.874   3.909
66340W        W32749   0.865  28.574   2.232
66341W        W32750   6.105  17.754   1.982
66342W        W32751   5.751  27.122  14.983
66343W        W32752  26.483  30.000  11.534
66344W        W32753  16.230  12.785   1.420
66345W        W32754  42.185  36.828   1.922
66346W        W32755  16.617   9.137   0.128
66347W        W32756   0.827  26.925   0.255
66348W        W32757  13.269   3.710   3.157
66349W        W32758   5.816  22.452  11.600
66350W        W32759  34.858  31.882  12.409
66351W        W32760   9.893  35.979  13.530
66352W        W32761   0.690   6.070   4.177
66353W        W32762  29.009   4.790   9.810
66354W        W32763  32.390   0.127   1.289
66355W        W32764   9.271  18.323   1.034
66356W        W32765  14.685  43.290  13.206
66357W        W32766  25.450   4.360   4.362
66358W        W32767  22.999  18.277  14.810
66359W        W32768  28.885   9.337  13.002
66360W        W32769   3.735  23.141  11.160
66361W        W32770  40.061  37.801   3.606
66362W        W32771  12.636  40.829   5.177
66363W        W32772  12.146  30.429  11.979
66364W        W32773  22.469  31.343   0.875
66365W        W32774   9.117  30.853   2.675
66366W        W32775  15.587  38.600   0.368
66367W        W32776  22.752   8.339  12.993
66368W        W32777   8.940  30.754  10.902
66369W        W32778  44.161   8.147  10.611
66370W        W32779  23.601  23.003  14.092
66371W        W32780  21.241  34.769  14.054
66372W        W32781  13.682  31.867   0.628
66373W        W32782   3.799  41.880   1.398
66374W        W32783  15.084  10.085   1.232
66375W        W32784  19.758   1.181   2.348
66376W        W32785   4.423  36.016  14.878
66377W        W32786  40.912  17.388   3.100
66378W        W32787  41.600  36.895  10.364
66379W        W32788  23.519   0.354  10.996
66380W        W32789   0.325   5.345  13.424
66381W        W32790   5.422  28.109  11.140
66382W        W32791  21.886   7.364  13.926
66383W        W32792  16.898  43.788  14.467
66384W        W32793  29.022  42.221   3.217
66385W        W32794  34.325  11.825   1.220
66386W        W32795  39.119  39.475  11.253
66387W        W32796  10.750  40.789   2.705
66388W        W32797  15.252  18.078   4.308
66389W        W32798  33.571  21.255   2.858
66390W        W32799  10.836   3.697   3.664
66391W        W32800   0.754  29.373   1.230
66392W        W32801  27.050   9.601   0.839
66393W        W32802  11.230  11.132  14.139
66394W        W32803  19.429  27.728  13.858
66395W        W32804  13.608  41.959   3.192
66396W        W32805  33.718  39.159  14.723
66397W        W32806  30.520  31.664   1.806
66398W        W32807  14.787   9.772   1.912
66399W        W32808  16.263  15.064   4.631
66400W        W32809  34.444  36.117   4.834
66401W        W32810  44.822   2.733  14.002
66402W        W32811  41.749  28.721  11.228
66403W        W32812  29.195  13.148  14.978
66404W        W32813   0.412   3.384   0.936
66405W        W32814  37.160  22.094  13.190
66406W        W32815   6.160   2.333   3.415
66407W        W32816  32.943  24.206  14.064
66408W        W32817   6.698  31.110   0.954
66409W        W32818  20.134  42.558  13.770
66410W        W32819  32.453  20.121  11.018
66411W        W32820  14.893  18.808   5.340
66412W        W32821  38.052  34.876   1.321
66413W        W32822   0.429  17.203   4.023
66414W        W32823   8.545  40.855   0.019
66415W        W32824  27.251  23.489   2.645
66416W        W32825  35.374  20.040  14.747
66417W        W32826  39.510  20.243   4.258
66418W        W32827  12.307   6.360  13.908
66419W        W32828  11.224   7.313  11.831
66420W        W32829  43.341  29.124  11.515
66421W        W32830  21.011  15.726  11.785
66422W        W32831  34.541  12.299   4.884
66423W        W32832  15.074  31.283  14.180
66424W        W32833   8.937  17.660  10.730
66425W        W32834   1.214  29.106  14.830
66426W        W32835   1.811  31.531   0.785
66427W        W32836   1.406  39.850   3.682
66428W        W32837  41.523  34.390   2.803
66429W        W32838   2.499  21.268   1.845
66430W        W32839   4.200   0.469   4.673
66431W        W32840  13.070   7.460   0.175
66432W        W32841  20.060  36.836   3.901
66433W        W32842  10.368  40.497   4.161
66434W        W32843  37.566   7.300  12.478
66435W        W32844  39.907  19.711  11.558
66436W        W32845  10.352   7.226   4.060
66437W        W32846  23.395  32.130   2.772
66438W        W32847  27.442   2.972  13.562
66439W        W32848  16.680  16.443  13.407
66440W        W32849  25.727   2.898   4.867
66441W        W32850  11.648  39.374   3.235
66442W        W32851  20.260   9.179   2.247
66443W        W32852  27.268   7.256   0.386
66444W        W32853  41.375  40.330  10.997
66445W        W32854  16.202  18.178  13.043
66446W        W32855   3.158   5.874   3.102
66447W        W32856  13.491  24.031   1.238
66448W        W32857  41.329  29.021  11.410
66449W        W32858  27.129   5.308   2.355
66450W        W32859  19.238  24.059  13.377
66451W        W32860  37.399  38.546   0.359
66452W        W32861  17.185  16.453   2.339
66453W        W32862  23.282  31.407   3.910
66454W        W32863  11.302   5.851   1.946
66455W        W32864  10.371  35.701  10.687
66456W        W32865  10.647  44.922   0.962
66457W        W32866  27.110  13.052  11.552
66458W        W32867  21.163  33.053  10.759
66459W        W32868  43.580  16.351  10.548
66460W        W32869  38.114  14.855  11.675
66461W        W32870  22.240  19.589  10.893
66462W        W32871   1.744   0.001  14.832
66463W        W32872  38.009   0.715   2.424
66464W        W32873   0.463  33.346   1.422
66465W        W32874  43.781  18.958   2.222
66466W        W32875  31.570  31.443  13.124
66467W        W32876  23.651  14.227   3.623
66468W        W32877  24.522  10.804  11.501
66469W        W32878  14.424  11.844  13.521
66470W        W32879  18.671  41.869  12.484
66471W        W32880  38.850  41.513  10.248
66472W        W32881  18.999  14.797  14.500
66473W        W32882  14.334  17.815  14.044
66474W        W32883  44.465  12.114   5.031
66475W        W32884  19.588  17.771   3.186
66476W        W32885  22.906  32.642  13.814
66477W        W32886   1.420  30.905  14.006
66478W        W32887  30.594  39.578   0.358
66479W        W32888   5.634   5.337  13.860
66480W        W32889   1.400  28.136   2.590
66481W        W32890   5.272   1.705  14.308
66482W        W32891  39.908  43.593   2.856
66483W        W32892  24.670  16.244   4.632
66484W        W32893  43.059  20.058   2.452
66485W        W32894  43.908   0.330   0.269
66486W        W32895   5.232  31.149   3.310
66487W        W32896  20.250   8.759   2.939
66488W        W32897  39.944   3.907  14.711
66489W        W32898  30.171  18.487   0.526
66490W        W32899   3.230  26.917  11.307
66491W        W32900   9.486  16.152   4.423
66492W        W32901  16.546  23.092  14.554
66493W        W32902  11.276  25.914   3.240
66494W        W32903  17.403  29.094  11.581
66495W        W32904  34.617  23.034   3.348
66496W        W32905  29.064   2.475  12.975
66497W        W32906  38.368  20.781  14.370
66498W        W32907  14.592  38.368  14.878
66499W        W32908  18.892  31.202  11.049
66500W        W32909   6.452  24.060  13.559
66501W        W32910  29.469  28.460   0.762
66502W        W32911   2.976  20.972  12.589
66503W        W32912   0.462  39.882   3.659
66504W        W32913   6.022  22.095   5.023
66505W        W32914   2.791   1.461   1.726
66506W        W32915  17.571   1.516  11.656
66507W        W32916   1.467   9.328   5.713
66508W        W32917  43.461  14.719   3.253
66509W        W32918  23.563  19.237  13.334
66510W        W32919   5.913  44.430   2.407
66511W        W32920  29.170  21.615  13.074
66512W        W32921   9.394  36.428   3.836
66513W        W32922  15.318  11.210   2.600
66514W        W32923   9.798  39.086   3.434
66515W        W32924  16.606   0.411   1.871
66516W        W32925  25.553  10.157   0.379
66517W        W32926   9.284  13.694  12.182
66518W        W32927  27.641   1.551   3.128
66519W        W32928  22.016  42.520   3.155
66520W        W32929   0.351  12.047   3.870
66521W        W32930   9.285   5.203   2.223
66522W        W32931  26.017  44.353  13.109
66523W        W32932   4.247  13.737  12.552
66524W        W32933   1.296   4.878  11.079
66525W        W32934  25.239  26.635   9.819
66526W        W32935  23.651   4.508   2.873
66527W        W32936   3.173   7.329   2.749
66528W        W32937  26.646   9.895  12.041
66529W        W32938  27.576  17.773  12.828
66530W        W32939  38.048  34.498  13.780
66531W        W32940  14.678  18.335   2.451
66532W        W32941  13.227  28.857  10.070
66533W        W32942   6.365  31.709  12.993
66534W        W32943  13.406  41.453   1.397
66535W        W32944   0.971   4.974   3.988
66536W        W32945  11.829  21.731  10.185
66537W        W32946   6.448  35.204  14.579
66538W        W32947  13.744  29.906   3.604
66539W        W32948   0.322  14.791  12.384
66540W        W32949  37.747  39.421  13.156
66541W        W32950  14.532  25.470   0.819
66542W        W32951  40.876  10.768   3.813
66543W        W32952  29.816  16.295  11.986
66544W        W32953   8.924  28.113   2.654
66545W        W32954   9.808  13.178   3.142
66546W        W32955  29.088   0.957   3.582
66547W        W32956  37.557  32.788   0.236
66548W        W32957   5.274   6.741  14.017
66549W        W32958   3.925  33.430  12.583
66550W        W32959  15.104  36.593   3.637
66551W        W32960   4.151   0.919  11.553
66552W        W32961  10.149  44.154   0.824
66553W        W32962  43.893   0.535   3.699
66554W        W32963   9.977   9.487   4.074
66555W        W32964  19.450  42.069  13.352
66556W        W32965  28.818  43.484   3.604
66557W        W32966  16.677  21.112   3.233
66558W        W32967  11.427  19.397   2.394
66559W        W32968  42.066   6.651   3.094
66560W        W32969  11.203  34.431  11.573
66561W        W32970  24.056   8.635  10.698
66562W        W32971  19.029  43.943  12.022
66563W        W32972  12.302  32.486  10.203
66564W        W32973  31.930  12.244   2.708
66565W        W32974  33.269  32.723   3.767
66566W        W32975  27.718  38.475   3.653
66567W        W32976  11.313  36.842  10.251
66568W        W32977  33.192   9.289  12.572
66569W        W32978  15.363  15.459  12.923
66570W        W32979  41.862  20.127  12.064
66571W        W32980  21.816  13.216  11.600
66572W        W32981  20.186   5.308  12.053
66573W        W32982  29.325  10.766  13.171
66574W        W32983  18.452   9.778   3.624
66575W        W32984  21.779  32.222   2.398
66576W        W32985  31.533  22.471   3.187
66577W        W32986  23.213  19.320  12.785
66578W        W32987  44.818  23.610   3.759
66579W        W32988  37.116   1.816  12.501
66580W        W32989  20.537  24.540  12.949
66581W        W32990   3.276   6.866  11.960
66582W        W32991   6.390  14.796   3.745
66583W        W32992   3.823  40.937   0.218
66584W        W32993   6.191  32.942  10.675
66585W        W32994  36.574  15.690  11.245
66586W        W32995  41.671  16.657   4.554
66587W        W32996  33.094   3.203  13.448
66588W        W32997  43.783  22.006  14.085
66589W        W32998   9.857  32.700   2.096
66590W        W32999  30.446   1.718  10.236
66591W        W33000   9.138  27.516  13.707
66592W        W33001  16.697   7.283  10.383
66593W        W33002  25.797  21.534  11.474
66594W        W33003  43.161   3.689   2.215
66595W        W33004  35.706  24.922   3.901
66596W        W33005  20.502   3.787   1.815
66597W        W33006  27.076  40.285   2.706
66598W        W33007  39.709   0.006  11.522
66599W        W33008  25.190  23.407   4.996
66600W        W33009  42.263  26.434   1.925
66601W        W33010  16.018   7.730  14.945
66602W        W33011  17.723  26.540  14.259
66603W        W33012  26.078  26.004  12.027
66604W        W33013   4.125  38.030  13.597
66605W        W33014  44.548  43.345   2.663
66606W        W33015  16.617  10.270   0.993
66607W        W33016  11.710  44.860   3.856
66608W        W33017  43.277  40.486   3.112
66609W        W33018  14.245   3.745   1.903
66610W        W33019   9.465  43.419   2.130
66611W        W33020  15.882   6.532  13.124
66612W        W33021  21.313   8.514   0.417
66613W        W33022  32.321  25.298  14.441
66614W        W33023  44.312  26.094   0.555
66615W        W33024  38.748  29.458   3.147
66616W        W33025  38.779   4.453  14.503
66617W        W33026  21.147   1.048   4.066
66618W        W33027  32.825  18.461  14.924
66619W        W33028  20.613  20.291  12.967
66620W        W33029  19.568   6.920   3.545
66621W        W33030  20.662  10.389   1.158
66622W        W33031  41.635  23.282  13.060
66623W        W33032  31.353  29.596   4.037
66624W        W33033  12.061  21.113   5.536
66625W        W33034   0.002   6.536   1.657
66626W        W33035  12.621  20.793   1.347
66627W        W33036   6.647  14.607   2.638
66628W        W33037  32.858  19.114   1.287
66629W        W33038  12.872  23.043  13.072
66630W        W33039  12.942   3.965   1.771
66631W        W33040   9.121  18.504  11.113
66632W        W33041  14.412  18.226  10.646
66633W        W33042  20.168  21.952   1.019
66634W        W33043  14.789   6.874   0.302
66635W        W33044   2.568  10.458   5.195
66636W        W33045  31.081  34.246  12.509
66637W        W33046   5.676  31.069  13.884
66638W        W33047  14.378  31.660  14.347
66639W        W33048  29.615   2.020   0.499
66640W        W33049  20.568  41.189  13.363
66641W        W33050  15.262  10.910  10.576
66642W        W33051  36.793  35.121  13.903
66643W        W33052  30.405  15.668  11.409
66644W        W33053  25.155  10.329   2.400
66645W        W33054  28.918  24.175   3.554
66646W        W33055   7.558   0.019  14.705
66647W        W33056   7.390   7.177   3.581
66648W        W33057  17.050  30.340  11.615
66649W        W33058  12.313   5.769   1.814
66650W        W33059  42.790  36.735   2.241
66651W        W33060  43.460  31.118  14.873
66652W        W33061  32.497  28.521   2.324
66653W        W33062  25.486  38.824  14.727
66654W        W33063  35.107   5.658   3.208
66655W        W33064  35.048  18.098  12.886
66656W        W33065  30.757  25.993   1.868
66657W        W33066  41.081   5.857  13.522
66658W        W33067   9.468  43.821  10.621
66659W        W33068   6.327  26.241  10.721
66660W        W33069  35.392  41.872   1.143
66661W        W33070   4.500  18.213  12.054
66662W        W33071  11.409  37.464  13.018
66663W        W33072  40.506  16.079  12.898
66664W        W33073  18.766  18.267   4.620
66665W        W33074  44.902   7.282  12.085
66666W        W33075  22.570  40.893   0.262
66667W        W33076  11.267  36.386   0.720
66668W        W33077   0.911   8.213  13.120
66669W        W33078   8.334  44.128   0.700
66670W        W33079   5.306  10.401   2.912
66671W        W33080  23.616  10.049   1.901
66672W        W33081  17.921  42.204  12.090
66673W        W33082   7.325  24.569  12.455
66674W        W33083  15.737  15.512  13.511
66675W        W33084  25.202  35.946   0.234
66676W        W33085  24.123  34.675  11.758
66677W        W33086  44.407  10.498   5.451
66678W        W33087  13.795  31.388   0.795
66679W        W33088  25.613   0.354   1.428
66680W        W33089  36.500  33.519   0.924
66681W        W33090  17.257  38.687  11.212
66682W        W33091  31.832  30.210   4.503
66683W        W33092  32.780  11.791   4.621
66684W        W33093  41.461  34.626  11.184
66685W        W33094   5.427  22.624   1.203
66686W        W33095  27.965  17.773  14.806
66687W        W33096  19.023  40.224   0.468
66688W        W33097  12.025  29.232  14.675
66689W        W33098   6.771  14.313  13.635
66690W        W33099   4.773  30.842   3.272
66691W        W33100  43.306  12.845  10.629
66692W        W33101  19.293  30.790   4.124
66693W        W33102  10.868  13.391   2.469
66694W        W33103  10.576  38.437  11.327
66695W        W33104   1.257  39.198  13.088
66696W        W33105   0.920  31.514  14.693
66697W        W33106  37.995  23.474  13.884
66698W        W33107  32.642  36.528   1.422
66699W        W33108  27.441  30.388  13.760
66700W        W33109   8.159  25.458   2.802
66701W        W33110  41.600  27.448  14.592
66702W        W33111   9.239   0.334   4.084
66703W        W33112  44.255  10.615   3.487
66704W        W33113   2.999  24.162   1.494
66705W        W33114  30.647   2.394  13.548
66706W        W33115  29.169  26.688  14.324
66707W        W33116  37.618  10.389  12.471
66708W        W33117   7.245  12.905   0.428
66709W        W33118  35.577   7.292   1.221
66710W        W33119  44.017  43.456   3.602
66711W        W33120  41.771   5.817   1.652
66712W        W33121  21.655   2.156   2.378
66713W        W33122  24.837  34.910   4.940
66714W        W33123  11.010  23.100   1.825
66715W        W33124   1.343  17.195   4.072
66716W        W33125  35.087  18.649  12.954
66717W        W33126   1.838  13.701   0.810
66718W        W33127  10.019  32.011  11.771
66719W        W33128  28.908   7.886  10.308
66720W        W33129  23.622  10.737   1.350
66721W        W33130  30.578  21.712  10.678
66722W        W33131  43.200  24.635  12.579
66723W        W33132   7.480  14.073   0.672
66724W        W33133  43.529  33.948  14.368
66725W        W33134  43.903  35.288  14.959
66726W        W33135  19.068   5.423   3.987
66727W        W33136   8.446  11.715   0.754
66728W        W33137  33.589  38.777  14.368
66729W        W33138   8.312  44.289   2.335
66730W        W33139  42.818  42.814   1.392
66731W        W33140  41.425  19.888  11.938
66732W        W33141  28.007  21.182   9.727
66733W        W33142  11.079  23.059  11.883
66734W        W33143  25.251  22.227   2.678
66735W        W33144  36.175   5.806  13.460
66736W        W33145  30.604  17.181  13.754
66737W        W33146  36.634   4.749   4.490
66738W        W33147  44.833  15.167   3.772
66739W        W33148  36.887  16.741  14.824
66740W        W33149  28.576  26.743  12.475
66741W        W33150  18.601  18.256  14.287
66742W        W33151  42.755   0.404  14.758
66743W        W33152  23.616   3.988  12.601
66744W        W33153  42.563   4.296   0.820
66745W        W33154  33.875  19.614  13.197
66746W        W33155  22.728  20.808   3.700
66747W        W33156  14.889  19.032  13.778
66748W        W33157  10.073  16.966   3.669
66749W        W33158  19.664  12.288   4.588
66750W        W33159   0.263  20.975  12.356
66751W        W33160  26.525  35.957   1.745
66752W        W33161   0.736  24.323   0.711
66753W        W33162  15.442  44.370   2.406
66754W        W33163  21.099   6.832   2.915
66755W        W33164  41.990  22.012  11.858
66756W        W33165  32.410  17.542  12.027
66757W        W33166  14.806  20.119  11.979
66758W        W33167   4.597  12.267   3.398
66759W        W33168  30.590  28.579  12.549
66760W        W33169  27.512  18.232   4.723
66761W        W33170  29.980  37.398  14.193
66762W        W33171   3.483  37.613   0.453
66763W        W33172  35.920  28.089  11.190
66764W        W33173  36.567  24.426   0.328
66765W        W33174  16.826  34.077  13.553
66766W        W33175  34.090  35.014  10.784
66767W        W33176  14.748  28.242   4.368
66768W        W33177   0.236  42.238  14.961
66769W        W33178  21.184  24.407   1.004
66770W        W33179  40.364  35.406  12.558
66771W        W33180  20.542  36.654   3.218
66772W        W33181  40.346  30.185   3.611
66773W        W33182  20.099  19.386   4.200
66774W        W33183   4.231  10.331   4.262
66775W        W33184   6.379  44.566  11.064
66776W        W33185   9.860  12.834  11.423
66777W        W33186   5.900  12.872   4.858
66778W        W33187   8.705  20.737  10.644
66779W        W33188  44.766   2.802   2.148
66780W        W33189  13.177  34.503   3.610
66781W        W33190  15.362  23.551   2.601
66782W        W33191  36.926  22.536   2.947
66783W        W33192  41.006  40.379  14.912
66784W        W33193  20.436  31.236   2.680
66785W        W33194   6.880  27.294   4.590
66786W        W33195  14.108  41.093   0.806
66787W        W33196  40.883  40.983  13.309
66788W        W33197  37.343  33.390  14.758
66789W        W33198   2.272  16.606   2.967
66790W        W33199   6.390  41.197   1.240
66791W        W33200  25.791  33.143  11.167
66792W        W33201  24.813  35.676  11.134
66793W        W33202  24.022  29.605  13.790
66794W        W33203  41.520  14.368   1.824
66795W        W33204  17.982   9.611  13.935
66796W        W33205   5.757   6.585   4.404
66797W        W33206   7.928  18.046   4.168
66798W        W33207  34.359  43.975   2.510
66799W        W33208  26.464  36.943  13.393
66800W        W33209   2.529  16.540   1.263
66801W        W33210  37.309  44.279   0.821
66802W        W33211   2.252  15.758  11.289
66803W        W33212   9.435  13.485   3.312
66804W        W33213  37.796   6.380   3.304
66805W        W33214   2.430  11.351  14.938
66806W        W33215  26.417  15.790  14.381
66807W        W33216  13.570  21.956   2.705
66808W        W33217  12.340  26.297  11.661
66809W        W33218  13.987  36.028   1.845
66810W        W33219  14.478  24.465   2.024
66811W        W33220  27.974   7.038  12.179
66812W        W33221  22.740  17.053  11.582
66813W        W33222  11.922   8.659   4.969
66814W        W33223  30.373  32.999   1.000
66815W        W33224  26.288  17.018   4.209
66816W        W33225  22.044  17.178   3.218
66817W        W33226  39.846  44.019  13.820
66818W        W33227  16.293   8.872   3.663
66819W        W33228   5.372  20.310   2.163
66820W        W33229  16.041  24.691  13.875
66821W        W33230  18.828  17.284   4.787
66822W        W33231   0.524   1.786   2.302
66823W        W33232  12.545  41.718   0.933
66824W        W33233   1.731  43.932  13.854
66825W        W33234   2.107   7.113  11.994
66826W        W33235  30.596  34.929  14.364
66827W        W33236  39.886  40.829   2.609
66828W        W33237  40.474  33.372  13.060
66829W        W33238  44.811  40.531  10.538
66830W        W33239  33.991  30.693  10.668
66831W        W33240  11.108   4.956   4.068
66832W        W33241   8.944  40.439  14.929
66833W        W33242  37.848  19.033   3.041
66834W        W33243  16.307  20.345  11.709
66835W        W33244  17.767   4.856  11.230
66836W        W33245  33.913  12.736   0.971
66837W        W33246  36.832   4.777   2.197
66838W        W33247  11.271  11.850  14.833
66839W        W33248  30.043  13.577   4.140
66840W        W33249  41.139  22.643  12.487
66841W        W33250   2.798   6.681   3.424
66842W        W33251  44.372  38.685   1.115
66843W        W33252  39.554  39.676  14.275
66844W        W33253  27.642   6.757   3.567
66845W        W33254   8.207  12.434  13.095
66846W        W33255   6.881  44.808  12.490
66847W        W33256  26.344   3.534  13.965
66848W        W33257  14.292  39.757  12.343
66849W        W33258  27.011  27.695   4.301
66850W        W33259  30.693  15.334  11.721
66851W        W33260  28.650  25.745  13.495
66852W        W33261   1.537  14.416  12.428
66853W        W33262   2.327  14.784  13.448
66854W        W33263  41.957  31.395   4.209
66855W        W33264   5.927  15.186  10.739
66856W        W33265   6.706  10.437   2.269
66857W        W33266   1.737  25.262  10.798
66858W        W33267  30.607   9.819  13.439
66859W        W33268  15.125  27.497   2.682
66860W        W33269  37.348  44.974  11.557
66861W        W33270   9.905   0.801  12.621
66862W        W33271  35.400  43.052   3.166
66863W        W33272  14.766  37.418   2.749
66864W        W33273  10.743   0.230   1.392
66865W        W33274  29.384   1.347  11.044
66866W        W33275  37.338  10.590  12.091
66867W        W33276  12.205   3.479  10.959
66868W        W33277  15.235   5.882  14.260
66869W        W33278  21.048  21.684   4.401
66870W        W33279  41.083  15.036   5.012
66871W        W33280  34.398  13.030  12.592
66872W        W33281  38.851  13.799   3.624
66873W        W33282  37.928  30.985   4.946
66874W        W33283  27.690  29.269   0.312
66875W        W33284  40.474  34.847   1.511
66876W        W33285   6.822   5.942  13.463
66877W        W33286   0.301   4.460  14.510
66878W        W33287  35.754  41.651  12.550
66879W        W33288   0.771  24.357   4.133
66880W        W33289   6.300   3.265  14.179
66881W        W33290   6.836  21.610  13.393
66882W        W33291  44.364  28.861   1.322
66883W        W33292  17.054  13.173   0.315
66884W        W33293  31.336  43.754   3.311
66885W        W33294   2.880   3.188   4.038
66886W        W33295  28.177  27.592   0.781
66887W        W33296  17.498   3.043  11.665
66888W        W33297   9.069   2.785  14.696
66889W        W33298  29.187  36.548  10.627
66890W        W33299  15.632  44.704  10.631
66891W        W33300   4.186  25.446   0.322
66892W        W33301  10.107  41.347  10.499
66893W        W33302  41.848   1.465  12.490
66894W        W33303  11.124   2.377  13.395
66895W        W33304  28.021   5.243   2.431
66896W        W33305  27.514  43.549   1.892
66897W        W33306  34.595  36.974   1.721
66898W        W33307  12.514  37.794   5.043
66899W        W33308  32.662  37.188  12.040
66900W        W33309  42.327   6.231  10.951
66901W        W33310  30.450  38.604  12.090
66902W        W33311  36.427  23.009  10.078
66903W        W33312  43.276  12.208   5.077
66904W        W33313   9.315  18.217   3.109
66905W        W33314  22.916  10.677   0.880
66906W        W33315  21.541   5.550   2.769
66907W        W33316  39.955  36.570   4.874
66908W        W33317   6.377  39.110   4.019
66909W        W33318  24.144  41.912  10.812
66910W        W33319  33.898  18.086  10.499
66911W        W33320  16.598  22.723   2.166
66912W        W33321  31.116  21.699  10.635
66913W        W33322  35.314   8.734   3.208
66914W        W33323  38.830  26.078  10.761
66915W        W33324  14.795  39.190   1.632
66916W        W33325  27.714  24.561   1.353
66917W        W33326  31.524  37.412  14.974
66918W        W33327  24.787  14.535   1.598
66919W        W33328  18.257  13.138   3.595
66920W        W33329  25.035  27.851  10.668
66921W        W33330  32.909  13.316  14.859
66922W        W33331  17.638  26.912   0.437
66923W        W33332  18.484   6.140  10.694
66924W        W33333  21.761   8.290   0.605
66925W        W33334  11.760  29.048  12.499
66926W        W33335  40.597   2.394   4.614
66927W        W33336  33.857   9.410   3.739
66928W        W33337  43.997  33.686  14.373
66929W        W33338   8.180  21.496   4.694
66930W        W33339   6.456  20.688   2.084
66931W        W33340  15.173  34.754   2.219
66932W        W33341   9.048   6.943  13.483
66933W        W33342  40.757  24.688   0.383
66934W        W33343  19.938  12.195   2.382
66935W        W33344  43.469  26.012   2.195
66936W        W33345  31.190  39.111  11.744
66937W        W33346  12.048   5.344  13.930
66938W        W33347  21.228   5.385   4.193
66939W        W33348  31.069   8.041  12.154
66940W        W33349  40.493  43.311   4.250
66941W        W33350  33.645  20.050  10.801
66942W        W33351  32.377  35.348   1.878
66943W        W33352  23.224  17.327  12.865
66944W        W33353  29.715  20.657   0.926
66945W        W33354  30.101  12.805   4.531
66946W        W33355   8.406   8.421   0.374
66947W        W33356  33.642  15.307  11.197
66948W        W33357   4.309  10.485   3.381
66949W        W33358  13.700   7.320   4.235
66950W        W33359  21.765  35.535   0.272
66951W        W33360  32.144  42.945  14.963
66952W        W33361  16.814  40.527  10.868
66953W        W33362  21.823  18.122   4.400
66954W        W33363  33.767   0.239  14.003
66955W        W33364  40.385  35.363   4.928
66956W        W33365   3.110  29.974   1.799
66957W        W33366  37.971  40.753  11.642
66958W        W33367  18.663  13.607   3.133
66959W        W33368   0.375  43.168  11.568
66960W        W33369  40.150  42.864   3.579
66961W        W33370  16.519  16.100  14.563
66962W        W33371  43.865  34.931   3.354
66963W        W33372  11.926   1.878  10.320
66964W        W33373  31.735  24.031   4.233
66965W        W33374  22.053  16.357  11.171
66966W        W33375  12.235  10.865   1.219
66967W        W33376   4.891   7.125  10.605
66968W        W33377  28.964   6.676   2.661
66969W        W33378  14.153   0.297   3.259
66970W        W33379   9.848  10.888  14.788
66971W        W33380  38.802  39.753  11.566
66972W        W33381   2.790  24.465  11.959
66973W        W33382  14.797  42.213   2.826
66974W        W33383  40.028  38.315   4.256
66975W        W33384  17.800  10.155   2.373
66976W        W33385  33.580   5.830   3.186
66977W        W33386  12.764  41.562  13.474
66978W        W33387  23.018  25.449  11.939
66979W        W33388  13.640  33.550  13.665
66980W        W33389  30.191   3.944  11.465
66981W        W33390  13.754   3.976  14.382
66982W        W33391  30.929  34.179   4.421
66983W        W33392  19.256  25.763  12.873
66984W        W33393   4.627  22.209   5.455
66985W        W33394  44.892   2.801   1.619
66986W        W33395  41.826   8.630  11.150
66987W        W33396  30.620   2.148   1.343
66988W        W33397  38.373  44.196  13.566
66989W        W33398  37.362  22.551   0.974
66990W        W33399  15.116  38.832   0.364
66991W        W33400  41.355  23.479  13.470
66992W        W33401  18.715  20.656   2.175
66993W        W33402  13.911   1.177  14.855
66994W        W33403  13.225  43.343   4.792
66995W        W33404  10.894  24.655  11.652
66996W        W33405  35.512  23.527  10.413
66997W        W33406   1.102   4.485  13.943
66998W        W33407  19.620  30.440  12.485
66999W        W33408  27.161  40.264   0.891
67000W        W33409  25.252  23.936   4.979
67001W        W33410  42.317   2.293   3.298
67002W        W33411  31.313  11.104   1.305
67003W        W33412  27.992  44.976  13.969
67004W        W33413  38.842  43.377   3.718
67005W        W33414  13.035   3.746  14.018
67006W        W33415  34.320  10.772  11.136
67007W        W33416   2.517  39.516   1.899
67008W        W33417   6.740  41.322  11.189
67009W        W33418  27.025  41.015   2.367
67010W        W33419   6.973  10.919  12.513
67011W        W33420   8.696  36.697   4.654
67012W        W33421   4.016  14.155  11.114
67013W        W33422  30.964  27.333   0.912
67014W        W33423  23.330  21.817  12.901
67015W        W33424   4.461  30.157   3.374
67016W        W33425   7.417   5.793   3.694
67017W        W33426   7.656  40.321  13.148
67018W        W33427   3.184  40.123  13.032
67019W        W33428  10.704  44.631  14.902
67020W        W33429  44.400  38.002  10.253
67021W        W33430  12.019  27.736  11.484
67022W        W33431  14.735  17.355   1.457
67023W        W33432  38.277  15.486  13.520
67024W        W33433   9.986  24.320   0.960
67025W        W33434  20.033  19.177  12.424
67026W        W33435  37.525  44.920   3.600
67027W        W33436  21.974  23.965  14.917
67028W        W33437  31.625  25.568  13.339
67029W        W33438  41.200   6.281   1.834
67030W        W33439   6.964  17.125   2.795
67031W        W33440   3.856  21.168   3.997
67032W        W33441  19.131  30.779  13.547
67033W        W33442   9.305   8.398   2.892
67034W        W33443  11.060  39.950  11.573
67035W        W33444  34.570  22.815   2.844
67036W        W33445  12.103  26.434  13.465
67037W        W33446  21.630  29.951   0.448
67038W        W33447   9.832  39.026   2.043
67039W        W33448  25.548   1.443   4.596
67040W        W33449  34.799  11.898   1.387
67041W        W33450  14.711  36.606   1.414
67042W        W33451  37.803  13.884   3.459
67043W        W33452  14.836  13.359   4.119
67044W        W33453  14.326  11.761   4.236
67045W        W33454  22.301  39.785  12.094
67046W        W33455  44.756   1.531   4.001
67047W        W33456  21.986   2.329   0.890
67048W        W33457  34.134  23.077  14.204
67049W        W33458  19.757  42.436   3.298
67050W        W33459  36.841  24.747   4.515
67051W        W33460  36.347  21.785  12.951
67052W        W33461  35.134  32.485  11.858
67053W        W33462  38.094  32.865   3.700
67054W        W33463  11.295   9.218   4.117
67055W        W33464  21.649  24.231  12.090
67056W        W33465  20.669   4.259   1.915
67057W        W33466  27.597  19.704   1.911
67058W        W33467  43.498  36.460  14.426
67059W        W33468  26.874  38.399   1.220
67060W        W33469  29.908   1.483  11.131
67061W        W33470  37.033  17.905   0.496
67062W        W33471  28.288  26.274   4.127
67063W        W33472  31.376   2.763   0.757
67064W        W33473   4.545  21.730   1.761
67065W        W33474  25.092  15.091   3.931
67066W        W33475   1.547  14.757  10.607
67067W        W33476  37.217   4.009   4.979
67068W        W33477  29.254  33.099  12.164
67069W        W33478  19.933  25.471  13.393
67070W        W33479  22.905  10.821  11.467
67071W        W33480  24.044  15.676   2.633
67072W        W33481  15.601  10.357   0.497
67073W        W33482  30.516  13.670  11.989
67074W        W33483   7.774  43.389   2.375
67075W        W33484   4.356   3.847   2.208
67076W        W33485  24.662  37.973  13.567
67077W        W33486   1.430  39.954  11.636
67078W        W33487   7.068   9.738   2.706
67079W        W33488   4.782  16.090  10.506
67080W        W33489  11.562  11.345  14.517
67081W        W33490   0.950   0.322   1.929
67082W        W33491   9.702   6.418  13.080
67083W        W33492  16.224  34.706   0.343
67084W        W33493  22.013  44.115  11.524
67085W        W33494  38.364  31.414  12.911
67086W        W33495  13.758  11.565   2.276
67087W        W33496  25.225  27.781  12.457
67088W        W33497   3.887  41.762  13.963
67089W        W33498   5.510  14.710   3.586
67090W        W33499  31.293  32.673  14.341
67091W        W33500  33.852  41.467   1.112
67092W        W33501  14.087  20.204  10.697
67093W        W33502  41.860  39.112   3.534
67094W        W33503  21.214  37.510   4.047
67095W        W33504   3.669  20.046   2.927
67096W        W33505   1.783  30.343  13.439
67097W        W33506   4.366  24.585   3.632
67098W        W33507  16.159  31.433   1.484
67099W        W33508  21.533  29.502   4.466
67100W        W33509  16.837  40.274   3.299
67101W        W33510  16.039  30.992   3.251
67102W        W33511  13.356  27.658  14.963
67103W        W33512   3.462   4.378  12.163
67104W        W33513  19.835  24.993   3.921
67105W        W33514  39.083  16.097  12.494
67106W        W33515  33.904  27.397   0.024
67107W        W33516   7.693  27.711   1.329
67108W        W33517  43.799  27.960   1.177
67109W        W33518  13.638  32.531  12.346
67110W        W33519  17.814  16.508  11.956
67111W        W33520  44.284  33.986  11.735
67112W        W33521   7.995  27.313  10.638
67113W        W33522   7.426  26.083  12.401
67114W        W33523  12.865   7.365   3.725
67115W        W33524  44.868  30.619   1.470
67116W        W33525  10.904  17.889  13.821
67117W        W33526  29.062   1.309   0.437
67118W        W33527   5.165  10.877   2.799
67119W        W33528  34.467   2.750   1.636
67120W        W33529  31.045  27.923  11.040
67121W        W33530   1.333  38.479  14.478
67122W        W33531  13.407  18.006   3.894
67123W        W33532  25.071   0.043  11.870
67124W        W33533  42.345  29.469   0.513
67125W        W33534  26.978  19.610   3.759
67126W        W33535  18.540  34.540   2.348
67127W        W33536  14.533  22.769   0.193
67128W        W33537  19.747  39.764  12.394
67129W        W33538  32.640  22.134  11.176
67130W        W33539  27.575  36.416  14.441
67131W        W33540  22.718  26.738   2.554
67132W        W33541  34.498  11.815   5.069
67133W        W33542  21.603  27.639  10.691
67134W        W33543  15.699  42.842   4.500
67135W        W33544  10.662  35.419   5.101
67136W        W33545   6.120  31.199   4.566
67137W        W33546  30.481  31.239  12.311
67138W        W33547   4.843  41.243   3.644
67139W        W33548  19.576  38.614   0.723
67140W        W33549  12.669  32.911   3.165
67141W        W33550  42.322  18.646   2.347
67142W        W33551  27.449  19.566   0.978
67143W        W33552  29.850  19.477   2.948
67144W        W33553  11.553   3.003   3.516
67145W        W33554  29.580  43.324  12.912
67146W        W33555  24.781   4.484  11.921
67147W        W33556  13.345  13.324   2.832
67148W        W33557   1.385  11.672   2.339
67149W        W33558  30.161  37.639  12.066
67150W        W33559  39.476   0.851  12.731
67151W        W33560  41.216  33.423  11.997
67152W        W33561  42.148   9.762   2.759
67153W        W33562  13.780  41.767  12.991
67154W        W33563  38.978  41.731  14.379
67155W        W33564  10.825   5.735   4.697
67156W        W33565  41.400  15.626  12.094
67157W        W33566   3.921  43.514  13.085
67158W        W33567  22.491   5.953  13.491
67159W        W33568  26.088   0.867   2.271
67160W        W33569   4.532  13.237   0.809
67161W        W33570   3.143  36.914   3.722
67162W        W33571  41.690  14.367  12.524
67163W        W33572  10.314  17.199  12.531
67164W        W33573   0.406  44.063  14.456
67165W        W33574  20.545  43.491  13.143
67166W        W33575  21.746  40.044  14.507
67167W        W33576   5.047  30.170  11.988
67168W        W33577  39.977  35.637  10.663
67169W        W33578  30.953  11.325   0.377
67170W        W33579  20.843  25.446  12.864
67171W        W33580   6.911  43.070   3.708
67172W        W33581  41.751  24.740  12.283
67173W        W33582  40.969  19.055  11.043
67174W        W33583  16.939   7.354  14.753
67175W        W33584  22.634   5.385   2.773
67176W        W33585  44.913  25.264  11.080
67177W        W33586  17.387  21.309  13.896
67178W        W33587  44.541  29.444  12.368
67179W        W33588  29.533   7.305   3.399
67180W        W33589  40.105  39.025  12.361
67181W        W33590  32.368  38.044  12.951
67182W        W33591  12.822  17.725  13.030
67183W        W33592  41.028  16.561   2.871
67184W        W33593  31.939  22.039   0.863
67185W        W33594   1.282  38.370   3.791
67186W        W33595  35.009  13.767  13.397
67187W        W33596  14.198  44.317   4.464
67188W        W33597  10.313  37.132  14.865
67189W        W33598  13.916  15.871  11.279
67190W        W33599  17.172  16.929   4.692
67191W        W33600  34.990  27.861   3.342
67192W        W33601  11.661   8.161  12.856
67193W        W33602  38.487  19.672   3.657
67194W        W33603  21.431  24.732  12.028
67195W        W33604  37.936   6.412  13.389
67196W        W33605  22.386  35.437   2.387
67197W        W33606  40.385   3.304   1.448
67198W        W33607   5.108  41.558  11.224
67199W        W33608  39.736   0.947   4.088
67200W        W33609  38.867  36.682   1.730
67201W        W33610  22.155   8.479  11.232
67202W        W33611  13.142  19.307  13.136
67203W        W33612  27.390  28.640  10.372
67204W        W33613  42.566  10.635  12.963
67205W        W33614  31.979  28.071  11.258
67206W        W33615  34.025  19.225   3.738
67207W        W33616  38.913  34.029   2.723
67208W        W33617  38.063   9.313  11.636
67209W        W33618  23.728   8.224  11.641
67210W        W33619  10.646  15.982  14.778
67211W        W33620   5.519  25.417   0.259
67212W        W33621   1.204  14.474  12.910
67213W        W33622   5.917  33.320   3.196
67214W        W33623   3.410   6.515   2.757
67215W        W33624  33.066  13.154   2.673
67216W        W33625  18.800   6.445   5.023
67217W        W33626  32.678   3.134  10.315
67218W        W33627  32.708  31.375   1.447
67219W        W33628  35.643  20.737  13.136
67220W        W33629  35.378  25.965  11.884
67221W        W33630  24.899  24.170  13.961
67222W        W33631   7.351  21.486  11.072
67223W        W33632  28.088  40.816   0.201
67224W        W33633   2.491  36.191   2.450
67225W        W33634  35.357  41.515   1.528
67226W        W33635  26.803  22.850   4.425
67227W        W33636   5.165  43.740   4.539
67228W        W33637  29.165  41.926   4.534
67229W        W33638  33.672  32.646  14.894
67230W        W33639  34.122  32.093  13.335
67231W        W33640  22.722  42.892   1.342
67232W        W33641  34.118  11.318   3.169
67233W        W33642  37.376  31.649  10.686
67234W        W33643  36.720  37.786  14.564
67235W        W33644  18.682  16.627   2.419
67236W        W33645  43.837  44.849   1.554
67237W        W33646  24.482  40.275  10.650
67238W        W33647   7.407   8.473   0.558
67239W        W33648  15.789  28.207  12.002
67240W        W33649  13.762   9.198  13.893
67241W        W33650  42.397  11.586  14.838
67242W        W33651  31.133  10.723   2.841
67243W        W33652  41.338  32.626   1.219
67244W        W33653   3.906   6.954   0.914
67245W        W33654  16.115  29.747   2.629
67246W        W33655  44.483  33.454  14.375
67247W        W33656  20.189  10.149  12.629
67248W        W33657   7.107  33.928   4.226
67249W        W33658  20.076  43.031   0.296
67250W        W33659  32.582  15.805   2.257
67251W        W33660  35.555   6.381  10.555
67252W        W33661  29.306  42.754   4.561
67253W        W33662  12.041  38.777   3.771
67254W        W33663  34.150  41.309   3.863
67255W        W33664  36.143  17.706   1.378
67256W        W33665   7.110  28.626   5.027
67257W        W33666  12.642  29.454   3.716
67258W        W33667  22.740  40.060  14.805
67259W        W33668  24.642   1.198   2.890
67260W        W33669  28.670  29.768  12.440
67261W        W33670   9.718  32.591   2.638
67262W        W33671  23.109  11.758   4.079
67263W        W33672  43.321  17.534   2.491
67264W        W33673  16.756  29.956  11.865
67265W        W33674  34.573   7.611   1.250
67266W        W33675   0.181  24.636  11.144
67267W        W33676  29.993  25.987  12.668
67268W        W33677  40.139  12.011  12.928
67269W        W33678  18.470   1.066   2.493
67270W        W33679  38.508  24.812   1.673
67271W        W33680  15.589  15.635   1.774
67272W        W33681  28.874   1.801   1.127
67273W        W33682  43.478  22.054   0.746
67274W        W33683  25.593  43.398   4.420
67275W        W33684  11.083  36.013   1.546
67276W        W33685  43.957  37.808  13.379
67277W        W33686  12.137  17.174  10.962
67278W        W33687   6.642  44.520  11.868
67279W        W33688   2.230  38.537   3.359
67280W        W33689  12.077   0.012   2.065
67281W        W33690   5.176   0.049   2.896
67282W        W33691  13.347  29.492  13.117
67283W        W33692  13.717   1.121  12.871
67284W        W33693   5.984  25.663  11.245
67285W        W33694  26.624  38.270  11.613
67286W        W33695  11.406  23.183  10.711
67287W        W33696  10.275  16.633  11.659
67288W        W33697  35.864  27.082   0.967
67289W        W33698  10.102  20.820  11.423
67290W        W33699   7.912   5.349  10.683
67291W        W33700   8.329  21.672  14.974
67292W        W33701   7.270  38.097   4.133
67293W        W33702   6.781  10.116  14.069
67294W        W33703  37.989  24.560  13.334
67295W        W33704  12.102  31.623  14.842
67296W        W33705  20.694  13.115   0.814
67297W        W33706  42.036  31.205  10.814
67298W        W33707   1.495  10.817   0.293
67299W        W33708  37.216   4.470  13.576
67300W        W33709  41.864  44.261   9.795
67301W        W33710  22.182   6.221  11.741
67302W        W33711  39.526   3.815  13.139
67303W        W33712  39.430  22.281   3.928
67304W        W33713  44.115  21.461  13.044
67305W        W33714  10.900  26.489  11.485
67306W        W33715   1.454  15.177   2.213
67307W        W33716  10.838  20.926   0.760
67308W        W33717  11.495   9.698   1.928
67309W        W33718  19.278  18.104   1.946
67310W        W33719   2.229  37.955   1.326
67311W        W33720  21.524  22.660   3.101
67312W        W33721   9.011   2.036   4.571
67313W        W33722  36.716  44.347  14.264
67314W        W33723  26.678  18.111  11.541
67315W        W33724  35.000  37.342  11.557
67316W        W33725  24.024   7.572  13.526
67317W        W33726   0.355  38.461   0.711
67318W        W33727  40.832  31.346   0.560
67319W        W33728  16.160  24.064  12.378
67320W        W33729   3.798   7.750  13.328
67321W        W33730  32.673  15.674   1.321
67322W        W33731  11.696  42.134   3.375
67323W        W33732   6.942  22.584   1.700
67324W        W33733   4.469  29.399   3.667
67325W        W33734  12.678   2.920  13.522
67326W        W33735  18.518  35.513   1.513
67327W        W33736   9.191  39.779  14.002
67328W        W33737  18.858  37.625  11.091
67329W        W33738  38.952  18.171  13.905
67330W        W33739   3.251  21.181   4.253
67331W        W33740  20.675  36.486  12.678
67332W        W33741  31.111  36.075  10.712
67333W        W33742  37.571  41.782   4.631
67334W        W33743   4.264  19.271   4.463
67335W        W33744  39.566   9.533   2.105
67336W        W33745  37.385  23.163   3.197
67337W        W33746  43.770  35.313  12.497
67338W        W33747  19.771  29.474   1.228
67339W        W33748  40.081   8.224   1.336
67340W        W33749  14.560  22.651   2.847
67341W        W33750  39.518  20.770  10.200
67342W        W33751  36.408  44.464  13.433
67343W        W33752   5.300   4.989   1.241
67344W        W33753   9.952  33.766   0.719
67345W        W33754  24.598  13.736  14.002
67346W        W33755  30.444  31.555  11.120
67347W        W33756  43.514  16.564   2.276
67348W        W33757  36.336  12.749   2.827
67349W        W33758  12.642  16.552   1.001
67350W        W33759   2.464  18.167   2.237
67351W        W33760  43.470  31.989   3.235
67352W        W33761  31.889  17.361  14.848
67353W        W33762  26.748  10.558   4.988
67354W        W33763   7.765   9.684  13.134
67355W        W33764  38.762   8.601   0.476
67356W        W33765  11.839   3.494  12.146
67357W        W33766  32.350  16.306   3.420
67358W        W33767  36.611   2.060  14.046
67359W        W33768  21.587  32.274   1.483
67360W        W33769  25.232   2.967  14.736
67361W        W33770   0.921  44.063   4.014
67362W        W33771   5.564  21.805   0.600
67363W        W33772  38.907   9.590   0.045
67364W        W33773  36.944  19.487   4.510
67365W        W33774  17.165  27.269  11.494
67366W        W33775  27.677  19.173  12.817
67367W        W33776  44.625   2.913  11.635
67368W        W33777   2.005  41.509   1.252
67369W        W33778  10.054  25.250  10.247
67370W        W33779  40.206  43.787   0.528
67371W        W33780   9.252  12.605   2.065
67372W        W33781  19.518  17.787   2.325
67373W        W33782   9.662  39.353  13.457
67374W        W33783  37.721   8.265   3.310
67375W        W33784  43.451  39.532   2.805
67376W        W33785   8.470  38.606   4.597
67377W        W33786  13.864  40.515  12.673
67378W        W33787  37.536   1.234  11.649
67379W        W33788  16.057  28.902   3.139
67380W        W33789  41.748  43.892  13.869
67381W        W33790  32.458   0.097   0.404
67382W        W33791   9.256  14.277   4.618
67383W        W33792  20.193  24.727   3.212
67384W        W33793  15.817  13.078   5.328
67385W        W33794  34.899  27.884  13.258
67386W        W33795  31.148  30.181  12.128
67387W        W33796  23.270  19.786   3.653
67388W        W33797  36.900  32.546   4.651
67389W        W33798   4.915   1.757   3.536
67390W        W33799  32.915  40.415  11.665
67391W        W33800  32.329  35.643   0.958
67392W        W33801   2.891  15.349  12.131
67393W        W33802  26.750  31.266  13.911
67394W        W33803  41.434  28.909   1.157
67395W        W33804  28.065  28.149   2.323
67396W        W33805   5.803  25.691   2.679
67397W        W33806   4.855  42.145   3.718
67398W        W33807  22.785  26.165   4.637
67399W        W33808  26.056  12.412   4.636
67400W        W33809  43.468  12.834   4.517
67401W        W33810  13.875  22.167   3.044
67402W        W33811   4.031  16.777   3.770
67403W        W33812  13.126  10.271   4.162
67404W        W33813   7.338  17.632  10.702
67405W        W33814  29.674   3.436  12.201
67406W        W33815  42.449  27.121   1.808
67407W        W33816  38.304  32.561  12.154
67408W        W33817   2.519  11.611  14.457
67409W        W33818   4.329  19.289   0.583
67410W        W33819  44.803  39.944   5.011
67411W        W33820  27.841  35.504   3.430
67412W        W33821   6.273  34.547  13.555
67413W        W33822  44.238  43.406   0.748
67414W        W33823  30.506  24.055   0.481
67415W        W33824   3.265  13.158  13.880
67416W        W33825   9.434  17.140   2.394
67417W        W33826  41.323  19.284   0.925
67418W        W33827  43.636   7.593   5.495
67419W        W33828   5.074  10.239   3.366
67420W        W33829  42.296  13.902   2.344
67421W        W33830  12.941  29.982   2.782
67422W        W33831  37.299  34.083  12.527
67423W        W33832  16.091  32.400  14.827
67424W        W33833  20.110   5.654   3.193
67425W        W33834  18.320  39.878  12.362
67426W        W33835   4.112  22.365  13.891
67427W        W33836   9.733  13.127  14.912
67428W        W33837  38.010  15.205   2.104
67429W        W33838  18.935  38.619  14.009
67430W        W33839  16.699  38.143  11.639
67431W        W33840  30.579  30.127   2.131
67432W        W33841  44.319  35.197  14.408
67433W        W33842  38.059   1.044  11.685
67434W        W33843   8.356  26.076   4.150
67435W        W33844  40.249  27.438  14.118
67436W        W33845  20.181   5.276  13.527
67437W        W33846   2.911   4.587  14.509
67438W        W33847  27.464  16.397  11.979
67439W        W33848   8.855  19.972  12.530
67440W        W33849  26.756  28.026   4.683
67441W        W33850  37.835  25.042   3.168
67442W        W33851   7.992  19.028  11.377
67443W        W33852  20.164  37.651   3.148
67444W        W33853  17.339  19.228   2.740
67445W        W33854  21.707  42.349  12.436
67446W        W33855  29.246  13.038  14.485
67447W        W33856  44.773  31.910  12.392
67448W        W33857  23.586  36.426  10.890
67449W        W33858  15.676  27.506  12.303
67450W        W33859   3.597  36.365  13.052
67451W        W33860   6.771  23.632   5.434
67452W        W33861  42.150  30.900  14.453
67453W        W33862  40.572  21.230   4.574
67454W        W33863  22.662   4.201   0.828
67455W        W33864  44.983   1.439  14.442
67456W        W33865  22.461  33.833  13.782
67457W        W33866  29.738   6.756  11.597
67458W        W33867  18.835   6.477   1.644
67459W        W33868  19.731  31.388   2.460
67460W        W33869   9.867  44.443   0.479
67461W        W33870   8.640  25.095  13.049
67462W        W33871  41.875  16.557   2.282
67463W        W33872  23.195  35.099  11.596
67464W        W33873   1.909  11.618  13.856
67465W        W33874  18.080   3.993  13.351
67466W        W33875  38.868   8.835   3.490
67467W        W33876  21.085  23.909  12.896
67468W        W33877  19.495  25.608   1.819
67469W        W33878  32.348  24.830  11.660
67470W        W33879   6.196  44.785  12.003
67471W        W33880  42.544  43.076  12.109
67472W        W33881  25.417   1.485   3.229
67473W        W33882  22.243  13.197   4.556
67474W        W33883  27.207  28.113   0.394
67475W        W33884  37.850  29.931  11.156
67476W        W33885  44.786  26.155   3.224
67477W        W33886  32.446  42.373  11.054
67478W        W33887   5.273  40.900  10.738
67479W        W33888  15.722  13.621   3.287
67480W        W33889  10.615  30.857   1.285
67481W        W33890  31.250  38.570  13.354
67482W        W33891  32.550  40.292   2.605
67483W        W33892  40.884  39.267   4.996
67484W        W33893   7.561  22.839   0.875
67485W        W33894  15.362  18.135   2.751
67486W        W33895   7.791  26.401  11.601
67487W        W33896   9.471  38.853  13.489
67488W        W33897   1.305  31.388   0.644
67489W        W33898  15.531  15.074  13.295
67490W        W33899   7.275  39.466   3.632
67491W        W33900  43.408  43.888   2.816
67492W        W33901   2.732  24.013  11.007
67493W        W33902  39.465  22.224   2.211
67494W        W33903  39.479  10.529   3.596
67495W        W33904  44.407   9.640   3.125
67496W        W33905  40.293  21.079   0.866
67497W        W33906   3.687  25.799   0.622
67498W        W33907  28.633  14.251   5.080
67499W        W33908  43.363  17.033  14.816
67500W        W33909  42.117  15.220   4.569
67501W        W33910   3.507  41.351   0.377
67502W        W33911  22.991   1.894   3.944
67503W        W33912  24.078  25.151   0.326
67504W        W33913  29.554  10.251   2.046
67505W        W33914  34.621   9.885   0.980
67506W        W33915  26.586  20.784   0.826
67507W        W33916  42.208   7.771  12.351
67508W        W33917  11.600  30.407   3.679
67509W        W33918  41.899  31.030   0.894
67510W        W33919  23.220  37.632  10.498
67511W        W33920  35.997  24.644  11.077
67512W        W33921  25.125  10.596  14.406
67513W        W33922   2.632  27.837   2.735
67514W        W33923  27.605   6.359   0.437
67515W        W33924  19.703  23.228  10.665
67516W        W33925  22.788  19.630   1.933
67517W        W33926  33.522  28.697   3.582
67518W        W33927  23.207  12.896  11.521
67519W        W33928  13.607  13.125   1.323
67520W        W33929  15.400  27.070  13.006
67521W        W33930  18.163  11.351   3.250
67522W        W33931  19.937  11.700   1.293
67523W        W33932  24.921  31.313   1.836
67524W        W33933  19.771  11.941   5.020
67525W        W33934  44.967  10.995  10.795
67526W        W33935  30.629  29.687  14.082
67527W        W33936  26.988  43.815  11.585
67528W        W33937  38.721  39.413   4.031
67529W        W33938  12.336   4.166   3.082
67530W        W33939  30.069  22.746   3.165
67531W        W33940  41.201  41.898   3.347
67532W        W33941  17.298  27.989   4.995
67533W        W33942  15.065  25.718  13.809
67534W        W33943  30.874  10.210  12.065
67535W        W33944  34.448  11.881   0.713
67536W        W33945  22.756  20.293  11.312
67537W        W33946  29.975   2.683   4.995
67538W        W33947  25.410  21.162   1.189
67539W        W33948  31.978  20.973  12.548
67540W        W33949  40.836  32.042  14.518
67541W        W33950  39.587  13.635  13.004
67542W        W33951  32.874   6.513   1.328
67543W        W33952   0.964  17.527   4.192
67544W        W33953   0.876  13.904   4.498
67545W        W33954   7.906  10.834  10.449
67546W        W33955  27.544  11.909   3.355
67547W        W33956  29.734   5.220   4.065
67548W        W33957  44.493   2.298   2.368
67549W        W33958  37.803  34.035   0.242
67550W        W33959  42.322  27.425   1.031
67551W        W33960  11.105  35.133   0.482
67552W        W33961  16.267   2.961  10.966
67553W        W33962  24.146  35.537  12.121
67554W        W33963  40.814  23.537   4.294
67555W        W33964  14.583  37.354   3.214
67556W        W33965   6.394  30.476   2.732
67557W        W33966  36.861  39.303  11.625
67558W        W33967  26.967  19.125   0.187
67559W        W33968  26.568  14.353  14.820
67560W        W33969  16.156  18.133   4.831
67561W        W33970  31.384   4.992  13.766
67562W        W33971  17.524  44.181  14.848
67563W        W33972   3.417  23.163  14.229
67564W        W33973  37.018  10.172   1.837
67565W        W33974  39.825  11.710  10.357
67566W        W33975  20.048  26.428   3.303
67567W        W33976  26.330  36.469   3.895
67568W        W33977  41.419  21.127   2.952
67569W        W33978  25.602  28.374   0.709
67570W        W33979  23.577  13.080   0.441
67571W        W33980   5.107  31.216  13.138
67572W        W33981   6.016   3.476  11.376
67573W        W33982  11.841  18.184  10.348
67574W        W33983   5.926   8.717   0.293
67575W        W33984   8.158  22.405  12.819
67576W        W33985  40.251  35.628   2.906
67577W        W33986  17.237  20.798   2.667
67578W        W33987  12.183  18.399  10.682
67579W        W33988  20.802   5.837  11.012
67580W        W33989   5.119  35.961   0.376
67581W        W33990  14.969  33.155   1.422
67582W        W33991  39.065  24.904   5.017
67583W        W33992  21.133  37.676  10.722
67584W        W33993  34.611   4.802  13.547
67585W        W33994  15.146   0.953  10.349
67586W        W33995  39.287  40.568   1.447
67587W        W33996  41.674  20.180  11.570
67588W        W33997  39.739  33.056  10.791
67589W        W33998   7.387  26.057   4.266
67590W        W33999  18.666  37.782   1.263
67591W        W34000  21.820  39.798  10.947
67592W        W34001  12.271  11.631  14.880
67593W        W34002   8.727   2.482  12.894
67594W        W34003  43.871  31.618   4.102
67595W        W34004  23.512  22.140   3.546
67596W        W34005  19.620  13.220   3.110
67597W        W34006  18.540  16.111  13.403
67598W        W34007  37.917  21.322   1.023
67599W        W34008  13.697   4.892   2.210
67600W        W34009  32.869   5.272  12.958
67601W        W34010  25.828  11.790  14.417
67602W        W34011   9.733  26.946   1.024
67603W        W34012  39.621   1.302   1.428
67604W        W34013  19.262  31.669  11.561
67605W        W34014  20.246  44.853   2.422
67606W        W34015  43.281  44.349  14.431
67607W        W34016  35.155  35.904  11.624
67608W        W34017  37.030  38.013  13.578
67609W        W34018  24.525  28.724  12.891
67610W        W34019   4.074  18.622   4.021
67611W        W34020  40.399  26.489   3.706
67612W        W34021  38.664  37.300   3.246
67613W        W34022  25.628  28.711   2.016
67614W        W34023  25.119   5.937   2.765
67615W        W34024  42.454  41.513   4.493
67616W        W34025  13.383  41.204  13.669
67617W        W34026  31.376   1.075  10.247
67618W        W34027  29.036  31.517   4.148
67619W        W34028  26.598   3.085   1.279
67620W        W34029  35.885  28.993   2.151
67621W        W34030  34.112  35.422   2.444
67622W        W34031  42.915  37.820   0.897
67623W        W34032   1.334  25.959   2.547
67624W        W34033   0.789  15.040   2.676
67625W        W34034  11.641  31.104   2.803
67626W        W34035   6.675  26.163  11.204
67627W        W34036  21.947  24.175   0.437
67628W        W34037  32.405  28.694   4.282
67629W        W34038  39.918  33.918  14.272
67630W        W34039  24.078  22.589   2.265
67631W        W34040  11.116  11.123   2.666
67632W        W34041  40.495  28.716  13.584
67633W        W34042  37.087  13.100  13.875
67634W        W34043  16.213   9.909   1.822
67635W        W34044   8.376  19.256  14.440
67636W        W34045  10.725  44.786   4.237
67637W        W34046  22.679  33.540  14.354
67638W        W34047  24.817   7.367  14.135
67639W        W34048  39.700  14.352  11.342
67640W        W34049  21.063  41.236   1.622
67641W        W34050  37.020  31.122  13.540
67642W        W34051  20.779  16.848  10.763
67643W        W34052  10.221  43.802  11.172
67644W        W34053  28.455  19.366   4.638
67645W        W34054  26.108  22.186   0.775
67646W        W34055  20.207  38.501   0.008
67647W        W34056  31.935  15.122   2.238
67648W        W34057   5.677  21.497  11.814
67649W        W34058  17.307  18.918  12.933
67650W        W34059  14.248  16.301   0.875
67651W        W34060  33.490  34.751  12.154
67652W        W34061  44.871   2.776   4.032
67653W        W34062  44.269  14.918  11.101
67654W        W34063   9.945  12.546  11.828
67655W        W34064  20.951  15.844   3.978
67656W        W34065  23.282  38.853  11.915
67657W        W34066  21.890   0.937  14.741
67658W        W34067  27.322  37.495  10.726
67659W        W34068  32.856  10.605  13.461
67660W        W34069  36.483  41.726  13.742
67661W        W34070  15.685  29.975   1.699
67662W        W34071   5.787  40.756  10.844
67663W        W34072  12.682  11.303   4.202
67664W        W34073   3.267  38.236   2.321
67665W        W34074  26.691  16.270   3.710
67666W        W34075  13.843   4.831  10.596
67667W        W34076  43.771   6.213  11.478
67668W        W34077  20.288  42.558  11.538
67669W        W34078  33.088  38.233  11.348
67670W        W34079  32.595   3.072  12.067
67671W        W34080   8.747   8.577   1.726
67672W        W34081  29.045  15.710   4.581
67673W        W34082  15.555  11.634   2.764
67674W        W34083   1.717  11.320   0.474
67675W        W34084  38.872  42.977   3.319
67676W        W34085  14.612  24.306   5.015
67677W        W34086  15.640  28.863   0.963
67678W        W34087   1.953  31.384  12.083
67679W        W34088  26.494  43.270  12.616
67680W        W34089  36.124  42.298  10.795
67681W        W34090   2.880  18.035   1.847
67682W        W34091  22.472  39.020  12.476
67683W        W34092  16.295  23.189  11.901
67684W        W34093  20.001  35.477   3.837
67685W        W34094  44.497  35.583   1.777
67686W        W34095   9.780  10.761  10.663
67687W        W34096  31.315  16.293  13.430
67688W        W34097  31.029  20.048  10.313
67689W        W34098  12.190  22.111  13.271
67690W        W34099  44.554   8.352   2.832
67691W        W34100  40.550  38.667   2.461
67692W        W34101  16.576  18.793  14.601
67693W        W34102  44.823  17.162  11.847
67694W        W34103  14.271   2.919  10.937
67695W        W34104   3.057  29.737   4.042
67696W        W34105  24.534  28.524   3.840
67697W        W34106  31.870   2.662  14.813
67698W        W34107  17.815  14.267  14.964
67699W        W34108  31.952  26.316  10.105
67700W        W34109  21.050   6.588  11.961
67701W        W34110  32.126   0.269   3.259
67702W        W34111  21.957  26.676  14.877
67703W        W34112  30.446   4.928  13.557
67704W        W34113  39.268  21.306  11.825
67705W        W34114   7.342   4.209  13.050
67706W        W34115  40.025  10.609   2.009
67707W        W34116  35.984  19.615   4.711
67708W        W34117  29.149  32.058  13.998
67709W        W34118  14.762   8.518  14.707
67710W        W34119  18.702  21.978  12.054
67711W        W34120  22.675  28.115  12.352
67712W        W34121  21.385  35.685   3.006
67713W        W34122  41.321  37.063  13.006
67714W        W34123  41.568  11.671  14.753
67715W        W34124  11.617   8.396  11.482
67716W        W34125   7.262  27.201  11.086
67717W        W34126  15.804   4.391   4.011
67718W        W34127  30.933  17.023   1.249
67719W        W34128  16.424  17.540   4.565
67720W        W34129   5.740  42.060  11.729
67721W        W34130  27.011  41.393   0.366
67722W        W34131   1.017  19.683  10.382
67723W        W34132  38.837  23.370  11.784
67724W        W34133  22.039   5.555  14.463
67725W        W34134  16.121  39.047   3.220
67726W        W34135  38.883   0.023  13.424
67727W        W34136   9.318  37.191  12.385
67728W        W34137  25.032  14.832   4.739
67729W        W34138  22.565  22.977   3.454
67730W        W34139  29.471  22.419   5.234
67731W        W34140   5.032  44.081  11.571
67732W        W34141  21.103  11.542  14.049
67733W        W34142  42.494  31.935  10.508
67734W        W34143  29.482  34.307  13.539
67735W        W34144  31.481   5.823  13.721
67736W        W34145  36.064  32.468  14.355
67737W        W34146  14.263  22.979   2.369
67738W        W34147   0.786  30.755   4.966
67739W        W34148   6.695   4.767   1.832
67740W        W34149  34.855  14.180   0.766
67741W        W34150  25.618   0.058   0.248
67742W        W34151  12.256  43.967  10.733
67743W        W34152  30.438  17.862  12.989
67744W        W34153  41.825  40.899   4.122
67745W        W34154  31.144  24.840  11.953
67746W        W34155  13.392  42.365   4.511
67747W        W34156  14.245  31.170  14.556
67748W        W34157  25.910  21.036  11.641
67749W        W34158  44.898  16.570   0.735
67750W        W34159  13.948   4.859   0.349
67751W        W34160   2.520  25.937   1.469
67752W        W34161  39.133  25.767  11.998
67753W        W34162  24.975  18.780   1.355
67754W        W34163  10.862  43.824   0.388
67755W        W34164  33.746  29.083   4.630
67756W        W34165  24.168  31.682   3.815
67757W        W34166   5.171  31.114   4.180
67758W        W34167  36.269  13.722  11.845
67759W        W34168   5.683  29.939  12.992
67760W        W34169  42.296  21.250   1.778
67761W        W34170  17.495   8.342   1.608
67762W        W34171  41.327  19.868  11.106
67763W        W34172  34.542  30.860   3.804
67764W        W34173  24.468  37.071   0.457
67765W        W34174  33.200  10.821   2.352
67766W        W34175   1.255  38.596  12.168
67767W        W34176  24.604  35.083   0.020
67768W        W34177  20.627  28.538  14.305
67769W        W34178  34.398  21.555  13.258
67770W        W34179  23.070  17.104   2.199
67771W        W34180   4.738   0.458  13.324
67772W        W34181  23.669  28.089  14.480
67773W        W34182  27.464  34.592  13.449
67774W        W34183  24.474   0.719   2.760
67775W        W34184   5.359  42.917   3.742
67776W        W34185  38.818  22.603   2.613
67777W        W34186  10.999  17.695  11.741
67778W        W34187  28.083   2.651   2.545
67779W        W34188  38.864  33.757   4.021
67780W        W34189   4.227   8.808   0.015
67781W        W34190  11.819  14.332  11.636
67782W        W34191  34.446   2.228   1.735
67783W        W34192  37.955  13.647   4.520
67784W        W34193  25.808   1.205  10.698
67785W        W34194  43.394  28.967  11.023
67786W        W34195  32.634  22.933  10.476
67787W        W34196   4.314  15.574   0.328
67788W        W34197  10.732   2.916   2.470
67789W        W34198  11.850   4.327   1.365
67790W        W34199  24.761  21.007  13.076
67791W        W34200   9.119  27.100  10.710
67792W        W34201  29.041  27.570   4.117
67793W        W34202  39.084  35.219  13.575
67794W        W34203  40.446   7.495  10.475
67795W        W34204  25.514   2.767   2.867
67796W        W34205  25.698  27.047  11.961
67797W        W34206  26.547  18.149   4.506
67798W        W34207  27.117  14.190   5.480
67799W        W34208   3.944  37.036   4.499
67800W        W34209  34.920  21.211   4.209
67801W        W34210  25.002  37.578   1.310
67802W        W34211  33.377  37.218  14.342
67803W        W34212   4.515  11.226   1.318
67804W        W34213  31.830  25.135   4.608
67805W        W34214   6.705   0.829  12.592
67806W        W34215   3.923   2.272  11.575
67807W        W34216  24.686   7.899  14.007
67808W        W34217  43.759  43.335   2.238
67809W        W34218  27.587   8.620   1.813
67810W        W34219   3.828  15.945  10.817
67811W        W34220  32.845  41.800  13.029
67812W        W34221  18.212  34.111   3.623
67813W        W34222  38.892  44.365   4.166
67814W        W34223  19.773  23.963  11.734
67815W        W34224   6.208   7.329   2.670
67816W        W34225   2.183   6.823  14.310
67817W        W34226  38.103  23.171  14.280
67818W        W34227  22.606  17.149   4.499
67819W        W34228  14.881  37.696  12.071
67820W        W34229  26.084   0.140  11.130
67821W        W34230  41.636  41.291  14.515
67822W        W34231  39.933   0.640  12.903
67823W        W34232   9.154  25.015  13.970
67824W        W34233  35.955   9.685   2.737
67825W        W34234  15.837   7.367  10.419
67826W        W34235  35.089  26.145   4.022
67827W        W34236  19.282  21.396   1.640
67828W        W34237  29.902  22.140   4.038
67829W        W34238  44.181  43.727   2.373
67830W        W34239  11.478  35.817  12.396
67831W        W34240  18.318  15.054   3.175
67832W        W34241  43.741  25.555  13.938
67833W        W34242   8.190  30.903   4.499
67834W        W34243   5.388   9.767  13.034
67835W        W34244  14.213  17.284   1.713
67836W        W34245   4.322  16.330  14.943
67837W        W34246  24.210  12.814   4.581
67838W        W34247  14.723  24.433  10.964
67839W        W34248  39.604   9.413  13.465
67840W        W34249   2.997  31.093   3.795
67841W        W34250   4.660   7.707  14.757
67842W        W34251   5.905  26.224  13.823
67843W        W34252  32.593   1.314  13.418
67844W        W34253  22.570   7.180   4.647
67845W        W34254  12.670  38.890   2.379
67846W        W34255  26.992  10.256   4.646
67847W        W34256  27.385  43.484  11.494
67848W        W34257  18.388  11.549  11.745
67849W        W34258   9.058  23.233   1.435
67850W        W34259  17.926  20.728  11.927
67851W        W34260   4.004   0.531   0.231
67852W        W34261  33.889  31.998  14.733
67853W        W34262  24.251  10.500   2.440
67854W        W34263  24.721  25.758   0.010
67855W        W34264  30.060   2.232   4.082
67856W        W34265   0.648  16.350  13.855
67857W        W34266  39.515  31.838  13.081
67858W        W34267  42.917  28.756   4.939
67859W        W34268  22.887  35.413   2.286
67860W        W34269  40.850  37.449  13.857
67861W        W34270   0.203  16.049   4.168
67862W        W34271  33.086  25.057   4.653
67863W        W34272  34.297  38.814  14.852
67864W        W34273  11.212  30.421   4.118
67865W        W34274  27.128  20.760  13.386
67866W        W34275  43.224  43.238  12.017
67867W        W34276  26.412  14.139   0.297
67868W        W34277  19.021  28.618  10.909
67869W        W34278  13.135  41.498   0.144
67870W        W34279  23.765  38.164  11.161
67871W        W34280  16.817  20.075  11.120
67872W        W34281  11.427  15.104   1.617
67873W        W34282  17.713  15.344   2.866
67874W        W34283  27.045  12.704   3.276
67875W        W34284   9.995   3.035   4.533
67876W        W34285   1.810   5.354  11.681
67877W        W34286   1.218  19.494  12.550
67878W        W34287  43.902  15.169   4.396
67879W        W34288   8.226  39.984   2.870
67880W        W34289   4.681   7.667  12.398
67881W        W34290  16.676   3.874  11.230
67882W        W34291  22.588  12.367   1.156
67883W        W34292   2.328  31.566   4.242
67884W        W34293  30.450  28.195   1.778
67885W        W34294  31.404  29.245   3.329
67886W        W34295  19.560   1.410   0.951
67887W        W34296  33.989  28.573  10.508
67888W        W34297  39.554  25.891   3.949
67889W        W34298   9.867  37.084  13.024
67890W        W34299  33.144  13.493  14.261
67891W        W34300   6.471  15.686  14.423
67892W        W34301  44.341  21.730  14.355
67893W        W34302  12.363   3.554  10.456
67894W        W34303  44.659  16.320  11.223
67895W        W34304  36.470  35.781  14.525
67896W        W34305  25.421   0.009   4.483
67897W        W34306  42.355   8.356  11.888
67898W        W34307  42.998   2.261   2.875
67899W        W34308  17.810  17.799   2.168
67900W        W34309  30.946  12.893  10.800
67901W        W34310  44.623  19.647   2.969
67902W        W34311  38.911   0.226  12.940
67903W        W34312  26.195  24.483  11.070
67904W        W34313  32.100  34.141  14.990
67905W        W34314  29.586  22.656   0.497
67906W        W34315   6.246   6.444   0.051
67907W        W34316  28.118  31.462   0.790
67908W        W34317  33.081  30.606  12.039
67909W        W34318  26.410  22.469  13.908
67910W        W34319  25.163  43.775   2.177
67911W        W34320  24.970   4.691   1.714
67912W        W34321  39.533  26.684   0.662
67913W        W34322  36.376   2.776   2.389
67914W        W34323  11.133  38.221  11.957
67915W        W34324  34.165   5.080  12.130
67916W        W34325   1.565  14.835  12.862
67917W        W34326   6.050  26.397   0.706
67918W        W34327   7.131   1.308   2.297
67919W        W34328  31.696  36.154  10.129
67920W        W34329  39.446  24.667   4.274
67921W        W34330  10.263   9.118   5.251
67922W        W34331  23.193   7.781   3.121
67923W        W34332  11.850   1.780   1.778
67924W        W34333  42.961  14.154  12.848
67925W        W34334   5.981  16.898   0.744
67926W        W34335  13.229  15.771   4.739
67927W        W34336   2.999  34.405  14.637
67928W        W34337  29.545  31.991   0.786
67929W        W34338  12.587  25.015  13.090
67930W        W34339   5.137  21.614  14.157
67931W        W34340   7.383  12.801  13.586
67932W        W34341  18.450  24.696   2.200
67933W        W34342   5.939   7.980   1.376
67934W        W34343   6.282  23.611  13.337
67935W        W34344   4.554  16.619  11.687
67936W        W34345   3.925  29.986   2.186
67937W        W34346  18.315   3.781  14.323
67938W        W34347  27.040  35.073  13.406
67939W        W34348  30.092  29.687  11.062
67940W        W34349  33.011  28.273  13.200
67941W        W34350  24.467   2.723  12.866
67942W        W34351  36.938   0.183  14.006
67943W        W34352  43.750  11.368  14.772
67944W        W34353  21.648  26.655   9.950
67945W        W34354  12.594  23.191  13.494
67946W        W34355  36.838  33.824  13.009
67947W        W34356  10.294  12.536  13.562
67948W        W34357  39.834  39.359   3.379
67949W        W34358  35.544   8.124  13.882
67950W        W34359  35.766   1.146   1.702
67951W        W34360  27.518  21.571   1.240
67952W        W34361   4.327   6.247   0.414
67953W        W34362   2.468  35.986   0.339
67954W        W34363  39.617  11.858   1.657
67955W        W34364  23.259  41.297  14.315
67956W        W34365  23.097  12.280   1.272
67957W        W34366  22.547  20.133  10.843
67958W        W34367  42.450  13.651  14.872
67959W        W34368   5.345  33.853  10.791
67960W        W34369  40.997  20.522  11.054
67961W        W34370  17.185  26.989   3.589
67962W        W34371  25.485  29.623   3.383
67963W        W34372  41.408   3.426  13.817
67964W        W34373   9.340   9.690  12.514
67965W        W34374  32.931  40.358   1.229
67966W        W34375  12.177  15.539   2.840
67967W        W34376  11.671  15.480  14.033
67968W        W34377  26.285  12.076   0.901
67969W        W34378  41.155  28.984   4.697
67970W        W34379  41.964  33.795  12.964
67971W        W34380  10.669  16.230  11.750
67972W        W34381  29.013  21.143   4.336
67973W        W34382   8.370   7.832  11.111
67974W        W34383   8.172  35.728   3.267
67975W        W34384  33.491  27.470  13.089
67976W        W34385  19.572  20.430   5.297
67977W        W34386  29.426  21.904   3.017
67978W        W34387  15.794  39.103   4.295
67979W        W34388  39.774  24.601   2.437
67980W        W34389  22.437   9.873   2.361
67981W        W34390   8.493  11.359  14.504
67982W        W34391  10.955  20.570  14.421
67983W        W34392  31.270  19.007  13.048
67984W        W34393  28.112  41.299   0.332
67985W        W34394  17.630  12.824  10.762
67986W        W34395   0.177  37.174   4.476
67987W        W34396  14.872  38.344   3.119
67988W        W34397  23.698  13.382   1.838
67989W        W34398  36.400   5.917   3.687
67990W        W34399  10.811  19.913   1.624
67991W        W34400  30.828   7.567   4.109
67992W        W34401  23.927  27.040  13.414
67993W        W34402  28.043   3.163   1.380
67994W        W34403   1.094  25.509  13.547
67995W        W34404   0.117  29.060   4.545
67996W        W34405  26.490  36.136  13.868
67997W        W34406  27.010  21.196   2.297
67998W        W34407  36.328   8.730   1.468
67999W        W34408  36.035  32.627  12.034
68000W        W34409  22.319  33.473   0.281
68001W        W34410  14.695   2.237  12.003
68002W        W34411  39.761  18.416  12.224
68003W        W34412  35.119  16.031   2.616
68004W        W34413   9.329  25.391  12.963
68005W        W34414  13.102  36.198   4.388
68006W        W34415  25.432  26.979   3.275
68007W        W34416  25.508   3.868   3.606
68008W        W34417  25.727  18.761  14.461
68009W        W34418  36.922   7.367  11.288
68010W        W34419  19.074  35.407  11.518
68011W        W34420  18.294  29.778   3.095
68012W        W34421   6.876  12.462  14.431
68013W        W34422  32.493  36.828   2.148
68014W        W34423   2.091  12.589  12.518
68015W        W34424  32.349  42.313   4.201
68016W        W34425  22.020  20.941  13.987
68017W        W34426  25.062  43.788   0.438
68018W        W34427  40.128  35.573   1.051
68019W        W34428  34.363  16.325  14.240
68020W        W34429  39.531  42.188   3.759
68021W        W34430  35.698   0.598  11.970
68022W        W34431  20.254   4.712   0.974
68023W        W34432  29.199  44.303  10.730
68024W        W34433   3.940   1.006  13.936
68025W        W34434  29.586   6.724  14.268
68026W        W34435  23.753  33.100   2.891
68027W        W34436  37.341  42.744   1.719
68028W        W34437  13.914  15.065   2.319
68029W        W34438   3.636  16.681   4.692
68030W        W34439  37.080  43.028   3.105
68031W        W34440   2.288  18.595  14.074
68032W        W34441   7.471  20.181   4.159
68033W        W34442  13.144  35.350   2.239
68034W        W34443  17.234   6.974   1.023
68035W        W34444   4.896   5.371  14.406
68036W        W34445  10.085  21.481  14.834
68037W        W34446  33.719   2.937  13.877
68038W        W34447  38.247  44.703  13.462
68039W        W34448  39.030  22.750   4.812
68040W        W34449  19.774  44.921  10.693
68041W        W34450  41.226  35.436  12.150
68042W        W34451  21.668   2.223  14.068
68043W        W34452  18.171  11.177   3.722
68044W        W34453  13.040  21.593   3.616
68045W        W34454   5.165  17.149  12.101
68046W        W34455  19.230  30.636  14.306
68047W        W34456  28.655  17.293   3.754
68048W        W34457  28.038  22.648   4.312
68049W        W34458  19.714  26.674   2.408
68050W        W34459  36.327  33.518  10.432
68051W        W34460  14.142  28.247   2.081
68052W        W34461  20.581  34.686   4.059
68053W        W34462   5.773  41.453   3.858
68054W        W34463   8.078  29.992   1.205
68055W        W34464   3.195  29.866  12.714
68056W        W34465  16.562  42.488   0.420
68057W        W34466   6.540  23.605   4.973
68058W        W34467  19.648   3.110  10.351
68059W        W34468  10.558  22.661   3.601
68060W        W34469  34.158  15.943  13.930
68061W        W34470  20.391   8.440   4.309
68062W        W34471  41.710  13.110   1.376
68063W        W34472   1.917   1.296   3.338
68064W        W34473  16.485  19.621  10.622
68065W        W34474  33.404  38.944  13.431
68066W        W34475   7.051  12.107  10.543
68067W        W34476  20.813  30.863   4.361
68068W        W34477  39.117  25.493   0.402
68069W        W34478  18.560  37.294   4.601
68070W        W34479  20.251   1.913   0.556
68071W        W34480  41.542  22.534   2.839
68072W        W34481  30.452  39.856  13.354
68073W        W34482  23.095   5.366   0.650
68074W        W34483  34.838  34.964  13.760
68075W        W34484  32.725  15.384   5.214
68076W        W34485  11.399  30.711  11.568
68077W        W34486   1.694  11.285  11.617
68078W        W34487  20.246  28.587   2.102
68079W        W34488  11.233   1.875  13.596
68080W        W34489   4.283  31.105   0.919
68081W        W34490  16.610  30.908  12.828
68082W        W34491  16.250  25.810   2.243
68083W        W34492  34.564   9.349  14.818
68084W        W34493   0.488  30.198   3.475
68085W        W34494  17.316   6.976   3.114
68086W        W34495   5.757   5.779  14.113
68087W        W34496  37.543  40.636  12.130
68088W        W34497  23.312  17.769  13.950
68089W        W34498  19.502  11.052   1.330
68090W        W34499  19.842  14.761   3.374
68091W        W34500  27.035  16.597  12.701
68092W        W34501  18.602  23.175  12.589
68093W        W34502  36.242  40.449  11.227
68094W        W34503  35.534  15.587   4.087
68095W        W34504  10.600  19.765  14.826
68096W        W34505  16.847   3.346  10.628
68097W        W34506  38.476  29.889  12.278
68098W        W34507  15.672  40.163  11.447
68099W        W34508   7.396   2.282  13.484
68100W        W34509  10.685  15.374  14.845
68101W        W34510  19.576  31.416   0.236
68102W        W34511  21.243  26.227   0.073
68103W        W34512  23.537  31.559  13.620
68104W        W34513   0.406  20.917  12.849
68105W        W34514  20.129  13.390   3.316
68106W        W34515  14.056   7.099   3.156
68107W        W34516   4.162  44.486   0.232
68108W        W34517  16.257  37.955   2.372
68109W        W34518  10.254  40.453   1.320
68110W        W34519  14.344  24.735  11.120
68111W        W34520   1.594  34.286   2.697
68112W        W34521  11.708  23.519  11.543
68113W        W34522  39.277  14.874   4.422
68114W        W34523   1.066  34.815   4.096
68115W        W34524  20.547  22.056  13.135
68116W        W34525  32.078  14.114  11.361
68117W        W34526  37.680  31.337   4.037
68118W        W34527   3.240  30.069  13.190
68119W        W34528   7.840  23.885   3.497
68120W        W34529  18.107  27.699   4.087
68121W        W34530   2.473  30.214   4.532
68122W        W34531  36.927   4.780   3.586
68123W        W34532  24.430  22.298   3.597
68124W        W34533  23.038  24.444  13.277
68125W        W34534  16.848  27.147  11.957
68126W        W34535   4.700   8.215   0.769
68127W        W34536  23.937  27.612  12.788
68128W        W34537  10.368   2.039  14.643
68129W        W34538   8.860  11.361   4.927
68130W        W34539  38.122  29.919  14.143
68131W        W34540   6.649  26.995  10.350
68132W        W34541  27.515  17.361   3.680
68133W        W34542  26.112  19.660   1.037
68134W        W34543  34.813  21.483   3.586
68135W        W34544  14.946  33.205   4.966
68136W        W34545  30.071   6.801   3.388
68137W        W34546  28.700  38.833  10.712
68138W        W34547  22.530  44.029   4.390
68139W        W34548  41.345   4.760   2.825
68140W        W34549   4.163   5.974   3.150
68141W        W34550  21.098  44.948  10.999
68142W        W34551  20.698   3.806   3.369
68143W        W34552  29.053  21.925  12.436
68144W        W34553   6.223  33.867  13.864
68145W        W34554  25.117  31.685  11.519
68146W        W34555  13.733  11.952  12.211
68147W        W34556  24.474  17.644   4.319
68148W        W34557  15.050  27.966   4.764
68149W        W34558  10.302  38.050   3.727
68150W        W34559  25.134  42.436  13.428
68151W        W34560  32.164   7.940   1.404
68152W        W34561  28.612   9.753  13.191
68153W        W34562  22.324   0.395   1.757
68154W        W34563  20.117  40.786   3.740
68155W        W34564  25.951  20.214   4.272
68156W        W34565  20.374  32.613   0.273
68157W        W34566  43.870  12.311   2.168
68158W        W34567  36.999   7.363  13.101
68159W        W34568  26.599  35.041   3.251
68160W        W34569  33.028  40.203   4.768
68161W        W34570  38.579  27.871   0.860
68162W        W34571  14.798  33.628   0.340
68163W        W34572  36.904   2.349   1.343
68164W        W34573   4.281  27.250  13.316
68165W        W34574   2.415   4.823   0.495
68166W        W34575  21.172   4.136   2.083
68167W        W34576  44.751  16.863   3.248
68168W        W34577  44.525  11.826   4.176
68169W        W34578  30.116  20.125   2.364
68170W        W34579   0.916  16.077  11.506
68171W        W34580  28.950   8.936   2.237
68172W        W34581  25.970  24.874  11.585
68173W        W34582  39.333  30.525   0.499
68174W        W34583  15.497   3.033   1.259
68175W        W34584  29.347  25.412   3.270
68176W        W34585  15.363  16.205  11.086
68177W        W34586  26.960  33.125  13.427
68178W        W34587  30.749  23.136   4.149
68179W        W34588   9.653   9.800   4.371
68180W        W34589   5.001  18.267  14.122
68181W        W34590  35.602  13.974   3.827
68182W        W34591  12.112  36.597   1.741
68183W        W34592  11.624  24.435   2.963
68184W        W34593  42.917  30.126  12.101
68185W        W34594   5.360  15.582  12.062
68186W        W34595  12.075  35.635  11.176
68187W        W34596  22.265  12.779   1.247
68188W        W34597  16.241  43.491   4.671
68189W        W34598  12.246  18.679   3.165
68190W        W34599  14.071  14.844  11.947
68191W        W34600   7.539  41.775   3.234
68192W        W34601  16.960  17.748   0.422
68193W        W34602   2.437  12.353  11.226
68194W        W34603  43.278  22.186  12.575
68195W        W34604  35.883  40.652  10.897
68196W        W34605  39.001   6.114   4.644
68197W        W34606   0.294  16.331  12.436
68198W        W34607   2.932  14.595  14.784
68199W        W34608  28.449  18.806  10.984
68200W        W34609  21.660  32.065   4.462
68201W        W34610  33.595  39.418   0.220
68202W        W34611  39.445  11.167  14.454
68203W        W34612  41.443   6.205  11.938
68204W        W34613  25.570  42.390   0.442
68205W        W34614  39.536   7.299   3.171
68206W        W34615  43.995  21.763  14.916
68207W        W34616  43.576  14.231   1.868
68208W        W34617   2.393   4.622  11.502
68209W        W34618  18.603  20.122   0.179
68210W        W34619   5.207   0.041   1.784
68211W        W34620  34.003  36.557  11.988
68212W        W34621  16.022  35.608  13.860
68213W        W34622  43.427  39.445  10.532
68214W        W34623  26.624  13.170  10.783
68215W        W34624  22.299  21.038   2.653
68216W        W34625  38.860  12.609  14.074
68217W        W34626   4.523  16.987   1.807
68218W        W34627  28.277  34.588   1.432
68219W        W34628  25.023  15.595   0.375
68220W        W34629  30.251   8.660   5.427
68221W        W34630  37.595  43.714   2.655
68222W        W34631  39.922   2.808   5.067
68223W        W34632  26.462  27.663   3.426
68224W        W34633  11.190  44.494  14.993
68225W        W34634  10.789  42.380  12.427
68226W        W34635  22.880  30.511  11.172
68227W        W34636  24.043  12.670   0.961
68228W        W34637  16.748  10.691  13.261
68229W        W34638  21.142   4.250  12.015
68230W        W34639  39.905  33.197   4.206
68231W        W34640  41.077  28.958   4.159
68232W        W34641   4.258  25.909   4.624
68233W        W34642  18.362  36.187   1.300
68234W        W34643  15.823  44.119   2.621
68235W        W34644   1.354  18.783  12.946
68236W        W34645  16.556  21.162   3.733
68237W        W34646   1.406  12.689   3.228
68238W        W34647  43.286   1.822  11.016
68239W        W34648  27.608  31.030  13.982
68240W        W34649   8.386  30.446   2.258
68241W        W34650  34.092   0.155   1.797
68242W        W34651  23.986  28.099  12.559
68243W        W34652  33.013   7.086  11.324
68244W        W34653  13.458  31.453   1.468
68245W        W34654  12.424  41.102  11.140
68246W        W34655  43.089  26.630   4.678
68247W        W34656  44.471   5.781   3.049
68248W        W34657  17.310  11.749   1.476
68249W        W34658  12.360  37.879   5.537
68250W        W34659  38.496  30.937   3.589
68251W        W34660  42.859  25.741   1.608
68252W        W34661  15.136  13.172  13.941
68253W        W34662   8.344   6.003  14.979
68254W        W34663  41.043  11.967  11.964
68255W        W34664  38.125   2.894  12.469
68256W        W34665  40.897  25.600   3.388
68257W        W34666  30.719  30.504  13.426
68258W        W34667  10.117   9.145   2.237
68259W        W34668  15.544  25.459   1.853
68260W        W34669   1.701   4.975  14.689
68261W        W34670   7.080  15.210   2.904
68262W        W34671   0.527  27.742   0.382
68263W        W34672   0.875  41.310   0.834
68264W        W34673   4.597  29.689   0.350
68265W        W34674  31.457  33.065   1.956
68266W        W34675   2.400   5.370   4.303
68267W        W34676   3.998   9.747   0.352
68268W        W34677  36.399  44.872   3.805
68269W        W34678  20.091  24.127   4.402
68270W        W34679  32.669   7.357   3.243
68271W        W34680  28.725  39.697   0.349
68272W        W34681  37.700  36.601  11.236
68273W        W34682  26.438  10.960  13.578
68274W        W34683  38.904  10.412  11.318
68275W        W34684  16.790  20.689  13.421
68276W        W34685   5.495  29.609   0.852
68277W        W34686  28.613  30.958  11.870
68278W        W34687   2.774  20.263  14.316
68279W        W34688  10.335  29.121  11.373
68280W        W34689  22.774   3.481  10.574
68281W        W34690  13.711   7.408  13.437
68282W        W34691  44.347  23.734   0.888
68283W        W34692  43.589  13.719   2.271
68284W        W34693  12.742  43.293  10.963
68285W        W34694  38.316  32.038   4.118
68286W        W34695  34.967  35.110   1.392
68287W        W34696  36.516   2.566  13.945
68288W        W34697  20.564  25.674   4.181
68289W        W34698  17.082  28.940   0.667
68290W        W34699  31.567  38.766   2.659
68291W        W34700  34.783  18.257  10.697
68292W        W34701   7.311  13.309   2.476
68293W        W34702  28.761  38.528  12.501
68294W        W34703  29.642   0.817   4.080
68295W        W34704  29.337  22.559   0.927
68296W        W34705  22.687  12.220   0.662
68297W        W34706  24.242  39.950   2.284
68298W        W34707  38.971   0.743  12.079
68299W        W34708  28.152   9.784  13.933
68300W        W34709  16.225   5.197   0.964
68301W        W34710   0.704  32.064  14.366
68302W        W34711  33.376  33.167  13.477
68303W        W34712  11.847  32.405   0.912
68304W        W34713  30.944  37.708  10.639
68305W        W34714  22.059  28.649  12.992
68306W        W34715  27.624   6.890   0.363
68307W        W34716   0.342   5.469   3.573
68308W        W34717  36.651  43.029  10.000
68309W        W34718  34.962  13.225  11.779
68310W        W34719  12.848  34.846   0.409
68311W        W34720   8.605   3.809  11.677
68312W        W34721  25.709  23.387   4.972
68313W        W34722   8.643  28.600  10.683
68314W        W34723   9.922  15.152   1.819
68315W        W34724  12.067  11.317  11.676
68316W        W34725   0.359  22.923   0.717
68317W        W34726  42.842  19.711  12.234
68318W        W34727   0.495  38.593   4.292
68319W        W34728  23.956  15.940  11.134
68320W        W34729   7.630  43.954  12.621
68321W        W34730  28.271  20.448   2.200
68322W        W34731  21.422  15.569  11.021
68323W        W34732  30.092  35.797   4.785
68324W        W34733   8.549  41.464   2.230
68325W        W34734  36.466  16.843  13.601
68326W        W34735  32.320   7.864  11.404
68327W        W34736   5.328  21.721   2.417
68328W        W34737  29.652  12.096   1.420
68329W        W34738   5.734   8.863  13.893
68330W        W34739   4.442   0.225   4.287
68331W        W34740  39.547  22.206  11.988
68332W        W34741  14.045  43.061  14.849
68333W        W34742   7.208  19.552   3.387
68334W        W34743   7.597   9.575  13.609
68335W        W34744   0.876   7.458   0.376
68336W        W34745  19.179  25.101   2.704
68337W        W34746  36.448  28.144   2.333
68338W        W34747  42.702  43.558  14.827
68339W        W34748  35.562   4.199  12.665
68340W        W34749   0.045   1.947  14.418
68341W        W34750   4.618  15.676   3.890
68342W        W34751  36.446  22.156   0.787
68343W        W34752  18.444   9.343   0.437
68344W        W34753   3.826  35.725   3.739
68345W        W34754  15.362   0.950  11.304
68346W        W34755  33.382  40.473   5.061
68347W        W34756  36.423  24.141   2.298
68348W        W34757  26.671  40.952  13.556
68349W        W34758  28.087  15.022   4.604
68350W        W34759   0.208  21.090   0.030
68351W        W34760  41.166  20.154  11.546
68352W        W34761  26.403   7.906  11.065
68353W        W34762  36.428  16.359   4.795
68354W        W34763   1.544  23.130  14.279
68355W        W34764  44.233  33.542   0.728
68356W        W34765  22.316  33.316  11.214
68357W        W34766  44.445  26.429   2.382
68358W        W34767  22.786  43.712  13.613
68359W        W34768   6.519  15.263  10.884
68360W        W34769   6.290  33.150  14.455
68361W        W34770  36.894   2.414   3.756
68362W        W34771  12.135   3.382  12.975
68363W        W34772  27.970   4.515   2.837
68364W        W34773  10.828   7.426   1.759
68365W        W34774   0.186  12.216  12.892
68366W        W34775   3.779  30.512   4.944
68367W        W34776  43.930   3.650  14.264
68368W        W34777  29.218  12.135   0.885
68369W        W34778   0.827  43.530   1.782
68370W        W34779   7.895  43.900   4.148
68371W        W34780  21.621  42.236   0.928
68372W        W34781  30.412  42.987  13.780
68373W        W34782  39.385  30.431  11.964
68374W        W34783  18.421  29.659   2.274
68375W        W34784  16.582  29.470   2.484
68376W        W34785  29.924  37.091   0.162
68377W        W34786  17.015   0.633   1.168
68378W        W34787  41.914  34.906   0.033
68379W        W34788  41.505  44.233   4.945
68380W        W34789  36.470  23.407   0.231
68381W        W34790  30.991  25.303   0.176
68382W        W34791  33.286  44.415   1.743
68383W        W34792  17.790  35.211   1.797
68384W        W34793  25.960  28.411   4.735
68385W        W34794   2.307   6.092  12.939
68386W        W34795  27.173   1.201  13.458
68387W        W34796  25.904  12.192  11.646
68388W        W34797  32.795  30.317   3.532
68389W        W34798  20.314  33.132  11.028
68390W        W34799  39.487   6.701  12.870
68391W        W34800  42.046  24.484   2.766
68392W        W34801  18.281  42.636  13.780
68393W        W34802   9.888   0.444  13.012
68394W        W34803  31.770  29.664   2.694
68395W        W34804  28.366  40.793  11.167
68396W        W34805   8.719  25.283   4.536
68397W        W34806  33.368   6.928   3.715
68398W        W34807   0.273  41.852   2.764
68399W        W34808  28.894  14.097  11.965
68400W        W34809  32.975  10.520   1.937
68401W        W34810  34.982  34.513   2.256
68402W        W34811  40.969   8.721   1.386
68403W        W34812  31.038  24.947  14.773
68404W        W34813  34.627  19.313  14.153
68405W        W34814   8.701   8.863  14.722
68406W        W34815  16.767   7.916  14.067
68407W        W34816  32.029  39.448   2.144
68408W        W34817  33.503  17.779   0.491
68409W        W34818  34.959  44.333   4.093
68410W        W34819  28.232  40.217   3.178
68411W        W34820  35.802  24.374   5.271
68412W        W34821   3.405  20.497   4.625
68413W        W34822  44.766  24.062  12.605
68414W        W34823  35.513   0.430   3.401
68415W        W34824  28.999  29.234   3.440
68416W        W34825  44.782  30.190   5.343
68417W        W34826  39.198  41.441  11.595
68418W        W34827  30.349  42.577  13.441
68419W        W34828   7.406  24.076   0.403
68420W        W34829  31.966  39.790  13.546
68421W        W34830  18.985  24.969  13.960
68422W        W34831  25.956  21.685  13.475
68423W        W34832  36.099  38.294   4.117
68424W        W34833  21.643  23.113  14.378
68425W        W34834  31.298  18.238   0.797
68426W        W34835  20.204  44.004  12.425
68427W        W34836   9.189  19.227  11.984
68428W        W34837  10.308  33.198   3.573
68429W        W34838   9.626   7.831  14.772
68430W        W34839   6.427  10.086   4.205
68431W        W34840  29.869  31.561  13.502
68432W        W34841   7.674  31.373   1.785
68433W        W34842  26.386  39.975  13.740
68434W        W34843  40.612  25.055  13.214
68435W        W34844  41.756   6.634  12.016
68436W        W34845  13.717  36.701  11.914
68437W        W34846  20.227  25.394  11.873
68438W        W34847   3.421  35.394   3.721
68439W        W34848  41.868  26.847   2.832
68440W        W34849  10.512  31.873   3.166
68441W        W34850   7.847  43.110  10.288
68442W        W34851  20.225  19.273   1.569
68443W        W34852   1.643   0.739   3.300
68444W        W34853   4.523  36.753  11.124
68445W        W34854  11.810   7.995   4.259
68446W        W34855  18.202   0.082  13.785
68447W        W34856   0.778  20.997   4.118
68448W        W34857  22.746   7.126   2.152
68449W        W34858   3.985  29.505   1.311
68450W        W34859  28.135  42.071  13.841
68451W        W34860  11.265  16.023  11.997
68452W        W34861   6.242  38.131   3.331
68453W        W34862   0.837  10.032  14.511
68454W        W34863  10.686  16.572   0.924
68455W        W34864  33.091  35.670  10.889
68456W        W34865  24.520   2.464  14.245
68457W        W34866  26.563   6.711   0.810
68458W        W34867  23.196  30.207  14.002
68459W        W34868  15.319   7.404  14.247
68460W        W34869  31.499  12.693  13.882
68461W        W34870   5.077  40.162  11.109
68462W        W34871  24.958  32.612  12.749
68463W        W34872  25.505   8.378   0.848
68464W        W34873  20.546  20.507   3.630
68465W        W34874   1.238  13.170   1.311
68466W        W34875   3.792   1.516  12.052
68467W        W34876  17.164  40.812   2.228
68468W        W34877   7.880  12.277   4.367
68469W        W34878   8.911  14.850  11.099
68470W        W34879   1.518   6.301   3.734
68471W        W34880  32.964   7.286   3.655
68472W        W34881  31.168   1.454   1.786
68473W        W34882  23.194  34.599   0.598
68474W        W34883  20.165   5.565   1.914
68475W        W34884   3.650  42.314   2.577
68476W        W34885  33.517  23.270  11.935
68477W        W34886  17.875  36.205   2.487
68478W        W34887  35.510   8.910  12.486
68479W        W34888   3.322  26.065   1.763
68480W        W34889  11.275  12.888  10.619
68481W        W34890  40.043  18.250   2.733
68482W        W34891  36.504  44.370  11.695
68483W        W34892   2.023  11.255   1.409
68484W        W34893  40.931  29.451  12.114
68485W        W34894  39.791  32.954  14.373
68486W        W34895   7.497  27.874   1.803
68487W        W34896  30.752  28.175   3.689
68488W        W34897  26.557  29.011  12.945
68489W        W34898  24.676  42.052   4.515
68490W        W34899  36.374   5.571   2.394
68491W        W34900  22.439   8.923  11.124
68492W        W34901  18.593  21.990  14.100
68493W        W34902  12.255   7.446   0.474
68494W        W34903  39.089   4.660  14.096
68495W        W34904  26.206  40.097  11.958
68496W        W34905  37.903  40.466   3.394
68497W        W34906  22.999  25.920   1.514
68498W        W34907   9.690  41.508   0.657
68499W        W34908  31.173  23.536   0.968
68500W        W34909  44.537   3.273  11.020
68501W        W34910  27.502  40.098   1.394
68502W        W34911  19.299  38.842  11.881
68503W        W34912  18.276  25.486  11.861
68504W        W34913  31.413  37.270   3.472
68505W        W34914  36.337  19.482   2.718
68506W        W34915  17.201  24.276  11.529
68507W        W34916  19.542  41.559  13.377
68508W        W34917  33.611   2.266   3.194
68509W        W34918  25.198  15.041  13.286
68510W        W34919  17.116  23.935  14.333
68511W        W34920  25.549  31.106   1.200
68512W        W34921  29.679  26.037   1.892
68513W        W34922  11.608   1.258   1.643
68514W        W34923   2.753  13.314   2.497
68515W        W34924  30.542  32.073  12.838
68516W        W34925  34.725  30.473   0.790
68517W        W34926  22.962  43.560  11.517
68518W        W34927  22.387  16.894  12.559
68519W        W34928  10.596  42.325  13.451
68520W        W34929  10.916  28.006  12.837
68521W        W34930  23.030  25.671   0.488
68522W        W34931  33.427   1.733  13.517
68523W        W34932  19.190  26.987   4.503
68524W        W34933  18.713  29.453  11.841
68525W        W34934  13.545  16.607   0.064
68526W        W34935  27.516   0.447  11.204
68527W        W34936  16.503  25.887  12.575
68528W        W34937   2.423   1.744  10.986
68529W        W34938  42.478  29.621   3.878
68530W        W34939  27.694   9.733   4.727
68531W        W34940   3.894  14.121   4.187
68532W        W34941  40.791  36.408  11.183
68533W        W34942  16.617   5.343   3.477
68534W        W34943  32.934  20.586   0.590
68535W        W34944  31.424  11.837  14.519
68536W        W34945   9.836  13.365  13.454
68537W        W34946   6.251  19.618   1.785
68538W        W34947  39.516   6.869   2.883
68539W        W34948  16.533  25.292  12.264
68540W        W34949  32.161   8.451   0.061
68541W        W34950   5.398  38.473   4.716
68542W        W34951  31.653  41.799   1.355
68543W        W34952   6.965  38.393  10.796
68544W        W34953  37.903   3.028  12.917
68545W        W34954   3.209   6.479  11.027
68546W        W34955   8.420  11.150   4.248
68547W        W34956  42.009  17.657   4.668
68548W        W34957   3.807  36.479  13.513
68549W        W34958  24.356  26.743   3.873
68550W        W34959   7.637  16.447  14.424
68551W        W34960   1.978  20.077   2.093
68552W        W34961   4.333  17.424   0.672
68553W        W34962   3.031  23.706   3.111
68554W        W34963  19.524   4.630   2.300
68555W        W34964  14.603  24.893  13.810
68556W        W34965   7.362  26.470  14.553
68557W        W34966   9.683  34.946   1.376
68558W        W34967   3.942  34.983   0.437
68559W        W34968   0.134  23.497  10.666
68560W        W34969   2.806  32.975   3.703
68561W        W34970  44.535   6.801   4.242
68562W        W34971   0.718  41.540  11.553
68563W        W34972  26.595  17.135  13.971
68564W        W34973  11.681  34.040   3.489
68565W        W34974  14.978  44.117  10.210
68566W        W34975  27.294   0.786   3.197
68567W        W34976   5.822  38.090   1.411
68568W        W34977  40.516  25.186   2.923
68569W        W34978  22.468  32.819  10.883
68570W        W34979  14.304   5.388   2.632
68571W        W34980   4.386  40.790  11.067
68572W        W34981  11.912  16.781   4.562
68573W        W34982   8.450  25.402  10.521
68574W        W34983   6.695  37.333   3.245
68575W        W34984  28.929  14.204   2.622
68576W        W34985  42.330   7.395  13.863
68577W        W34986  35.464  31.705   3.374
68578W        W34987  19.547  35.425  11.273
68579W        W34988   2.528  36.122   2.959
68580W        W34989  20.349  40.531   4.173
68581W        W34990  18.300   5.433  13.519
68582W        W34991  32.776  44.977   2.171
68583W        W34992  35.991  25.668  12.598
68584W        W34993   6.901   7.378  12.560
68585W        W34994  44.378  36.704   0.750
68586W        W34995   7.114  18.276  13.015
68587W        W34996  40.851  33.769  11.859
68588W        W34997  20.624  35.073   1.659
68589W        W34998  21.814  32.800   1.679
68590W        W34999  13.049  38.823  11.661
68591W        W35000  34.963   7.144   4.189
68592W        W35001   8.237   0.588  10.756
68593W        W35002   5.182  32.588   2.274
68594W        W35003   1.720  25.981   0.425
68595W        W35004  25.114  27.308   2.377
68596W        W35005   2.157  21.180  14.956
68597W        W35006   6.462  11.116   3.959
68598W        W35007  10.189  37.052  12.604
68599W        W35008  26.109  37.987  14.732
68600W        W35009   4.865  39.341  13.381
68601W        W35010  27.567  40.638  12.558
68602W        W35011  32.237  19.310   3.730
68603W        W35012  37.425  19.747   1.996
68604W        W35013  41.579  42.187  10.485
68605W        W35014  42.250   5.236  13.730
68606W        W35015  42.626  33.870  14.558
68607W        W35016  19.582  14.281  12.964
68608W        W35017  17.088  37.596  12.552
68609W        W35018  33.110  26.196  13.061
68610W        W35019  43.048  27.447   4.245
68611W        W35020  18.172  33.206   4.125
68612W        W35021  32.635  35.934   5.080
68613W        W35022  38.800  16.271   3.751
68614W        W35023  35.867  33.663   1.722
68615W        W35024  32.165  21.558   2.559
68616W        W35025  28.456  34.806  12.708
68617W        W35026  32.144   6.727   0.739
68618W        W35027  10.027   4.664   2.222
68619W        W35028  25.219  11.124  11.068
68620W        W35029  36.493  23.983  11.566
68621W        W35030  37.953  18.200  12.096
68622W        W35031  27.100  11.183  13.326
68623W        W35032  20.808  20.641  11.450
68624W        W35033  23.293  41.441  12.974
68625W        W35034  44.817  17.265  10.826
68626W        W35035  30.490  43.466   0.645
68627W        W35036  21.811  44.974   0.772
68628W        W35037  17.498  10.956   4.142
68629W        W35038  36.656   0.918   0.194
68630W        W35039  13.290  19.485  13.600
68631W        W35040  23.340   8.706   1.378
68632W        W35041  17.537  44.222   3.704
68633W        W35042  15.969  10.237   2.746
68634W        W35043  31.687  22.929   0.493
68635W        W35044  10.661  20.797   2.856
68636W        W35045  31.769  10.870   1.262
68637W        W35046  10.110  38.606   2.247
68638W        W35047  20.426  42.889   3.727
68639W        W35048  33.080  11.503   3.210
68640W        W35049  33.288  11.338   2.776
68641W        W35050  24.512   8.870   3.722
68642W        W35051   7.847  33.297  12.852
68643W        W35052  26.899   4.851  14.363
68644W        W35053   9.741   8.615  10.575
68645W        W35054  11.227   4.824  12.697
68646W        W35055  25.418  33.765   3.666
68647W        W35056  36.388   4.627  13.977
68648W        W35057   5.041  17.568  13.706
68649W        W35058   0.282  13.966   2.328
68650W        W35059  10.262   4.481   2.807
68651W        W35060  24.923  20.067  12.013
68652W        W35061  17.404  29.098  12.984
68653W        W35062  29.064   3.494  10.494
68654W        W35063  25.239  22.271   0.788
68655W        W35064   0.711  43.898   3.091
68656W        W35065  42.652  41.120  13.010
68657W        W35066  27.515  21.142   3.623
68658W        W35067   6.841  23.501   0.026
68659W        W35068   9.421  40.412  12.371
68660W        W35069  40.346  37.512  14.759
68661W        W35070  40.744  39.755   4.868
68662W        W35071  31.193  22.682   0.515
68663W        W35072  18.556  38.464   1.864
68664W        W35073  35.817  31.992   0.261
68665W        W35074  11.718   4.434  10.664
68666W        W35075  22.292   2.377   4.696
68667W        W35076   0.018  41.270  11.009
68668W        W35077   8.566  17.043  11.474
68669W        W35078  25.462  22.504  14.001
68670W        W35079  27.277  16.061  11.001
68671W        W35080  16.599   0.722  12.907
68672W        W35081  26.801  36.873  12.418
68673W        W35082  29.464  30.304   2.799
68674W        W35083  44.849  29.434  13.091
68675W        W35084  32.406  12.166   4.586
68676W        W35085  19.195  28.951  11.383
68677W        W35086  19.305   1.868  11.733
68678W        W35087  28.985  34.635   0.841
68679W        W35088  32.665  13.548  14.453
68680W        W35089  13.871   3.860   4.750
68681W        W35090  33.519  23.722  13.114
68682W        W35091  34.891  44.910   0.897
68683W        W35092  37.923  11.913  12.167
68684W        W35093  25.664  12.197  14.773
68685W        W35094  10.556   8.862   4.078
68686W        W35095  42.394  44.804   0.497
68687W        W35096  19.266   6.782  14.897
68688W        W35097   4.344  29.663   3.182
68689W        W35098   1.433   6.715   4.545
68690W        W35099   7.176  43.610  10.687
68691W        W35100  42.360  32.911  10.621
68692W        W35101   3.318  32.710   9.449
68693W        W35102  18.256  44.079  13.505
68694W        W35103  18.476  44.510  10.687
68695W        W35104  28.394  18.122  12.021
68696W        W35105   5.158  38.916  13.525
68697W        W35106  30.311   2.755  13.343
68698W        W35107  15.738  30.162   2.767
68699W        W35108  24.074  15.776   3.654
68700W        W35109  26.744  15.791  14.794
68701W        W35110  35.993  28.522  10.579
68702W        W35111  30.944   1.810   3.250
68703W        W35112  20.835  13.535  14.455
68704W        W35113  39.322  40.339  12.878
68705W        W35114   0.355  15.317  10.684
68706W        W35115   0.274  13.036   1.715
68707W        W35116  14.172  26.298  14.779
68708W        W35117  44.171  41.355   1.417
68709W        W35118  38.090   2.892   3.073
68710W        W35119   9.736  10.927   0.825
68711W        W35120  36.108  26.567   0.970
68712W        W35121  16.205  24.031  11.536
68713W        W35122  41.753  41.558  11.996
68714W        W35123  10.147  35.062   3.222
68715W        W35124  44.804   9.646   0.367
68716W        W35125   1.196  17.457  14.816
68717W        W35126  32.495  20.507   3.172
68718W        W35127  22.992  19.600   4.057
68719W        W35128   2.386  15.563   0.425
68720W        W35129  10.408  28.278   0.745
68721W        W35130   2.000  42.514  10.583
68722W        W35131  20.068   2.325   2.295
68723W        W35132  44.631  33.562   4.192
68724W        W35133  33.000  12.087   1.730
68725W        W35134  12.926  27.881  12.889
68726W        W35135  11.204  12.401  13.372
68727W        W35136  35.507  13.267  11.067
68728W        W35137  40.843   4.571   3.611
68729W        W35138  40.251   9.869   2.627
68730W        W35139  17.322  34.143  11.156
68731W        W35140  24.798  20.073  13.048
68732W        W35141  15.068  38.971   1.217
68733W        W35142  25.698  41.744  13.600
68734W        W35143  29.143  43.067   2.366
68735W        W35144   8.833  43.848   0.562
68736W        W35145  31.635  11.878   1.439
68737W        W35146  29.506  28.137  12.754
68738W        W35147   1.891  12.859  13.881
68739W        W35148   4.735  30.919  10.916
68740W        W35149  41.129  27.541   0.562
68741W        W35150  28.432  37.508   3.102
68742W        W35151  32.326  12.641  11.069
68743W        W35152   7.795  31.452  11.285
68744W        W35153   9.421  28.416   1.769
68745W        W35154  29.874  44.495   0.331
68746W        W35155  18.709  12.498  10.740
68747W        W35156  22.088  11.861  12.965
68748W        W35157  36.238  14.660   3.711
68749W        W35158  44.986  37.011   2.549
68750W        W35159  20.333  15.628  12.032
68751W        W35160  18.238  16.594  14.882
68752W        W35161  10.852  11.585   4.830
68753W        W35162  36.922   1.025  13.041
68754W        W35163  13.337  10.849   3.073
68755W        W35164   0.728  13.695   3.581
68756W        W35165  41.846  18.461   3.718
68757W        W35166  23.305   3.371  14.063
68758W        W35167  42.999  26.651  11.746
68759W        W35168  11.862  31.079  13.396
68760W        W35169  33.519  43.543  12.632
68761W        W35170  37.405  17.497  12.088
68762W        W35171   8.422  13.411  13.023
68763W        W35172   5.327  28.327   1.425
68764W        W35173  39.687  17.136   1.680
68765W        W35174  40.018  36.466   0.761
68766W        W35175  23.727  19.085  11.563
68767W        W35176  19.191  42.387   2.833
68768W        W35177  35.890  19.273   0.676
68769W        W35178  12.164  12.152   3.038
68770W        W35179  35.598  10.122  14.503
68771W        W35180  24.991  40.636  12.883
68772W        W35181  12.524  39.156   3.629
68773W        W35182  37.795  33.393   1.901
68774W        W35183  23.182  44.636   0.371
68775W        W35184  12.830  14.709  12.610
68776W        W35185  18.266  32.543   2.402
68777W        W35186  20.181  13.623   4.670
68778W        W35187  31.045   1.308   4.988
68779W        W35188  22.393  44.291  11.216
68780W        W35189  27.486  12.427  13.342
68781W        W35190  10.626  33.724  11.217
68782W        W35191  40.786   6.851  14.334
68783W        W35192  43.012   1.399   1.389
68784W        W35193   6.176  44.377  13.558
68785W        W35194  13.997  34.394   3.278
68786W        W35195  23.471  10.597  13.065
68787W        W35196   8.438  22.108  11.208
68788W        W35197  40.307  40.328  11.522
68789W        W35198   1.523  23.070  11.101
68790W        W35199  19.782   7.670   1.720
68791W        W35200  37.926  20.104  11.640
68792W        W35201  18.683  24.085   3.797
68793W        W35202   7.271  20.143   4.639
68794W        W35203  41.229   3.871   1.289
68795W        W35204  41.282  14.247   3.187
68796W        W35205  32.892  32.984  13.372
68797W        W35206  24.536  28.359  14.837
68798W        W35207  37.854  42.963  10.382
68799W        W35208  38.377  19.515   0.221
68800W        W35209  27.755   7.907   0.055
68801W        W35210  33.001  39.514   1.783
68802W        W35211  14.661  17.262   2.384
68803W        W35212  34.166  25.647   1.041
68804W        W35213  19.782  26.083   1.981
68805W        W35214  29.469  21.707  13.997
68806W        W35215   3.597  38.492  12.792
68807W        W35216  26.873  17.050   2.741
68808W        W35217  16.102  44.479   0.213
68809W        W35218  16.525  29.857   4.323
68810W        W35219  34.808   7.258  11.533
68811W        W35220  24.897  42.026   2.466
68812W        W35221   5.891  37.022   2.917
68813W        W35222  17.239  14.219  13.530
68814W        W35223   8.131  19.352   3.277
68815W        W35224   4.181   2.875   2.209
68816W        W35225   0.433  29.192  14.406
68817W        W35226  34.167  10.881  11.621
68818W        W35227  23.050   9.375  10.645
68819W        W35228   0.322   6.204  14.539
68820W        W35229  31.642  13.162   2.163
68821W        W35230   8.073  21.685  10.088
68822W        W35231  17.649  44.347  13.373
68823W        W35232  29.077  38.066   0.938
68824W        W35233   2.380  43.702  12.086
68825W        W35234  30.038  23.839  12.865
68826W        W35235  25.231  27.920  13.317
68827W        W35236  33.986  20.821  11.169
68828W        W35237   1.364  27.336  12.710
68829W        W35238  24.912   1.954   2.746
68830W        W35239  21.822  33.729  14.348
68831W        W35240   1.186  35.009  12.932
68832W        W35241  44.589  19.307   4.254
68833W        W35242  11.254  34.100   0.452
68834W        W35243  44.692  39.351  11.396
68835W        W35244   6.509   0.614   3.197
68836W        W35245  15.556  35.543   4.632
68837W        W35246  41.735   4.387  10.733
68838W        W35247  33.436  32.029   0.208
68839W        W35248  15.495  28.241   3.225
68840W        W35249  27.944   1.274  12.937
68841W        W35250  25.261  28.699  14.419
68842W        W35251  34.863   6.902   3.736
68843W        W35252   7.129  14.616  14.905
68844W        W35253  16.107  35.918   0.773
68845W        W35254  32.615  42.901  12.693
68846W        W35255  29.571   7.157  11.995
68847W        W35256   7.947   8.674  11.493
68848W        W35257   4.692  17.983   0.429
68849W        W35258  43.220   1.464   4.625
68850W        W35259  36.947  33.185   0.737
68851W        W35260  42.938  20.196  12.438
68852W        W35261  28.286  39.474  14.165
68853W        W35262  19.147   7.831  10.715
68854W        W35263  16.990  42.523  14.841
68855W        W35264  26.062  25.606   0.473
68856W        W35265  27.919  15.087  14.308
68857W        W35266  13.229  13.797   4.673
68858W        W35267  23.640  10.121  13.985
68859W        W35268   8.219  36.478  12.441
68860W        W35269  11.619  29.822  13.995
68861W        W35270   1.920  21.212  11.528
68862W        W35271  21.684   2.699   3.659
68863W        W35272  37.023  38.814  10.715
68864W        W35273  18.495  20.278  11.444
68865W        W35274   8.222  38.934  10.683
68866W        W35275  34.568   1.723  12.505
68867W        W35276   9.884  35.632  11.561
68868W        W35277  21.160  22.250  11.405
68869W        W35278  43.781   3.478   1.824
68870W        W35279   5.009  25.526   4.137
68871W        W35280   9.175  36.914  13.813
68872W        W35281  32.375  36.921   0.713
68873W        W35282  28.534  12.315   3.552
68874W        W35283  37.298  40.215   1.366
68875W        W35284  21.777  32.842  14.709
68876W        W35285  39.874  24.632   2.965
68877W        W35286  26.388  32.073   0.280
68878W        W35287  44.257   8.386  13.730
68879W        W35288  30.046  27.903   1.934
68880W        W35289  44.415  29.596  12.852
68881W        W35290  24.256  34.095   2.339
68882W        W35291  35.795  38.848  14.934
68883W        W35292   3.970  22.148  12.323
68884W        W35293  13.804  34.888   0.325
68885W        W35294  20.046  17.665   1.312
68886W        W35295  21.683   1.450  11.618
68887W        W35296  35.487  14.399   1.491
68888W        W35297  31.108  17.181  10.675
68889W        W35298  13.073  32.394   9.743
68890W        W35299   2.331   8.680  12.496
68891W        W35300  29.965   8.363  12.819
68892W        W35301  20.612  13.076   4.114
68893W        W35302  18.767  24.018   2.489
68894W        W35303  42.506  30.481   3.696
68895W        W35304  21.308   9.858   0.443
68896W        W35305  25.003  25.918   5.253
68897W        W35306  16.866   8.889  13.796
68898W        W35307  18.007  40.383   1.294
68899W        W35308  36.446  33.499  12.339
68900W        W35309  21.884  37.600   4.650
68901W        W35310   8.155   6.673  13.732
68902W        W35311  11.532  42.847  11.206
68903W        W35312   0.968  24.933   3.175
68904W        W35313   2.804  36.550   3.626
68905W        W35314  38.741   1.662  13.824
68906W        W35315  44.444  23.229  14.473
68907W        W35316  28.923   4.996   1.802
68908W        W35317  23.482  38.265  13.021
68909W        W35318  32.185  37.036  14.866
68910W        W35319  32.896   7.782  10.601
68911W        W35320  35.445   0.962   3.859
68912W        W35321  24.800   5.773   4.200
68913W        W35322   7.370   4.217  11.684
68914W        W35323  31.720  25.075   3.335
68915W        W35324  26.584  38.040  12.093
68916W        W35325   8.798   9.287   1.294
68917W        W35326  31.740  33.476   1.849
68918W        W35327  30.742  24.213  12.469
68919W        W35328  22.206  32.056   4.518
68920W        W35329  18.280   6.991   2.715
68921W        W35330  43.054   2.254  11.673
68922W        W35331  13.554   5.874  14.409
68923W        W35332  44.681  12.843   3.333
68924W        W35333  37.845  19.799  12.974
68925W        W35334  41.146  29.136  10.716
68926W        W35335  12.172  38.927  10.477
68927W        W35336  19.140  43.932  12.915
68928W        W35337  40.074  16.717   2.779
68929W        W35338  22.500   5.842   1.325
68930W        W35339  30.474  20.460  13.934
68931W        W35340  41.260  40.087  13.879
68932W        W35341  23.098  38.309   2.579
68933W        W35342  18.750  40.513  11.102
68934W        W35343  24.695  35.199   3.333
68935W        W35344   5.197  38.681   2.478
68936W        W35345  44.768   2.202   3.308
68937W        W35346  23.074  20.695  14.583
68938W        W35347   9.296  23.455  13.837
68939W        W35348  35.888  33.040   3.644
68940W        W35349  18.713  42.356   3.646
68941W        W35350  42.237   1.091  12.534
68942W        W35351  44.855  32.390  12.626
68943W        W35352  23.566  29.483  10.685
68944W        W35353  35.004  19.744  14.993
68945W        W35354  16.950   8.954   1.350
68946W        W35355  39.579  33.617   3.310
68947W        W35356  27.240  10.681   3.026
68948W        W35357  23.174  19.980   5.240
68949W        W35358  44.178   5.335  10.653
68950W        W35359   3.074  36.584  12.054
68951W        W35360  17.688  42.736  10.688
68952W        W35361   0.294  32.381  12.900
68953W        W35362  28.573  35.371   1.872
68954W        W35363  22.165  27.479  12.951
68955W        W35364   1.896  25.504   0.959
68956W        W35365   7.891  31.631  14.327
68957W        W35366  42.536  32.627   0.757
68958W        W35367  27.108  22.895  14.848
68959W        W35368  26.542  34.171   2.032
68960W        W35369  42.931   5.805   1.696
68961W        W35370  36.158   1.531   2.417
68962W        W35371   1.141  40.410  12.493
68963W        W35372  38.706  16.532   0.922
68964W        W35373  26.662  28.117   0.224
68965W        W35374  21.270  16.649   3.283
68966W        W35375  30.539   2.444  12.141
68967W        W35376   6.283  18.232   2.026
68968W        W35377  22.351  11.383   4.082
68969W        W35378  13.037   2.522   3.748
68970W        W35379  23.718  10.723   4.053
68971W        W35380  37.063  11.370   2.756
68972W        W35381   7.166  30.381  10.927
68973W        W35382  39.740  25.158  10.674
68974W        W35383  37.976   9.832   1.184
68975W        W35384  29.608  40.650   2.818
68976W        W35385  11.848  40.959   3.662
68977W        W35386  20.093   4.784  13.405
68978W        W35387  21.575  10.757  14.287
68979W        W35388  26.623  34.534   0.374
68980W        W35389   1.183  43.546  13.478
68981W        W35390  25.549  13.806   3.657
68982W        W35391  27.769  13.851   1.326
68983W        W35392  18.562  44.713  14.041
68984W        W35393  15.781  36.097   2.174
68985W        W35394  42.100   1.301   3.018
68986W        W35395  13.674  13.520  13.024
68987W        W35396  22.116  23.194   1.240
68988W        W35397  22.110  22.449   1.675
68989W        W35398   0.129  26.128  12.380
68990W        W35399   0.496  21.998  14.926
68991W        W35400  37.579  31.990  14.995
68992W        W35401  18.995   0.318   2.824
68993W        W35402  43.777   7.887   2.578
68994W        W35403  17.325  25.462  14.257
68995W        W35404  11.319  35.392  14.451
68996W        W35405  28.259  32.471  13.457
68997W        W35406  17.006  28.345   2.984
68998W        W35407  25.018  30.497  12.102
68999W        W35408  36.414  11.741  13.993
69000W        W35409  32.594  33.389  12.833
69001W        W35410   6.287  44.090   3.259
69002W        W35411  40.585  10.745  14.993
69003W        W35412  13.585  43.040   0.863
69004W        W35413  44.435  25.411  13.317
69005W        W35414  25.301  12.692   3.609
69006W        W35415  25.711  44.909   4.942
69007W        W35416  13.538  21.231   0.891
69008W        W35417  16.593  41.814  12.558
69009W        W35418   9.234   5.811  13.471
69010W        W35419   3.013   2.872  14.861
69011W        W35420  43.741  43.519   0.633
69012W        W35421   9.324  41.713   5.004
69013W        W35422  10.813   2.409   2.328
69014W        W35423  14.117  24.855   1.994
69015W        W35424  39.505  14.769   0.774
69016W        W35425  24.968  38.167   2.130
69017W        W35426  21.099  40.394  14.044
69018W        W35427  33.552  28.651  13.662
69019W        W35428  43.960  43.864   1.353
69020W        W35429   5.405  28.133  12.050
69021W        W35430   7.874  12.215  14.264
69022W        W35431  31.220   7.451  14.774
69023W        W35432   0.386  10.648  14.931
69024W        W35433   4.826  31.617   1.195
69025W        W35434  40.395   1.313  11.124
69026W        W35435  25.169  40.323  14.274
69027W        W35436  44.580  21.757   1.277
69028W        W35437  20.198  43.479  12.368
69029W        W35438   0.432   0.976  12.487
69030W        W35439  36.571  20.227   1.420
69031W        W35440  10.966  31.794   4.938
69032W        W35441  26.068  44.358   4.256
69033W        W35442  33.387   7.315   0.034
69034W        W35443  32.594   1.369  10.612
69035W        W35444  10.711   9.963   2.310
69036W        W35445  22.644   8.377  12.446
69037W        W35446   9.081  34.974   0.361
69038W        W35447  26.026  38.334   4.678
69039W        W35448  41.307  16.599  13.849
69040W        W35449  30.449  37.062   3.588
69041W        W35450   9.251  26.001   0.326
69042W        W35451  18.236  25.012   1.238
69043W        W35452   2.145  11.292   0.760
69044W        W35453  25.733  25.509  11.427
69045W        W35454  23.976  28.560  11.193
69046W        W35455   0.480  14.387  14.664
69047W        W35456  16.039  31.842   4.992
69048W        W35457  43.416  41.820   3.674
69049W        W35458  42.024  36.653   4.191
69050W        W35459  44.173   9.181  13.139
69051W        W35460  27.607   6.229  13.404
69052W        W35461  22.517  35.101  11.190
69053W        W35462  28.538  36.790  12.922
69054W        W35463  39.471  38.346   3.238
69055W        W35464   7.796   0.917   0.123
69056W        W35465  28.710  30.747   2.306
69057W        W35466   5.933   7.455   1.474
69058W        W35467  38.600  43.428   3.230
69059W        W35468   5.992  28.159   0.673
69060W        W35469  12.320  22.484   1.951
69061W        W35470  32.119   7.917   2.296
69062W        W35471  30.135   1.411  11.588
69063W        W35472  33.999  23.064  11.586
69064W        W35473   0.297   6.490  12.971
69065W        W35474  12.226  39.706   4.813
69066W        W35475   6.694  31.866  14.535
69067W        W35476  40.028  16.583   0.457
69068W        W35477  14.796  23.120   1.562
69069W        W35478  11.544   5.518   2.274
69070W        W35479  18.753  32.952   1.766
69071W        W35480  17.031  10.939   0.494
69072W        W35481  14.281   8.052   0.343
69073W        W35482  33.839  19.393  12.518
69074W        W35483  37.929  25.754   2.138
69075W        W35484  11.956  40.833   0.306
69076W        W35485  42.944  34.753  13.358
69077W        W35486   4.361   9.141  13.395
69078W        W35487  11.663  23.213  13.554
69079W        W35488   6.091   1.977   2.340
69080W        W35489  30.338  44.588   3.437
69081W        W35490  21.101   5.290  12.595
69082W        W35491  36.403   7.366  11.480
69083W        W35492  28.516   1.190   4.727
69084W        W35493  43.881   7.989  13.011
69085W        W35494  20.735  18.590   3.681
69086W        W35495  42.809  20.046   1.730
69087W        W35496  19.153  38.619   4.041
69088W        W35497  39.783  26.536  13.895
69089W        W35498   4.059   8.267   1.976
69090W        W35499  43.279  35.481   2.875
69091W        W35500  33.807  42.531  11.611
69092W        W35501  31.418   7.364   3.685
69093W        W35502  19.632  43.842   3.089
69094W        W35503   4.858   5.156   3.777
69095W        W35504  15.082  21.679   2.733
69096W        W35505  12.741   5.144  11.437
69097W        W35506  42.827  32.926   1.076
69098W        W35507  14.744  15.033   1.789
69099W        W35508  41.840  18.567   2.100
69100W        W35509  43.572  23.234   2.742
69101W        W35510  32.552  10.042  11.314
69102W        W35511  34.179  14.789   0.463
69103W        W35512  43.730  39.834   2.152
69104W        W35513  28.430  42.579  12.472
69105W        W35514  12.180  33.147  13.319
69106W        W35515  23.098  41.431  12.501
69107W        W35516  16.090  10.610  13.728
69108W        W35517  16.083  34.607  11.185
69109W        W35518   7.922  40.359  14.833
69110W        W35519  39.302  31.014   1.731
69111W        W35520   8.966   4.983  13.216
69112W        W35521   7.183  19.316   4.285
69113W        W35522  41.002  14.202  12.016
69114W        W35523   4.399  12.771   4.624
69115W        W35524  42.349  36.614  11.405
69116W        W35525  15.548  29.085   3.101
69117W        W35526  33.613  27.684  14.401
69118W        W35527  30.782  32.600  14.448
69119W        W35528  26.187  35.501  11.882
69120W        W35529  31.453  10.564  12.828
69121W        W35530   3.880  22.031  14.215
69122W        W35531   6.284  41.818   1.185
69123W        W35532   0.848  27.537   3.323
69124W        W35533  34.540  16.334  10.751
69125W        W35534   9.357  19.854   4.561
69126W        W35535   0.905  16.644   3.727
69127W        W35536  17.011  16.135  14.402
69128W        W35537  27.457  23.517  12.507
69129W        W35538  36.119  44.807  11.096
69130W        W35539  30.680  11.581   2.789
69131W        W35540  42.776  20.077   3.859
69132W        W35541  42.907  39.300  13.370
69133W        W35542   6.449  25.942   4.001
69134W        W35543   4.099  40.436   3.230
69135W        W35544   0.238  43.351   4.064
69136W        W35545  21.475  28.223   4.029
69137W        W35546  16.844  38.539  14.479
69138W        W35547  29.651  37.460   2.120
69139W        W35548  31.640   7.445  14.463
69140W        W35549  38.872  20.044   3.293
69141W        W35550  44.553   6.841  11.174
69142W        W35551  41.742  25.638  10.945
69143W        W35552  17.327  23.105  10.586
69144W        W35553   7.256  18.057   3.152
69145W        W35554  28.024  35.649  14.956
69146W        W35555   2.735  17.217   3.741
69147W        W35556  26.444  19.357   2.255
69148W        W35557   2.826  35.468   2.693
69149W        W35558   9.329  40.525  10.549
69150W        W35559  26.247  24.705  14.012
69151W        W35560  30.626  13.750   4.842
69152W        W35561  11.483  43.728   9.751
69153W        W35562  41.504  38.431  10.777
69154W        W35563  40.465  43.999  10.833
69155W        W35564  13.593  34.389   0.344
69156W        W35565  41.530   4.311  12.892
69157W        W35566   1.287  30.437  14.866
69158W        W35567   1.352   6.142   2.274
69159W        W35568  29.002   1.743  14.335
69160W        W35569  10.761  16.687   1.894
69161W        W35570  43.098   1.350   2.876
69162W        W35571  35.423  34.724  14.202
69163W        W35572  13.801  23.005  13.934
69164W        W35573  15.755  15.164   2.905
69165W        W35574  26.319  13.803   1.913
69166W        W35575  20.043  15.404   0.810
69167W        W35576  43.109  10.795  12.750
69168W        W35577  39.884  44.336   1.048
69169W        W35578   1.392  24.610   1.921
69170W        W35579  40.516  20.547   3.655
69171W        W35580  15.179  29.458   2.272
69172W        W35581   8.856  34.637   3.738
69173W        W35582  30.869  36.956   3.852
69174W        W35583  40.906  22.167  12.379
69175W        W35584  14.595  32.824   0.833
69176W        W35585  22.085   2.778  10.760
69177W        W35586   7.878  41.326  12.957
69178W        W35587  35.910  16.903  14.312
69179W        W35588  39.863   0.144  12.851
69180W        W35589  35.391   7.941  11.492
69181W        W35590  27.496  25.407  10.499
69182W        W35591  30.962  37.871   1.406
69183W        W35592  37.468  39.873  13.898
69184W        W35593   6.804  35.200   0.302
69185W        W35594  23.039  43.301  11.071
69186W        W35595  40.125   2.898   3.430
69187W        W35596  35.984  44.438   2.359
69188W        W35597  18.631  35.857   3.621
69189W        W35598   4.001   7.805   2.228
69190W        W35599  30.919   3.847  10.724
69191W        W35600  28.755  21.644  10.519
69192W        W35601   4.226   9.565  12.606
69193W        W35602  13.133  19.132  10.662
69194W        W35603  14.285   3.960   2.836
69195W        W35604  35.829  38.421   0.731
69196W        W35605  28.237  25.511  13.320
69197W        W35606  28.532  22.226  11.798
69198W        W35607  40.705  36.169   3.368
69199W        W35608  41.398  30.087  13.411
69200W        W35609  29.230  22.069  13.417
69201W        W35610   3.336   3.003   1.310
69202W        W35611  26.688   9.941  14.394
69203W        W35612  24.514  41.047   4.110
69204W        W35613  41.808  36.416  14.791
69205W        W35614   2.291  41.403  11.634
69206W        W35615  37.983  11.276  14.234
69207W        W35616  18.555  36.607   3.418
69208W        W35617  41.842  22.065   0.847
69209W        W35618  24.800  44.417  12.049
69210W        W35619  11.016   5.460   3.382
69211W        W35620   7.317  27.588  13.783
69212W        W35621   6.447  33.717  13.343
69213W        W35622  32.211  26.546   3.155
69214W        W35623  44.891  18.329  14.412
69215W        W35624  31.986   5.685  11.515
69216W        W35625  26.971   1.837  14.276
69217W        W35626  12.083  34.519  13.571
69218W        W35627  26.674  32.461   2.822
69219W        W35628   4.378   6.850   4.006
69220W        W35629  42.311  24.705   1.476
69221W        W35630  26.619   0.154   3.207
69222W        W35631  24.107  27.499   0.521
69223W        W35632   0.398   5.931   1.917
69224W        W35633  14.656  35.557   1.438
69225W        W35634  27.216   9.232  13.457
69226W        W35635   6.379  12.767  10.917
69227W        W35636  31.611   7.876   1.324
69228W        W35637   2.724   7.597   3.802
69229W        W35638  41.789  40.826   0.282
69230W        W35639   3.472  19.540   1.249
69231W        W35640  16.679   6.622  13.383
69232W        W35641  17.498  25.543  11.476
69233W        W35642  42.709   5.635  12.935
69234W        W35643  43.501  20.796   3.513
69235W        W35644  34.068  26.935  14.879
69236W        W35645  34.495  15.221   1.784
69237W        W35646  13.834  40.575  10.807
69238W        W35647   5.282  30.994   1.612
69239W        W35648  27.537  12.106   2.897
69240W        W35649  27.954  37.948  12.080
69241W        W35650  32.858  41.756   0.895
69242W        W35651   8.436  39.447   1.704
69243W        W35652  21.712  15.024   2.885
69244W        W35653  18.191  39.741   0.293
69245W        W35654  16.816  42.758  11.084
69246W        W35655  32.496  24.809  14.520
69247W        W35656  10.506  20.476   3.222
69248W        W35657  32.084  13.943  13.108
69249W        W35658  21.591   3.292   4.635
69250W        W35659   9.244  23.075  14.884
69251W        W35660  19.215  33.031   0.907
69252W        W35661  44.278  36.933  12.860
69253W        W35662  23.164  43.802  11.056
69254W        W35663  40.507  30.238  12.251
69255W        W35664  33.584   3.461  13.895
69256W        W35665  35.553   5.411  11.506
69257W        W35666  26.143  25.355  11.687
69258W        W35667  32.367  33.879  14.628
69259W        W35668   1.431  32.946  11.898
69260W        W35669  39.069  10.370   2.934
69261W        W35670  21.295  19.791  13.237
69262W        W35671  36.460  18.350  13.104
69263W        W35672  40.009  16.137   3.269
69264W        W35673  41.867  16.683   5.032
69265W        W35674   8.886   0.935  11.873
69266W        W35675   7.675  28.044  11.042
69267W        W35676  34.480  26.479   1.350
69268W        W35677   9.280   0.480   5.021
69269W        W35678  13.702  19.285   0.320
69270W        W35679  29.593   3.803   0.910
69271W        W35680  42.031  25.988   1.702
69272W        W35681  44.949  15.070   2.422
69273W        W35682   0.234  33.900   2.583
69274W        W35683  44.761   5.961  10.947
69275W        W35684  31.071   8.455   5.039
69276W        W35685  29.464   2.021  13.072
69277W        W35686   1.215   2.262   0.452
69278W        W35687  30.091  38.264  11.619
69279W        W35688  41.946  43.501  11.479
69280W        W35689  20.282  38.328   0.516
69281W        W35690  41.315  40.922  14.266
69282W        W35691  14.908   6.695   3.047
69283W        W35692  24.041  21.578  13.588
69284W        W35693  27.503  33.026   1.836
69285W        W35694   0.013  42.943   2.642
69286W        W35695  21.144  32.665   3.142
69287W        W35696   7.920   0.008  11.533
69288W        W35697  42.972  22.875   3.700
69289W        W35698  31.792  31.813   0.480
69290W        W35699  38.786  10.972   4.706
69291W        W35700  35.564  12.608   3.121
69292W        W35701   5.209   0.421  11.478
69293W        W35702  38.590  41.892   1.033
69294W        W35703  43.778  44.217   2.957
69295W        W35704   2.085  28.180   0.434
69296W        W35705  37.659  21.145   3.769
69297W        W35706  16.641   1.376   3.538
69298W        W35707  22.227  31.648   0.509
69299W        W35708   0.657  44.422   3.065
69300W        W35709   3.002  32.141   4.613
69301W        W35710  18.848  39.758  14.650
69302W        W35711  43.515  32.963   3.570
69303W        W35712  24.667  27.039  14.137
69304W        W35713  43.919   6.196   3.615
69305W        W35714  36.617  36.353   3.099
69306W        W35715  35.917  37.205  14.320
69307W        W35716  35.229  11.231   0.741
69308W        W35717  14.597   6.469  14.968
69309W        W35718  17.218  27.968   3.648
69310W        W35719  17.770  39.332   3.654
69311W        W35720  20.301  42.245   1.060
69312W        W35721  33.591  35.407  10.768
69313W        W35722  44.873  30.624  12.935
69314W        W35723  14.799   2.545   2.420
69315W        W35724  35.006  19.575  11.321
69316W        W35725  25.305  28.246   4.510
69317W        W35726  35.456  27.916   0.287
69318W        W35727  13.277  23.925   3.600
69319W        W35728  35.964   4.994   1.690
69320W        W35729  20.474  19.154  10.736
69321W        W35730   8.375  12.676  10.470
69322W        W35731  16.104  14.022   3.174
69323W        W35732  42.398   0.284   0.712
69324W        W35733  15.551   3.188  10.965
69325W        W35734   9.974  37.383   1.214
69326W        W35735  32.972  42.301  12.254
69327W        W35736  18.825  22.567   5.002
69328W        W35737   6.035   2.959  13.848
69329W        W35738  30.145   2.342  12.504
69330W        W35739  15.675  12.917   2.172
69331W        W35740   8.404   4.401   2.714
69332W        W35741  31.783  10.470   2.110
69333W        W35742  35.452  26.657  12.020
69334W        W35743   0.270   8.422  11.927
69335W        W35744  11.286  19.622   1.008
69336W        W35745  34.032  33.871  12.772
69337W        W35746  35.886  37.422   2.147
69338W        W35747  26.582  44.254  13.462
69339W        W35748  16.061  37.941   1.415
69340W        W35749   7.443  16.658  11.059
69341W        W35750  23.915  11.146  10.794
69342W        W35751  12.740   2.175   0.781
69343W        W35752  17.801  22.345  12.146
69344W        W35753  13.086  24.145  12.379
69345W        W35754   6.398  25.616   1.712
69346W        W35755  35.829  15.222  12.543
69347W        W35756  29.471  30.100  10.507
69348W        W35757  15.771  32.230  10.216
69349W        W35758   6.939  12.429   0.790
69350W        W35759  35.298  10.383   2.423
69351W        W35760  16.870  30.639   2.191
69352W        W35761  28.029  23.377   5.446
69353W        W35762  13.822  40.577  14.678
69354W        W35763   9.473  25.139  12.081
69355W        W35764  20.709  32.546   1.541
69356W        W35765  25.703  43.345  14.574
69357W        W35766  11.841  27.186  11.939
69358W        W35767  20.071   3.003  12.523
69359W        W35768   1.334   2.429   2.432
69360W        W35769  15.463  18.688  12.955
69361W        W35770  14.402  14.132   2.349
69362W        W35771  25.456  30.456  12.920
69363W        W35772  32.555  35.088   4.244
69364W        W35773   4.366  14.764  11.027
69365W        W35774  36.867   7.856   0.244
69366W        W35775  33.026  16.126   0.146
69367W        W35776   5.409  10.716   1.828
69368W        W35777  36.825  31.575   2.095
69369W        W35778  16.112  24.755   2.839
69370W        W35779   6.397  20.235   1.327
69371W        W35780  25.730   8.621  12.142
69372W        W35781  15.323   8.809  11.173
69373W        W35782  21.565   4.554   0.795
69374W        W35783  39.357  24.141  11.173
69375W        W35784  11.830   0.303   0.631
69376W        W35785  36.405  21.096  11.845
69377W        W35786  39.403  40.774   3.363
69378W        W35787  40.431  36.145  12.859
69379W        W35788  17.242  43.719   1.751
69380W        W35789   0.155  35.662   2.209
69381W        W35790  28.531   9.268   2.334
69382W        W35791  12.557  21.020   5.132
69383W        W35792   8.768  30.223  14.555
69384W        W35793  23.669   7.222   1.776
69385W        W35794   2.573   7.229   4.128
69386W        W35795  25.669  37.826   1.225
69387W        W35796  14.154  22.003   0.349
69388W        W35797  36.097  13.870   4.018
69389W        W35798  26.512  21.527   2.773
69390W        W35799  21.183  22.283   0.773
69391W        W35800  37.079  14.331  11.172
69392W        W35801  43.442  30.617   2.680
69393W        W35802  27.586  13.296   3.008
69394W        W35803  10.620  24.074   3.590
69395W        W35804  25.142  23.257   0.819
69396W        W35805  19.803  39.752  11.141
69397W        W35806  19.495   5.702   4.140
69398W        W35807  20.634  19.654   3.930
69399W        W35808   6.881   1.382  11.986
69400W        W35809  17.599  36.136  12.532
69401W        W35810  38.275  10.176  10.615
69402W        W35811  27.398  10.609  14.277
69403W        W35812  22.951   0.984   3.895
69404W        W35813   3.247  44.674  11.040
69405W        W35814  38.116   3.729   4.542
69406W        W35815  13.312  32.289  10.207
69407W        W35816  15.273  44.421  11.956
69408W        W35817  22.966  36.091   1.681
69409W        W35818  38.859  32.050  12.537
69410W        W35819  36.868  38.752  14.941
69411W        W35820  21.025   2.703   2.017
69412W        W35821  18.845   7.870   4.512
69413W        W35822  28.815  11.923  13.855
69414W        W35823  34.421   3.017   2.085
69415W        W35824   4.500  34.528  11.560
69416W        W35825  43.790  12.120  13.091
69417W        W35826  25.262   5.231  14.183
69418W        W35827  10.253  26.262  13.157
69419W        W35828  30.532  34.230   4.093
69420W        W35829  22.033  39.374   2.247
69421W        W35830   8.380  37.788   1.382
69422W        W35831  32.689  14.021   0.822
69423W        W35832  39.275   0.259   4.888
69424W        W35833  22.359  30.248  13.495
69425W        W35834  14.410   6.917  10.716
69426W        W35835  43.768  26.555   2.781
69427W        W35836  34.569  21.400   2.667
69428W        W35837  10.550   5.678   3.342
69429W        W35838  18.731  19.658   3.934
69430W        W35839  10.862  29.963   2.698
69431W        W35840  38.084  42.601   0.255
69432W        W35841  19.594  21.002   4.569
69433W        W35842  24.467  15.805   1.265
69434W        W35843   8.724   9.995   4.234
69435W        W35844  44.549  25.033   2.055
69436W        W35845  26.440  17.297   1.770
69437W        W35846  15.556  33.624  11.909
69438W        W35847  17.788  20.395  10.250
69439W        W35848  28.683  26.006  10.722
69440W        W35849  29.022  33.126   4.083
69441W        W35850  29.234   2.217  12.124
69442W        W35851   9.348  37.530   3.722
69443W        W35852  40.888  32.160  10.459
69444W        W35853  18.869  31.630  13.434
69445W        W35854  18.182   1.051  13.435
69446W        W35855  37.350  12.218  14.272
69447W        W35856  10.784  14.788   4.125
69448W        W35857  26.223  38.873  14.348
69449W        W35858  41.990  17.237  10.630
69450W        W35859   6.235  28.956   9.969
69451W        W35860  12.137  13.664  11.045
69452W        W35861  23.165   9.632  12.346
69453W        W35862  13.673   7.467   3.210
69454W        W35863  27.671  24.199   2.976
69455W        W35864  34.625   3.644  12.095
69456W        W35865  34.125   4.741   0.855
69457W        W35866   7.149   9.309   0.799
69458W        W35867   8.270  33.117   1.238
69459W        W35868  21.707  18.113  14.530
69460W        W35869  36.355  11.914  13.502
69461W        W35870  14.312   2.398  10.667
69462W        W35871  14.564  23.967  11.604
69463W        W35872  20.613  26.474   1.375
69464W        W35873   7.434   7.988  13.966
69465W        W35874   6.419   1.390   2.819
69466W        W35875  16.094  28.023   2.721
69467W        W35876  25.739  15.257   0.236
69468W        W35877  11.691  18.133  13.406
69469W        W35878  25.898  30.955   4.020
69470W        W35879  41.410   2.290   3.319
69471W        W35880  15.326  33.567   0.405
69472W        W35881   1.395  34.310  13.870
69473W        W35882  11.792  20.013   0.491
69474W        W35883   2.833   9.021  14.605
69475W        W35884  26.759   7.914   4.110
69476W        W35885  29.104   7.232   4.328
69477W        W35886  15.135  17.476   0.257
69478W        W35887  36.024  23.992   4.045
69479W        W35888  25.567  44.434   5.156
69480W        W35889   1.717  15.987   2.784
69481W        W35890  18.233  44.781   4.531
69482W        W35891  38.909   3.677   4.244
69483W        W35892  36.331  30.923  10.727
69484W        W35893  11.036  21.676  12.345
69485W        W35894  33.110  44.591  13.988
69486W        W35895  24.942   7.218   4.072
69487W        W35896  13.876  38.085   3.147
69488W        W35897  24.750  16.183   0.259
69489W        W35898  23.721  21.725  12.125
69490W        W35899   7.654  43.293  10.724
69491W        W35900  24.096   9.967  12.658
69492W        W35901  28.201  11.222   1.197
69493W        W35902   9.685   4.994   2.522
69494W        W35903  27.597  12.269   2.421
69495W        W35904  24.967  35.329  12.827
69496W        W35905  44.521  13.841  11.135
69497W        W35906   8.682  41.269  14.733
69498W        W35907   1.830  16.965  12.706
69499W        W35908  25.162  16.055   2.922
69500W        W35909  16.160  12.873  13.316
69501W        W35910  26.395  43.297   2.352
69502W        W35911   2.375  22.647   0.843
69503W        W35912   3.675  40.089   4.086
69504W        W35913  37.619  43.534  12.513
69505W        W35914  43.419  40.387   1.245
69506W        W35915  30.416  37.984   2.442
69507W        W35916   9.759  40.887  14.471
69508W        W35917  43.604  36.452   0.304
69509W        W35918  32.063  17.686  13.982
69510W        W35919  43.905  11.153   4.186
69511W        W35920  23.983  23.474   3.715
69512W        W35921  37.323  15.394   1.171
69513W        W35922   4.043  21.576  11.045
69514W        W35923  14.187  42.183  14.546
69515W        W35924  26.477  37.261   5.032
69516W        W35925   4.888  20.952   1.428
69517W        W35926  31.388  42.853  14.082
69518W        W35927  44.592   7.450  14.443
69519W        W35928  33.529  13.354  13.444
69520W        W35929  38.996  36.990   2.155
69521W        W35930  39.466  40.653  12.440
69522W        W35931  23.144  21.028   3.286
69523W        W35932  42.547  28.464  11.689
69524W        W35933  24.518   5.859   4.618
69525W        W35934  37.532  44.883   4.554
69526W        W35935  27.546  35.050  12.183
69527W        W35936  23.847  34.373  12.108
69528W        W35937  23.017  33.751   4.969
69529W        W35938   5.532  35.068   2.109
69530W        W35939   1.017  14.345   9.865
69531W        W35940   5.296  42.196   3.157
69532W        W35941  42.916  11.908   5.308
69533W        W35942  21.477  21.747  14.292
69534W        W35943   8.771   5.728  14.827
69535W        W35944  35.149  22.167  10.903
69536W        W35945  16.072  40.007  13.399
69537W        W35946   0.153  43.852  12.028
69538W        W35947  15.365   4.453  14.379
69539W        W35948  23.257  17.620   3.128
69540W        W35949  27.983   4.901  14.378
69541W        W35950   9.095  33.896  12.863
69542W        W35951  20.768  23.491   3.132
69543W        W35952   7.747   8.177  11.613
69544W        W35953  42.478  13.748   0.430
69545W        W35954  23.789  19.735   2.763
69546W        W35955  23.607  31.369  14.579
69547W        W35956  35.892  12.117   4.646
69548W        W35957  17.707  34.679  14.550
69549W        W35958  39.176  37.288  11.930
69550W        W35959  34.393  11.730  11.053
69551W        W35960  35.363  22.027  12.165
69552W        W35961  19.994   9.829   0.231
69553W        W35962  29.061   5.838  11.521
69554W        W35963  19.797   4.813   0.589
69555W        W35964  15.365  15.123   2.465
69556W        W35965   8.347  11.660   1.758
69557W        W35966  29.543  19.243   1.929
69558W        W35967   5.529  33.713   4.174
69559W        W35968  41.259  36.922   0.368
69560W        W35969  19.054  19.628   4.743
69561W        W35970   3.803   7.970   4.063
69562W        W35971  33.982  26.091  10.317
69563W        W35972  30.643   5.724  11.689
69564W        W35973   0.771  36.060   4.701
69565W        W35974  40.435  43.739   1.676
69566W        W35975  11.389   3.497   4.430
69567W        W35976  25.086  18.843  13.991
69568W        W35977  43.576  43.573  14.046
69569W        W35978  28.596   3.967   0.472
69570W        W35979  33.826  42.945   1.820
69571W        W35980  34.951  24.229   5.104
69572W        W35981  12.684  43.376   3.323
69573W        W35982  19.262  16.890   4.159
69574W        W35983  32.068  35.320   4.141
69575W        W35984  13.148  21.366  13.493
69576W        W35985  24.928  10.723  10.902
69577W        W35986  29.039  14.528   3.077
69578W        W35987  35.260  34.351   1.632
69579W        W35988  21.840  31.004   3.657
69580W        W35989  10.580  38.814   2.204
69581W        W35990  14.875  18.560   3.109
69582W        W35991  30.825  39.813   3.682
69583W        W35992  34.522  30.831   2.908
69584W        W35993  28.248   5.034  12.994
69585W        W35994  37.009  16.849   4.221
69586W        W35995  35.079   6.836   1.381
69587W        W35996   3.792  41.636   2.405
69588W        W35997  40.415   3.647  12.072
69589W        W35998  24.323  42.521  12.583
69590W        W35999  15.224  14.354   3.162
69591W        W36000  24.308   2.512   4.130
69592W        W36001  17.700  26.057   3.132
69593W        W36002  26.245  12.686   2.757
69594W        W36003  18.174   8.371  10.519
69595W        W36004   7.031  25.642  14.825
69596W        W36005  16.441  18.123  11.639
69597W        W36006  41.967   1.466  13.364
69598W        W36007  35.181  27.360   4.212
69599W        W36008  17.707  31.099   4.766
69600W        W36009  19.566  44.350   3.227
69601W        W36010  31.848   3.319  11.651
69602W        W36011  40.079  29.515  13.987
69603W        W36012  10.402  32.312  11.999
69604W        W36013   3.829  41.160   2.220
69605W        W36014  34.317  21.526  12.755
69606W        W36015   2.313  14.839  14.373
69607W        W36016  30.844  33.087   0.363
69608W        W36017  14.152   2.539  11.985
69609W        W36018  44.486  20.727   2.274
69610W        W36019  19.302  24.446   4.220
69611W        W36020  24.212  12.353   4.392
69612W        W36021   2.727  13.194   3.021
69613W        W36022  43.560  12.502  12.758
69614W        W36023  25.397   1.827   2.810
69615W        W36024   4.535  30.127  12.218
69616W        W36025  14.491  10.054  14.708
69617W        W36026  26.673  15.590   2.143
69618W        W36027  23.610  29.097   3.305
69619W        W36028   7.155  12.302  12.859
69620W        W36029  24.473  27.215   4.213
69621W        W36030  38.872   9.644  11.763
69622W        W36031  25.998  32.642  11.171
69623W        W36032  41.267  26.105  14.475
69624W        W36033  34.977  33.802   4.711
69625W        W36034  31.006  28.427   3.227
69626W        W36035  13.215  24.523   0.438
69627W        W36036  26.138  26.359  10.660
69628W        W36037  44.480  31.046  12.528
69629W        W36038  17.129   9.208  12.394
69630W        W36039  32.106   7.455  14.193
69631W        W36040  44.405  22.322   2.204
69632W        W36041   6.847   4.263  12.834
69633W        W36042  35.811  21.446   0.009
69634W        W36043   8.532  38.310  12.687
69635W        W36044  41.001  14.901  10.533
69636W        W36045  25.887   7.627  13.502
69637W        W36046  36.457  39.723  10.599
69638W        W36047  12.663  37.142  14.285
69639W        W36048   6.817   5.809  11.016
69640W        W36049  25.695  30.021  12.839
69641W        W36050  24.727   7.083   2.390
69642W        W36051  31.816  38.167  11.017
69643W        W36052  24.037   1.706  10.761
69644W        W36053  16.528  13.162   0.254
69645W        W36054  24.662   0.705  12.969
69646W        W36055  32.527  15.031   0.976
69647W        W36056  27.512   4.347   3.616
69648W        W36057  43.216  30.553  12.085
69649W        W36058   4.274  16.076   3.810
69650W        W36059  41.867  29.914  12.526
69651W        W36060   4.128   9.114   1.314
69652W        W36061  32.516  20.585   0.941
69653W        W36062  21.178  16.226  10.346
69654W        W36063  31.276  33.563   2.132
69655W        W36064  13.675  12.583  13.289
69656W        W36065  25.832   3.359   4.623
69657W        W36066   3.970  28.880   0.364
69658W        W36067  23.861  37.963   5.108
69659W        W36068  23.544  20.483  13.082
69660W        W36069   6.116  39.055  14.274
69661W        W36070   5.707  21.136   0.527
69662W        W36071  17.337  13.660   1.357
69663W        W36072   3.855  24.248   4.957
69664W        W36073  19.295  43.729   0.998
69665W        W36074   9.799  28.662  10.966
69666W        W36075  37.401  23.031  12.927
69667W        W36076  29.584  22.399   3.164
69668W        W36077  11.077  40.373   3.658
69669W        W36078  36.914   5.017  11.936
69670W        W36079  22.659  14.734   4.142
69671W        W36080  22.521  41.122  10.520
69672W        W36081  30.946  14.140   1.360
69673W        W36082  32.508  37.219   2.545
69674W        W36083  38.639   7.614  12.650
69675W        W36084  24.059   3.724   2.635
69676W        W36085  40.022  12.258   4.172
69677W        W36086  19.590  15.745   1.905
69678W        W36087  23.264  12.905   1.862
69679W        W36088  26.098  15.708  10.072
69680W        W36089  39.303  17.619  11.802
69681W        W36090  37.834  33.617  13.856
69682W        W36091  16.014  23.171   1.692
69683W        W36092  28.757  23.319   3.284
69684W        W36093  36.089  24.949  11.883
69685W        W36094  19.768  32.296   2.296
69686W        W36095  37.657   1.183  10.930
69687W        W36096  20.156  40.779  10.373
69688W        W36097  43.297  13.750  11.667
69689W        W36098  41.011  33.275  13.949
69690W        W36099  36.772  43.732  12.508
69691W        W36100   0.686  36.459  12.031
69692W        W36101  17.780  14.013   3.810
69693W        W36102  27.920   5.461   3.860
69694W        W36103  28.431  16.984  14.430
69695W        W36104   2.955  37.643  13.476
69696W        W36105   5.085  34.860  12.258
69697W        W36106  41.317   3.482   2.475
69698W        W36107   1.529   7.419  12.870
69699W        W36108  36.956  19.783   0.804
69700W        W36109  18.711   7.369   0.285
69701W        W36110   4.028  34.650  10.288
69702W        W36111  26.615  19.224  13.465
69703W        W36112  23.292  20.985   1.772
69704W        W36113  43.942  20.755   0.045
69705W        W36114  20.525  31.260  13.813
69706W        W36115  16.761  43.624   3.617
69707W        W36116  36.926  32.004   2.931
69708W        W36117   1.197  24.056   0.647
69709W        W36118  26.247  11.752   4.588
69710W        W36119  41.899  32.792   0.960
69711W        W36120  41.443  17.851  14.967
69712W        W36121  42.438  10.349  11.736
69713W        W36122  11.926  25.480   1.072
69714W        W36123   3.047   1.595  10.479
69715W        W36124  30.568  13.543  12.645
69716W        W36125  18.662  18.565   4.147
69717W        W36126  16.249  35.523   3.007
69718W        W36127  24.431  17.615  10.765
69719W        W36128  43.825  31.571  12.356
69720W        W36129  26.322  24.945  14.596
69721W        W36130  29.385  19.298   4.770
69722W        W36131  21.147  29.513  14.272
69723W        W36132   0.215   5.317   4.062
69724W        W36133  32.422  35.888   3.610
69725W        W36134  23.554   2.434   0.294
69726W        W36135  34.417   0.403  10.691
69727W        W36136  10.124  28.955  14.140
69728W        W36137   4.768  42.934  12.642
69729W        W36138   3.253  10.704   0.868
69730W        W36139  30.505  26.395  11.088
69731W        W36140  22.484  43.948  14.488
69732W        W36141  12.839  17.734   2.308
69733W        W36142  37.810  11.324  14.765
69734W        W36143   4.812   5.913  14.524
69735W        W36144  41.547  10.177  13.947
69736W        W36145   1.233   5.001  13.870
69737W        W36146   8.287  37.810   2.407
69738W        W36147  30.555  35.986  10.792
69739W        W36148  22.612  17.282   0.002
69740W        W36149  22.826  29.131   2.806
69741W        W36150  42.406  13.109  13.954
69742W        W36151   2.760   5.175   1.253
69743W        W36152  33.869  25.502  12.635
69744W        W36153  36.594  38.522  11.156
69745W        W36154  30.261  43.897  13.275
69746W        W36155  10.647  35.809   4.246
69747W        W36156  35.021  37.430  12.491
69748W        W36157   2.798  25.157   4.519
69749W        W36158  32.805  21.751  11.542
69750W        W36159   8.281  43.331   3.851
69751W        W36160  16.141   2.785   0.417
69752W        W36161   5.352  32.985  14.751
69753W        W36162  22.672   1.782  14.036
69754W        W36163  32.671  28.166   3.422
69755W        W36164  41.052   3.650   2.084
69756W        W36165   8.928  40.848   2.776
69757W        W36166  36.338  13.913   4.955
69758W        W36167   3.044   2.332   0.243
69759W        W36168   4.024   1.984  12.188
69760W        W36169  27.430  23.755   4.277
69761W        W36170   9.244  29.350   3.157
69762W        W36171   3.927  34.294  13.912
69763W        W36172  18.207  38.033   4.751
69764W        W36173   3.373   8.284   0.340
69765W        W36174  32.328  10.215   1.353
69766W        W36175  38.795   6.851   4.783
69767W        W36176  20.656  34.805   1.200
69768W        W36177  28.216  23.063  12.581
69769W        W36178  39.890  20.941   5.010
69770W        W36179  25.523   5.933   1.744
69771W        W36180   8.625  29.637   3.570
69772W        W36181  30.834  22.141   2.837
69773W        W36182  24.827  43.019  12.128
69774W        W36183  32.195  12.468   1.719
69775W        W36184  37.161  19.959  13.132
69776W        W36185   1.494  33.083  14.276
69777W        W36186  28.204   7.157   0.253
69778W        W36187   2.421   8.441  14.838
69779W        W36188  38.695   3.208   4.059
69780W        W36189  12.296  20.586   3.529
69781W        W36190  30.220  39.300   2.227
69782W        W36191  34.620  18.073   2.315
69783W        W36192  43.421  38.541   1.707
69784W        W36193  39.340  37.828   3.191
69785W        W36194  32.097  34.048  10.686
69786W        W36195  32.584   9.758   3.223
69787W        W36196  36.286  43.955  12.452
69788W        W36197  35.823  43.760  14.953
69789W        W36198  44.543  28.297   3.304
69790W        W36199  37.868  11.564   4.633
69791W        W36200  17.436  29.696  13.462
69792W        W36201  41.838  25.192   3.165
69793W        W36202  44.001  22.599   2.384
69794W        W36203  23.113  21.287   0.107
69795W        W36204  36.575   7.041  14.613
69796W        W36205  12.708   7.974   1.127
69797W        W36206  10.436  28.116   3.131
69798W        W36207  14.297  29.949   1.635
69799W        W36208  19.334   2.955  13.974
69800W        W36209  22.543  28.037  11.489
69801W        W36210  38.296  22.273   4.043
69802W        W36211  19.833   6.260  13.898
69803W        W36212   6.114  38.964   4.935
69804W        W36213  33.406  11.267  13.739
69805W        W36214  11.248  30.531  12.508
69806W        W36215  27.285  26.067   1.773
69807W        W36216   0.852   2.680  12.422
69808W        W36217  32.139  20.782  12.090
69809W        W36218   7.090  22.600  14.655
69810W        W36219   6.118  36.596  13.456
69811W        W36220  33.387   9.664  14.382
69812W        W36221   1.402  41.970   3.639
69813W        W36222  35.429  34.308   0.360
69814W        W36223  11.956  39.901   2.367
69815W        W36224  38.256   2.452  12.821
69816W        W36225  22.396  16.124   1.661
69817W        W36226   8.681   8.089   1.891
69818W        W36227  35.554  39.988   3.592
69819W        W36228  38.665  30.978  12.080
69820W        W36229  42.104  43.055  13.306
69821W        W36230  32.642  18.798  12.113
69822W        W36231  19.497  40.716  12.546
69823W        W36232  28.745  28.499   2.655
69824W        W36233  11.677   6.393   1.192
69825W        W36234   3.189   1.951   3.268
69826W        W36235  10.245   7.930   2.718
69827W        W36236  27.750  11.719   1.810
69828W        W36237  10.186   6.921   0.456
69829W        W36238   0.771   8.660  11.131
69830W        W36239  23.268  37.103   3.259
69831W        W36240   6.348  17.715  14.051
69832W        W36241  35.938   3.569   2.923
69833W        W36242  14.324  37.003  12.112
69834W        W36243  12.381  44.699   3.222
69835W        W36244  17.354  28.732   1.093
69836W        W36245  20.152   2.936  14.931
69837W        W36246   0.194   1.025  12.957
69838W        W36247  18.237   6.956  12.458
69839W        W36248  40.303  25.570   3.199
69840W        W36249  34.487  24.554   4.361
69841W        W36250  16.778  43.916   4.086
69842W        W36251  34.722   6.179   0.896
69843W        W36252   3.737  18.387   0.362
69844W        W36253   7.929  24.719   1.453
69845W        W36254   4.982   6.169  11.448
69846W        W36255  11.068   2.902  10.739
69847W        W36256  26.819  30.476   0.741
69848W        W36257  28.594  39.038  11.601
69849W        W36258  22.151  11.696   3.698
69850W        W36259  38.679  34.453  13.613
69851W        W36260  42.327  20.320  12.093
69852W        W36261  18.847  17.244   2.174
69853W        W36262  30.566  22.950   3.281
69854W        W36263  20.764  36.482   0.271
69855W        W36264  42.106  39.306  11.150
69856W        W36265  23.147  38.574   1.401
69857W        W36266   9.335  27.036  11.980
69858W        W36267  36.015  15.344  14.376
69859W        W36268  18.315  15.611   1.035
69860W        W36269  44.858  29.100   0.289
69861W        W36270  36.112  25.496   4.440
69862W        W36271  22.878  44.233  11.089
69863W        W36272  39.510  41.986   2.823
69864W        W36273   9.378  13.125  13.450
69865W        W36274   8.842  30.123   2.852
69866W        W36275   6.565  34.647  12.442
69867W        W36276  13.599  29.051  13.257
69868W        W36277  38.339   4.826  11.959
69869W        W36278  24.075   3.327  12.176
69870W        W36279  30.161  35.870  11.215
69871W        W36280  20.510  38.011   3.038
69872W        W36281   2.775  23.546  14.228
69873W        W36282  42.118  31.966   1.225
69874W        W36283  29.816  43.889  10.664
69875W        W36284  11.727  13.744   2.136
69876W        W36285  34.468  17.669   0.741
69877W        W36286  22.565  25.902   0.855
69878W        W36287  41.545  33.787  12.650
69879W        W36288  44.498  14.665  14.768
69880W        W36289  15.520   6.856   0.918
69881W        W36290  34.576   7.466   2.176
69882W        W36291  22.575  10.136  12.103
69883W        W36292   9.940   3.288  14.526
69884W        W36293  28.090   3.994  12.803
69885W        W36294  42.899  24.088   0.732
69886W        W36295  15.219   7.602   0.405
69887W        W36296  25.541  29.187  11.583
69888W        W36297  15.166  31.093  13.708
69889W        W36298  43.521  26.378   3.205
69890W        W36299  32.736   3.911  12.993
69891W        W36300  23.139  35.848   3.827
69892W        W36301  44.787   4.000   2.763
69893W        W36302  35.722  26.494  14.661
69894W        W36303  34.105  29.134   4.233
69895W        W36304  13.388  13.881   1.155
69896W        W36305   8.374  25.546  13.888
69897W        W36306   0.481   1.687  13.536
69898W        W36307  14.662   1.763  11.211
69899W        W36308  41.573  23.567  11.549
69900W        W36309  19.811  20.849  12.776
69901W        W36310  11.515  24.561  13.853
69902W        W36311  12.666  32.389   5.478
69903W        W36312  22.561   7.487  13.414
69904W        W36313   8.812  26.015   0.945
69905W        W36314  28.520  24.160   2.608
69906W        W36315  34.839  39.397  14.370
69907W        W36316   7.143  14.001  11.056
69908W        W36317   0.799  14.100  14.939
69909W        W36318  32.922  30.206   1.718
69910W        W36319  42.673  29.610  11.245
69911W        W36320  13.943  16.225  12.380
69912W        W36321   3.790   3.167   5.407
69913W        W36322  22.582  34.897  13.857
69914W        W36323  20.675  31.141  11.029
69915W        W36324  40.504  19.478   1.360
69916W        W36325  13.325  28.554  12.120
69917W        W36326  39.447  19.155   1.299
69918W        W36327  29.252  11.613   0.053
69919W        W36328  25.673  29.990   0.439
69920W        W36329  19.789  41.447  14.289
69921W        W36330  19.477   9.137   2.657
69922W        W36331   1.090  39.445   1.953
69923W        W36332   4.944  23.760  13.940
69924W        W36333  24.065  13.625  13.873
69925W        W36334  42.939   7.737  11.586
69926W        W36335  22.457  41.422   5.137
69927W        W36336  33.263   2.902   3.096
69928W        W36337  14.731  39.818  13.434
69929W        W36338  36.587  19.566  11.142
69930W        W36339  38.793  23.609  14.685
69931W        W36340  11.100  22.159   3.401
69932W        W36341   5.899  32.416  12.048
69933W        W36342   0.352  18.666   4.211
69934W        W36343  21.403   9.138  13.990
69935W        W36344  15.200  18.478  11.249
69936W        W36345  44.058   6.374   0.781
69937W        W36346  44.856   1.069   3.728
69938W        W36347   0.493  27.530   3.706
69939W        W36348  41.344   3.347  11.196
69940W        W36349  39.129  42.823  14.904
69941W        W36350  29.979  22.206   2.286
69942W        W36351  35.857   4.634  13.377
69943W        W36352  21.259  43.524  14.832
69944W        W36353   0.826  12.882  12.468
69945W        W36354  13.886  38.816   2.551
69946W        W36355   4.671  21.060  14.951
69947W        W36356   5.294  13.131   1.175
69948W        W36357   5.336  32.708   4.076
69949W        W36358  10.828  21.958   0.824
69950W        W36359  35.926  36.032  13.905
69951W        W36360  12.253  43.262   0.306
69952W        W36361   2.007  30.945  10.950
69953W        W36362   0.042  11.854   4.256
69954W        W36363  17.562  25.183   3.668
69955W        W36364  22.235   9.891  11.174
69956W        W36365  16.770   2.292   0.934
69957W        W36366  22.191   3.750  10.627
69958W        W36367  32.521  22.805   3.805
69959W        W36368  27.452  23.679  14.797
69960W        W36369  19.316  39.139  12.894
69961W        W36370  20.750  13.787   1.368
69962W        W36371   1.305  23.014   2.343
69963W        W36372  32.855  15.362   3.393
69964W        W36373  39.488  44.766   4.872
69965W        W36374  16.311  43.383   3.669
69966W        W36375  24.942  32.167  14.832
69967W        W36376  13.203  40.302   4.137
69968W        W36377  35.052  25.201   2.335
69969W        W36378  40.737  19.149  11.540
69970W        W36379   9.112  11.235   3.819
69971W        W36380  37.897  25.730  11.615
69972W        W36381  39.573  35.045   4.646
69973W        W36382   0.774  42.596   0.775
69974W        W36383  42.374  27.462  14.009
69975W        W36384  42.831   8.045   1.428
69976W        W36385  24.527  11.036  12.557
69977W        W36386  33.166   3.674   3.793
69978W        W36387  30.090  26.804  13.228
69979W        W36388  17.475  31.636   1.413
69980W        W36389  33.900  21.624  13.094
69981W        W36390  15.477  34.871   3.308
69982W        W36391  33.902  12.372   3.677
69983W        W36392  31.709  27.165   0.803
69984W        W36393  26.901  23.321   2.317
69985W        W36394  30.971  34.038   1.938
69986W        W36395  32.901  29.610   5.013
69987W        W36396  27.060  37.073  12.802
69988W        W36397  10.629  18.300  11.140
69989W        W36398  38.845  31.654  14.397
69990W        W36399   2.393  22.961   1.269
69991W        W36400  13.165  34.823   1.632
69992W        W36401  19.229  42.489  12.383
69993W        W36402  31.883  44.227  12.967
69994W        W36403  11.429  11.498   3.770
69995W        W36404  23.446  15.203  14.984
69996W        W36405   3.968  34.268   3.703
69997W        W36406  12.466   5.358   2.701
69998W        W36407  43.358  23.467   3.126
69999W        W36408   7.458  19.272   1.823
70000W        W36409  43.296  23.856   4.632
70001W        W36410   8.900   5.166  11.532
70002W        W36411  11.677  24.370  11.596
70003W        W36412  18.139  26.432   0.974
70004W        W36413  38.050  37.950  13.483
70005W        W36414  13.627  31.457   0.289
70006W        W36415  16.484  29.580   1.053
70007W        W36416  10.009  14.346  11.167
70008W        W36417   4.282  14.365   2.225
70009W        W36418  35.149  24.312  14.281
70010W        W36419   1.826   3.869  14.785
70011W        W36420  18.531  41.146  10.264
70012W        W36421  42.156  29.835   1.763
70013W        W36422  36.095  30.309   4.843
70014W        W36423  39.282  24.674   2.367
70015W        W36424  22.171  21.424   1.766
70016W        W36425  15.184   5.855   1.726
70017W        W36426   5.959  14.076  12.969
70018W        W36427  34.915  31.917   1.795
70019W        W36428  44.944  39.322  13.072
70020W        W36429  28.274  30.464  11.482
70021W        W36430   6.275  41.520  11.284
70022W        W36431  12.443   0.929   1.781
70023W        W36432   8.730  13.883  12.145
70024W        W36433  34.698   8.574  13.019
70025W        W36434   7.621   2.831  11.090
70026W        W36435  35.125  36.163  13.337
70027W        W36436   5.716  28.613   0.768
70028W        W36437  12.702  27.932   3.728
70029W        W36438   0.939  25.809  14.579
70030W        W36439  20.053   1.225   1.230
70031W        W36440  30.202  23.683   3.509
70032W        W36441  44.942  26.550   4.388
70033W        W36442  12.971  31.736  12.734
70034W        W36443  12.334  13.777   4.564
70035W        W36444  21.752  29.069  12.107
70036W        W36445  37.159  36.863   5.080
70037W        W36446  40.309  24.810   0.167
70038W        W36447   6.511   4.505  13.652
70039W        W36448  32.174  15.592   1.312
70040W        W36449   4.233  37.581  13.853
70041W        W36450   8.708  27.508   1.932
70042W        W36451  38.112  26.029   3.483
70043W        W36452  20.516  19.144  11.505
70044W        W36453  21.922  40.443   4.900
70045W        W36454   8.797   7.147   4.527
70046W        W36455  11.169  40.473   2.774
70047W        W36456  36.951  24.193   1.157
70048W        W36457   2.163  39.327  13.291
70049W        W36458  37.762  10.443   3.768
70050W        W36459  25.969  39.627  12.103
70051W        W36460  11.276   8.226  14.519
70052W        W36461  18.045  37.167  14.413
70053W        W36462   1.470  30.766  11.981
70054W        W36463  25.994  27.738  12.862
70055W        W36464  41.822  20.849  13.781
70056W        W36465   7.898  36.358  12.960
70057W        W36466  35.831  35.658   1.369
70058W        W36467  40.032   0.687  10.924
70059W        W36468  37.888  14.790  14.818
70060W        W36469  15.887  28.006  11.540
70061W        W36470  19.084  11.856   1.495
70062W        W36471  43.080  44.374  12.437
70063W        W36472  43.002  21.551  12.026
70064W        W36473  18.201  28.686  10.620
70065W        W36474   2.413  42.437   1.115
70066W        W36475  24.956  42.283   1.545
70067W        W36476  18.485  43.201  10.155
70068W        W36477  38.926  29.549  14.423
70069W        W36478  10.964  32.951  12.959
70070W        W36479   3.332  17.052   2.760
70071W        W36480  14.725  21.498  12.730
70072W        W36481  42.429   8.164   3.623
70073W        W36482   9.473  43.193   3.328
70074W        W36483  21.688  40.381   1.948
70075W        W36484  42.873   3.157  13.782
70076W        W36485  31.838  20.133   1.774
70077W        W36486  43.937  27.871  12.884
70078W        W36487  43.121  42.536  12.771
70079W        W36488  28.682  27.682   0.410
70080W        W36489  38.980  16.808  14.301
70081W        W36490  41.860  37.237   3.716
70082W        W36491  44.404  18.072  14.313
70083W        W36492  31.832  40.194  10.275
70084W        W36493   5.144  22.613   2.244
70085W        W36494  38.111   4.208  13.208
70086W        W36495  33.347  19.138  11.974
70087W        W36496  43.328  30.905  10.864
70088W        W36497  11.344  24.474   4.682
70089W        W36498   2.844  28.777   1.690
70090W        W36499  12.538  10.310   0.808
70091W        W36500  33.086  39.420   4.130
70092W        W36501  19.787  17.070   2.434
70093W        W36502  21.968   4.227   0.282
70094W        W36503  36.938   3.014   4.558
70095W        W36504  20.978   3.805   4.942
70096W        W36505  32.098  23.336   2.312
70097W        W36506  12.288  43.040   1.699
70098W        W36507  39.059  34.280  10.162
70099W        W36508  32.969  19.117  14.123
70100W        W36509  31.218  32.033   3.692
70101W        W36510  10.124  12.873   2.457
70102W        W36511   0.186  35.511  13.323
70103W        W36512  27.716  23.135  13.461
70104W        W36513  15.156   3.170  12.221
70105W        W36514  15.699  42.048  13.107
70106W        W36515   5.799  17.910  11.974
70107W        W36516  36.579   3.754   3.588
70108W        W36517   6.953  15.380   2.416
70109W        W36518  40.602  23.340  12.885
70110W        W36519  37.295  27.990   4.488
70111W        W36520  35.131   4.378  11.614
70112W        W36521  31.204  43.285   0.319
70113W        W36522  19.525  22.446   3.864
70114W        W36523  22.511  36.853   0.740
70115W        W36524  39.947  20.079   0.052
70116W        W36525   5.238   6.729  12.363
70117W        W36526  29.384  39.594   3.640
70118W        W36527  10.407   3.979  13.012
70119W        W36528  30.955  40.332   0.393
70120W        W36529   6.789  31.129  10.936
70121W        W36530  41.745  24.467  13.433
70122W        W36531  11.682  43.806  13.779
70123W        W36532  33.358   8.188   4.926
70124W        W36533   1.365  43.481   1.927
70125W        W36534  15.329  43.264   1.792
70126W        W36535   9.596  43.473   1.632
70127W        W36536  40.884   1.022  12.803
70128W        W36537  20.051   2.999   1.378
70129W        W36538  24.904  13.559  13.213
70130W        W36539   5.149  33.368   2.713
70131W        W36540  30.118  11.315  13.480
70132W        W36541  35.361  25.513   4.661
70133W        W36542  24.088   3.458   4.929
70134W        W36543  23.661   4.762  11.868
70135W        W36544   5.838   5.883  12.694
70136W        W36545  20.468  22.657  12.944
70137W        W36546  15.790  42.321  12.683
70138W        W36547  39.404  24.966  13.019
70139W        W36548  36.754  43.280   1.142
70140W        W36549   9.770  23.247   9.842
70141W        W36550  43.937  32.368   2.515
70142W        W36551   3.338   7.852   4.293
70143W        W36552   3.574   0.327   2.970
70144W        W36553   3.721   0.230  12.048
70145W        W36554  29.555   6.614  13.411
70146W        W36555  12.814  22.726   4.140
70147W        W36556  14.886   3.699   3.166
70148W        W36557   0.565  16.151   3.360
70149W        W36558  44.955  13.896   2.945
70150W        W36559  21.642  31.365  14.216
70151W        W36560  40.019  32.551   4.649
70152W        W36561  19.758  32.970  14.546
70153W        W36562   0.018   3.039  13.440
70154W        W36563  13.298  22.454  11.180
70155W        W36564  31.070  29.926  11.687
70156W        W36565  15.636  33.632   2.410
70157W        W36566  33.776  34.041  13.464
70158W        W36567   5.610  18.625  11.408
70159W        W36568  17.270  12.353   1.754
70160W        W36569  43.554  14.275   4.153
70161W        W36570  19.616  25.172   2.440
70162W        W36571   6.907  20.183  13.906
70163W        W36572  44.537   6.281  11.881
70164W        W36573  25.558  34.034   0.929
70165W        W36574  13.808  32.718  14.028
70166W        W36575   6.083   8.684   3.659
70167W        W36576  39.553  40.290  11.119
70168W        W36577   6.391   0.103   3.192
70169W        W36578  26.109  27.498  12.412
70170W        W36579  19.096  27.660   3.804
70171W        W36580  29.415  18.003  12.791
70172W        W36581   8.929   4.309   0.552
70173W        W36582   7.599   3.241   2.330
70174W        W36583  35.324  23.975  13.855
70175W        W36584  32.934   5.835   0.069
70176W        W36585   0.417   2.658  13.398
70177W        W36586  38.839  15.325  11.628
70178W        W36587   7.573  35.512   9.919
70179W        W36588  12.708  44.522  13.032
70180W        W36589  22.432  26.879  13.593
70181W        W36590  28.101  26.549   4.602
70182W        W36591  24.209  20.730  10.415
70183W        W36592   7.053  23.624   3.817
70184W        W36593  14.725  34.860   0.813
70185W        W36594   0.044  24.902  10.736
70186W        W36595  34.407  21.107  10.519
70187W        W36596  35.520  23.756   0.062
70188W        W36597   1.910  19.321  14.471
70189W        W36598   5.674  20.165   3.693
70190W        W36599  21.412  42.066   5.067
70191W        W36600  34.336   5.230  14.309
70192W        W36601  25.296  15.131  10.996
70193W        W36602   3.711  20.134  14.554
70194W        W36603  28.825  27.837  12.337
70195W        W36604  36.036  32.645   1.746
70196W        W36605   2.990  23.038  13.429
70197W        W36606  13.076  43.419  11.957
70198W        W36607   6.682  21.084  14.971
70199W        W36608  20.214   6.187  11.120
70200W        W36609  10.248  41.758  13.897
70201W        W36610  25.463  37.612  12.930
70202W        W36611   4.818  10.653   3.125
70203W        W36612   8.834   9.148  11.928
70204W        W36613  16.399  31.826   4.139
70205W        W36614  16.989  15.072  10.289
70206W        W36615   8.136  27.970   3.036
70207W        W36616  29.221  16.108  13.989
70208W        W36617  30.668  35.250  14.759
70209W        W36618  21.728  39.226  12.937
70210W        W36619  35.391  35.942   1.399
70211W        W36620  35.034   6.249  13.976
70212W        W36621  33.686  23.477   4.742
70213W        W36622   6.985  23.762   2.437
70214W        W36623   9.655   1.414   0.674
70215W        W36624  43.809  36.522  10.992
70216W        W36625   1.836  13.721   4.197
70217W        W36626  39.369   8.264   0.927
70218W        W36627  27.639   6.955  11.049
70219W        W36628   8.235   8.763  14.995
70220W        W36629  38.826  31.510   2.385
70221W        W36630  10.964  12.145  12.040
70222W        W36631  36.356   1.765  12.012
70223W        W36632   3.856  20.245  10.494
70224W        W36633  30.039  14.787  11.511
70225W        W36634  13.390  38.622  10.375
70226W        W36635  44.796   0.826   1.684
70227W        W36636  41.966  16.301  11.644
70228W        W36637  26.134  14.060  14.849
70229W        W36638  11.660  30.599   2.889
70230W        W36639  33.898  22.577  11.075
70231W        W36640   3.197  41.342  13.517
70232W        W36641  10.685  31.369   4.185
70233W        W36642  10.307  30.073   1.781
70234W        W36643  18.615  33.973   0.422
70235W        W36644  26.168   8.109   1.596
70236W        W36645  29.015   9.243   2.663
70237W        W36646   3.334   3.799   0.797
70238W        W36647   2.047  10.115   4.120
70239W        W36648  35.454  26.473   3.755
70240W        W36649  16.388  15.381  12.078
70241W        W36650  26.966   3.767  12.130
70242W        W36651  43.150  15.858   0.485
70243W        W36652   1.175   3.664   0.319
70244W        W36653  32.469  26.087  11.714
70245W        W36654  36.026  40.348   0.653
70246W        W36655  40.299   5.633  11.540
70247W        W36656  13.849  20.530   3.132
70248W        W36657  35.541  19.367   1.041
70249W        W36658   1.055  10.327   4.181
70250W        W36659  36.522  31.597  14.339
70251W        W36660  37.598  35.993  13.870
70252W        W36661  12.457  38.691   1.955
70253W        W36662   9.959  17.625  11.485
70254W        W36663  18.136  10.656  13.036
70255W        W36664  44.395  13.058   1.726
70256W        W36665  22.202  30.157  14.028
70257W        W36666   5.975   2.169  13.428
70258W        W36667  19.481  39.914  10.768
70259W        W36668  11.826  14.406   1.410
70260W        W36669   4.878  32.793   4.596
70261W        W36670  24.666  21.344  10.081
70262W        W36671  19.013  38.026   0.549
70263W        W36672  14.564  17.622   1.910
70264W        W36673  38.607  13.777  12.996
70265W        W36674  40.321  27.683  13.523
70266W        W36675  34.064  41.233  12.015
70267W        W36676  10.863  20.815   3.857
70268W        W36677  37.010   0.916   1.413
70269W        W36678  17.824  26.507   3.402
70270W        W36679   0.983  20.681   0.230
70271W        W36680   8.618  36.170  13.479
70272W        W36681  29.551   0.478   0.456
70273W        W36682  13.803   3.668  12.434
70274W        W36683   0.877  41.307  13.501
70275W        W36684   1.416  10.869  13.763
70276W        W36685  13.212   9.503  11.174
70277W        W36686  32.290  20.940   2.234
70278W        W36687  44.206  13.802   3.695
70279W        W36688  33.422  13.442   4.118
70280W        W36689  15.151  24.533  13.129
70281W        W36690  16.859  12.613   2.877
70282W        W36691  36.478  19.543   0.694
70283W        W36692  32.469   4.278   4.151
70284W        W36693  10.817  20.634  13.044
70285W        W36694  31.129  25.753   2.761
70286W        W36695   7.383  23.588   1.305
70287W        W36696  20.844  42.324  14.259
70288W        W36697  32.666  32.391   0.691
70289W        W36698  18.591   4.774   2.219
70290W        W36699  13.942  27.633  12.042
70291W        W36700  40.702   8.693   9.806
70292W        W36701   2.888   1.782   4.670
70293W        W36702  22.435   3.709  13.934
70294W        W36703  12.904   6.687   0.344
70295W        W36704  31.836  37.139   1.158
70296W        W36705  12.332  19.273  12.511
70297W        W36706  19.331  19.860  14.570
70298W        W36707   7.615  14.585   3.319
70299W        W36708  28.700  28.433  12.870
70300W        W36709  25.434  37.050   1.747
70301W        W36710  34.165  38.553   0.276
70302W        W36711  39.336   7.582   2.073
70303W        W36712  26.827  26.733  12.697
70304W        W36713  25.654  35.715  12.658
70305W        W36714  24.753  31.967   1.912
70306W        W36715  35.091  10.684  14.997
70307W        W36716   3.106  27.099   2.077
70308W        W36717  12.599  35.574   3.137
70309W        W36718  41.403  29.017   2.764
70310W        W36719   7.973   0.762   1.378
70311W        W36720  43.149  18.585  11.560
70312W        W36721   5.964  11.337   1.416
70313W        W36722  20.798  26.899  13.529
70314W        W36723  23.358  44.515  14.324
70315W        W36724   9.142  39.602   3.784
70316W        W36725   7.231   0.420   4.803
70317W        W36726  11.854   3.009  13.805
70318W        W36727  37.555  15.360   4.649
70319W        W36728   9.330   7.665  13.973
70320W        W36729  26.046  24.030   3.008
70321W        W36730   5.517  26.072   4.174
70322W        W36731  23.082  26.306   2.449
70323W        W36732  44.305   8.684   5.430
70324W        W36733  41.935  17.160  14.903
70325W        W36734   4.591   3.225  10.198
70326W        W36735  18.067  39.223   2.068
70327W        W36736   0.486  28.024   2.833
70328W        W36737  33.528  10.258  12.840
70329W        W36738  43.241  21.828  10.928
70330W        W36739  35.945  19.313  14.235
70331W        W36740   4.245  20.476   2.268
70332W        W36741   6.306  41.024  11.132
70333W        W36742  30.498  37.007   0.766
70334W        W36743  39.975  25.014   0.567
70335W        W36744  33.063  44.907   3.141
70336W        W36745  32.467  44.599   0.313
70337W        W36746  32.901  35.010   2.887
70338W        W36747  16.885   9.399   0.939
70339W        W36748  27.166  23.988  12.445
70340W        W36749   3.500  36.077   4.276
70341W        W36750   6.319   2.661  10.601
70342W        W36751  23.389  38.859  13.988
70343W        W36752  38.535  14.248   1.216
70344W        W36753  27.436  14.208  11.976
70345W        W36754   8.424   9.456   1.639
70346W        W36755  16.478   3.325   4.661
70347W        W36756  41.536  17.310  10.337
70348W        W36757  38.894  18.673   5.625
70349W        W36758  39.681  21.346   3.637
70350W        W36759  40.059  11.691  14.343
70351W        W36760  42.953  20.700  12.604
70352W        W36761   3.900  25.600  12.803
70353W        W36762  29.200  27.154   3.287
70354W        W36763  35.979   3.946  12.347
70355W        W36764  20.012   5.792   2.357
70356W        W36765   5.891  34.033   4.037
70357W        W36766  22.143  17.260  14.753
70358W        W36767   2.952   7.294  11.738
70359W        W36768  28.695   3.963   0.995
70360W        W36769  32.914  25.143  11.346
70361W        W36770  23.079   7.815   1.614
70362W        W36771   5.792  40.452   3.429
70363W        W36772  31.421  36.966   2.703
70364W        W36773  41.167   9.314   3.781
70365W        W36774  17.818  16.652   2.707
70366W        W36775  16.709  42.706  13.937
70367W        W36776  18.323  43.556  13.569
70368W        W36777   1.734  18.230  12.439
70369W        W36778  32.810  33.961   2.500
70370W        W36779  17.298  39.031  13.997
70371W        W36780  44.334   6.749   3.754
70372W        W36781  31.295  21.921   4.604
70373W        W36782  16.721   6.223   2.419
70374W        W36783  37.468  43.786  14.862
70375W        W36784  30.724  15.062  14.328
70376W        W36785  27.096  41.749   5.113
70377W        W36786  27.968  30.040  12.553
70378W        W36787  30.895  41.978  14.284
70379W        W36788  10.390  20.192   0.554
70380W        W36789  16.640  43.460   2.281
70381W        W36790  21.416   0.157  14.412
70382W        W36791  32.034  26.990  11.649
70383W        W36792  44.025  25.428  12.969
70384W        W36793  42.346  13.968   4.871
70385W        W36794  11.138   5.852   1.428
70386W        W36795  10.834  42.012  12.040
70387W        W36796  27.169  13.353   4.676
70388W        W36797  26.111  34.444   0.298
70389W        W36798   5.498  31.441  13.414
70390W        W36799   8.417  16.139   3.481
70391W        W36800  23.545  37.608   4.516
70392W        W36801  20.244  27.564  12.967
70393W        W36802  11.154  23.149   4.280
70394W        W36803   2.424  28.557  13.404
70395W        W36804  25.522  10.711   4.609
70396W        W36805  40.322  40.780   1.374
70397W        W36806   6.795  16.047  12.691
70398W        W36807  34.667  25.898   3.507
70399W        W36808  19.425   0.919  12.956
70400W        W36809  11.384  19.291  14.715
70401W        W36810  14.416   6.700  13.604
70402W        W36811   2.249  36.899  12.141
70403W        W36812  35.562  26.004  13.878
70404W        W36813  14.722  24.579   1.260
70405W        W36814  14.006  24.185   1.235
70406W        W36815   7.152  38.393  14.968
70407W        W36816  21.507   5.766   3.277
70408W        W36817  22.646  40.540  14.021
70409W        W36818  40.530  42.522   3.723
70410W        W36819   7.842  19.429   3.848
70411W        W36820  39.140  32.052  13.941
70412W        W36821  36.319   9.203   1.239
70413W        W36822  34.698  29.768  12.424
70414W        W36823  44.875  37.983   1.764
70415W        W36824  36.943  28.200  12.972
70416W        W36825   7.508   0.584  12.624
70417W        W36826   2.748  12.415  13.333
70418W        W36827  16.538   7.795  13.601
70419W        W36828  11.853  19.980   2.809
70420W        W36829  13.238  21.251  12.092
70421W        W36830  10.261  38.809   0.855
70422W        W36831   5.549  18.409  11.880
70423W        W36832  33.272  44.375  11.052
70424W        W36833  41.395  17.766   1.784
70425W        W36834  28.787  19.657  13.380
70426W        W36835   6.278   3.954   2.039
70427W        W36836  39.761  33.718  11.965
70428W        W36837  32.961  34.959  13.966
70429W        W36838  18.730  10.108  14.443
70430W        W36839  18.492  31.057   2.548
70431W        W36840   8.355   7.159  14.799
70432W        W36841   9.167  25.007   3.625
70433W        W36842  28.863  26.578  11.735
70434W        W36843  30.469  14.452  11.410
70435W        W36844   4.653  26.059   3.638
70436W        W36845  11.226  36.968   4.991
70437W        W36846  17.275   1.071  14.714
70438W        W36847  41.797   1.488  11.151
70439W        W36848  23.319  40.065  12.137
70440W        W36849   6.140  33.708   5.004
70441W        W36850  11.126  29.060  10.759
70442W        W36851  29.554  34.079   2.401
70443W        W36852  44.601  39.769   3.561
70444W        W36853  36.974  40.300  11.695
70445W        W36854  42.593  23.002  14.673
70446W        W36855  34.574   2.467  11.521
70447W        W36856  17.995  37.146  13.471
70448W        W36857  18.816  37.851  10.600
70449W        W36858  42.922  37.090   0.446
70450W        W36859  38.563  34.406   0.858
70451W        W36860  31.925  37.755   0.411
70452W        W36861  40.895  31.212  12.871
70453W        W36862  42.707  40.313  12.356
70454W        W36863  21.198  40.813   4.611
70455W        W36864   9.820  24.631   3.314
70456W        W36865  36.414   5.862   2.830
70457W        W36866  33.023  22.819  12.095
70458W        W36867   3.317  14.617   1.297
70459W        W36868  17.043   3.231  11.089
70460W        W36869  13.168   2.485   0.875
70461W        W36870  35.556  10.580   2.844
70462W        W36871  38.734  23.386  11.282
70463W        W36872   5.529  44.707   1.194
70464W        W36873  10.190  16.029   1.954
70465W        W36874  21.091  12.032  14.919
70466W        W36875  41.674  10.970   5.006
70467W        W36876   4.488  17.583  12.476
70468W        W36877  44.969   3.719  12.968
70469W        W36878  32.141  15.337   1.786
70470W        W36879  19.080  14.126   0.899
70471W        W36880   5.890  27.763   2.552
70472W        W36881   5.743  20.073   4.712
70473W        W36882  39.393   5.160   0.468
70474W        W36883  27.571   9.857   0.984
70475W        W36884   8.486  22.788  12.955
70476W        W36885  16.582  31.659  13.815
70477W        W36886  10.129  43.461   3.692
70478W        W36887  12.583  31.483   4.579
70479W        W36888   6.925  37.853   3.582
70480W        W36889  15.131  19.987   4.425
70481W        W36890  21.632  28.624   2.183
70482W        W36891   1.406  43.187  13.164
70483W        W36892  20.703  10.905   3.435
70484W        W36893  38.602  40.404  13.335
70485W        W36894   3.267   1.232  10.752
70486W        W36895  40.857  23.107  12.485
70487W        W36896  12.717  19.139   1.192
70488W        W36897  27.078  41.033  11.959
70489W        W36898   1.532  34.514   1.740
70490W        W36899   1.987   7.244   1.945
70491W        W36900   7.916  44.896   0.075
70492W        W36901   3.661  27.175  11.273
70493W        W36902  19.535  13.437  13.409
70494W        W36903  19.529   0.404  11.162
70495W        W36904  22.663  16.655   3.705
70496W        W36905  11.636   2.111  13.315
70497W        W36906  37.326  31.819   3.216
70498W        W36907  18.734  39.822   4.564
70499W        W36908  31.102  41.448   3.250
70500W        W36909  18.307   7.235   3.409
70501W        W36910  11.608   8.854   4.543
70502W        W36911  20.133  29.222   4.989
70503W        W36912  42.875  40.844   1.792
70504W        W36913  26.250   3.221   3.808
70505W        W36914  44.558  29.513   0.437
70506W        W36915   2.294  19.719  12.563
70507W        W36916  34.383  26.566  11.983
70508W        W36917  21.360   9.116  12.426
70509W        W36918  16.920   1.246  12.064
70510W        W36919  22.764  33.086   2.516
70511W        W36920  33.801  35.886   1.693
70512W        W36921  30.857   2.228   2.334
70513W        W36922  41.742  12.748   3.341
70514W        W36923  13.364  14.683  10.801
70515W        W36924  39.517  20.057  14.263
70516W        W36925  20.749  42.396  12.398
70517W        W36926  25.700  22.513   0.769
70518W        W36927   3.213  29.689   3.195
70519W        W36928  23.209  10.416  14.102
70520W        W36929  41.298   0.973  10.484
70521W        W36930  37.534  38.081   4.044
70522W        W36931  14.482  17.714  11.492
70523W        W36932  17.599  22.120   2.122
70524W        W36933  10.625  21.233   2.543
70525W        W36934  27.072  40.544  11.973
70526W        W36935  26.032  33.399  10.731
70527W        W36936   4.280  22.817   2.898
70528W        W36937  38.369  27.097  13.379
70529W        W36938  29.647   3.330  13.106
70530W        W36939  32.772   3.604   5.024
70531W        W36940  38.647  12.559   3.846
70532W        W36941  40.951   3.968   1.715
70533W        W36942  20.701  19.085   1.406
70534W        W36943  41.204  35.059   2.417
70535W        W36944  30.251   8.922   4.187
70536W        W36945  40.915  35.242  11.364
70537W        W36946  41.215   4.325  12.466
70538W        W36947   1.955  33.904   2.791
70539W        W36948  21.948  27.064   1.843
70540W        W36949  10.156   4.930  11.940
70541W        W36950   2.233   7.387   3.621
70542W        W36951  29.584  28.076   1.723
70543W        W36952   8.397  10.324   0.719
70544W        W36953  14.188   4.896   2.438
70545W        W36954   7.077  33.588   0.061
70546W        W36955  33.529  27.147   2.243
70547W        W36956   2.117  15.791   2.339
70548W        W36957   9.305   0.488   3.576
70549W        W36958  36.481   9.340   3.342
70550W        W36959  43.173  22.227   0.356
70551W        W36960  36.189  29.537   4.788
70552W        W36961  14.075   9.331  14.905
70553W        W36962  28.996  40.029   1.421
70554W        W36963  37.771  38.051  11.667
70555W        W36964  41.374   3.896  13.112
70556W        W36965  15.269  29.533  12.044
70557W        W36966  35.769  17.454  14.372
70558W        W36967  28.547   5.248  12.019
70559W        W36968   1.575  42.510  12.509
70560W        W36969  17.711  41.444   0.352
70561W        W36970  21.710   9.344   3.911
70562W        W36971   7.904   0.519  12.978
70563W        W36972  25.148  38.359  13.376
70564W        W36973   6.813  33.931  11.649
70565W        W36974  19.006  44.534   0.003
70566W        W36975  16.230  40.662   4.361
70567W        W36976   5.470  28.589  14.883
70568W        W36977  30.130  28.957  14.026
70569W        W36978  37.075  14.839  12.461
70570W        W36979   5.568  25.679  14.807
70571W        W36980  21.496   9.202  11.274
70572W        W36981  42.917   9.730   3.212
70573W        W36982  20.549  42.526   3.355
70574W        W36983  20.649  22.626   1.901
70575W        W36984  41.520  26.013   4.165
70576W        W36985  43.239  43.554  14.880
70577W        W36986  44.559  43.990   0.874
70578W        W36987  31.905  15.831   1.720
70579W        W36988  27.940  44.329  11.454
70580W        W36989   3.364  16.585   2.991
70581W        W36990  40.708  19.494  13.912
70582W        W36991  20.713  33.462   1.984
70583W        W36992  21.321  12.211  10.996
70584W        W36993  39.999  41.289   2.873
70585W        W36994  25.255  21.094   3.119
70586W        W36995  33.363  40.406  11.423
70587W        W36996  31.142   6.608   4.119
70588W        W36997  21.544   2.931   0.327
70589W        W36998  28.005   1.234   3.826
70590W        W36999  13.739   5.400  11.645
70591W        W37000  15.375  10.157  13.933
70592W        W37001  40.487  17.256   1.433
70593W        W37002  16.335  11.786   3.201
70594W        W37003  28.600  31.952  12.824
70595W        W37004   5.520  39.778   4.100
70596W        W37005  10.694  19.247  12.023
70597W        W37006  37.900   3.729   4.075
70598W        W37007  29.390  42.819   0.470
70599W        W37008  24.262  14.879  11.619
70600W        W37009   8.426  18.305  13.027
70601W        W37010  17.772  29.181   2.806
70602W        W37011  20.797  44.908  10.589
70603W        W37012  15.729   3.467   1.385
70604W        W37013  22.893  17.662  10.796
70605W        W37014   0.096  10.313  10.224
70606W        W37015  32.621  18.272  11.433
70607W        W37016  29.588  12.477  13.913
70608W        W37017   0.504   2.132   1.302
70609W        W37018  18.339  31.613  13.470
70610W        W37019  42.256  24.277  14.916
70611W        W37020  14.595  37.036   2.332
70612W        W37021  38.793  28.380   0.460
70613W        W37022  18.156  34.223   1.921
70614W        W37023  24.457  34.954   1.010
70615W        W37024  19.595  34.487   0.120
70616W        W37025  22.026  43.558  13.133
70617W        W37026   5.381   3.149   4.934
70618W        W37027   7.164  11.559   2.798
70619W        W37028  24.280  37.321   9.993
70620W        W37029  38.784  32.051  13.541
70621W        W37030  25.950   7.692   3.751
70622W        W37031  11.201   0.340   3.113
70623W        W37032  18.715  42.348  13.872
70624W        W37033  14.412  38.417  14.384
70625W        W37034   8.742  33.525  14.270
70626W        W37035  39.065   1.765  12.978
70627W        W37036  27.366  19.491   3.105
70628W        W37037   1.161  31.652   1.422
70629W        W37038  25.144  31.915   0.821
70630W        W37039  39.287   3.163   1.340
70631W        W37040  41.013   8.283  12.567
70632W        W37041   3.348   9.139   4.506
70633W        W37042  44.993  25.600   2.392
70634W        W37043  18.546  26.445  10.781
70635W        W37044  17.184   2.161  13.978
70636W        W37045  40.085  21.042  14.856
70637W        W37046  12.963   8.771   1.504
70638W        W37047  12.159  32.133   1.245
70639W        W37048   0.510   2.675  14.272
70640W        W37049   1.765  42.798  12.927
70641W        W37050  44.983  42.070  12.916
70642W        W37051  31.164  42.190  14.677
70643W        W37052   3.834   4.869  12.606
70644W        W37053  34.712  21.386  12.458
70645W        W37054  22.700  42.384   3.917
70646W        W37055  15.323   1.957  14.523
70647W        W37056  15.792  24.215   0.772
70648W        W37057   0.506  19.204  10.755
70649W        W37058  44.985  33.065  14.808
70650W        W37059  29.036   4.743   4.549
70651W        W37060  25.694  21.620  14.857
70652W        W37061  12.783   2.409   4.232
70653W        W37062  30.603  20.991   0.371
70654W        W37063  32.655  31.244  14.967
70655W        W37064  41.329  39.600  11.528
70656W        W37065  27.463   7.308  12.815
70657W        W37066   3.474   2.449   3.274
70658W        W37067  26.097  39.812   1.727
70659W        W37068  40.323  43.263   0.515
70660W        W37069  29.890  35.382  14.541
70661W        W37070  11.799  28.987   4.960
70662W        W37071  15.319  24.979  13.347
70663W        W37072  29.205  44.037  11.452
70664W        W37073  23.932  12.933   4.126
70665W        W37074  36.314  22.281   3.543
70666W        W37075  32.815   2.486  12.857
70667W        W37076   0.886   3.361   2.856
70668W        W37077  39.523  25.587  14.476
70669W        W37078   2.987   6.958   4.398
70670W        W37079  40.216  44.977  10.819
70671W        W37080  44.789   5.677   2.086
70672W        W37081  32.220  34.394  13.916
70673W        W37082  34.561   1.592   3.720
70674W        W37083  20.157  22.065  12.437
70675W        W37084  12.831  44.312  14.050
70676W        W37085  37.507  24.834   2.331
70677W        W37086  16.967  31.080   3.366
70678W        W37087  31.430  27.715  12.816
70679W        W37088  28.668  10.027   1.804
70680W        W37089  26.524   1.787  12.380
70681W        W37090   5.573  11.764   0.857
70682W        W37091  33.958   0.431  13.343
70683W        W37092   8.059  33.531   0.468
70684W        W37093   6.278  22.142   1.158
70685W        W37094  39.399  32.017   0.406
70686W        W37095  42.244   2.652   3.771
70687W        W37096  35.835  12.982   2.841
70688W        W37097   2.335  28.229  11.702
70689W        W37098   3.118  28.886   2.767
70690W        W37099   0.352  13.548   2.944
70691W        W37100  37.920  26.237  10.497
70692W        W37101  30.566  15.372   2.713
70693W        W37102   1.933  18.125   1.827
70694W        W37103  18.270  13.660  11.189
70695W        W37104  35.965  32.715   2.646
70696W        W37105   0.336  44.531   2.156
70697W        W37106  31.316  32.274   9.935
70698W        W37107  21.098  30.570  10.844
70699W        W37108  29.257  43.317  14.699
70700W        W37109   5.720  16.045  12.537
70701W        W37110  26.509  33.538  10.857
70702W        W37111  32.055  40.257  11.639
70703W        W37112  13.721  33.796   3.811
70704W        W37113  39.503   4.109  14.918
70705W        W37114  23.587   4.019  10.433
70706W        W37115  13.404  39.959   2.277
70707W        W37116   9.892  36.509  14.354
70708W        W37117   7.968  26.713   3.701
70709W        W37118  27.004  14.751  14.452
70710W        W37119  17.065  15.071  13.562
70711W        W37120   6.371  10.845   3.097
70712W        W37121  13.671   6.152   0.742
70713W        W37122   5.805  22.628   9.730
70714W        W37123  11.149  24.944   4.516
70715W        W37124   9.845  32.228   2.299
70716W        W37125   1.560  36.061   2.194
70717W        W37126  15.344  10.806  14.380
70718W        W37127  33.771  37.009   0.797
70719W        W37128  25.471  17.496   2.657
70720W        W37129  16.847  42.226  10.960
70721W        W37130  30.477  36.120   4.581
70722W        W37131   5.459   0.178   0.406
70723W        W37132  12.522  44.202   0.746
70724W        W37133  31.523  38.807   3.181
70725W        W37134  42.420  38.087   3.360
70726W        W37135   4.891  16.095   4.618
70727W        W37136  25.609  25.576   0.192
70728W        W37137  13.956  28.410   1.123
70729W        W37138  22.452  42.552  10.792
70730W        W37139  34.936  14.338  12.489
70731W        W37140  25.913   4.442   0.250
70732W        W37141  24.758  28.640  14.485
70733W        W37142  16.858  11.624  12.507
70734W        W37143  19.293   2.290   5.094
70735W        W37144  28.796   8.185  12.400
70736W        W37145  42.943  18.114  12.412
70737W        W37146  27.182  21.293   3.238
70738W        W37147  16.518  12.644   0.196
70739W        W37148  28.208  34.112   1.037
70740W        W37149  44.249  36.322  11.171
70741W        W37150  14.084  16.554  13.621
70742W        W37151  14.651   4.449   4.104
70743W        W37152  15.146  24.852  14.139
70744W        W37153  11.031  16.611   3.650
70745W        W37154   4.162  41.821  12.963
70746W        W37155  34.264  25.259  12.395
70747W        W37156   6.321   7.887  14.330
70748W        W37157   4.748  11.748   2.636
70749W        W37158  43.385  25.367  11.281
70750W        W37159  35.762   6.676  11.121
70751W        W37160  13.398  27.634  12.022
70752W        W37161  34.047  29.446   2.261
70753W        W37162   5.487  10.228   2.000
70754W        W37163  23.696  34.268   3.281
70755W        W37164   7.978  19.640   0.749
70756W        W37165  33.443   2.982  12.141
70757W        W37166  24.651  14.839   0.600
70758W        W37167  21.126  15.968  13.577
70759W        W37168  44.498  14.563  10.803
70760W        W37169  32.327  27.591  12.173
70761W        W37170  25.075  38.408  14.051
70762W        W37171   5.166  36.432  12.814
70763W        W37172  13.356   9.675  12.067
70764W        W37173  43.412   3.776  13.577
70765W        W37174  39.027  17.597   5.060
70766W        W37175  40.717   9.304   4.044
70767W        W37176  17.680  40.071   2.290
70768W        W37177  32.503  23.797   0.474
70769W        W37178  34.896  10.716   1.478
70770W        W37179  29.252  18.347   4.306
70771W        W37180  38.662  30.761   1.163
70772W        W37181  34.910  19.799   4.546
70773W        W37182  15.796  15.851  11.147
70774W        W37183  31.951  29.231   4.800
70775W        W37184  36.887  14.836  13.428
70776W        W37185  13.596  36.988  11.513
70777W        W37186  24.010  34.742  11.270
70778W        W37187   4.073  13.689   3.454
70779W        W37188  16.582  15.323  12.548
70780W        W37189   0.256   1.324   2.406
70781W        W37190   3.202  27.937   4.175
70782W        W37191  33.525  33.458   5.077
70783W        W37192  30.683  39.186   1.781
70784W        W37193   2.414  16.070   3.283
70785W        W37194   1.364  42.601  14.525
70786W        W37195   9.452   4.986  13.025
70787W        W37196   5.512  21.917   5.630
70788W        W37197  27.194  28.722  14.691
70789W        W37198  23.527  26.436   3.652
70790W        W37199  16.531  17.239  13.832
70791W        W37200  31.683  13.549  11.629
70792W        W37201  14.714  30.620   2.776
70793W        W37202   9.146  43.339   0.323
70794W        W37203   5.160  43.567  13.821
70795W        W37204  12.780  32.446  12.174
70796W        W37205  38.840  34.842   2.213
70797W        W37206   0.750  10.162  12.706
70798W        W37207   4.671  28.759  14.439
70799W        W37208   3.869  38.624   3.838
70800W        W37209  38.846  20.321   1.061
70801W        W37210  41.572  42.026  11.872
70802W        W37211   2.672  39.780   4.146
70803W        W37212  22.818  18.135  10.558
70804W        W37213  24.106   9.580  10.035
70805W        W37214  32.176  28.181   0.791
70806W        W37215  24.026  13.864   2.482
70807W        W37216  25.750  24.888   1.882
70808W        W37217  23.438  42.445   3.418
70809W        W37218  27.138  15.433   1.943
70810W        W37219  11.436   1.824   0.957
70811W        W37220  13.285  21.515   0.005
70812W        W37221  14.049  13.259   4.673
70813W        W37222  10.974   5.139   2.656
70814W        W37223  31.981  28.029   1.944
70815W        W37224  42.228   3.440  11.645
70816W        W37225  32.943  30.487   4.845
70817W        W37226  12.309  43.423  13.924
70818W        W37227   2.615  41.041   2.175
70819W        W37228   3.970  27.727  14.449
70820W        W37229  36.591  37.010   4.294
70821W        W37230  16.261  36.101   1.877
70822W        W37231  28.001  23.314   0.439
70823W        W37232  37.562  27.292   3.267
70824W        W37233  23.989  14.245   1.717
70825W        W37234   0.775  39.470   1.555
70826W        W37235   3.204  14.424  11.866
70827W        W37236  40.206   5.265   3.609
70828W        W37237  26.550  41.418   3.198
70829W        W37238  42.044   2.438  14.340
70830W        W37239  26.078  12.537  14.894
70831W        W37240   6.030   9.914  10.303
70832W        W37241  23.980  44.239   3.369
70833W        W37242  33.983  18.535   2.679
70834W        W37243   0.720  15.030   1.738
70835W        W37244  32.422  29.230   1.864
70836W        W37245  38.858  43.391   0.703
70837W        W37246  13.480  10.824   1.732
70838W        W37247  26.666  39.374   4.191
70839W        W37248  35.467   6.543   2.219
70840W        W37249  35.805  15.589   4.512
70841W        W37250  15.141  21.247  11.189
70842W        W37251  25.792  25.734  10.973
70843W        W37252  24.186  35.556   3.180
70844W        W37253  32.451  43.764   1.787
70845W        W37254  22.973  39.013   4.856
70846W        W37255  38.813  40.386   1.399
70847W        W37256   9.817  28.480   3.967
70848W        W37257  26.720  35.020   0.563
70849W        W37258  31.322  29.134   4.286
70850W        W37259   6.440  37.370   0.113
70851W        W37260   9.434   2.719   3.330
70852W        W37261  13.647  10.291   0.217
70853W        W37262  35.358  43.813   2.704
70854W        W37263  33.575  35.337   3.936
70855W        W37264   0.457  37.079  14.025
70856W        W37265   4.655  39.524   0.483
70857W        W37266   2.934   7.293  14.965
70858W        W37267  18.025  37.022   2.691
70859W        W37268  18.684  14.885  10.563
70860W        W37269   3.227  29.533   4.476
70861W        W37270   3.835   7.124  14.060
70862W        W37271  13.590  35.038  12.957
70863W        W37272  36.516  36.341   4.474
70864W        W37273  26.269  21.973   2.649
70865W        W37274   5.949  36.667  10.973
70866W        W37275  37.534  22.519  14.001
70867W        W37276   7.772   1.765  12.181
70868W        W37277  18.775  27.615   2.902
70869W        W37278  44.629  27.665   0.280
70870W        W37279  31.559  33.584   1.273
70871W        W37280   2.495  19.658   4.511
70872W        W37281  31.925  22.649   1.856
70873W        W37282  42.728   6.498  14.032
70874W        W37283  30.154  22.623  13.334
70875W        W37284  26.638  12.145  10.637
70876W        W37285   3.216  32.053  12.135
70877W        W37286  14.738  17.740  11.029
70878W        W37287  33.845  30.208   4.387
70879W        W37288  36.896  31.623   4.346
70880W        W37289  29.954  30.202  14.982
70881W        W37290  22.844  30.102  13.366
70882W        W37291  40.986   7.632  13.762
70883W        W37292  32.470  41.855  14.429
70884W        W37293   7.827  13.255   1.381
70885W        W37294  37.434   4.743   3.620
70886W        W37295  37.800   6.032  10.374
70887W        W37296  32.904  43.485   0.910
70888W        W37297  35.490  28.685   4.273
70889W        W37298  14.552   5.410  13.953
70890W        W37299  21.302  44.842   4.506
70891W        W37300  22.310  18.234   4.233
70892W        W37301  26.576  25.754  12.612
70893W        W37302   0.841   1.765   3.338
70894W        W37303  11.229  38.132   0.278
70895W        W37304  29.906  20.474  11.285
70896W        W37305   9.787  30.210   1.771
70897W        W37306  22.718   9.904   3.232
70898W        W37307  24.531  43.186   1.805
70899W        W37308  43.701  43.052   0.396
70900W        W37309   2.253  32.098  11.800
70901W        W37310  28.160  16.245  10.919
70902W        W37311  43.658  30.942   3.552
70903W        W37312  16.175   0.682   1.163
70904W        W37313  33.136   3.765   0.833
70905W        W37314   7.629  31.728   4.457
70906W        W37315   6.762   9.450  12.451
70907W        W37316  38.040  13.677  13.264
70908W        W37317   9.869  23.883   0.061
70909W        W37318  13.168  17.671   3.609
70910W        W37319  19.220  42.088   1.165
70911W        W37320  13.259  11.774  10.813
70912W        W37321  10.713   4.729   2.812
70913W        W37322   4.409  14.360  11.343
70914W        W37323  39.882  16.891   2.332
70915W        W37324  20.709  43.955   2.122
70916W        W37325  31.384  23.499  12.986
70917W        W37326  42.979  36.257   2.185
70918W        W37327   4.770  38.950   2.269
70919W        W37328  23.726  34.570   2.823
70920W        W37329  18.250  36.099  12.110
70921W        W37330  10.911   9.815   2.773
70922W        W37331  40.429  11.260  14.253
70923W        W37332   4.893   1.343  11.636
70924W        W37333  29.793   8.090   4.953
70925W        W37334  17.825  21.639   4.290
70926W        W37335   9.394   4.417   0.348
70927W        W37336  29.082  28.489   1.444
70928W        W37337  15.101  20.280   1.320
70929W        W37338  24.950  33.991  14.936
70930W        W37339  10.223  29.065   1.283
70931W        W37340  30.998  41.467  14.288
70932W        W37341  21.194   2.128   0.150
70933W        W37342  34.597  15.849  14.205
70934W        W37343  27.514  32.144   2.241
70935W        W37344  28.514  27.703  14.923
70936W        W37345   5.232  41.784  12.570
70937W        W37346  31.145  20.362  13.462
70938W        W37347  30.438  15.309   4.755
70939W        W37348   5.606  41.454   0.760
70940W        W37349   2.009  10.939   3.753
70941W        W37350   2.838  17.625   4.081
70942W        W37351   9.325  30.487  11.707
70943W        W37352  35.047  14.162  14.923
70944W        W37353  42.978  44.951   3.194
70945W        W37354   7.808  39.270  13.046
70946W        W37355  21.354  28.489  12.338
70947W        W37356  27.853  34.434   2.767
70948W        W37357  20.047   5.441  13.028
70949W        W37358  41.865  31.217  12.910
70950W        W37359  31.207  14.871   0.852
70951W        W37360  21.735  34.915   3.711
70952W        W37361  39.508  34.016  14.978
70953W        W37362  11.058  36.049  12.605
70954W        W37363   9.667   9.642  14.339
70955W        W37364  43.543  26.546  10.479
70956W        W37365   9.625  34.479   5.053
70957W        W37366   8.460  14.626  11.201
70958W        W37367  43.559  13.314  12.899
70959W        W37368  37.870   9.501  14.826
70960W        W37369  13.318   6.728   2.175
70961W        W37370  14.577   6.652  10.299
70962W        W37371  31.052  26.910  14.782
70963W        W37372  25.348   9.385  10.069
70964W        W37373  23.617  38.909  11.542
70965W        W37374  25.585  18.756   2.322
70966W        W37375  30.471  20.442   1.195
70967W        W37376   4.306  29.888  14.781
70968W        W37377   1.448   4.160   4.129
70969W        W37378  13.762  26.344   3.947
70970W        W37379  24.996   7.924  10.614
70971W        W37380  29.838  32.670  11.732
70972W        W37381  31.630  39.775   2.333
70973W        W37382  27.453   8.937  13.057
70974W        W37383  17.140  18.034   4.557
70975W        W37384  33.925  13.186  14.799
70976W        W37385   0.943  44.903  13.355
70977W        W37386  40.196  34.719  13.996
70978W        W37387  14.599  10.186   0.184
70979W        W37388  23.005  36.300   2.336
70980W        W37389  40.833   7.684  13.284
70981W        W37390   0.000  32.530   3.065
70982W        W37391  43.696  18.740   3.057
70983W        W37392  25.964  13.093  12.923
70984W        W37393   2.316  21.089   0.468
70985W        W37394  27.697  23.072  12.515
70986W        W37395  39.074  12.227   0.922
70987W        W37396  30.548  43.497  13.078
70988W        W37397  40.254   0.949  14.884
70989W        W37398  14.749  15.475  11.482
70990W        W37399  43.550   1.888   0.384
70991W        W37400  23.041   9.344   0.820
70992W        W37401  10.897  37.091   0.988
70993W        W37402  24.197  33.498  14.802
70994W        W37403  34.965  20.286   3.073
70995W        W37404  35.867  17.281   4.028
70996W        W37405   3.803  22.532   0.471
70997W        W37406  35.131   7.242  10.776
70998W        W37407   9.593  15.049   1.122
70999W        W37408  17.691  28.570   4.186
71000W        W37409  18.759  28.983   2.843
71001W        W37410  15.183  16.688  11.042
71002W        W37411  10.747  30.585   3.798
71003W        W37412  30.633  30.134  13.811
71004W        W37413  19.562  10.462   2.076
71005W        W37414  37.613  24.089   1.013
71006W        W37415   7.085   3.445   1.362
71007W        W37416  42.970  24.015   3.055
71008W        W37417   0.393  39.715  10.661
71009W        W37418  21.084  30.650   2.161
71010W        W37419  32.088  18.168   2.189
71011W        W37420  40.703  34.264   0.435
71012W        W37421   6.979   9.053   2.821
71013W        W37422   7.230  36.989  14.353
71014W        W37423  17.724  36.325   3.861
71015W        W37424  44.435  39.035   2.574
71016W        W37425  21.427  38.358  11.933
71017W        W37426  26.476  11.202   1.378
71018W        W37427   7.777  41.515  14.327
71019W        W37428  10.917  13.836   3.254
71020W        W37429  19.036  33.253   3.213
71021W        W37430  31.923  15.164  12.561
71022W        W37431  23.244  21.456  10.660
71023W        W37432  32.075  25.919   0.918
71024W        W37433  28.298  15.278   3.281
71025W        W37434  28.187  15.841  14.957
71026W        W37435   4.572  37.145  14.486
71027W        W37436   3.459  14.859   1.776
71028W        W37437  29.402  20.357  11.095
71029W        W37438  43.558  20.269   2.419
71030W        W37439  37.535  13.690  13.428
71031W        W37440  34.038   9.142  11.810
71032W        W37441  20.636   9.875  10.677
71033W        W37442  40.355  41.867   1.458
71034W        W37443  15.372   7.572   3.670
71035W        W37444  23.645  23.514   2.259
71036W        W37445  16.781  32.094  10.287
71037W        W37446  15.174  37.067  10.560
71038W        W37447   5.197  38.287  14.859
71039W        W37448  11.829  39.903  10.801
71040W        W37449  25.674  17.529   3.686
71041W        W37450  37.859  38.361  10.709
71042W        W37451  32.903   0.857  10.327
71043W        W37452  11.427  27.978  13.027
71044W        W37453   1.430   8.743  12.621
71045W        W37454  16.096  26.691  11.964
71046W        W37455   1.154  38.545   3.316
71047W        W37456   6.642  17.687  14.477
71048W        W37457  44.409  19.746   1.074
71049W        W37458  15.543  44.701  11.129
71050W        W37459  28.405  11.382   2.866
71051W        W37460  30.004   6.800   0.434
71052W        W37461  35.604  41.082  11.202
71053W        W37462  11.601  41.052  13.065
71054W        W37463  42.921  34.966   3.165
71055W        W37464  17.816  32.518   2.102
71056W        W37465   1.305  36.612   4.349
71057W        W37466  15.366  23.661  13.398
71058W        W37467  29.966  22.319  12.955
71059W        W37468  39.856  20.020  12.045
71060W        W37469  14.836  31.682  11.525
71061W        W37470   5.762   7.968  12.701
71062W        W37471  13.328   9.189   3.166
71063W        W37472  43.348  15.097  14.426
71064W        W37473  11.126  44.675   1.750
71065W        W37474  18.767  43.856  13.390
71066W        W37475  35.902  32.869   0.779
71067W        W37476  15.212   7.061  13.288
71068W        W37477  31.755   5.605  11.983
71069W        W37478  18.128  12.189   4.183
71070W        W37479  42.646   4.678   4.576
71071W        W37480  29.431   1.306  14.193
71072W        W37481  32.086  11.779  13.832
71073W        W37482  14.085  10.820  14.854
71074W        W37483   6.258   3.389   0.256
71075W        W37484   9.144  16.299  13.657
71076W        W37485  14.366  10.693   2.273
71077W        W37486  39.826  37.988   3.168
71078W        W37487  39.824  28.329  14.344
71079W        W37488  38.602  37.995   1.283
71080W        W37489  18.651   6.481   3.057
71081W        W37490  41.071   2.307  11.428
71082W        W37491   6.190   1.609   1.342
71083W        W37492  21.150  33.432   4.684
71084W        W37493   2.253  20.636  14.283
71085W        W37494  39.786  17.754  11.640
71086W        W37495  36.369  33.857  14.251
71087W        W37496  35.569  10.717  10.778
71088W        W37497  23.781  37.747   1.481
71089W        W37498  26.555  26.691   2.833
71090W        W37499  27.641   0.568   4.778
71091W        W37500  19.625  43.304  13.943
71092W        W37501  38.990  21.706  13.146
71093W        W37502  18.542  10.878  12.810
71094W        W37503  18.150  36.661   1.011
71095W        W37504   9.536  14.092  11.100
71096W        W37505  14.686  44.477   4.539
71097W        W37506  24.595   9.036  12.459
71098W        W37507  18.980   6.679   2.177
71099W        W37508  37.608  38.586  11.136
71100W        W37509  11.648  34.075  10.797
71101W        W37510  19.127  14.051   4.653
71102W        W37511   0.101   7.519  14.369
71103W        W37512  33.450  41.018  12.541
71104W        W37513  36.618   2.694  13.438
71105W        W37514  17.874   2.236  11.080
71106W        W37515  11.163  32.503   2.834
71107W        W37516  25.795  12.287  10.752
71108W        W37517  27.760   9.400  10.687
71109W        W37518   1.040  34.998   2.342
71110W        W37519  37.595  37.945   2.792
71111W        W37520  31.619  13.309   1.666
71112W        W37521  26.609  15.306  14.503
71113W        W37522  23.613   7.675   3.785
71114W        W37523  40.067  30.211   0.911
71115W        W37524  25.653  14.850  14.890
71116W        W37525  44.239   5.754  12.069
71117W        W37526   0.795  23.924   2.800
71118W        W37527  35.056  15.779  14.449
71119W        W37528  16.073  15.342  12.471
71120W        W37529  32.986  27.240  13.072
71121W        W37530   7.004  30.080  14.131
71122W        W37531  29.629  41.282  12.955
71123W        W37532  35.132  40.439   2.856
71124W        W37533  28.099  44.821  14.491
71125W        W37534   4.923  11.336   2.902
71126W        W37535  13.232   7.212   4.063
71127W        W37536  27.803   6.872  12.893
71128W        W37537  33.058  43.432  12.440
71129W        W37538  27.974   3.694  11.986
71130W        W37539  26.105  10.736   0.852
71131W        W37540  40.238  16.138  14.374
71132W        W37541  22.121  15.544  10.717
71133W        W37542   9.979  27.668   1.881
71134W        W37543  12.184  27.641  10.985
71135W        W37544  17.533  28.033   1.381
71136W        W37545   3.675  15.324   1.934
71137W        W37546  23.641   6.046  12.011
71138W        W37547  14.201  22.486   2.123
71139W        W37548  22.152  44.440   1.920
71140W        W37549   4.914  41.141  12.093
71141W        W37550  40.571  30.877  13.120
71142W        W37551  37.890   5.659  11.245
71143W        W37552  23.283   3.933   0.564
71144W        W37553   9.618  22.390   1.650
71145W        W37554  18.751  12.802  13.963
71146W        W37555  21.828  38.988   4.099
71147W        W37556   8.453  16.630  10.748
71148W        W37557  33.383  14.522  10.749
71149W        W37558  35.144  19.026   0.836
71150W        W37559   9.405   3.759   4.084
71151W        W37560  17.543  30.385  11.486
71152W        W37561  17.075  34.165   0.273
71153W        W37562  11.651  32.333   4.310
71154W        W37563  30.203  21.249  13.162
71155W        W37564  20.589   2.236  11.109
71156W        W37565  19.577  34.952  11.455
71157W        W37566  10.653  24.599  10.732
71158W        W37567   2.952  10.461   3.629
71159W        W37568  27.596  37.374  13.869
71160W        W37569  36.074  14.830  14.369
71161W        W37570   9.226  30.037   2.395
71162W        W37571  44.069  38.879  14.464
71163W        W37572   0.662   9.837  13.610
71164W        W37573  42.758   9.112  14.949
71165W        W37574  30.955  18.323  14.385
71166W        W37575  20.587  11.066  14.210
71167W        W37576  15.198  20.417   5.057
71168W        W37577  44.583  42.459   2.777
71169W        W37578  31.693  20.222  14.906
71170W        W37579  25.625  31.153  13.660
71171W        W37580  11.325  21.970   4.356
71172W        W37581  12.551  38.630   0.917
71173W        W37582  29.956   5.426   0.459
71174W        W37583  31.880  32.845   1.672
71175W        W37584  40.960   0.816  13.871
71176W        W37585  10.130  21.213   4.509
71177W        W37586   4.324  41.073   0.077
71178W        W37587   2.697  43.402  14.387
71179W        W37588  42.822  37.333   2.420
71180W        W37589  15.263  33.908  12.414
71181W        W37590  12.154  43.756   5.409
71182W        W37591   0.783  34.527  10.017
71183W        W37592  32.104  34.580   2.789
71184W        W37593   9.729  44.451  14.593
71185W        W37594  35.602  42.380   4.830
71186W        W37595   4.466  13.630  13.625
71187W        W37596  27.571   5.220  10.580
71188W        W37597   7.988  43.811  14.959
71189W        W37598   9.655  30.117   4.119
71190W        W37599  12.518  31.020   0.685
71191W        W37600  15.789  24.027   0.279
71192W        W37601  42.442  28.211   3.867
71193W        W37602  36.391  15.359   2.754
71194W        W37603  19.858  42.384  13.324
71195W        W37604  33.117  31.181   2.742
71196W        W37605   8.469  23.647  13.971
71197W        W37606  40.471  26.175  13.864
71198W        W37607  25.362   9.662   0.456
71199W        W37608  33.350  15.190   2.980
71200W        W37609  42.625   0.908   1.743
71201W        W37610   1.933   8.977  12.626
71202W        W37611   6.408  44.930   0.219
71203W        W37612  28.438  26.639  14.780
71204W        W37613  15.148   0.001   3.968
71205W        W37614   0.765  18.734   2.635
71206W        W37615  34.515   0.529   3.686
71207W        W37616   2.670  25.520   0.018
71208W        W37617  14.707   7.942   2.136
71209W        W37618  26.112  31.580   0.974
71210W        W37619  34.599  38.894  14.402
71211W        W37620   0.816   6.426   1.239
71212W        W37621   0.270  40.320   5.037
71213W        W37622  34.021  26.035   1.412
71214W        W37623  26.158  25.086  13.637
71215W        W37624  39.868   4.854  13.116
71216W        W37625   2.153  41.305   3.159
71217W        W37626  40.968  36.550   1.165
71218W        W37627   7.839   0.987   0.935
71219W        W37628   7.252  13.355  13.004
71220W        W37629  29.064  21.677  14.389
71221W        W37630  11.971  29.357   2.382
71222W        W37631  37.081  40.415   2.806
71223W        W37632   9.160  43.409   2.642
71224W        W37633  27.885  19.590   3.162
71225W        W37634  10.968  27.755  13.295
71226W        W37635  14.628  15.180   4.782
71227W        W37636   7.744  13.062   2.328
71228W        W37637  25.040  37.293   2.664
71229W        W37638   7.945  34.515   1.732
71230W        W37639  40.489  25.503  11.765
71231W        W37640   6.833   4.868  10.528
71232W        W37641  34.638  10.235   1.682
71233W        W37642  15.313   5.882   5.017
71234W        W37643   6.667  22.665   9.983
71235W        W37644  35.492   5.693   2.855
71236W        W37645  12.116  23.046  11.177
71237W        W37646  31.431  13.645   1.306
71238W        W37647   5.238   2.292   0.949
71239W        W37648  35.431  39.493  11.750
71240W        W37649   4.787  41.385   1.903
71241W        W37650  18.300  11.759   2.315
71242W        W37651  44.753  38.561  10.766
71243W        W37652   2.814  44.398  10.775
71244W        W37653  19.223   3.826   4.838
71245W        W37654   4.917   6.295   0.432
71246W        W37655  10.224  16.446  12.959
71247W        W37656   7.471   1.711   1.630
71248W        W37657  40.982  17.892  11.991
71249W        W37658  39.939  44.535  11.569
71250W        W37659  27.696  12.305  12.865
71251W        W37660  34.817  13.599  14.999
71252W        W37661  42.165   1.677  14.876
71253W        W37662  32.891  18.705   3.724
71254W        W37663  41.766  39.360   3.120
71255W        W37664   2.031  20.586  13.802
71256W        W37665  24.682  14.666  12.546
71257W        W37666  19.507  10.616  11.552
71258W        W37667  10.185   8.877  11.313
71259W        W37668  25.633   2.939  10.764
71260W        W37669  44.581  36.953   1.176
71261W        W37670  32.842   7.114  12.812
71262W        W37671  26.586  33.859  13.011
71263W        W37672  44.858   8.909  10.393
71264W        W37673  43.312   8.152   4.137
71265W        W37674  27.339  34.099  14.323
71266W        W37675  11.905  21.182   2.139
71267W        W37676   7.172  28.560  10.663
71268W        W37677   6.876   8.675  12.821
71269W        W37678   0.301  33.792   1.684
71270W        W37679  40.444  40.844  13.572
71271W        W37680  18.632  34.360   3.808
71272W        W37681  35.884  16.171   1.280
71273W        W37682  16.878   6.234   1.908
71274W        W37683   6.468  37.571  10.312
71275W        W37684  28.925  43.576  14.997
71276W        W37685  31.576  32.696  10.693
71277W        W37686  10.048  26.510  14.172
71278W        W37687  22.024  43.935   3.635
71279W        W37688  38.414  40.701   0.050
71280W        W37689   5.888  12.069  13.438
71281W        W37690  38.892  20.658  12.304
71282W        W37691  12.750   7.685   3.213
71283W        W37692  17.194  16.676   3.302
71284W        W37693  29.304  30.040  11.968
71285W        W37694  40.402  21.767  10.466
71286W        W37695  44.214  20.263  13.056
71287W        W37696  25.691  36.033   0.633
71288W        W37697  24.520  38.069   1.712
71289W        W37698  32.564  38.208   2.173
71290W        W37699  24.299  33.813   0.320
71291W        W37700   4.646  23.992  10.451
71292W        W37701  43.468  40.320   4.552
71293W        W37702   5.675  25.708   1.254
71294W        W37703  42.783  11.345  10.302
71295W        W37704  42.466  13.205   1.799
71296W        W37705  37.410   5.855   0.732
71297W        W37706   0.533  18.814   1.027
71298W        W37707  21.473   7.727  14.579
71299W        W37708  41.280  33.462  10.643
71300W        W37709   4.326  15.007   0.260
71301W        W37710  10.657  30.958   4.533
71302W        W37711  10.475   2.300  12.009
71303W        W37712  24.605  10.386   3.797
71304W        W37713  43.739   0.502  14.784
71305W        W37714  12.100  11.301   0.282
71306W        W37715  22.561  14.824  12.177
71307W        W37716  22.295   6.217   1.804
71308W        W37717  12.298  44.060   1.766
71309W        W37718  43.954   6.160  13.358
71310W        W37719  18.315  30.640  12.106
71311W        W37720   8.307  33.917   2.825
71312W        W37721  39.165  22.205   2.648
71313W        W37722  14.780  33.595   1.277
71314W        W37723  15.389  39.114   5.455
71315W        W37724  21.007   3.403  11.088
71316W        W37725  25.661   5.502  14.415
71317W        W37726  21.752   2.377  10.788
71318W        W37727  15.646   9.173  12.798
71319W        W37728  27.371  42.417  11.685
71320W        W37729  24.539  10.204   4.879
71321W        W37730  30.566  20.659  14.927
71322W        W37731  19.074   0.354   1.479
71323W        W37732  10.258  32.878   3.981
71324W        W37733   7.358  10.346  10.457
71325W        W37734  44.263  27.917   0.553
71326W        W37735   6.256  43.568  14.713
71327W        W37736  26.062   5.265  11.162
71328W        W37737  10.200  35.061  14.023
71329W        W37738  24.210  28.962   4.590
71330W        W37739   6.060  29.320   2.651
71331W        W37740   9.299  17.785   4.477
71332W        W37741   0.287  23.812  13.081
71333W        W37742  42.816  28.523   3.019
71334W        W37743  19.076  38.030   0.010
71335W        W37744  11.828  37.487  11.135
71336W        W37745   9.932  43.193  14.856
71337W        W37746  30.536  26.161  11.522
71338W        W37747   2.296  23.772  14.957
71339W        W37748  25.256  35.470  14.949
71340W        W37749   7.034   0.393  10.295
71341W        W37750   0.592   0.428  14.256
71342W        W37751  23.184  23.167  11.723
71343W        W37752  35.092   1.720   0.345
71344W        W37753  30.628  44.005  12.914
71345W        W37754   9.217  40.947  11.318
71346W        W37755   3.231  25.779   3.875
71347W        W37756  33.173  28.022   0.935
71348W        W37757  21.150  44.946  12.384
71349W        W37758  14.775  14.615   3.101
71350W        W37759  25.593  25.828   0.655
71351W        W37760  39.787  25.633   3.186
71352W        W37761  26.765  42.915  11.190
71353W        W37762  30.821  18.144   1.633
71354W        W37763  24.123  13.144  14.591
71355W        W37764  14.029  10.175  11.059
71356W        W37765  28.927  22.952  10.913
71357W        W37766  39.328  33.525  11.761
71358W        W37767  12.760   0.744  12.048
71359W        W37768  44.938  26.160   3.729
71360ION    NA+37769   3.436  28.802   4.121
71361ION    NA+37770   7.917  23.547   4.393
71362ION    NA+37771  16.537  31.396  12.955
71363ION    NA+37772  38.271  28.247   1.716
71364ION    NA+37773  10.179  18.702  11.940
71365ION    NA+37774  19.139  15.939   4.298
71366ION    NA+37775  37.434  16.760   9.835
71367ION    NA+37776  22.805  32.580   0.404
71368ION    NA+37777  24.511   4.218  14.692
71369ION    NA+37778  42.093  42.157   4.158
71370ION    NA+37779   1.069  26.038  13.542
71371ION    NA+37780  38.993  22.916   3.444
71372ION    NA+37781  36.825  11.390  10.527
71373ION    NA+37782  22.457  23.421  10.581
71374ION    NA+37783  27.908  10.780   5.390
71375ION    NA+37784  13.458  11.986   2.389
71376ION    NA+37785   1.593  13.344  12.212
71377ION    NA+37786  28.293  22.453  11.395
71378ION    NA+37787  33.565  38.274  11.133
71379ION    NA+37788  21.872  43.476   0.568
71380ION    NA+37789  38.066  43.781  13.541
71381ION    NA+37790  35.142  33.168  12.109
71382ION    NA+37791  21.487  11.765   9.792
71383ION    NA+37792  31.008  37.853  14.025
71384ION    NA+37793  21.912   2.623   4.475
71385ION    NA+37794  34.499  17.449   4.468
71386ION    NA+37795  18.060  18.197  14.486
71387ION    NA+37796  28.444  38.506   4.140
71388ION    NA+37797  33.912  32.062   1.944
71389ION    NA+37798  20.983  24.202   1.462
71390ION    NA+37799  15.094  15.598   1.628
71391ION    NA+37800  26.123   5.959  14.059
71392ION    NA+37801  34.876  33.819   1.695
71393ION    NA+37802  12.289  25.413  14.331
71394ION    NA+37803  28.663   5.499   1.714
71395ION    NA+37804   8.344  19.499   3.734
71396ION    NA+37805  32.410   4.108  14.805
71397ION    NA+37806  19.773  34.962  12.388
71398ION    NA+37807  28.480  22.698   4.064
71399ION    NA+37808  44.845  14.582  12.062
71400ION    NA+37809  14.725  25.223   3.279
71401ION    NA+37810   6.916   4.945   1.416
71402ION    NA+37811  20.537  13.380  14.858
71403ION    NA+37812  33.231   4.522  13.565
71404ION    NA+37813  19.223   4.518   3.494
71405ION    NA+37814  20.076  32.926  12.126
71406ION    NA+37815  27.118  25.750   3.612
71407ION    NA+37816  28.960  33.876   1.599
71408ION    NA+37817   6.866  18.833  12.980
71409ION    NA+37818  18.342  23.622  12.545
71410ION    NA+37819   2.518   9.193  13.405
71411ION    NA+37820   8.098   6.228  12.936
71412ION    NA+37821  32.868  15.737  13.119
71413ION    NA+37822   2.688  25.677  10.811
71414ION    NA+37823  24.155   9.097  13.173
71415ION    NA+37824  12.493  43.898  14.959
71416ION    NA+37825  18.717   1.664   4.104
71417ION    NA+37826   0.868  30.329  12.705
71418ION    NA+37827   2.228  22.289   4.272
71419ION    NA+37828  25.043   3.360   2.927
71420ION    NA+37829  41.272  17.222  14.320
71421ION    NA+37830  15.240  22.889   1.387
71422ION    NA+37831  38.032   8.647  11.183
71423ION    NA+37832  36.514  11.035  14.645
71424ION    NA+37833  23.466  40.321  10.868
71425ION    NA+37834  24.284  15.426   4.304
71426ION    NA+37835  18.631  28.546   1.986
71427ION    NA+37836   0.450  19.819   0.168
71428ION    NA+37837  12.224  19.936   4.537
71429ION    NA+37838  11.189  22.409   1.503
71430ION    NA+37839   9.551  42.943   1.623
71431ION    NA+37840  44.036   7.541   4.208
71432ION    NA+37841  11.548   6.742  13.995
71433ION    NA+37842  34.340  17.144   1.648
71434ION    NA+37843   1.044  30.313   4.639
71435ION    NA+37844  14.536  35.519  10.334
71436ION    NA+37845  22.755  14.751  13.446
71437ION    NA+37846   7.109  29.214  13.102
71438ION    NA+37847  17.930  22.987   0.727
71439ION    NA+37848   7.143  41.071  14.875
71440ION    NA+37849   5.101   5.248  12.448
71441ION    NA+37850  19.386  42.816   2.585
71442ION    NA+37851  20.456  27.617  14.957
71443ION    NA+37852  36.766  21.793  13.302
71444ION    NA+37853   2.685   8.220  13.563
71445ION    NA+37854  13.899   3.876  12.967
71446ION    NA+37855  10.109  29.746   3.088
71447ION    NA+37856  13.057  44.127  13.012
71448ION    NA+37857   8.965  35.733   2.846
71449ION    NA+37858  44.565   2.407   1.440
71450ION    NA+37859   6.298  39.909   3.418
71451ION    NA+37860  11.030  20.718   1.914
71452ION    NA+37861  43.410  35.940  14.442
71453ION    NA+37862   5.717   9.297  13.527
71454ION    NA+37863  27.396   2.023  12.745
71455ION    NA+37864  19.629  41.847  11.668
71456ION    NA+37865  31.677  24.816   0.316
71457ION    NA+37866  20.744  15.924   4.770
71458ION    NA+37867  27.371  39.200  12.322
71459ION    NA+37868  23.846  40.019  12.747
71460ION    NA+37869  17.774   4.825   4.439
71461ION    NA+37870  13.144  25.724  13.897
71462ION    NA+37871  14.267  28.132   3.996
71463ION    NA+37872  20.172   3.399  13.972
71464ION    NA+37873  28.566  22.337   3.108
71465ION    NA+37874  37.913  19.271   0.089
71466ION    NA+37875  20.519  27.965   1.429
71467ION    NA+37876  20.934  19.561   1.358
71468ION    NA+37877   3.293  24.708   1.346
71469ION    NA+37878   3.441  37.376  10.592
71470ION    NA+37879   5.370  27.425  10.558
71471ION    NA+37880   0.746  20.515   3.224
71472ION    NA+37881  24.345   4.361   1.466
71473ION    NA+37882  22.918   0.539   4.154
71474ION    NA+37883   0.200  13.138  14.369
71475ION    NA+37884   2.188  23.096   1.747
71476ION    NA+37885  39.079  11.203  12.773
71477ION    NA+37886  39.090  17.323   3.254
71478ION    NA+37887  27.941  11.531  10.001
71479ION    NA+37888  15.063  38.288   4.894
71480ION    NA+37889  35.139   2.292   2.212
71481ION    NA+37890  22.541  22.179   2.448
71482ION    NA+37891  22.207  42.008   4.895
71483ION    NA+37892  21.154  34.034   0.437
71484ION    NA+37893  34.715  34.950   4.319
71485ION    NA+37894  41.283   5.915  14.398
71486ION    NA+37895  14.477  18.764   3.938
71487ION    NA+37896  33.262  22.666   3.898
71488ION    NA+37897  26.495  14.975  13.927
71489ION    NA+37898  37.855  33.400  12.632
71490ION    NA+37899  14.230  11.556   1.004
71491ION    NA+37900  12.626  29.629  12.339
71492ION    NA+37901  33.302   5.231  13.241
71493ION    NA+37902  40.229  41.090  14.375
71494ION    NA+37903  26.516  17.501   3.304
71495ION    NA+37904  15.459  16.522  11.484
71496ION    NA+37905  27.324  17.234  12.229
71497ION    NA+37906  13.862  31.245  10.707
71498ION    NA+37907  15.715   4.275  11.650
71499ION    NA+37908  18.789  33.167  11.190
71500ION    NA+37909  13.022  25.286   3.557
71501ION    NA+37910  25.892  38.519   1.351
71502ION    NA+37911  22.564  29.159  13.442
71503ION    NA+37912   8.756   3.288   4.623
71504ION    NA+37913  39.281  34.389   2.962
71505ION    NA+37914  36.846  21.995   1.651
71506ION    NA+37915  28.386  21.501  13.530
71507ION    NA+37916  11.419  44.943   3.392
71508ION    NA+37917  14.681  12.813  11.617
71509ION    NA+37918  11.934  26.430   3.690
71510ION    NA+37919  28.042  14.202   3.266
71511ION    NA+37920  40.835  14.545  10.893
71512ION    NA+37921   5.289   6.686  13.481
71513ION    NA+37922  38.865  19.097  13.592
71514ION    NA+37923   5.462  35.470  12.373
71515ION    NA+37924   9.959   2.511  13.028
71516ION    NA+37925   6.737  43.653  12.696
71517ION    NA+37926  15.728  24.226  14.769
71518ION    NA+37927  20.793  29.535   1.233
71519ION    NA+37928  16.272   7.405  10.682
71520ION    NA+37929  41.399  27.746  11.883
71521ION    NA+37930  18.120   0.435   3.261
71522ION    NA+37931  13.633  21.011  12.744
71523ION    NA+37932  27.040  19.865  11.637
71524ION    NA+37933  24.947   6.759  13.499
71525ION    NA+37934   6.163  40.831  12.721
71526ION    NA+37935   9.658  25.214   0.661
71527ION    NA+37936   8.862  15.751   0.480
71528ION    NA+37937  44.069   9.298   3.451
71529ION    NA+37938  32.989   6.623   4.557
71530ION    NA+37939  38.001  11.972   3.726
71531ION    NA+37940   1.706  33.854  11.697
71532ION    NA+37941  17.175  25.536   3.512
71533ION    NA+37942  23.783  10.207  12.338
71534ION    NA+37943   9.705  31.730  13.907
71535ION    NA+37944  10.346   6.572   1.352
71536ION    NA+37945  22.524  42.892  11.530
71537ION    NA+37946  24.508   2.447  12.413
71538ION    NA+37947  41.480  38.953  10.748
71539ION    NA+37948  12.744  14.950  13.458
71540ION    NA+37949   8.859  42.146  14.971
71541ION    NA+37950  36.082  42.539   2.610
71542ION    NA+37951  12.134  28.117  14.122
71543ION    NA+37952  29.348  14.771  11.351
71544ION    NA+37953  37.542  11.257   1.838
71545ION    NA+37954  40.041   6.664  12.889
71546ION    NA+37955   3.335   6.966  11.083
71547ION    NA+37956  19.097  23.773   1.377
71548ION    NA+37957  43.823  17.260  12.083
71549ION    NA+37958   0.083   7.751   2.199
71550ION    NA+37959  28.598  20.113   3.586
71551ION    NA+37960  11.367  43.605  14.727
71552ION    NA+37961  17.573   2.008   4.352
71553ION    NA+37962  30.181  18.562   1.309
71554ION    NA+37963  36.997  19.648   3.196
71555ION    NA+37964  34.501  29.501   4.951
71556ION    NA+37965   8.673   5.847  10.683
71557ION    NA+37966  25.824  25.538   4.939
71558ION    NA+37967  10.550  16.900   9.807
71559ION    NA+37968   1.247  42.603  12.067
71560ION    NA+37969  23.064  35.584   1.832
71561ION    NA+37970  40.850   5.740   2.604
71562ION    NA+37971  31.531  18.638  14.042
71563ION    NA+37972  29.187  25.687   2.833
71564ION    NA+37973  37.992  41.580   0.597
71565ION    NA+37974   5.663  36.121   3.516
71566ION    NA+37975  34.719  34.196  14.835
71567ION    NA+37976  44.280  20.179  14.085
71568ION    NA+37977  10.130  38.377   4.917
71569ION    NA+37978  33.089  36.595   5.026
71570ION    NA+37979  12.567  10.260  11.207
71571ION    NA+37980  22.499  34.878  14.748
71572ION    NA+37981   4.264  17.878  14.707
71573ION    NA+37982  26.263  18.550  12.431
71574ION    NA+37983  35.470  34.203  14.096
71575ION    NA+37984  29.573   7.131   1.747
71576ION    NA+37985  35.035   1.328  10.196
71577ION    NA+37986  25.387   0.502  13.802
71578ION    NA+37987  42.204  27.752   3.827
71579ION    NA+37988  42.046  21.006  14.775
71580ION    NA+37989  44.615  27.985  11.085
71581ION    NA+37990  34.738  25.183  10.927
71582ION    NA+37991  17.284   3.300   3.716
71583ION    NA+37992   6.415   1.585   0.364
71584ION    NA+37993  41.001  26.697   2.841
71585ION    NA+37994  27.727  40.255   3.201
71586ION    NA+37995  19.821  22.206   3.186
71587ION    NA+37996   0.333  15.594  14.042
71588ION    NA+37997  21.128  40.088   2.882
71589ION    NA+37998  40.676   9.844  11.809
71590ION    NA+37999  42.295  42.564  12.461
71591ION    NA+38000   3.164   8.562   2.904
71592ION    NA+38001  37.219  41.423   0.343
71593ION    NA+38002  43.675  41.580   4.474
71594ION    NA+38003   1.835   0.907   0.243
71595ION    NA+38004  18.578  10.381  12.271
71596ION    NA+38005  42.311   1.444   2.023
71597ION    NA+38006  25.667  38.588   0.379
71598ION    NA+38007  24.259   2.154  14.563
71599ION    NA+38008  38.804  15.995   3.277
71600ION    NA+38009  43.270  37.639   2.144
71601ION    NA+38010  10.421  15.619  13.439
71602ION    NA+38011  40.140  27.973   3.299
71603ION    NA+38012  14.286  19.669   3.557
71604ION    NA+38013  19.203   6.175   1.395
71605ION    NA+38014  34.690  43.611  11.575
71606ION    NA+38015  23.701   5.259  11.162
71607ION    NA+38016  44.658  43.562   1.209
71608ION    NA+38017  22.715  34.791   4.669
71609ION    NA+38018  21.733   8.226   3.035
71610ION    NA+38019  41.774  18.882  12.805
71611ION    NA+38020   7.240  43.684   1.700
71612ION    NA+38021   9.254  14.137   2.685
71613ION    NA+38022  30.591   2.840  14.722
71614ION    NA+38023   2.963   7.708   4.622
71615ION    NA+38024   4.027  37.450   4.799
71616ION    NA+38025  34.150   3.682  11.372
71617ION    NA+38026  27.134  33.871  13.044
71618ION    NA+38027  23.346   2.470  14.826
71619ION    NA+38028   7.694  16.521  12.033
71620ION    NA+38029   7.884  41.344   3.351
71621ION    NA+38030  14.299   2.032   0.386
71622ION    NA+38031  28.806  33.404   0.884
71623ION    NA+38032  41.441  38.878   2.423
71624ION    NA+38033  44.274  15.404  12.094
71625ION    NA+38034  40.659  15.589   2.144
71626ION    NA+38035  32.755  14.093  14.304
71627ION    NA+38036  25.963  17.194  11.009
71628ION    NA+38037   3.814  25.079   2.628
71629ION    NA+38038  24.897   8.100   9.626
71630ION    NA+38039  22.403   2.835   2.307
71631ION    NA+38040  38.853  37.643  13.396
71632ION    NA+38041  18.625  36.924   1.817
71633ION    NA+38042   4.043   3.225  10.323
71634ION    NA+38043  33.943  41.302  10.717
71635ION    NA+38044  22.162  21.985  10.724
71636ION    NA+38045  43.501  15.604   3.899
71637ION    NA+38046  40.152  24.383  14.902
71638ION    NA+38047  40.462   7.421   3.131
71639ION    NA+38048   3.694   1.954   3.281
71640ION    NA+38049   5.767  27.099   3.884
71641ION    NA+38050   1.100   1.037   4.432
71642ION    NA+38051  30.169  12.939   0.515
71643ION    NA+38052   9.765  22.315   3.483
71644ION    NA+38053  20.759  30.912   2.451
71645ION    NA+38054  36.324   9.214   4.726
71646ION    NA+38055  14.829  16.714   3.788
71647ION    NA+38056  40.034  37.419   4.287
71648ION    NA+38057   5.858  14.662   0.404
71649ION    NA+38058   6.205  17.447   3.912
71650ION    NA+38059  10.073   5.963   3.348
71651ION    NA+38060  37.290  25.125  12.773
71652ION    NA+38061   7.182  39.487   2.033
71653ION    NA+38062  24.796  40.976  12.542
71654ION    NA+38063   9.821  24.743   4.776
71655ION    NA+38064  18.720   9.956   3.181
71656ION    NA+38065  18.786  42.721  13.486
71657ION    NA+38066   7.681   8.914  12.960
71658ION    NA+38067   3.316  17.077   4.888
71659ION    NA+38068  13.000  23.484   3.680
71660ION    NA+38069  26.242  28.296  11.138
71661ION    NA+38070   3.937  10.056   3.624
71662ION    NA+38071  31.151   5.417   1.357
71663ION    NA+38072   1.588  42.333  13.069
71664ION    NA+38073   3.767   9.042   3.719
71665ION    NA+38074  26.123   2.986   4.351
71666ION    NA+38075  13.504  35.741   3.598
71667ION    NA+38076  24.898   9.653   9.547
71668ION    NA+38077   1.763  32.854  12.523
71669ION    NA+38078  16.660   4.824  14.412
71670ION    NA+38079  12.741   6.429   4.243
71671ION    NA+38080  35.965  10.961  13.096
71672ION    NA+38081  10.132  23.570  14.142
71673ION    NA+38082  11.317  44.176  14.141
71674ION    NA+38083  37.137  35.294  10.752
71675ION    NA+38084   2.221  33.227  14.657
71676ION    NA+38085   6.334  36.872   2.651
71677ION    NA+38086   3.233  19.040  13.339
71678ION    NA+38087  14.606  12.353   0.385
71679ION    NA+38088  14.831  21.454  13.231
71680ION    NA+38089  18.425  21.135   2.203
71681ION    NA+38090   3.426  20.032   0.421
71682ION    NA+38091  31.445   4.473  11.533
71683ION    NA+38092  25.876  41.824   1.525
71684ION    NA+38093  28.221  12.862   0.532
71685ION    NA+38094  35.497  43.746  14.486
71686ION    NA+38095  17.318  31.282  14.279
71687ION    NA+38096  37.701  24.896  13.657
71688ION    NA+38097   5.032  23.190  10.296
71689ION    NA+38098   0.363   0.830   2.516
71690ION    NA+38099  43.222  13.683   3.847
71691ION    NA+38100   6.313  22.979  14.070
71692ION    NA+38101  38.382   0.364  11.546
71693ION    NA+38102  22.028  21.519   3.325
71694ION    NA+38103  32.848  18.169  13.807
71695ION    NA+38104  22.039  19.481   0.710
71696ION    NA+38105   0.919  24.961  11.114
71697ION    NA+38106   3.241  27.180  14.370
71698ION    NA+38107  39.250  22.848   0.166
71699ION    NA+38108  34.626   8.420  13.530
71700ION    NA+38109  40.169   0.482   0.491
71701ION    NA+38110  31.107  16.118  12.918
71702ION    NA+38111  37.943  30.960  10.851
71703ION    NA+38112  34.462  15.833  12.862
71704ION    NA+38113  36.450  33.464   3.205
71705ION    NA+38114  31.524  10.615   4.957
71706ION    NA+38115  44.826  35.784   4.234
71707ION    NA+38116  26.431  10.431   2.801
71708ION    NA+38117  42.440  25.207   1.515
71709ION    NA+38118  11.260  31.670   2.210
71710ION    NA+38119  38.098   6.157   2.747
71711ION    NA+38120  29.611  40.945  14.835
71712ION    NA+38121   4.355   4.960   1.259
71713ION    NA+38122  15.192  44.740  12.916
71714ION    NA+38123  18.225  42.862  14.302
71715ION    NA+38124  20.018  14.986  12.648
71716ION    NA+38125  44.777   6.771  10.714
71717ION    NA+38126  13.082  11.256   0.081
71718ION    NA+38127  10.384   7.163  13.128
71719ION    NA+38128  37.748  38.111  14.642
71720ION    NA+38129  18.682  24.250  11.594
71721ION    NA+38130  29.676  35.666   1.450
71722ION    NA+38131   1.718  43.389  10.748
71723ION    NA+38132  35.595  13.792  11.628
71724ION    NA+38133  14.448  29.861  12.010
71725ION    NA+38134  15.556   6.422   2.570
71726ION    NA+38135  18.305  23.752   2.253
71727ION    NA+38136  22.566   1.706   3.669
71728ION    NA+38137  15.063   8.970   3.281
71729ION    NA+38138  26.997   3.218  13.420
71730ION    NA+38139   0.786  17.648   3.224
71731ION    NA+38140  20.587   2.302  13.487
71732ION    NA+38141  39.390  38.565  10.924
71733ION    NA+38142   9.243  38.879  10.571
71734ION    NA+38143  31.762  33.203  13.274
71735ION    NA+38144   5.823  24.395   1.660
71736ION    NA+38145   5.875  21.481  14.852
71737ION    NA+38146  19.153   8.337  10.607
71738ION    NA+38147  37.309  42.813  11.649
71739ION    NA+38148  17.274  35.090  10.993
71740ION    NA+38149  36.951  23.242   0.351
71741ION    NA+38150  19.471  15.704  12.672
71742ION    NA+38151  22.535  42.601  13.097
71743ION    NA+38152  15.687  32.703   1.772
71744ION    NA+38153   8.885   8.274   4.475
71745ION    NA+38154  20.623  10.412  12.759
71746ION    NA+38155  25.255  16.471  12.137
71747ION    NA+38156   8.406  23.516  11.610
71748ION    NA+38157   3.208  44.978   1.160
71749ION    NA+38158  43.056  25.952   0.297
71750ION    NA+38159  27.072  22.477   2.591
71751ION    NA+38160  31.562  44.897  12.261
71752ION    NA+38161  34.555   9.243  12.966
71753ION    NA+38162  15.561  31.483   4.287
71754ION    NA+38163  44.604  42.017  11.179
71755ION    NA+38164  31.876  34.559   1.515
71756ION    NA+38165   2.897  21.692   3.525
71757ION    NA+38166   6.491  25.659  10.505
71758ION    NA+38167   1.032  18.600   3.046
71759ION    NA+38168  30.210  22.443   4.551
71760ION    NA+38169  42.711   3.673  13.956
71761ION    NA+38170  23.923  37.474   1.026
71762ION    NA+38171  35.943  38.403   3.141
71763ION    NA+38172  41.912   2.737  12.950
71764ION    NA+38173   1.821  44.727  13.027
71765ION    NA+38174   9.926  21.675  10.794
71766ION    NA+38175  23.761  23.315  12.303
71767ION    NA+38176  30.413  23.837   4.506
71768ION    NA+38177  29.498   9.308   1.960
71769ION    NA+38178  17.847  38.243   3.958
71770ION    NA+38179   6.376  26.853  13.403
71771ION    NA+38180  34.490  12.527  11.523
71772ION    NA+38181  32.714  26.868   0.215
71773ION    NA+38182  43.176  32.622   1.362
71774ION    NA+38183  25.213   8.113   5.513
71775ION    NA+38184  42.265  34.287  10.658
71776ION    NA+38185  32.841  37.377   3.222
71777ION    NA+38186   8.922   0.297  13.974
71778ION    NA+38187  32.469  13.887   0.150
71779ION    NA+38188   8.424   5.470  12.372
71780ION    NA+38189  38.380  39.390  11.604
71781ION    NA+38190  32.433   7.749  10.859
71782ION    NA+38191  10.330  24.424  13.572
71783ION    NA+38192  31.136  44.008   1.477
71784ION    NA+38193  10.756  24.966  14.855
71785ION    NA+38194  18.754  30.748   1.126
71786ION    NA+38195  17.939  30.366   4.264
71787ION    NA+38196  28.673  28.767   1.224
71788ION    NA+38197   9.681  32.058   0.497
71789ION    NA+38198  38.271  41.194  11.718
71790ION    NA+38199  17.142  23.100  13.326
71791ION    NA+38200  39.880  24.124   1.316
71792ION    NA+38201   2.503   2.893  14.763
71793ION    NA+38202   8.384  36.303   0.831
71794ION    NA+38203  10.885   8.286  11.081
71795ION    NA+38204  24.906  15.471  14.337
71796ION    NA+38205  43.456  28.106  13.802
71797ION    NA+38206   0.581  27.592  13.123
71798ION    NA+38207   8.581  43.641   1.782
71799ION    NA+38208  37.093  38.534  13.982
71800ION    NA+38209   4.096  28.600  13.774
71801ION    NA+38210  44.103  18.834  13.246
71802ION    NA+38211   4.250  23.032   3.364
71803ION    NA+38212  23.717  19.085   4.522
71804ION    NA+38213  21.944  25.477   1.857
71805ION    NA+38214  38.916  34.685   3.737
71806ION    NA+38215   8.719  17.754  13.506
71807ION    NA+38216   9.995  25.953  12.606
71808ION    NA+38217  43.518  37.132   2.834
71809ION    NA+38218  35.990  18.543  13.050
71810ION    NA+38219  43.459  23.641  13.133
71811ION    NA+38220  33.764  25.581   0.669
71812ION    NA+38221  25.738  25.566   1.287
71813ION    NA+38222  19.736  24.114   2.376
71814ION    NA+38223  24.373  10.524   0.995
71815ION    NA+38224  29.105  12.825  12.405
71816ION    NA+38225  13.001  21.817  11.849
71817ION    NA+38226  34.569  25.672  13.128
71818ION    NA+38227  38.898   9.882   5.318
71819ION    NA+38228  41.226  25.197  10.746
71820ION    NA+38229  23.190   2.039   1.872
71821ION    NA+38230  28.962   5.241   3.055
71822ION    NA+38231  43.281  25.772  12.078
71823ION    NA+38232   8.775  34.894  14.875
71824ION    NA+38233  40.336  38.859  11.129
71825ION    NA+38234  41.891  33.699   3.658
71826ION    NA+38235   0.619  40.338   4.614
71827ION    NA+38236  27.856   2.341  13.473
71828ION    NA+38237   5.779  24.241  13.761
71829ION    NA+38238   3.875  35.345  14.288
71830ION    NA+38239  43.284  12.103  12.894
71831ION    NA+38240  25.080   7.391  12.064
71832ION    NA+38241  41.065  13.497  14.244
71833ION    NA+38242  14.100   6.449   2.545
71834ION    NA+38243  16.761  14.304   2.945
71835ION    NA+38244   3.489  24.313   4.631
71836ION    NA+38245  22.144  41.245   0.373
71837ION    NA+38246  41.860  30.382   4.209
71838ION    NA+38247  26.253  11.769  13.549
71839ION    NA+38248  29.857   0.941  10.396
71840ION    NA+38249   2.770   0.431  11.075
71841ION    NA+38250  26.993  30.512  13.002
71842ION    NA+38251   0.623  43.592  10.817
71843ION    NA+38252  40.412  33.591   0.966
71844ION    NA+38253  37.361   9.464   2.246
71845ION    NA+38254  18.840  42.673   1.320
71846ION    NA+38255  41.085  30.426   0.078
71847ION    NA+38256  41.311  15.625  13.873
71848ION    NA+38257  14.158  14.923   3.905
71849ION    NA+38258  21.987  37.006  14.485
71850ION    NA+38259   9.790  28.004  13.253
71851ION    NA+38260  26.028   5.946   3.350
71852ION    NA+38261  28.516   8.527   1.094
71853ION    NA+38262  29.674  12.886  11.466
71854ION    NA+38263  37.322  37.270  14.308
71855ION    NA+38264  33.658   6.620  12.515
71856ION    NA+38265  38.316  18.793   3.047
71857ION    NA+38266   4.213  13.160  11.322
71858ION    NA+38267   7.918  42.956   4.631
71859ION    NA+38268  21.673  29.666  11.955
71860ION    NA+38269   4.914  40.112   2.883
71861ION    NA+38270  27.026   8.154  14.536
71862ION    NA+38271  28.782  15.414  12.871
71863ION    NA+38272  10.204   0.307   4.488
71864ION    NA+38273  30.682  44.409  14.855
71865ION    NA+38274  39.140   8.677  12.040
71866ION    NA+38275  17.171  23.704   0.655
71867ION    NA+38276  11.343  10.715   2.356
71868ION    NA+38277  33.547  28.442  11.100
71869ION    NA+38278   5.327   5.336   4.435
71870ION    NA+38279  32.613  19.286  14.438
71871ION    NA+38280  19.257   3.886   4.268
71872ION    NA+38281  27.694   6.078  12.265
71873ION    NA+38282  16.833  34.511   4.561
71874ION    NA+38283  35.839  16.607   0.313
71875ION    NA+38284   5.420   2.360  12.603
71876ION    NA+38285   9.846  23.195   1.713
71877ION    NA+38286  23.037  41.739   0.501
71878ION    NA+38287  32.119   5.006  10.654
71879ION    NA+38288   1.479  10.195   2.846
71880ION    NA+38289  14.142  37.272   2.414
71881ION    NA+38290  11.432   8.283  11.947
71882ION    NA+38291  31.073  15.528   2.631
71883ION    NA+38292  26.081  23.076   1.913
71884ION    NA+38293  27.632  26.128   5.110
71885ION    NA+38294  31.621   6.219  10.621
71886ION    NA+38295  35.692  28.599   3.419
71887ION    NA+38296  14.107  32.389   2.785
71888ION    NA+38297  15.695   4.081   4.763
71889ION    NA+38298   4.285  38.085  13.109
71890ION    NA+38299  36.750  30.164   2.620
71891ION    NA+38300  34.234  43.022  12.242
71892ION    NA+38301  31.453  44.345  13.762
71893ION    NA+38302  35.982  13.046  13.233
71894ION    NA+38303  21.358  35.810   3.510
71895ION    NA+38304  33.529   0.774   3.016
71896ION    NA+38305  32.658  33.167   1.334
71897ION    NA+38306  17.393  33.024  12.495
71898ION    NA+38307  18.603  41.946  14.436
71899ION    NA+38308   5.300  20.319   0.932
71900ION    NA+38309  17.197  20.776  12.610
71901ION    NA+38310  15.127  12.375  13.497
71902ION    NA+38311  39.882  12.334   0.348
71903ION    NA+38312  32.354  39.526  10.676
71904ION    NA+38313  17.121   8.593   9.705
71905ION    NA+38314  12.532   6.184   3.296
71906ION    NA+38315  42.858  26.316   2.160
71907ION    NA+38316  28.814  20.236  13.279
71908ION    NA+38317   7.400  26.118   2.286
71909ION    NA+38318  20.692  30.030  11.608
71910ION    NA+38319  36.299   3.878  14.423
71911ION    NA+38320  15.358  44.940  14.841
71912ION    NA+38321  41.004  37.177  14.284
71913ION    NA+38322  18.241  29.983   1.120
71914ION    NA+38323  42.378  29.201   0.080
71915ION    NA+38324  11.722  42.761   9.588
71916ION    NA+38325  24.059  26.529  10.601
71917ION    NA+38326  41.714  28.610   2.995
71918ION    NA+38327   6.590  27.752  12.901
71919ION    NA+38328  44.423  39.386  13.121
71920ION    NA+38329  25.699  27.435   4.640
71921ION    NA+38330  33.642  23.149  14.078
71922ION    NA+38331  13.324  41.412   3.247
71923ION    NA+38332  23.129  16.760  12.109
71924ION    NA+38333  44.547  44.089   2.240
71925ION    NA+38334  40.859  21.027  14.120
71926ION    NA+38335   1.550  18.350  10.749
71927ION    NA+38336  13.061   5.459   3.739
71928ION    NA+38337   2.752  33.609  13.850
71929ION    NA+38338  22.101   6.526  13.160
71930ION    NA+38339  43.473  27.553   2.960
71931ION    NA+38340  10.385  13.049   0.147
71932ION    NA+38341  11.474   5.554   4.645
71933ION    NA+38342  38.512  44.461  11.136
71934ION    NA+38343  31.322  40.717   4.641
71935ION    NA+38344  37.365  29.893   1.812
71936ION    NA+38345  34.660   8.579   4.582
71937ION    NA+38346  18.259   8.767  11.606
71938ION    NA+38347  38.175  22.880  10.056
71939ION    NA+38348   6.727  28.917   3.459
71940ION    NA+38349  41.377  24.349  14.270
71941ION    NA+38350  32.706  13.302   0.926
71942ION    NA+38351  38.381  15.585  12.898
71943ION    NA+38352  15.264  41.743   4.595
71944ION    NA+38353  33.891   1.080  14.965
71945ION    NA+38354  34.871  36.992  11.197
71946ION    NA+38355  19.062  34.459  13.052
71947ION    NA+38356  36.365  14.207  14.419
71948ION    NA+38357  35.393  42.415  12.393
71949ION    NA+38358  25.574  24.782   3.546
71950ION    NA+38359  33.907   8.586  12.150
71951ION    NA+38360   2.519  39.887   0.857
71952ION    NA+38361  25.729  38.288   2.211
71953ION    NA+38362  42.032  15.234   1.607
71954ION    NA+38363  36.816  33.758  13.950
71955ION    NA+38364  11.778  12.585   4.381
71956ION    NA+38365  25.647   8.019  10.282
71957ION    NA+38366   6.721  31.925   2.902
71958ION    NA+38367  18.455  27.296  11.340
71959ION    NA+38368  30.626  19.637  14.530
71960ION    NA+38369  34.846  36.582   0.470
71961ION    NA+38370   0.485  17.204  13.846
71962ION    NA+38371  44.584  39.806  11.669
71963ION    NA+38372  19.006  15.014   3.758
71964ION    NA+38373  23.695  34.305  11.096
71965ION    NA+38374  37.727  18.005   2.865
71966ION    NA+38375  35.213  10.873  14.020
71967ION    NA+38376  34.128  17.486  11.579
71968ION    NA+38377   9.032  14.783   5.296
71969ION    NA+38378  30.936  34.395  13.521
71970ION    NA+38379   8.081  34.159  10.955
71971ION    NA+38380   7.410  32.522   1.401
71972ION    NA+38381   4.815  24.702  12.586
71973ION    NA+38382  11.133  44.157   1.781
71974ION    NA+38383  40.266  32.832  14.199
71975ION    NA+38384  24.715  21.394   2.998
71976ION    NA+38385  41.094  33.801  14.873
71977ION    NA+38386  25.578  24.022  12.465
71978ION    NA+38387  25.052  20.499  14.304
71979ION    NA+38388  12.104  12.267  10.738
71980ION    NA+38389  23.193   9.031  13.747
71981ION    NA+38390  34.334   5.723   0.795
71982ION    NA+38391  28.632  14.077  14.203
71983ION    NA+38392  32.731  25.689   1.002
71984ION    NA+38393  43.318  34.737  12.994
71985ION    NA+38394  41.581  23.486   0.873
71986ION    NA+38395  17.543   3.412   2.414
71987ION    NA+38396   1.086  12.650  10.594
71988ION    NA+38397  22.604  28.137  12.879
71989ION    NA+38398   2.540  11.268   1.508
71990ION    NA+38399   7.383  36.549  12.911
71991ION    NA+38400  28.874   2.696   3.634
71992ION    NA+38401  27.665  18.252   4.171
71993ION    NA+38402  44.973  42.510   4.431
71994ION    NA+38403   1.261  18.552   4.392
71995ION    NA+38404  11.209   7.391  12.378
71996ION    NA+38405  35.741  14.715   3.801
71997ION    NA+38406  33.222  20.980   2.574
71998ION    NA+38407   6.480  13.684   1.026
71999ION    NA+38408  28.671   1.826  13.858
72000ION    NA+38409   9.104  36.940   2.136
72001ION    NA+38410  36.897  30.160  11.475
72002ION    NA+38411   7.601  11.669  13.450
72003ION    NA+38412   4.624  21.417   4.565
72004ION    NA+38413   7.175  30.734  11.336
72005ION    NA+38414  18.200   1.479   2.289
72006ION    NA+38415   6.454  12.651   0.884
72007ION    NA+38416  10.465  20.938  11.802
72008ION    NA+38417  30.382  14.707  11.873
72009ION    NA+38418  37.777  30.532   0.778
72010ION    NA+38419  27.440   7.143  11.508
72011ION    NA+38420  31.271  15.702  11.614
72012ION    NA+38421   4.916  12.462   0.704
72013ION    NA+38422   8.755  14.825   1.630
72014ION    NA+38423  35.584  44.077  11.917
72015ION    NA+38424  44.564  12.983  11.812
72016ION    NA+38425   6.210  14.829   2.845
72017ION    NA+38426  19.608  21.177   9.951
72018ION    NA+38427   9.664   7.130  12.386
72019ION    NA+38428  37.690  41.913  14.908
72020ION    NA+38429   8.575  14.851   2.513
72021ION    NA+38430  22.256  17.588  11.117
72022ION    NA+38431  40.150   6.981   0.949
72023ION    NA+38432   2.220  27.586   0.634
72024ION    NA+38433  40.499  28.623  14.116
72025ION    NA+38434  34.638  11.405   1.405
72026ION    NA+38435  41.573  44.300   1.285
72027ION    NA+38436   9.073   3.452   0.719
72028ION    NA+38437   2.529  27.207   2.994
72029ION    NA+38438  42.081   8.187  11.081
72030ION    NA+38439  23.210   3.509   3.493
72031ION    NA+38440   6.726  41.559   1.359
72032ION    NA+38441  23.070  20.807   4.550
72033ION    NA+38442  23.405  43.114  13.244
72034ION    NA+38443  16.802  40.436   0.448
72035ION    NA+38444  18.854  35.466   1.930
72036ION    NA+38445  10.970  43.728  10.490
72037ION    NA+38446  28.951  15.189   2.426
72038ION    NA+38447  44.749   4.878  11.456
72039ION    NA+38448  30.684  24.684  14.156
72040ION    NA+38449   9.350  29.274   0.922
72041ION    NA+38450  36.612  24.155  12.635
72042ION    NA+38451  27.138   5.314  14.350
72043ION    NA+38452  29.672  40.018   0.287
72044ION    NA+38453   8.222  40.720   0.428
72045ION    NA+38454  32.898  43.173   4.181
72046ION    NA+38455   8.386  10.168  13.708
72047ION    NA+38456  39.643  31.803  12.147
72048ION    NA+38457  13.751  30.571   2.892
72049ION    NA+38458  11.518  23.262   1.099
72050ION    NA+38459  25.131   5.895   3.797
72051ION    NA+38460  16.751  21.909  14.834
72052ION    NA+38461  41.239  37.958   1.300
72053ION    NA+38462  31.842   7.009   1.080
72054ION    NA+38463   5.963  19.845  13.318
72055ION    NA+38464  23.037  15.860   1.214
72056ION    NA+38465  43.273   3.382   1.776
72057ION    NA+38466  25.702  35.062   3.326
72058ION    NA+38467  39.335  16.151   0.562
72059ION    NA+38468  24.212  39.406   2.007
72060ION    NA+38469  35.948  30.568  13.370
72061ION    NA+38470  32.509  31.896   3.140
72062ION    NA+38471  44.069   6.895   0.800
72063ION    NA+38472  33.304  42.982  14.330
72064ION    NA+38473  35.339   6.386  11.207
72065ION    NA+38474   7.884  12.851  11.934
72066ION    NA+38475  17.097  33.295   0.586
72067ION    NA+38476   6.505   8.895   2.871
72068ION    NA+38477   7.506  43.985  11.981
72069ION    NA+38478  26.747  17.151   0.065
72070ION    NA+38479  30.963  35.457   1.048
72071ION    NA+38480  21.926  25.699  14.021
72072ION    NA+38481  44.117   2.974   0.005
72073ION    NA+38482  36.128  24.370   3.618
72074ION    NA+38483  38.402   0.717   2.773
72075ION    NA+38484   9.377   9.125   0.153
72076ION    NA+38485  37.744  10.175  12.913
72077ION    NA+38486  42.740  23.429   3.813
72078ION    NA+38487   9.004  30.662  13.709
72079ION    NA+38488  19.907  41.144   4.051
72080ION    NA+38489  13.833  18.173   3.676
72081ION    NA+38490  39.646  14.503  10.332
72082ION    NA+38491  30.546  27.709  13.427
72083ION    NA+38492  34.141  27.010  13.978
72084ION    NA+38493   1.642  13.606   1.279
72085ION    NA+38494  15.437  26.195   2.129
72086ION    NA+38495  23.889  29.333  12.900
72087ION    NA+38496  13.262  42.163  11.464
72088ION    NA+38497  38.275  30.700  12.016
72089ION    NA+38498  13.289  29.959   2.403
72090ION    NA+38499   5.159  25.732   0.540
72091ION    NA+38500  42.841   2.209  13.738
72092ION    NA+38501  13.859   7.653  14.903
72093ION    NA+38502  41.860  35.896  14.843
72094ION    NA+38503  27.252  44.329  13.381
72095ION    NA+38504  40.678  11.431   0.900
72096ION    NA+38505  19.675  40.121   4.149
72097ION    NA+38506  33.607  12.116  11.146
72098ION    NA+38507  15.939   4.863   3.676
72099ION    NA+38508  15.186  11.531  10.598
72100ION    NA+38509  33.651  42.801   3.638
72101ION    NA+38510  16.263  43.361  14.176
72102ION    NA+38511  20.105  29.757   4.112
72103ION    NA+38512  34.188  27.771  11.473
72104ION    NA+38513   4.659   4.683   4.075
72105ION    NA+38514  19.077  38.534  14.879
72106ION    NA+38515  14.916  32.958   2.640
72107ION    NA+38516  43.614  43.470  11.653
72108ION    NA+38517  24.993  24.490   4.145
72109ION    NA+38518  13.012  36.966  14.866
72110ION    NA+38519  28.858  37.081   1.839
72111ION    NA+38520  30.028  14.747   0.913
72112ION    NA+38521  43.189  44.140   0.955
72113ION    NA+38522  18.695  36.776  12.741
72114ION    NA+38523   1.707  40.974  11.877
72115ION    NA+38524   6.965  24.177  13.499
72116ION    NA+38525  32.284  20.911   1.290
72117ION    NA+38526  10.202  21.009   4.966
72118ION    NA+38527   4.303  30.860   1.888
72119ION    NA+38528  15.143  28.060   0.444
72120ION    NA+38529  15.184   9.077   1.300
72121ION    NA+38530  34.707  15.845  11.480
72122ION    NA+38531   9.728  27.970   3.874
72123ION    NA+38532  10.580   8.937  13.289
72124ION    NA+38533  33.008  34.095   1.208
72125ION    NA+38534  16.940  36.805  10.619
72126ION    NA+38535  36.097   7.320   1.207
72127ION    NA+38536  20.773  15.599  13.502
72128ION    NA+38537  10.664  34.966   1.429
72129ION    NA+38538  38.178  43.024  10.782
72130ION    NA+38539  19.159  21.711   2.606
72131ION    NA+38540  16.525  22.946   1.647
72132ION    NA+38541  12.633  32.416  10.802
72133ION    NA+38542  44.741  19.645   4.617
72134ION    NA+38543  13.396  25.234  10.297
72135ION    NA+38544  37.198  36.415   2.529
72136ION    NA+38545  21.632  44.984   2.337
72137ION    NA+38546  26.437  41.860   2.352
72138ION    NA+38547   0.374  14.065  10.676
72139ION    NA+38548  10.047  29.737   0.704
72140ION    NA+38549   9.388  31.082   0.792
72141ION    NA+38550   1.739  23.194  14.782
72142ION    NA+38551  41.942  18.468  13.701
72143ION    NA+38552  13.806  10.168  13.839
72144ION    NA+38553  19.841  39.142   1.770
72145ION    NA+38554  29.675  21.421  13.262
72146ION    NA+38555  22.122  40.322  11.333
72147ION    NA+38556  39.024  24.071   1.139
72148ION    NA+38557  22.349  42.251  12.282
72149ION    NA+38558  21.155  42.473   0.752
72150ION    NA+38559   6.301  18.845  14.862
72151ION    NA+38560  13.522  34.476  14.311
72152ION    NA+38561   0.020  42.642  10.788
72153ION    NA+38562   6.046  44.091   0.980
72154ION    NA+38563  38.266  11.691  10.817
72155ION    NA+38564  42.401  30.038   1.349
72156ION    NA+38565  22.265   5.711  12.546
72157ION    NA+38566   0.989   0.569  10.885
72158ION    NA+38567  29.097   6.572  12.724
72159ION    NA+38568  35.468  19.129  14.264
72160ION    NA+38569  33.345   8.842   1.762
72161ION    NA+38570  16.002  41.818   3.681
72162ION    NA+38571  20.643  36.146   1.656
72163ION    NA+38572   0.602   7.946   1.117
72164ION    NA+38573  20.023   3.817  10.792
72165ION    NA+38574  38.847  12.363   0.461
72166ION    NA+38575  11.706  38.862  10.772
72167ION    NA+38576   8.367  28.722   2.620
72168ION    NA+38577  37.845  33.330   1.390
72169ION    NA+38578  37.084   6.669   1.647
72170ION    NA+38579  39.464  25.547  10.868
72171ION    NA+38580  37.514   6.743  14.332
72172ION    NA+38581   7.169  41.322   3.919
72173ION    NA+38582  14.429   4.696  12.564
72174ION    NA+38583  38.391  31.695   1.472
72175ION    NA+38584  25.609   8.106  11.607
72176ION    NA+38585  37.067   5.863  11.386
72177ION    NA+38586  29.059   9.178  13.763
72178ION    NA+38587  16.853  41.632   4.173
72179ION    NA+38588  33.194  27.669  11.433
72180ION    NA+38589  34.006  44.360  11.576
72181ION    NA+38590  18.498  13.214  12.630
72182ION    NA+38591  12.639  24.950   1.915
72183ION    NA+38592  15.404  21.997  12.814
72184ION    NA+38593  44.734  25.511   4.076
72185ION    NA+38594  38.139  38.217   1.185
72186ION    NA+38595  36.760  14.136  13.444
72187ION    NA+38596  33.044  25.244  13.891
72188ION    NA+38597  40.983  43.847  12.978
72189ION    NA+38598  30.765  14.541  10.964
72190ION    NA+38599  31.628  41.289  12.068
72191ION    NA+38600  44.044  39.289   4.021
72192ION    NA+38601  15.038  34.572  10.955
72193ION    NA+38602   5.957   6.178   4.702
72194ION    NA+38603  30.516   4.168  10.640
72195ION    NA+38604   3.952  34.150  10.408
72196ION    NA+38605  10.733  36.799   3.449
72197ION    NA+38606  36.410   3.082   5.160
72198ION    NA+38607  31.281  19.471   5.293
72199ION    NA+38608  26.526  41.741  14.026
72200ION    NA+38609   8.290  14.108  13.503
72201ION    NA+38610  27.436  21.026  14.962
72202ION    NA+38611  34.502  31.851   0.147
72203ION    NA+38612  16.894   1.138   1.624
72204ION    NA+38613   8.552  11.893   2.959
72205ION    NA+38614  41.128  44.909   1.942
72206ION    NA+38615   3.430  14.318   2.368
72207ION    NA+38616  33.148   5.852  10.900
72208ION    NA+38617  28.499   5.981   3.543
72209ION    NA+38618  30.022  27.827   1.087
72210ION    NA+38619  17.363  36.513   1.432
72211ION    NA+38620   8.078  35.835  12.573
72212ION    NA+38621  28.063  41.844   1.660
72213ION    NA+38622  44.799   1.857   0.636
72214ION    NA+38623  35.894  43.551  13.136
72215ION    NA+38624  27.024   4.313   3.741
72216ION    NA+38625   9.914  33.334  11.695
72217ION    NA+38626  13.768  34.125   5.684
72218ION    NA+38627   9.825  24.183   2.666
72219ION    NA+38628  21.544  29.517  11.077
72220ION    NA+38629  39.355  10.618  14.427
72221ION    NA+38630  23.403  24.203   1.800
72222ION    NA+38631  21.447  20.698  13.510
72223ION    NA+38632   8.491  37.340   1.598
72224ION    NA+38633  18.739   6.624  12.655
72225ION    NA+38634  24.127   1.722  13.670
72226ION    NA+38635  30.678  37.610  13.205
72227ION    NA+38636   5.471  10.567   5.068
72228ION    NA+38637  30.272  26.068  14.906
72229ION    NA+38638  15.251   5.253   0.525
72230ION    NA+38639  33.150  31.411   4.472
72231ION    NA+38640  10.432  24.583   0.720
72232ION    NA+38641  31.410  22.914   0.061
72233ION    NA+38642  43.355  34.583   0.281
72234ION    NA+38643   2.312  43.270  12.368
72235ION    NA+38644  24.138  37.837  13.582
72236ION    NA+38645  37.500   7.199  10.604
72237ION    NA+38646  41.849  21.001  10.524
72238ION    NA+38647  20.184  37.564   2.641
72239ION    NA+38648  18.700  25.415  11.048
72240ION    NA+38649   4.387   1.937  12.581
72241ION    NA+38650  19.248   5.726  11.181
72242ION    NA+38651  21.992  13.078   0.385
72243ION    NA+38652  11.217  24.924  13.143
72244ION    NA+38653  11.804  21.110  12.097
72245ION    NA+38654   5.791   7.339   3.674
72246ION    NA+38655  26.694  38.995   0.988
72247ION    NA+38656  18.708  40.247   1.813
72248ION    NA+38657  34.714   0.389  10.074
72249ION    NA+38658  29.591  19.821  11.932
72250ION    NA+38659  32.071  16.180   0.714
72251ION    NA+38660   3.420  26.506  12.509
72252ION    NA+38661  16.545   2.747   4.158
72253ION    NA+38662  23.660  29.034  14.012
72254ION    NA+38663  37.691  17.821  11.757
72255ION    NA+38664  30.189   7.792   0.970
72256ION    NA+38665  37.126  20.442  11.455
72257ION    NA+38666  14.865   1.243   3.544
72258ION    NA+38667  22.749  19.836   3.644
72259ION    NA+38668  32.944  29.493  13.958
72260ION    NA+38669  13.585  17.619   0.817
72261ION    NA+38670  33.787  25.316   1.699
72262ION    NA+38671  26.512  33.100   0.411
72263ION    NA+38672  23.443  27.545  13.659
72264ION    NA+38673  19.072  32.388   3.022
72265ION    NA+38674  11.923  17.202   4.255
72266ION    NA+38675  19.592   8.487   4.143
72267ION    NA+38676  25.489  22.458  12.693
72268ION    NA+38677  16.787  41.114   5.113
72269ION    NA+38678  35.031  14.327  10.458
72270ION    NA+38679   3.852  19.175   2.187
72271ION    NA+38680  23.140  38.510   0.885
72272ION    NA+38681  21.313  44.023   3.197
72273ION    NA+38682  13.418  17.233   3.653
72274ION    NA+38683  38.779  21.333   0.938
72275ION    NA+38684  19.614  25.112   1.919
72276ION    NA+38685  29.002  16.546   0.432
72277ION    NA+38686  37.479  23.949  11.528
72278ION    NA+38687  29.675   2.634  14.223
72279ION    NA+38688  21.240  31.436   1.747
72280ION    NA+38689  40.516  12.938  14.864
72281ION    NA+38690  15.976  16.517  13.777
72282ION    NA+38691  20.696  38.296  10.707
72283ION    NA+38692  12.089  30.635   3.789
72284ION    NA+38693   3.495  44.836   4.040
72285ION    NA+38694  19.118  43.362  14.553
72286ION    NA+38695  44.922  18.950   0.241
72287ION    NA+38696  22.777  43.711   4.062
72288ION    NA+38697  38.139  25.627  12.944
72289ION    NA+38698  22.343  32.674  13.891
72290ION    NA+38699  35.426  30.516  11.429
72291ION    NA+38700  44.649  42.692   0.716
72292ION    NA+38701   1.043  44.993   2.315
72293ION    NA+38702   1.547  16.670  11.345
72294ION    NA+38703   5.717  12.333  14.758
72295ION    NA+38704  26.491   8.151   2.671
72296ION    NA+38705  31.286   0.594   3.678
72297ION    NA+38706  34.155  39.132   3.272
72298ION    NA+38707  39.190  30.769  12.390
72299ION    NA+38708  43.277  14.235   0.420
72300ION    NA+38709  40.193  34.360   2.539
72301ION    NA+38710   2.906  35.530  13.283
72302ION    NA+38711  25.965  29.082  12.605
72303ION    NA+38712  20.550  26.148  10.654
72304ION    NA+38713  43.082  44.067   5.001
72305ION    NA+38714  30.426  43.284   2.838
72306ION    NA+38715  13.549  10.354   2.467
72307ION    NA+38716  36.027  19.269   3.115
72308ION    NA+38717  25.779  36.129   0.132
72309ION    NA+38718  32.652   6.655   2.718
72310ION    NA+38719  14.023  34.245   4.287
72311ION    NA+38720  20.150  20.632  13.118
72312ION    NA+38721   3.371  40.181   3.566
72313ION    NA+38722  30.111  44.353  13.071
72314ION    NA+38723  38.908   9.784   3.669
72315ION    NA+38724  43.469   1.098  11.812
72316ION    NA+38725  12.951   7.920   2.775
72317ION    NA+38726  27.281  39.258  13.282
72318ION    NA+38727  42.245  28.298   0.488
72319ION    NA+38728  17.786  18.666   5.360
72320ION    NA+38729  26.762  30.724  11.543
72321ION    NA+38730  14.040  31.498   4.570
72322ION    NA+38731  39.348  11.794  11.127
72323ION    NA+38732  23.148   6.497   3.700
72324ION    NA+38733  21.919  38.918  13.689
72325ION    NA+38734  20.484  17.643   4.736
72326ION    NA+38735  18.651  41.495   2.004
72327ION    NA+38736  24.152  24.480   2.751
72328ION    NA+38737   1.156  40.930   4.013
72329ION    NA+38738  41.411  33.656   2.346
72330ION    NA+38739  27.495  35.812  10.814
72331ION    NA+38740   9.490  19.071  13.556
72332ION    NA+38741   8.498  31.226   0.602
72333ION    NA+38742  42.492  17.757   4.817
72334ION    NA+38743  31.399  42.510   0.880
72335ION    NA+38744  36.070   0.437  14.547
72336ION    NA+38745  34.588  35.472   1.303
72337ION    NA+38746  22.940  14.562   3.091
72338ION    NA+38747  34.769  43.685  12.569
72339ION    NA+38748  10.174  26.905   5.119
72340ION    NA+38749  34.968  26.629  10.786
72341ION    NA+38750  11.367   5.001   1.584
72342ION    NA+38751  22.716  27.742   2.597
72343ION    NA+38752  14.732   0.276  14.277
72344ION    NA+38753  29.403  22.739   4.501
72345ION    NA+38754  43.810   8.128  14.541
72346ION    NA+38755  30.150  26.056   2.685
72347ION    NA+38756  27.422  41.525   4.326
72348ION    NA+38757  29.676  33.182   3.508
72349ION    NA+38758   2.005   8.247  11.137
72350ION    NA+38759  26.434   0.389  14.989
72351ION    NA+38760  24.508  12.236  13.790
72352ION    NA+38761  33.271  24.293   4.339
72353ION    NA+38762  16.833  26.802   2.775
72354ION    NA+38763   0.281  13.563   1.976
72355ION    NA+38764   3.069   5.028   2.104
72356ION    NA+38765  21.676  43.607  11.184
72357ION    NA+38766  41.175  21.644  14.687
72358ION    NA+38767   3.079   0.404  12.353
72359ION    NA+38768  12.195  43.026   0.754
72360ION    NA+38769  16.992  15.451   1.639
72361ION    NA+38770  13.149  12.309   1.084
72362ION    NA+38771   2.745  27.080   1.130
72363ION    NA+38772  43.336   1.535  12.701
72364ION    NA+38773  15.836   8.365   4.618
72365ION    NA+38774  37.124   2.874  12.039
72366ION    NA+38775  29.708  27.869  13.746
72367ION    NA+38776  39.448  10.214   4.621
72368ION    NA+38777   6.144  38.495   1.513
72369ION    NA+38778   3.930  40.540  10.913
72370ION    NA+38779   5.002  32.012  12.454
72371ION    NA+38780   0.676   1.318  10.289
72372ION    NA+38781  11.796   5.853   3.467
72373ION    NA+38782   5.066  15.618  14.193
72374ION    NA+38783   8.841  16.683  13.507
72375ION    NA+38784  40.493   0.821  13.594
72376ION    NA+38785   3.001  22.693  12.917
72377ION    NA+38786  15.794  40.717   4.055
72378ION    NA+38787  27.743  38.285  12.478
72379ION    NA+38788  42.828   5.695   0.720
72380ION    NA+38789   7.167  33.891   0.952
72381ION    NA+38790  15.699  14.345   2.191
72382ION    NA+38791  31.200  23.728   3.874
72383ION    NA+38792   8.263  15.576  12.411
72384ION    NA+38793  40.480  23.127   4.104
72385ION    NA+38794  22.837   9.942  13.230
72386ION    NA+38795   3.955  30.033   4.705
72387ION    NA+38796  34.214   0.233  13.739
72388ION    NA+38797  27.846   1.672   3.603
72389ION    NA+38798  31.315   2.606  14.207
72390ION    NA+38799  26.345  24.463   2.948
72391ION    NA+38800  34.316  24.658   3.362
72392ION    NA+38801  20.565  34.119   2.651
72393ION    NA+38802  29.059  23.534  12.120
72394ION    NA+38803  41.561  40.808  14.756
72395ION    NA+38804   9.280  10.791  10.800
72396ION    NA+38805  24.194  16.843   4.835
72397ION    NA+38806  12.519   6.336   0.387
72398ION    NA+38807  12.884  28.906   2.809
72399ION    NA+38808  43.734  19.083  13.772
72400ION    NA+38809  33.302  23.351   3.301
72401ION    NA+38810  24.735  44.542  13.887
72402ION    NA+38811  30.327   3.863  11.968
72403ION    NA+38812   3.512   7.317   1.761
72404ION    NA+38813   4.792  17.473   0.454
72405ION    NA+38814   3.261  30.323   0.638
72406ION    NA+38815  23.175  30.672  11.630
72407ION    NA+38816  30.888   0.544  14.882
72408ION    NA+38817  22.525  35.906   2.611
72409ION    NA+38818  16.900  31.669   4.024
72410ION    NA+38819  44.341   0.673   9.813
72411ION    NA+38820   6.480   6.801   1.884
72412ION    NA+38821  19.922   6.895   0.579
72413ION    NA+38822  13.288  32.139   3.301
72414ION    NA+38823   7.754   0.487   4.228
72415ION    NA+38824  43.815   0.683  13.038
72416ION    NA+38825   9.581   0.496   2.778
72417ION    NA+38826   0.363  30.095   1.635
72418ION    NA+38827  16.784  40.792   3.617
72419ION    NA+38828  16.099  42.385  13.135
72420ION    NA+38829  36.001  15.504   0.365
72421ION    NA+38830  16.978   3.509   4.644
72422ION    NA+38831  24.739  11.159   3.298
72423ION    NA+38832  20.526   4.454   0.621
72424ION    NA+38833  43.630  19.426  14.706
72425ION    NA+38834   4.608   6.705   0.340
72426ION    NA+38835  36.836  22.987   3.178
72427ION    NA+38836  12.492  44.782  14.093
72428ION    NA+38837   0.794  16.290  13.324
72429ION    NA+38838  38.668  40.437   4.681
72430ION    NA+38839  34.075  36.753   1.549
72431ION    NA+38840  24.087  30.174  13.761
72432ION    NA+38841  28.435  20.689  11.039
72433ION    NA+38842   0.445  20.938   5.124
72434ION    NA+38843   0.838   7.206  12.014
72435ION    NA+38844  25.528  10.418  12.499
72436ION    NA+38845  25.095  20.344   1.712
72437ION    NA+38846  29.167   0.283  14.189
72438ION    NA+38847   5.428  18.841   2.636
72439ION    NA+38848  26.386  30.869   4.210
72440ION    NA+38849  19.747  35.451   0.981
72441ION    NA+38850   7.468  22.545  11.102
72442ION    NA+38851  37.056  42.797  13.437
72443ION    NA+38852  10.296   6.798   4.355
72444ION    NA+38853  38.857  10.629  12.189
72445ION    NA+38854  37.574  18.652   1.950
72446ION    NA+38855  21.237   4.218  14.351
72447ION    NA+38856   3.681  21.614   1.357
72448ION    NA+38857   5.637  17.392  12.107
72449ION    NA+38858   0.185   9.753   2.474
72450ION    NA+38859   7.731   7.820   0.420
72451ION    NA+38860  20.577  42.536  14.641
72452ION    NA+38861  25.284  27.449  11.204
72453ION    NA+38862  21.832   4.357   3.233
72454ION    NA+38863  43.208  38.908   0.762
72455ION    NA+38864  43.871   9.664   0.361
72456ION    NA+38865   4.480  38.512   0.273
72457ION    NA+38866   5.310  35.170  14.176
72458ION    NA+38867  14.290  38.318  12.422
72459ION    NA+38868   5.951  44.472   1.900
72460ION    NA+38869  27.674  29.619  11.697
72461ION    NA+38870  28.079  44.886  10.694
72462ION    NA+38871   2.095   2.134   4.020
72463ION    NA+38872  41.885  16.594  14.060
72464ION    NA+38873  21.989  40.954   4.669
72465ION    NA+38874  17.527  37.352  12.846
72466ION    NA+38875  15.410  21.708   4.029
72467ION    NA+38876   9.362  29.629  14.988
72468ION    NA+38877  12.355  30.625  10.648
72469ION    NA+38878  39.050  38.133   3.504
72470ION    NA+38879  17.959   8.060   3.500
72471ION    NA+38880  10.526  44.671   3.774
72472ION    NA+38881   8.861   4.714   3.259
72473ION    NA+38882  12.616  28.475   3.685
72474ION    NA+38883   9.755  24.388   0.004
72475ION    NA+38884   2.571   0.026   4.372
72476ION    NA+38885  14.557  28.457  13.876
72477ION    NA+38886  34.997  44.634  11.330
72478ION    NA+38887  18.624  18.113   9.908
72479ION    NA+38888   5.246  31.436   2.887
72480ION    NA+38889  42.176  18.777   4.000
72481ION    NA+38890  37.015  17.483   0.176
72482ION    NA+38891  43.869  23.454  10.962
72483ION    NA+38892  20.744   9.793   2.788
72484ION    NA+38893  12.245  22.128  12.240
72485ION    NA+38894  13.571  23.139   4.936
72486ION    NA+38895  14.355  35.269  12.529
72487ION    NA+38896  18.183  32.976  13.791
72488ION    NA+38897  13.284   6.730   2.742
72489ION    NA+38898  21.604  37.880  10.752
72490ION    NA+38899   0.229  43.963  12.990
72491ION    NA+38900  21.173   1.253  13.571
72492ION    NA+38901  37.858  30.003   3.647
72493ION    NA+38902  24.942  38.654  12.932
72494ION    NA+38903  11.472  20.953  11.081
72495ION    NA+38904   9.627  39.241  11.420
72496ION    NA+38905  40.726  23.472  11.051
72497ION    NA+38906  27.469   2.661  11.487
72498ION    NA+38907  21.398  13.528  11.490
72499ION    NA+38908  42.461  27.952   2.880
72500ION    NA+38909   2.413  33.711   1.157
72501ION    NA+38910  29.276   4.004  12.728
72502ION    NA+38911   7.631  20.313   0.051
72503ION    NA+38912  16.340  15.609   2.409
72504ION    NA+38913  12.976   1.016  13.357
72505ION    NA+38914   3.184  17.399  11.651
72506ION    NA+38915  42.194  34.153  12.077
72507ION    NA+38916  36.141  10.265  12.400
72508ION    NA+38917   9.102  25.255  14.830
72509ION    NA+38918  36.677  21.729   0.558
72510ION    NA+38919  34.605   1.214  12.521
72511ION    NA+38920  31.421  37.613  13.639
72512ION    NA+38921  32.880  32.734   3.035
72513ION    NA+38922  17.502  35.532   0.462
72514ION    NA+38923   5.437  30.360  12.315
72515ION    NA+38924  30.936  44.295   4.109
72516ION    NA+38925  17.537  36.170  13.418
72517ION    NA+38926   9.442   5.332   0.015
72518ION    NA+38927  18.099  44.109   2.704
72519ION    NA+38928   5.622   8.450  11.045
72520ION    NA+38929  13.113  15.632   1.631
72521ION    NA+38930  35.846  32.713  14.775
72522ION    NA+38931  43.429  31.653  13.956
72523ION    NA+38932  30.980  29.098   2.821
72524ION    NA+38933  35.436  30.445   3.444
72525ION    NA+38934  13.821  34.152   5.054
72526ION    NA+38935  13.386  19.237   4.066
72527ION    NA+38936   4.736  10.317   3.962
72528ION    NA+38937  44.506   4.820   1.659
72529ION    NA+38938  15.379  32.128   0.738
72530ION    NA+38939  11.217   2.298  12.530
72531ION    NA+38940  32.943  16.376   4.199
72532ION    NA+38941   8.782  29.924   4.229
72533ION    NA+38942  21.023  19.967  12.834
72534ION    NA+38943  42.461  43.916   2.773
72535ION    NA+38944  44.242  24.663   5.312
72536ION    NA+38945   2.521  43.370  11.345
72537ION    NA+38946   9.052  17.904  10.223
72538ION    NA+38947  23.210   6.993   1.930
72539ION    NA+38948  17.111   4.107   3.149
72540ION    NA+38949  24.231  19.194  11.628
72541ION    NA+38950  27.478  27.781  13.221
72542ION    NA+38951  22.003  41.560   1.321
72543ION    NA+38952  26.548   8.885   0.512
72544ION    NA+38953  11.754  31.616   0.309
72545ION    NA+38954  39.373  22.024   1.349
72546ION    NA+38955  26.507  29.461  13.952
72547ION    NA+38956  15.299  11.689  11.580
72548ION    NA+38957  30.531  39.234  11.164
72549ION    NA+38958  20.261  36.526  13.042
72550ION    NA+38959  44.825   6.673  13.077
72551ION    NA+38960  25.270   9.085  14.533
72552ION    NA+38961  26.442   2.973  12.001
72553ION    NA+38962  29.718  13.876  11.601
72554ION    NA+38963  12.168   5.767   2.738
72555ION    NA+38964   2.745  41.541   2.142
72556ION    NA+38965   4.970  18.692   4.008
72557ION    NA+38966  11.418   9.704   2.750
72558ION    NA+38967   7.470  23.911   2.571
72559ION    NA+38968  22.117   7.907  11.431
72560ION    NA+38969  42.578   8.166  12.777
72561ION    NA+38970   1.622  34.003   1.695
72562ION    NA+38971   6.156  34.859  14.206
72563ION    NA+38972  35.831  17.624   0.375
72564ION    NA+38973  12.506  13.146  11.723
72565ION    NA+38974  33.445  39.886  14.434
72566ION    NA+38975   5.796  21.001  11.498
72567ION    NA+38976   2.921  20.708  14.034
72568ION    NA+38977  15.179   5.641   4.100
72569ION    NA+38978  44.231  28.059   2.503
72570ION    NA+38979   9.870   2.546  10.523
72571ION    NA+38980  19.175  44.011   3.260
72572ION    NA+38981  32.084  23.089   3.770
72573ION    NA+38982  24.952   0.095  11.156
72574ION    NA+38983  11.939   4.046   4.341
72575ION    NA+38984   6.071   8.370  12.780
72576ION    NA+38985  33.678   1.341  11.107
72577ION    NA+38986  12.070  19.535   2.683
72578ION    NA+38987   1.336  16.814   3.177
72579ION    NA+38988  35.996  27.630  14.923
72580ION    NA+38989  42.267   4.385  13.339
72581ION    NA+38990  30.259  16.147   2.477
72582ION    NA+38991  42.434  28.446   2.011
72583ION    NA+38992  20.166  10.403   3.123
72584ION    NA+38993   5.913   5.773   0.619
72585ION    NA+38994  43.071  21.241  14.781
72586ION    NA+38995   6.553  24.196   0.656
72587ION    NA+38996  26.155  30.421  14.005
72588ION    NA+38997  15.388  11.785   1.856
72589ION    NA+38998   4.399   1.896   1.316
72590ION    NA+38999  14.724  23.634   2.314
72591ION    NA+39000  31.996  15.913   2.648
72592ION    NA+39001  19.695   7.179  12.105
72593ION    NA+39002  36.175  18.830  14.948
72594ION    NA+39003  22.945  42.821  12.530
72595ION    NA+39004   2.008  30.651  13.101
72596ION    NA+39005  14.569   9.215  14.775
72597ION    NA+39006  43.211  28.439   3.353
72598ION    NA+39007   6.896  17.781  14.922
72599ION    NA+39008  11.902  13.169  14.086
72600ION    NA+39009  43.541  26.566   0.668
72601ION    NA+39010  36.137  10.176  13.757
72602ION    NA+39011   7.105  29.657   2.801
72603ION    NA+39012  11.614  42.393   4.900
72604ION    NA+39013  44.878   2.439  10.762
72605ION    NA+39014   7.435  30.117  12.700
72606ION    NA+39015   9.819  18.221   3.285
72607ION    NA+39016   2.747   0.274  13.348
72608ION    NA+39017  11.338   2.574   3.271
72609ION    NA+39018  39.274  35.328   0.672
72610ION    NA+39019  30.284  28.382   2.761
72611ION    NA+39020   6.602   7.504   4.892
72612ION    NA+39021  41.515   0.451   0.857
72613ION    NA+39022  36.978  43.863   0.785
72614ION    NA+39023   8.599  31.724   4.427
72615ION    NA+39024  35.157  25.947  12.368
72616ION    NA+39025  41.311   1.911   1.144
72617ION    NA+39026   0.434  24.189  11.175
72618ION    NA+39027  39.957  11.593   2.008
72619ION    NA+39028  44.975  10.919  12.620
72620ION    NA+39029   6.786  17.852  13.161
72621ION    NA+39030  32.334  31.603  12.486
72622ION    NA+39031  23.164  42.182  14.750
72623ION    NA+39032  44.240  38.162   1.347
72624ION    NA+39033  21.810  32.324  14.516
72625ION    NA+39034   3.061  22.462   5.056
72626ION    NA+39035  26.200  22.398   3.600
72627ION    NA+39036  19.834  32.980   3.666
72628ION    NA+39037  15.063  15.731  14.623
72629ION    NA+39038  21.469  28.306  14.455
72630ION    NA+39039  30.430  21.249   0.782
72631ION    NA+39040  37.014  15.155   2.197
72632ION    NA+39041  13.419  39.451   3.605
72633ION    NA+39042  38.861  44.996   1.527
72634ION    NA+39043  21.293  13.026  10.768
72635ION    NA+39044   2.517   5.245   3.293
72636ION    NA+39045  39.411   3.108  14.921
72637ION    NA+39046   9.408  37.006  14.832
72638ION    NA+39047  11.729  44.386   0.380
72639ION    NA+39048  39.410  42.930  13.938
72640ION    NA+39049  32.972  36.130   1.160
72641ION    NA+39050   4.269  44.903   0.994
72642ION    NA+39051   5.479  12.992  11.170
72643ION    NA+39052  36.162  22.618  12.683
72644ION    NA+39053  34.425  40.539  12.497
72645ION    NA+39054  33.503   5.223  14.003
72646ION    NA+39055   1.917  11.764   0.696
72647ION    NA+39056  18.458  30.773   2.080
72648ION    NA+39057   9.845  37.765  11.684
72649ION    NA+39058   0.014  35.508  12.068
72650ION    NA+39059  14.225  11.144   4.779
72651ION    NA+39060  20.896  26.850  14.380
72652ION    NA+39061  38.515  11.372  12.192
72653ION    NA+39062   2.492  32.199  12.324
72654ION    NA+39063   7.816  28.992  14.187
72655ION    NA+39064   4.381  19.771   4.611
72656ION    NA+39065  17.774  10.405   3.633
72657ION    NA+39066  23.178   8.592   2.759
72658ION    NA+39067   3.358  17.532  14.264
72659ION    NA+39068  40.689  24.579   2.231
72660ION    NA+39069  27.440  34.602  14.291
72661ION    NA+39070   3.661   9.300  14.542
72662ION    NA+39071  16.519   6.179  10.868
72663ION    NA+39072  21.900  17.301   1.129
72664ION    NA+39073  15.256  40.511  13.385
72665ION    NA+39074  38.175  34.218   1.769
72666ION    NA+39075   3.384  16.589   3.950
72667ION    NA+39076   8.164  11.558   4.488
72668ION    NA+39077  39.352  31.332  13.075
72669ION    NA+39078   8.342  16.181  10.990
72670ION    NA+39079   6.775  21.548   3.631
72671ION    NA+39080   4.299  42.800  13.517
72672ION    NA+39081  42.254  43.127   2.120
72673ION    NA+39082   8.245  17.518  10.691
72674ION    NA+39083  21.633   5.561   4.563
72675ION    NA+39084  29.370  11.751  13.067
72676ION    NA+39085  13.009  33.596  13.244
72677ION    NA+39086   5.433  34.339   1.278
72678ION    NA+39087   2.324  31.496   3.419
72679ION    NA+39088   2.182  43.351   4.173
72680ION    NA+39089  31.734  25.691  12.034
72681ION    NA+39090  24.494  42.447   2.420
72682ION    NA+39091   6.905  21.555   0.088
72683ION    NA+39092  43.832  11.343   0.937
72684ION    NA+39093  17.509  42.350  14.870
72685ION    NA+39094  21.889  24.233  12.755
72686ION    NA+39095   4.169  39.033   3.787
72687ION    NA+39096  13.374  28.738   0.314
72688ION    NA+39097  35.384  24.876   3.519
72689ION    NA+39098  43.760   2.936   1.024
72690ION    NA+39099  15.427  17.629  11.563
72691ION    NA+39100  25.213  21.775   4.120
72692ION    NA+39101   8.964  35.105   4.008
72693ION    NA+39102   7.820  26.756  14.546
72694ION    NA+39103  36.157  42.772   0.082
72695ION    NA+39104  11.045  11.452  13.140
72696ION    NA+39105   2.267  27.146  14.594
72697ION    NA+39106  29.631  34.009  11.468
72698ION    NA+39107  41.827  36.547   2.668
72699ION    NA+39108  16.201  32.180  11.863
72700ION    NA+39109  38.495  27.814  14.812
72701ION    NA+39110  24.583  34.510   1.259
72702ION    NA+39111  16.218   8.533  14.577
72703ION    NA+39112  21.531  24.859  11.172
72704ION    NA+39113  22.336  24.270  11.096
72705ION    NA+39114  27.278  33.169  10.880
72706ION    NA+39115  33.010  21.337   3.396
72707ION    NA+39116  36.767   9.926  13.204
72708ION    NA+39117  19.965  43.411  11.875
72709ION    NA+39118  42.006  31.441  14.894
72710ION    NA+39119  23.111  22.969  10.929
72711ION    NA+39120  22.149   4.553   2.022
72712ION    NA+39121  28.876  32.483  13.943
72713ION    NA+39122  44.650   8.408  13.358
72714ION    NA+39123   5.501  33.652   3.195
72715ION    NA+39124  42.937  34.997  11.495
72716ION    NA+39125  25.310   8.039  14.242
72717ION    NA+39126  32.892  14.059  13.455
72718ION    NA+39127  29.606  16.885   1.674
72719ION    NA+39128  39.771   7.861   2.164
72720ION    NA+39129  30.365  11.593  13.103
72721ION    NA+39130  38.078   5.582   4.082
72722ION    NA+39131  44.262  16.655  11.069
72723ION    NA+39132  35.657   0.090  11.926
72724ION    NA+39133  25.956  26.400   3.641
72725ION    NA+39134  41.710  33.990   0.482
72726ION    NA+39135  44.075  37.830   2.708
72727ION    NA+39136  31.117   9.075   3.309
72728ION    NA+39137  26.857  13.601   1.302
72729ION    NA+39138  26.658   9.675   2.173
72730ION    NA+39139   0.767   2.088  12.980
72731ION    NA+39140  27.280  17.262   4.146
72732ION    NA+39141  34.032  38.017  14.085
72733ION    NA+39142  19.326  27.594  12.093
72734ION    NA+39143  44.132  41.565  14.363
72735ION    NA+39144  42.161  35.962  11.269
72736ION    NA+39145   3.708   6.303  14.291
72737ION    NA+39146  36.113  24.238  11.773
72738ION    NA+39147  35.739  38.695  13.359
72739ION    NA+39148  38.388  22.276  13.293
72740ION    NA+39149  19.248   7.656   4.270
72741ION    NA+39150  12.916   8.436   0.992
72742ION    NA+39151   9.610  22.191   0.336
72743ION    NA+39152  40.799  36.957   1.849
72744ION    NA+39153  16.203   2.569  11.301
72745ION    NA+39154  43.204   4.588   3.336
72746ION    NA+39155  10.590  23.442   0.769
72747ION    NA+39156   0.959  44.379   5.106
72748ION    NA+39157  14.860  34.392  13.095
72749ION    NA+39158   6.375  36.071  14.325
72750ION    NA+39159  44.012  14.763  14.994
72751ION    NA+39160  26.900  32.172   0.122
72752ION    NA+39161   6.203  42.408  12.602
72753ION    NA+39162  39.648   5.117  11.185
72754ION    NA+39163  26.623   8.998   3.238
72755ION    NA+39164  26.186  40.747  11.353
72756ION    NA+39165  14.827  21.823   2.300
72757ION    NA+39166   4.832  37.785   4.756
72758ION    NA+39167  38.776   3.279   1.355
72759ION    NA+39168  43.410  25.121  13.483
72760ION    NA+39169  38.216  33.823   0.485
72761ION    NA+39170  26.627  32.156   4.180
72762ION    NA+39171  12.175  29.323   0.753
72763ION    NA+39172   8.873  15.299  13.153
72764ION    NA+39173   0.946  26.235   2.756
72765ION    NA+39174   1.178  41.527  12.520
72766ION    NA+39175  12.034  42.246  11.995
72767ION    NA+39176   5.886  21.965  11.749
72768ION    NA+39177  10.563   0.666   2.701
72769ION    NA+39178  29.635   5.025   0.397
72770ION    NA+39179  36.436  37.768   0.067
72771ION    NA+39180  12.742   1.891  14.210
72772ION    NA+39181  23.848  16.433  11.265
72773ION    NA+39182  15.052  19.017   2.373
72774ION    NA+39183  16.786  23.783   1.575
72775ION    NA+39184  16.039  24.652   0.932
72776ION    NA+39185  34.759  30.717   4.654
72777ION    NA+39186   7.322   0.267  11.629
72778ION    NA+39187  10.631  43.849  14.458
72779ION    NA+39188  15.009  25.677  10.261
72780ION    NA+39189  20.181  17.913   3.454
72781ION    NA+39190  33.003  27.052   3.504
72782ION    NA+39191  19.621  24.089  11.250
72783ION    NA+39192  33.998  31.768  14.216
72784ION    NA+39193  23.091   8.419   0.790
72785ION    NA+39194  39.479  35.574   3.645
72786ION    NA+39195   0.308  20.635   4.241
72787ION    NA+39196  39.055   8.377  10.272
72788ION    NA+39197  10.103  44.284   4.602
72789ION    NA+39198  39.808  22.715  14.347
72790ION    NA+39199  10.164   5.807   4.332
72791ION    NA+39200   0.226  21.943   3.141
72792ION    NA+39201  17.379  24.623   3.883
72793ION    NA+39202  24.677  32.384   0.479
72794ION    NA+39203  24.225   3.511  13.015
72795ION    NA+39204  37.271  15.341  12.401
72796ION    NA+39205  42.799  34.579   1.113
72797ION    NA+39206   6.700   3.359   0.529
72798ION    NA+39207   9.414  31.937  10.431
72799ION    NA+39208   7.618  17.160   4.065
72800ION    NA+39209  44.628  10.893   0.490
72801ION    NA+39210  12.686  31.474  13.086
72802ION    NA+39211  17.722  25.821  11.058
72803ION    NA+39212  33.102   7.863  11.447
72804ION    NA+39213   6.351   7.399  11.484
72805ION    NA+39214  23.434  21.681  14.520
72806ION    NA+39215  37.894  27.019  14.894
72807ION    NA+39216  35.860  20.216  11.975
72808ION    NA+39217  28.904   3.668  10.967
72809ION    NA+39218   0.518   4.668   2.610
72810ION    NA+39219  43.154  35.627   3.804
72811ION    NA+39220  35.859  24.003  13.924
72812ION    NA+39221  44.777  37.930  10.665
72813ION    NA+39222  19.638  22.515   2.252
72814ION    NA+39223  21.822  12.145  13.339
72815ION    NA+39224  40.433  18.959   4.746
72816ION    NA+39225   8.492   9.472  12.777
72817ION    NA+39226  40.704  41.861   1.087
72818ION    NA+39227   3.955  30.417   2.602
72819ION    NA+39228   7.886  29.320   3.093
72820ION    NA+39229  28.808   2.375  14.684
72821ION    NA+39230  14.082  12.289   1.669
72822ION    NA+39231   0.378  27.228   0.355
72823ION    NA+39232   4.833  41.998   1.226
72824ION    NA+39233  19.247  30.348   1.898
72825ION    NA+39234   0.872   1.257   1.769
72826ION    NA+39235  38.747  40.461  11.896
72827ION    NA+39236  12.566  28.859  12.976
72828ION    NA+39237  29.335  43.191  10.739
72829ION    NA+39238  19.940  31.675   3.771
72830ION    NA+39239  17.049  31.342   5.272
72831ION    NA+39240  38.774  30.488   0.723
72832ION    NA+39241  43.922  34.926   4.549
72833ION    NA+39242  34.984  42.957   5.277
72834ION    NA+39243  29.640  21.126  11.938
72835ION    NA+39244  21.364  10.600  14.737
72836ION    NA+39245   6.220  35.480   0.923
72837ION    NA+39246  18.937  20.404  11.182
72838ION    NA+39247  37.882  12.654   1.221
72839ION    NA+39248  33.538  14.240  12.396
72840ION    NA+39249  21.451  11.365   2.096
72841ION    NA+39250  28.031  36.565  10.815
72842ION    NA+39251  41.016  10.455  11.233
72843ION    NA+39252  44.279   2.959  10.068
72844ION    NA+39253  23.562  42.897   5.340
72845ION    NA+39254   8.814  34.315  12.924
72846ION    NA+39255  37.119   2.713   2.779
72847ION    NA+39256  21.424  18.695   2.420
72848ION    NA+39257  32.058  24.923  13.060
72849ION    NA+39258  15.383  37.094   2.746
72850ION    NA+39259   7.405  15.955  14.437
72851ION    NA+39260  12.751  17.593   0.762
72852ION    NA+39261  29.858  13.888   1.788
72853ION    NA+39262  41.286  29.170   3.703
72854ION    NA+39263   8.795   7.461  14.746
72855ION    NA+39264  40.539   2.692   3.672
72856ION    NA+39265  21.840  15.726  11.740
72857ION    NA+39266  43.252  22.213  10.580
72858ION    NA+39267   5.698  21.760   3.817
72859ION    NA+39268  18.085  26.811   4.521
72860ION    NA+39269  10.632  15.656   3.580
72861ION    NA+39270  42.589  24.982  10.812
72862ION    NA+39271  38.068  40.334  10.744
72863ION    NA+39272  32.491  32.519  13.292
72864ION    NA+39273  14.192  25.493   0.381
72865ION    NA+39274  39.006   7.234  13.408
72866ION    NA+39275  14.810  41.101  12.084
72867ION    NA+39276  29.425  39.524   1.802
72868ION    NA+39277  29.992   0.736   4.447
72869ION    NA+39278   8.823  11.769  10.599
72870ION    NA+39279  16.788  25.253   2.284
72871ION    NA+39280  41.000  17.905   3.660
72872ION    NA+39281  37.437  34.359   0.966
72873ION    NA+39282  42.300  21.016   3.051
72874ION    NA+39283   9.711   5.169  11.942
72875ION    NA+39284   1.629  44.464   4.369
72876ION    NA+39285  40.187  38.841  13.443
72877ION    NA+39286  44.875   5.679  12.865
72878ION    NA+39287  34.829  26.454   2.642
72879ION    NA+39288  26.637  29.697   3.559
72880ION    NA+39289  14.557   0.204   0.530
72881ION    NA+39290  29.683   1.783   0.034
72882ION    NA+39291  40.185  33.707  14.676
72883ION    NA+39292  27.422   6.779   1.310
72884ION    NA+39293  35.539  15.589  14.482
72885ION    NA+39294  11.260   6.586  11.210
72886ION    NA+39295  13.296  44.890   0.850
72887ION    NA+39296  31.708  42.525  12.632
72888ION    NA+39297  33.455   1.950   2.809
72889ION    NA+39298  19.253  12.316  14.472
72890ION    NA+39299  35.802  11.219  12.398
72891ION    NA+39300  24.299  38.350   4.466
72892ION    NA+39301   1.362  31.918   3.804
72893ION    NA+39302  15.515   1.098   5.425
72894ION    NA+39303   7.976  32.042  14.019
72895ION    NA+39304  32.362  21.658  13.852
72896ION    NA+39305  32.482  30.535   1.502
72897ION    NA+39306  30.428   5.148   3.313
72898ION    NA+39307  13.447  43.077  12.825
72899ION    NA+39308  15.835   3.665   2.738
72900ION    NA+39309  20.547  23.988   4.196
72901ION    NA+39310  22.647   0.755  12.086
72902ION    NA+39311  38.626   5.612   0.703
72903ION    NA+39312  22.083  23.716  11.922
72904ION    NA+39313  30.364   1.165   2.867
72905ION    NA+39314  20.336  43.278   3.332
72906ION    NA+39315  19.618  18.818   4.115
72907ION    NA+39316  15.749  19.241  13.784
72908ION    NA+39317  39.288  42.772  12.954
72909ION    NA+39318   0.628  28.898   1.093
72910ION    NA+39319  13.128  42.458  10.203
72911ION    NA+39320   5.844  37.316   1.632
72912ION    NA+39321  34.571  28.893  10.757
72913ION    NA+39322  17.174  29.511  11.376
72914ION    NA+39323  34.287  19.461   0.919
72915ION    NA+39324  32.829   4.094  12.206
72916ION    NA+39325  29.197  31.836   4.513
72917ION    NA+39326  27.477  25.161  12.352
72918ION    NA+39327  24.654  26.231   3.776
72919ION    NA+39328  23.542  44.242  11.535
72920ION    NA+39329  18.212  26.063   3.336
72921ION    NA+39330  14.217  11.464   2.000
72922ION    NA+39331  16.171  37.775  14.327
72923ION    NA+39332  39.954  39.653   0.670
72924ION    NA+39333  27.066  19.047  14.672
72925ION    NA+39334  26.677  37.889   2.737
72926ION    NA+39335   5.376  20.519  14.938
72927ION    NA+39336  23.534  33.388   0.617
72928ION    NA+39337   2.946  18.279  12.065
72929ION    NA+39338  43.775  32.538   4.413
72930ION    NA+39339   2.983  34.874   0.409
72931ION    NA+39340  30.110  24.509   2.837
72932ION    NA+39341   0.602   6.159  12.084
72933ION    NA+39342  27.062  43.682   2.781
72934ION    NA+39343  10.504   2.543   2.721
72935ION    NA+39344   7.968  39.575  14.290
72936ION    NA+39345   6.042   6.883  14.732
72937ION    NA+39346   7.636  35.182  11.727
72938ION    NA+39347  20.428  34.670  13.258
72939ION    NA+39348   2.748   5.671   1.349
72940ION    NA+39349  31.332  25.279  10.474
72941ION    NA+39350  21.553  21.280  12.682
72942ION    NA+39351  12.326  16.479  13.276
72943ION    NA+39352  17.288  34.371  11.687
72944ION    NA+39353  37.056  35.098   2.387
72945ION    NA+39354  14.597   2.669  11.760
72946ION    NA+39355  12.890   2.296   1.266
72947ION    NA+39356  22.666   9.752  14.197
72948ION    NA+39357  34.072  35.435   0.447
72949ION    NA+39358  10.501  18.443   4.085
72950ION    NA+39359  18.110  35.457   2.429
72951ION    NA+39360  39.111  19.098   4.484
72952ION    NA+39361  19.834  33.919   3.320
72953ION    NA+39362  12.128  24.264  14.636
72954ION    NA+39363  22.951   0.742   1.881
72955ION    NA+39364   0.429  31.583  13.331
72956ION    NA+39365   9.657   2.272   0.397
72957ION    NA+39366  33.082   7.726  14.517
72958ION    NA+39367  40.537   3.699   3.720
72959ION    NA+39368  26.576  39.457  12.609
72960ION    NA+39369  11.162  40.983   2.057
72961ION    NA+39370  32.153   5.076  14.793
72962ION    NA+39371  11.024  36.612  13.752
72963ION    NA+39372  19.089  32.094  14.599
72964ION    NA+39373  44.901   2.524   2.937
72965ION    NA+39374  28.975  43.497  14.103
72966ION    NA+39375  16.904   5.182   1.001
72967ION    NA+39376  24.493  42.486  13.897
72968ION    NA+39377  31.183  15.603   1.278
72969ION    NA+39378  26.997  12.155   3.018
72970ION    NA+39379   0.148  34.028  13.441
72971ION    NA+39380  15.383   3.810   1.507
72972ION    NA+39381  29.720  12.786   2.910
72973ION    NA+39382  33.365  32.595   1.435
72974ION    NA+39383   8.163   5.851   2.004
72975ION    NA+39384  15.408  17.264   3.066
72976ION    NA+39385  30.497  33.132  13.977
72977ION    NA+39386  14.023   5.391  13.158
72978ION    NA+39387  42.565  14.881  11.500
72979ION    NA+39388  18.594  17.114   9.924
72980ION    NA+39389   8.043  14.099   3.800
72981ION    NA+39390  23.519  38.544  12.564
72982ION    NA+39391  22.674  15.382   2.014
72983ION    NA+39392  34.891  21.950   3.827
72984ION    NA+39393   5.217  24.974   2.362
72985ION    NA+39394  16.547  43.909   4.593
72986ION    NA+39395  43.228   2.549  14.828
72987ION    NA+39396  38.937  14.214   5.220
72988ION    NA+39397  14.333  33.603   0.577
72989ION    NA+39398  13.353  29.560  13.624
72990ION    NA+39399  15.649  24.625  12.950
72991ION    NA+39400   0.858  22.920   0.352
72992ION    NA+39401   6.804  25.683  13.022
72993ION    NA+39402   3.255  18.046   1.317
72994ION    NA+39403  41.197  22.178   3.173
72995ION    NA+39404  33.968  31.354   4.894
72996ION    NA+39405  11.152  15.461  11.699
72997ION    NA+39406  21.222  16.073  12.456
72998ION    NA+39407  36.719  24.344   1.940
72999ION    NA+39408   6.795  39.173  13.856
73000ION    NA+39409  17.875   7.739  14.908
73001ION    NA+39410  32.411  35.705  14.978
73002ION    NA+39411  35.050   1.473  11.185
73003ION    NA+39412  11.445   0.926  14.456
73004ION    NA+39413   6.596  28.896   2.017
73005ION    NA+39414  36.466  26.623   0.490
73006ION    NA+39415  37.009  36.298   1.554
73007ION    NA+39416  43.952  38.335   0.212
73008ION    NA+39417  20.099  25.740   0.531
73009ION    NA+39418   2.124  40.497   5.297
73010ION    NA+39419  39.986  23.310   2.641
73011ION    NA+39420  40.083  18.827   0.104
73012ION    NA+39421  40.995  18.480   2.421
73013ION    NA+39422   2.184  10.520  13.155
73014ION    NA+39423  25.139   9.803  13.849
73015ION    NA+39424   5.959   9.091   1.952
73016ION    NA+39425  38.187  16.344  12.450
73017ION    NA+39426  26.498   1.069   1.519
73018ION    NA+39427  20.202  44.500  12.930
73019ION    NA+39428  36.628  32.971   4.832
73020ION    NA+39429  25.988  11.227   2.677
73021ION    NA+39430   6.275   7.595  13.379
73022ION    NA+39431  21.810  22.388   3.415
73023ION    NA+39432  18.514   9.639  13.814
73024ION    NA+39433  17.070  20.221  13.336
73025ION    NA+39434  30.580  16.277  11.531
73026ION    NA+39435  22.227   6.525  10.828
73027ION    NA+39436  39.875  20.429   5.036
73028ION    NA+39437   8.918  23.552   1.826
73029ION    NA+39438  12.027  39.934  12.467
73030ION    NA+39439  28.538  23.987  13.845
73031ION    NA+39440  25.763   8.235   3.760
73032ION    NA+39441  12.560   1.517   0.249
73033ION    NA+39442  42.573  26.522  12.647
73034ION    NA+39443  26.737  28.055  12.190
73035ION    NA+39444  32.419  44.929  12.776
73036ION    NA+39445  21.694  37.917   0.665
73037ION    NA+39446  39.161  14.251  11.086
73038ION    NA+39447  21.056  40.696  12.221
73039ION    NA+39448  25.440  11.804  12.968
73040ION    NA+39449  27.310  12.868   1.581
73041ION    NA+39450  12.669  35.942  13.095
73042ION    NA+39451   1.936   4.891   0.180
73043ION    NA+39452  22.082  42.945  14.675
73044ION    NA+39453  10.493   5.410   2.628
73045ION    NA+39454  21.285   4.074   0.793
73046ION    NA+39455  37.541  32.427   4.291
73047ION    NA+39456  16.736  25.980  11.017
73048ION    NA+39457  17.636  13.852   3.208
73049ION    NA+39458  22.726  13.644  10.264
73050ION    NA+39459  13.400  13.194  11.593
73051ION    NA+39460   7.706  39.006  13.480
73052ION    NA+39461  27.968  35.011   3.611
73053ION    NA+39462   9.022  11.234  12.402
73054ION    NA+39463   5.224  40.532   1.705
73055ION    NA+39464  17.669   2.274  12.975
73056ION    NA+39465   7.548   3.327   9.720
73057ION    NA+39466  23.191   6.443  14.768
73058ION    NA+39467  41.970   3.271   5.322
73059ION    NA+39468  35.444  18.007   3.181
73060ION    NA+39469   3.673  39.422   2.800
73061ION    NA+39470  14.623  40.524   2.051
73062ION    NA+39471  16.613  30.022  13.415
73063ION    NA+39472  14.255   1.025   0.819
73064ION    NA+39473  37.868  30.135   2.655
73065ION    NA+39474  25.192  18.603   0.203
73066ION    NA+39475  26.110   4.749  11.921
73067ION    NA+39476  36.040  12.498  14.068
73068ION    NA+39477   7.374  27.552   3.346
73069ION    NA+39478  39.703   8.501   4.093
73070ION    NA+39479  14.271  11.745  11.805
73071ION    NA+39480  23.066  13.793  13.253
73072ION    NA+39481  18.727  11.106  14.306
73073ION    NA+39482  16.514   6.387   4.892
73074ION    NA+39483  16.907  16.079   4.296
73075ION    NA+39484  37.331  38.321  10.789
73076ION    NA+39485  11.512   8.617  14.279
73077ION    NA+39486  40.668  23.689  14.614
73078ION    NA+39487  28.595   9.415   0.952
73079ION    NA+39488   6.365   4.151   1.057
73080ION    NA+39489  31.556  27.098  12.145
73081ION    NA+39490  23.486   3.855  13.910
73082ION    NA+39491  14.415   5.964  14.925
73083ION    NA+39492   1.794   1.911  14.962
73084ION    NA+39493  33.840  44.456  13.435
73085ION    NA+39494  18.647  20.786   3.114
73086ION    NA+39495  35.269  10.650  12.702
73087ION    NA+39496   7.037  38.209  11.682
73088ION    NA+39497   2.949  19.999  13.329
73089ION    NA+39498  42.389   6.947   1.760
73090ION    NA+39499  23.232  17.965   4.284
73091ION    NA+39500  32.693  15.342  12.319
73092ION    NA+39501  26.721  10.886  12.543
73093ION    NA+39502  20.754  19.337  14.297
73094ION    NA+39503   5.149   7.574   0.378
73095ION    NA+39504  29.204  10.190   0.783
73096ION    NA+39505   2.488  40.378  12.070
73097ION    NA+39506  16.808  19.104   1.776
73098ION    NA+39507  40.714   2.244  11.778
73099ION    NA+39508  21.127  19.782   0.111
73100ION    NA+39509  14.108  19.221  10.769
73101ION    NA+39510  41.138  18.211  14.693
73102ION    NA+39511  17.005   9.213  14.185
73103ION    NA+39512  34.831  30.778  12.510
73104ION    NA+39513   7.133  10.222  11.836
73105ION    NA+39514  44.753  39.906   4.135
73106ION    NA+39515   9.141  22.345   1.875
73107ION    NA+39516  18.012   7.331  11.514
73108ION    NA+39517  32.218  24.882   4.384
73109ION    NA+39518  30.617   9.979   2.708
73110ION    NA+39519  29.326  18.904   0.919
73111ION    NA+39520  28.514  24.248  12.880
73112ION    NA+39521  29.166  14.437   1.716
73113ION    NA+39522  44.954   9.818  14.857
73114ION    NA+39523  32.475  41.487   4.559
73115ION    NA+39524  29.692  24.707   3.616
73116ION    NA+39525   5.907   2.716   1.342
73117ION    NA+39526   9.359   8.922   3.797
73118ION    NA+39527  43.453  21.185  13.551
73119ION    NA+39528  39.287  17.411   4.231
73120ION    NA+39529   2.298   3.652  13.013
73121ION    NA+39530  44.821   0.994  10.832
73122ION    NA+39531  23.809  21.844   0.798
73123ION    NA+39532  28.411  26.833   3.349
73124ION    NA+39533  14.758   0.870  12.122
73125ION    NA+39534  18.477  27.418  14.165
73126ION    NA+39535  21.390  24.689   4.157
73127ION    NA+39536  33.461  28.626   2.414
73128ION    NA+39537  36.062  15.166   4.636
73129ION    NA+39538   2.693  15.948  10.733
73130ION    NA+39539  44.256  26.710   3.700
73131ION    NA+39540   7.400  44.629   1.987
73132ION    NA+39541  12.803   0.282   2.467
73133ION    NA+39542  39.955  38.104  12.186
73134ION    NA+39543  11.474  12.325  13.902
73135ION    NA+39544   3.372  11.711  14.795
73136ION    NA+39545  19.800  39.069  11.663
73137ION    NA+39546  19.978  23.967   0.382
73138ION    NA+39547  14.127  31.980  11.363
73139ION    NA+39548  32.337  40.897   3.163
73140ION    NA+39549  42.246   6.434   3.739
73141ION    NA+39550  29.649  26.659  11.064
73142ION    NA+39551   7.288  16.740   2.686
73143ION    NA+39552   3.505  40.184  13.896
73144ION    NA+39553   3.992   7.223   4.049
73145ION    NA+39554  21.230  28.243  13.343
73146ION    NA+39555  32.165   3.750  11.541
73147ION    NA+39556  13.314  12.789  10.577
73148ION    NA+39557  31.243  12.344   0.915
73149ION    NA+39558  20.041  10.918   0.257
73150ION    NA+39559  23.401  26.525   0.909
73151ION    NA+39560  32.569  14.141  12.172
73152ION    NA+39561   4.732  30.867   0.854
73153ION    NA+39562  33.511  32.511  14.397
73154ION    NA+39563  17.740  32.161   3.572
73155ION    NA+39564  17.563   8.086  11.035
73156ION    NA+39565  14.929   7.777   0.806
73157ION    NA+39566  29.553  32.664   4.355
73158ION    NA+39567  30.616  25.551  13.507
73159ION    NA+39568  18.028   2.478  14.000
73160ION    NA+39569  26.403  25.912   4.444
73161ION    NA+39570  10.892  17.696   1.827
73162ION    NA+39571  20.238  17.957   0.422
73163ION    NA+39572  38.671   5.440  11.192
73164ION    NA+39573   0.984   7.203   0.849
73165ION    NA+39574   1.024   7.537   2.898
73166ION    NA+39575   5.974  43.157   1.331
73167ION    NA+39576  25.424  27.365   1.913
73168ION    NA+39577  10.575  13.182   0.983
73169ION    NA+39578  34.036  15.073   1.295
73170ION    NA+39579  20.784   9.969   0.251
73171ION    NA+39580  44.959  44.832  14.265
73172ION    NA+39581  41.335  13.835   1.872
73173ION    NA+39582  19.572  34.014   4.281
73174ION    NA+39583  23.548  18.724  10.660
73175ION    NA+39584  29.340  27.365   2.248
73176ION    NA+39585  22.337  31.455  12.981
73177ION    NA+39586   1.521  10.420   3.819
73178ION    NA+39587  15.887  38.592  14.620
73179ION    NA+39588  25.193  39.927   3.827
73180ION    NA+39589  15.020  16.225  13.754
73181ION    NA+39590  11.066   4.609   2.453
73182ION    NA+39591  39.398   0.309  12.017
73183ION    NA+39592  12.854  24.504   1.160
73184ION    NA+39593  28.982  38.069  14.968
73185ION    CL-39594   8.286   4.460  10.619
73186ION    CL-39595  41.675  27.459  11.678
73187ION    CL-39596  16.023  38.170  14.504
73188ION    CL-39597  27.496   5.523   1.716
73189ION    CL-39598  26.714   4.947   1.477
73190ION    CL-39599   4.807  36.205   2.563
73191ION    CL-39600  11.856  39.669  14.309
73192ION    CL-39601  39.240  15.894   3.265
73193ION    CL-39602   4.575   6.143   3.604
73194ION    CL-39603  21.522  35.405   3.405
73195ION    CL-39604  39.605  29.690  13.086
73196ION    CL-39605   2.246   1.465  13.020
73197ION    CL-39606  32.000  14.827   4.893
73198ION    CL-39607  13.738  14.634   0.695
73199ION    CL-39608  42.433   7.898  13.949
73200ION    CL-39609  41.139  41.798   1.175
73201ION    CL-39610  40.438  19.112   0.128
73202ION    CL-39611  21.052   4.195   4.610
73203ION    CL-39612  19.892  19.903  10.101
73204ION    CL-39613   7.259  16.229  14.768
73205ION    CL-39614  25.936  35.136   2.952
73206ION    CL-39615  14.048  11.419  12.012
73207ION    CL-39616   8.623  14.788   2.065
73208ION    CL-39617  34.923  19.083   3.663
73209ION    CL-39618   7.626  24.280   2.764
73210ION    CL-39619  33.104  22.999  10.703
73211ION    CL-39620  21.783  17.703   0.963
73212ION    CL-39621  38.023  38.032  12.108
73213ION    CL-39622  26.046  36.549  11.564
73214ION    CL-39623  27.252   9.443  10.691
73215ION    CL-39624  38.305  33.985   0.078
73216ION    CL-39625  12.522  13.590   0.229
73217ION    CL-39626   1.111   1.354   4.763
73218ION    CL-39627  21.163  17.249  14.260
73219ION    CL-39628  38.381  43.598   0.747
73220ION    CL-39629  11.764  19.067  10.446
73221ION    CL-39630   4.956  44.319   1.817
73222ION    CL-39631  33.025  32.896   1.329
73223ION    CL-39632   8.892  40.385   4.129
73224ION    CL-39633   3.707  30.146  10.599
73225ION    CL-39634  13.749  21.210   0.406
73226ION    CL-39635  25.257  12.230  10.524
73227ION    CL-39636  44.710  32.868  12.967
73228ION    CL-39637  17.145  41.951  12.793
73229ION    CL-39638  44.181  22.617   0.336
73230ION    CL-39639  40.726  41.658   3.360
73231ION    CL-39640  21.654   5.175  14.411
73232ION    CL-39641  38.918  40.719  14.535
73233ION    CL-39642   9.690  20.794   3.711
73234ION    CL-39643  34.980  28.712  10.754
73235ION    CL-39644  37.848  11.545  10.771
73236ION    CL-39645  12.775  42.738  10.326
73237ION    CL-39646   1.584  19.813  11.260
73238ION    CL-39647   5.018  39.750   0.912
73239ION    CL-39648  24.950  17.647  10.752
73240ION    CL-39649  13.399  37.122  11.983
73241ION    CL-39650  11.863   4.393   4.628
73242ION    CL-39651  27.456  42.587  12.486
73243ION    CL-39652  12.490  41.996  13.447
73244ION    CL-39653  12.083  41.195  12.951
73245ION    CL-39654   4.792  15.680   4.946
73246ION    CL-39655  41.003  21.393  14.350
73247ION    CL-39656  37.308  20.841  11.541
73248ION    CL-39657  13.912  43.305   2.735
73249ION    CL-39658   5.608  30.689  12.567
73250ION    CL-39659  37.103  21.646   0.662
73251ION    CL-39660  11.942  22.036  14.378
73252ION    CL-39661   6.086  29.828  14.519
73253ION    CL-39662  43.403  32.099  13.976
73254ION    CL-39663   3.616  42.190   4.992
73255ION    CL-39664  43.733  37.539   2.791
73256ION    CL-39665  11.437  15.262  11.984
73257ION    CL-39666  16.523  31.331   3.400
73258ION    CL-39667  31.614   2.478  13.891
73259ION    CL-39668  17.657  17.882  10.525
73260ION    CL-39669  25.553  44.531   0.288
73261ION    CL-39670  26.692  21.592  12.506
73262ION    CL-39671  27.276   1.688  12.460
73263ION    CL-39672   0.224  22.775  14.385
73264ION    CL-39673  18.970  32.415   3.457
73265ION    CL-39674   8.701  16.578  13.919
73266ION    CL-39675  18.632  20.729  11.147
73267ION    CL-39676  27.595  33.489   3.314
73268ION    CL-39677  13.742  34.395   4.639
73269ION    CL-39678  26.786   4.515   3.413
73270ION    CL-39679  10.419  12.992   0.598
73271ION    CL-39680  40.355  41.469  12.039
73272ION    CL-39681  35.288  11.361  14.941
73273ION    CL-39682  39.978  26.863  11.186
73274ION    CL-39683  30.108  27.742  13.563
73275ION    CL-39684  15.037  44.041   2.415
73276ION    CL-39685  40.343  20.410   5.100
73277ION    CL-39686  14.692  23.136   4.169
73278ION    CL-39687   6.857   9.883  11.747
73279ION    CL-39688  21.928  11.539   3.250
73280ION    CL-39689   2.794   4.141   1.215
73281ION    CL-39690   4.688  21.487  11.621
73282ION    CL-39691  44.341  29.665   2.893
73283ION    CL-39692   4.695  19.270  12.942
73284ION    CL-39693   4.887  44.961  13.318
73285ION    CL-39694  27.141   1.666   2.413
73286ION    CL-39695  10.521   8.374   2.781
73287ION    CL-39696   4.422   9.881   1.567
73288ION    CL-39697  40.825   3.044   4.667
73289ION    CL-39698  39.291  23.071  12.496
73290ION    CL-39699  10.260  28.105  11.323
73291ION    CL-39700  25.451   1.522  11.983
73292ION    CL-39701  30.909  25.308  10.321
73293ION    CL-39702   8.490   9.216   4.387
73294ION    CL-39703  34.766  11.549   0.999
73295ION    CL-39704  23.091  20.436   0.439
73296ION    CL-39705  19.456  42.188  11.921
73297ION    CL-39706   2.817  22.859   4.921
73298ION    CL-39707  31.541   1.753   2.956
73299ION    CL-39708   6.658   3.963  13.617
73300ION    CL-39709   1.730  38.223  11.643
73301ION    CL-39710  33.438  28.023  11.245
73302ION    CL-39711   7.338  35.145  14.175
73303ION    CL-39712  33.697  29.426   5.028
73304ION    CL-39713  10.540  34.745   3.404
73305ION    CL-39714  41.036  19.258  11.953
73306ION    CL-39715  18.487  28.635   4.646
73307ION    CL-39716  28.599   3.703  10.300
73308ION    CL-39717   6.602  21.246   9.980
73309ION    CL-39718  42.404   3.352   3.306
73310ION    CL-39719  37.432  16.128   3.996
73311ION    CL-39720   9.672  25.112   2.153
73312ION    CL-39721  35.844   2.341  10.384
73313ION    CL-39722  38.834  11.073  12.382
73314ION    CL-39723  36.920   4.402   2.684
73315ION    CL-39724  44.540   8.285  11.382
73316ION    CL-39725  33.319  22.979   3.569
73317ION    CL-39726  24.183  30.469   0.448
73318ION    CL-39727  34.095   2.274   0.297
73319ION    CL-39728   1.193  22.064   1.934
73320ION    CL-39729  21.140   8.676  14.003
73321ION    CL-39730  38.217   5.742   4.483
73322ION    CL-39731  13.098   8.844   0.997
73323ION    CL-39732  13.143  25.685   3.399
73324ION    CL-39733  11.887  13.745  10.390
73325ION    CL-39734   9.583  32.420   0.740
73326ION    CL-39735  42.249  39.640  13.066
73327ION    CL-39736  28.927   0.488   3.735
73328ION    CL-39737  23.187  38.394   3.072
73329ION    CL-39738  18.128  36.034   4.361
73330ION    CL-39739  10.039  12.961   1.853
73331ION    CL-39740  24.331  32.244   5.008
73332ION    CL-39741  42.920  12.177   4.268
73333ION    CL-39742   6.419  15.842   3.725
73334ION    CL-39743  43.431  42.709   1.403
73335ION    CL-39744  21.881  42.549  14.609
73336ION    CL-39745  12.610  32.900   2.365
73337ION    CL-39746  11.616  15.353   0.612
73338ION    CL-39747  17.607   3.549  14.864
73339ION    CL-39748  42.869  32.857   1.586
73340ION    CL-39749  25.177  16.995  13.061
73341ION    CL-39750  42.389  39.746   1.755
73342ION    CL-39751  40.851  40.845   2.792
73343ION    CL-39752   0.039  18.245  11.618
73344ION    CL-39753  33.743  32.142  14.269
73345ION    CL-39754  24.100   4.633   3.172
73346ION    CL-39755  16.329  34.244  10.910
73347ION    CL-39756  26.840  33.171  10.972
73348ION    CL-39757  31.405  20.349  14.451
73349ION    CL-39758   4.201   4.869  11.192
73350ION    CL-39759   0.586  13.243   2.061
73351ION    CL-39760   4.375  24.628   9.783
73352ION    CL-39761  21.852  21.936   3.372
73353ION    CL-39762  15.308  34.236   3.641
73354ION    CL-39763   6.649  11.199  12.816
73355ION    CL-39764  31.505  28.619  12.561
73356ION    CL-39765  11.899  24.646  14.687
73357ION    CL-39766   4.582   8.048   1.275
73358ION    CL-39767  26.368   8.985   0.909
73359ION    CL-39768  30.090  41.311   3.189
73360ION    CL-39769   6.504  16.047   1.501
73361ION    CL-39770   2.985  13.596  13.899
73362ION    CL-39771  10.536  14.720   5.143
73363ION    CL-39772   9.762   4.915  13.811
73364ION    CL-39773  27.532  28.200  13.411
73365ION    CL-39774  15.756  25.933   1.958
73366ION    CL-39775   7.086   3.345   4.099
73367ION    CL-39776  37.230  38.059   2.372
73368ION    CL-39777   3.043  42.255  13.952
73369ION    CL-39778  32.784  15.518  12.728
73370ION    CL-39779  20.685   0.692  12.580
73371ION    CL-39780  39.913  19.588   0.864
73372ION    CL-39781  10.185  30.011  12.625
73373ION    CL-39782  28.940  43.391  10.687
73374ION    CL-39783  35.099   4.708   4.583
73375ION    CL-39784  13.852  43.071  12.611
73376ION    CL-39785  31.679  15.763  11.801
73377ION    CL-39786  32.218  21.026   1.717
73378ION    CL-39787  33.745   7.058  12.509
73379ION    CL-39788  23.673  16.512  13.827
73380ION    CL-39789   8.918  25.491   4.125
73381ION    CL-39790   2.410  19.163   2.204
73382ION    CL-39791  18.992  32.384  14.270
73383ION    CL-39792  39.594  39.552   3.848
73384ION    CL-39793  18.953  41.834  14.180
73385ION    CL-39794   0.691  24.569  11.141
73386ION    CL-39795  44.222  43.556   4.081
73387ION    CL-39796  12.393  17.651   1.036
73388ION    CL-39797  13.774   1.249  14.365
73389ION    CL-39798   5.150   3.839   4.769
73390ION    CL-39799  14.883  44.966  12.682
73391ION    CL-39800  35.559   2.042   4.897
73392ION    CL-39801  11.638  32.708  13.077
73393ION    CL-39802  37.095  17.389   0.606
73394ION    CL-39803  38.072  12.540  14.368
73395ION    CL-39804  28.846  33.754   1.175
73396ION    CL-39805  22.079  22.321  12.214
73397ION    CL-39806  39.325  15.723  14.094
73398ION    CL-39807  36.085  40.841   0.783
73399ION    CL-39808   4.104   2.695  14.999
73400ION    CL-39809  33.254  35.211   2.136
73401ION    CL-39810  31.458  23.758   2.690
73402ION    CL-39811  39.655  44.197   4.905
73403ION    CL-39812   5.798  33.267  11.871
73404ION    CL-39813  16.079  12.032   4.355
73405ION    CL-39814  26.650  18.658   1.824
73406ION    CL-39815  26.062  36.050   1.508
73407ION    CL-39816   6.619   5.444  12.508
73408ION    CL-39817  29.291  16.877   0.339
73409ION    CL-39818   8.734  37.593  11.638
73410ION    CL-39819  35.299   0.600   4.914
73411ION    CL-39820  36.167   4.363  12.069
73412ION    CL-39821  19.516  16.435   3.911
73413ION    CL-39822  32.279  38.672  12.342
73414ION    CL-39823  36.572  22.737  12.544
73415ION    CL-39824  43.073  41.414  10.321
73416ION    CL-39825  40.466  10.999  11.341
73417ION    CL-39826  18.702  11.740  12.613
73418ION    CL-39827  36.711  17.888   3.729
73419ION    CL-39828  27.052  13.181   1.376
73420ION    CL-39829   8.413  12.180   3.282
73421ION    CL-39830  26.393  10.078   3.083
73422ION    CL-39831   1.404   1.028   0.254
73423ION    CL-39832  14.323  17.497  11.957
73424ION    CL-39833  40.364   0.470   0.088
73425ION    CL-39834  29.368   8.656   0.457
73426ION    CL-39835  14.271   0.126   2.786
73427ION    CL-39836  38.635  36.423   0.467
73428ION    CL-39837  30.988   0.158  10.272
73429ION    CL-39838  23.695  36.428  14.841
73430ION    CL-39839   6.963  20.255   2.827
73431ION    CL-39840   7.257   3.003   2.738
73432ION    CL-39841  39.655  11.897  10.820
73433ION    CL-39842  29.706  20.538  10.710
73434ION    CL-39843  35.490  43.533   0.806
73435ION    CL-39844  42.583  23.180  11.274
73436ION    CL-39845  19.766   6.019   4.908
73437ION    CL-39846  44.747  35.637   4.656
73438ION    CL-39847  25.624  27.376   2.342
73439ION    CL-39848  33.376  28.173   9.819
73440ION    CL-39849   4.003  41.270  11.977
73441ION    CL-39850  31.468  37.829  14.037
73442ION    CL-39851   3.523  35.136  14.468
73443ION    CL-39852  29.907   1.544   1.299
73444ION    CL-39853  32.858  27.464  11.658
73445ION    CL-39854  19.015   1.626   3.773
73446ION    CL-39855  40.926  10.143  11.576
73447ION    CL-39856  29.113  43.092   2.874
73448ION    CL-39857  44.268  35.987   1.990
73449ION    CL-39858  29.100  38.030  10.696
73450ION    CL-39859  27.642   2.152  13.118
73451ION    CL-39860  32.544  12.105  14.386
73452ION    CL-39861   0.558   6.684  13.816
73453ION    CL-39862  41.677   8.161   0.453
73454ION    CL-39863  32.108  18.466   3.876
73455ION    CL-39864  29.650   0.746  10.022
73456ION    CL-39865  37.984  29.249  12.453
73457ION    CL-39866  37.765   4.490  12.919
73458ION    CL-39867  20.167   6.544   0.442
73459ION    CL-39868  40.242  11.284   3.153
73460ION    CL-39869  34.406   3.330  12.537
73461ION    CL-39870  30.955  15.550  11.319
73462ION    CL-39871  21.181  28.123   4.834
73463ION    CL-39872  19.077  18.800  13.961
73464ION    CL-39873  12.254  31.956  13.924
73465ION    CL-39874  14.312  33.576   1.019
73466ION    CL-39875  24.065  11.783  12.532
73467ION    CL-39876  29.255  16.594   2.963
73468ION    CL-39877  11.885  11.695   3.104
73469ION    CL-39878  14.803  28.963   5.074
73470ION    CL-39879   5.704  42.830  13.366
73471ION    CL-39880  14.011  36.273   5.095
73472ION    CL-39881  38.590  26.080   1.263
73473ION    CL-39882  33.555  30.958   2.942
73474ION    CL-39883   7.914   8.206   5.097
73475ION    CL-39884  38.031  39.948  13.868
73476ION    CL-39885   9.215   6.317  13.290
73477ION    CL-39886  19.127  20.776   4.634
73478ION    CL-39887  36.873  23.207  11.031
73479ION    CL-39888  35.942  27.205  12.559
73480ION    CL-39889  27.009  34.530  14.384
73481ION    CL-39890  15.359  40.963   0.509
73482ION    CL-39891  26.438  24.536   2.517
73483ION    CL-39892  30.566  41.795  12.996
73484ION    CL-39893  13.110  42.852  13.042
73485ION    CL-39894  23.083  11.558   3.603
73486ION    CL-39895  22.411  19.291   0.543
73487ION    CL-39896   1.186  32.086   3.431
73488ION    CL-39897  17.358   9.895  13.132
73489ION    CL-39898  30.970   2.749  14.487
73490ION    CL-39899   5.411  44.274  11.071
73491ION    CL-39900  33.799  26.698   4.199
73492ION    CL-39901  12.149  24.636  10.961
73493ION    CL-39902   9.406  31.984  14.118
73494ION    CL-39903  28.681  42.572  12.011
73495ION    CL-39904  40.629  36.584  13.028
73496ION    CL-39905  10.988  28.249   9.822
73497ION    CL-39906   7.480   2.494   5.008
73498ION    CL-39907  17.536  44.755  13.991
73499ION    CL-39908   2.371  15.423  14.911
73500ION    CL-39909   6.082  33.201   4.940
73501ION    CL-39910  15.347  17.659  12.031
73502ION    CL-39911  21.518  38.358  12.886
73503ION    CL-39912  24.767   7.448   0.386
73504ION    CL-39913  31.371  33.073  13.104
73505ION    CL-39914   4.838  32.290  14.415
73506ION    CL-39915  22.189  43.376   1.813
73507ION    CL-39916  41.327  23.719  13.022
73508ION    CL-39917   7.595   6.161  11.121
73509ION    CL-39918  40.009  20.691   0.698
73510ION    CL-39919  39.137  30.878  11.946
73511ION    CL-39920  22.097   4.633  10.976
73512ION    CL-39921  27.119  18.820  10.628
73513ION    CL-39922   6.609  14.928  14.087
73514ION    CL-39923   3.235  12.333   3.364
73515ION    CL-39924  22.890  22.203  12.999
73516ION    CL-39925   0.460   1.357   1.943
73517ION    CL-39926  21.389  36.078  12.082
73518ION    CL-39927  40.085  26.007   1.542
73519ION    CL-39928  10.106  41.160   0.718
73520ION    CL-39929  16.129  38.469  12.926
73521ION    CL-39930  18.827  25.169   4.811
73522ION    CL-39931  11.813  42.124  14.893
73523ION    CL-39932  38.558   7.345  12.066
73524ION    CL-39933  39.882  10.129   1.877
73525ION    CL-39934  25.207  22.380  13.032
73526ION    CL-39935  26.537  30.341   9.527
73527ION    CL-39936  13.899  12.085   3.648
73528ION    CL-39937   6.516  43.127  14.872
73529ION    CL-39938  12.935  42.000   0.184
73530ION    CL-39939  42.947  42.242  14.407
73531ION    CL-39940   4.421  16.607   5.007
73532ION    CL-39941  38.327  27.945   2.040
73533ION    CL-39942  32.594  13.990  14.726
73534ION    CL-39943  37.872   0.517   1.345
73535ION    CL-39944   2.776  40.855  14.922
73536ION    CL-39945  30.478  11.162  13.125
73537ION    CL-39946  11.434  18.909   4.286
73538ION    CL-39947  25.826   0.909  11.113
73539ION    CL-39948  13.510  30.275   2.644
73540ION    CL-39949  22.816  18.124   4.330
73541ION    CL-39950  13.202  10.515   2.698
73542ION    CL-39951  12.608  33.824  13.351
73543ION    CL-39952   9.657  15.260   4.563
73544ION    CL-39953  18.530   4.709  11.729
73545ION    CL-39954  43.187   4.154   3.478
73546ION    CL-39955  33.092  21.149   2.990
73547ION    CL-39956  40.600  20.338  10.786
73548ION    CL-39957  13.189  17.586   0.591
73549ION    CL-39958  20.047   3.263  12.054
73550ION    CL-39959  40.303   7.294   1.229
73551ION    CL-39960   6.712  13.811   1.387
73552ION    CL-39961  18.878  20.563   3.423
73553ION    CL-39962  30.342  19.687   0.885
73554ION    CL-39963  10.675  22.362  13.541
73555ION    CL-39964  34.724  21.040   1.626
73556ION    CL-39965   3.316  14.449  14.456
73557ION    CL-39966   5.819  12.132   1.677
73558ION    CL-39967  11.772  27.517  12.901
73559ION    CL-39968   3.810  14.034   1.019
73560ION    CL-39969  31.992  12.781   4.356
73561ION    CL-39970  24.106  13.682   2.946
73562ION    CL-39971  39.023  10.051  13.314
73563ION    CL-39972  41.918   3.947   0.037
73564ION    CL-39973  21.856  15.582  11.317
73565ION    CL-39974  39.936  16.843  13.267
73566ION    CL-39975  31.031   8.943   0.744
73567ION    CL-39976  31.194   7.839   2.267
73568ION    CL-39977  22.688  10.561   2.497
73569ION    CL-39978  31.731  38.626   0.832
73570ION    CL-39979  24.061  20.807   2.441
73571ION    CL-39980   2.258  33.298   1.237
73572ION    CL-39981  10.423  38.508   1.802
73573ION    CL-39982  18.604  10.380  12.716
73574ION    CL-39983  35.436  30.097   3.725
73575ION    CL-39984  14.753  37.047  14.097
73576ION    CL-39985  39.112  34.564   3.346
73577ION    CL-39986  44.424   4.856  14.449
73578ION    CL-39987  10.582  14.070  11.798
73579ION    CL-39988  16.308  16.223  13.723
73580ION    CL-39989  23.069   3.785   1.535
73581ION    CL-39990  12.349  39.750   2.724
73582ION    CL-39991   2.834  33.855   2.544
73583ION    CL-39992  37.749  37.124   3.271
73584ION    CL-39993  20.991  18.977  14.423
73585ION    CL-39994  23.274  25.745   3.747
73586ION    CL-39995  12.718   3.977   0.401
73587ION    CL-39996  25.890  14.051  10.947
73588ION    CL-39997  33.654   3.196  14.342
73589ION    CL-39998  29.921  24.660   3.225
73590ION    CL-39999   3.238  44.570   2.644
73591ION    CL-40000  43.271   5.027   3.236
73592ION    CL-40001  26.066   3.947  11.219
73593ION    CL-40002  18.528  35.461   2.249
73594ION    CL-40003  42.614  25.906   0.397
73595ION    CL-40004  32.233   8.662   9.759
73596ION    CL-40005  18.272  27.269  10.924
73597ION    CL-40006  30.947  34.891   2.425
73598ION    CL-40007  32.821   1.310  12.053
73599ION    CL-40008   0.655  43.985  12.837
73600ION    CL-40009  40.287   2.042   2.279
73601ION    CL-40010  22.175  21.412  11.808
73602ION    CL-40011  36.109  32.139   4.033
73603ION    CL-40012  10.588   9.837   1.802
73604ION    CL-40013  17.449   0.055   9.958
73605ION    CL-40014  38.845   5.409   2.326
73606ION    CL-40015  25.276  24.537   3.790
73607ION    CL-40016  16.355   2.103  13.072
73608ION    CL-40017   2.274   9.772   4.646
73609ION    CL-40018  40.314  15.943  11.142
73610ION    CL-40019  17.227  32.697  12.751
73611ION    CL-40020  22.444  40.652  11.327
73612ION    CL-40021  12.079  10.644   3.822
73613ION    CL-40022  26.241  10.844   2.725
73614ION    CL-40023  42.872  12.327  14.053
73615ION    CL-40024  43.426   3.251  11.025
73616ION    CL-40025   7.527  29.587   2.956
73617ION    CL-40026  17.101  27.634  14.886
73618ION    CL-40027  17.947  33.757  10.244
73619ION    CL-40028   3.230  12.097  14.970
73620ION    CL-40029  10.039   3.274  12.013
73621ION    CL-40030  41.574  29.855  12.959
73622ION    CL-40031  41.881   1.354   2.116
73623ION    CL-40032  34.244  27.390  11.247
73624ION    CL-40033  29.118  26.197   0.652
73625ION    CL-40034   5.281  18.439   2.506
73626ION    CL-40035  36.417  34.795  12.480
73627ION    CL-40036  42.861  18.482  14.493
73628ION    CL-40037  26.590  27.676  12.392
73629ION    CL-40038  23.488   7.926  11.979
73630ION    CL-40039  16.109  10.769   2.557
73631ION    CL-40040  30.247  22.442  12.002
73632ION    CL-40041  37.671   6.119   2.872
73633ION    CL-40042  44.531  12.810  12.220
73634ION    CL-40043  41.474  37.226  11.666
73635ION    CL-40044  25.565  12.564  14.385
73636ION    CL-40045  25.947  42.197   1.286
73637ION    CL-40046  33.305   4.990  13.640
73638ION    CL-40047  37.297  39.933  11.492
73639ION    CL-40048  35.091  16.410   4.971
73640ION    CL-40049  13.085  35.538  10.124
73641ION    CL-40050  23.539  23.466  11.945
73642ION    CL-40051  38.848   0.758   0.502
73643ION    CL-40052  44.285  17.634  14.054
73644ION    CL-40053  12.874  33.372  11.520
73645ION    CL-40054  38.568  13.609   2.380
73646ION    CL-40055  12.895  31.328  13.464
73647ION    CL-40056  41.042  28.134   1.338
73648ION    CL-40057  31.614  38.954  13.454
73649ION    CL-40058  37.784   9.366   2.131
73650ION    CL-40059  27.870  10.978  14.322
73651ION    CL-40060   4.599  29.939   3.854
73652ION    CL-40061  42.075   5.327  11.461
73653ION    CL-40062  39.207  38.190  10.765
73654ION    CL-40063  23.322  25.470  14.135
73655ION    CL-40064  32.635   6.705  11.558
73656ION    CL-40065  15.182  36.024  13.505
73657ION    CL-40066  23.044  19.012  14.189
73658ION    CL-40067  44.708   5.284  11.638
73659ION    CL-40068  21.341  14.245   4.906
73660ION    CL-40069  21.192   6.036  13.117
73661ION    CL-40070  31.503  42.281  13.963
73662ION    CL-40071  17.511  37.123  14.381
73663ION    CL-40072  26.707   5.871   9.950
73664ION    CL-40073  24.669  29.566   1.969
73665ION    CL-40074  26.152  14.831  11.515
73666ION    CL-40075   9.726  21.423  13.966
73667ION    CL-40076  27.103  30.825  12.704
73668ION    CL-40077  15.976  12.970  12.474
73669ION    CL-40078  16.611  20.827   0.810
73670ION    CL-40079  15.204  21.641  13.014
73671ION    CL-40080   0.301  21.096   0.543
73672ION    CL-40081  22.151  29.700   4.909
73673ION    CL-40082  25.998  41.324  12.735
73674ION    CL-40083   2.104  27.082   2.836
73675ION    CL-40084   9.615  30.696   0.879
73676ION    CL-40085  39.234  30.976  12.816
73677ION    CL-40086  16.726  30.206   2.456
73678ION    CL-40087   9.547  25.932  12.578
73679ION    CL-40088  40.614  31.130   1.303
73680ION    CL-40089  15.313  29.865   2.688
73681ION    CL-40090   1.336  36.993  12.447
73682ION    CL-40091   8.035  35.291  11.548
73683ION    CL-40092  32.281  35.293   0.138
73684ION    CL-40093  16.780  29.723  11.358
73685ION    CL-40094  29.214  11.097   4.545
73686ION    CL-40095   0.533   0.505   0.491
73687ION    CL-40096  13.076   2.083   1.610
73688ION    CL-40097  34.639  12.579  13.871
73689ION    CL-40098  17.148  17.057  10.770
73690ION    CL-40099  15.855  35.073   3.618
73691ION    CL-40100  32.796  14.229  13.862
73692ION    CL-40101  40.824  28.839   5.066
73693ION    CL-40102  13.075  27.326   2.616
73694ION    CL-40103   0.819  21.237  12.767
73695ION    CL-40104  15.140   3.851   1.881
73696ION    CL-40105  39.977   3.903   1.905
73697ION    CL-40106  26.149  40.582  11.766
73698ION    CL-40107  18.157  30.670   3.113
73699ION    CL-40108  15.187  14.865  13.638
73700ION    CL-40109  37.480  22.539  11.463
73701ION    CL-40110  25.991  35.792  14.924
73702ION    CL-40111   5.670   9.271  13.082
73703ION    CL-40112  33.522  34.334  10.807
73704ION    CL-40113  42.166  33.770  11.847
73705ION    CL-40114  28.396  24.581   0.497
73706ION    CL-40115   2.822  34.681   0.041
73707ION    CL-40116  10.276  12.672   9.889
73708ION    CL-40117  26.242  21.990   3.421
73709ION    CL-40118  14.775  42.936   0.480
73710ION    CL-40119  38.717  44.506   4.921
73711ION    CL-40120   6.325  16.141  11.206
73712ION    CL-40121  28.985  33.862  14.733
73713ION    CL-40122   3.925   1.397  11.473
73714ION    CL-40123  43.583  19.209  14.310
73715ION    CL-40124  36.863  32.629   0.751
73716ION    CL-40125  42.462  41.546  12.765
73717ION    CL-40126  42.246   0.014  11.543
73718ION    CL-40127  37.211  11.928   4.994
73719ION    CL-40128  44.458  39.724  13.415
73720ION    CL-40129  18.876  13.716   4.050
73721ION    CL-40130   2.445  21.511  13.320
73722ION    CL-40131  37.631  41.646   0.294
73723ION    CL-40132   1.757  29.131  12.013
73724ION    CL-40133   0.754  21.568   4.924
73725ION    CL-40134  42.377  20.887   4.510
73726ION    CL-40135  37.364  28.185  10.739
73727ION    CL-40136  16.449  10.727   1.197
73728ION    CL-40137  34.187  23.540   2.253
73729ION    CL-40138  23.517  23.870   4.505
73730ION    CL-40139  17.576  38.556   4.132
73731ION    CL-40140  41.767  27.345  13.387
73732ION    CL-40141  29.322  16.951   2.014
73733ION    CL-40142  28.936   3.031  13.111
73734ION    CL-40143   7.431   9.290   1.241
73735ION    CL-40144  38.319  28.196   3.008
73736ION    CL-40145  12.554  35.593  12.840
73737ION    CL-40146  34.880  12.138   3.604
73738ION    CL-40147  18.536   2.799  10.756
73739ION    CL-40148  28.583   7.748  12.612
73740ION    CL-40149   6.743  30.127  12.663
73741ION    CL-40150  34.398  15.413  12.723
73742ION    CL-40151  15.749   1.330  12.881
73743ION    CL-40152  28.775  17.011   4.202
73744ION    CL-40153  23.842   3.665   0.653
73745ION    CL-40154  44.593  32.154  11.385
73746ION    CL-40155  10.708  43.390   2.781
73747ION    CL-40156  22.301  21.087   9.980
73748ION    CL-40157  38.777  14.604   1.894
73749ION    CL-40158  44.743  36.090  14.651
73750ION    CL-40159  23.081  41.858   0.062
73751ION    CL-40160   6.380   4.038   1.492
73752ION    CL-40161  35.653   5.526   3.624
73753ION    CL-40162  22.043   8.512   2.879
73754ION    CL-40163   8.978  31.607   4.227
73755ION    CL-40164   3.178  30.237   1.080
73756ION    CL-40165   6.446   2.649  11.842
73757ION    CL-40166  19.071  27.234   2.667
73758ION    CL-40167   9.901  21.636  11.242
73759ION    CL-40168  18.444  42.203  12.051
73760ION    CL-40169   3.399  39.485  13.654
73761ION    CL-40170  39.399  14.621  12.159
73762ION    CL-40171  28.428  33.637  11.742
73763ION    CL-40172   2.512  22.274  13.964
73764ION    CL-40173  31.275   9.813  13.404
73765ION    CL-40174  27.278  35.413  10.874
73766ION    CL-40175  33.539   0.803   3.472
73767ION    CL-40176   5.565  16.646  13.510
73768ION    CL-40177  43.406  41.417   4.157
73769ION    CL-40178   9.841  43.547   3.255
73770ION    CL-40179  30.054  43.528   2.797
73771ION    CL-40180  14.379   2.324  11.575
73772ION    CL-40181  27.744   0.163  10.832
73773ION    CL-40182  41.441   9.453   1.471
73774ION    CL-40183  26.146   0.017   3.999
73775ION    CL-40184  42.990   3.908  11.641
73776ION    CL-40185  20.835   6.300  14.080
73777ION    CL-40186  31.953  20.789   4.907
73778ION    CL-40187  20.659  14.395   3.636
73779ION    CL-40188  23.085  23.875   0.860
73780ION    CL-40189  25.812  11.527  10.968
73781ION    CL-40190  11.951  30.632   3.364
73782ION    CL-40191  23.148  43.064  12.869
73783ION    CL-40192  32.616   2.756   0.286
73784ION    CL-40193  29.688  39.508  12.007
73785ION    CL-40194  34.876  35.295   4.616
73786ION    CL-40195  26.416  42.338   0.389
73787ION    CL-40196   8.798  41.918   1.946
73788ION    CL-40197   5.823  35.201  12.522
73789ION    CL-40198  35.060  28.473   0.751
73790ION    CL-40199   2.899  26.917   2.989
73791ION    CL-40200   1.784  30.970   1.035
73792ION    CL-40201  18.219  35.457   5.173
73793ION    CL-40202   6.238  23.901   0.804
73794ION    CL-40203  26.682  38.578  11.186
73795ION    CL-40204  18.307  18.996   3.449
73796ION    CL-40205  12.144  22.503   2.713
73797ION    CL-40206  23.771  20.575  10.618
73798ION    CL-40207  15.163  24.018   4.195
73799ION    CL-40208   9.614  12.166  13.022
73800ION    CL-40209   9.213  29.170   2.276
73801ION    CL-40210  21.042  42.346   3.526
73802ION    CL-40211  26.327   9.855  11.638
73803ION    CL-40212  18.654   2.265   0.486
73804ION    CL-40213  29.002  15.936   9.990
73805ION    CL-40214  11.244   5.346  12.544
73806ION    CL-40215   3.870  35.625   1.887
73807ION    CL-40216  21.564  11.921  13.051
73808ION    CL-40217   9.659   3.943   3.649
73809ION    CL-40218  13.351  12.845   3.167
73810ION    CL-40219  19.711  28.877  13.085
73811ION    CL-40220  10.258  32.420   1.951
73812ION    CL-40221   9.164  10.867   2.932
73813ION    CL-40222  21.779  20.097  12.008
73814ION    CL-40223   6.145  19.109  14.537
73815ION    CL-40224  27.502  27.275  13.787
73816ION    CL-40225  11.022  43.095  13.267
73817ION    CL-40226  35.480  32.523  14.944
73818ION    CL-40227  38.379  30.404  12.341
73819ION    CL-40228   1.985  42.449  13.245
73820ION    CL-40229  40.945  30.914  12.451
73821ION    CL-40230  27.488  27.550  12.826
73822ION    CL-40231  27.091   4.887  11.754
73823ION    CL-40232  18.655  34.865  13.914
73824ION    CL-40233  36.145  35.982  10.730
73825ION    CL-40234  24.088  35.010  13.657
73826ION    CL-40235  16.110   3.176  13.196
73827ION    CL-40236  41.605  22.307   3.310
73828ION    CL-40237  39.844   7.401  11.615
73829ION    CL-40238   7.807  25.451   3.741
73830ION    CL-40239  16.312  23.811   4.705
73831ION    CL-40240  38.801  15.533   2.363
73832ION    CL-40241  38.930  27.382   3.253
73833ION    CL-40242  43.122   9.275  14.146
73834ION    CL-40243   2.983   8.160  11.437
73835ION    CL-40244  19.130   7.571   1.129
73836ION    CL-40245  44.591   2.085   4.803
73837ION    CL-40246   5.742  42.195   0.294
73838ION    CL-40247  43.504  41.784   3.164
73839ION    CL-40248  10.904  11.485  12.716
73840ION    CL-40249  43.430   0.664  13.259
73841ION    CL-40250  33.387   0.798   2.584
73842ION    CL-40251  13.841   1.825  10.159
73843ION    CL-40252   7.782  31.637  12.480
73844ION    CL-40253  44.872   6.458  11.017
73845ION    CL-40254   4.384   6.820   2.702
73846ION    CL-40255   0.022  39.679  11.644
73847ION    CL-40256  10.619  44.696  13.511
73848ION    CL-40257  33.226  25.562   2.733
73849ION    CL-40258  28.637   3.728  11.323
73850ION    CL-40259  28.962  40.170   3.158
73851ION    CL-40260   9.454  20.687  12.919
73852ION    CL-40261  35.092  32.760  12.289
73853ION    CL-40262  13.264  28.343   0.132
73854ION    CL-40263   0.543  31.867  11.525
73855ION    CL-40264  20.876   3.823  11.895
73856ION    CL-40265  21.620  24.538   2.236
73857ION    CL-40266  26.151  33.797   4.263
73858ION    CL-40267  44.375  39.655   4.090
73859ION    CL-40268  23.260  33.731   0.546
73860ION    CL-40269  22.266  13.634  10.278
73861ION    CL-40270  15.179  14.794  11.019
73862ION    CL-40271  17.189   5.469   2.229
73863ION    CL-40272  22.077  25.786  14.432
73864ION    CL-40273   0.020  10.146   2.604
73865ION    CL-40274  18.965  44.924  14.330
73866ION    CL-40275  25.396  12.051  11.712
73867ION    CL-40276  44.919  42.339  11.114
73868ION    CL-40277   5.117  27.733  12.254
73869ION    CL-40278   4.985  20.460   1.217
73870ION    CL-40279   3.360  15.675  13.826
73871ION    CL-40280  13.030  13.567  14.368
73872ION    CL-40281   2.258  21.548  14.603
73873ION    CL-40282   2.465   5.818   1.036
73874ION    CL-40283  27.515  24.686   3.882
73875ION    CL-40284   0.427  27.569  13.549
73876ION    CL-40285   0.511  13.842  11.039
73877ION    CL-40286  37.430  31.112  13.864
73878ION    CL-40287  30.339   6.556   4.515
73879ION    CL-40288  27.412   9.383   1.145
73880ION    CL-40289  19.910   9.027  13.979
73881ION    CL-40290  37.734  13.004   1.466
73882ION    CL-40291  10.133  34.365   4.235
73883ION    CL-40292  28.469  20.489  13.147
73884ION    CL-40293  15.447  43.617  12.287
73885ION    CL-40294  13.650   6.528   2.564
73886ION    CL-40295  20.866   2.749   1.067
73887ION    CL-40296  11.737   3.720   4.096
73888ION    CL-40297  12.843  14.577   1.642
73889ION    CL-40298  19.691  22.741   1.871
73890ION    CL-40299  15.834  27.917   2.114
73891ION    CL-40300  19.268  20.026  12.937
73892ION    CL-40301  22.019  32.482  14.145
73893ION    CL-40302  17.937   7.949   3.067
73894ION    CL-40303  34.007  44.856  13.584
73895ION    CL-40304   1.024  38.842  11.300
73896ION    CL-40305  20.267  33.036   3.775
73897ION    CL-40306  38.995  34.560  14.064
73898ION    CL-40307   8.505  14.145   9.812
73899ION    CL-40308   0.864  26.306  13.837
73900ION    CL-40309  40.256  10.875  13.899
73901ION    CL-40310  18.980  25.238  10.751
73902ION    CL-40311  36.644  43.487   3.193
73903ION    CL-40312  34.694  41.960   1.905
73904ION    CL-40313  33.276  26.764   3.281
73905ION    CL-40314  17.799  41.547  13.649
73906ION    CL-40315  39.817  44.399   1.560
73907ION    CL-40316  40.985  11.732  13.336
73908ION    CL-40317  16.580  43.353   3.198
73909ION    CL-40318  34.935   5.086   3.085
73910ION    CL-40319  10.004  18.992  11.650
73911ION    CL-40320   1.355  26.266   4.940
73912ION    CL-40321  13.292  12.525   0.720
73913ION    CL-40322  24.269  10.075   0.976
73914ION    CL-40323  32.812  36.063   1.574
73915ION    CL-40324   9.267  38.940  10.102
73916ION    CL-40325  40.652  33.774  14.714
73917ION    CL-40326  31.305   8.771   1.922
73918ION    CL-40327  20.764  29.140  12.136
73919ION    CL-40328  29.730  27.646  12.589
73920ION    CL-40329  25.483  26.966   1.666
73921ION    CL-40330   9.092  11.285   0.340
73922ION    CL-40331  44.312  11.630   2.156
73923ION    CL-40332  30.565  31.764   3.198
73924ION    CL-40333   9.369  30.086  14.919
73925ION    CL-40334  19.980  25.226  13.862
73926ION    CL-40335  20.295  14.882  14.980
73927ION    CL-40336   1.763  23.241   1.729
73928ION    CL-40337  13.947  30.415  14.282
73929ION    CL-40338  14.399   0.609   0.677
73930ION    CL-40339  31.135  31.923   0.854
73931ION    CL-40340   6.779  11.217   2.683
73932ION    CL-40341  32.761  19.212   3.589
73933ION    CL-40342   3.221   1.100   5.069
73934ION    CL-40343  41.939   2.391   4.094
73935ION    CL-40344  27.739  36.215  10.797
73936ION    CL-40345  42.028  16.549   4.198
73937ION    CL-40346  31.400  12.344   1.333
73938ION    CL-40347   2.563   7.686   0.335
73939ION    CL-40348   2.988  35.790   1.317
73940ION    CL-40349  30.956  37.672  13.583
73941ION    CL-40350  17.172  11.447   1.933
73942ION    CL-40351   2.845   2.679  11.247
73943ION    CL-40352  18.824   5.595   5.092
73944ION    CL-40353   3.150   4.309  13.533
73945ION    CL-40354  18.775   6.510  10.485
73946ION    CL-40355  40.199   5.307  12.840
73947ION    CL-40356  24.115  29.740   1.155
73948ION    CL-40357  18.907  34.394   0.338
73949ION    CL-40358  21.707  34.831  10.778
73950ION    CL-40359   1.806  18.495  11.084
73951ION    CL-40360  44.499  23.856   2.242
73952ION    CL-40361  29.099  28.417  12.496
73953ION    CL-40362  26.071  25.617   4.544
73954ION    CL-40363  28.168  19.561   2.728
73955ION    CL-40364   2.754  15.781  11.142
73956ION    CL-40365  18.716  28.033   3.700
73957ION    CL-40366  16.082  39.010  11.613
73958ION    CL-40367   2.881  21.463  12.422
73959ION    CL-40368  17.104  20.497  12.959
73960ION    CL-40369  23.559  16.328   0.469
73961ION    CL-40370  44.154  19.161  13.564
73962ION    CL-40371  34.342  20.718   2.493
73963ION    CL-40372  12.467   0.275   2.759
73964ION    CL-40373  43.629  36.491  12.071
73965ION    CL-40374  27.122   2.252   1.603
73966ION    CL-40375  34.534  43.347  12.365
73967ION    CL-40376  40.958  35.004   1.762
73968ION    CL-40377  35.691  10.889  12.708
73969ION    CL-40378  10.784  20.854  13.552
73970ION    CL-40379  11.581   8.136   3.703
73971ION    CL-40380  33.173  25.504  11.630
73972ION    CL-40381  16.744  21.119  11.563
73973ION    CL-40382  42.371  14.163  13.918
73974ION    CL-40383  15.806  14.283  14.882
73975ION    CL-40384  43.689   7.889  11.037
73976ION    CL-40385  17.507  10.689   1.373
73977ION    CL-40386  40.562   2.179  11.364
73978ION    CL-40387   1.701  23.520   2.694
73979ION    CL-40388  18.487  16.630  13.427
73980ION    CL-40389  24.441  10.952   1.137
73981ION    CL-40390  21.572  37.770   1.731
73982ION    CL-40391  29.789  22.534   4.369
73983ION    CL-40392   5.192  35.650  12.721
73984ION    CL-40393   9.652  29.474   0.642
73985ION    CL-40394  12.620  20.015  13.302
73986ION    CL-40395  11.627  17.694  10.528
73987ION    CL-40396  38.871  30.292   1.115
73988ION    CL-40397  17.776  12.341  14.805
73989ION    CL-40398   7.979  34.102  11.387
73990ION    CL-40399  28.543   8.960   0.945
73991ION    CL-40400  32.780  27.222   3.861
73992ION    CL-40401  15.203  43.310  13.207
73993ION    CL-40402  34.944  35.317  12.431
73994ION    CL-40403  36.700  44.489   2.053
73995ION    CL-40404  41.567  16.930  14.136
73996ION    CL-40405  17.574  16.815  14.244
73997ION    CL-40406  25.306  43.020  14.825
73998ION    CL-40407   4.749  12.725   3.594
73999ION    CL-40408  35.362   1.441   4.122
74000ION    CL-40409  12.543  16.364  12.901
74001ION    CL-40410  17.412   6.372   1.861
74002ION    CL-40411   3.036  24.261   4.697
74003ION    CL-40412   7.588  30.369  13.060
74004ION    CL-40413   6.672  22.712   5.133
74005ION    CL-40414  18.192   7.040  11.230
74006ION    CL-40415  33.742  25.756   1.775
74007ION    CL-40416   8.983  43.260  11.569
74008ION    CL-40417  19.910   0.222   4.614
74009ION    CL-40418  22.447  17.919  10.889
74010ION    CL-40419   3.432  12.817   4.293
74011ION    CL-40420  24.010   8.881   1.804
74012ION    CL-40421  25.385  15.788  12.894
74013ION    CL-40422  32.916  36.746  12.023
74014ION    CL-40423   4.399  29.443   1.660
74015ION    CL-40424  22.181   4.989   2.149
74016ION    CL-40425  34.454  31.434   0.299
74017ION    CL-40426   6.995  28.700   1.983
74018ION    CL-40427  33.349  15.723  11.281
74019ION    CL-40428  15.704   3.373  12.227
74020ION    CL-40429  36.598  14.477  13.208
74021ION    CL-40430  29.375  32.257   4.451
74022ION    CL-40431  27.975   1.778   5.157
74023ION    CL-40432   7.507  15.614  14.156
74024ION    CL-40433  25.740  27.941  14.744
74025ION    CL-40434  13.331  25.378  10.724
74026ION    CL-40435  13.690  18.789   0.214
74027ION    CL-40436   0.414  13.953   3.251
74028ION    CL-40437  20.319  13.587  14.527
74029ION    CL-40438  43.976  15.281   4.921
74030ION    CL-40439  30.384   6.184   1.362
74031ION    CL-40440  13.539  36.180   3.661
74032ION    CL-40441  42.263  43.943  11.660
74033ION    CL-40442   1.240  13.597  12.346
74034ION    CL-40443  10.903  20.119  12.883
74035ION    CL-40444   9.250  39.904  13.503
74036ION    CL-40445  39.236   5.801  14.382
74037ION    CL-40446  13.168  22.030   0.409
74038ION    CL-40447  43.948  20.972   1.424
74039ION    CL-40448  14.624   8.947   3.194
74040ION    CL-40449  13.770  29.497  13.478
74041ION    CL-40450   9.691  15.941   3.197
74042ION    CL-40451  28.300  20.440   3.696
74043ION    CL-40452  22.715  40.346   3.695
74044ION    CL-40453  14.034  11.877   1.884
74045ION    CL-40454   0.536  39.431   3.396
74046ION    CL-40455  19.144   5.120  13.437
74047ION    CL-40456   2.397  17.148  14.438
74048ION    CL-40457  10.103  29.314   2.979
74049ION    CL-40458  31.875  32.243  11.094
74050ION    CL-40459  12.744  11.826  13.374
74051ION    CL-40460  21.180   1.955  14.628
74052ION    CL-40461  33.434  15.563   2.655
74053ION    CL-40462  10.334  17.047  13.378
74054ION    CL-40463  37.179  29.659   1.480
74055ION    CL-40464  20.744  34.363  13.320
74056ION    CL-40465   2.289  19.367  14.871
74057ION    CL-40466  12.630  30.821   4.868
74058ION    CL-40467  26.821  14.049   1.228
74059ION    CL-40468   4.883  26.710   2.881
74060ION    CL-40469   8.917  34.928  11.143
74061ION    CL-40470  23.509  34.709  11.162
74062ION    CL-40471  12.006  29.004   0.474
74063ION    CL-40472  15.741  42.775   0.738
74064ION    CL-40473   3.261  40.251  14.282
74065ION    CL-40474  42.028   4.879   3.751
74066ION    CL-40475  18.858  30.577   1.973
74067ION    CL-40476  28.051   6.152   0.251
74068ION    CL-40477  39.285  29.409   3.189
74069ION    CL-40478  36.530  23.309   3.217
74070ION    CL-40479  30.252  31.646   0.474
74071ION    CL-40480  10.081  37.385  11.713
74072ION    CL-40481  28.868  19.796   3.403
74073ION    CL-40482  40.928  43.451  12.780
74074ION    CL-40483   4.427  28.173   4.765
74075ION    CL-40484  10.926  36.268  13.482
74076ION    CL-40485   3.601  35.562   4.188
74077ION    CL-40486  15.215  23.327   1.304
74078ION    CL-40487  42.492  12.731   1.549
74079ION    CL-40488  34.571  14.070   4.953
74080ION    CL-40489  44.581   8.017  13.565
74081ION    CL-40490  15.083   0.141  14.538
74082ION    CL-40491  22.613  10.910   1.539
74083ION    CL-40492  29.307  28.963   0.774
74084ION    CL-40493  43.675  18.801  13.401
74085ION    CL-40494  14.012  29.610   4.992
74086ION    CL-40495   9.527  16.649   2.510
74087ION    CL-40496  10.474  33.859   5.049
74088ION    CL-40497  33.110  14.432   4.112
74089ION    CL-40498  10.385   3.296  13.316
74090ION    CL-40499  36.037   3.450  11.648
74091ION    CL-40500  19.423  19.161  10.723
74092ION    CL-40501  10.635  20.171   4.098
74093ION    CL-40502  27.453   7.863  10.312
74094ION    CL-40503  20.053  13.528   2.074
74095ION    CL-40504   9.744  36.086   4.012
74096ION    CL-40505  38.405  21.412   1.166
74097ION    CL-40506   7.708  20.967  11.157
74098ION    CL-40507  25.030  15.221   5.092
74099ION    CL-40508  22.505  27.748  12.681
74100ION    CL-40509  30.428   7.789   0.592
74101ION    CL-40510   3.434  41.332   4.512
74102ION    CL-40511  40.518  34.097  11.051
74103ION    CL-40512  21.695  40.216  11.192
74104ION    CL-40513  15.881   5.783  12.463
74105ION    CL-40514  38.920   9.729   3.222
74106ION    CL-40515  30.155  44.364   1.944
74107ION    CL-40516  43.639  39.314   4.501
74108ION    CL-40517  40.335  27.662   4.607
74109ION    CL-40518  31.658  34.425  11.240
74110ION    CL-40519  38.073  10.923  14.601
74111ION    CL-40520  40.932  25.368  11.038
74112ION    CL-40521  26.559  25.010   0.967
74113ION    CL-40522  22.545   9.443   0.304
74114ION    CL-40523  32.070  41.492   0.268
74115ION    CL-40524  15.307  10.736   5.002
74116ION    CL-40525   1.929  38.869   3.871
74117ION    CL-40526  15.875  43.259   1.744
74118ION    CL-40527  28.805   4.681  10.275
74119ION    CL-40528  16.891  23.446  13.464
74120ION    CL-40529  31.327  21.507  13.020
74121ION    CL-40530   0.483  37.828  14.353
74122ION    CL-40531  25.736  11.603   2.650
74123ION    CL-40532   3.805  42.147   0.433
74124ION    CL-40533  16.809  32.107   3.962
74125ION    CL-40534  35.845  29.234  13.485
74126ION    CL-40535  20.140  39.169  11.933
74127ION    CL-40536  28.883   2.234  12.508
74128ION    CL-40537  44.389  26.658   1.311
74129ION    CL-40538  18.975  20.977  12.840
74130ION    CL-40539  14.552  27.790   4.015
74131ION    CL-40540  18.005  29.713   1.409
74132ION    CL-40541  36.009  41.971  13.601
74133ION    CL-40542   7.613  29.828  12.382
74134ION    CL-40543   6.263  41.152  13.016
74135ION    CL-40544   8.296  12.167   1.016
74136ION    CL-40545  25.900   4.265  14.759
74137ION    CL-40546  26.932  33.471  13.046
74138ION    CL-40547   0.493  31.799  14.790
74139ION    CL-40548  41.823  27.875   4.023
74140ION    CL-40549  38.558  40.876  11.875
74141ION    CL-40550  17.206   5.494   0.887
74142ION    CL-40551  25.971  25.500   1.673
74143ION    CL-40552   6.501  35.937  13.902
74144ION    CL-40553   3.596   8.677   2.922
74145ION    CL-40554  20.858  13.397   3.104
74146ION    CL-40555   4.882   9.026   1.287
74147ION    CL-40556  26.388  35.640  13.968
74148ION    CL-40557  22.274  27.415   4.013
74149ION    CL-40558  22.797  23.292  10.862
74150ION    CL-40559  38.969  21.443   2.309
74151ION    CL-40560  12.638  21.976  12.069
74152ION    CL-40561  14.220  22.535   1.600
74153ION    CL-40562  10.710  20.931   1.689
74154ION    CL-40563  28.688  36.041   3.949
74155ION    CL-40564  37.224  34.994   5.083
74156ION    CL-40565  27.625  10.444  13.057
74157ION    CL-40566  39.522   8.311   3.732
74158ION    CL-40567   6.458  35.652  11.895
74159ION    CL-40568  44.096  42.532   3.692
74160ION    CL-40569   2.070  29.648  10.751
74161ION    CL-40570  28.434  11.832  14.594
74162ION    CL-40571   5.806  24.754  11.598
74163ION    CL-40572  30.331  10.255  13.519
74164ION    CL-40573  15.415  22.319  14.910
74165ION    CL-40574   8.472  34.825  14.555
74166ION    CL-40575  11.104  43.874  14.438
74167ION    CL-40576  23.681  12.648  11.653
74168ION    CL-40577   8.562   0.918   0.515
74169ION    CL-40578  21.835  35.462  13.843
74170ION    CL-40579  36.473  17.303  11.617
74171ION    CL-40580   2.254  10.177  14.376
74172ION    CL-40581  44.540  14.874   1.331
74173ION    CL-40582  43.362  26.980  11.571
74174ION    CL-40583   7.228  38.028  12.041
74175ION    CL-40584  31.081  16.128  14.289
74176ION    CL-40585  12.710  22.690  14.357
74177ION    CL-40586  11.160   0.823  12.948
74178ION    CL-40587  44.823   8.542   5.383
74179ION    CL-40588  19.336  15.425   0.305
74180ION    CL-40589  11.615  13.396  14.385
74181ION    CL-40590  27.928  26.928  11.568
74182ION    CL-40591   0.322  31.448   4.271
74183ION    CL-40592  17.804  13.627  14.428
74184ION    CL-40593  17.757   9.774   1.002
74185ION    CL-40594  39.714  18.556   0.100
74186ION    CL-40595   9.331  44.595  12.901
74187ION    CL-40596  29.508  27.878  11.642
74188ION    CL-40597   6.422  38.926  13.826
74189ION    CL-40598  25.293   0.481   4.665
74190ION    CL-40599   3.368  43.671   1.489
74191ION    CL-40600  29.028   6.180  12.933
74192ION    CL-40601  10.939  19.567   0.426
74193ION    CL-40602   2.800  30.832   4.251
74194ION    CL-40603  28.053  40.246  14.322
74195ION    CL-40604  33.159  26.805   0.287
74196ION    CL-40605  18.487  30.380   1.065
74197ION    CL-40606   8.317  14.310   4.099
74198ION    CL-40607   4.161   7.115   3.649
74199ION    CL-40608  18.456  27.205  11.789
74200ION    CL-40609   7.480  41.359   3.589
74201ION    CL-40610  41.298   1.997  10.693
74202ION    CL-40611  11.759  12.669  13.996
74203ION    CL-40612  10.220   2.891   2.714
74204ION    CL-40613  36.139   0.394  14.986
74205ION    CL-40614  24.463  13.367  12.985
74206ION    CL-40615   9.835  36.338  13.100
74207ION    CL-40616  30.557  32.010   2.204
74208ION    CL-40617  29.449  16.265  14.430
74209ION    CL-40618  20.892  42.814  14.488
74210ION    CL-40619  17.741  15.524  14.488
74211ION    CL-40620   3.261  17.313  13.887
74212ION    CL-40621  20.038  23.676  13.957
74213ION    CL-40622  37.352  35.428   2.337
74214ION    CL-40623   0.920  27.259   4.535
74215ION    CL-40624  22.281  34.949   4.751
74216ION    CL-40625   0.719  17.722   0.751
74217ION    CL-40626  22.691  13.142   2.722
74218ION    CL-40627   9.490  22.214   2.123
74219ION    CL-40628  28.494  44.815  10.510
74220ION    CL-40629  38.031  21.764   0.309
74221ION    CL-40630  27.282   4.267   4.111
74222ION    CL-40631  24.143  16.260  11.556
74223ION    CL-40632  17.304   8.717   0.492
74224ION    CL-40633  23.372  31.134   0.729
74225ION    CL-40634  11.036  39.486  13.767
74226ION    CL-40635  23.150  14.836  14.759
74227ION    CL-40636   0.554  13.131  14.094
74228ION    CL-40637  22.098   4.126   1.873
74229ION    CL-40638  10.769  15.969   2.478
74230ION    CL-40639  26.907  17.074  12.233
74231ION    CL-40640  38.187  37.783   1.078
74232ION    CL-40641  27.956   8.437  11.879
74233ION    CL-40642  27.887  11.855  13.083
74234ION    CL-40643  16.848  15.790   4.649
74235ION    CL-40644  26.299  31.786  12.520
74236ION    CL-40645  43.786  40.405   3.008
74237ION    CL-40646   1.452  23.505  14.637
74238ION    CL-40647   9.297   0.306  10.688
74239ION    CL-40648  10.161  42.729  10.798
74240ION    CL-40649  15.276  42.704  10.331
74241ION    CL-40650  27.468  10.893   5.405
74242ION    CL-40651  35.726  42.776   2.752
74243ION    CL-40652  18.422  41.478   2.393
74244ION    CL-40653  26.590  29.253   3.586
74245ION    CL-40654  27.008  39.311  12.584
74246ION    CL-40655  35.880   7.657   1.007
74247ION    CL-40656   8.880  38.306   1.873
74248ION    CL-40657   4.705  36.018  10.775
74249ION    CL-40658  33.960  21.650   1.837
74250ION    CL-40659  13.324  27.671   4.350
74251ION    CL-40660  19.632  33.967   1.885
74252ION    CL-40661  24.846  20.524   1.385
74253ION    CL-40662  12.956  13.195  11.689
74254ION    CL-40663  21.740  43.887   3.198
74255ION    CL-40664  27.545  42.129  14.823
74256ION    CL-40665  31.065  20.753  10.999
74257ION    CL-40666   4.978   7.988   0.358
74258ION    CL-40667   7.204   0.078   9.906
74259ION    CL-40668  30.919   0.932  12.723
74260ION    CL-40669  42.236  16.335  14.189
74261ION    CL-40670  15.544  30.746  14.741
74262ION    CL-40671  24.137  32.172  13.790
74263ION    CL-40672  17.453  34.700  11.940
74264ION    CL-40673  27.596  40.289   0.557
74265ION    CL-40674  37.519   8.732  14.565
74266ION    CL-40675   4.978   1.918  10.754
74267ION    CL-40676  28.486  22.066  11.285
74268ION    CL-40677   0.703   7.554   0.913
74269ION    CL-40678  24.282   4.005   1.733
74270ION    CL-40679  29.292  10.383   1.174
74271ION    CL-40680  30.603  28.564  10.677
74272ION    CL-40681  33.602   7.247   0.512
74273ION    CL-40682  41.242  13.602  13.845
74274ION    CL-40683  20.176   6.849   2.736
74275ION    CL-40684   1.235  33.302  13.876
74276ION    CL-40685  37.045  34.418   1.173
74277ION    CL-40686  30.451  32.694  14.055
74278ION    CL-40687   4.055  19.428   3.505
74279ION    CL-40688  29.804  31.072   3.090
74280ION    CL-40689  24.207  17.861  12.920
74281ION    CL-40690  41.493  33.794   0.132
74282ION    CL-40691   1.601  19.832  13.936
74283ION    CL-40692  29.367  42.862   1.428
74284ION    CL-40693  11.913  14.931   1.541
74285ION    CL-40694  14.559  40.719   1.652
74286ION    CL-40695  29.039  34.157  13.311
74287ION    CL-40696  41.805   1.016   3.312
74288ION    CL-40697  15.798   8.072   4.277
74289ION    CL-40698  24.127  38.411   4.882
74290ION    CL-40699  11.910   3.851  12.967
74291ION    CL-40700  23.526   1.968   2.159
74292ION    CL-40701   9.738  11.354   2.193
74293ION    CL-40702  11.626  42.428  13.705
74294ION    CL-40703   2.667  18.559  12.273
74295ION    CL-40704  13.477  42.115   1.071
74296ION    CL-40705  44.853   4.957   0.348
74297ION    CL-40706  41.073  12.234   4.155
74298ION    CL-40707  35.922   1.345   0.469
74299ION    CL-40708  27.366   0.055   1.847
74300ION    CL-40709   9.200  21.027  11.613
74301ION    CL-40710  35.241  11.195   4.192
74302ION    CL-40711  15.890  28.819  11.136
74303ION    CL-40712  38.794   3.446   9.890
74304ION    CL-40713   1.906  13.052  12.068
74305ION    CL-40714  10.712  36.361   3.365
74306ION    CL-40715  19.048  32.084  11.136
74307ION    CL-40716  42.773  16.026   0.794
74308ION    CL-40717   7.962   7.395   2.764
74309ION    CL-40718  25.469  25.428   0.945
74310ION    CL-40719  38.581  40.317   2.690
74311ION    CL-40720   5.158  34.158   4.674
74312ION    CL-40721  29.440  14.075   1.752
74313ION    CL-40722  28.751  22.540   9.905
74314ION    CL-40723  33.080  41.808  12.181
74315ION    CL-40724  33.339  27.883   4.791
74316ION    CL-40725  26.783  37.398  12.483
74317ION    CL-40726   7.714  11.143   2.337
74318ION    CL-40727   2.598  27.632   3.190
74319ION    CL-40728   7.016  27.845  12.788
74320ION    CL-40729  43.911  24.635   3.182
74321ION    CL-40730  16.230  42.486   4.859
74322ION    CL-40731  42.118  41.715   4.186
74323ION    CL-40732   7.849  16.078  13.317
74324ION    CL-40733  14.336  42.041   0.564
74325ION    CL-40734  32.312  27.053   0.316
74326ION    CL-40735  10.597   3.823   5.396
74327ION    CL-40736  21.127   0.955   3.523
74328ION    CL-40737  27.860  38.422   2.882
74329ION    CL-40738   0.460  27.627  12.688
74330ION    CL-40739   9.938  30.876  10.718
74331ION    CL-40740  35.731  24.576   3.529
74332ION    CL-40741  27.827  14.281  11.064
74333ION    CL-40742  30.855   2.193   4.483
74334ION    CL-40743  11.216  23.011   3.317
74335ION    CL-40744  14.417  17.914  13.508
74336ION    CL-40745  28.902  39.406   3.866
74337ION    CL-40746  16.455  32.493  11.672
74338ION    CL-40747  39.474   7.254  14.471
74339ION    CL-40748  41.427   0.753  10.932
74340ION    CL-40749  19.027   7.207   2.058
74341ION    CL-40750  15.158  13.349   1.476
74342ION    CL-40751  24.492  40.800   2.613
74343ION    CL-40752  16.644   0.960  13.351
74344ION    CL-40753  17.039  14.362  12.475
74345ION    CL-40754  27.891  10.294   2.699
74346ION    CL-40755  15.209  21.780   4.419
74347ION    CL-40756  19.668  23.902   2.763
74348ION    CL-40757  40.201  42.240  13.951
74349ION    CL-40758  19.301  22.543  14.559
74350ION    CL-40759  40.578  33.347  11.754
74351ION    CL-40760   3.873  30.887  12.012
74352ION    CL-40761   3.534  37.127  10.225
74353ION    CL-40762  11.770  18.566   4.927
74354ION    CL-40763  17.069  19.939  13.693
74355ION    CL-40764  42.409   9.879   2.323
74356ION    CL-40765   2.546   6.768   0.733
74357ION    CL-40766  21.195  39.215   4.057
74358ION    CL-40767  17.359  19.560   4.154
74359ION    CL-40768  43.180  37.196   2.093
74360ION    CL-40769  34.383   6.193  13.571
74361ION    CL-40770  43.935  42.851  13.315
74362ION    CL-40771  34.783  34.249   1.778
74363ION    CL-40772  28.520   2.564   4.738
74364ION    CL-40773   8.345  27.237   0.913
74365ION    CL-40774  37.859  32.435   4.621
74366ION    CL-40775   9.417  13.553   3.965
74367ION    CL-40776  12.771  44.792   4.428
74368ION    CL-40777  15.724  33.134   1.888
74369ION    CL-40778  27.997  32.871   0.577
74370ION    CL-40779   0.822  30.767  12.638
74371ION    CL-40780  44.264   9.547  12.419
74372ION    CL-40781  30.790  16.294  11.927
74373ION    CL-40782  32.810  42.725  13.151
74374ION    CL-40783  39.324  37.304   0.883
74375ION    CL-40784  29.209  14.152   4.064
74376ION    CL-40785   5.597  19.622  13.443
74377ION    CL-40786  42.435  13.313   0.738
74378ION    CL-40787  38.515  12.735  12.332
74379ION    CL-40788  36.630  29.015  14.065
74380ION    CL-40789  34.564  18.596   2.369
74381ION    CL-40790  36.168   0.884   5.097
74382ION    CL-40791  14.249   2.203   4.679
74383ION    CL-40792   2.850  28.685   2.313
74384ION    CL-40793  42.733  28.161   1.841
74385ION    CL-40794  22.265  42.693  13.454
74386ION    CL-40795  11.389   9.410  11.389
74387ION    CL-40796  24.630  28.872   1.249
74388ION    CL-40797  41.406  13.379  12.524
74389ION    CL-40798   2.704   7.800   4.263
74390ION    CL-40799   9.067  19.091  13.708
74391ION    CL-40800  22.624  44.938  14.695
74392ION    CL-40801  24.199  17.268  14.776
74393ION    CL-40802   6.702  12.574  11.697
74394ION    CL-40803  16.686  27.445  11.496
74395ION    CL-40804  42.905  38.935  11.085
74396ION    CL-40805  32.700  32.314   3.047
74397ION    CL-40806  15.333   8.573  13.518
74398ION    CL-40807  38.859  25.086   0.239
74399ION    CL-40808   0.129  11.339  12.611
74400ION    CL-40809  39.019  17.596   4.536
74401ION    CL-40810  16.709   4.891  12.078
74402ION    CL-40811   6.937  24.443   0.666
74403ION    CL-40812  14.175  20.445  14.910
74404ION    CL-40813  42.757  12.989   3.173
74405ION    CL-40814  27.511  13.291   5.077
74406ION    CL-40815  41.550   4.075   3.301
74407ION    CL-40816   8.554   2.930   2.011
74408ION    CL-40817  43.025  19.358   4.833
74409ION    CL-40818  19.210  16.010  12.459
74410ION    CL-40819  40.420  24.038  14.771
74411ION    CL-40820  11.904  40.595  13.936
74412ION    CL-40821  38.250  15.997  12.742
74413ION    CL-40822  15.072   3.239  13.101
74414ION    CL-40823  27.942  15.836  13.230
74415ION    CL-40824  42.339  13.105  13.014
74416ION    CL-40825  22.966   0.215   3.849
74417ION    CL-40826  19.552  44.330   1.868
74418ION    CL-40827  35.599   8.532   1.972
74419ION    CL-40828  10.503  23.247   0.377
74420ION    CL-40829  16.120  29.102  14.421
74421ION    CL-40830  40.609  11.038   1.103
74422ION    CL-40831  20.267  39.013   1.815
74423ION    CL-40832  35.447  24.883  12.965
74424ION    CL-40833  15.672  11.296   4.896
74425ION    CL-40834  11.004   4.351   5.356
74426ION    CL-40835  32.573  36.107  14.826
74427ION    CL-40836  39.397  14.391  10.721
74428ION    CL-40837  39.661   9.166  10.479
74429ION    CL-40838  42.124  24.229  12.095
74430ION    CL-40839  21.661  38.025  11.168
74431ION    CL-40840  21.720  40.023   4.326
74432ION    CL-40841   8.346  44.339  13.024
74433ION    CL-40842  36.924  36.998   3.823
74434ION    CL-40843  33.134  16.181   3.846
74435ION    CL-40844  36.194  30.770   4.591
74436ION    CL-40845   1.576  36.300   4.911
74437ION    CL-40846  24.772   3.994  11.972
74438ION    CL-40847   6.099  39.555   3.231
74439ION    CL-40848  17.077   3.743  10.946
74440ION    CL-40849  10.019  21.745  10.347
74441ION    CL-40850  10.772  27.051   2.663
74442ION    CL-40851  20.013  22.698  12.044
74443ION    CL-40852  31.809  25.378  14.863
74444ION    CL-40853  35.061  25.930   1.259
74445ION    CL-40854  44.876  44.012  13.273
74446ION    CL-40855  37.945  34.793  14.551
74447ION    CL-40856  36.341   8.779  12.007
74448ION    CL-40857   3.243   4.640   1.966
74449ION    CL-40858  17.102  27.008   3.066
74450ION    CL-40859  12.591  12.193   3.847
74451ION    CL-40860  15.089  17.443  11.285
74452ION    CL-40861  35.120  24.953  11.021
74453ION    CL-40862  17.840   1.956  11.508
74454ION    CL-40863  40.704  14.705  11.292
74455ION    CL-40864  40.551  23.175   4.551
74456ION    CL-40865   5.654  32.930  10.448
74457ION    CL-40866  31.509  19.073  11.140
74458ION    CL-40867  31.387  33.698  12.137
74459ION    CL-40868  30.860  23.223  11.885
74460ION    CL-40869  29.475  20.559   4.484
74461ION    CL-40870  24.779   2.513   1.979
74462ION    CL-40871  33.937  25.515   5.019
74463ION    CL-40872  33.525  40.222   4.108
74464ION    CL-40873  33.375  20.812   2.179
74465ION    CL-40874   9.320  19.192  14.978
74466ION    CL-40875  35.463  37.367   0.805
74467ION    CL-40876  30.664  14.219  14.459
74468ION    CL-40877   4.283  25.969   3.266
74469ION    CL-40878  20.651  11.670   4.794
74470ION    CL-40879  27.969  15.807  11.118
74471ION    CL-40880  36.252  21.008   4.965
74472ION    CL-40881  10.321   9.915  14.946
74473ION    CL-40882  42.522  29.002  11.991
74474ION    CL-40883   7.273  15.256   1.202
74475ION    CL-40884  36.002  40.285   4.819
74476ION    CL-40885  39.556  16.126   4.695
74477ION    CL-40886  27.623  21.006  12.947
74478ION    CL-40887  15.102  42.242   3.260
74479ION    CL-40888  31.861   6.568   1.143
74480ION    CL-40889  21.272  13.349  11.091
74481ION    CL-40890  27.487  19.026   2.229
74482ION    CL-40891  14.262  38.751  12.529
74483ION    CL-40892  13.803  17.526  12.810
74484ION    CL-40893  13.464  33.745  13.214
74485ION    CL-40894  29.286  35.827   1.307
74486ION    CL-40895  35.459  31.818   2.872
74487ION    CL-40896   4.736  37.436   0.880
74488ION    CL-40897  19.517  29.172   3.182
74489ION    CL-40898   7.585   0.709   0.549
74490ION    CL-40899   0.656  16.445  12.927
74491ION    CL-40900  21.378  20.979  13.849
74492ION    CL-40901   8.895   1.807  12.402
74493ION    CL-40902   9.160  10.947  12.091
74494ION    CL-40903  40.923  27.146   2.845
74495ION    CL-40904  22.385  19.828  10.422
74496ION    CL-40905  34.574  17.002   4.519
74497ION    CL-40906   3.336   2.965   5.167
74498ION    CL-40907   2.980  10.881  14.254
74499ION    CL-40908  43.409  25.316   4.697
74500ION    CL-40909  28.607  43.745  14.014
74501ION    CL-40910  21.805   2.411   4.091
74502ION    CL-40911  14.670  13.689   3.173
74503ION    CL-40912  30.811  14.278  10.600
74504ION    CL-40913  31.680  34.396   1.881
74505ION    CL-40914  44.367  29.232  14.596
74506ION    CL-40915  36.400   6.252   9.828
74507ION    CL-40916   5.554  11.181   3.341
74508ION    CL-40917  24.782  15.890  14.434
74509ION    CL-40918  42.656   1.285   3.870
74510ION    CL-40919  18.176  34.615   3.758
74511ION    CL-40920  19.118   9.611   1.325
74512ION    CL-40921  21.697  13.028   2.702
74513ION    CL-40922  41.037   3.864  14.542
74514ION    CL-40923  40.602   7.285   5.307
74515ION    CL-40924  20.276   5.275   4.862
74516ION    CL-40925   7.236  35.025  11.868
74517ION    CL-40926  23.406  14.117  12.259
74518ION    CL-40927  28.915  32.511  11.544
74519ION    CL-40928  40.793  21.163  12.939
74520ION    CL-40929  16.523   2.803  12.366
74521ION    CL-40930  26.909  32.303  13.878
74522ION    CL-40931   1.041  28.916   1.266
74523ION    CL-40932  30.794   1.128   2.727
74524ION    CL-40933  38.057  29.689   3.890
74525ION    CL-40934  15.854  17.739  11.395
74526ION    CL-40935  10.490  29.844   0.656
74527ION    CL-40936  25.787  38.436   1.785
74528ION    CL-40937  19.213  19.017  12.832
74529ION    CL-40938   2.822  26.656   1.284
74530ION    CL-40939  35.302  38.753  13.278
74531ION    CL-40940   2.943  37.325  13.875
74532ION    CL-40941  33.545  17.791   2.707
74533ION    CL-40942  19.543  43.156   2.340
74534ION    CL-40943  39.884  31.615  11.814
74535ION    CL-40944  39.734  33.628  14.649
74536ION    CL-40945  33.452  22.038  12.543
74537ION    CL-40946  12.646  16.303  14.392
74538ION    CL-40947  29.181   0.704  14.040
74539ION    CL-40948  41.469  15.111  12.131
74540ION    CL-40949  10.687  22.305   2.785
74541ION    CL-40950  18.130  18.454  14.842
74542ION    CL-40951  24.635  36.393  11.593
74543ION    CL-40952   4.924  38.340  14.286
74544ION    CL-40953  16.262  10.760  14.179
74545ION    CL-40954   7.279  35.391   0.143
74546ION    CL-40955  26.930  44.103   2.857
74547ION    CL-40956  22.969  11.641  14.950
74548ION    CL-40957  22.116  14.824  14.880
74549ION    CL-40958  41.193  26.324   2.663
74550ION    CL-40959   2.080  25.849   4.937
74551ION    CL-40960  26.618  41.771  12.090
74552ION    CL-40961  21.713   1.411   0.463
74553ION    CL-40962  21.293  15.826  14.401
74554ION    CL-40963  16.124  39.068   4.913
74555ION    CL-40964  18.408   0.627   3.543
74556ION    CL-40965  29.434  17.546   3.213
74557ION    CL-40966  17.959   4.597  12.673
74558ION    CL-40967  32.819  17.833   1.931
74559ION    CL-40968  42.644  22.366   2.296
74560ION    CL-40969  14.134  18.486   3.818
74561ION    CL-40970  39.526   5.132   5.039
74562ION    CL-40971  19.787   6.936   4.839
74563ION    CL-40972  14.557  35.002   1.309
74564ION    CL-40973  39.550  29.664   5.018
74565ION    CL-40974   4.396  37.671   4.637
74566ION    CL-40975   7.240  31.072  11.631
74567ION    CL-40976  17.581  27.556   5.012
74568ION    CL-40977   1.334   0.662  11.147
74569ION    CL-40978   9.758  22.726   3.302
74570ION    CL-40979   0.471   4.078   5.120
74571ION    CL-40980  22.567  42.520  12.603
74572ION    CL-40981  14.872  40.423  13.175
74573ION    CL-40982  22.811   3.626   3.329
74574ION    CL-40983  15.282  43.324  11.116
74575ION    CL-40984  42.678  36.620  14.031
74576ION    CL-40985  15.692  28.584   2.857
74577ION    CL-40986   4.648  21.593   4.148
74578ION    CL-40987  25.268  23.665   2.700
74579ION    CL-40988  12.186  13.454  13.844
74580ION    CL-40989  15.849  26.241  12.096
74581ION    CL-40990  12.561  40.300  10.113
74582ION    CL-40991  12.796  24.733   1.549
74583ION    CL-40992  32.843  20.001   1.901
74584ION    CL-40993   1.817  25.070  13.827
74585ION    CL-40994  24.737  20.096  10.625
74586ION    CL-40995   0.857  24.138  13.419
74587ION    CL-40996  40.995  11.258   3.911
74588ION    CL-40997  43.949  12.814   1.636
74589ION    CL-40998  34.894   8.830   0.061
74590ION    CL-40999  21.013  18.891   3.376
74591ION    CL-41000  12.729   3.850  10.154
74592ION    CL-41001  36.752  24.690   1.660
74593ION    CL-41002   4.155  30.631   2.254
74594ION    CL-41003   7.325   0.424  11.210
74595ION    CL-41004  30.120  21.120   0.488
74596ION    CL-41005  31.263  35.145   4.518
74597ION    CL-41006  38.126  30.339   2.353
74598ION    CL-41007  33.531  34.363   4.478
74599ION    CL-41008  41.830  13.731  11.437
74600ION    CL-41009  29.969  44.930   3.590
74601ION    CL-41010  30.742   0.879   1.255
74602ION    CL-41011  12.904  33.165  13.083
74603ION    CL-41012   7.721  14.100   3.476
74604ION    CL-41013   7.584  39.560   2.218
74605ION    CL-41014  21.086  25.310   3.313
74606ION    CL-41015  15.818  16.358  11.271
74607ION    CL-41016   1.829  16.329  11.289
74608ION    CL-41017  18.948  41.319   3.618
74609ION    CL-41018  24.373  30.343  13.463
74610ION    CL-41019  21.712   4.101   0.950
74611ION    CL-41020  17.095  30.020   0.800
74612ION    CL-41021  35.710  11.218   1.020
74613ION    CL-41022  22.505  21.280  12.988
74614ION    CL-41023  29.783  36.816   2.900
74615ION    CL-41024  42.710   7.863  12.477
74616ION    CL-41025  39.031  16.423   0.376
74617ION    CL-41026  18.755  14.740   0.983
74618ION    CL-41027  14.608   9.298  10.504
74619ION    CL-41028  40.865  19.971   2.207
74620ION    CL-41029  38.739  36.862  11.141
74621ION    CL-41030  29.585   4.136  13.020
74622ION    CL-41031   1.846  25.211   3.634
74623ION    CL-41032   7.157  30.285  11.419
74624ION    CL-41033   4.587  13.979   4.168
74625ION    CL-41034  37.910  17.829  13.051
74626ION    CL-41035   3.494  18.887   4.179
74627ION    CL-41036   8.776  37.117   1.879
74628ION    CL-41037  26.982  35.841  14.799
74629ION    CL-41038  17.951  11.728  10.987
74630ION    CL-41039  28.440   3.101   1.773
74631ION    CL-41040  29.413   2.917  13.995
74632ION    CL-41041  17.755  30.441   4.672
74633ION    CL-41042  20.432  10.101   2.910
74634ION    CL-41043  11.916   2.066  11.147
74635ION    CL-41044  17.010  10.333   2.882
74636ION    CL-41045  28.918  27.573   5.115
74637ION    CL-41046  37.978  29.601  13.736
74638ION    CL-41047   2.558  12.161   2.320
74639ION    CL-41048  29.894  34.007  11.110
74640ION    CL-41049  36.682  25.045  13.597
74641ION    CL-41050   5.123  25.756   0.094
74642ION    CL-41051   4.187  14.891   3.935
74643ION    CL-41052  44.384  30.728  13.100
74644ION    CL-41053   1.455  31.920  13.929
74645ION    CL-41054  32.996  16.491  11.903
74646ION    CL-41055   4.931  41.089  11.073
74647ION    CL-41056  42.518   6.544  11.746
74648ION    CL-41057  24.789   0.511  11.194
74649ION    CL-41058   4.697   0.363  11.531
74650ION    CL-41059  14.447  34.294   4.146
74651ION    CL-41060   7.620  22.327   0.904
74652ION    CL-41061   9.320  29.245  14.727
74653ION    CL-41062  28.177  30.935   0.737
74654ION    CL-41063  18.803  36.547  14.582
74655ION    CL-41064  30.567  14.572  12.253
74656ION    CL-41065   5.830  21.834  12.172
74657ION    CL-41066  31.369   2.372   2.189
74658ION    CL-41067  44.489  44.923   3.121
74659ION    CL-41068  19.386   8.090   4.231
74660ION    CL-41069   5.725   2.417   3.705
74661ION    CL-41070  32.602  39.401   0.350
74662ION    CL-41071  14.477   7.774   0.743
74663ION    CL-41072  44.620  43.894   2.637
74664ION    CL-41073  16.111  44.346  13.319
74665ION    CL-41074  41.990  20.925  10.077
74666ION    CL-41075  12.629  15.009  11.214
74667ION    CL-41076   1.118   7.955   2.761
74668ION    CL-41077  24.293  24.357   2.343
74669ION    CL-41078   4.729  27.382  13.106
74670ION    CL-41079  27.760  34.427   2.169
74671ION    CL-41080  36.508  10.615   4.211
74672ION    CL-41081  29.846  38.343   4.674
74673ION    CL-41082  28.090  26.143   5.001
74674ION    CL-41083  43.996  39.074   3.611
74675ION    CL-41084   8.423   7.678  14.631
74676ION    CL-41085  19.470  15.639   2.412
74677ION    CL-41086  30.054   1.299   3.172
74678ION    CL-41087  31.092  24.598  14.314
74679ION    CL-41088  33.723  32.455  12.363
74680ION    CL-41089  20.834   4.124   0.673
74681ION    CL-41090  21.614  14.020  13.419
74682ION    CL-41091  44.339   6.763   1.128
74683ION    CL-41092   8.133  39.512   3.052
74684ION    CL-41093  13.151  22.968  12.641
74685ION    CL-41094  32.339  21.273  12.168
74686ION    CL-41095  23.455  32.656   2.830
74687ION    CL-41096  12.868   1.599  11.460
74688ION    CL-41097   0.750  12.777  10.861
74689ION    CL-41098  43.220  30.773  10.327
74690ION    CL-41099  10.324  42.274  13.905
74691ION    CL-41100  26.822  35.415   1.368
74692ION    CL-41101  21.073  39.941  13.777
74693ION    CL-41102  31.675  37.541  11.961
74694ION    CL-41103  20.728   1.361   0.295
74695ION    CL-41104  40.918  44.759  11.172
74696ION    CL-41105   3.328   3.443  14.002
74697ION    CL-41106  19.612  18.292  12.271
74698ION    CL-41107   3.704  31.441  14.529
74699ION    CL-41108  25.146  27.700   1.722
74700ION    CL-41109  13.634  19.910  13.578
74701ION    CL-41110  40.979   5.004   0.651
74702ION    CL-41111  37.105  36.423   2.964
74703ION    CL-41112   9.146   8.425  11.343
74704ION    CL-41113  16.769  23.331   1.635
74705ION    CL-41114  38.086  21.218  11.037
74706ION    CL-41115   9.044  30.606  13.267
74707ION    CL-41116  22.891  24.901   0.945
74708ION    CL-41117  33.363  34.970   5.088
74709ION    CL-41118  14.431  19.307  13.629
74710ION    CL-41119  33.564  31.429   4.659
74711ION    CL-41120  28.720  36.451  13.301
74712ION    CL-41121  26.913  28.438  12.021
74713ION    CL-41122  15.385   7.800   0.847
74714ION    CL-41123  29.600  37.567  13.488
74715ION    CL-41124  17.347  20.646  10.661
74716ION    CL-41125  37.440   5.419   1.026
74717ION    CL-41126  41.628  15.670  10.286
74718ION    CL-41127  44.135  39.848  11.707
74719ION    CL-41128   3.049  27.159  10.368
74720ION    CL-41129  12.466  31.613  12.712
74721ION    CL-41130  39.388  37.237  14.887
74722ION    CL-41131  43.489  25.575  11.737
74723ION    CL-41132   4.639  15.538   2.054
74724ION    CL-41133   4.808  33.824  12.441
74725ION    CL-41134  42.133  22.805  14.810
74726ION    CL-41135  25.530  26.167  11.099
74727ION    CL-41136  27.206  42.618  11.224
74728ION    CL-41137  11.369  13.555  11.432
74729ION    CL-41138  18.554  32.043   4.934
74730ION    CL-41139   2.137  33.961  11.654
74731ION    CL-41140  43.395  41.533  11.544
74732ION    CL-41141  39.437  23.975   1.315
74733ION    CL-41142  32.538   4.442   3.213
74734ION    CL-41143  20.077  16.834  12.955
74735ION    CL-41144   3.728  40.425  13.572
74736ION    CL-41145  28.084  30.452  10.992
74737ION    CL-41146  40.690  35.120  11.831
74738ION    CL-41147  37.050  13.576   0.731
74739ION    CL-41148  13.716  26.167   5.027
74740ION    CL-41149  34.586  27.004  13.966
74741ION    CL-41150  34.340   4.603  12.074
74742ION    CL-41151  39.643  39.622   0.992
74743ION    CL-41152   3.351  24.411   5.069
74744ION    CL-41153  41.043  39.954   3.207
74745ION    CL-41154   1.260   1.050   1.652
74746ION    CL-41155  37.441   5.765  13.080
74747ION    CL-41156  35.370   6.437   1.699
74748ION    CL-41157  27.583  39.452   4.619
74749ION    CL-41158  14.814   6.336  11.270
74750ION    CL-41159  31.452   8.810   4.959
74751ION    CL-41160  13.371  20.562  10.276
74752ION    CL-41161  19.947  41.357   3.659
74753ION    CL-41162   8.888  26.089  13.911
74754ION    CL-41163  24.688  23.308   1.434
74755ION    CL-41164  21.664  29.634  11.502
74756ION    CL-41165  39.489  21.794   5.190
74757ION    CL-41166  42.371  34.578  13.887
74758ION    CL-41167  36.831  29.766  11.274
74759ION    CL-41168  32.437   9.079  12.897
74760ION    CL-41169  39.435  38.186  14.574
74761ION    CL-41170  34.853  15.421  11.482
74762ION    CL-41171   9.289  42.050   0.048
74763ION    CL-41172  43.075  13.585  13.492
74764ION    CL-41173  27.828  11.874  10.266
74765ION    CL-41174  12.316  29.674   1.011
74766ION    CL-41175  34.080  38.920   0.665
74767ION    CL-41176  40.607   5.403   2.445
74768ION    CL-41177   5.460  35.584  11.906
74769ION    CL-41178  31.866   6.225  13.603
74770ION    CL-41179  27.670  41.177   0.104
74771ION    CL-41180  32.958  44.889   3.687
74772ION    CL-41181   7.900  33.117  11.538
74773ION    CL-41182  12.721  21.773   4.037
74774ION    CL-41183  33.148   2.466   1.215
74775ION    CL-41184  14.774  37.867  11.041
74776ION    CL-41185  22.796  21.590   1.048
74777ION    CL-41186   4.719   9.107  12.136
74778ION    CL-41187  19.718  32.963  12.390
74779ION    CL-41188  12.361  39.410   0.921
74780ION    CL-41189  28.975  15.017  10.381
74781ION    CL-41190   2.526  15.151  13.069
74782ION    CL-41191  41.490   6.786   3.043
74783ION    CL-41192  19.840  41.577  11.361
74784ION    CL-41193  12.325   1.471   0.628
74785ION    CL-41194  10.425  30.920  11.612
74786ION    CL-41195  26.940  16.109  12.495
74787ION    CL-41196   5.714  34.961  14.218
74788ION    CL-41197  26.019  31.416  11.626
74789ION    CL-41198  10.732  15.644   9.837
74790ION    CL-41199  44.702  40.833   2.719
74791ION    CL-41200  21.167  38.774   2.247
74792ION    CL-41201  18.052  40.058  12.897
74793ION    CL-41202  30.187   7.543   4.067
74794ION    CL-41203  12.698  36.156   0.882
74795ION    CL-41204  13.752  18.758   1.212
74796ION    CL-41205  38.976   6.687  10.795
74797ION    CL-41206  32.794   7.861  11.114
74798ION    CL-41207  34.526  21.480   0.335
74799ION    CL-41208  10.166  19.660  12.387
74800ION    CL-41209   2.563  27.436   0.891
74801ION    CL-41210  22.427  31.078  10.559
74802ION    CL-41211  22.096  23.409  10.291
74803ION    CL-41212   4.351  41.008   0.569
74804ION    CL-41213   0.940   5.967  11.860
74805ION    CL-41214  37.456   7.335   3.288
74806ION    CL-41215  17.039  39.545   1.778
74807ION    CL-41216  15.631  28.198  13.934
74808ION    CL-41217  14.500   8.984  14.386
74809ION    CL-41218  40.232  42.368  11.617
74810ION    CL-41219  36.399   9.934  13.473
74811ION    CL-41220   1.872   8.730   3.100
74812ION    CL-41221  44.162  33.034  11.585
74813ION    CL-41222  18.910   9.432  13.791
74814ION    CL-41223  41.173  10.532  10.811
74815ION    CL-41224  42.393  24.746   4.958
74816ION    CL-41225   4.354  10.149   3.778
74817ION    CL-41226  13.087  14.206   4.991
74818ION    CL-41227  22.124  24.185   4.737
74819ION    CL-41228  43.507   8.046  14.856
74820ION    CL-41229   8.736  11.735   2.574
74821ION    CL-41230  28.253  16.815  13.096
74822ION    CL-41231   3.307  15.229   4.896
74823ION    CL-41232   5.939  10.640   1.885
74824ION    CL-41233  29.128  36.158  14.549
74825ION    CL-41234  37.159  43.652   2.352
74826ION    CL-41235   7.704  36.994   3.204
74827ION    CL-41236  22.611   4.827  14.154
74828ION    CL-41237  43.650   5.415   4.997
74829ION    CL-41238  30.364  22.484   4.990
74830ION    CL-41239   8.950  31.224   0.683
74831ION    CL-41240  35.142  21.604   3.959
74832ION    CL-41241  17.872  25.576  12.401
74833ION    CL-41242  34.370  25.409  10.775
74834ION    CL-41243  33.702  42.409   2.427
74835ION    CL-41244  20.344  37.900   2.395
74836ION    CL-41245   3.413  37.347   0.018
74837ION    CL-41246  34.222  39.424   3.606
74838ION    CL-41247  43.814  43.843  13.349
74839ION    CL-41248  29.519  29.568  10.507
74840ION    CL-41249   8.199  29.030   2.903
74841ION    CL-41250  36.947  25.628  14.365
74842ION    CL-41251   1.294  28.951   5.034
74843ION    CL-41252  37.407  12.527  11.415
74844ION    CL-41253  25.420  18.253   1.586
74845ION    CL-41254   3.694  34.728   3.644
74846ION    CL-41255  21.704  34.644  13.283
74847ION    CL-41256  15.580   7.163  13.878
74848ION    CL-41257  42.362  44.384  12.893
74849ION    CL-41258  18.882  27.252  14.268
74850ION    CL-41259  22.493  21.769  10.930
74851ION    CL-41260  43.043  38.509   0.889
74852ION    CL-41261  13.732  23.850  14.838
74853ION    CL-41262  28.289  21.096  11.147
74854ION    CL-41263  15.752   6.051   2.412
74855ION    CL-41264  36.767  37.356  12.927
74856ION    CL-41265  33.686  36.410  13.300
74857ION    CL-41266  14.471  21.546  13.490
74858ION    CL-41267   8.181  37.390   4.493
74859ION    CL-41268  37.259  32.751  13.943
74860ION    CL-41269  11.214  42.774   2.122
74861ION    CL-41270   3.569  12.330   0.882
74862ION    CL-41271   0.358  43.928  10.948
74863ION    CL-41272  42.465  31.451   4.142
74864ION    CL-41273  41.137   8.573  13.004
74865ION    CL-41274  39.213  25.261  11.103
74866ION    CL-41275  23.995  12.331  10.758
74867ION    CL-41276   9.823  31.070   4.229
74868ION    CL-41277  19.070   8.489  14.187
74869ION    CL-41278  33.951  35.489  11.130
74870ION    CL-41279  32.956  15.098   4.841
74871ION    CL-41280  16.886  29.399  10.351
74872ION    CL-41281  28.507  12.443  13.653
74873ION    CL-41282  40.435   7.583  12.615
74874ION    CL-41283  39.281  26.053  14.347
74875ION    CL-41284  42.291   2.399   0.691
74876ION    CL-41285   8.961  37.985  13.076
74877ION    CL-41286   5.246  11.793  12.959
74878ION    CL-41287  26.483   8.100  12.310
74879ION    CL-41288  18.859   4.204  13.138
74880ION    CL-41289  18.878  20.124  14.760
74881ION    CL-41290  36.850  21.831  12.864
74882ION    CL-41291  32.062  35.097   5.117
74883ION    CL-41292   0.276   3.101   4.177
74884ION    CL-41293  12.146   5.952   3.172
74885ION    CL-41294  27.727   6.150  12.705
74886ION    CL-41295   5.130  31.878  11.119
74887ION    CL-41296  10.938  25.233   3.599
74888ION    CL-41297  41.131  20.861  11.936
74889ION    CL-41298  26.946  37.887  10.191
74890ION    CL-41299  23.793  40.167  12.326
74891ION    CL-41300  31.393  31.119   1.831
74892ION    CL-41301  33.652  32.288   1.646
74893ION    CL-41302  25.830  17.681   0.876
74894ION    CL-41303  43.447  32.396   4.146
74895ION    CL-41304   0.440  43.906   3.834
74896ION    CL-41305  38.260   5.527   0.460
74897ION    CL-41306  34.740  34.487   4.312
74898ION    CL-41307  28.651  12.860   0.410
74899ION    CL-41308  43.505   7.249   9.873
74900ION    CL-41309  14.287  18.627  14.347
74901ION    CL-41310  35.012   8.854   4.483
74902ION    CL-41311  15.005   1.837  12.444
74903ION    CL-41312  14.586  24.176  13.395
74904ION    CL-41313  29.130  15.558  12.631
74905ION    CL-41314  18.448  28.194   2.193
74906ION    CL-41315   6.845  20.109   1.635
74907ION    CL-41316  39.324  40.392  10.675
74908ION    CL-41317  29.051  17.958   4.040
74909ION    CL-41318  38.792  38.447   3.686
74910ION    CL-41319  30.177  13.054   4.062
74911ION    CL-41320  41.554  41.818  10.847
74912ION    CL-41321   5.110  15.749  14.619
74913ION    CL-41322  19.476   5.516  11.501
74914ION    CL-41323  32.694  38.417   0.509
74915ION    CL-41324  16.736  29.724   3.788
74916ION    CL-41325   2.940  39.221  12.805
74917ION    CL-41326   5.637  14.337  14.331
74918ION    CL-41327  28.893  30.402   4.986
74919ION    CL-41328  33.552  17.162  12.393
74920ION    CL-41329  30.828   1.290  11.062
74921ION    CL-41330  22.038   5.510   4.380
74922ION    CL-41331  27.903  16.286  12.244
74923ION    CL-41332  23.870  20.724   1.277
74924ION    CL-41333   5.348  39.021   9.861
74925ION    CL-41334  29.643  22.566  10.747
74926ION    CL-41335  32.317  17.716   2.888
74927ION    CL-41336   6.575  36.113  14.732
74928ION    CL-41337  44.920  25.409  13.091
74929ION    CL-41338  37.776  16.447   1.231
74930ION    CL-41339   6.429  17.799   4.076
74931ION    CL-41340  13.007  41.143  13.330
74932ION    CL-41341  37.845  24.109   1.476
74933ION    CL-41342  42.034   0.285   4.184
74934ION    CL-41343  43.842  44.814  13.634
74935ION    CL-41344   5.377  26.645  12.457
74936ION    CL-41345  27.632   9.554   3.726
74937ION    CL-41346  14.573   9.303   0.224
74938ION    CL-41347  24.353  21.656   2.989
74939ION    CL-41348  33.182   8.662   5.045
74940ION    CL-41349  37.114  31.665   3.654
74941ION    CL-41350  13.704  43.202  14.474
74942ION    CL-41351  41.570  38.221  11.635
74943ION    CL-41352  16.542  15.080  13.483
74944ION    CL-41353   5.038  19.078   3.797
74945ION    CL-41354   3.368  30.390   0.197
74946ION    CL-41355  18.984   1.361  14.026
74947ION    CL-41356  20.351  28.483   3.024
74948ION    CL-41357   6.756   6.042  11.652
74949ION    CL-41358  39.410  20.518   5.035
74950ION    CL-41359  24.484   8.936  13.427
74951ION    CL-41360  16.228   2.702   1.269
74952ION    CL-41361  35.546   4.200   2.706
74953ION    CL-41362  32.405  31.458   3.218
74954ION    CL-41363  30.938  42.580   3.890
74955ION    CL-41364  25.610  34.626   0.414
74956ION    CL-41365  19.901  12.936   3.455
74957ION    CL-41366  43.433  26.209   0.407
74958ION    CL-41367  31.070  15.193   4.916
74959ION    CL-41368  10.716  14.675  12.664
74960ION    CL-41369  41.148  36.433  12.186
74961ION    CL-41370  31.624   4.494   4.450
74962ION    CL-41371  37.519  24.498  13.566
74963ION    CL-41372  29.543  38.821  11.142
74964ION    CL-41373  34.244  16.235   4.665
74965ION    CL-41374   8.453  39.945  10.683
74966ION    CL-41375   2.907  13.752  12.914
74967ION    CL-41376  31.972   3.627   3.083
74968ION    CL-41377  22.418  18.433  13.165
74969ION    CL-41378   1.945  28.178  12.933
74970ION    CL-41379   4.455  21.062  13.386
74971ION    CL-41380   7.769  13.318   2.811
74972ION    CL-41381  29.966   1.951  10.946
74973ION    CL-41382  28.650   2.793  14.660
74974ION    CL-41383  38.387  13.637   0.386
74975ION    CL-41384  11.778  20.963  10.756
74976ION    CL-41385  29.860  28.709  13.608
74977ION    CL-41386  32.309   4.894  11.042
74978ION    CL-41387  18.681  24.889   3.671
74979ION    CL-41388  40.899  33.007  12.766
74980ION    CL-41389  33.156  38.931  11.937
74981ION    CL-41390  28.174  13.478  13.319
74982ION    CL-41391  30.592  38.817   3.679
74983ION    CL-41392   9.963   2.134  10.345
74984ION    CL-41393  17.716  10.846   3.670
74985ION    CL-41394   0.180  27.507   0.066
74986ION    CL-41395  24.669  44.514   4.095
74987ION    CL-41396  33.694   4.861   2.721
74988ION    CL-41397   8.174  41.275   3.005
74989ION    CL-41398  39.192  37.837  13.629
74990ION    CL-41399   4.012  39.768   0.907
74991ION    CL-41400  44.938  23.063   0.961
74992ION    CL-41401  17.331  28.495   4.932
74993ION    CL-41402  44.759  11.906  13.964
74994ION    CL-41403  14.083   6.263  14.962
74995ION    CL-41404  28.530  21.323  12.508
74996ION    CL-41405   4.683  16.154   2.866
74997ION    CL-41406  38.663  37.259  13.244
74998ION    CL-41407  38.290  39.825  11.583
74999ION    CL-41408  15.970  41.020   9.878
75000ION    CL-41409  19.721  15.317  12.737
75001ION    CL-41410  25.976  44.053   3.798
75002ION    CL-41411  17.046  19.108   2.153
75003ION    CL-41412  19.592   5.707   0.291
75004ION    CL-41413  17.506  26.284   1.813
75005ION    CL-41414  18.238   7.994  14.986
75006ION    CL-41415  29.658  18.636  13.758
75007ION    CL-41416   4.277  38.193   0.035
75008ION    CL-41417  33.894   6.958  10.181
75009ION    CL-41418  21.559  20.253   2.840
  45.00000  45.00000  15.00000
